ITEM: TIMESTEP
0
ITEM: NUMBER OF ATOMS
161
ITEM: BOX BOUNDS xy xz yz pp pp pp
-6.7755000000000001e+00 1.3552000000000000e+01 -6.7755000000000001e+00
0.0000000000000000e+00 1.1735510246683001e+01 0.0000000000000000e+00
0.0000000000000000e+00 2.2149999999999999e+01 0.0000000000000000e+00
ITEM: ATOMS id type x y z 
8 1 -2.486 5.297 9.849 
87 1 3.001 4.231 10.696 
90 1 2.733 5.481 9.824 
109 1 -2.486 5.297 0.765 
158 1 2.733 5.481 0.79 
11 1 4.24 4.139 20.131 
14 1 3.031 4.094 19.728 
18 1 1.299 5.827 18.554 
33 1 2.266 4.151 20.924 
43 1 4.343 3.96 21.647 
47 1 3.32 5.732 17.88 
52 1 4.24 4.139 12.633 
76 1 2.552 4.924 14.209 
85 1 4.343 3.96 11.117 
89 1 3.32 5.732 14.883 
91 1 1.036 5.037 11.84 
102 1 3.031 4.094 13.035 
105 1 1.299 5.827 14.209 
114 1 2.266 4.151 11.84 
150 1 2.552 4.924 18.554 
156 1 3.001 4.231 22.068 
159 1 1.036 5.037 20.924 
5 1 -5.049 10.63 8.653 
9 1 -3.317 8.897 7.479 
19 1 -1.707 7.414 10.572 
21 1 -2.66 8.795 10.993 
23 1 -3.31 7.532 6.805 
25 1 -4.284 10.573 9.849 
32 1 1.503 6.367 0.79 
36 1 -1.869 7.426 9.056 
38 1 -2.209 6.086 8.653 
54 1 0.3 8.576 10.696 
57 1 1.291 8.001 9.824 
60 1 -1.707 7.414 0.042 
65 1 -3.31 7.532 3.808 
78 1 -1.869 7.426 1.558 
80 1 -2.566 8.842 1.961 
84 1 -4.57 9.799 3.135 
99 1 -3.054 9.687 0.765 
100 1 -2.96 6.142 3.135 
107 1 -5.049 10.63 1.961 
110 1 -3.317 8.897 3.135 
111 1 0.642 5.929 10.696 
113 1 1.503 6.367 9.824 
119 1 -4.284 10.573 0.765 
127 1 -2.209 6.086 1.961 
131 1 -2.318 6.148 10.993 
138 1 1.291 8.001 0.79 
142 1 -2.566 8.842 8.653 
145 1 -4.57 9.799 7.479 
151 1 -5.019 10.493 10.993 
154 1 -3.054 9.687 9.849 
155 1 -2.96 6.142 7.479 
12 1 2.53 7.1 17.202 
17 1 0.468 9.427 20.924 
24 1 -3.52 8.357 11.865 
27 1 -0.31 7.31 21.647 
29 1 0.642 5.929 22.068 
31 1 1.292 7.192 17.88 
44 1 -0.148 7.298 20.131 
46 1 0.191 8.638 19.728 
51 1 -0.31 7.31 11.117 
53 1 2.53 7.1 15.561 
56 1 1.292 7.192 14.883 
63 1 -2.318 6.148 21.771 
66 1 -3.309 6.723 20.899 
70 1 -0.148 7.298 12.633 
72 1 0.548 5.882 13.035 
92 1 0.942 8.582 14.209 
95 1 -5.019 10.493 21.771 
98 1 -4.751 9.243 20.899 
104 1 0.468 9.427 11.84 
116 1 -2.66 8.795 21.771 
118 1 -3.52 8.357 20.899 
122 1 0.191 8.638 13.035 
133 1 -3.309 6.723 11.865 
136 1 0.3 8.576 22.068 
147 1 0.548 5.882 19.728 
153 1 -4.751 9.243 11.865 
160 1 0.942 8.582 18.554 
161 2 0.418 9.757 14.616 
1 1 7.976 4.694 10.572 
4 1 9.274 4.77 10.993 
20 1 8.034 4.861 9.056 
42 1 9.55 5.41 7.479 
67 1 10.043 4.578 0.765 
77 1 7.976 4.694 0.042 
94 1 8.035 4.861 1.558 
96 1 9.278 4.635 1.961 
121 1 4.688 5.417 10.696 
130 1 9.55 5.41 3.135 
134 1 10.043 4.578 9.849 
152 1 9.278 4.635 8.653 
45 1 4.688 5.417 22.068 
55 1 4.788 5.329 13.035 
106 1 9.274 4.77 21.771 
137 1 4.788 5.329 19.728 
2 1 7.294 10.585 9.056 
3 1 9.004 7.624 6.127 
6 1 8.556 6.347 6.805 
16 1 2.314 8.72 0.79 
22 1 7.166 6.156 8.653 
26 1 7.226 8.565 7.479 
35 1 7.191 10.764 10.572 
37 1 6.846 9.307 10.993 
39 1 8.214 8.992 6.805 
41 1 6.677 7.002 9.849 
48 1 3.775 6.213 0.79 
61 1 7.294 10.585 1.558 
62 1 9.004 7.624 4.487 
64 1 6.747 9.395 1.961 
68 1 7.437 6.931 3.135 
71 1 4.29 8.493 10.696 
74 1 3.567 7.818 9.824 
81 1 8.556 6.347 3.808 
83 1 6.47 8.606 0.765 
93 1 7.191 10.764 0.042 
97 1 8.214 8.992 3.808 
101 1 2.261 9.954 10.696 
103 1 2.314 8.72 9.824 
117 1 7.166 6.156 1.961 
120 1 7.226 8.565 3.135 
123 1 3.775 6.213 9.824 
129 1 6.677 7.002 0.765 
132 1 6.747 9.395 8.653 
135 1 7.437 6.931 7.479 
141 1 7.244 6.231 10.993 
144 1 6.47 8.606 9.849 
148 1 3.567 7.818 0.79 
7 1 9.22 6.004 11.865 
10 1 3.558 10.029 21.647 
13 1 2.261 9.954 22.068 
15 1 2.978 8.376 17.88 
28 1 3.5 9.862 20.131 
30 1 4.369 8.568 19.728 
34 1 4.308 6.159 18.554 
40 1 7.76 8.511 11.865 
49 1 4.857 7.722 20.924 
50 1 1.984 9.314 18.554 
58 1 1.491 10.146 11.84 
59 1 4.097 7.793 14.209 
69 1 3.558 10.029 11.117 
73 1 2.978 8.376 14.883 
75 1 5.064 6.118 11.84 
79 1 7.244 6.231 21.771 
82 1 7.967 6.906 20.899 
86 1 3.5 9.862 12.633 
88 1 2.256 10.089 13.035 
108 1 9.22 6.004 20.899 
112 1 4.369 8.568 13.035 
115 1 4.308 6.159 14.209 
124 1 4.857 7.722 11.84 
125 1 1.984 9.314 14.209 
126 1 6.846 9.307 21.771 
128 1 7.76 8.511 20.899 
139 1 1.491 10.146 20.924 
140 1 4.097 7.793 18.554 
143 1 7.967 6.906 11.865 
146 1 4.29 8.493 22.068 
149 1 5.064 6.118 20.924 
157 1 2.256 10.089 19.728 
ITEM: TIMESTEP
10
ITEM: NUMBER OF ATOMS
161
ITEM: BOX BOUNDS xy xz yz pp pp pp
-6.7755000000000001e+00 1.3552000000000000e+01 -6.7755000000000001e+00
0.0000000000000000e+00 1.1735510246683001e+01 0.0000000000000000e+00
0.0000000000000000e+00 2.2149999999999999e+01 0.0000000000000000e+00
ITEM: ATOMS id type x y z 
8 1 -2.41987 5.35967 9.86993 
87 1 2.98122 4.26035 10.658 
90 1 2.63806 5.4411 9.78385 
109 1 -2.41991 5.35799 0.742139 
158 1 2.64489 5.45235 0.82609 
11 1 4.27417 4.19531 20.1599 
14 1 2.92911 4.12417 19.7 
18 1 1.31359 5.86189 18.6017 
33 1 2.16137 4.21209 20.9091 
43 1 4.31216 4.14047 21.5869 
47 1 3.27128 5.79234 17.8327 
52 1 4.28406 4.19289 12.6064 
76 1 2.44468 4.89122 14.1848 
85 1 4.31762 4.12739 11.176 
89 1 3.26103 5.7904 14.934 
91 1 1.00386 5.0654 11.8555 
102 1 2.9356 4.10656 13.0569 
105 1 1.31888 5.84291 14.1763 
114 1 2.15919 4.20997 11.8512 
150 1 2.43664 4.92264 18.5818 
156 1 2.9843 4.26387 22.1026 
159 1 1.00353 5.06386 20.8954 
5 1 -4.95489 10.6064 8.62801 
9 1 -3.35249 8.85126 7.50511 
19 1 -1.74879 7.45724 10.547 
21 1 -2.59794 8.76963 10.879 
23 1 -3.3229 7.54707 6.84872 
25 1 -4.17969 10.5204 9.83411 
32 1 1.58623 6.35502 0.773776 
36 1 -1.90176 7.52241 9.06798 
38 1 -2.15018 6.1963 8.6387 
54 1 0.309334 8.50076 10.6458 
57 1 1.33467 7.98402 9.78753 
60 1 -1.74945 7.45996 0.0652483 
65 1 -3.32324 7.54078 3.782 
78 1 -1.89833 7.52557 1.54393 
80 1 -2.53619 8.78196 1.84125 
84 1 -4.45046 9.83711 3.10329 
99 1 -3.01824 9.67146 0.793326 
100 1 -2.92921 6.2571 3.19004 
107 1 -4.95675 10.614 1.97694 
110 1 -3.3417 8.85788 3.10754 
111 1 0.58906 5.95263 10.8003 
113 1 1.59354 6.34496 9.84157 
119 1 -4.18103 10.5203 0.779249 
127 1 -2.14745 6.19265 1.9735 
131 1 -2.3355 6.20217 11.0136 
138 1 1.33312 7.98322 0.809345 
142 1 -2.54097 8.77983 8.76146 
145 1 -4.45264 9.81125 7.50426 
151 1 -5.00476 10.4587 11.0331 
154 1 -3.01909 9.67247 9.82219 
155 1 -2.92855 6.2694 7.42525 
12 1 2.57276 7.07609 17.159 
17 1 0.398071 9.3675 20.9444 
24 1 -3.5968 8.36693 11.8553 
27 1 -0.267908 7.25687 21.6246 
29 1 0.588816 5.95423 21.9567 
31 1 1.29714 7.17655 17.9236 
44 1 -0.112739 7.19356 20.1404 
46 1 0.133866 8.52518 19.71 
51 1 -0.264518 7.24691 11.1087 
53 1 2.57927 7.08689 15.6304 
56 1 1.32783 7.11931 14.8745 
63 1 -2.33175 6.21101 21.7523 
66 1 -3.35871 6.73285 20.8822 
70 1 -0.131889 7.19008 12.6006 
72 1 0.532138 5.91553 12.9241 
92 1 0.794556 8.50101 14.2887 
95 1 -5.00565 10.4564 21.7323 
98 1 -4.68841 9.25487 20.8629 
104 1 0.432406 9.43189 11.8182 
116 1 -2.59787 8.76473 21.8801 
118 1 -3.59277 8.36675 20.9114 
122 1 0.112982 8.46432 12.9665 
133 1 -3.36084 6.72864 11.8822 
136 1 0.310277 8.51896 22.0866 
147 1 0.531862 5.93832 19.8336 
153 1 -4.69038 9.25885 11.9016 
160 1 0.916411 8.4634 18.5038 
161 2 0.492069 9.83007 14.7434 
1 1 7.8875 4.90053 10.5222 
4 1 9.17441 4.78404 11.0358 
20 1 7.89444 4.9556 9.07281 
42 1 9.46365 5.42923 7.42448 
67 1 10.0011 4.54633 0.763013 
77 1 7.88438 4.89608 0.0555402 
94 1 7.87406 4.92804 1.56685 
96 1 9.23305 4.63834 2.00388 
121 1 4.69859 5.41572 10.739 
130 1 9.4634 5.42989 3.18812 
134 1 9.9962 4.54847 9.85043 
152 1 9.1979 4.64123 8.62524 
45 1 4.69197 5.41847 22.0223 
55 1 4.81427 5.47158 13.0453 
106 1 9.17964 4.78405 21.7233 
137 1 4.81102 5.47342 19.7131 
2 1 7.25974 10.5273 9.08539 
3 1 8.96803 7.64726 6.0722 
6 1 8.52668 6.39708 6.83313 
16 1 2.35141 8.6933 0.834392 
22 1 7.16929 6.18817 8.74069 
26 1 7.1814 8.42925 7.55544 
35 1 7.21827 10.5849 10.512 
37 1 6.85217 9.30289 10.9506 
39 1 8.27595 8.92403 6.76293 
41 1 6.74675 7.01519 9.82729 
48 1 3.73778 6.34816 0.833481 
61 1 7.25902 10.527 1.52806 
62 1 8.97024 7.633 4.54254 
64 1 6.72069 9.25131 1.98 
68 1 7.40358 6.96186 3.05885 
71 1 4.29696 8.5325 10.7963 
74 1 3.61911 7.8171 9.83986 
81 1 8.53094 6.39549 3.78531 
83 1 6.54002 8.45542 0.787004 
93 1 7.21864 10.5845 0.102258 
97 1 8.27369 8.92441 3.87068 
101 1 2.36697 9.93046 10.6303 
103 1 2.3508 8.69663 9.76433 
117 1 7.15081 6.21567 1.88286 
120 1 7.16615 8.42371 3.04867 
123 1 3.73584 6.34977 9.76877 
129 1 6.74496 7.01779 0.782704 
132 1 6.72283 9.25127 8.63541 
135 1 7.40807 6.96256 7.55575 
141 1 7.23676 6.19475 10.891 
144 1 6.53878 8.45612 9.82723 
148 1 3.61154 7.81357 0.772092 
7 1 9.19963 6.04181 11.9173 
10 1 3.6515 9.82225 21.5964 
13 1 2.36175 9.93227 22.1223 
15 1 3.00415 8.33257 17.9124 
28 1 3.63912 9.76817 20.148 
30 1 4.36418 8.53883 19.812 
34 1 4.3545 6.29376 18.6317 
40 1 7.80099 8.36804 11.8981 
49 1 4.79019 7.70889 20.904 
50 1 2.06855 9.28808 18.5038 
58 1 1.46981 10.1715 11.8423 
59 1 4.11331 7.76649 14.1308 
69 1 3.64364 9.82698 11.151 
73 1 2.98082 8.33741 14.8321 
75 1 4.99897 6.26548 11.8748 
79 1 7.23366 6.20168 21.8648 
82 1 7.9154 6.93981 20.9143 
86 1 3.63971 9.78141 12.6109 
88 1 2.37513 10.05 13.0922 
108 1 9.19818 6.04134 20.846 
112 1 4.37554 8.52579 12.9577 
115 1 4.36001 6.30119 14.1288 
124 1 4.79636 7.70066 11.8576 
125 1 2.08856 9.40828 14.3068 
126 1 6.85459 9.30303 21.8115 
128 1 7.79771 8.37008 20.868 
139 1 1.53618 10.1786 20.9236 
140 1 4.12565 7.76281 18.6297 
143 1 7.91598 6.93841 11.8499 
146 1 4.29565 8.53049 21.969 
149 1 4.99495 6.26508 20.8963 
157 1 2.33769 10.078 19.6916 
ITEM: TIMESTEP
20
ITEM: NUMBER OF ATOMS
161
ITEM: BOX BOUNDS xy xz yz pp pp pp
-6.7755000000000001e+00 1.3552000000000000e+01 -6.7755000000000001e+00
0.0000000000000000e+00 1.1735510246683001e+01 0.0000000000000000e+00
0.0000000000000000e+00 2.2149999999999999e+01 0.0000000000000000e+00
ITEM: ATOMS id type x y z 
8 1 -2.41998 5.37633 9.84572 
87 1 2.97454 4.26737 10.6457 
90 1 2.65826 5.46299 9.78333 
109 1 -2.41861 5.37756 0.767777 
158 1 2.64823 5.46288 0.828616 
11 1 4.28444 4.20362 20.1267 
14 1 2.90738 4.136 19.6902 
18 1 1.31484 5.85902 18.5949 
33 1 2.13312 4.21549 20.9046 
43 1 4.31334 4.16453 21.5905 
47 1 3.26289 5.79743 17.834 
52 1 4.28744 4.20498 12.6322 
76 1 2.44956 4.92131 14.1727 
85 1 4.31627 4.15757 11.1733 
89 1 3.26963 5.78077 14.9148 
91 1 0.992548 5.05463 11.8529 
102 1 2.91252 4.13243 13.081 
105 1 1.31819 5.84535 14.1717 
114 1 2.13993 4.20869 11.8569 
150 1 2.44048 4.92999 18.5871 
156 1 2.97225 4.26823 22.1188 
159 1 0.992392 5.0594 20.9141 
5 1 -4.92185 10.5827 8.61806 
9 1 -3.33392 8.86449 7.52287 
19 1 -1.75341 7.48386 10.5503 
21 1 -2.62283 8.76208 10.8756 
23 1 -3.30825 7.55232 6.84436 
25 1 -4.15165 10.5082 9.82542 
32 1 1.60067 6.36567 0.752884 
36 1 -1.88063 7.52134 9.06705 
38 1 -2.16019 6.20512 8.63671 
54 1 0.318196 8.51194 10.643 
57 1 1.36864 7.97086 9.78623 
60 1 -1.75071 7.48734 0.0643352 
65 1 -3.31021 7.55227 3.76879 
78 1 -1.88078 7.52224 1.5459 
80 1 -2.55097 8.79316 1.84177 
84 1 -4.46001 9.79131 3.08654 
99 1 -3.01186 9.66251 0.775239 
100 1 -2.93435 6.27197 3.17576 
107 1 -4.90859 10.5746 2.0068 
110 1 -3.34365 8.87153 3.08869 
111 1 0.603933 5.96045 10.8037 
113 1 1.59877 6.3586 9.85845 
119 1 -4.15188 10.507 0.79053 
127 1 -2.16124 6.20742 1.97778 
131 1 -2.33079 6.20252 11.02 
138 1 1.36065 7.96776 0.809594 
142 1 -2.54771 8.79443 8.77096 
145 1 -4.4602 9.79571 7.51698 
151 1 -4.98852 10.4551 11.0407 
154 1 -3.0118 9.66554 9.83944 
155 1 -2.93484 6.2711 7.43783 
12 1 2.56893 7.07504 17.1677 
17 1 0.401162 9.34579 20.9203 
24 1 -3.61852 8.36167 11.8282 
27 1 -0.267202 7.23725 21.6253 
29 1 0.605429 5.96488 21.9493 
31 1 1.28713 7.17303 17.9206 
44 1 -0.136908 7.20308 20.1432 
46 1 0.143546 8.51686 19.7132 
51 1 -0.269391 7.23383 11.1021 
53 1 2.56893 7.09305 15.6146 
56 1 1.33065 7.115 14.8551 
63 1 -2.32971 6.20763 21.7453 
66 1 -3.37876 6.75575 20.8778 
70 1 -0.147133 7.17493 12.6041 
72 1 0.533144 5.91762 12.9082 
92 1 0.777963 8.49235 14.315 
95 1 -4.98699 10.4524 21.7236 
98 1 -4.67084 9.26341 20.8637 
104 1 0.391986 9.36518 11.8248 
116 1 -2.62199 8.7613 21.8917 
118 1 -3.61793 8.36067 20.9361 
122 1 0.125031 8.48474 12.9609 
133 1 -3.37993 6.75452 11.887 
136 1 0.311943 8.51768 22.094 
147 1 0.526029 5.93052 19.854 
153 1 -4.67126 9.26309 11.9013 
160 1 0.915628 8.45202 18.5148 
161 2 0.549624 9.79832 14.743 
1 1 7.85785 4.90362 10.5332 
4 1 9.17038 4.80278 11.0194 
20 1 7.87387 4.94373 9.06645 
42 1 9.4634 5.44254 7.43795 
67 1 9.97447 4.5555 0.762833 
77 1 7.85326 4.89382 0.0794451 
94 1 7.87748 4.94634 1.54841 
96 1 9.19419 4.66309 1.99968 
121 1 4.66755 5.46413 10.7077 
130 1 9.46323 5.44427 3.17584 
134 1 9.97417 4.55588 9.8507 
152 1 9.19453 4.6627 8.61504 
45 1 4.66994 5.46241 22.054 
55 1 4.80848 5.49805 13.0679 
106 1 9.17217 4.8064 21.7457 
137 1 4.81117 5.49618 19.7005 
2 1 7.25071 10.5192 9.04546 
3 1 8.96763 7.64779 6.07643 
6 1 8.51702 6.38988 6.82071 
16 1 2.35412 8.68671 0.844084 
22 1 7.1457 6.19432 8.72395 
26 1 7.19316 8.43076 7.55441 
35 1 7.21991 10.5621 10.5212 
37 1 6.86507 9.26232 10.9751 
39 1 8.27098 8.92614 6.76043 
41 1 6.73403 7.00597 9.83548 
48 1 3.70308 6.35417 0.818078 
61 1 7.24733 10.5274 1.57705 
62 1 8.97081 7.64168 4.53713 
64 1 6.72372 9.2119 1.99452 
68 1 7.39552 6.96972 3.05649 
71 1 4.29804 8.51702 10.7736 
74 1 3.60523 7.78363 9.83493 
81 1 8.51731 6.39094 3.79225 
83 1 6.53681 8.44835 0.792155 
93 1 7.21818 10.5626 0.0816963 
97 1 8.2748 8.93412 3.84284 
101 1 2.35227 9.91308 10.6651 
103 1 2.35665 8.68816 9.76003 
117 1 7.14742 6.19184 1.89274 
120 1 7.19531 8.42962 3.05648 
123 1 3.70762 6.35328 9.79603 
129 1 6.73304 7.00604 0.778844 
132 1 6.72555 9.22334 8.6277 
135 1 7.39614 6.96507 7.55796 
141 1 7.23503 6.20091 10.9135 
144 1 6.53626 8.44564 9.82072 
148 1 3.60214 7.79195 0.781431 
7 1 9.17889 6.03535 11.9219 
10 1 3.67786 9.82141 21.6095 
13 1 2.36442 9.92044 22.0939 
15 1 3.01684 8.33644 17.8979 
28 1 3.65984 9.7817 20.1408 
30 1 4.38958 8.53071 19.7978 
34 1 4.3415 6.29574 18.6269 
40 1 7.83098 8.36768 11.8927 
49 1 4.80233 7.71865 20.9107 
50 1 2.06976 9.2831 18.5143 
58 1 1.56443 10.1766 11.8427 
59 1 4.10969 7.7603 14.1326 
69 1 3.6736 9.82701 11.1416 
73 1 2.97112 8.33274 14.8256 
75 1 4.99913 6.28061 11.8651 
79 1 7.23358 6.20381 21.8473 
82 1 7.93195 6.9305 20.9058 
86 1 3.66496 9.77833 12.6159 
88 1 2.35578 10.0383 13.0674 
108 1 9.17961 6.0351 20.8421 
112 1 4.3943 8.52487 12.9698 
115 1 4.33356 6.30104 14.1337 
124 1 4.80175 7.7175 11.8522 
125 1 2.07736 9.4051 14.3236 
126 1 6.86708 9.26139 21.7893 
128 1 7.83052 8.36901 20.8719 
139 1 1.561 10.1663 20.926 
140 1 4.13978 7.75891 18.6327 
143 1 7.93154 6.93005 11.8573 
146 1 4.29902 8.52365 21.9903 
149 1 4.99811 6.28008 20.898 
157 1 2.33824 10.0601 19.6918 
ITEM: TIMESTEP
30
ITEM: NUMBER OF ATOMS
161
ITEM: BOX BOUNDS xy xz yz pp pp pp
-6.7755000000000001e+00 1.3552000000000000e+01 -6.7755000000000001e+00
0.0000000000000000e+00 1.1735510246683001e+01 0.0000000000000000e+00
0.0000000000000000e+00 2.2149999999999999e+01 0.0000000000000000e+00
ITEM: ATOMS id type x y z 
8 1 -2.42667 5.38563 9.84254 
87 1 2.96896 4.26793 10.6425 
90 1 2.64322 5.45187 9.78427 
109 1 -2.42595 5.38719 0.770019 
158 1 2.64121 5.45679 0.827365 
11 1 4.28029 4.21421 20.1265 
14 1 2.90272 4.14117 19.6936 
18 1 1.31237 5.85886 18.5997 
33 1 2.12359 4.21337 20.9054 
43 1 4.30377 4.18745 21.5775 
47 1 3.25302 5.79937 17.829 
52 1 4.28552 4.21525 12.6345 
76 1 2.44485 4.91903 14.1795 
85 1 4.30928 4.18176 11.1827 
89 1 3.25514 5.78834 14.9259 
91 1 0.983075 5.0474 11.8479 
102 1 2.90934 4.13073 13.0699 
105 1 1.31222 5.8478 14.1708 
114 1 2.12806 4.20756 11.8569 
150 1 2.43203 4.93609 18.5872 
156 1 2.96698 4.27095 22.1219 
159 1 0.981647 5.05306 20.9168 
5 1 -4.92092 10.5822 8.6184 
9 1 -3.33012 8.86405 7.5248 
19 1 -1.74939 7.48869 10.5501 
21 1 -2.62497 8.76226 10.8766 
23 1 -3.30472 7.55685 6.84196 
25 1 -4.14056 10.5119 9.83072 
32 1 1.60444 6.38133 0.750025 
36 1 -1.8674 7.52724 9.0652 
38 1 -2.15699 6.2146 8.6357 
54 1 0.316734 8.50993 10.6404 
57 1 1.37678 7.95649 9.7859 
60 1 -1.74709 7.4919 0.0642917 
65 1 -3.30484 7.55779 3.77211 
78 1 -1.86506 7.5276 1.54727 
80 1 -2.54136 8.79188 1.83472 
84 1 -4.44992 9.78566 3.10256 
99 1 -2.99883 9.67179 0.77232 
100 1 -2.936 6.27705 3.17498 
107 1 -4.91996 10.5849 1.99593 
110 1 -3.33096 8.86496 3.08897 
111 1 0.605062 5.9579 10.8023 
113 1 1.60883 6.37505 9.86058 
119 1 -4.13951 10.5116 0.782689 
127 1 -2.15662 6.21523 1.97774 
131 1 -2.33521 6.20677 11.0231 
138 1 1.36965 7.95686 0.809141 
142 1 -2.54076 8.79282 8.77922 
145 1 -4.45126 9.78684 7.51163 
151 1 -4.98516 10.453 11.0447 
154 1 -2.99891 9.67199 9.84129 
155 1 -2.93694 6.27758 7.43935 
12 1 2.56863 7.0746 17.1642 
17 1 0.408023 9.33713 20.9187 
24 1 -3.62261 8.3454 11.8238 
27 1 -0.269885 7.23177 21.6253 
29 1 0.605828 5.96243 21.9515 
31 1 1.28513 7.16816 17.9189 
44 1 -0.152168 7.19567 20.1423 
46 1 0.138225 8.5087 19.7121 
51 1 -0.269284 7.22783 11.103 
53 1 2.57041 7.09209 15.614 
56 1 1.32076 7.11847 14.851 
63 1 -2.33366 6.21069 21.7426 
66 1 -3.38806 6.76725 20.8791 
70 1 -0.161278 7.17046 12.5981 
72 1 0.526504 5.9162 12.9006 
92 1 0.764758 8.46921 14.3249 
95 1 -4.98535 10.4522 21.7187 
98 1 -4.65994 9.26691 20.8633 
104 1 0.398848 9.34722 11.8212 
116 1 -2.6232 8.76138 21.887 
118 1 -3.62236 8.3442 20.9399 
122 1 0.120031 8.48072 12.9645 
133 1 -3.38876 6.76589 11.8854 
136 1 0.315165 8.51408 22.0965 
147 1 0.521976 5.93029 19.8547 
153 1 -4.66111 9.26743 11.9007 
160 1 0.917522 8.44787 18.515 
161 2 0.601252 9.7975 14.7513 
1 1 7.83689 4.90122 10.5348 
4 1 9.15688 4.81449 11.0131 
20 1 7.85696 4.94408 9.0657 
42 1 9.45608 5.45075 7.43811 
67 1 9.97185 4.56646 0.764884 
77 1 7.82791 4.88429 0.0744173 
94 1 7.86191 4.9472 1.54721 
96 1 9.1805 4.67166 2.00179 
121 1 4.66156 5.48464 10.6974 
130 1 9.456 5.45164 3.17662 
134 1 9.9686 4.56631 9.84729 
152 1 9.18018 4.67311 8.61457 
45 1 4.66112 5.48708 22.0675 
55 1 4.81448 5.50798 13.0646 
106 1 9.15872 4.8202 21.7531 
137 1 4.8153 5.50741 19.6998 
2 1 7.2547 10.5084 9.05258 
3 1 8.96789 7.64814 6.07616 
6 1 8.51312 6.39236 6.81503 
16 1 2.35766 8.68722 0.848359 
22 1 7.13066 6.18718 8.71531 
26 1 7.19664 8.41891 7.54344 
35 1 7.22888 10.5404 10.5036 
37 1 6.87375 9.23725 10.9905 
39 1 8.28111 8.92265 6.75313 
41 1 6.72084 7.00143 9.83742 
48 1 3.69955 6.35026 0.816138 
61 1 7.2526 10.5072 1.56275 
62 1 8.96778 7.64724 4.53871 
64 1 6.71781 9.21608 1.987 
68 1 7.39084 6.96145 3.06197 
71 1 4.30834 8.5129 10.7615 
74 1 3.60101 7.79381 9.81909 
81 1 8.51251 6.39214 3.80003 
83 1 6.53648 8.43009 0.790706 
93 1 7.22818 10.5398 0.10998 
97 1 8.2846 8.92341 3.85793 
101 1 2.36643 9.90271 10.6763 
103 1 2.35961 8.6902 9.75502 
117 1 7.13054 6.18563 1.90012 
120 1 7.19526 8.41968 3.07078 
123 1 3.70381 6.34696 9.79444 
129 1 6.72123 7.00346 0.775103 
132 1 6.71916 9.21622 8.62545 
135 1 7.39107 6.96183 7.55369 
141 1 7.2291 6.20258 10.9259 
144 1 6.53528 8.42957 9.82428 
148 1 3.59882 7.79591 0.79311 
7 1 9.17687 6.03506 11.9257 
10 1 3.69942 9.82394 21.6108 
13 1 2.37781 9.90848 22.0888 
15 1 3.02019 8.3335 17.8928 
28 1 3.67827 9.77999 20.1413 
30 1 4.40518 8.53709 19.7905 
34 1 4.33838 6.30521 18.6192 
40 1 7.8344 8.37214 11.8902 
49 1 4.81411 7.72381 20.9129 
50 1 2.07614 9.27488 18.5134 
58 1 1.5643 10.1623 11.8395 
59 1 4.10759 7.77125 14.1366 
69 1 3.70229 9.8384 11.1402 
73 1 2.96959 8.33256 14.8274 
75 1 5.00011 6.29482 11.8643 
79 1 7.22591 6.20913 21.8359 
82 1 7.93542 6.9274 20.8945 
86 1 3.68325 9.76967 12.6127 
88 1 2.36919 10.0347 13.0658 
108 1 9.17812 6.03503 20.8383 
112 1 4.40829 8.53775 12.9775 
115 1 4.33214 6.30883 14.1443 
124 1 4.8149 7.72185 11.851 
125 1 2.05988 9.40871 14.3406 
126 1 6.87422 9.23777 21.7744 
128 1 7.83437 8.37205 20.8732 
139 1 1.5643 10.1566 20.9241 
140 1 4.1456 7.76198 18.6296 
143 1 7.93476 6.92711 11.8694 
146 1 4.30586 8.52065 22.0016 
149 1 4.99856 6.2948 20.8989 
157 1 2.35326 10.0516 19.6897 
ITEM: TIMESTEP
40
ITEM: NUMBER OF ATOMS
161
ITEM: BOX BOUNDS xy xz yz pp pp pp
-6.7755000000000001e+00 1.3552000000000000e+01 -6.7755000000000001e+00
0.0000000000000000e+00 1.1735510246683001e+01 0.0000000000000000e+00
0.0000000000000000e+00 2.2149999999999999e+01 0.0000000000000000e+00
ITEM: ATOMS id type x y z 
8 1 -2.43713 5.40454 9.83979 
87 1 2.96472 4.27555 10.6411 
90 1 2.63486 5.4484 9.78046 
109 1 -2.43582 5.40732 0.773148 
158 1 2.63039 5.45307 0.831728 
11 1 4.27704 4.23599 20.1173 
14 1 2.89057 4.15128 19.6998 
18 1 1.30336 5.86061 18.6042 
33 1 2.10846 4.21264 20.9057 
43 1 4.29013 4.22447 21.5621 
47 1 3.2436 5.80256 17.8264 
52 1 4.28272 4.23919 12.6432 
76 1 2.43566 4.92372 14.1789 
85 1 4.29609 4.21956 11.199 
89 1 3.24596 5.79501 14.9318 
91 1 0.966849 5.03686 11.8415 
102 1 2.89737 4.14147 13.0635 
105 1 1.304 5.84708 14.1633 
114 1 2.11452 4.20687 11.8578 
150 1 2.42296 4.94052 18.5877 
156 1 2.96143 4.27831 22.1243 
159 1 0.964241 5.04466 20.921 
5 1 -4.90971 10.5716 8.62533 
9 1 -3.32154 8.86283 7.52824 
19 1 -1.74667 7.4979 10.5493 
21 1 -2.61732 8.76639 10.877 
23 1 -3.30259 7.55547 6.84039 
25 1 -4.12653 10.512 9.83031 
32 1 1.60079 6.39248 0.750765 
36 1 -1.84582 7.53812 9.0641 
38 1 -2.15141 6.2286 8.6356 
54 1 0.322167 8.49949 10.6371 
57 1 1.38402 7.94958 9.78768 
60 1 -1.74542 7.50075 0.0645858 
65 1 -3.30263 7.5562 3.77334 
78 1 -1.84298 7.53866 1.54838 
80 1 -2.52856 8.79589 1.83277 
84 1 -4.442 9.78321 3.10072 
99 1 -2.9821 9.67944 0.767892 
100 1 -2.93715 6.28337 3.17033 
107 1 -4.90735 10.572 1.98746 
110 1 -3.31987 8.86242 3.08507 
111 1 0.598616 5.95159 10.8008 
113 1 1.60541 6.38705 9.85797 
119 1 -4.12764 10.5111 0.784976 
127 1 -2.15062 6.22949 1.97727 
131 1 -2.34273 6.21749 11.023 
138 1 1.3781 7.95059 0.807461 
142 1 -2.52845 8.79657 8.78049 
145 1 -4.44157 9.78278 7.51251 
151 1 -4.97932 10.4457 11.0469 
154 1 -2.98169 9.67994 9.84601 
155 1 -2.93784 6.28402 7.4432 
12 1 2.56782 7.07082 17.1555 
17 1 0.418423 9.31808 20.9157 
24 1 -3.61954 8.33195 11.8249 
27 1 -0.272591 7.22299 21.6247 
29 1 0.598137 5.95779 21.9523 
31 1 1.28544 7.16854 17.9167 
44 1 -0.174886 7.18487 20.141 
46 1 0.132091 8.49465 19.7119 
51 1 -0.268677 7.21909 11.1004 
53 1 2.56627 7.09331 15.6045 
56 1 1.30443 7.12952 14.8405 
63 1 -2.34112 6.22173 21.7428 
66 1 -3.3956 6.77367 20.8815 
70 1 -0.181436 7.1616 12.5964 
72 1 0.516459 5.91242 12.8986 
92 1 0.743467 8.43313 14.3261 
95 1 -4.97951 10.4447 21.7174 
98 1 -4.64943 9.27109 20.8597 
104 1 0.408835 9.31886 11.8215 
116 1 -2.616 8.76622 21.8866 
118 1 -3.61915 8.33146 20.939 
122 1 0.118518 8.46652 12.9809 
133 1 -3.39709 6.77253 11.8832 
136 1 0.32279 8.5035 22.097 
147 1 0.510043 5.92695 19.856 
153 1 -4.64975 9.27184 11.9042 
160 1 0.918497 8.44202 18.519 
161 2 0.689279 9.79319 14.7648 
1 1 7.79909 4.88778 10.5375 
4 1 9.13537 4.83489 11.0019 
20 1 7.83215 4.94911 9.06707 
42 1 9.44634 5.46173 7.44084 
67 1 9.95851 4.58632 0.773897 
77 1 7.79015 4.87996 0.0706551 
94 1 7.83545 4.95218 1.54151 
96 1 9.15684 4.68878 2.00106 
121 1 4.6492 5.51111 10.6859 
130 1 9.44545 5.46262 3.17292 
134 1 9.95544 4.58541 9.84268 
152 1 9.15306 4.68945 8.61396 
45 1 4.64883 5.51253 22.0781 
55 1 4.81221 5.53481 13.0662 
106 1 9.13182 4.83692 21.7644 
137 1 4.81617 5.53057 19.6986 
2 1 7.25963 10.4864 9.0451 
3 1 8.96681 7.65464 6.07525 
6 1 8.50971 6.39627 6.80881 
16 1 2.36669 8.69007 0.854385 
22 1 7.10152 6.17677 8.70308 
26 1 7.20016 8.40738 7.53386 
35 1 7.24295 10.5015 10.4877 
37 1 6.88573 9.21171 11.0017 
39 1 8.28945 8.92202 6.74987 
41 1 6.70446 6.98686 9.83973 
48 1 3.69367 6.35105 0.827765 
61 1 7.25879 10.4843 1.57255 
62 1 8.96531 7.65641 4.53814 
64 1 6.718 9.19176 1.98812 
68 1 7.38413 6.95783 3.06821 
71 1 4.32038 8.51438 10.7477 
74 1 3.60168 7.80206 9.8022 
81 1 8.50893 6.39578 3.80698 
83 1 6.53589 8.40858 0.795207 
93 1 7.24258 10.5021 0.12417 
97 1 8.29058 8.91968 3.86188 
101 1 2.40277 9.88609 10.6906 
103 1 2.3707 8.68999 9.75066 
117 1 7.10056 6.17966 1.90993 
120 1 7.19887 8.41025 3.07934 
123 1 3.69808 6.34576 9.78435 
129 1 6.70838 6.98638 0.774253 
132 1 6.71823 9.19465 8.6235 
135 1 7.3827 6.95807 7.5463 
141 1 7.21391 6.20984 10.9422 
144 1 6.53389 8.40848 9.82181 
148 1 3.59892 7.80523 0.81066 
7 1 9.1676 6.03236 11.9309 
10 1 3.73698 9.83689 21.6133 
13 1 2.3992 9.88833 22.0771 
15 1 3.02512 8.328 17.8864 
28 1 3.70204 9.77476 20.1424 
30 1 4.43411 8.54751 19.7787 
34 1 4.33412 6.31591 18.6099 
40 1 7.83961 8.37301 11.901 
49 1 4.83059 7.73796 20.9151 
50 1 2.08605 9.26325 18.5174 
58 1 1.57834 10.1358 11.8519 
59 1 4.10173 7.77755 14.1404 
69 1 3.74176 9.84164 11.1357 
73 1 2.96734 8.32933 14.8311 
75 1 5.00022 6.31708 11.8695 
79 1 7.21378 6.20974 21.8229 
82 1 7.93523 6.9183 20.8795 
86 1 3.69834 9.76429 12.6051 
88 1 2.38463 10.0187 13.062 
108 1 9.16727 6.0351 20.8332 
112 1 4.43789 8.54411 12.9916 
115 1 4.32304 6.3232 14.152 
124 1 4.82867 7.73834 11.8497 
125 1 2.04387 9.4159 14.3474 
126 1 6.88721 9.21116 21.7624 
128 1 7.84035 8.37266 20.8631 
139 1 1.57774 10.1376 20.9183 
140 1 4.15331 7.76634 18.6228 
143 1 7.9353 6.91826 11.8865 
146 1 4.32151 8.51409 22.0174 
149 1 5.00025 6.31566 20.8959 
157 1 2.38038 10.0346 19.6898 
ITEM: TIMESTEP
50
ITEM: NUMBER OF ATOMS
161
ITEM: BOX BOUNDS xy xz yz pp pp pp
-6.7755000000000001e+00 1.3552000000000000e+01 -6.7755000000000001e+00
0.0000000000000000e+00 1.1735510246683001e+01 0.0000000000000000e+00
0.0000000000000000e+00 2.2149999999999999e+01 0.0000000000000000e+00
ITEM: ATOMS id type x y z 
8 1 -2.45117 5.42555 9.83702 
87 1 2.96022 4.28964 10.6416 
90 1 2.62643 5.45506 9.76862 
109 1 -2.44934 5.42869 0.777 
158 1 2.62144 5.46017 0.842937 
11 1 4.26844 4.26341 20.1038 
14 1 2.87881 4.1626 19.7048 
18 1 1.29312 5.86501 18.6069 
33 1 2.09686 4.21441 20.9112 
43 1 4.27622 4.25801 21.5459 
47 1 3.23429 5.80678 17.8272 
52 1 4.27594 4.26625 12.6587 
76 1 2.42172 4.92934 14.1795 
85 1 4.28229 4.25575 11.2167 
89 1 3.23094 5.8054 14.9376 
91 1 0.947002 5.02424 11.8357 
102 1 2.88633 4.1541 13.0611 
105 1 1.29478 5.84807 14.1569 
114 1 2.10485 4.20661 11.8523 
150 1 2.41097 4.94579 18.5873 
156 1 2.95563 4.29427 22.123 
159 1 0.944351 5.03549 20.9234 
5 1 -4.89566 10.5624 8.63222 
9 1 -3.31274 8.85745 7.52988 
19 1 -1.74444 7.50773 10.5454 
21 1 -2.6048 8.77326 10.8784 
23 1 -3.30158 7.55408 6.8407 
25 1 -4.11394 10.5093 9.83459 
32 1 1.58889 6.39262 0.75394 
36 1 -1.82403 7.5514 9.06116 
38 1 -2.14331 6.24289 8.63683 
54 1 0.332794 8.49052 10.6374 
57 1 1.39257 7.94864 9.7855 
60 1 -1.74188 7.51073 0.0685104 
65 1 -3.30455 7.55037 3.77345 
78 1 -1.82056 7.55318 1.55094 
80 1 -2.51089 8.80405 1.83226 
84 1 -4.42498 9.78345 3.10129 
99 1 -2.96197 9.68808 0.767562 
100 1 -2.93733 6.28424 3.16513 
107 1 -4.89735 10.5607 1.98233 
110 1 -3.31576 8.85869 3.08331 
111 1 0.589065 5.94108 10.7958 
113 1 1.59431 6.38626 9.8528 
119 1 -4.1126 10.5098 0.776789 
127 1 -2.14174 6.24338 1.97671 
131 1 -2.35244 6.23101 11.0218 
138 1 1.38586 7.94993 0.808108 
142 1 -2.51169 8.80523 8.78088 
145 1 -4.42878 9.78173 7.5121 
151 1 -4.97721 10.428 11.0478 
154 1 -2.96212 9.68884 9.84803 
155 1 -2.93741 6.28499 7.4477 
12 1 2.56557 7.06679 17.1367 
17 1 0.432402 9.29679 20.9122 
24 1 -3.60651 8.33156 11.8284 
27 1 -0.27578 7.2136 21.6211 
29 1 0.586155 5.95013 21.9541 
31 1 1.28687 7.16766 17.915 
44 1 -0.197311 7.17263 20.138 
46 1 0.12458 8.47976 19.7122 
51 1 -0.271197 7.20756 11.1013 
53 1 2.55498 7.09039 15.5908 
56 1 1.2864 7.13752 14.8368 
63 1 -2.35082 6.23352 21.7432 
66 1 -3.40411 6.77413 20.8802 
70 1 -0.202575 7.14503 12.5942 
72 1 0.49897 5.90165 12.8936 
92 1 0.719661 8.41749 14.3305 
95 1 -4.97348 10.4304 21.7179 
98 1 -4.63996 9.26311 20.8476 
104 1 0.424085 9.28901 11.8297 
116 1 -2.60369 8.77393 21.8842 
118 1 -3.60575 8.33167 20.9355 
122 1 0.113079 8.44796 12.9972 
133 1 -3.40419 6.7723 11.8834 
136 1 0.333142 8.49045 22.0962 
147 1 0.492534 5.91907 19.8568 
153 1 -4.63941 9.2626 11.9179 
160 1 0.919859 8.43774 18.5232 
161 2 0.749108 9.78916 14.7901 
1 1 7.7586 4.88551 10.5447 
4 1 9.10206 4.84892 10.9902 
20 1 7.79466 4.9559 9.0691 
42 1 9.43658 5.47174 7.44518 
67 1 9.93837 4.61171 0.778245 
77 1 7.75732 4.88384 0.070973 
94 1 7.79849 4.95364 1.54199 
96 1 9.12526 4.70797 1.99891 
121 1 4.63847 5.53531 10.684 
130 1 9.44 5.47219 3.16724 
134 1 9.93582 4.6114 9.8323 
152 1 9.12911 4.70662 8.6156 
45 1 4.63462 5.53605 22.0804 
55 1 4.81052 5.56183 13.0681 
106 1 9.10317 4.8482 21.7726 
137 1 4.81629 5.55481 19.6953 
2 1 7.26359 10.4595 9.02608 
3 1 8.96516 7.66431 6.0754 
6 1 8.50451 6.40077 6.80591 
16 1 2.38008 8.69017 0.860434 
22 1 7.07076 6.17113 8.69297 
26 1 7.20141 8.39983 7.5255 
35 1 7.25486 10.4692 10.4714 
37 1 6.90233 9.19198 11.0066 
39 1 8.29619 8.92457 6.75399 
41 1 6.68718 6.96264 9.83589 
48 1 3.68265 6.35917 0.848709 
61 1 7.26377 10.4619 1.58331 
62 1 8.96629 7.66389 4.54073 
64 1 6.71856 9.1684 1.99208 
68 1 7.37692 6.95153 3.07284 
71 1 4.34053 8.51725 10.7332 
74 1 3.61224 7.80811 9.78498 
81 1 8.5009 6.40137 3.80871 
83 1 6.53506 8.39118 0.790252 
93 1 7.25776 10.4661 0.143966 
97 1 8.2985 8.92659 3.85646 
101 1 2.43188 9.87402 10.6939 
103 1 2.38537 8.68852 9.74778 
117 1 7.07008 6.16993 1.9291 
120 1 7.1982 8.38958 3.09083 
123 1 3.68804 6.35521 9.76327 
129 1 6.68777 6.9679 0.774058 
132 1 6.71988 9.16769 8.6208 
135 1 7.37157 6.94327 7.54306 
141 1 7.19983 6.20228 10.9524 
144 1 6.5333 8.39423 9.81985 
148 1 3.60851 7.8125 0.82702 
7 1 9.15395 6.03242 11.9366 
10 1 3.77576 9.8394 21.6184 
13 1 2.4319 9.87419 22.065 
15 1 3.03127 8.32102 17.8793 
28 1 3.73594 9.77032 20.1476 
30 1 4.46827 8.55591 19.7666 
34 1 4.33136 6.32632 18.5986 
40 1 7.85143 8.36387 11.924 
49 1 4.84772 7.75879 20.9151 
50 1 2.09755 9.24861 18.5214 
58 1 1.59519 10.1052 11.8497 
59 1 4.09953 7.78342 14.1443 
69 1 3.77902 9.84136 11.1385 
73 1 2.97565 8.32152 14.8497 
75 1 4.99998 6.33755 11.8651 
79 1 7.19722 6.20186 21.8091 
82 1 7.92549 6.9122 20.8612 
86 1 3.72204 9.75602 12.6072 