ITEM: TIMESTEP
0
ITEM: NUMBER OF ATOMS
202
ITEM: BOX BOUNDS pp pp pp
0.0000000000000000e+00 1.6114000000000001e+01
0.0000000000000000e+00 1.6113000000000000e+01
0.0000000000000000e+00 1.6111999999999998e+01
ITEM: ATOMS id type x y z 
5 1 5.384 5.384 5.384 
65 1 5.66 6.662 2.461 
66 1 5.336 7.323 3.711 
68 1 4.865 6.606 4.866 
79 1 5.364 7.322 1.219 
89 1 6.662 2.461 5.66 
90 1 7.323 3.711 5.336 
92 1 6.606 4.866 4.866 
101 1 7.322 1.219 5.364 
109 1 2.461 5.66 6.662 
110 1 3.71 5.336 7.323 
112 1 4.865 4.866 6.606 
121 1 1.218 5.364 7.322 
129 1 6.662 5.66 2.461 
130 1 7.323 5.336 3.711 
137 1 7.322 5.364 1.219 
141 1 2.461 6.662 5.66 
142 1 3.71 7.323 5.336 
149 1 1.218 7.322 5.364 
153 1 5.66 2.461 6.662 
154 1 5.336 3.711 7.323 
161 1 5.364 1.219 7.322 
7 1 6.662 5.66 13.616 
8 1 7.323 5.336 12.366 
10 1 6.606 4.866 11.211 
21 1 7.322 5.364 14.858 
32 1 1.218 7.322 10.713 
40 1 2.461 6.662 10.417 
41 1 3.71 7.323 10.741 
43 1 4.865 6.606 11.211 
47 1 5.364 1.219 8.755 
55 1 5.66 2.461 9.415 
56 1 5.336 3.711 8.754 
58 1 4.865 4.866 9.471 
64 1 5.629 6.643 16.094 
75 1 5.384 5.384 10.693 
118 1 6.643 5.629 16.094 
168 1 5.66 6.662 13.616 
169 1 5.336 7.323 12.366 
176 1 5.364 7.322 14.858 
182 1 7.322 1.219 10.713 
186 1 6.662 2.461 10.417 
187 1 7.323 3.711 10.741 
191 1 1.218 5.364 8.755 
195 1 2.461 5.66 9.415 
196 1 3.71 5.336 8.754 
9 1 7.322 10.713 1.219 
19 1 6.662 10.417 2.461 
20 1 7.323 10.741 3.711 
22 1 6.606 11.211 4.866 
27 1 1.218 8.755 5.364 
35 1 2.461 9.415 5.66 
36 1 3.71 8.754 5.336 
38 1 4.865 9.471 4.866 
44 1 6.643 16.095 5.63 
50 1 5.66 13.616 6.662 
51 1 5.336 12.366 7.323 
53 1 4.865 11.211 6.606 
62 1 5.364 14.858 7.322 
76 1 5.629 16.095 6.643 
81 1 5.384 10.693 5.384 
167 1 5.364 8.755 1.219 
171 1 5.66 9.415 2.461 
172 1 5.336 8.754 3.711 
180 1 6.662 13.616 5.66 
181 1 7.323 12.366 5.336 
188 1 7.322 14.858 5.364 
194 1 1.218 10.713 7.322 
198 1 2.461 10.417 6.662 
199 1 3.71 10.741 7.323 
17 1 5.384 10.693 10.693 
39 1 6.643 16.095 10.448 
49 1 5.629 9.434 16.095 
73 1 5.364 8.755 14.858 
82 1 5.629 16.095 9.434 
83 1 5.66 9.415 13.616 
84 1 5.336 8.754 12.366 
86 1 4.865 9.471 11.211 
91 1 7.322 14.858 10.713 
99 1 6.662 13.616 10.417 
100 1 7.323 12.366 10.741 
102 1 6.606 11.211 11.211 
113 1 6.643 10.448 16.094 
114 1 2.461 10.417 9.415 
115 1 3.71 10.741 8.754 
117 1 4.865 11.211 9.471 
126 1 1.218 10.713 8.755 
131 1 7.322 10.713 14.858 
135 1 6.662 10.417 13.616 
136 1 7.323 10.741 12.366 
144 1 2.461 9.415 10.417 
145 1 3.71 8.754 10.741 
152 1 1.218 8.755 10.713 
158 1 5.364 14.858 8.755 
162 1 5.66 13.616 9.415 
163 1 5.336 12.366 8.754 
3 1 8.755 5.364 1.219 
13 1 9.415 5.66 2.461 
14 1 8.754 5.336 3.711 
16 1 9.471 4.866 4.866 
24 1 16.095 5.629 6.643 
30 1 13.616 6.662 5.66 
31 1 12.367 7.323 5.336 
33 1 11.212 6.606 4.866 
42 1 14.859 7.322 5.364 
52 1 10.713 1.219 7.322 
60 1 10.417 2.461 6.662 
61 1 10.741 3.711 7.323 
63 1 11.212 4.866 6.606 
87 1 10.693 5.384 5.384 
98 1 16.095 6.643 5.63 
170 1 10.713 7.322 1.219 
174 1 10.417 6.662 2.461 
175 1 10.741 7.323 3.711 
179 1 8.755 1.219 5.364 
183 1 9.415 2.461 5.66 
184 1 8.754 3.711 5.336 
192 1 13.616 5.66 6.662 
193 1 12.367 5.336 7.323 
200 1 14.859 5.364 7.322 
6 1 16.096 5.629 9.434 
23 1 10.693 5.384 10.693 
59 1 10.448 6.643 16.095 
67 1 10.713 7.322 14.858 
77 1 10.417 6.662 13.616 
78 1 10.741 7.323 12.366 
80 1 11.212 6.606 11.211 
93 1 16.096 6.643 10.448 
94 1 9.415 2.461 10.417 
95 1 8.754 3.711 10.741 
97 1 9.471 4.866 11.211 
106 1 8.755 1.219 10.713 
116 1 14.859 5.364 8.755 
123 1 9.434 5.629 16.094 
124 1 13.616 5.66 9.415 
125 1 12.367 5.336 8.754 
127 1 11.212 4.866 9.471 
134 1 8.755 5.364 14.858 
138 1 9.415 5.66 13.616 
139 1 8.754 5.336 12.366 
143 1 14.859 7.322 10.713 
147 1 13.616 6.662 10.417 
148 1 12.367 7.323 10.741 
156 1 10.417 2.461 9.415 
157 1 10.741 3.711 8.754 
164 1 10.713 1.219 8.755 
201 2 16.096 4.279 9.434 
202 3 16.096 3.303 9.434 
11 1 10.693 10.693 5.384 
18 1 16.096 10.448 6.643 
29 1 9.434 16.095 5.63 
70 1 10.448 16.095 6.643 
71 1 10.417 9.415 2.461 
72 1 10.741 8.754 3.711 
74 1 11.212 9.471 4.866 
85 1 10.713 8.755 1.219 
96 1 8.755 14.858 5.364 
103 1 16.095 9.434 5.63 
104 1 9.415 13.616 5.66 
105 1 8.754 12.366 5.336 
107 1 9.471 11.211 4.866 
111 1 14.859 10.713 7.322 
119 1 13.616 10.417 6.662 
120 1 12.367 10.741 7.323 
122 1 11.212 11.211 6.606 
132 1 9.415 10.417 2.461 
133 1 8.754 10.741 3.711 
140 1 8.755 10.713 1.219 
146 1 14.859 8.755 5.364 
150 1 13.616 9.415 5.66 
151 1 12.367 8.754 5.336 
155 1 10.713 14.858 7.322 
159 1 10.417 13.616 6.662 
160 1 10.741 12.366 7.323 
1 1 9.415 10.417 13.616 
2 1 8.754 10.741 12.366 
4 1 9.471 11.211 11.211 
12 1 16.096 10.448 9.434 
15 1 8.755 10.713 14.858 
25 1 13.616 9.415 10.417 
26 1 12.367 8.754 10.741 
28 1 11.212 9.471 11.211 
34 1 9.434 16.095 10.448 
37 1 14.859 8.755 10.713 
45 1 10.417 13.616 9.415 
46 1 10.741 12.366 8.754 
48 1 11.212 11.211 9.471 
54 1 10.448 9.434 16.094 
57 1 10.713 14.858 8.755 
69 1 10.693 10.693 10.693 
88 1 10.448 16.095 9.434 
108 1 16.096 9.434 10.448 
128 1 9.434 10.448 16.094 
165 1 10.417 9.415 13.616 
166 1 10.741 8.754 12.366 
173 1 10.713 8.755 14.858 
177 1 9.415 13.616 10.417 
178 1 8.754 12.366 10.741 
185 1 8.755 14.858 10.713 
189 1 13.616 10.417 9.415 
190 1 12.367 10.741 8.754 
197 1 14.859 10.713 8.755 
ITEM: TIMESTEP
10
ITEM: NUMBER OF ATOMS
202
ITEM: BOX BOUNDS pp pp pp
0.0000000000000000e+00 1.6114000000000001e+01
0.0000000000000000e+00 1.6113000000000000e+01
0.0000000000000000e+00 1.6111999999999998e+01
ITEM: ATOMS id type x y z 
5 1 5.34321 5.34285 5.33471 
65 1 5.57659 6.59407 2.41277 
66 1 5.38182 7.32527 3.68711 
68 1 4.87389 6.62236 4.87204 
79 1 5.23254 7.31216 1.19335 
89 1 6.59544 2.41348 5.57603 
90 1 7.32329 3.68718 5.38244 
92 1 6.62245 4.87407 4.872 
101 1 7.31166 1.19351 5.23344 
109 1 2.43691 5.57272 6.569 
110 1 3.69746 5.38157 7.32564 
112 1 4.87937 4.87137 6.62111 
121 1 1.20347 5.24124 7.29082 
129 1 6.59366 5.57664 2.41311 
130 1 7.32356 5.38223 3.68688 
137 1 7.31183 5.23259 1.19334 
141 1 2.41605 6.60262 5.5657 
142 1 3.69472 7.32848 5.38203 
149 1 1.19667 7.32074 5.23192 
153 1 5.57679 2.41127 6.59317 
154 1 5.37934 3.68784 7.32041 
161 1 5.23221 1.19129 7.31052 
7 1 6.59373 5.57816 13.6622 
8 1 7.3245 5.38199 12.3903 
10 1 6.62217 4.87407 11.2036 
21 1 7.31138 5.23309 14.882 
32 1 1.2208 7.33473 10.8598 
40 1 2.42302 6.59999 10.5219 
41 1 3.69505 7.33426 10.7003 
43 1 4.87565 6.61904 11.2054 
47 1 5.23167 1.1921 8.76532 
55 1 5.57745 2.41031 9.48519 
56 1 5.38197 3.68504 8.75433 
58 1 4.87434 4.87147 9.45393 
64 1 5.53478 6.5616 16.0941 
75 1 5.34318 5.34186 10.7439 
118 1 6.56135 5.53487 16.0942 
168 1 5.57742 6.59397 13.664 
169 1 5.37821 7.32581 12.3888 
176 1 5.23316 7.31178 14.8821 
182 1 7.31236 1.19304 10.8441 
186 1 6.59468 2.41396 10.5008 
187 1 7.32482 3.68785 10.695 
191 1 1.20937 5.38009 8.73549 
195 1 2.43063 5.5815 9.49052 
196 1 3.70161 5.37755 8.75471 
9 1 7.31193 10.8436 1.1947 
19 1 6.59557 10.5 2.41472 
20 1 7.32353 10.6972 3.6898 
22 1 6.62097 11.2032 4.87374 
27 1 1.193 8.7648 5.23549 
35 1 2.41176 9.48286 5.57945 
36 1 3.68791 8.75589 5.38031 
38 1 4.87172 9.45581 4.87477 
44 1 6.56268 16.094 5.53543 
50 1 5.57786 13.6626 6.59454 
51 1 5.38052 12.3876 7.32224 
53 1 4.87118 11.2027 6.62196 
62 1 5.23334 14.8825 7.31186 
76 1 5.53547 16.094 6.56138 
81 1 5.34224 10.7359 5.34292 
167 1 5.23306 8.76558 1.19424 
171 1 5.57776 9.48352 2.41437 
172 1 5.38092 8.75654 3.68897 
180 1 6.59534 13.6629 5.57749 
181 1 7.32353 12.3873 5.37986 
188 1 7.31212 14.883 5.23403 
194 1 1.19229 10.8399 7.31237 
198 1 2.41108 10.4996 6.59865 
199 1 3.68651 10.697 7.32338 
17 1 5.34119 10.7364 10.7334 
39 1 6.56178 16.0946 10.5416 
49 1 5.53492 9.51544 16.0944 
73 1 5.23309 8.76545 14.8828 
82 1 5.53587 16.0922 9.51642 
83 1 5.57732 9.48255 13.6625 
84 1 5.37872 8.7556 12.3868 
86 1 4.86876 9.45165 11.2018 
91 1 7.31179 14.8831 10.8436 
99 1 6.5948 13.663 10.4997 
100 1 7.32312 12.3877 10.6966 
102 1 6.62049 11.203 11.2028 
113 1 6.5619 10.5422 16.095 
114 1 2.41195 10.4989 9.47934 
115 1 3.68491 10.6962 8.75405 
117 1 4.87198 11.2035 9.45591 
126 1 1.19158 10.8393 8.76422 
131 1 7.31144 10.8439 14.8824 
135 1 6.59498 10.4999 13.6621 
136 1 7.32334 10.6965 12.3878 
144 1 2.41313 9.48047 10.4975 
145 1 3.68817 8.76008 10.7 
152 1 1.19528 8.77811 10.8427 
158 1 5.23337 14.8831 8.76502 
162 1 5.57726 13.6627 9.48213 
163 1 5.38026 12.3877 8.75376 
3 1 8.76509 5.23256 1.19325 
13 1 9.48339 5.57658 2.4131 
14 1 8.75333 5.38226 3.68683 
16 1 9.45457 4.87407 4.87202 
24 1 16.0953 5.52246 6.52854 
30 1 13.6609 6.60274 5.56541 
31 1 12.3822 7.32867 5.38201 
33 1 11.2031 6.62231 4.87211 
42 1 14.8802 7.32082 5.23194 
52 1 10.8448 1.19121 7.31061 
60 1 10.5002 2.41127 6.59319 
61 1 10.6976 3.68781 7.32059 
63 1 11.1979 4.87144 6.6214 
87 1 10.7339 5.34314 5.33456 
98 1 16.0954 6.56856 5.52098 
170 1 10.8444 7.31221 1.19334 
174 1 10.5004 6.59421 2.41294 
175 1 10.6951 7.32539 3.68706 
179 1 8.76534 1.19346 5.23344 
183 1 9.48153 2.41348 5.57597 
184 1 8.75364 3.68707 5.38253 
192 1 13.6399 5.57261 6.56891 
193 1 12.3793 5.3815 7.32598 
200 1 14.8736 5.24109 7.29091 
6 1 16.0954 5.80152 9.37986 
23 1 10.7335 5.34195 10.7438 
59 1 10.5422 6.56163 16.094 
67 1 10.8438 7.3117 14.882 
77 1 10.4995 6.59396 13.6641 
78 1 10.699 7.32571 12.3887 
80 1 11.2014 6.61917 11.2056 
93 1 16.0959 6.57731 10.5921 
94 1 9.48235 2.41405 10.5008 
95 1 8.75253 3.68794 10.695 
97 1 9.45504 4.87423 11.2038 
106 1 8.76473 1.19314 10.8441 
116 1 14.8678 5.38002 8.73561 
123 1 9.51567 5.53493 16.0942 
124 1 13.6461 5.58149 9.49022 
125 1 12.3757 5.37745 8.75458 
127 1 11.2027 4.87168 9.45424 
134 1 8.76586 5.2332 14.882 
138 1 9.48334 5.57837 13.6622 
139 1 8.75257 5.38212 12.3904 
143 1 14.8564 7.33452 10.8597 
147 1 13.6537 6.5997 10.5218 
148 1 12.3814 7.33413 10.7006 
156 1 10.4995 2.4105 9.48507 
157 1 10.6952 3.68489 8.75434 
164 1 10.8453 1.19209 8.76532 
201 2 16.0963 3.87732 9.5745 
202 3 16.096 3.02046 9.5072 
11 1 10.7346 10.7358 5.34277 
18 1 16.0957 10.5408 6.56707 
29 1 9.51432 16.094 5.53544 
70 1 10.5415 16.0939 6.56139 
71 1 10.4993 9.48356 2.41435 
72 1 10.6961 8.75657 3.68903 
74 1 11.2052 9.45587 4.87465 
85 1 10.844 8.76571 1.19407 
96 1 8.76495 14.883 5.23406 
103 1 16.0954 9.51441 5.53882 
104 1 9.48166 13.6629 5.57756 
105 1 8.75351 12.3873 5.37982 
107 1 9.45611 11.2032 4.87378 
111 1 14.8849 10.8399 7.31247 
119 1 13.6658 10.4995 6.59851 
120 1 12.3905 10.6971 7.32324 
122 1 11.2058 11.2027 6.62201 
132 1 9.48139 10.5 2.4147 
133 1 8.75357 10.6972 3.68989 
140 1 8.76518 10.8435 1.19471 
146 1 14.8838 8.76493 5.23543 
150 1 13.6652 9.48272 5.57933 
151 1 12.389 8.75577 5.38044 
155 1 10.8436 14.8824 7.3119 
159 1 10.4991 13.6626 6.59458 
160 1 10.6966 12.3876 7.32237 
1 1 9.48213 10.4997 13.6621 
2 1 8.75381 10.6965 12.3877 
4 1 9.45664 11.2029 11.2028 
12 1 16.0956 10.5426 9.50909 
15 1 8.76561 10.8439 14.8823 
25 1 13.6638 9.48029 10.4975 
26 1 12.3887 8.76025 10.7001 
28 1 11.2081 9.45176 11.2017 
34 1 9.51522 16.0947 10.5416 
37 1 14.8819 8.7784 10.8427 
45 1 10.4997 13.6627 9.4821 
46 1 10.6968 12.3877 8.75381 
48 1 11.205 11.2034 9.45602 
54 1 10.5421 9.51535 16.0942 
57 1 10.8436 14.883 8.76501 
69 1 10.7357 10.7362 10.7336 
88 1 10.5411 16.0922 9.51634 
108 1 16.0956 9.51858 10.5384 
128 1 9.51511 10.5422 16.0949 
165 1 10.4995 9.48233 13.6624 
166 1 10.6985 8.75566 12.3867 
173 1 10.8437 8.76537 14.8826 
177 1 9.48224 13.663 10.4997 
178 1 8.75411 12.3877 10.6966 
185 1 8.76531 14.883 10.8436 
189 1 13.6651 10.4989 9.4793 
190 1 12.3921 10.6962 8.75432 
197 1 14.8856 10.8392 8.76425 
ITEM: TIMESTEP
20
ITEM: NUMBER OF ATOMS
202
ITEM: BOX BOUNDS pp pp pp
0.0000000000000000e+00 1.6114000000000001e+01
0.0000000000000000e+00 1.6113000000000000e+01
0.0000000000000000e+00 1.6111999999999998e+01
ITEM: ATOMS id type x y z 
5 1 5.37689 5.37677 5.37381 
65 1 5.5891 6.60615 2.41069 
66 1 5.3421 7.32855 3.67753 
68 1 4.86302 6.60733 4.85796 
79 1 5.21388 7.30903 1.1907 
89 1 6.60494 2.40962 5.58874 
90 1 7.32705 3.67724 5.34161 
92 1 6.60637 4.85721 4.85615 
101 1 7.30838 1.18936 5.21448 
109 1 2.4357 5.5781 6.57524 
110 1 3.68634 5.33625 7.32752 
112 1 4.86534 4.85693 6.60665 
121 1 1.19735 5.23865 7.26825 
129 1 6.60416 5.58948 2.40969 
130 1 7.32696 5.34161 3.67662 
137 1 7.30825 5.21363 1.19008 
141 1 2.41776 6.60772 5.57307 
142 1 3.68479 7.33285 5.3373 
149 1 1.19642 7.31208 5.2076 
153 1 5.58833 2.40925 6.60478 
154 1 5.34355 3.67597 7.3274 
161 1 5.21367 1.18812 7.30804 
7 1 6.60433 5.58894 13.6672 
8 1 7.32614 5.34218 12.3995 
10 1 6.60678 4.85582 11.2202 
21 1 7.30835 5.21377 14.8865 
32 1 1.22453 7.33442 10.9317 
40 1 2.41977 6.60662 10.5234 
41 1 3.69158 7.33239 10.743 
43 1 4.86768 6.60621 11.2204 
47 1 5.21395 1.18852 8.76898 
55 1 5.58908 2.40854 9.47171 
56 1 5.34228 3.67737 8.75004 
58 1 4.85599 4.85547 9.47066 
64 1 5.51568 6.55011 16.0947 
75 1 5.37605 5.37318 10.7007 
118 1 6.54972 5.51588 16.0944 
168 1 5.58879 6.6055 13.6679 
169 1 5.34423 7.3296 12.4011 
176 1 5.21337 7.30903 14.8876 
182 1 7.30817 1.18841 10.8629 
186 1 6.60433 2.40837 10.488 
187 1 7.32645 3.67664 10.7353 
191 1 1.19426 5.39834 8.71103 
195 1 2.4152 5.64476 9.44998 
196 1 3.67629 5.33345 8.75035 
9 1 7.30813 10.8624 1.19087 
19 1 6.60568 10.4881 2.41164 
20 1 7.32742 10.7366 3.6792 
22 1 6.60746 11.2194 4.8579 
27 1 1.19231 8.7694 5.21483 
35 1 2.41042 9.4732 5.58786 
36 1 3.68246 8.75507 5.34143 
38 1 4.85972 9.47341 4.85643 
44 1 6.55034 16.0939 5.51669 
50 1 5.59014 13.665 6.60511 
51 1 5.33996 12.3995 7.32739 
53 1 4.85953 11.2194 6.60518 
62 1 5.21498 14.8856 7.30856 
76 1 5.51674 16.0935 6.55007 
81 1 5.37721 10.7018 5.37409 
167 1 5.21446 8.76983 1.19097 
171 1 5.58963 9.4732 2.41086 
172 1 5.3405 8.75088 3.6794 
180 1 6.60557 13.6659 5.58978 
181 1 7.32762 12.3985 5.34078 
188 1 7.30885 14.8859 5.21542 
194 1 1.18931 10.8651 7.30635 
198 1 2.4117 10.4889 6.60395 
199 1 3.67938 10.7381 7.32582 
17 1 5.3778 10.7036 10.7017 
39 1 6.55073 16.094 10.5605 
49 1 5.51686 9.52803 16.095 
73 1 5.21415 8.76964 14.8864 
82 1 5.51694 16.0928 9.52734 
83 1 5.58901 9.47324 13.6654 
84 1 5.34016 8.75125 12.3981 
86 1 4.86139 9.4744 11.2206 
91 1 7.30819 14.886 10.8616 
99 1 6.60597 13.6657 10.4872 
100 1 7.32745 12.3992 10.7364 
102 1 6.60797 11.2201 11.2193 
113 1 6.55075 10.561 16.0946 
114 1 2.41261 10.4953 9.46769 
115 1 3.68143 10.7394 8.74792 
117 1 4.86011 11.2201 9.47108 
126 1 1.18857 10.8671 8.76872 
131 1 7.3081 10.8624 14.8861 
135 1 6.60598 10.4881 13.6649 
136 1 7.32743 10.7367 12.3974 
144 1 2.42253 9.48403 10.4882 
145 1 3.68512 8.7531 10.7352 
152 1 1.1998 8.79305 10.8801 
158 1 5.21516 14.8857 8.76868 
162 1 5.59035 13.666 9.47198 
163 1 5.33996 12.3985 8.74955 
3 1 8.7687 5.2136 1.19009 
13 1 9.47284 5.58945 2.4097 
14 1 8.74999 5.34162 3.67664 
16 1 9.47062 4.8572 4.85616 
24 1 16.0954 5.50395 6.50241 
30 1 13.6592 6.60772 5.57309 
31 1 12.3921 7.33287 5.33734 
33 1 11.2139 6.60739 4.858 
42 1 14.8805 7.31215 5.20756 
52 1 10.8634 1.1881 7.30802 
60 1 10.4887 2.40929 6.6048 
61 1 10.7335 3.67596 7.32739 
63 1 11.2117 4.857 6.60667 
87 1 10.7001 5.37678 5.37386 
98 1 16.0954 6.55537 5.48693 
170 1 10.8632 7.30902 1.19069 
174 1 10.4879 6.60618 2.41072 
175 1 10.7348 7.32863 3.67751 
179 1 8.76858 1.18935 5.21447 
183 1 9.47207 2.40959 5.58873 
184 1 8.74989 3.67726 5.34163 
192 1 13.6412 5.57808 6.57521 
193 1 12.3906 5.33621 7.32746 
200 1 14.8796 5.23859 7.26827 
6 1 16.0955 5.76691 9.42943 
23 1 10.701 5.3732 10.7008 
59 1 10.5613 6.55007 16.0948 
67 1 10.8637 7.309 14.8876 
77 1 10.4883 6.60541 13.6679 
78 1 10.7328 7.32959 12.4012 
80 1 11.2093 6.60625 11.2204 
93 1 16.0956 6.6557 10.5789 
94 1 9.47271 2.40839 10.488 
95 1 8.75057 3.6766 10.7354 
97 1 9.47018 4.85587 11.2202 
106 1 8.76889 1.18843 10.8629 
116 1 14.8828 5.39816 8.71104 
123 1 9.52726 5.51583 16.0944 
124 1 13.6619 5.64464 9.44995 
125 1 12.4007 5.33348 8.75033 
127 1 11.221 4.85549 9.47067 
134 1 8.7686 5.21376 14.8865 
138 1 9.47262 5.58897 13.6672 
139 1 8.75081 5.3422 12.3996 
143 1 14.8525 7.33439 10.9318 
147 1 13.6572 6.60654 10.5234 
148 1 12.3854 7.33228 10.743 
156 1 10.488 2.4085 9.47174 
157 1 10.7348 3.67735 8.75004 
164 1 10.8631 1.1885 8.76902 
201 2 16.0961 3.71907 9.60975 
202 3 16.0961 2.82113 9.53065 
11 1 10.6998 10.7017 5.37405 
18 1 16.0956 10.562 6.5474 
29 1 9.52666 16.0939 5.51664 
70 1 10.5603 16.0935 6.55005 
71 1 10.4874 9.47327 2.41088 
72 1 10.7366 8.75094 3.67949 
74 1 11.2172 9.47348 4.85643 
85 1 10.8626 8.76987 1.19097 
96 1 8.76812 14.8858 5.21541 
103 1 16.0954 9.52629 5.5134 
104 1 9.47141 13.6659 5.5898 
105 1 8.74935 12.3984 5.34079 
107 1 9.46955 11.2194 4.85792 
111 1 14.8878 10.8651 7.3063 
119 1 13.6652 10.4889 6.6039 
120 1 12.3977 10.7381 7.32585 
122 1 11.2175 11.2194 6.60518 
132 1 9.47135 10.4881 2.41165 
133 1 8.74959 10.7366 3.67919 
140 1 8.76885 10.8624 1.19084 
146 1 14.8846 8.7694 5.21486 
150 1 13.6666 9.47317 5.58781 
151 1 12.3945 8.75507 5.34144 
155 1 10.862 14.8856 7.30856 
159 1 10.4869 13.665 6.60514 
160 1 10.737 12.3995 7.32742 
1 1 9.47098 10.4881 13.6648 
2 1 8.74957 10.7367 12.3974 
4 1 9.46904 11.2201 11.2192 
12 1 16.0956 10.5612 9.52863 
15 1 8.76889 10.8624 14.8861 
25 1 13.6545 9.48396 10.4882 
26 1 12.3919 8.75312 10.7352 
28 1 11.2156 9.4743 11.2207 
34 1 9.52627 16.094 10.5605 
37 1 14.8773 8.79308 10.8801 
45 1 10.4867 13.666 9.47202 
46 1 10.7371 12.3985 8.74958 
48 1 11.2169 11.2202 9.47107 
54 1 10.5601 9.5281 16.0949 
57 1 10.8619 14.8857 8.76868 
69 1 10.6992 10.7037 10.7017 
88 1 10.5601 16.0928 9.52733 
108 1 16.0956 9.52997 10.5633 
128 1 9.52624 10.561 16.0945 
165 1 10.488 9.47327 13.6654 
166 1 10.7368 8.75127 12.3981 
173 1 10.8629 8.76965 14.8863 
177 1 9.47102 13.6657 10.4872 
178 1 8.7496 12.3992 10.7364 
185 1 8.76886 14.8859 10.8616 
189 1 13.6644 10.4953 9.46768 
190 1 12.3956 10.7394 8.74794 
197 1 14.8885 10.8671 8.76877 
ITEM: TIMESTEP
30
ITEM: NUMBER OF ATOMS
202
ITEM: BOX BOUNDS pp pp pp
0.0000000000000000e+00 1.6114000000000001e+01
0.0000000000000000e+00 1.6113000000000000e+01
0.0000000000000000e+00 1.6111999999999998e+01
ITEM: ATOMS id type x y z 
5 1 5.38071 5.37804 5.38008 
65 1 5.5968 6.61175 2.40553 
66 1 5.31261 7.3278 3.66719 
68 1 4.86591 6.60506 4.85836 
79 1 5.21488 7.31001 1.18468 
89 1 6.61064 2.40484 5.59546 
90 1 7.32646 3.66613 5.30807 
92 1 6.60486 4.8559 4.85602 
101 1 7.30894 1.18298 5.21461 
109 1 2.42605 5.58566 6.57759 
110 1 3.6671 5.29596 7.32424 
112 1 4.86263 4.8544 6.60671 
121 1 1.18368 5.24953 7.26581 
129 1 6.6108 5.59602 2.40547 
130 1 7.32649 5.30822 3.66647 
137 1 7.30899 5.21462 1.18401 
141 1 2.41519 6.6116 5.57154 
142 1 3.6772 7.3331 5.30421 
149 1 1.19186 7.31241 5.19617 
153 1 5.59722 2.40453 6.61239 
154 1 5.31599 3.66617 7.32994 
161 1 5.21463 1.18273 7.30901 
7 1 6.61174 5.59466 13.6704 
8 1 7.32623 5.30889 12.408 
10 1 6.60335 4.85504 11.2193 
21 1 7.30878 5.21415 14.8927 
32 1 1.20875 7.34931 10.929 
40 1 2.40642 6.62873 10.5156 
41 1 3.68089 7.33061 10.7804 
43 1 4.87169 6.6022 11.221 
47 1 5.21503 1.18466 8.76821 
55 1 5.59438 2.40759 9.46564 
56 1 5.30391 3.6707 8.75421 
58 1 4.83846 4.85802 9.47204 
64 1 5.5076 6.54111 16.0949 
75 1 5.37658 5.37394 10.6948 
118 1 6.54033 5.50803 16.0944 
168 1 5.59785 6.61149 13.6732 
169 1 5.31765 7.32704 12.4104 
176 1 5.21471 7.3098 14.8937 
182 1 7.30894 1.18313 10.862 
186 1 6.61015 2.40457 10.48 
187 1 7.32619 3.66581 10.7689 
191 1 1.18055 5.39499 8.71205 
195 1 2.40276 5.68672 9.43582 
196 1 3.65452 5.3184 8.74974 
9 1 7.3087 10.8624 1.18519 
19 1 6.61085 10.4813 2.40644 
20 1 7.32668 10.7686 3.66728 
22 1 6.60509 11.221 4.85642 
27 1 1.18655 8.77057 5.21503 
35 1 2.40755 9.4693 5.59612 
36 1 3.67078 8.75702 5.30778 
38 1 4.86042 9.47759 4.8556 
44 1 6.54072 16.0941 5.50818 
50 1 5.59572 13.6708 6.61061 
51 1 5.30904 12.4092 7.32586 
53 1 4.85887 11.2212 6.60118 
62 1 5.21502 14.8922 7.30879 
76 1 5.50782 16.0941 6.54057 
81 1 5.37966 10.7027 5.37573 
167 1 5.21493 8.7686 1.18456 
171 1 5.59571 9.46712 2.40629 
172 1 5.30952 8.75149 3.66776 
180 1 6.61091 13.6708 5.59616 
181 1 7.32698 12.4095 5.30881 
188 1 7.30927 14.8924 5.21522 
194 1 1.18288 10.8637 7.30799 
198 1 2.40532 10.4846 6.61039 
199 1 3.66889 10.7709 7.3225 
17 1 5.37957 10.7032 10.6993 
39 1 6.54022 16.0946 10.5689 
49 1 5.50779 9.53706 16.095 
73 1 5.21431 8.76854 14.8928 
82 1 5.50785 16.095 9.53592 
83 1 5.59467 9.46737 13.6714 
84 1 5.31096 8.75152 12.4089 
86 1 4.86423 9.47588 11.2204 
91 1 7.30893 14.8927 10.8623 
99 1 6.61084 13.671 10.4811 
100 1 7.32692 12.4102 10.7686 
102 1 6.60469 11.2215 11.2209 
113 1 6.54093 10.5696 16.0945 
114 1 2.40885 10.4903 9.46206 
115 1 3.67143 10.7722 8.74692 
117 1 4.85978 11.221 9.47255 
126 1 1.1834 10.8628 8.76664 
131 1 7.30879 10.8624 14.8922 
135 1 6.61048 10.4815 13.6704 
136 1 7.32694 10.7689 12.4092 
144 1 2.42032 9.48484 10.4866 
145 1 3.67713 8.75551 10.7649 
152 1 1.19625 8.80951 10.8986 
158 1 5.21488 14.8931 8.76803 
162 1 5.59587 13.6711 9.46581 
163 1 5.3099 12.4096 8.75009 
3 1 8.768 5.21462 1.184 
13 1 9.46617 5.59602 2.40547 
14 1 8.75047 5.30822 3.66647 
16 1 9.47212 4.8559 4.85604 
24 1 16.0955 5.50136 6.48284 
30 1 13.6618 6.61159 5.57158 
31 1 12.3998 7.33313 5.30425 
33 1 11.211 6.60506 4.85841 
42 1 14.8851 7.31243 5.19618 
52 1 10.8624 1.18273 7.30903 
60 1 10.4798 2.40451 6.61237 
61 1 10.761 3.66616 7.32995 
63 1 11.2144 4.85441 6.60675 
87 1 10.6962 5.37809 5.38006 
98 1 16.0955 6.54445 5.46054 
170 1 10.8621 7.31001 1.18467 
174 1 10.4802 6.61178 2.40555 
175 1 10.7644 7.32784 3.66718 
179 1 8.76806 1.18297 5.21461 
183 1 9.46635 2.40485 5.59547 
184 1 8.75051 3.66611 5.30808 
192 1 13.651 5.58565 6.5776 
193 1 12.4099 5.296 7.32426 
200 1 14.8933 5.24948 7.26583 
6 1 16.0955 5.74254 9.45174 
23 1 10.7004 5.37394 10.6948 
59 1 10.5694 6.5411 16.0949 
67 1 10.8623 7.3098 14.8937 
77 1 10.4792 6.61149 13.6732 
78 1 10.7594 7.32703 12.4104 
80 1 11.2054 6.60223 11.221 
93 1 16.0955 6.63508 10.596 
94 1 9.46688 2.40458 10.48 
95 1 8.75084 3.6658 10.7689 
97 1 9.47366 4.85504 11.2193 
106 1 8.76811 1.18313 10.862 
116 1 14.8965 5.39489 8.71205 
123 1 9.53666 5.50802 16.0944 
124 1 13.6743 5.6866 9.43584 
125 1 12.4225 5.3184 8.74975 
127 1 11.2386 4.85802 9.47205 
134 1 8.76821 5.21418 14.8927 
138 1 9.46524 5.59467 13.6704 
139 1 8.75077 5.30889 12.408 
143 1 14.8683 7.34929 10.9291 
147 1 13.6706 6.62868 10.5156 
148 1 12.3961 7.33061 10.7804 
156 1 10.4827 2.40757 9.46567 
157 1 10.7731 3.67069 8.75423 
164 1 10.862 1.18466 8.76822 
201 2 16.0961 3.60538 9.62539 
202 3 16.0961 2.68723 9.546 
11 1 10.6973 10.7027 5.37578 
18 1 16.0955 10.5686 6.53993 
29 1 9.53628 16.0941 5.50816 
70 1 10.5692 16.0941 6.54055 
71 1 10.4813 9.46716 2.40627 
72 1 10.7675 8.75153 3.66774 
74 1 11.2166 9.47759 4.85559 
85 1 10.8621 8.76862 1.18455 
96 1 8.76772 14.8924 5.21522 
103 1 16.0955 9.53516 5.50855 
104 1 9.46606 13.6708 5.59617 
105 1 8.74999 12.4096 5.30881 
107 1 9.47191 11.221 4.85642 
111 1 14.8942 10.8638 7.30798 
119 1 13.6717 10.4846 6.61039 
120 1 12.4081 10.771 7.32252 
122 1 11.2181 11.2213 6.60118 
132 1 9.46616 10.4813 2.40644 
133 1 8.75034 10.7686 3.66729 
140 1 8.76831 10.8624 1.18518 
146 1 14.8904 8.77057 5.21503 
150 1 13.6695 9.4693 5.59611 
151 1 12.4062 8.75704 5.30781 
155 1 10.862 14.8922 7.30879 
159 1 10.4813 13.6708 6.6106 
160 1 10.768 12.4092 7.32589 
1 1 9.4665 10.4815 13.6704 
2 1 8.75009 10.7689 12.4092 
4 1 9.47231 11.2215 11.2209 
12 1 16.0955 10.5645 9.53324 
15 1 8.7682 10.8623 14.8922 
25 1 13.6567 9.48479 10.4866 
26 1 12.3999 8.75548 10.7649 
28 1 11.2128 9.47587 11.2204 
34 1 9.53681 16.0945 10.5689 
37 1 14.8808 8.80951 10.8986 
45 1 10.4811 13.6711 9.46584 
46 1 10.7671 12.4096 8.75012 
48 1 11.2173 11.221 9.47258 
54 1 10.5692 9.53706 16.0949 
57 1 10.8621 14.893 8.76805 
69 1 10.6975 10.7032 10.6993 
88 1 10.5692 16.095 9.53591 
108 1 16.0956 9.55142 10.584 
128 1 9.53607 10.5697 16.0945 
165 1 10.4823 9.46734 13.6714 
166 1 10.766 8.75149 12.4089 
173 1 10.8627 8.76854 14.8928 
177 1 9.46619 13.671 10.4812 
178 1 8.75012 12.4102 10.7686 
185 1 8.76809 14.8927 10.8623 
189 1 13.6682 10.4903 9.46204 
190 1 12.4056 10.7722 8.74695 
197 1 14.8937 10.8628 8.76665 
ITEM: TIMESTEP
40
ITEM: NUMBER OF ATOMS
202
ITEM: BOX BOUNDS pp pp pp
0.0000000000000000e+00 1.6114000000000001e+01
0.0000000000000000e+00 1.6113000000000000e+01
0.0000000000000000e+00 1.6111999999999998e+01
ITEM: ATOMS id type x y z 
5 1 5.3702 5.36737 5.37599 
65 1 5.59447 6.60716 2.40765 
66 1 5.31053 7.32601 3.66738 
68 1 4.85982 6.5965 4.85247 
79 1 5.22105 7.30917 1.18516 
89 1 6.60714 2.40671 5.59281 
90 1 7.32593 3.66401 5.29753 
92 1 6.59613 4.85015 4.85235 
101 1 7.30954 1.18404 5.21928 
109 1 2.41645 5.58753 6.56893 
110 1 3.65478 5.29742 7.32011 
112 1 4.84298 4.84348 6.59949 
121 1 1.17899 5.26253 7.27112 
129 1 6.6077 5.58972 2.40856 
130 1 7.32601 5.29881 3.66665 
137 1 7.30891 5.21981 1.18448 
141 1 2.41304 6.60625 5.55549 
142 1 3.67396 7.33062 5.29451 
149 1 1.19053 7.31092 5.18132 
153 1 5.6 2.41053 6.61434 
154 1 5.29985 3.66544 7.33534 
161 1 5.22359 1.18696 7.31181 
7 1 6.61098 5.58797 13.6644 
8 1 7.32579 5.29845 12.4037 
10 1 6.58825 4.84878 11.2227 
21 1 7.30918 5.21806 14.8903 
32 1 1.19319 7.35817 10.9094 
40 1 2.39795 6.65025 10.4983 
41 1 3.67437 7.33769 10.7882 
43 1 4.85392 6.59477 11.2297 
47 1 5.22021 1.19049 8.77008 
55 1 5.58415 2.41511 9.47398 
56 1 5.27908 3.6718 8.75918 
58 1 4.81993 4.85747 9.48114 
64 1 5.50617 6.53932 16.0942 
75 1 5.35814 5.36435 10.7055 
118 1 6.53954 5.50526 16.0932 
168 1 5.59988 6.60635 13.6697 
169 1 5.31695 7.32496 12.4093 
176 1 5.22313 7.30854 14.8905 
182 1 7.30972 1.18841 10.8514 
186 1 6.60596 2.41061 10.4819 
187 1 7.32532 3.66671 10.7776 
191 1 1.17758 5.38282 8.71878 
195 1 2.39982 5.6944 9.4358 
196 1 3.64985 5.3304 8.74426 
9 1 7.30891 10.8577 1.18406 
19 1 6.60544 10.4862 2.40596 
20 1 7.32613 10.777 3.66273 
22 1 6.59631 11.2313 4.84567 
27 1 1.18673 8.76954 5.21625 
35 1 2.40831 9.47149 5.59178 
36 1 3.66719 8.75543 5.2997 
38 1 4.85027 9.48532 4.84607 
44 1 6.53785 16.0958 5.50582 
50 1 5.59051 13.6729 6.60581 
51 1 5.30417 12.4137 7.32518 
53 1 4.8485 11.232 6.59216 
62 1 5.21817 14.8947 7.30934 
76 1 5.50506 16.0973 6.53988 
81 1 5.36768 10.7137 5.36443 
167 1 5.21912 8.76706 1.18461 
171 1 5.59009 9.47079 2.40702 
172 1 5.3047 8.75073 3.66537 
180 1 6.60566 13.6717 5.5906 
181 1 7.32621 12.4144 5.30036 
188 1 7.3092 14.894 5.21931 
194 1 1.18447 10.8539 7.31073 
198 1 2.40697 10.4891 6.60397 
199 1 3.66471 10.7806 7.32299 
17 1 5.3719 10.7135 10.7068 
39 1 6.53956 16.0979 10.5703 
49 1 5.50392 9.5378 16.0942 
73 1 5.21908 8.76703 14.8915 
82 1 5.50528 16.0991 9.53714 
83 1 5.59026 9.47051 13.6696 
84 1 5.31168 8.7495 12.4095 
86 1 4.86106 9.48466 11.2284 
91 1 7.30913 14.8954 10.8574 
99 1 6.60575 13.6731 10.4863 
100 1 7.32621 12.4163 10.7775 
102 1 6.59671 11.2321 11.2305 
113 1 6.53769 10.5714 16.0943 
114 1 2.41087 10.4873 9.46943 
115 1 3.66619 10.7774 8.74792 
117 1 4.8495 11.2304 9.47866 
126 1 1.18459 10.8463 8.76831 
131 1 7.30885 10.8576 14.8923 
135 1 6.60493 10.4863 13.6707 
136 1 7.32598 10.7771 12.4142 
144 1 2.41654 9.49434 10.505 
145 1 3.67024 8.76252 10.7848 
152 1 1.18887 8.8176 10.9059 
158 1 5.21943 14.8955 8.76804 
162 1 5.59113 13.6727 9.47 
163 1 5.30432 12.4145 8.75032 
3 1 8.76808 5.21983 1.18449 
13 1 9.46929 5.58973 2.40858 
14 1 8.75098 5.29882 3.66667 
16 1 9.48085 4.85016 4.85236 
24 1 16.0955 5.51106 6.48092 
30 1 13.664 6.60626 5.55555 
31 1 12.403 7.33064 5.29455 
33 1 11.2172 6.5965 4.85251 
42 1 14.8864 7.31094 5.18136 
52 1 10.8534 1.18695 7.31182 
60 1 10.477 2.41054 6.61436 
61 1 10.7771 3.66546 7.33536 
63 1 11.234 4.84354 6.59949 
87 1 10.7068 5.36739 5.37604 
98 1 16.0955 6.54091 5.44108 
170 1 10.8559 7.3092 1.18519 
174 1 10.4825 6.60718 2.40767 
175 1 10.7664 7.32605 3.6674 
179 1 8.76745 1.18405 5.21929 
183 1 9.46985 2.40672 5.5928 
184 1 8.75108 3.66403 5.29753 
192 1 13.6605 5.58756 6.56896 
193 1 12.4222 5.2974 7.32015 
200 1 14.898 5.26254 7.27112 
6 1 16.0955 5.69037 9.47793 
23 1 10.7189 5.36433 10.7055 
59 1 10.5708 6.53935 16.0942 
67 1 10.8539 7.30852 14.8905 
77 1 10.4771 6.60637 13.6697 
78 1 10.7601 7.32495 12.4093 
80 1 11.2231 6.59477 11.2297 
93 1 16.0955 6.61308 10.6027 
94 1 9.47108 2.41062 10.4819 
95 1 8.75176 3.66672 10.7776 
97 1 9.48875 4.84877 11.2227 
106 1 8.76732 1.1884 10.8514 
116 1 14.8994 5.38278 8.71881 
123 1 9.53744 5.50528 16.0932 
124 1 13.6772 5.69438 9.43579 
125 1 12.4272 5.33036 8.74429 
127 1 11.2571 4.85742 9.48112 
134 1 8.76785 5.21806 14.8903 
138 1 9.46602 5.58799 13.6644 
139 1 8.75123 5.29846 12.4037 
143 1 14.8838 7.35812 10.9094 
147 1 13.679 6.65022 10.4983 
148 1 12.4027 7.33766 10.7883 
156 1 10.4929 2.41511 9.47395 
157 1 10.7979 3.67181 8.75919 
164 1 10.8568 1.19048 8.77008 
201 2 16.0961 3.47658 9.64679 
202 3 16.0961 2.55537 9.5556 
11 1 10.7094 10.7136 5.3644 
18 1 16.0955 10.5683 6.54102 
29 1 9.53915 16.0958 5.50585 
70 1 10.5719 16.0974 6.5399 
71 1 10.4869 9.47079 2.40702 
72 1 10.7723 8.75075 3.66538 
74 1 11.2267 9.48536 4.84609 
85 1 10.8579 8.76708 1.18459 
96 1 8.76781 14.894 5.21933 
103 1 16.0955 9.532 5.51106 
104 1 9.47133 13.6717 5.59061 
105 1 8.75079 12.4144 5.30039 
107 1 9.48067 11.2313 4.84568 
111 1 14.8925 10.854 7.31072 
119 1 13.67 10.4892 6.60395 
120 1 12.4123 10.7806 7.32298 
122 1 11.2285 11.2321 6.5922 
132 1 9.47158 10.4862 2.40594 
133 1 8.75091 10.777 3.66273 
140 1 8.76811 10.8577 1.18407 
146 1 14.8903 8.76954 5.21629 
150 1 13.6687 9.47147 5.59178 
151 1 12.4098 8.75545 5.29974 
155 1 10.8588 14.8947 7.30934 
159 1 10.4865 13.6729 6.60584 
160 1 10.7728 12.4137 7.3252 
1 1 9.47208 10.4863 13.6707 
2 1 8.75105 10.7771 12.4142 
4 1 9.48031 11.232 11.2306 
12 1 16.0955 10.5746 9.54134 
15 1 8.76819 10.8576 14.8923 
25 1 13.6605 9.49435 10.5051 