LAMMPS (3 Mar 2020)
# Alpha
clear
units		real
dimension 3
boundary        p p p
atom_style	charge
newton on
read_data       O_3.lmp
  orthogonal box = (0 0 0) to (18.762 18.762 18.761)
  2 by 2 by 2 MPI processor grid
  reading atoms ...
  129 atoms
  read_data CPU = 0.0138605 secs

timestep 0.25

# ---------- Define Interatomic Potential ---------------------
pair_style      reax/c NULL checkqeq no
pair_coeff      * * ffield.reax C O
fix             2 all qeq/reax 1 0.0 10.0 1.0e-6 reax/c

#------------ Equilibration of the system -------------------------
reset_timestep 0

dump 1 all custom 10 min.lammpstrj id type x y z

minimize 1.0e-8 1.0e-8 100000 100000
WARNING: Using 'neigh_modify every 1 delay 0 check yes' setting during minimization (../min.cpp:190)
WARNING: Total cutoff < 2*bond cutoff. May need to use an increased neighbor list skin. (../pair_reaxc.cpp:413)
Neighbor list info ...
  update every 1 steps, delay 0 steps, check yes
  max neighbors/atom: 2000, page size: 100000
  master list distance cutoff = 9.5
  ghost atom cutoff = 9.5
  binsize = 4.75, bins = 4 4 4
  2 neighbor lists, perpetual/occasional/extra = 2 0 0
  (1) pair reax/c, perpetual
      attributes: half, newton off, ghost
      pair build: half/bin/newtoff/ghost
      stencil: half/ghost/bin/3d/newtoff
      bin: standard
  (2) fix qeq/reax, perpetual, copy from (1)
      attributes: half, newton off, ghost
      pair build: copy
      stencil: none
      bin: none
Per MPI rank memory allocation (min/avg/max) = 15.86 | 15.9 | 15.98 Mbytes
Step Temp E_pair E_mol TotEng Press 
       0            0   -23355.112            0   -23355.112    2322.2777 
      54            0   -23458.062            0   -23458.062    953.69389 
Loop time of 2.02556 on 8 procs for 54 steps with 129 atoms

99.9% CPU use with 8 MPI tasks x no OpenMP threads

Minimization stats:
  Stopping criterion = energy tolerance
  Energy initial, next-to-last, final = 
        -23355.1115397     -23458.0621778      -23458.062178
  Force two-norm initial, final = 524.253 80.5811
  Force max component initial, final = 301.467 48.1494
  Final line search alpha, max atom move = 0.000803108 0.0386691
  Iterations, force evaluations = 54 276

MPI task timing breakdown:
Section |  min time  |  avg time  |  max time  |%varavg| %total
---------------------------------------------------------------
Pair    | 1.2288     | 1.2434     | 1.2659     |   1.0 | 61.39
Neigh   | 0          | 0          | 0          |   0.0 |  0.00
Comm    | 0.027858   | 0.050682   | 0.065128   |   5.2 |  2.50
Output  | 0.00066144 | 0.00095043 | 0.00147    |   0.0 |  0.05
Modify  | 0.72029    | 0.72048    | 0.7212     |   0.0 | 35.57
Other   |            | 0.01004    |            |       |  0.50

Nlocal:    16.125 ave 17 max 16 min
Histogram: 7 0 0 0 0 0 0 0 0 1
Nghost:    419.25 ave 424 max 416 min
Histogram: 1 0 3 0 0 3 0 0 0 1
Neighs:    949.5 ave 998 max 936 min
Histogram: 3 3 1 0 0 0 0 0 0 1

Total # of neighbors = 7596
Ave neighs/atom = 58.8837
Neighbor list builds = 0
Dangerous builds = 0

###
min_style cg
minimize 1.0e-8 1.0e-8 100000 100000
WARNING: Using 'neigh_modify every 1 delay 0 check yes' setting during minimization (../min.cpp:190)
WARNING: Total cutoff < 2*bond cutoff. May need to use an increased neighbor list skin. (../pair_reaxc.cpp:413)
Per MPI rank memory allocation (min/avg/max) = 15.86 | 15.9 | 15.98 Mbytes
Step Temp E_pair E_mol TotEng Press 
      54            0   -23458.062            0   -23458.062    953.69389 
     126            0   -23458.667            0   -23458.667     2556.429 
Loop time of 4.44441 on 8 procs for 72 steps with 129 atoms

99.7% CPU use with 8 MPI tasks x no OpenMP threads

Minimization stats:
  Stopping criterion = energy tolerance
  Energy initial, next-to-last, final = 
         -23458.062178     -23458.6671564     -23458.6672519
  Force two-norm initial, final = 80.5811 73.2153
  Force max component initial, final = 48.1494 48.4148
  Final line search alpha, max atom move = 0.00219906 0.106467
  Iterations, force evaluations = 72 647

MPI task timing breakdown:
Section |  min time  |  avg time  |  max time  |%varavg| %total
---------------------------------------------------------------
Pair    | 2.8452     | 2.8856     | 2.9308     |   1.4 | 64.93
Neigh   | 0          | 0          | 0          |   0.0 |  0.00
Comm    | 0.066122   | 0.112      | 0.15228    |   7.0 |  2.52
Output  | 0.0009929  | 0.001391   | 0.0020929  |   0.9 |  0.03
Modify  | 1.4242     | 1.4245     | 1.4261     |   0.1 | 32.05
Other   |            | 0.02094    |            |       |  0.47

Nlocal:    16.125 ave 17 max 16 min
Histogram: 7 0 0 0 0 0 0 0 0 1
Nghost:    419.25 ave 424 max 416 min
Histogram: 1 0 3 0 0 3 0 0 0 1
Neighs:    948.75 ave 995 max 934 min
Histogram: 2 4 1 0 0 0 0 0 0 1

Total # of neighbors = 7590
Ave neighs/atom = 58.8372
Neighbor list builds = 0
Dangerous builds = 0

###
fix 1 all box/relax aniso 0.0
min_style cg
minimize 1.0e-8 1.0e-8 100000 100000
WARNING: Using 'neigh_modify every 1 delay 0 check yes' setting during minimization (../min.cpp:190)
WARNING: Total cutoff < 2*bond cutoff. May need to use an increased neighbor list skin. (../pair_reaxc.cpp:413)
Per MPI rank memory allocation (min/avg/max) = 15.86 | 15.9 | 15.98 Mbytes
Step Temp E_pair E_mol TotEng Press Volume 
     126            0   -23458.667            0   -23458.667     2556.429    6604.1092 
     524            0   -23460.134            0   -23460.134    48.006437    6624.5282 
Loop time of 4.53698 on 8 procs for 398 steps with 129 atoms

99.6% CPU use with 8 MPI tasks x no OpenMP threads

Minimization stats:
  Stopping criterion = energy tolerance
  Energy initial, next-to-last, final = 
        -23458.6672519     -23460.1341221     -23460.1343357
  Force two-norm initial, final = 440.166 13.0551
  Force max component initial, final = 311.516 9.04936
  Final line search alpha, max atom move = 1.24329e-05 0.00011251
  Iterations, force evaluations = 398 770

MPI task timing breakdown:
Section |  min time  |  avg time  |  max time  |%varavg| %total
---------------------------------------------------------------
Pair    | 3.2962     | 3.3412     | 3.406      |   1.7 | 73.64
Neigh   | 0          | 0          | 0          |   0.0 |  0.00
Comm    | 0.071319   | 0.13621    | 0.18083    |   8.6 |  3.00
Output  | 0.0052148  | 0.0068829  | 0.010103   |   1.9 |  0.15
Modify  | 0.98963    | 0.98997    | 0.99187    |   0.1 | 21.82
Other   |            | 0.06273    |            |       |  1.38

Nlocal:    16.125 ave 17 max 16 min
Histogram: 7 0 0 0 0 0 0 0 0 1
Nghost:    419.25 ave 424 max 416 min
Histogram: 1 0 3 0 0 3 0 0 0 1
Neighs:    948.75 ave 995 max 934 min
Histogram: 2 4 1 0 0 0 0 0 0 1

Total # of neighbors = 7590
Ave neighs/atom = 58.8372
Neighbor list builds = 0
Dangerous builds = 0

unfix 1
###
min_style cg
minimize 1.0e-8 1.0e-8 100000 100000
WARNING: Using 'neigh_modify every 1 delay 0 check yes' setting during minimization (../min.cpp:190)
WARNING: Total cutoff < 2*bond cutoff. May need to use an increased neighbor list skin. (../pair_reaxc.cpp:413)
Per MPI rank memory allocation (min/avg/max) = 15.86 | 15.9 | 15.98 Mbytes
Step Temp E_pair E_mol TotEng Press 
     524            0   -23460.134            0   -23460.134    48.006437 
     527            0   -23460.136            0   -23460.136    63.715745 
Loop time of 0.258939 on 8 procs for 3 steps with 129 atoms

99.8% CPU use with 8 MPI tasks x no OpenMP threads

Minimization stats:
  Stopping criterion = energy tolerance
  Energy initial, next-to-last, final = 
        -23460.1343357     -23460.1354683     -23460.1355862
  Force two-norm initial, final = 8.67727 13.2932
  Force max component initial, final = 2.85706 4.99767
  Final line search alpha, max atom move = 2.12302e-05 0.000106102
  Iterations, force evaluations = 3 38

MPI task timing breakdown:
Section |  min time  |  avg time  |  max time  |%varavg| %total
---------------------------------------------------------------
Pair    | 0.17161    | 0.17354    | 0.17692    |   0.4 | 67.02
Neigh   | 0          | 0          | 0          |   0.0 |  0.00
Comm    | 0.0030916  | 0.0065017  | 0.0084042  |   2.0 |  2.51
Output  | 0          | 0          | 0          |   0.0 |  0.00
Modify  | 0.077328   | 0.077403   | 0.077499   |   0.0 | 29.89
Other   |            | 0.001499   |            |       |  0.58

Nlocal:    16.125 ave 17 max 16 min
Histogram: 7 0 0 0 0 0 0 0 0 1
Nghost:    419.25 ave 424 max 416 min
Histogram: 1 0 3 0 0 3 0 0 0 1
Neighs:    948 ave 992 max 934 min
Histogram: 2 3 2 0 0 0 0 0 0 1

Total # of neighbors = 7584
Ave neighs/atom = 58.7907
Neighbor list builds = 0
Dangerous builds = 0

###
fix 1 all box/relax aniso 0.0
min_style cg
minimize 1.0e-8 1.0e-8 100000 100000
WARNING: Using 'neigh_modify every 1 delay 0 check yes' setting during minimization (../min.cpp:190)
WARNING: Total cutoff < 2*bond cutoff. May need to use an increased neighbor list skin. (../pair_reaxc.cpp:413)
Per MPI rank memory allocation (min/avg/max) = 15.86 | 15.9 | 15.98 Mbytes
Step Temp E_pair E_mol TotEng Press Volume 
     527            0   -23460.136            0   -23460.136    63.715745    6624.5282 
     530            0   -23460.137            0   -23460.137    11.512812    6624.5743 
Loop time of 0.0647314 on 8 procs for 3 steps with 129 atoms

100.0% CPU use with 8 MPI tasks x no OpenMP threads

Minimization stats:
  Stopping criterion = energy tolerance
  Energy initial, next-to-last, final = 
        -23460.1355862     -23460.1365168     -23460.1366754
  Force two-norm initial, final = 18.2848 13.2049
  Force max component initial, final = 10.9066 7.07959
  Final line search alpha, max atom move = 1.71377e-05 0.000121328
  Iterations, force evaluations = 3 10

MPI task timing breakdown:
Section |  min time  |  avg time  |  max time  |%varavg| %total
---------------------------------------------------------------
Pair    | 0.04599    | 0.046808   | 0.047679   |   0.2 | 72.31
Neigh   | 0          | 0          | 0          |   0.0 |  0.00
Comm    | 0.0013904  | 0.0022517  | 0.0030623  |   1.0 |  3.48
Output  | 0          | 0          | 0          |   0.0 |  0.00
Modify  | 0.01452    | 0.014528   | 0.014556   |   0.0 | 22.44
Other   |            | 0.001144   |            |       |  1.77

Nlocal:    16.125 ave 17 max 16 min
Histogram: 7 0 0 0 0 0 0 0 0 1
Nghost:    419.25 ave 424 max 416 min
Histogram: 1 0 3 0 0 3 0 0 0 1
Neighs:    948 ave 992 max 934 min
Histogram: 2 3 2 0 0 0 0 0 0 1

Total # of neighbors = 7584
Ave neighs/atom = 58.7907
Neighbor list builds = 0
Dangerous builds = 0

unfix 1
###
min_style cg
minimize 1.0e-8 1.0e-8 100000 100000
WARNING: Using 'neigh_modify every 1 delay 0 check yes' setting during minimization (../min.cpp:190)
WARNING: Total cutoff < 2*bond cutoff. May need to use an increased neighbor list skin. (../pair_reaxc.cpp:413)
Per MPI rank memory allocation (min/avg/max) = 15.86 | 15.9 | 15.98 Mbytes
Step Temp E_pair E_mol TotEng Press 
     530            0   -23460.137            0   -23460.137    11.512812 
     531            0   -23460.137            0   -23460.137     11.90057 
Loop time of 0.131176 on 8 procs for 1 steps with 129 atoms

100.0% CPU use with 8 MPI tasks x no OpenMP threads

Minimization stats:
  Stopping criterion = energy tolerance
  Energy initial, next-to-last, final = 
        -23460.1366754     -23460.1366754     -23460.1368016
  Force two-norm initial, final = 10.2197 9.24396
  Force max component initial, final = 3.21004 4.01789
  Final line search alpha, max atom move = 3.80276e-06 1.52791e-05
  Iterations, force evaluations = 1 20

MPI task timing breakdown:
Section |  min time  |  avg time  |  max time  |%varavg| %total
---------------------------------------------------------------
Pair    | 0.089039   | 0.090514   | 0.091964   |   0.3 | 69.00
Neigh   | 0          | 0          | 0          |   0.0 |  0.00
Comm    | 0.0021955  | 0.0036849  | 0.005163   |   1.4 |  2.81
Output  | 0          | 0          | 0          |   0.0 |  0.00
Modify  | 0.036024   | 0.036033   | 0.036081   |   0.0 | 27.47
Other   |            | 0.0009434  |            |       |  0.72

Nlocal:    16.125 ave 17 max 16 min
Histogram: 7 0 0 0 0 0 0 0 0 1
Nghost:    419.25 ave 424 max 416 min
Histogram: 1 0 3 0 0 3 0 0 0 1
Neighs:    948 ave 992 max 934 min
Histogram: 2 3 2 0 0 0 0 0 0 1

Total # of neighbors = 7584
Ave neighs/atom = 58.7907
Neighbor list builds = 0
Dangerous builds = 0

undump 1
#############
#----------- Thermo ------------
reset_timestep 0
thermo  200

thermo_style    custom step temp etotal ke pe press
velocity all create 300 12345 mom yes rot yes
fix 1 all npt temp 300 300 25.0 iso 0.0 0.0 250.0

variable vpe equal pe
variable vtemp equal temp
variable vstep equal step

fix output all print 2500 "${vstep} ${vtemp} ${vpe}" file temp-tpdh-Pt.dat screen no

dump 1 all custom 2500 thermo-tpdh-Pt.lammpstrj id type x y z

run 1000000
WARNING: Total cutoff < 2*bond cutoff. May need to use an increased neighbor list skin. (../pair_reaxc.cpp:413)
Per MPI rank memory allocation (min/avg/max) = 14.73 | 14.78 | 14.86 Mbytes
Step Temp TotEng KinEng PotEng Press 
       0          300   -23345.674    114.46311   -23460.137    801.74289 
     200    218.61877    -23305.01    83.412612   -23388.423     -710.987 
     400    246.50622   -23244.245    94.052891   -23338.297    1636.5695 
     600    283.59255   -23207.405    108.20295   -23315.608    2605.0422 
     800     262.9066   -23232.957    100.31035   -23333.268    4082.4128 
    1000    280.68368   -23236.733    107.09308   -23343.826    853.47139 
    1200    329.47487   -23222.375    125.70906   -23348.085   -4504.2946 
    1400    305.19035   -23248.167    116.44345    -23364.61   -1069.5789 
    1600    297.91534   -23248.175    113.66772   -23361.843    4323.3306 
    1800    317.53196   -23225.461    121.15231   -23346.613    580.49555 
    2000    284.77391   -23241.117    108.65369   -23349.771    6675.1855 
    2200    283.34236   -23253.474    108.10749   -23361.582   -3289.2402 
    2400    317.06432   -23223.046    120.97389   -23344.019   -10072.337 
    2600    318.84977   -23213.476    121.65512   -23335.131   -8737.5376 
    2800    306.68475   -23231.648    117.01363   -23348.662   -2058.1104 
    3000    265.49513   -23251.637    101.29799   -23352.935   -6112.8618 
    3200    342.30474   -23230.026    130.60421    -23360.63   -2210.3732 
    3400    275.32564   -23244.021    105.04876    -23349.07   -9904.1802 
    3600    288.38768   -23252.175     110.0325   -23362.207   -9268.1234 
    3800    340.60228    -23230.36    129.95465   -23360.314   -2115.7607 
    4000    262.86943   -23235.572    100.29617   -23335.868   -1408.3074 
    4200    289.25275   -23238.455    110.36256   -23348.818    2584.1396 
    4400    289.52145   -23226.206    110.46508   -23336.671    4098.2742 
    4600    293.34725   -23238.117    111.92479   -23350.042   -1057.3429 
    4800    304.78699   -23235.643    116.28955   -23351.932    1085.8433 
    5000    272.14099   -23262.265    103.83368   -23366.099     1136.368 
    5200    280.09864   -23253.912    106.86987   -23360.782    8292.2387 
    5400    307.42676   -23238.085    117.29674   -23355.382    8414.9703 
    5600    258.56897   -23258.957    98.655356   -23357.612    9386.2066 
    5800    296.07506   -23236.791    112.96557   -23349.756    210.92028 
    6000    313.01834   -23229.118    119.43017   -23348.548     2628.803 
    6200    255.57616   -23250.489     97.51347   -23348.003   -327.74754 
    6400    330.76394   -23228.141    126.20089   -23354.342    4370.5521 
    6600      316.576   -23242.898    120.78757   -23363.686   -1824.5909 
    6800    278.69941   -23254.389      106.336   -23360.725   -2110.9846 
    7000    286.52735   -23238.516     109.3227   -23347.839   -4869.5067 
    7200    285.06585   -23247.936    108.76508   -23356.701   -1763.8873 
    7400    281.38423   -23246.282    107.36038   -23353.642    3467.8713 
    7600    307.08682   -23216.179    117.16704   -23333.346    3040.2227 
    7800    318.59758   -23233.047     121.5589   -23354.606   -7491.5254 
    8000    311.79465   -23242.795    118.96328   -23361.759   -1039.5485 
    8200    347.16817   -23214.299    132.45982   -23346.759   -8101.7542 
    8400     285.8752    -23246.28    109.07388   -23355.354   -745.96547 
    8600    298.16453   -23235.226    113.76279   -23348.989    5702.9493 
    8800    292.22735   -23250.925     111.4975   -23362.422     840.2814 
    9000    288.56479   -23247.088    110.10007   -23357.188   -4682.7655 
    9200    291.03902   -23232.669     111.0441   -23343.714   -6236.7931 
    9400    317.11568   -23226.814    120.99348   -23347.808    4881.6408 
    9600    254.53721   -23256.829    97.117065   -23353.946    1574.3118 
    9800     306.6214   -23250.382    116.98946   -23367.371    -456.8006 
   10000    305.00693   -23236.821    116.37347   -23353.194   -460.80662 
   10200    285.59923   -23247.702    108.96858    -23356.67   -2085.3368 
   10400    301.83685    -23248.97    115.16394   -23364.134   -3681.5328 
   10600    312.28603   -23239.509    119.15076    -23358.66    1453.4735 
   10800    301.36288   -23225.831     114.9831   -23340.814   -8684.1208 
   11000    300.86416   -23227.677    114.79282    -23342.47    4391.9447 
   11200    279.29319   -23241.993    106.56255   -23348.555    3738.1498 
   11400    316.42077   -23235.208    120.72835   -23355.937    3427.7382 
   11600    333.57855   -23226.888    127.27479   -23354.163   -5574.0258 
   11800    306.71141   -23248.871     117.0238   -23365.895   -8748.9405 
   12000    285.43138   -23248.679    108.90454   -23357.583    4344.7354 
   12200    329.82792   -23227.762    125.84376   -23353.605    257.91839 
   12400    316.14181   -23218.889    120.62191    -23339.51    4083.0377 
   12600    257.09484   -23245.332    98.092911   -23343.425   -1817.8872 
   12800    305.62887   -23225.408    116.61077   -23342.018   -15.202961 
   13000    276.24769   -23245.488    105.40056   -23350.889   -2081.5219 
   13200     306.0961   -23244.038    116.78904   -23360.827   -3201.9047 
   13400    319.75826   -23223.329    122.00174   -23345.331    3217.4981 
   13600    311.44417   -23255.396    118.82956   -23374.226     -7988.61 
   13800    304.61131   -23243.956    116.22252   -23360.179   -6706.2839 
   14000    304.32933    -23234.41    116.11493   -23350.525    3353.9851 
   14200    328.42658   -23212.604    125.30909   -23337.913     549.4425 
   14400    263.99348   -23237.836    100.72505   -23338.561    -6634.826 
   14600    318.26897   -23218.161    121.43352   -23339.595   -5212.8142 
   14800    329.97095    -23215.44    125.89833   -23341.339   -4701.2215 
   15000     285.2379   -23252.077    108.83072   -23360.908   -3212.9469 
   15200    278.09721   -23242.957    106.10623   -23349.063    4640.5624 
   15400     322.4146   -23231.659    123.01525   -23354.674    6048.4961 
   15600    262.55998   -23252.641     100.1781   -23352.819     1306.536 
   15800    280.32626   -23239.743    106.95671     -23346.7   -7081.7374 
   16000    314.07489   -23221.761    119.83329   -23341.594   -10048.572 
   16200     321.2283   -23234.183    122.56263   -23356.746   -3372.5201 
   16400    296.29968   -23242.457    113.05127   -23355.508    1176.2605 
   16600     308.8652   -23235.871    117.84557   -23353.716   -2394.2153 
   16800    251.15838   -23259.536    95.827893   -23355.364     7537.161 
   17000    287.21837   -23246.274    109.58636    -23355.86    9139.4274 
   17200    312.41701   -23241.448    119.20074   -23360.649    3043.3002 
   17400    318.81398   -23228.801    121.64146   -23350.443   -4844.8587 
   17600    333.18963   -23226.752     127.1264   -23353.878   -1354.2986 
   17800    303.46339   -23247.193    115.78454   -23362.978    3583.3107 
   18000    297.21682   -23236.964     113.4012   -23350.366    6993.2664 
   18200    300.51624   -23228.489    114.66007   -23343.149    2023.0659 
   18400    291.32443   -23250.785      111.153   -23361.938   -606.17636 
   18600    295.00352   -23245.877    112.55673   -23358.434   -16.486058 
   18800    318.30823   -23237.235    121.44849   -23358.684    2736.7143 
   19000    257.83266   -23259.642    98.374425   -23358.017    4474.2005 
   19200    318.00337   -23229.679    121.33218   -23351.011    6756.9201 
   19400     307.6664   -23228.816    117.38817   -23346.204    3664.5832 
   19600     265.4493   -23254.078     101.2805   -23355.359    -375.0473 
   19800    327.25466   -23231.918    124.86195    -23356.78    5139.3746 
   20000    279.06058   -23247.339     106.4738   -23353.813    2412.9589 
   20200    321.91415   -23228.517    122.82431   -23351.342   -5093.0516 
   20400    319.28261   -23234.246    121.82026   -23356.067     369.3724 
   20600    304.52369   -23246.497    116.18909   -23362.686    10953.297 
   20800    317.02706   -23228.836    120.95967   -23349.796   -3890.3811 
   21000    310.24333   -23226.535    118.37138   -23344.906    3199.0914 
   21200    311.80051   -23231.152    118.96552   -23350.118    4044.8605 
   21400    274.11365   -23240.008    104.58633   -23344.594    410.75735 
   21600    285.25932   -23254.368    108.83889   -23363.207   -1711.0736 
   21800    344.78033   -23229.111    131.54876    -23360.66    -5894.178 
   22000    303.03548   -23240.553    115.62127   -23356.175   -5981.2913 
   22200    303.89201   -23246.778    115.94808   -23362.727   -3615.3487 
   22400    301.88976   -23246.455    115.18413   -23361.639   -2494.9325 
   22600    292.22158   -23221.429     111.4953   -23332.924    1321.9657 
   22800    316.91369   -23230.383    120.91642     -23351.3   -6759.9931 
   23000    274.33288   -23242.055    104.66998   -23346.725    1050.3026 
   23200    335.09075   -23213.755    127.85176   -23341.606    3168.8463 
   23400    312.60681   -23225.632    119.27315   -23344.905    124.55319 
   23600     321.1758   -23248.193     122.5426   -23370.735   -449.87232 
   23800    321.26411   -23245.763    122.57629   -23368.339   -2690.8678 
   24000    328.95923   -23223.171    125.51232   -23348.683    3050.5352 
   24200    297.16459    -23252.87    113.38127   -23366.252    2590.9257 
   24400    288.80481   -23238.749    110.19165   -23348.941   -3260.1826 
   24600    282.06524   -23236.656    107.62021   -23344.276     5652.708 
   24800    286.06022   -23234.899    109.14447   -23344.043    2432.6758 
   25000    291.38599   -23236.857    111.17648   -23348.034    2855.7325 
   25200    311.68218   -23235.493    118.92037   -23354.413    2874.9839 
   25400    293.30745   -23252.176    111.90961   -23364.086   -4650.4887 
   25600    267.80668   -23258.446    102.17995   -23360.626     7873.193 
   25800    329.19034   -23234.348     125.6005   -23359.949    3239.6832 
   26000    337.26162   -23227.387    128.68004   -23356.067   -29.544071 
   26200    290.79799   -23252.628    110.95214    -23363.58    2613.3148 
   26400    297.41169   -23233.561    113.47555   -23347.037    -2223.012 
   26600    286.08589   -23235.993    109.15427   -23345.147   -5588.1111 
   26800    259.33926   -23261.981    98.949259    -23360.93   -3016.6626 
   27000    297.45289   -23246.616    113.49127   -23360.107    6555.6048 
   27200    297.68273   -23236.061    113.57897    -23349.64   -6027.6578 
   27400    290.97153   -23260.319    111.01835   -23371.337   -2449.2579 
   27600    310.58855    -23240.93     118.5031   -23359.433     960.9419 
   27800    303.54894   -23238.596    115.81718   -23354.414    678.59144 
   28000     348.5282   -23216.606    132.97873   -23349.585    3614.8564 
   28200    285.54548   -23246.727    108.94808   -23355.675    528.50818 
   28400    273.32541   -23242.268    104.28558   -23346.553    2686.8468 
   28600    308.12764   -23218.718    117.56416   -23336.282   -545.42109 
   28800    328.71333   -23244.374     125.4185   -23369.792    3911.7692 
   29000    286.24088   -23252.832     109.2134   -23362.045    1493.2189 
   29200    336.21795   -23225.527    128.28184   -23353.809    904.41533 
   29400    296.77123   -23233.176    113.23119   -23346.407    1490.7546 
   29600    269.61654   -23252.513    102.87049   -23355.384   -1153.2343 
   29800    307.71112   -23243.106    117.40524   -23360.511   -3483.8224 
   30000    291.61841    -23242.58    111.26516   -23353.845   -1726.0769 
   30200    357.69261   -23222.918    136.47536   -23359.394   -4061.4609 
   30400    299.36053   -23248.701    114.21912    -23362.92    5309.1632 
   30600     265.6586   -23248.701    101.36036   -23350.062   -1878.7536 
   30800    308.95211   -23228.797    117.87873   -23346.676   -7428.2339 
   31000    267.60195   -23244.304    102.10183   -23346.406    4238.2215 
   31200    326.99589   -23214.331    124.76322   -23339.094   -761.67268 
   31400    294.48522   -23239.574    112.35898   -23351.933     2110.997 
   31600    284.87858   -23246.567    108.69362   -23355.261   -4019.3061 
   31800    330.76551   -23221.907    126.20149   -23348.108    5717.9401 
   32000    282.80751   -23246.834    107.90342   -23354.737    1736.5702 
   32200    274.62808   -23250.196    104.78261   -23354.978   -2174.9543 
   32400    334.20507   -23218.892    127.51383   -23346.406    4493.7486 
   32600    297.53399    -23240.05    113.52221   -23353.572   -125.47228 
   32800    290.59355   -23243.427    110.87413   -23354.301    2612.5574 
   33000    318.83701   -23234.371    121.65025   -23356.021   -3977.8017 
   33200    326.13539   -23221.781     124.4349   -23346.216   -1430.8835 
   33400     296.5739    -23235.64     113.1559   -23348.796    4806.7429 
   33600    300.91435   -23253.514    114.81197   -23368.326    7590.2186 
   33800    323.26268   -23230.675    123.33883   -23354.014   -1489.3343 
   34000    286.73748   -23232.229    109.40287   -23341.632   -1058.1753 
   34200    300.35418   -23239.047    114.59824   -23353.646   -5762.4256 
   34400    279.23525   -23241.042    106.54045   -23347.582   -7423.8382 
   34600    228.03463   -23264.323    87.005175   -23351.328    1238.7774 
   34800    294.90116   -23238.914    112.51767   -23351.431   -6611.8178 
   35000    298.76308   -23238.501    113.99117   -23352.492    1412.7447 
   35200    266.41264    -23263.86    101.64806   -23365.508   -1203.8902 
   35400     332.9001   -23233.678    127.01593   -23360.694    1106.4896 
   35600    305.29068   -23243.182    116.48173   -23359.663    5427.2569 
   35800    290.57306   -23249.489    110.86632   -23360.355    1783.4442 
   36000    318.34822    -23220.57    121.46375   -23342.033   -6092.0748 
   36200    292.88887   -23242.672     111.7499   -23354.422   -4310.1951 
   36400    294.88946   -23247.444    112.51321   -23359.957   -538.43594 
   36600    296.28681   -23239.266    113.04636   -23352.313   -2538.0517 
   36800    280.95048    -23238.18    107.19488   -23345.374   -6767.6987 
   37000    286.24103   -23254.639    109.21346   -23363.853    -11421.83 
   37200    301.43744    -23238.13    115.01155   -23353.142    3505.0639 
   37400    318.34366    -23240.16    121.46201   -23361.622   -320.50526 
   37600    324.94562   -23213.701    123.98095   -23337.682   -803.56487 
   37800    314.64954   -23222.528    120.05255   -23342.581    -3099.747 
   38000    291.91914   -23240.728     111.3799   -23352.107   -3027.1965 
   38200    293.31876   -23246.699    111.91392   -23358.613   -1561.8763 
   38400    327.05765    -23229.85    124.78678   -23354.637    3070.9835 
   38600    297.16926   -23248.862    113.38305   -23362.245    1391.8427 
   38800    276.58397   -23252.361    105.52887   -23357.889    1669.3938 
   39000    309.34508   -23237.216    118.02866   -23355.244    5350.1303 
   39200    298.82826   -23238.247    114.01604   -23352.263      1022.83 
   39400    255.60959   -23262.226    97.526225   -23359.752   -563.59606 
   39600    307.31032   -23235.636    117.25231   -23352.888   -7493.4947 
   39800    331.15963     -23230.5    126.35187   -23356.852   -7308.8034 
   40000    269.16822   -23260.778    102.69943   -23363.477    1653.2534 
   40200    285.17363   -23242.783     108.8062   -23351.589    2913.3552 
   40400    307.58602    -23241.66     117.3575   -23359.017   -1238.1779 
   40600    266.56294   -23261.092    101.70541   -23362.798   -2454.9262 
   40800    291.77847   -23248.128    111.32623   -23359.455   -208.72859 
   41000    322.34118   -23229.975    122.98724   -23352.963   -8577.5627 
   41200    326.06162   -23225.795    124.40675   -23350.201    -913.1987 
   41400    289.40221   -23249.233    110.41958   -23359.652    5533.3256 
   41600    333.64862   -23223.264    127.30153   -23350.565     2951.855 
   41800      285.211   -23240.455    108.82046   -23349.276    6102.8816 
   42000    280.30982   -23250.949    106.95044   -23357.899   -876.20593 
   42200    342.80829   -23223.824    130.79634    -23354.62   -5105.6547 
   42400    291.57109   -23233.693    111.24711    -23344.94    4128.1616 
   42600    283.67231   -23237.943    108.23338   -23346.176   -169.03061 
   42800    274.31641   -23238.079     104.6637   -23342.743    4557.8724 
   43000    294.61071   -23254.076    112.40686   -23366.482    2929.2211 
   43200    305.03956   -23231.841    116.38592   -23348.227     1972.911 
   43400    295.72025    -23235.87     112.8302   -23348.701   -554.07975 
   43600    281.18198   -23244.291    107.28321   -23351.574    -3719.004 
   43800    285.85127   -23233.252    109.06475   -23342.316   -552.72015 
   44000    319.06452   -23215.748    121.73706   -23337.485    -3477.316 
   44200    295.52007   -23235.244    112.75382   -23347.998   -2282.0135 
   44400    284.69887   -23241.994    108.62506   -23350.619   -1556.7081 
   44600    291.09519   -23259.171    111.06553   -23370.236   -1846.5765 
   44800    328.90028   -23226.733    125.48983   -23352.222   -4721.6981 
   45000    293.05715   -23244.922    111.81411   -23356.736    -3883.338 
   45200    292.38672   -23253.553    111.55831   -23365.111   -5061.1671 
   45400    284.09389   -23240.848    108.39423   -23349.242   -2286.6284 
   45600    324.02311   -23211.684    123.62897   -23335.313    3898.1105 
   45800    289.51026     -23233.9    110.46081   -23344.361    1384.1748 
   46000    289.48737   -23234.232    110.45208   -23344.684   -3324.0708 
   46200    321.43009   -23218.194    122.63962   -23340.833   -9414.7361 
   46400    298.07844   -23242.974    113.72995   -23356.704   -2126.2051 
   46600    311.44176   -23245.704    118.82864   -23364.533    4156.5256 
   46800    291.75384   -23247.559    111.31684   -23358.876    3418.0808 
   47000    324.09939   -23243.352    123.65807    -23367.01    905.34079 
   47200    313.34668   -23223.186    119.55545   -23342.742    3828.1132 
   47400     281.3153   -23235.877    107.33408   -23343.211    3211.2123 
   47600    283.43721   -23244.512    108.14368   -23352.656    1475.5422 
   47800    318.81673   -23222.571    121.64251   -23344.214   -135.41497 
   48000    299.20139   -23234.755     114.1584   -23348.914   -1435.5702 
   48200    275.60963   -23265.516    105.15712   -23370.673    109.88367 
   48400    280.20367   -23263.783    106.90994   -23370.693     196.9795 
   48600     282.4812   -23242.269    107.77892   -23350.048   -3325.2242 
   48800    289.21001   -23233.906    110.34625   -23344.252    2104.1832 
   49000    236.33026   -23262.901    90.170318   -23353.071   -2774.9148 
   49200     284.0475   -23239.421    108.37653   -23347.797    3054.4531 
   49400    290.89339    -23233.18    110.98854   -23344.169   -4143.8913 
   49600    315.66841   -23237.756    120.44129   -23358.197    2162.7385 
   49800    295.79495   -23257.255     112.8587   -23370.114    -742.0295 
   50000     288.3119   -23250.424    110.00359   -23360.428    3877.8977 
   50200    313.72947   -23231.627     119.7015   -23351.329    3033.4299 
   50400    278.62391   -23246.374    106.30719   -23352.681     714.6003 
   50600    273.46051   -23259.588    104.33713   -23363.925    -3836.579 
   50800    303.53399   -23235.332    115.81148   -23351.144   -2440.0436 
   51000    300.98054   -23228.006    114.83723   -23342.843   -1982.0186 
   51200    315.25972   -23214.335    120.28535   -23334.621    3029.1843 
   51400    309.24534   -23243.566    117.99061   -23361.556    895.96871 
   51600    309.91724   -23252.929    118.24697   -23371.176    3458.5709 
   51800    295.16362   -23230.633    112.61782   -23343.251    1063.9756 
   52000    324.54605   -23234.247     123.8285   -23358.076    -2675.363 
   52200    280.72974   -23250.172    107.11066   -23357.283    3604.3195 
   52400    278.43484   -23236.708    106.23505   -23342.944    2699.9657 
   52600    289.65271   -23233.744    110.51516   -23344.259    2094.9557 
   52800    269.93379   -23262.661    102.99153   -23365.652   -3231.3132 
   53000    306.74374   -23233.915    117.03614   -23350.951   -1094.1269 
   53200    338.39807    -23237.29    129.11365   -23366.403    3020.2484 
   53400    261.88286   -23254.543    99.919753   -23354.463     5997.862 
   53600    296.25908   -23235.274    113.03578    -23348.31     3586.235 
   53800    294.07456   -23247.379    112.20229   -23359.581   -7539.1308 
   54000    316.51414   -23232.347    120.76397   -23353.111   -4924.8934 
   54200    324.34163    -23221.92     123.7505    -23345.67   -4779.8517 
   54400    283.75894   -23246.461    108.26643   -23354.728   -6108.0258 
   54600    311.43576   -23236.619    118.82635   -23355.445   -634.36554 
   54800    341.29792   -23201.597    130.22006   -23331.817    1733.7091 
   55000    320.73119   -23237.211    122.37296   -23359.584     10707.02 
   55200    283.03113   -23254.534    107.98874   -23362.523    1009.8229 
   55400    307.73509    -23232.36    117.41438   -23349.774    4210.4841 
   55600     296.5379   -23222.657    113.14216   -23335.799   -3602.2913 
   55800    284.22883   -23234.614    108.44571    -23343.06     1834.062 
   56000    293.28636   -23246.916    111.90156   -23358.818    2184.1032 
   56200    260.09789   -23257.306    99.238709   -23356.545    173.66664 
   56400    315.31517   -23233.655    120.30651   -23353.962    6484.4753 
   56600    296.25582   -23252.468    113.03454   -23365.503    174.61924 
   56800    245.72448   -23268.617    93.754624   -23362.372   -5709.6861 
   57000    311.38936   -23237.834    118.80864   -23356.643    -2684.915 
   57200    307.70276   -23234.176    117.40205   -23351.578   -1202.7632 
   57400    295.66949   -23253.716    112.81083   -23366.527   -4311.5497 
   57600    312.59634    -23228.13    119.26916   -23347.399    8345.8375 
   57800    274.58423   -23230.448    104.76588   -23335.214    9500.5907 
   58000    280.78687   -23249.894    107.13246   -23357.027   -818.81242 
   58200    316.79583   -23244.929    120.87145   -23365.801   -1130.0445 
   58400    283.66221   -23252.108    108.22952   -23360.338    2144.0359 
   58600     304.0657   -23219.274    116.01435   -23335.289    818.14182 
   58800    315.59605   -23231.976    120.41368    -23352.39   -3737.7974 
   59000     272.4267   -23249.821    103.94269   -23353.764    438.23393 
   59200    321.71492   -23229.725     122.7483   -23352.473   -1572.8403 
   59400    364.60365   -23204.541    139.11222   -23343.653   -1656.5327 
   59600    297.97805    -23231.45    113.69165   -23345.141    9110.9603 
   59800     291.7261   -23251.809    111.30625   -23363.115   -4976.9901 
   60000    274.54093    -23262.27    104.74936   -23367.019    1125.6716 
   60200    289.71293   -23240.677    110.53814   -23351.215   -1756.9035 
   60400    288.42607   -23226.024    110.04715   -23336.071   -15406.783 
   60600    288.27442   -23227.738    109.98928   -23337.727   -2707.6763 
   60800    290.85308   -23250.776    110.97316   -23361.749    4264.7775 
   61000     304.0103   -23243.036    115.99321   -23359.029   -3445.5532 
   61200     310.0639   -23230.148    118.30292   -23348.451   -7813.9044 
   61400    304.49666   -23246.587    116.17878   -23362.766   -2038.0522 
   61600    249.88827   -23267.686    95.343293   -23363.029   -2083.3477 
   61800    299.26866   -23238.373    114.18407   -23352.557   -7024.1574 
   62000    275.79978   -23247.946    105.22966   -23353.176   -2570.0219 
   62200     306.7386   -23219.587    117.03418   -23336.621   -9891.0146 
   62400    325.47719   -23227.182    124.18377   -23351.366   -1816.1563 
   62600    282.07796   -23249.519    107.62506   -23357.145   -629.14817 
   62800    284.59264   -23244.713    108.58452   -23353.297    589.12624 
   63000    322.65488   -23220.029    123.10693   -23343.136   -2604.6514 
   63200    348.58449   -23228.475    133.00021   -23361.475    431.95887 
   63400    318.26792   -23244.271    121.43311   -23365.704    2440.7256 
   63600    320.33997   -23236.703    122.22369   -23358.927    3286.9112 
   63800    293.66113   -23242.663    112.04455   -23354.708   -2563.7849 
   64000    257.24302    -23245.57    98.149452    -23343.72   -5981.4499 
   64200    308.90866    -23221.03    117.86215   -23338.892   -6621.3113 
   64400    282.85152    -23244.57    107.92021    -23352.49    1317.2785 
   64600    270.44705   -23247.732    103.18737   -23350.919    4606.2551 
   64800    308.62575   -23235.359    117.75421   -23353.113    2745.4783 
   65000    306.96416   -23225.334    117.12024   -23342.455    1035.4061 
   65200     276.4418   -23243.068    105.47462   -23348.543   -5824.3581 
   65400    318.86665   -23226.106    121.66156   -23347.768   -7853.2654 
   65600    315.40382   -23239.856    120.34034   -23360.196    4283.1787 
   65800    312.10277   -23241.402    119.08084   -23360.483    360.61738 
   66000    313.21426   -23222.255    119.50492    -23341.76    2160.9308 
   66200    300.89812   -23249.789    114.80578   -23364.594   -759.81968 
   66400    302.37685    -23240.44    115.36998    -23355.81    -2174.511 
   66600    292.89023   -23259.142    111.75042   -23370.893     7876.811 
   66800    262.46182   -23259.538    100.14065   -23359.679   -745.07959 
   67000    299.82921   -23236.216    114.39794   -23350.614   -474.95951 
   67200    327.20108   -23225.618     124.8415    -23350.46    2111.9726 
   67400    270.95728   -23256.181    103.38204   -23359.563   -2144.6287 
   67600    288.84333   -23241.882    110.20635   -23352.089   -4231.3164 
   67800    297.35314   -23230.034    113.45321   -23343.487    14793.581 
   68000    265.98294   -23257.146    101.48411    -23358.63    827.84975 
   68200    295.10844   -23249.956    112.59676   -23362.553    824.80736 
   68400    327.50887   -23229.561    124.95894    -23354.52    5409.7727 
   68600    330.79731   -23227.707    126.21362    -23353.92   -5926.9069 
   68800    282.15155   -23248.878    107.65314   -23356.531   -3720.4881 
   69000    321.53617   -23217.447     122.6801   -23340.128   -47.211037 
   69200    325.82069   -23231.458    124.31483   -23355.773    6326.3734 
   69400    303.34986   -23241.441    115.74122   -23357.183    725.54181 
   69600    302.94336    -23240.35    115.58613   -23355.936    2868.1701 
   69800      302.408   -23246.387    115.38186   -23361.769    438.95881 
   70000    300.51313   -23235.018    114.65889   -23349.677    8940.9839 
   70200    266.95864   -23259.321    101.85638   -23361.178    53.132337 
   70400    282.23641   -23239.917    107.68552   -23347.603    687.08022 
   70600    305.28652   -23226.411    116.48014   -23342.891    4459.5692 
   70800    297.29108     -23235.7    113.42953   -23349.129   -165.89707 
   71000    297.21397   -23252.929    113.40011   -23366.329   -1917.6061 
   71200    300.93731   -23226.074    114.82073   -23340.894   -8071.1663 
   71400     332.8093   -23222.812    126.98129   -23349.793   -355.29878 
   71600    299.39986   -23244.963    114.23413   -23359.197    1700.8452 
   71800    291.66654   -23253.608    111.28353   -23364.892   -458.28218 
   72000    277.51773   -23253.149    105.88514   -23359.034      4658.66 
   72200    290.88733   -23228.726    110.98622   -23339.712    1997.6574 
   72400    324.17904   -23232.104    123.68847   -23355.792   -1975.2314 
   72600    287.54973    -23248.34    109.71278   -23358.053    60.457876 
   72800    307.91554   -23236.867    117.48323   -23354.351    6767.9152 
   73000    264.30976   -23264.967    100.84572   -23365.813    11259.374 
   73200    296.90637   -23241.725    113.28275   -23355.008    1878.8142 
   73400    288.82762   -23238.414    110.20036   -23348.615   -6741.3897 
   73600    275.39102   -23252.703     105.0737   -23357.777   -3739.2731 
   73800    301.64549   -23230.601    115.09093   -23345.692    6634.6751 
   74000     298.5594   -23230.421    113.91345   -23344.334     6734.776 
   74200    261.04164   -23261.349    99.598791   -23360.948    787.53943 
   74400      291.293   -23264.221    111.14101   -23375.362   -662.83943 
   74600    332.15121   -23241.525     126.7302   -23368.255   -3221.5454 
   74800    291.75276   -23238.132    111.31642   -23349.449   -1735.2519 
   75000    269.63053   -23257.292    102.87583   -23360.167    5393.1171 
   75200    309.64538   -23226.314    118.14324   -23344.457    2813.5604 
   75400    305.93858   -23237.295    116.72893   -23354.024   -1461.8137 
   75600    279.27282   -23262.232    106.55478   -23368.787   -4087.4595 
   75800    282.43031   -23240.366     107.7595   -23348.126    -5896.764 
   76000    311.81449   -23232.843    118.97085   -23351.814     1963.033 
   76200    286.05534   -23248.341    109.14261   -23357.483    723.04046 
   76400    299.20169   -23265.046    114.15852   -23379.205   -6281.0992 
   76600    327.59897   -23233.064    124.99332   -23358.057    816.19551 
   76800    291.99875   -23240.848    111.41028   -23352.258    366.63138 
   77000    296.88789   -23229.983     113.2757   -23343.259    4585.5109 
   77200     298.0399   -23231.959    113.71524   -23345.674    6507.0553 
   77400     290.7948    -23240.55    110.95092   -23351.501    -6333.083 
   77600    291.90006   -23243.735    111.37263   -23355.108    981.40989 
   77800    273.05091   -23252.283    104.18085   -23356.464    1662.6403 
   78000    328.23272   -23226.923    125.23512   -23352.158    5115.7282 
   78200    290.82965     -23245.6    110.96422   -23356.564    3444.9694 
   78400    289.83327   -23253.752    110.58405   -23364.336   -2192.1617 
   78600    309.50776   -23233.478    118.09073   -23351.569   -5325.0547 
   78800    341.77463   -23215.582    130.40195   -23345.984   -7436.3601 
   79000    338.69539   -23225.748    129.22709   -23354.976    661.12334 
   79200    300.62617   -23237.783    114.70202   -23352.485    8257.6748 
   79400    283.52382   -23252.632    108.17672   -23360.809    49.036717 
   79600    297.74759   -23233.278    113.60371   -23346.882   -5480.1757 
   79800    321.27642   -23217.248    122.58099   -23339.829   -3622.3818 
   80000    273.28306    -23251.09    104.26943    -23355.36   -2501.9128 
   80200    306.82527   -23236.284    117.06724   -23353.351    449.30792 
   80400    280.45161   -23231.744    107.00454   -23338.749    6543.3025 
   80600    278.48161   -23246.312     106.2529   -23352.565    2349.1561 
   80800    302.98082   -23244.242    115.60042   -23359.842   -2968.8978 
   81000    335.14043   -23224.404    127.87072   -23352.275    7789.0373 
   81200    304.47579   -23251.876    116.17081   -23368.047    1697.9694 
   81400    305.82839   -23251.939    116.68689   -23368.626    -876.1807 
   81600    329.48366   -23221.178    125.71241   -23346.891   -2546.4123 
   81800    303.32123   -23233.857     115.7303   -23349.588   -4047.5898 
   82000    309.04032   -23242.156    117.91238   -23360.068   -9004.6151 
   82200    295.54184    -23238.98    112.76212   -23351.742   -2645.4562 
   82400    278.16423   -23236.781    106.13181   -23342.913   -3412.3739 
   82600     313.7165    -23227.52    119.69655   -23347.217   -413.59514 
   82800    340.80109   -23237.482     130.0305   -23367.513    138.83544 
   83000    302.95888   -23249.522    115.59205   -23365.114   -876.74207 
   83200    295.33858   -23227.929    112.68457   -23340.614   -3917.8532 
   83400     255.4058   -23258.333    97.448471   -23355.782     7912.896 
   83600    307.60777   -23237.705     117.3658   -23355.071    4606.8253 
   83800    325.85378   -23225.384    124.32745   -23349.711    5267.8215 
   84000    272.86319   -23258.782    104.10923   -23362.891    2200.6987 
   84200    255.83719    -23245.35    97.613063   -23342.963    3779.3191 
   84400    319.94694   -23231.161    122.07373   -23353.235    6447.7794 
   84600    262.59649    -23260.07    100.19203   -23360.262   -635.84099 
   84800    319.12141   -23245.612    121.75876    -23367.37   -219.26929 
   85000    302.65396   -23237.678    115.47571   -23353.154    3533.3474 
   85200    280.71876   -23262.003    107.10647    -23369.11    3850.5802 
   85400    280.89604   -23248.706    107.17411    -23355.88    7205.2824 
   85600    312.06004   -23237.757    119.06454   -23356.821    1557.5491 
   85800    320.10846    -23230.09    122.13536   -23352.225   -2344.4188 
   86000    274.37174   -23250.922    104.68481   -23355.607    1989.9267 
   86200    302.75332   -23237.762    115.51362   -23353.275   -227.68726 
   86400    283.69705    -23247.74    108.24282   -23355.982   -1092.0439 
   86600    332.38159   -23237.834     126.8181   -23364.652    529.83603 
   86800    331.47534   -23218.425    126.47232   -23344.897    996.53264 
   87000     320.5964   -23241.076    122.32153   -23363.398    2145.5237 
   87200    308.77626   -23238.615    117.81163   -23356.427    9317.9127 
   87400    337.53552   -23209.021    128.78455   -23337.805     -1414.51 
   87600     298.6496   -23238.046    113.94787   -23351.994   -749.70588 
   87800    309.62792   -23243.899    118.13658   -23362.035   -7879.5653 
   88000    291.48703   -23240.118    111.21503   -23351.333   -4945.7033 
   88200    310.98322   -23229.905    118.65368   -23348.559    146.86806 
   88400     286.7129   -23250.814     109.3935   -23360.208    841.86144 
   88600    297.71058   -23239.297    113.58959   -23352.886    -27.10742 
   88800     292.0324   -23233.919    111.42312   -23345.342    1934.8796 
   89000    325.59986   -23204.531    124.23057   -23328.761   -861.56873 
   89200    324.55628   -23234.149     123.8324   -23357.981    4557.7806 
   89400    283.29235   -23252.505    108.08841   -23360.594    4187.4834 
   89600    311.56723   -23235.593    118.87651   -23354.469   -910.71824 
   89800    298.91085   -23236.296    114.04755   -23350.344    3257.1164 
   90000    277.72143   -23252.437    105.96286     -23358.4     -3504.06 
   90200    367.90152    -23218.63     140.3705       -23359   -3468.7185 
   90400    308.76311   -23221.506    117.80661   -23339.312    -7927.084 
   90600    300.47815   -23242.076    114.64554   -23356.722    3370.7157 
   90800    307.80288   -23242.682    117.44024   -23360.122   -1919.9447 
   91000    312.80871   -23222.952    119.35019   -23342.302   -3733.2672 
   91200    278.03555   -23247.313    106.08271   -23353.396    1258.2098 
   91400    287.27522   -23239.539    109.60805   -23349.147   -2978.7909 
   91600    326.76478   -23210.318    124.67504   -23334.993    1094.7454 
   91800    308.80225   -23238.261    117.82155   -23356.083    458.62055 
   92000    305.18323   -23241.201    116.44074   -23357.641   -1235.3627 
   92200    321.17177   -23221.833    122.54106   -23344.374    6691.2769 
   92400    315.00811   -23222.849    120.18936   -23343.038     1105.589 
   92600    251.60893   -23250.343    95.999797   -23346.343    4086.5381 
   92800    330.79088   -23230.316    126.21117   -23356.527    193.45859 
   93000    292.28813   -23240.148    111.52069   -23351.668    -3681.384 
   93200    301.27531   -23242.141    114.94969   -23357.091   -1094.2506 
   93400    326.44576   -23227.844    124.55332   -23352.398   -197.39037 
   93600    280.59858   -23253.512    107.06062   -23360.572    4689.5716 
   93800     301.1304   -23240.388     114.8944   -23355.283   -771.32388 
   94000    305.95577   -23230.607    116.73549   -23347.342   -5074.0848 
   94200    266.03704   -23249.148    101.50475   -23350.653   -11827.217 
   94400    306.06717   -23226.789      116.778   -23343.567   -1486.2843 
   94600    296.11711   -23244.373    112.98162   -23357.354   -1169.3438 
   94800    318.05646   -23245.454    121.35243   -23366.807    8462.0172 
   95000    319.00403   -23223.785    121.71397   -23345.499    3483.4263 
   95200    311.10581   -23234.563    118.70046   -23353.263    855.84751 
   95400    300.04548   -23252.398    114.48046   -23366.879   -4075.0462 
   95600    327.31187   -23224.024    124.88378   -23348.908    997.76892 
   95800    289.07797    -23244.24    110.29588   -23354.536   -3249.6955 
   96000    328.50075   -23234.604    125.33739   -23359.941      2741.83 
   96200    318.00825   -23222.362    121.33404   -23343.696   -426.67478 
   96400    283.84066   -23254.563    108.29761   -23362.861    8558.7372 
   96600    287.35366   -23239.313    109.63798   -23348.951    2352.9966 
   96800    375.74437   -23223.343    143.36289   -23366.706    4824.9155 
   97000    286.10541   -23242.811    109.16171   -23351.972    3126.5856 
   97200    291.25485   -23234.188    111.12645   -23345.314    3029.6864 
   97400    265.68883   -23260.348     101.3719    -23361.72    8480.6383 
   97600    352.30046   -23234.728    134.41802   -23369.146   -3973.5144 
   97800    310.83586   -23238.994    118.59746   -23357.591    1985.5245 
   98000    286.17559   -23257.072    109.18849    -23366.26   -1872.8284 
   98200    313.92784   -23234.205    119.77718   -23353.983   -4560.9011 
   98400    267.11228   -23240.324    101.91501   -23342.239   -10367.208 
   98600    263.05708   -23265.652    100.36777   -23366.019    -1477.288 
   98800    323.66069   -23245.833    123.49069   -23369.323   -5614.0339 
   99000    271.91967   -23234.145    103.74923   -23337.894   -2359.8612 
   99200    290.09788   -23222.997    110.68501   -23333.682    2912.7999 
   99400    278.12722   -23250.184    106.11768   -23356.302    2003.2658 
   99600    291.64201   -23244.537    111.27417   -23355.811   -987.69855 
   99800    310.67224    -23227.05    118.53503   -23345.585    361.38743 
  100000    336.37623   -23221.791    128.34223   -23350.133   -2951.2461 
  100200    304.05595   -23249.122    116.01063   -23365.133    -5569.132 
  100400    296.98686   -23232.432    113.31346   -23345.745      -69.124 
  100600    302.88318    -23215.49    115.56316   -23331.053   -6952.8804 
  100800    324.82427    -23234.66    123.93465   -23358.595   -4052.2444 
  101000    299.07573    -23239.97    114.11046    -23354.08   -1285.6806 
  101200    322.02255   -23234.297    122.86567   -23357.163   -3875.6586 
  101400    280.62093   -23250.791    107.06914    -23357.86   -3110.5078 
  101600     302.6969   -23233.566    115.49209   -23349.058    -1634.512 
  101800    316.25114    -23230.55    120.66362   -23351.214   -4690.0422 
  102000    287.71701   -23257.861    109.77661   -23367.637    6309.9423 
  102200    327.79304    -23233.84    125.06736   -23358.907     6375.682 
  102400    317.99202   -23233.957    121.32785   -23355.285   -460.29484 
  102600    279.56047   -23265.465    106.66453   -23372.129    588.28172 
  102800    273.43609   -23247.442    104.32781    -23351.77    2405.3598 
  103000    314.98396   -23229.534    120.18014   -23349.714   -7998.7592 
  103200    258.39004   -23257.079     98.58709   -23355.666   -4252.9829 
  103400    287.02188    -23248.63    109.51138   -23358.142   -1771.5754 
  103600    281.91314   -23237.459    107.56218   -23345.021    5534.6941 
  103800    259.41787   -23266.525    98.979251   -23365.504    7860.4022 
  104000    294.58427   -23256.284    112.39677   -23368.681    4759.2814 
  104200    305.62451   -23237.923     116.6091   -23354.532    7160.9373 
  104400    327.50565   -23225.447    124.95771   -23350.405    1133.2358 
  104600    310.79313   -23240.041    118.58116   -23358.622   -4888.8245 
  104800    274.63774   -23253.312    104.78629   -23358.098    5496.5446 
  105000    305.53697   -23222.291     116.5757   -23338.867    8029.2352 
  105200    298.34082   -23243.781    113.83006   -23357.611    148.32545 
  105400    333.73339   -23233.155    127.33387   -23360.489   -7499.9803 
  105600    320.30241   -23220.231    122.20936   -23342.441    1789.7654 
  105800    303.67667   -23242.667    115.86591   -23358.533   -656.38819 
  106000    319.99857   -23228.629    122.09343   -23350.723    586.91414 
  106200    333.06771   -23213.355    127.07988   -23340.435    8430.2151 
  106400    301.73595   -23242.458    115.12545   -23357.584    732.34273 
  106600    274.60694   -23247.233    104.77455   -23352.008    995.83273 
  106800    335.55947   -23213.862     128.0306   -23341.893   -1167.7111 
  107000    295.99222   -23229.509    112.93396   -23342.443    5670.5385 
  107200    289.38426   -23248.239    110.41274   -23358.651    1920.0467 
  107400     296.2458   -23237.332    113.03071   -23350.363    3851.5248 
  107600    310.65124   -23234.171    118.52702   -23352.698   -5814.5689 
  107800    312.49889   -23234.438    119.23198    -23353.67   -123.04484 
  108000    309.77828   -23232.856    118.19395    -23351.05     1711.999 
  108200    315.49324   -23243.781    120.37445   -23364.155   -4166.0894 
  108400    284.18203   -23261.561    108.42786   -23369.989   -6903.8577 
  108600    300.89252   -23242.575    114.80364   -23357.379   -1551.2364 
  108800    304.74227   -23236.895    116.27249   -23353.167    1534.7828 
  109000    263.87201   -23264.696     100.6787   -23365.375    2805.8646 
  109200    303.88506   -23247.537    115.94542   -23363.482    3768.6195 
  109400    305.41772    -23231.89     116.5302    -23348.42    605.05147 
  109600     307.0723   -23226.877     117.1615   -23344.038    3416.6597 
  109800    287.60551    -23249.26    109.73407   -23358.994   -44.264382 
  110000    271.85564   -23260.844     103.7248   -23364.569    1305.8785 
  110200    282.01691   -23238.524    107.60177   -23346.125    3275.1326 
  110400    293.83497   -23242.257    112.11088   -23354.368   -823.57662 
  110600    309.52444   -23224.048    118.09709   -23342.145    4184.9425 
  110800    304.17121   -23233.837     116.0546   -23349.892    5734.8677 
  111000    297.99638   -23239.267    113.69864   -23352.966    8596.9917 
  111200    340.50321   -23205.013    129.91685    -23334.93   -2516.4183 
  111400    334.42427   -23220.544    127.59747   -23348.142    -5589.745 
  111600      285.132   -23245.765    108.79031   -23354.556   -1749.7999 
  111800    314.31926   -23238.799    119.92653   -23358.726   -3631.4856 
  112000    300.14941    -23228.81    114.52011    -23343.33    4649.1442 
  112200      288.529   -23252.346    110.08642   -23362.433    1140.4846 
  112400    294.74258   -23242.393    112.45717    -23354.85    1483.8275 
  112600    335.07499     -23227.6    127.84575   -23355.446    4379.0005 
  112800    270.97427   -23242.432    103.38852    -23345.82    317.62496 
  113000    312.47197   -23226.207    119.22171   -23345.428    4545.1798 
  113200    294.22732    -23244.39    112.26058    -23356.65   -1451.6566 
  113400    296.77746    -23248.17    113.23357   -23361.404   -1241.7477 
  113600    329.45732   -23225.125    125.70236   -23350.828    6703.1825 
  113800    285.46649   -23227.589    108.91794   -23336.507    315.88289 
  114000     305.6247   -23243.987    116.60917   -23360.596     2002.972 
  114200    328.70352   -23216.053    125.41475   -23341.468   -4534.9073 
  114400    284.04644   -23225.231    108.37613   -23333.607   -532.35071 
  114600    314.61991   -23239.209    120.04124   -23359.251    2748.8151 
  114800    286.88426   -23247.293    109.45888   -23356.752    4013.4625 
  115000    293.14367   -23256.509    111.84712   -23368.356   -349.44517 
  115200    321.60479   -23230.895    122.70628   -23353.601    2576.7839 
  115400    306.06366   -23244.095    116.77666   -23360.872   -1498.0102 
  115600    259.44065   -23265.526    98.987943   -23364.514    2065.8462 
  115800    289.75254   -23228.532    110.55325   -23339.086    7980.3555 
  116000    341.93138   -23217.389    130.46176   -23347.851    3414.3919 
  116200    285.52678   -23248.105    108.94094   -23357.046    2884.5358 
  116400    303.27896   -23231.277    115.71417   -23346.992    102.69401 
  116600    274.77748   -23256.385    104.83961   -23361.224    -4063.501 
  116800    298.04306   -23246.032    113.71645   -23359.749   -2133.7464 
  117000    327.12423   -23229.364    124.81219   -23354.176   -4309.2543 
  117200    275.36321   -23257.076     105.0631   -23362.139   -3729.2938 
  117400    306.44684   -23246.584    116.92286   -23363.506      -1673.7 
  117600    311.83103   -23232.244    118.97716   -23351.221    1178.4064 
  117800    271.32636   -23252.246    103.52286   -23355.769   -2723.0649 
  118000     288.4525   -23252.265    110.05723   -23362.322    5805.2968 
  118200    297.11214   -23234.814    113.36126   -23348.175   -995.16563 
  118400    343.84845   -23227.225     131.1932   -23358.418    4428.0677 
  118600     277.4823   -23253.354    105.87162   -23359.225     9289.683 
  118800    301.70916   -23227.261    115.11523   -23342.376   -540.71881 
  119000    284.60895   -23242.932    108.59075   -23351.523    274.55596 
  119200    280.05657   -23240.201    106.85382   -23347.055     2202.463 
  119400    313.63435   -23230.921    119.66521   -23350.587   -731.33261 
  119600    289.00582   -23253.421    110.26835   -23363.689    2200.0021 
  119800    319.81117   -23228.011    122.02193   -23350.033    3138.6478 
  120000    322.78594   -23232.331    123.15694   -23355.488   -3068.9479 
  120200    281.52334   -23249.431    107.41345   -23356.844    705.50395 
  120400    326.85141   -23223.903    124.70809   -23348.611    3922.2513 
  120600    269.23096   -23244.816    102.72337   -23347.539     2857.517 
  120800    322.06185    -23233.25    122.88066   -23356.131    4551.4526 
  121000    320.20624   -23237.487    122.17267    -23359.66   -3731.1147 
  121200    332.74599   -23238.123    126.95713    -23365.08   -4806.3172 
  121400    279.10474   -23253.413    106.49065   -23359.903   -1968.8761 
  121600    333.88656   -23223.772    127.39231   -23351.165   -8384.4116 
  121800     294.9985    -23241.44    112.55482   -23353.995      2629.57 
  122000    268.75572   -23247.455    102.54205   -23349.997    4023.9084 
  122200    337.99122   -23210.703    128.95842   -23339.662    8629.3157 
  122400    305.87462   -23233.654    116.70453   -23350.359   -6239.9701 
  122600    285.87391   -23250.459    109.07339   -23359.532   -2176.3473 
  122800    240.43973   -23270.418    91.738261   -23362.156    9933.6737 
  123000    322.99461   -23236.391    123.23655   -23359.627    2143.2612 
  123200    356.33815   -23228.099    135.95857   -23364.057    15.299858 
  123400    281.76356   -23255.372    107.50511   -23362.877   -872.03315 
  123600    297.14097   -23245.405    113.37226   -23358.777   -1183.2265 
  123800    272.90574   -23244.123    104.12546   -23348.248    773.40361 
  124000     328.0804   -23220.104    125.17701   -23345.281    1370.4823 
  124200    316.69592    -23229.58    120.83333   -23350.414   -522.47918 
  124400    304.62612   -23240.287    116.22817   -23356.516   -2588.4127 
  124600    267.71752   -23250.369    102.14593   -23352.515     2700.658 
  124800    294.81441   -23223.233    112.48458   -23335.718   -3487.9008 
  125000    282.03076   -23246.718    107.60706   -23354.325   -4336.4561 
  125200     284.7074   -23239.858    108.62831   -23348.487    1821.3285 
  125400    318.86113   -23219.335    121.65945   -23340.994    2333.5589 
  125600    284.24447   -23240.484    108.45168   -23348.936    -1104.632 
  125800    307.21063   -23255.036    117.21428    -23372.25   -303.02037 
  126000     266.3768   -23256.777    101.63439   -23358.412    7882.0664 
  126200    295.37787   -23232.933    112.69956   -23345.633    7691.4241 
  126400    333.23962   -23226.772    127.14547   -23353.918      394.023 
  126600    291.95424   -23256.469     111.3933   -23367.862   -4733.1133 
  126800    301.94774   -23234.268    115.20625   -23349.474   -5688.6952 
  127000     305.3056   -23237.025    116.48742   -23353.513   -9037.5067 
  127200    281.71617   -23257.935    107.48703   -23365.422    7251.5933 
  127400    250.62581   -23264.891    95.624696   -23360.516    10566.522 
  127600    259.04005   -23242.822    98.835095   -23341.658    3584.9238 
  127800    302.54938   -23222.657    115.43581   -23338.093   -367.68155 
  128000    264.10697   -23254.386    100.76835   -23355.154   -9767.8831 
  128200    302.73272   -23240.244    115.50576    -23355.75   -3539.4735 
  128400    312.10933   -23235.962    119.08334   -23355.045   -369.55319 
  128600     273.2886   -23257.921    104.27154   -23362.193     5222.753 
  128800    297.03332   -23234.244    113.33119   -23347.575   -1384.6182 
  129000    266.91456   -23246.093    101.83957   -23347.932   -4896.4369 
  129200     300.4868   -23240.486    114.64884   -23355.135   -245.15798 
  129400    340.52051    -23223.11    129.92345   -23353.034    -2151.903 
  129600    275.30376   -23244.909    105.04041   -23349.949   -6466.6735 
  129800     268.3749   -23253.295    102.39675   -23355.692    176.31511 
  130000    300.24355   -23237.883    114.55603   -23352.439   -2384.5069 
  130200    304.94061    -23234.25    116.34816   -23350.598    3319.3503 
  130400    284.23819   -23260.993    108.44928   -23369.442    2029.4075 
  130600      277.056   -23252.742    105.70897   -23358.451   -238.65468 
  130800    306.89282   -23234.475    117.09302   -23351.568    -395.2124 
  131000     317.2249   -23227.793    121.03516   -23348.828   -252.99781 
  131200      294.839    -23248.02    112.49396   -23360.514    -2315.933 
  131400    334.86329   -23231.728    127.76497   -23359.493   -1654.7704 
  131600    265.81354   -23255.543    101.41948   -23356.963    -2840.268 
  131800    309.44875   -23248.768    118.06822   -23366.836    4197.5809 
  132000    319.06836   -23233.398    121.73852   -23355.137   -8899.9267 
  132200    261.25233   -23253.595    99.679177   -23353.274    -4939.955 
  132400    311.78093   -23234.522    118.95804    -23353.48   -2066.9551 
  132600    302.46686   -23235.345    115.40432    -23350.75   -135.79183 
  132800    308.93152   -23243.619    117.87087    -23361.49   -1312.2251 
  133000    293.89051   -23253.633    112.13207   -23365.765    279.54292 
  133200     290.8512   -23227.216    110.97244   -23338.188   -936.66336 
  133400    283.11274    -23242.08    108.01988     -23350.1    -266.5041 
  133600    273.70758   -23259.525     104.4314   -23363.956    3183.3951 
  133800    313.42813   -23241.051    119.58652   -23360.637   -8469.8724 
  134000     288.0854   -23237.723    109.91716    -23347.64   -6729.7887 
  134200    331.02308   -23219.663    126.29977   -23345.963   -5276.4333 
  134400    274.56728   -23242.407    104.75941   -23347.166   -559.38752 
  134600    285.32005   -23244.229    108.86207   -23353.091   -4907.0298 
  134800    319.53306   -23232.709    121.91582   -23354.625   -3347.9617 
  135000    289.85783   -23245.215    110.59343   -23355.808    3803.9885 
  135200    288.08904    -23254.74    109.91855   -23364.659   -8713.6466 
  135400    307.78977   -23226.254    117.43524    -23343.69    1657.2387 
  135600    316.83474   -23241.287    120.88629   -23362.173   -2474.7191 
  135800     275.7615   -23246.901    105.21506   -23352.116   -1453.5254 
  136000    283.25301   -23232.055     108.0734   -23340.129   -777.37843 
  136200    318.92598   -23195.594    121.68419   -23317.278   -2759.2147 
  136400     306.3092   -23228.329    116.87034   -23345.199   -2617.8572 
  136600    274.80097   -23249.488    104.84857   -23354.337    113.24966 
  136800    300.09312   -23245.967    114.49863   -23360.465    2434.2519 
  137000      324.378   -23216.743    123.76438   -23340.508    4441.2317 
  137200    290.37637   -23240.056    110.79127   -23350.847   -1256.4238 
  137400    307.81166   -23237.863    117.44359   -23355.306    2485.9694 
  137600    317.97092   -23237.137     121.3198   -23358.457   -4039.7938 
  137800    315.39389   -23242.469    120.33655   -23362.806    343.16281 
  138000    345.85682   -23219.937    131.95949   -23351.897    846.17896 
  138200    294.64489   -23247.511     112.4199   -23359.931    1564.0788 
  138400    302.56568   -23237.951    115.44202   -23353.393    1693.1446 
  138600    308.07837   -23218.177    117.54536   -23335.722    1462.1264 
  138800    304.09474   -23237.863    116.02543   -23353.889    1335.4545 
  139000    299.09493   -23244.311    114.11778   -23358.429   -263.96438 
  139200     309.7642   -23216.909    118.18858   -23335.097    -1996.132 
  139400    262.76615   -23243.039    100.25676   -23343.296   -3841.5975 
  139600    290.02961   -23244.609    110.65897   -23355.268   -5859.4791 
  139800    312.49432   -23233.302    119.23024   -23352.533   -4940.3958 
  140000    309.73682    -23222.18    118.17813   -23340.358   -311.13071 
  140200    318.76804   -23248.091    121.62393   -23369.715    82.691929 
  140400    302.00789    -23251.71    115.22921   -23366.939    1601.5788 
  140600    297.27973   -23231.597     113.4252   -23345.023     2250.391 
  140800    290.15878   -23238.378    110.70825   -23349.086   -1995.4969 
  141000    286.22972   -23245.506    109.20914   -23354.715   -8972.9373 
  141200    296.50234    -23238.59     113.1286   -23351.718   -4928.2556 
  141400    332.46898   -23215.944    126.85144   -23342.796   -11931.356 
  141600     297.4749   -23252.116    113.49967   -23365.616    -4284.733 
  141800     314.9581   -23235.826    120.17028   -23355.996    7130.8775 
  142000    271.28279   -23236.004    103.50624    -23339.51    3696.8113 
  142200    306.74383     -23254.3    117.03617   -23371.336    7640.9642 
  142400    333.05156   -23229.036    127.07372    -23356.11    788.71317 
  142600    288.14617   -23232.151    109.94035   -23342.091      146.997 
  142800    289.12858   -23248.135    110.31518    -23358.45   -4433.8799 
  143000     310.5439   -23218.519    118.48606   -23337.005    2481.4124 
  143200    298.87989   -23245.338    114.03574   -23359.374   -1667.2287 
  143400    266.80346   -23241.731    101.79717   -23343.528    -4420.493 
  143600    292.62166   -23239.686    111.64795   -23351.334    3902.6996 
  143800    316.52322   -23232.923    120.76744    -23353.69    3782.3101 
  144000    288.14538    -23252.23    109.94005    -23362.17    4116.8461 
  144200    320.89998    -23240.84    122.43736   -23363.278   -4869.3134 
  144400    286.93846   -23238.667    109.47956   -23348.147    -2552.566 
  144600    314.70674   -23225.325    120.07437     -23345.4   -4455.0739 
  144800    300.19113   -23248.996    114.53603   -23363.532   -1397.7527 
  145000    286.30534   -23244.619    109.23799   -23353.857    -4628.094 
  145200    335.06816    -23224.84    127.84314   -23352.683   -1363.8245 
  145400    276.17914   -23249.269    105.37441   -23354.643   -1660.2153 
  145600    299.72598   -23243.235    114.35856   -23357.594    781.15669 
  145800    309.48679   -23233.809    118.08273   -23351.891   -9932.2698 
  146000    277.11774   -23241.789    105.73253   -23347.522   -229.04572 
  146200    281.92681   -23243.279    107.56739   -23350.847    183.01601 
  146400    294.43988   -23229.912    112.34168   -23342.253   -1186.2241 
  146600    308.06501   -23229.819    117.54026   -23347.359   -2186.3697 
  146800    260.36046    -23254.78    99.338891   -23354.119   -7266.9963 
  147000    288.98427   -23236.628    110.26012   -23346.888   -4114.5915 
  147200    293.16866   -23238.452    111.85665   -23350.308   -2389.4513 
  147400    272.67778   -23262.935    104.03849   -23366.974    2866.4793 
  147600    310.96204   -23231.417     118.6456   -23350.063     5100.769 
  147800    324.58194   -23239.773    123.84219   -23363.615    -3500.519 
  148000    307.41214   -23247.857    117.29116   -23365.148   -2104.5411 
  148200    318.50752   -23224.803    121.52453   -23346.327    152.84004 
  148400    288.85777   -23239.938    110.21186    -23350.15    404.67431 
  148600     284.0801   -23246.379    108.38897   -23354.768    7386.2261 
  148800    303.63903   -23233.497    115.85156   -23349.349    2538.8739 
  149000     279.7594   -23255.779    106.74043    -23362.52   -3660.7503 
  149200    325.52342   -23225.257     124.2014   -23349.458   -11468.147 
  149400    281.68204   -23235.351      107.474   -23342.825   -8302.9558 
  149600    249.30515   -23252.012    95.120807   -23347.133   -3794.4647 
  149800    288.71049   -23250.449    110.15566   -23360.605    4817.5442 
  150000    346.18833   -23228.945    132.08597   -23361.031    1164.4123 
  150200    294.97336   -23256.659    112.54522   -23369.204    -908.9179 
  150400    290.26274   -23241.466    110.74792   -23352.214    10.238409 
  150600    269.32062   -23240.208    102.75758   -23342.966    3210.9038 
  150800    316.72172   -23229.963    120.84317   -23350.806    3528.5435 
  151000    267.32219   -23237.598    101.99509   -23339.593   -2180.3295 
  151200    244.75029   -23256.995    93.382929   -23350.378   -1512.9428 
  151400    296.89019   -23237.129    113.27658   -23350.405   -1688.3057 
  151600     317.0658   -23233.671    120.97445   -23354.645    1590.5983 
  151800      330.726   -23242.943    126.18642    -23369.13    4692.2558 
  152000    263.23514    -23259.07    100.43571   -23359.506   -3715.5822 
  152200    291.90982   -23230.086    111.37635   -23341.462   -6715.9864 
  152400    296.70613   -23230.394    113.20635     -23343.6   -5141.3605 
  152600    263.25757   -23259.083    100.44426   -23359.528   -2586.8945 
  152800    308.04357   -23244.523    117.53208   -23362.055   -435.99661 
  153000    276.12306    -23245.87    105.35301   -23351.223   -1084.2121 
  153200    316.59509   -23215.503    120.79486   -23336.298    1322.1858 
  153400    316.49074    -23239.58    120.75504   -23360.335   -3032.1436 
  153600    285.31999    -23254.24    108.86204   -23363.102    15.322593 
  153800    291.93797   -23240.616    111.38709   -23352.003    -4192.688 
  154000     271.1821   -23233.627    103.46782   -23337.095    329.20108 
  154200    295.67241   -23258.893    112.81194   -23371.705   -1366.2947 
  154400    295.01137   -23250.822    112.55973   -23363.382   -6425.6652 
  154600    310.37844   -23232.736    118.42293   -23351.159    2191.7676 
  154800    299.35373   -23241.866    114.21653   -23356.083   -7684.3757 
  155000    248.19688   -23254.883    94.697954   -23349.581   -2700.0442 
  155200     274.6146   -23238.611    104.77747   -23343.389    509.43346 
  155400    276.16066   -23234.348    105.36736   -23339.715   -2801.1809 
  155600    280.84804   -23261.141     107.1558   -23368.297    372.27682 
  155800    281.36266   -23244.618    107.35215    -23351.97   -235.00721 
  156000    332.76492   -23227.651    126.96436   -23354.615   -395.07873 
  156200    278.37352   -23247.311    106.21166   -23353.523   -2033.1963 
  156400    349.75036   -23215.468    133.44504   -23348.913    4744.0274 
  156600    343.89988   -23224.969    131.21283   -23356.182    5489.2557 
  156800    311.02998   -23245.696    118.67152   -23364.368   -3590.2738 
  157000    298.13988   -23236.775    113.75339   -23350.528   -1342.4422 
  157200     280.5943   -23244.901    107.05899    -23351.96    -7055.801 
  157400    305.83416   -23234.598    116.68909   -23351.287    13.143192 
  157600    321.08622   -23215.107    122.50842   -23337.616   -1184.7917 
  157800    265.01323    -23248.79    101.11412   -23349.904   -5480.3429 
  158000    278.62216   -23238.938    106.30653   -23345.245    -5452.976 
  158200    287.75462   -23224.024    109.79096   -23333.815    2947.3632 
  158400    285.70467   -23235.684    109.00881   -23344.693    4887.7651 
  158600    280.29778   -23248.008    106.94585   -23354.954    7156.0805 
  158800    291.01185   -23245.501    111.03373   -23356.534    7919.1331 
  159000     326.4233   -23223.489    124.54475   -23348.034    3002.9192 
  159200    273.30471   -23254.294    104.27769   -23358.572    5630.1783 
  159400    298.91813    -23244.57    114.05032    -23358.62    4542.4136 
  159600    306.33285   -23237.456    116.87936   -23354.335   -5716.1317 
  159800    356.00075   -23208.059    135.82984   -23343.889   -2603.3354 
  160000     325.5959   -23235.619    124.22906   -23359.848    937.91551 
  160200    291.86788   -23242.654    111.36035   -23354.015    3754.5462 
  160400    320.62817   -23220.006    122.33365    -23342.34    2007.2208 
  160600    295.45178   -23230.593    112.72776   -23343.321     7992.799 
  160800    290.76091   -23246.566    110.93799   -23357.504    1286.5304 
  161000    331.95399   -23227.156    126.65495   -23353.811   -3571.7929 
  161200    287.11052   -23236.616    109.54521   -23346.161   -6068.6171 
  161400    291.98752   -23244.366      111.406   -23355.772    2470.1754 
  161600    314.37575   -23235.445    119.94808   -23355.393    5058.0084 
  161800    309.92204   -23232.544     118.2488   -23350.793    7137.4833 
  162000    261.47941   -23247.581    99.765817   -23347.347    8708.5513 
  162200    319.61759   -23229.735    121.94807   -23351.683    9492.6302 
  162400    304.17603   -23243.763    116.05644   -23359.819    1417.7775 
  162600    285.66601   -23246.156    108.99406    -23355.15    185.81364 
  162800     328.5307   -23223.317    125.34881   -23348.665    2651.2544 
  163000    265.88681   -23247.063    101.44743   -23348.511   -2128.9069 
  163200    270.49928    -23240.16    103.20729   -23343.367     2023.355 
  163400     336.7465   -23228.101     128.4835   -23356.585    3389.8742 
  163600    297.08592   -23233.785    113.35126   -23347.136   -5839.7771 
  163800    340.12784   -23243.893    129.77363   -23373.667   -7778.2769 
  164000    258.18899   -23268.051    98.510379   -23366.561   -1958.7751 
  164200    278.55621   -23248.366    106.28136   -23354.648     6483.442 
  164400    330.12931   -23224.673    125.95876   -23350.632   -2825.7321 
  164600    305.89113   -23239.927    116.71083   -23356.638   -5414.9239 
  164800     345.5699   -23237.432    131.85001   -23369.282    4734.1596 
  165000    306.30855   -23238.477    116.87009   -23355.347     3504.043 
  165200    317.87635   -23236.804    121.28372   -23358.088   -3465.3832 
  165400     249.7051   -23266.256    95.273404   -23361.529    391.46963 
  165600    273.62577   -23250.479    104.40019   -23354.879    3348.6102 
  165800    297.63653   -23235.768    113.56134   -23349.329   -3417.7681 
  166000    293.17876   -23250.706     111.8605   -23362.567    2646.5301 
  166200    303.58615   -23237.861    115.83138   -23353.692   -1373.1453 
  166400    283.36862   -23229.709    108.11751   -23337.827   -13411.151 
  166600    274.71662    -23243.26    104.81639   -23348.076   -5833.4766 
  166800    356.20808   -23205.392    135.90894   -23341.301    10373.135 
  167000    312.97752   -23247.772     119.4146   -23367.187   -1065.4094 
  167200    321.05482   -23240.737    122.49644   -23363.234   -5248.1835 
  167400    325.11959   -23227.965    124.04733   -23352.012   -8356.3172 
  167600    297.84797   -23250.124    113.64201   -23363.766   -2583.9672 
  167800    302.40566   -23249.823    115.38097   -23365.204    2478.9682 
  168000    312.24537   -23232.017    119.13525   -23351.152    -3144.261 
  168200    267.13601    -23243.63    101.92406   -23345.554   -3402.3539 
  168400    284.24203    -23258.55    108.45075       -23367   -5529.4952 
  168600    306.43967   -23233.572    116.92012   -23350.492   -65.359573 
  168800    297.77289   -23239.548    113.61337   -23353.162    8126.9729 
  169000    270.15222   -23242.955    103.07487   -23346.029    4416.1417 
  169200    309.07194   -23238.562    117.92445   -23356.487    3394.1434 
  169400    272.76576    -23248.81    104.07205   -23352.882   -1547.4716 
  169600    271.60149   -23239.249    103.62783   -23342.876   -5685.5499 
  169800    338.22237   -23229.499    129.04661   -23358.545   -6699.7352 
  170000    276.26735   -23252.125    105.40806   -23357.533   -367.39009 
  170200    316.24327   -23220.324    120.66062   -23340.985    7440.3477 
  170400    299.07961   -23233.107    114.11194   -23347.219    2271.8398 
  170600    325.93929   -23245.282    124.36008   -23369.642   -6388.8074 
  170800    307.32759   -23239.864     117.2589   -23357.123    -3244.022 
  171000    323.56635   -23223.451     123.4547   -23346.906   -1919.8286 
  171200    276.15123   -23245.715    105.36376   -23351.079    2006.8752 
  171400    273.58489   -23253.921    104.38459   -23358.305    1167.6088 
  171600    316.09923   -23226.656    120.60566   -23347.261    2594.2197 
  171800    322.26711   -23243.461    122.95898    -23366.42   -2357.2414 
  172000    320.93513   -23221.875    122.45077   -23344.326    424.46063 
  172200     305.0193   -23240.362    116.37819    -23356.74    1098.2654 
  172400    292.63672   -23239.209    111.65369   -23350.863   -5418.3096 
  172600    308.66356   -23226.417    117.76863   -23344.185   -2439.9715 
  172800    299.42919   -23248.296    114.24532   -23362.542    5362.4049 
  173000    317.69385   -23236.772    121.21408   -23357.986    156.27555 
  173200    313.96429   -23221.331    119.79109   -23341.122   -8110.5916 
  173400    255.45986   -23248.745    97.469097   -23346.214   -1717.3633 
  173600     308.9417   -23234.913    117.87476   -23352.787    1701.3646 
  173800    308.64517    -23210.11    117.76162   -23327.871   -7090.5404 
  174000    307.38407   -23237.014    117.28045   -23354.295    1627.6751 
  174200    304.81477   -23237.321    116.30015   -23353.622    -3284.052 
  174400     346.5704   -23215.462    132.23175   -23347.694   -7370.4517 
  174600    289.62407   -23248.453    110.50424   -23358.957   -7225.2137 
  174800    313.21645   -23232.626    119.50576   -23352.132    10824.269 
  175000    307.51072   -23228.064    117.32877   -23345.393     2316.897 
  175200    304.05795   -23245.016    116.01139   -23361.028   -4530.2089 
  175400    295.86005   -23242.556    112.88354   -23355.439   -895.82452 
  175600    312.29055   -23220.444    119.15249   -23339.596   -5441.3918 
  175800    287.48091   -23244.873    109.68653   -23354.559   -4428.9328 
  176000    296.66032   -23232.249    113.18887   -23345.438   -2106.7611 
  176200    271.04329   -23224.852    103.41486   -23328.267    2216.6047 
  176400    266.56975    -23246.67      101.708   -23348.378    3738.2191 
  176600     292.9109   -23236.337     111.7583   -23348.095    2054.6813 
  176800    312.54076   -23221.515    119.24795   -23340.763    611.52286 
  177000    256.08175   -23246.375    97.706375   -23344.082    271.60706 
  177200    297.94408   -23239.451    113.67868    -23353.13   -2732.6937 
  177400    271.04856   -23251.023    103.41687    -23354.44    1629.0986 
  177600    290.98421   -23239.166    111.02319    -23350.19   -3003.3237 
  177800    318.24934   -23222.253    121.42603   -23343.679   -4566.9431 
  178000    298.79289   -23241.344    114.00254   -23355.347    -1409.714 
[...]
  950000    284.97188   -23247.146    108.72922   -23355.876    -7663.632 
  950200    311.11726    -23226.85    118.70482   -23345.555   -738.28281 
  950400    301.81504   -23223.446    115.15562   -23338.601    1905.0525 
  950600    299.00378   -23248.759    114.08301   -23362.842    980.57866 
  950800    306.02455   -23226.356    116.76174   -23343.118    7088.7363 
  951000    271.53552   -23256.656    103.60266   -23360.259    1957.8213 
  951200     303.2374    -23247.64    115.69831   -23363.338    96.750822 
  951400    306.78053   -23229.104    117.05018   -23346.154   -782.63309 
  951600    280.65806   -23249.559    107.08331   -23356.642    2868.7735 
  951800    300.28015   -23244.049    114.56999   -23358.619    3260.2039 
  952000    292.35379   -23220.822    111.54574   -23332.368    5421.6216 
  952200    366.27385   -23200.464    139.74947   -23340.214    363.15602 
  952400    294.25833   -23235.888    112.27241   -23348.161   -5817.5484 
  952600    291.44117   -23256.553    111.19754   -23367.751    4873.5554 
  952800    326.15536   -23234.538    124.44252   -23358.981    3694.1105 
  953000    290.50499   -23239.947    110.84034   -23350.788    3258.2355 
  953200    275.23652   -23253.089    105.01476   -23358.104    2689.4148 
  953400    303.03268   -23235.657    115.62021   -23351.278   -1279.3657 
  953600    318.00257   -23221.299    121.33187   -23342.631    749.48292 
  953800    309.81597   -23247.828    118.20833   -23366.037   -6305.9802 
  954000    295.46187   -23249.065    112.73161   -23361.797   -6834.9145 
  954200    285.59298    -23236.34     108.9662   -23345.306    1934.2254 
  954400    315.93922   -23240.029    120.54462   -23360.573    2347.9607 
  954600    346.12652   -23215.463    132.06239   -23347.526    2472.5413 
  954800    324.60612   -23237.065    123.85142   -23360.916    3954.7762 
  955000    281.14802   -23240.773    107.27025   -23348.043    2932.3297 
  955200    325.92305   -23212.284    124.35388   -23336.638    6691.1989 
  955400     304.0309   -23236.096    116.00107   -23352.097    -137.3273 
  955600    284.33106   -23244.971    108.48472   -23353.456    -6413.578 
  955800    267.83142   -23265.529    102.18939   -23367.718   -458.17819 
  956000    294.36999   -23243.552    112.31501   -23355.867   -5960.1063 
  956200    309.45584   -23230.385    118.07092   -23348.456   -7499.6051 
  956400    304.92823   -23235.029    116.34344   -23351.373   -1219.4638 
  956600     270.8014   -23253.677    103.32256       -23357     -996.155 
  956800    308.98374   -23235.054     117.8908   -23352.944     7222.773 
  957000    341.31567   -23226.204    130.22684   -23356.431   -13222.387 
  957200    291.51482   -23247.546    111.22564   -23358.772   -2404.8853 
  957400    299.81867   -23245.358    114.39392   -23359.751      4895.69 
  957600    334.82659   -23226.215    127.75097   -23353.966    1520.1238 
  957800    317.34479   -23227.852     121.0809   -23348.933   -310.13358 
  958000    309.07747   -23242.379    117.92656   -23360.306   -3464.0759 
  958200    282.77487   -23243.183    107.89097   -23351.074    938.37429 
  958400    289.99375   -23241.249    110.64529   -23351.894    533.42901 
  958600    290.83255   -23236.775    110.96532    -23347.74    3045.0433 
  958800    295.95199   -23248.913    112.91861   -23361.831    4574.3828 
  959000    300.27416   -23249.723    114.56771    -23364.29    964.88747 
  959200    304.12583   -23228.109    116.03729   -23344.146   -7874.5765 
  959400    268.70819   -23248.253    102.52391   -23350.777   -6552.1263 
  959600     279.5866   -23263.411     106.6745   -23370.085   -2535.1488 
  959800    305.54361   -23241.871    116.57824   -23358.449    2921.2809 
  960000    317.35691     -23228.6    121.08553   -23349.685    10046.609 
  960200    311.89967   -23228.875    119.00335   -23347.879    2965.8971 
  960400    306.72543   -23253.697    117.02915   -23370.726   -300.03964 
  960600    302.02269   -23232.936    115.23485   -23348.171    1201.2103 
  960800    323.70945   -23223.238     123.5093   -23346.747    8257.2402 
  961000    289.83078   -23238.277     110.5831    -23348.86    8766.5757 
  961200    262.47621   -23252.174    100.14614    -23352.32    5074.9018 
  961400    327.80895    -23222.94    125.07343   -23348.013    2441.9041 
  961600    307.30642   -23238.186    117.25082   -23355.437    8213.8125 
  961800    305.58032   -23251.086    116.59224   -23367.679   -2518.9275 
  962000    290.04642   -23212.921    110.66538   -23323.587    1808.7468 
  962200    314.23003   -23231.274    119.89248   -23351.167    122.09156 
  962400    298.94399   -23246.216    114.06019   -23360.277   -3454.1654 
  962600    288.20401   -23244.654    109.96242   -23354.616   -4313.9465 
  962800    303.33981   -23220.567    115.73739   -23336.304    2543.9835 
  963000    281.12143   -23249.961    107.26011   -23357.221   -2140.8334 
  963200    321.21671    -23241.68    122.55821   -23364.238   -10319.563 
  963400    357.88231   -23225.142    136.54773   -23361.689    492.28319 
  963600    278.92411   -23253.067    106.42173   -23359.489    10010.865 
  963800    336.15556   -23227.579    128.25803   -23355.837    6073.8415 
  964000    300.31389   -23235.255    114.58287   -23349.838   -4402.6749 
  964200    265.04749   -23254.899     101.1272   -23356.027    434.23961 
  964400    282.85262   -23240.806    107.92063   -23348.727    4465.2129 
  964600    316.04175   -23235.422    120.58373   -23356.006    1443.4036 
  964800     325.5682   -23233.204    124.21849   -23357.422   -4015.9666 
  965000    281.71357   -23251.182    107.48604   -23358.669   -2208.7936 
  965200    265.22301   -23245.713    101.19417   -23346.907    -3595.405 
  965400    282.98885   -23232.574    107.97261   -23340.546    1814.4282 
  965600     277.9768   -23254.389    106.06029   -23360.449   -7608.8443 
  965800    298.42995   -23255.657    113.86406   -23369.521   -5557.5185 
  966000    292.43523   -23232.139    111.57682   -23343.716   -2797.3339 
  966200    299.19422   -23239.556    114.15567   -23353.712    -3154.392 
  966400     259.1163    -23259.67     98.86419   -23358.534    2490.0529 
  966600    302.73954   -23230.303    115.50836   -23345.812   -564.06113 
  966800    312.86114   -23235.868    119.37019   -23355.239   -3254.1208 
  967000    293.60233   -23252.192    112.02212   -23364.214   -1834.6824 
  967200    332.74767   -23218.255    126.95777   -23345.213   -717.35133 
  967400     292.5746   -23245.675    111.62999   -23357.305    1255.5522 
  967600    287.65654   -23239.477    109.75354   -23349.231    7712.4994 
  967800    335.84871   -23228.155    128.14096   -23356.296   -442.77364 
  968000    282.13376   -23246.117    107.64635   -23353.763   -6663.4837 
  968200     322.2741   -23219.623    122.96165   -23342.585   -2424.0205 
  968400    301.18429   -23226.182    114.91496   -23341.097    3877.5117 
  968600    302.45647   -23242.061    115.40036   -23357.462    -2818.843 
  968800    298.41007   -23258.242    113.85648   -23372.098   -2410.6386 
  969000    268.51996    -23260.12     102.4521   -23362.572    4106.5913 
  969200    308.45142   -23233.586    117.68769   -23351.274    485.12229 
  969400    319.84567   -23227.115     122.0351    -23349.15    7022.6712 
  969600    294.74025   -23238.087    112.45628   -23350.543    4680.5709 
  969800    274.67737   -23248.155    104.80141   -23352.956    393.68933 
  970000    307.91465   -23224.934    117.48289   -23342.417   -1769.5883 
  970200    299.00242   -23240.411    114.08249   -23354.493    6263.9514 
  970400    289.36947   -23247.044    110.40709   -23357.451    1956.3584 
  970600     317.4768   -23222.302    121.13127   -23343.433    202.86731 
  970800    282.47569   -23249.216    107.77682   -23356.993    2153.6482 
  971000    288.89495   -23244.095    110.22604   -23354.321    967.01133 
  971200    303.16267   -23219.383     115.6698   -23335.053      6853.46 
  971400    303.52328   -23244.353    115.80739   -23360.161   -1681.0208 
  971600     318.3991   -23235.291    121.48317   -23356.774    2541.7047 
  971800    322.49378   -23218.643    123.04546   -23341.688     3146.057 
  972000    300.18096   -23246.881    114.53215   -23361.413    2649.3095 
  972200     336.7833   -23229.774    128.49754   -23358.272    1170.5954 
  972400    294.99277   -23235.154    112.55263   -23347.707    6173.4441 
  972600    317.22889   -23229.893    121.03668   -23350.929   -501.30816 
  972800    336.27161   -23215.156    128.30231   -23343.458   -1370.5796 
  973000    304.75757    -23243.86    116.27833   -23360.139    321.94714 
  973200    282.83768   -23239.991    107.91493   -23347.906   -7472.0234 
  973400     340.7211   -23220.571    129.99998   -23350.571    -1381.154 
  973600    273.93334   -23245.426    104.51754   -23349.944   -4470.9611 
  973800    336.93359   -23232.086    128.55488   -23360.641    2901.5363 
  974000    289.25875   -23247.806    110.36485   -23358.171    1939.7738 
  974200    311.91386   -23242.305    119.00876   -23361.313    2642.0573 
  974400    318.27022   -23225.046    121.43399    -23346.48    3312.1918 
  974600    309.38209   -23251.731    118.04278   -23369.774    3145.1449 
  974800    291.54915   -23243.351    111.23874    -23354.59    2455.7429 
  975000    324.64396   -23219.725    123.86585   -23343.591    7914.1511 
  975200    293.29417   -23244.396    111.90454   -23356.301   -6586.4997 
  975400    279.79862   -23250.868     106.7554   -23357.623   -1649.1277 
  975600    315.84091   -23224.692    120.50711   -23345.199   -2169.7264 
  975800    319.40852   -23242.751    121.86831   -23364.619    1221.5961 
  976000    302.74266    -23247.75    115.50955   -23363.259   -915.36857 
  976200    295.78279   -23229.986    112.85405    -23342.84   -4835.8323 
  976400    273.40032    -23256.78    104.31416   -23361.094     3396.084 
  976600    280.38916   -23245.381    106.98071   -23352.361   -2559.8585 
  976800    335.26205   -23236.738    127.91712   -23364.655    5525.3778 
  977000     315.5157   -23221.824    120.38303   -23342.207    6577.2563 
  977200    273.76129   -23227.217    104.45189   -23331.669    5845.7203 
  977400    267.95534   -23244.221    102.23667   -23346.458   -3089.6787 
  977600    324.64581   -23232.774    123.86656    -23356.64   -2066.9375 
  977800    305.70891   -23225.426    116.64131   -23342.068    2259.2946 
  978000    301.97914   -23248.242    115.21824    -23363.46   -4276.6322 
  978200     329.2893   -23223.875    125.63825   -23349.513   -6611.1444 
  978400    297.57258   -23230.864    113.53694   -23344.401   -1932.7729 
  978600     296.5968   -23238.882    113.16464   -23352.047   -4882.9839 
  978800    340.62668   -23215.735    129.96396   -23345.699     1124.538 
  979000     308.3549   -23241.729    117.65087    -23359.38     1953.096 
  979200    295.84858   -23243.724    112.87916   -23356.603   -1188.8128 
  979400    354.50466   -23221.121    135.25901    -23356.38    3376.6731 
  979600    262.85525   -23249.018    100.29076   -23349.309    15888.691 
  979800     286.5593   -23241.975    109.33489   -23351.309    7682.6324 
  980000    330.98261   -23222.693    126.28432   -23348.977   -80.418395 
  980200    276.01264   -23239.797    105.31088   -23345.107   -7984.6345 
  980400    288.70552   -23248.026    110.15377   -23358.179   -11233.131 
  980600    312.00845   -23221.551    119.04485   -23340.596   -2617.7612 
  980800    272.48374   -23240.624    103.96445   -23344.589   -6314.9875 
  981000    321.43111   -23240.957    122.64001   -23363.597    1425.6684 
  981200    306.45251    -23241.37    116.92502   -23358.295    2138.9055 
  981400    313.22541    -23246.93    119.50918    -23366.44    2420.1432 
  981600    313.88456   -23224.248    119.76067   -23344.009   -2375.7693 
  981800    289.47464   -23245.261    110.44722   -23355.709    2095.1423 
  982000    297.22347   -23246.455    113.40374   -23359.859   -1999.9619 
  982200    344.28199   -23222.689    131.35862   -23354.048     458.4288 
  982400    322.51447   -23230.144    123.05336   -23353.197   -4947.4689 
  982600    312.67694   -23231.815    119.29991   -23351.115    -2581.478 
  982800    277.88276   -23255.658    106.02441   -23361.683   -13200.491 
  983000    288.47723   -23250.861    110.06667   -23360.928   -5478.6665 
  983200    307.14347    -23231.68    117.18865   -23348.869   -557.02162 
  983400    324.54863   -23240.848    123.82948   -23364.678    5892.9771 
  983600    285.03594   -23257.848    108.75366   -23366.602    5550.3294 
  983800    317.46735   -23225.325    121.12766   -23346.452   -3340.7183 
  984000    281.47013   -23242.138    107.39315   -23349.531   -131.33183 
  984200    292.50093   -23247.627    111.60188   -23359.228    565.88193 
  984400    318.40525   -23220.275    121.48551   -23341.761   -555.03799 
  984600    283.34902   -23248.299    108.11003   -23356.409    3285.5345 
  984800    277.76567   -23246.495    105.97974   -23352.475    546.97457 
  985000    301.33871   -23241.979    114.97388   -23356.953    245.70818 
  985200    334.08406   -23218.232    127.46766     -23345.7    101.86842 
  985400    334.46798   -23239.984    127.61414   -23367.598    9206.4405 
  985600    289.00693   -23253.218    110.26877   -23363.486     10688.29 
  985800    297.99409   -23238.418    113.69777   -23352.116    4845.3444 
  986000    298.12484   -23238.661    113.74765   -23352.409    3830.8301 
  986200    323.91558   -23214.929    123.58794   -23338.517   -5343.2982 
  986400    297.45798   -23238.645    113.49321   -23352.138    1254.3912 
  986600    290.00279   -23251.304    110.64873   -23361.952   -2234.0299 
  986800    316.79545   -23230.479     120.8713    -23351.35    2512.9823 
  987000    317.95945   -23217.105    121.31542    -23338.42    6537.9147 
  987200    277.39069   -23249.936    105.83667   -23355.773     1624.173 
  987400    307.15743   -23237.746    117.19398    -23354.94   -1376.9979 
  987600    324.52153   -23213.858    123.81914   -23337.677   -3339.8089 
  987800    335.18528   -23232.904    127.88783   -23360.792    4536.2745 
  988000    306.21493   -23238.478    116.83437   -23355.313   -1714.9465 
  988200    267.24836   -23258.086    101.96692   -23360.053    6621.5018 
  988400    301.77929   -23232.385    115.14198   -23347.527    812.09128 
  988600    318.35808   -23233.381    121.46751   -23354.849   -967.23233 
  988800    280.08404   -23252.062     106.8643   -23358.926    -3335.654 
  989000    291.76002    -23235.23    111.31919   -23346.549   -1894.3654 
  989200    291.30134   -23245.816    111.14419    -23356.96    1768.3794 
  989400    273.45355   -23264.614    104.33448   -23368.949   -2233.2129 
  989600     298.6975    -23238.97    113.96614   -23352.936    4623.9638 
  989800    293.82959   -23239.213    112.10882   -23351.322    6769.5646 
  990000    288.97394   -23237.863    110.25618   -23348.119    4926.4113 
  990200    300.23549   -23237.915    114.55296   -23352.468   -5654.5756 
  990400    277.86156   -23257.027    106.01632   -23363.043   -3964.8312 
  990600    310.19445   -23227.094    118.35273   -23345.446   -6493.3503 
  990800    325.56628   -23224.663    124.21776   -23348.881   -4693.7895 
  991000    283.47588   -23256.533    108.15843   -23364.691    6125.4611 
  991200    305.11166   -23240.315    116.41343   -23356.728   -598.37439 
  991400    306.51314   -23229.643    116.94815   -23346.591   -3291.0457 
  991600    325.90216   -23237.434    124.34591    -23361.78    207.95682 
  991800    315.36019    -23239.57    120.32369   -23359.894    1420.7579 
  992000     310.6578   -23241.102    118.52952   -23359.632    2749.5163 
  992200    306.31762   -23238.155    116.87355   -23355.028     2345.342 
  992400     263.6902    -23256.39    100.60933   -23356.999   -959.74353 
  992600    278.15135   -23227.241    106.12689   -23333.368    730.21205 
  992800     300.5565   -23234.932    114.67544   -23349.607   -2657.1226 
  993000    249.16946     -23263.5    95.069036   -23358.569    6477.7029 
  993200    287.72828   -23254.189    109.78091    -23363.97    6059.9602 
  993400    320.52486    -23236.19    122.29424   -23358.484   -55.338035 
  993600    312.67231   -23228.832    119.29815    -23348.13   -3844.3969 
  993800    270.10642   -23236.785     103.0574   -23339.842   -1670.2078 
  994000    271.52892   -23250.364    103.60015   -23353.964    1058.7715 
  994200    343.30438   -23223.354    130.98562    -23354.34   -3847.4036 
  994400    338.97191   -23226.317    129.33259   -23355.649   -4706.2463 
  994600    315.39742   -23239.243     120.3379   -23359.581   -1948.8118 
  994800    316.12926   -23235.575    120.61712   -23356.192    1124.2976 
  995000    256.11384   -23263.746    97.718618   -23361.464    1039.7846 
  995200    284.42721   -23237.831    108.52141   -23346.353    2897.4331 
  995400    322.49001   -23242.229    123.04403   -23365.273   -535.34369 
  995600    281.85233   -23253.604    107.53898   -23361.143   -296.49473 
  995800    300.96074   -23228.275    114.82967   -23343.105   -3704.6219 
  996000    252.33267   -23248.851    96.275936   -23345.127   -1819.0732 
  996200    298.47224   -23238.433     113.8802   -23352.313    395.33338 
  996400    312.75742   -23225.461    119.33062   -23344.791   -2131.3756 
  996600    268.41227   -23249.621    102.41101   -23352.032    888.04261 
  996800    344.78163   -23229.577    131.54925   -23361.127    3925.5887 
  997000    280.14484   -23250.933    106.88749   -23357.821   -1040.0459 
  997200    282.22037    -23240.88     107.6794    -23348.56    -5172.902 
  997400    294.67586   -23229.242    112.43171   -23341.674    1996.9076 
  997600    279.84243   -23256.699    106.77211   -23363.471    5704.7428 
  997800    326.22164   -23236.777    124.46781   -23361.245    7557.3035 
  998000    323.60513   -23217.273    123.46949   -23340.743    3965.7473 
  998200    304.43895   -23236.658    116.15676   -23352.815    2528.2524 
  998400    298.05743   -23242.891    113.72193   -23356.613    2400.8585 
  998600    285.10173   -23255.927    108.77877   -23364.705   -2881.3448 
  998800    325.27453   -23241.981    124.10645   -23366.087    2972.1246 
  999000     332.2825   -23232.864    126.78029   -23359.644    2133.8655 
  999200    286.18712   -23255.482    109.19289   -23364.675    5148.0835 
  999400    266.14627   -23269.396    101.54643   -23370.943   -3573.2775 
  999600    284.51431   -23237.386    108.55464   -23345.941    6024.0497 
  999800    273.37082   -23239.356    104.30291   -23343.659     1107.594 
 1000000    325.47562   -23232.429    124.18317   -23356.612   -9513.2981 
Loop time of 5858.61 on 8 procs for 1000000 steps with 129 atoms

Performance: 3.687 ns/day, 6.510 hours/ns, 170.689 timesteps/s
99.4% CPU use with 8 MPI tasks x no OpenMP threads

MPI task timing breakdown:
Section |  min time  |  avg time  |  max time  |%varavg| %total
---------------------------------------------------------------
Pair    | 4386.6     | 4441.7     | 4502.3     |  53.3 | 75.81
Neigh   | 0.73518    | 0.74374    | 0.74967    |   0.5 |  0.01
Comm    | 106.3      | 168.49     | 223.65     | 275.9 |  2.88
Output  | 0.46053    | 0.48867    | 0.64939    |   8.7 |  0.01
Modify  | 1229.7     | 1230.7     | 1232.2     |   1.9 | 21.01
Other   |            | 16.46      |            |       |  0.28

Nlocal:    16.125 ave 17 max 16 min
Histogram: 7 0 0 0 0 0 0 0 0 1
Nghost:    421.5 ave 426 max 418 min
Histogram: 1 1 1 1 0 2 0 1 0 1
Neighs:    947.75 ave 995 max 924 min
Histogram: 1 1 2 3 0 0 0 0 0 1

Total # of neighbors = 7582
Ave neighs/atom = 58.7752
Neighbor list builds = 409
Dangerous builds = 0

unfix 1
unfix output
undump 1

Please see the log.cite file for references relevant to this simulation

Total wall time: 1:37:50
