ITEM: TIMESTEP
0
ITEM: NUMBER OF ATOMS
130
ITEM: BOX BOUNDS xy xz yz pp pp pp
0.0000000000000000e+00 2.3654499999999999e+01 7.8845000000000001e+00
0.0000000000000000e+00 1.3658086643083999e+01 0.0000000000000000e+00
0.0000000000000000e+00 2.5747000000000000e+01 0.0000000000000000e+00
ITEM: ATOMS id type x y z 
18 1 10.522 6.683 2.644 
28 1 5.247 4.273 12.803 
31 1 9.65 6.514 0.446 
62 1 9.171 5.15 12.405 
91 1 9.65 6.514 11.889 
92 1 10.81 6.18 11.007 
106 1 10.522 6.683 9.691 
127 1 10.81 6.18 1.328 
4 1 4.402 5.735 13.319 
5 1 3.307 5.568 14.201 
43 1 4.549 6.796 15.517 
52 1 9.172 5.15 25.677 
66 1 4.402 5.735 24.762 
67 1 5.003 6.76 23.881 
88 1 5.247 4.273 25.278 
107 1 3.307 5.568 23.881 
116 1 4.549 6.796 22.565 
117 1 5.003 6.76 14.201 
11 1 11.272 7.494 3.321 
12 1 10.477 8.871 4.018 
14 1 9.018 11.397 0.446 
15 1 10.114 11.565 1.328 
16 1 8.412 9.024 0.654 
19 1 10.477 8.871 5.569 
29 1 10.927 10.156 3.321 
32 1 8.77 7.648 1.328 
35 1 12.036 9.594 2.644 
45 1 9.231 8.963 3.321 
47 1 12.762 8.702 0.446 
49 1 11.224 11 0.654 
51 1 8.872 10.337 2.644 
53 1 11.272 7.494 9.014 
54 1 10.477 8.871 8.317 
56 1 9.018 11.397 11.889 
57 1 8.418 10.372 11.007 
58 1 11.224 11 11.681 
60 1 12.255 7.901 9.691 
61 1 10.477 8.871 6.766 
73 1 9.231 8.963 9.014 
75 1 12.762 8.702 11.889 
76 1 12.202 10.061 11.007 
79 1 9.224 7.617 9.691 
80 1 8.174 12.859 12.405 
89 1 10.927 10.156 9.014 
93 1 8.412 9.024 11.681 
95 1 9.951 11.095 9.691 
105 1 10.114 11.565 11.007 
109 1 8.77 7.648 11.007 
110 1 12.036 9.594 9.691 
114 1 8.872 10.337 9.691 
119 1 8.418 10.372 1.328 
120 1 12.255 7.901 2.644 
123 1 12.202 10.061 1.328 
124 1 9.224 7.617 2.644 
128 1 9.951 11.095 2.644 
6 1 5.009 8.108 13.527 
13 1 9.663 10.28 25.128 
17 1 9.204 8.965 25.162 
30 1 10.016 7.556 25.128 
34 1 11.289 7.464 25.162 
36 1 8.174 12.859 25.677 
46 1 11.752 8.777 25.128 
50 1 10.937 10.184 25.162 
55 1 9.663 10.28 12.954 
59 1 10.937 10.184 12.919 
74 1 11.752 8.777 12.954 
78 1 11.289 7.464 12.919 
90 1 10.016 7.556 12.954 
94 1 9.204 8.965 12.919 
101 1 5.009 8.108 24.555 
33 1 11.795 6.589 0.654 
77 1 11.795 6.589 11.681 
41 1 17.967 6.132 13.527 
68 1 17.967 6.132 24.554 
103 1 19.24 6.037 22.565 
126 1 19.24 6.037 15.517 
3 1 19.528 6.852 12.254 
7 1 19.987 8.167 12.289 
10 1 15.106 8.528 12.804 
22 1 19.175 9.576 12.254 
26 1 17.902 9.668 12.289 
38 1 17.439 8.356 12.254 
42 1 18.254 6.949 12.289 
44 1 20.019 11.982 12.804 
48 1 12.546 7.4 1.328 
65 1 19.528 6.852 0.081 
69 1 18.254 6.949 0.046 
82 1 17.439 8.356 0.081 
86 1 17.902 9.668 0.046 
96 1 14.084 8.604 12.405 
98 1 19.175 9.576 0.081 
102 1 19.987 8.167 0.046 
113 1 12.546 7.4 11.007 
129 2 19.528 6.852 10.9 
130 3 19.528 6.852 9.924 
1 1 17.919 9.638 16.194 
2 1 18.714 8.261 16.892 
8 1 18.669 10.449 15.517 
9 1 18.714 8.261 18.442 
20 1 14.084 8.604 25.677 
21 1 18.264 6.977 16.194 
23 1 19.541 10.618 13.32 
24 1 20.421 9.484 14.201 
25 1 17.396 10.544 13.527 
27 1 17.155 7.538 15.517 
37 1 19.96 8.169 16.194 
39 1 16.429 8.43 13.319 
40 1 16.644 9.732 14.201 
63 1 17.919 9.638 21.888 
64 1 18.714 8.261 21.19 
70 1 16.936 9.231 22.565 
71 1 18.714 8.261 19.64 
72 1 20.019 11.982 25.278 
81 1 19.96 8.169 21.888 
83 1 16.429 8.43 24.762 
84 1 16.989 7.071 23.881 
85 1 17.396 10.544 24.555 
87 1 19.967 9.515 22.565 
97 1 18.263 6.977 21.888 
99 1 19.541 10.618 24.762 
100 1 18.38 10.953 23.881 
104 1 15.106 8.528 25.278 
108 1 18.669 10.449 22.565 
111 1 20.421 9.484 23.881 
112 1 17.155 7.538 22.565 
115 1 16.644 9.732 23.881 
118 1 16.936 9.231 15.517 
121 1 16.989 7.071 14.201 
122 1 19.967 9.515 15.517 
125 1 18.38 10.953 14.201 
ITEM: TIMESTEP
10
ITEM: NUMBER OF ATOMS
130
ITEM: BOX BOUNDS xy xz yz pp pp pp
0.0000000000000000e+00 2.3654499999999999e+01 7.8845000000000001e+00
0.0000000000000000e+00 1.3658086643083999e+01 0.0000000000000000e+00
0.0000000000000000e+00 2.5747000000000000e+01 0.0000000000000000e+00
ITEM: ATOMS id type x y z 
18 1 10.3921 6.74845 2.65433 
28 1 5.11569 4.54492 12.8981 
31 1 9.41265 6.48908 0.395513 
62 1 9.1385 5.26804 12.3732 
91 1 9.40527 6.47696 11.9312 
92 1 10.8267 6.17874 10.9739 
106 1 10.3877 6.7441 9.68874 
127 1 10.8317 6.18068 1.35827 
4 1 4.43026 5.79513 13.2626 
5 1 3.19717 5.59442 14.2141 
43 1 4.57882 6.94511 15.4586 
52 1 9.14004 5.27072 25.7097 
66 1 4.43815 5.7925 24.8567 
67 1 5.10614 6.92679 23.8754 
88 1 5.13181 4.5105 25.21 
107 1 3.21364 5.57113 23.8556 
116 1 4.59012 6.94046 22.5976 
117 1 5.05679 6.87325 14.1523 
11 1 11.2354 7.54346 3.41049 
12 1 10.4842 8.83083 4.11103 
14 1 8.98999 11.313 0.357055 
15 1 10.2042 11.5746 1.35733 
16 1 8.42141 8.94075 0.702034 
19 1 10.4712 8.86723 5.55835 
29 1 10.9637 10.1491 3.34723 
32 1 8.72373 7.67335 1.29302 
35 1 12.0171 9.58054 2.58009 
45 1 9.23331 8.95077 3.2756 
47 1 12.7523 8.71289 0.519527 
49 1 11.2907 11.0484 0.693711 
51 1 8.85573 10.1866 2.60819 
53 1 11.26 7.544 8.93178 
54 1 10.4825 8.85163 8.22914 
56 1 9.00226 11.3242 11.9282 
57 1 8.32593 10.2392 11.0208 
58 1 11.3202 10.9444 11.6687 
60 1 12.3198 8.06726 9.65247 
61 1 10.4732 8.8706 6.7722 
73 1 9.23712 8.95654 9.06135 
75 1 12.7135 8.81208 11.768 
76 1 12.2493 10.0601 11.0227 
79 1 9.2269 7.66145 9.76358 
80 1 8.29539 12.6119 12.332 
89 1 10.9413 10.1397 8.98734 
93 1 8.40452 8.93928 11.6243 
95 1 10.0351 11.0525 9.70195 
105 1 10.226 11.5256 11.0167 
109 1 8.72177 7.66684 11.0403 
110 1 12.0367 9.5974 9.73816 
114 1 8.85284 10.18 9.73029 
119 1 8.30764 10.2197 1.32565 
120 1 12.334 8.08602 2.65294 
123 1 12.2096 10.0408 1.21046 
124 1 9.22748 7.66676 2.56624 
128 1 10.0274 11.0414 2.6388 
6 1 4.99818 8.17592 13.5598 
13 1 9.62868 10.2773 25.1673 
17 1 9.17025 8.95289 25.1439 
30 1 9.93661 7.71394 25.0882 
34 1 11.2706 7.48377 25.1249 
36 1 8.28743 12.625 25.7438 
46 1 11.7293 8.78217 25.0881 
50 1 11.0482 10.1388 25.2547 
55 1 9.62899 10.2876 12.9784 
59 1 10.9833 10.1284 12.8843 
74 1 11.6831 8.85479 13.0122 
78 1 11.2812 7.51097 12.9622 
90 1 9.92521 7.69336 13.0011 
94 1 9.16265 8.94646 12.937 
101 1 5.00023 8.18294 24.5046 
33 1 11.7391 6.58819 0.694885 
77 1 11.7204 6.57204 11.66 
41 1 17.8628 6.1817 13.5434 
68 1 17.8979 6.10716 24.5101 
103 1 19.1412 6.08549 22.5663 
126 1 19.1588 6.07761 15.5164 
3 1 19.6422 6.73541 12.0684 
7 1 20.0487 8.2819 12.3576 
10 1 15.1373 8.4664 12.8373 
22 1 19.2858 9.47546 12.1576 
26 1 17.9068 9.62383 12.2739 
38 1 17.5055 8.287 12.189 
42 1 18.1308 7.01258 12.3784 
44 1 20.0539 11.8682 12.8367 
48 1 12.5935 7.55441 1.36414 
65 1 19.6079 6.78542 0.0641367 
69 1 18.1824 7.03585 -0.0612681 
82 1 17.4666 8.37143 0.114223 
86 1 17.8977 9.66719 0.09856 
96 1 14.047 8.66678 12.3692 
98 1 19.2339 9.43427 0.110479 
102 1 19.9615 8.14278 0.0684682 
113 1 12.6109 7.52721 10.9466 
129 2 19.5523 6.81262 10.9427 
130 3 19.5322 6.84947 9.91567 
1 1 17.9254 9.58529 16.3046 
2 1 18.7046 8.28332 16.9831 
8 1 18.7915 10.4163 15.5375 
9 1 18.7178 8.2601 18.4427 
20 1 14.0323 8.65786 25.7211 
21 1 18.2505 6.99098 16.2181 
23 1 19.7939 10.6919 13.3081 
24 1 20.4781 9.46961 14.164 
25 1 17.459 10.5323 13.5306 
27 1 17.1476 7.55128 15.4642 
37 1 19.9577 8.1675 16.1505 
39 1 16.4698 8.33761 13.4653 
40 1 16.5907 9.59452 14.2629 
63 1 17.9476 9.59366 21.7686 
64 1 18.6999 8.29144 21.0979 
70 1 16.8466 9.01303 22.569 
71 1 18.7197 8.26489 19.6423 
72 1 20.0516 11.8664 25.2476 
81 1 19.9578 8.19178 21.926 
83 1 16.4499 8.39489 24.6911 
84 1 17.0049 7.0891 23.9976 
85 1 17.4403 10.5575 24.515 
87 1 19.9848 9.46036 22.651 
97 1 18.2157 6.99413 21.8704 
99 1 19.7796 10.6372 24.8165 
100 1 18.3668 10.9644 23.8515 
104 1 15.1467 8.47161 25.24 
108 1 18.8062 10.394 22.557 
111 1 20.4655 9.45464 23.9187 
112 1 17.1816 7.56476 22.6368 
115 1 16.5912 9.58424 23.828 
118 1 16.8499 9.04362 15.5237 
121 1 16.9301 7.07621 14.2086 
122 1 20.0025 9.46502 15.4396 
125 1 18.3545 10.9678 14.2151 
ITEM: TIMESTEP
20
ITEM: NUMBER OF ATOMS
130
ITEM: BOX BOUNDS xy xz yz pp pp pp
0.0000000000000000e+00 2.3654499999999999e+01 7.8845000000000001e+00
0.0000000000000000e+00 1.3658086643083999e+01 0.0000000000000000e+00
0.0000000000000000e+00 2.5747000000000000e+01 0.0000000000000000e+00
ITEM: ATOMS id type x y z 
18 1 10.3921 6.77034 2.66129 
28 1 5.09468 4.59805 12.916 
31 1 9.39887 6.53198 0.410972 
62 1 9.10501 5.27958 12.3735 
91 1 9.39567 6.52207 11.9199 
92 1 10.8001 6.19883 10.9705 
106 1 10.392 6.77165 9.67898 
127 1 10.7966 6.19243 1.36826 
4 1 4.41232 5.80375 13.2757 
5 1 3.17482 5.63405 14.2095 
43 1 4.57667 6.9665 15.4481 
52 1 9.10689 5.28256 25.7089 
66 1 4.44757 5.81134 24.8143 
67 1 5.09103 6.97023 23.8845 
88 1 5.10311 4.57969 25.1973 
107 1 3.20123 5.59793 23.8597 
116 1 4.58533 6.96455 22.6039 
117 1 5.06796 6.92458 14.1653 
11 1 11.225 7.57235 3.41086 
12 1 10.5127 8.81286 4.07992 
14 1 8.98911 11.2909 0.399041 
15 1 10.2172 11.54 1.34061 
16 1 8.39151 8.91607 0.698512 
19 1 10.4689 8.86572 5.56509 
29 1 10.9542 10.1265 3.32747 
32 1 8.69638 7.66495 1.28377 
35 1 12.0277 9.59425 2.56725 
45 1 9.22515 8.94215 3.26636 
47 1 12.7232 8.75448 0.491413 
49 1 11.3273 11.0247 0.691909 
51 1 8.84682 10.1667 2.59427 
53 1 11.2304 7.56801 8.92361 
54 1 10.5051 8.82432 8.25641 
56 1 8.99632 11.3 11.9185 
57 1 8.33271 10.1913 11.0302 
58 1 11.3627 10.9495 11.6744 
60 1 12.3215 8.08907 9.6604 
61 1 10.4706 8.87016 6.77465 
73 1 9.22274 8.93948 9.06863 
75 1 12.6947 8.82157 11.7777 
76 1 12.2767 10.084 11.0022 
79 1 9.20385 7.66743 9.78225 
80 1 8.33059 12.5303 12.3112 
89 1 10.9446 10.1318 8.99388 
93 1 8.38477 8.91251 11.6393 
95 1 10.0463 11.0374 9.69713 
105 1 10.2408 11.4914 11.0167 
109 1 8.69407 7.66256 11.0492 
110 1 12.0542 9.60158 9.71947 
114 1 8.85548 10.1661 9.7425 
119 1 8.32244 10.1801 1.3094 
120 1 12.3117 8.11626 2.67034 
123 1 12.2245 10.0701 1.24311 
124 1 9.20642 7.67326 2.55112 
128 1 10.0463 11.0322 2.64998 
6 1 5.02866 8.21644 13.5602 
13 1 9.65517 10.2507 25.148 
17 1 9.13703 8.94565 25.1501 
30 1 9.91752 7.73263 25.064 
34 1 11.2545 7.49566 25.1342 
36 1 8.32542 12.5363 25.7598 
46 1 11.7194 8.7954 25.1072 
50 1 11.0641 10.1533 25.249 
55 1 9.62814 10.2439 13.0053 
59 1 10.9877 10.1272 12.8916 
74 1 11.6761 8.85632 13.0049 
78 1 11.252 7.54399 12.9347 
90 1 9.90626 7.7171 13.0206 
94 1 9.1409 8.94249 12.9202 
101 1 5.02066 8.20779 24.5066 
33 1 11.721 6.61804 0.700727 
77 1 11.7163 6.62699 11.6496 
41 1 17.8394 6.19464 13.5392 
68 1 17.8751 6.10815 24.511 
103 1 19.141 6.10382 22.5568 
126 1 19.1364 6.09117 15.5124 
3 1 19.6177 6.82113 12.0369 
7 1 20.0375 8.25907 12.3421 
10 1 15.1313 8.45108 12.8422 
22 1 19.2913 9.44691 12.1482 
26 1 17.9478 9.60266 12.2896 
38 1 17.5189 8.27337 12.197 
42 1 18.1595 7.01638 12.3697 
44 1 20.0892 11.8593 12.8384 
48 1 12.5896 7.5624 1.39642 
65 1 19.58 6.80028 0.0952108 
69 1 18.194 7.03634 -0.0514452 
82 1 17.4566 8.367 0.10487 
86 1 17.9162 9.67161 0.0821118 
96 1 14.0498 8.68023 12.3621 
98 1 19.2531 9.42001 0.128097 
102 1 19.9731 8.14838 0.060724 
113 1 12.573 7.55582 10.9281 
129 2 19.5713 6.78882 10.9273 
130 3 19.5329 6.84767 9.9224 
1 1 17.9662 9.56838 16.285 
2 1 18.6866 8.31135 16.9452 
8 1 18.7873 10.3595 15.5317 
9 1 18.7208 8.26058 18.4349 
20 1 14.0418 8.67856 25.7168 
21 1 18.2472 7.00223 16.2163 
23 1 19.8041 10.6649 13.3132 
24 1 20.5004 9.47443 14.1671 
25 1 17.4809 10.4946 13.5482 
27 1 17.1375 7.53381 15.4895 
37 1 19.9689 8.19078 16.1283 
39 1 16.4764 8.3127 13.4569 
40 1 16.6091 9.57596 14.2832 
63 1 17.9612 9.56838 21.7928 
64 1 18.6742 8.31937 21.1292 
70 1 16.8769 9.01258 22.5407 
71 1 18.7218 8.26534 19.6422 
72 1 20.0838 11.8524 25.2483 
81 1 19.9643 8.19199 21.9422 
83 1 16.4686 8.3705 24.7171 
84 1 16.9802 7.06211 23.9816 
85 1 17.4607 10.5271 24.4972 
87 1 19.9968 9.45651 22.6597 
97 1 18.233 7.01013 21.88 
99 1 19.7904 10.5946 24.8056 
100 1 18.394 10.9417 23.838 
104 1 15.1438 8.45196 25.2407 
108 1 18.7992 10.3503 22.549 
111 1 20.4953 9.45929 23.9329 
112 1 17.163 7.54556 22.6459 
115 1 16.6045 9.57454 23.8069 
118 1 16.8603 9.04386 15.5526 
121 1 16.8992 7.04389 14.2227 
122 1 19.9996 9.46218 15.4233 
125 1 18.3793 10.9356 14.2453 
ITEM: TIMESTEP
30
ITEM: NUMBER OF ATOMS
130
ITEM: BOX BOUNDS xy xz yz pp pp pp
0.0000000000000000e+00 2.3654499999999999e+01 7.8845000000000001e+00
0.0000000000000000e+00 1.3658086643083999e+01 0.0000000000000000e+00
0.0000000000000000e+00 2.5747000000000000e+01 0.0000000000000000e+00
ITEM: ATOMS id type x y z 
18 1 10.3618 6.78994 2.67233 
28 1 5.10238 4.61144 12.9229 
31 1 9.38483 6.56652 0.418814 
62 1 9.04123 5.28345 12.3771 
91 1 9.38722 6.56658 11.9144 
92 1 10.7703 6.24046 10.9713 
106 1 10.3596 6.78624 9.66619 
127 1 10.762 6.22749 1.37219 
4 1 4.43005 5.81591 13.3434 
5 1 3.16263 5.68152 14.198 
43 1 4.55883 6.96332 15.4535 
52 1 9.04294 5.28883 25.705 
66 1 4.42913 5.86922 24.7877 
67 1 5.08504 6.996 23.8981 
88 1 5.10822 4.6049 25.1963 
107 1 3.18521 5.62886 23.8428 
116 1 4.57202 6.97316 22.5977 
117 1 5.0642 6.97278 14.151 
11 1 11.2334 7.57553 3.4214 
12 1 10.5115 8.79806 4.06017 
14 1 9.01497 11.2336 0.410719 
15 1 10.2403 11.504 1.35548 
16 1 8.33693 8.88201 0.670461 
19 1 10.4687 8.86412 5.56523 
29 1 10.95 10.106 3.30574 
32 1 8.64094 7.64486 1.27508 
35 1 12.0658 9.61299 2.58466 
45 1 9.21065 8.9291 3.25999 
47 1 12.7069 8.80153 0.505649 
49 1 11.3584 11.0337 0.669019 
51 1 8.851 10.1606 2.59857 
53 1 11.2322 7.57196 8.91688 
54 1 10.5082 8.79731 8.27355 
56 1 9.01748 11.2366 11.9356 
57 1 8.34211 10.1358 11.0323 
58 1 11.3989 10.9437 11.6888 
60 1 12.3186 8.11122 9.64168 
61 1 10.4667 8.86497 6.76771 
73 1 9.21201 8.93357 9.0836 
75 1 12.6987 8.86047 11.7975 
76 1 12.3147 10.1001 10.9976 
79 1 9.17261 7.65918 9.77823 
80 1 8.33373 12.4973 12.3087 
89 1 10.9409 10.1134 9.01044 
93 1 8.3175 8.8761 11.6633 
95 1 10.0498 11.0347 9.6851 
105 1 10.266 11.4426 11.0107 
109 1 8.64629 7.64007 11.0599 
110 1 12.0981 9.62156 9.70223 
114 1 8.8527 10.1706 9.73798 
119 1 8.329 10.1371 1.30582 
120 1 12.3064 8.13848 2.6771 
123 1 12.2639 10.097 1.23945 
124 1 9.17248 7.66118 2.55115 
128 1 10.0305 11.0387 2.66182 
6 1 5.06297 8.25453 13.5443 
13 1 9.66051 10.2272 25.1438 
17 1 9.1214 8.93826 25.1426 
30 1 9.90132 7.72776 25.0398 
34 1 11.2353 7.49157 25.1283 
36 1 8.33199 12.4887 25.7601 
46 1 11.6983 8.79805 25.1077 
50 1 11.0905 10.1731 25.2482 
55 1 9.62432 10.2271 13.0017 
59 1 11.0094 10.1587 12.8998 
74 1 11.6631 8.85379 12.9756 
78 1 11.2472 7.53568 12.9389 
90 1 9.89738 7.72709 13.0394 
94 1 9.10196 8.93158 12.9408 
101 1 5.05807 8.23983 24.5327 
33 1 11.6968 6.65451 0.715449 
77 1 11.6985 6.67226 11.636 
41 1 17.8019 6.21934 13.527 
68 1 17.8531 6.0975 24.5323 
103 1 19.1627 6.09252 22.537 
126 1 19.141 6.09573 15.5286 
3 1 19.5782 6.90594 11.9987 
7 1 20.0988 8.25929 12.3006 
10 1 15.1234 8.44812 12.8437 
22 1 19.3001 9.43114 12.1673 
26 1 17.9511 9.60271 12.2793 
38 1 17.534 8.27949 12.2308 
42 1 18.1437 6.99659 12.3455 
44 1 20.1603 11.8763 12.8316 
48 1 12.5748 7.59516 1.40079 
65 1 19.5854 6.81592 0.110028 
69 1 18.184 7.0354 -0.0525856 
82 1 17.4662 8.37717 0.105813 
86 1 17.9294 9.68082 0.0893393 
96 1 14.0386 8.68817 12.3566 
98 1 19.2606 9.43125 0.150321 
102 1 19.9662 8.1446 0.0694296 
113 1 12.5607 7.6172 10.9303 
129 2 19.5978 6.76708 10.876 
130 3 19.5354 6.83707 9.8977 
1 1 17.9622 9.55815 16.2962 
2 1 18.6906 8.33211 16.9337 
8 1 18.8339 10.3459 15.5469 
9 1 18.7261 8.26644 18.4353 
20 1 14.0515 8.70117 25.7031 
21 1 18.2503 7.02147 16.2053 
23 1 19.7858 10.5769 13.3183 
24 1 20.5522 9.51776 14.1516 
25 1 17.4909 10.4535 13.5747 
27 1 17.0898 7.51686 15.5143 
37 1 19.9797 8.19834 16.1215 
39 1 16.4643 8.27422 13.4368 
40 1 16.6254 9.53042 14.2935 
63 1 17.9534 9.56182 21.7807 
64 1 18.6785 8.33264 21.1414 
70 1 16.878 8.98958 22.5373 
71 1 18.7208 8.2673 19.6393 
72 1 20.1459 11.8472 25.2533 
81 1 19.9804 8.20382 21.9462 
83 1 16.4812 8.34609 24.7125 
84 1 16.9575 7.03791 23.9834 
85 1 17.4832 10.4943 24.4852 
87 1 20.0213 9.47104 22.657 
97 1 18.2403 7.03155 21.9037 
99 1 19.8097 10.5602 24.7976 
100 1 18.4292 10.9061 23.8333 
104 1 15.1304 8.42989 25.2522 
108 1 18.8386 10.3391 22.5401 
111 1 20.5496 9.47746 23.94 
112 1 17.1244 7.52069 22.6331 
115 1 16.6122 9.5405 23.8033 
118 1 16.8632 9.02901 15.5729 
121 1 16.863 7.02281 14.2403 
122 1 20.016 9.47595 15.4294 
125 1 18.4172 10.8975 14.2394 
ITEM: TIMESTEP
40
ITEM: NUMBER OF ATOMS
130
ITEM: BOX BOUNDS xy xz yz pp pp pp
0.0000000000000000e+00 2.3654499999999999e+01 7.8845000000000001e+00
0.0000000000000000e+00 1.3658086643083999e+01 0.0000000000000000e+00
0.0000000000000000e+00 2.5747000000000000e+01 0.0000000000000000e+00
ITEM: ATOMS id type x y z 
18 1 10.3487 6.80029 2.67434 
28 1 5.09833 4.63717 12.9355 
31 1 9.36381 6.56278 0.411383 
62 1 9.01 5.29697 12.3758 
91 1 9.36946 6.56213 11.9253 
92 1 10.7578 6.258 10.9702 
106 1 10.3508 6.79688 9.66611 
127 1 10.7506 6.24436 1.37361 
4 1 4.4315 5.82502 13.343 
5 1 3.15597 5.69049 14.197 
43 1 4.56153 6.97895 15.4442 
52 1 9.01049 5.30044 25.7056 
66 1 4.42818 5.86996 24.7905 
67 1 5.08613 7.01358 23.895 
88 1 5.10315 4.63461 25.1894 
107 1 3.18627 5.6311 23.8454 
116 1 4.57746 6.97903 22.6048 
117 1 5.06338 6.98637 14.1598 
11 1 11.2386 7.57986 3.41706 
12 1 10.5105 8.79196 4.07103 
14 1 9.01985 11.2197 0.412962 
15 1 10.2455 11.5002 1.35415 
16 1 8.31859 8.86936 0.661245 
19 1 10.4678 8.86188 5.56543 
29 1 10.9455 10.1007 3.30373 
32 1 8.6192 7.63868 1.27715 
35 1 12.0734 9.6261 2.57798 
45 1 9.20618 8.92828 3.25374 
47 1 12.714 8.80623 0.497319 
49 1 11.3702 11.046 0.679186 
51 1 8.84465 10.1512 2.59596 
53 1 11.2346 7.57568 8.91729 
54 1 10.5028 8.79635 8.26666 
56 1 9.02006 11.2248 11.9278 
57 1 8.34131 10.1267 11.0331 
58 1 11.4039 10.9351 11.685 
60 1 12.3103 8.1239 9.63259 
61 1 10.4659 8.86175 6.77202 
73 1 9.20642 8.93389 9.08398 
75 1 12.6943 8.87706 11.7917 
76 1 12.3427 10.1098 10.9937 
79 1 9.15359 7.65694 9.78826 
80 1 8.3424 12.4657 12.3046 
89 1 10.945 10.1034 9.00735 
93 1 8.30273 8.86337 11.6753 
95 1 10.0491 11.0181 9.69054 
105 1 10.2736 11.4321 11.0194 
109 1 8.62281 7.6328 11.0531 
110 1 12.1102 9.63553 9.69734 
114 1 8.85382 10.1587 9.74499 
119 1 8.32746 10.119 1.30604 
120 1 12.2998 8.14752 2.68322 
123 1 12.274 10.1121 1.23716 
124 1 9.15486 7.65914 2.54764 
128 1 10.0343 11.028 2.66159 
6 1 5.07587 8.26807 13.5329 
13 1 9.6729 10.2152 25.144 
17 1 9.11501 8.9335 25.1441 
30 1 9.89892 7.72719 25.0329 
34 1 11.2308 7.49311 25.1297 
36 1 8.33557 12.4628 25.7599 
46 1 11.6975 8.79738 25.1088 
50 1 11.091 10.1687 25.2509 
55 1 9.63164 10.2182 13.0029 
59 1 11.0039 10.1561 12.9094 
74 1 11.6655 8.86448 12.9741 
78 1 11.2277 7.53957 12.9392 
90 1 9.89815 7.73034 13.0448 
94 1 9.0943 8.91782 12.9425 
101 1 5.06477 8.24856 24.5435 
33 1 11.6867 6.67241 0.719059 
77 1 11.6901 6.6952 11.6289 
41 1 17.8 6.22353 13.5274 
68 1 17.8476 6.09485 24.5263 
103 1 19.1615 6.10363 22.5373 
126 1 19.1355 6.10712 15.5236 
3 1 19.5795 6.90078 11.9889 
7 1 20.0976 8.27237 12.2961 
10 1 15.1226 8.44364 12.8426 
22 1 19.2936 9.41977 12.1662 
26 1 17.949 9.60591 12.2777 
38 1 17.5399 8.28057 12.2371 
42 1 18.1505 7.00497 12.3434 
44 1 20.1865 11.8475 12.8398 
48 1 12.5665 7.61028 1.3988 
65 1 19.5789 6.81408 0.108634 
69 1 18.1878 7.04197 -0.0573047 
82 1 17.4632 8.37957 0.103551 
86 1 17.9291 9.68321 0.0872392 
96 1 14.0411 8.69969 12.3635 
98 1 19.2637 9.43689 0.156935 
102 1 19.9688 8.15275 0.0645923 
113 1 12.5553 7.63241 10.9319 
129 2 19.603 6.76763 10.8738 
130 3 19.5392 6.82733 9.87046 
1 1 17.9542 9.56143 16.293 
2 1 18.6942 8.33593 16.9416 
8 1 18.836 10.3398 15.5467 
9 1 18.7277 8.26906 18.4387 
20 1 14.0502 8.70733 25.7017 
21 1 18.2477 7.02922 16.2045 
23 1 19.8233 10.6031 13.2998 
24 1 20.5682 9.51494 14.159 
25 1 17.4957 10.4361 13.5824 
27 1 17.0763 7.50137 15.5242 
37 1 19.9881 8.19357 16.114 
39 1 16.4635 8.25854 13.4418 
40 1 16.6294 9.51067 14.2893 
63 1 17.9526 9.54954 21.7897 
64 1 18.6767 8.34362 21.1365 
70 1 16.8903 8.98394 22.5273 
71 1 18.7215 8.26988 19.6439 
72 1 20.1776 11.8352 25.2526 
81 1 19.9839 8.20761 21.9507 
83 1 16.4727 8.34118 24.7194 
84 1 16.9485 7.0311 23.9898 
85 1 17.4931 10.4779 24.4801 
87 1 20.0412 9.47044 22.6609 
97 1 18.2424 7.03604 21.9033 
99 1 19.8272 10.5621 24.8045 
100 1 18.4435 10.8882 23.8314 
104 1 15.1326 8.42378 25.2516 
108 1 18.8425 10.3302 22.5377 
111 1 20.5686 9.48056 23.9361 
112 1 17.1214 7.50572 22.6377 
115 1 16.6199 9.52891 23.8094 
118 1 16.874 9.01792 15.5863 
121 1 16.8446 7.02355 14.2359 
122 1 20.0416 9.47809 15.4213 
125 1 18.4248 10.8748 14.2486 
ITEM: TIMESTEP
50
ITEM: NUMBER OF ATOMS
130
ITEM: BOX BOUNDS xy xz yz pp pp pp
0.0000000000000000e+00 2.3654499999999999e+01 7.8845000000000001e+00
0.0000000000000000e+00 1.3658086643083999e+01 0.0000000000000000e+00
0.0000000000000000e+00 2.5747000000000000e+01 0.0000000000000000e+00
ITEM: ATOMS id type x y z 
18 1 10.3428 6.80923 2.67732 
28 1 5.10241 4.65169 12.9449 
31 1 9.34881 6.57094 0.410529 
62 1 8.97198 5.30291 12.3782 
91 1 9.35421 6.56981 11.923 
92 1 10.7407 6.27208 10.9743 
106 1 10.3402 6.80539 9.66245 
127 1 10.7326 6.25871 1.37131 
4 1 4.42698 5.84388 13.3476 
5 1 3.15189 5.70194 14.1926 
43 1 4.55907 6.98131 15.4437 
52 1 8.971 5.30441 25.7028 
66 1 4.42644 5.88559 24.7843 
67 1 5.08943 7.02298 23.9038 
88 1 5.10989 4.64569 25.1893 
107 1 3.18101 5.63642 23.8417 
116 1 4.58337 6.98477 22.6046 
117 1 5.06932 7.00025 14.149 
11 1 11.2326 7.58331 3.41733 
12 1 10.5083 8.78876 4.06559 
14 1 9.0258 11.2027 0.417198 
15 1 10.2522 11.4927 1.35742 
16 1 8.29826 8.85821 0.654447 
19 1 10.4667 8.85888 5.56478 
29 1 10.9453 10.0944 3.30262 
32 1 8.59542 7.62831 1.27171 
35 1 12.0802 9.63811 2.5808 
45 1 9.20152 8.9218 3.25517 
47 1 12.7107 8.82052 0.49732 
49 1 11.3784 11.0509 0.675388 
51 1 8.84055 10.1461 2.59299 
53 1 11.2281 7.5771 8.91775 
54 1 10.5021 8.78747 8.26629 
56 1 9.02695 11.2048 11.9285 
57 1 8.33222 10.1081 11.0408 
58 1 11.4162 10.9279 11.6888 
60 1 12.312 8.13884 9.63082 
61 1 10.4641 8.85898 6.76852 
73 1 9.20288 8.92788 9.08554 
75 1 12.7013 8.8914 11.7923 
76 1 12.3599 10.1209 10.989 
79 1 9.13827 7.6567 9.78556 
80 1 8.34169 12.4488 12.3054 
89 1 10.9431 10.0966 9.01258 
93 1 8.28315 8.85208 11.6777 
95 1 10.0542 11.0131 9.69528 
105 1 10.2822 11.4176 11.0178 
109 1 8.5993 7.62413 11.0645 
110 1 12.1226 9.64574 9.69008 
114 1 8.8482 10.1532 9.74931 
119 1 8.32302 10.1036 1.30252 
120 1 12.2993 8.15727 2.67863 
123 1 12.2901 10.122 1.23683 
124 1 9.13539 7.65706 2.54748 
128 1 10.0295 11.023 2.65829 
6 1 5.09151 8.27481 13.5248 
13 1 9.67225 10.2034 25.146 
17 1 9.11179 8.92684 25.1405 
30 1 9.8952 7.72757 25.028 
34 1 11.2267 7.49359 25.1271 
36 1 8.33426 12.4425 25.7563 
46 1 11.692 8.79607 25.1094 
50 1 11.0989 10.1721 25.2551 
55 1 9.62311 10.2069 13.0035 
59 1 11.0107 10.1615 12.9109 
74 1 11.6587 8.85771 12.9724 
78 1 11.2364 7.54149 12.9424 
90 1 9.89064 7.73198 13.0527 
94 1 9.08214 8.91844 12.9511 
101 1 5.08022 8.25834 24.5465 
33 1 11.6751 6.68545 0.723233 
77 1 11.6793 6.71219 11.6246 
41 1 17.7916 6.23375 13.5243 
68 1 17.8439 6.0936 24.5258 
103 1 19.1626 6.10564 22.5384 
126 1 19.1362 6.11697 15.523 
3 1 19.5864 6.90946 11.9789 
7 1 20.1018 8.26596 12.2903 
10 1 15.121 8.43918 12.8443 
22 1 19.295 9.42644 12.1639 
26 1 17.9506 9.61016 12.2795 
38 1 17.5312 8.28179 12.2457 
42 1 18.1532 7.00597 12.3477 
44 1 20.2272 11.8537 12.8347 
48 1 12.5583 7.62289 1.40381 
65 1 19.5816 6.82534 0.110607 
69 1 18.1833 7.0452 -0.058497 
82 1 17.4699 8.38319 0.105293 
86 1 17.933 9.68773 0.0921915 
96 1 14.0435 8.71026 12.3671 
98 1 19.2629 9.43691 0.161005 
102 1 19.9649 8.15723 0.0713979 
113 1 12.5508 7.65511 10.9283 
129 2 19.6083 6.76745 10.8519 
130 3 19.5449 6.81527 9.85462 
1 1 17.9636 9.55552 16.2978 
2 1 18.6956 8.34546 16.9404 
8 1 18.8493 10.3298 15.5527 
9 1 18.7297 8.27215 18.4396 
20 1 14.0518 8.71582 25.6986 
21 1 18.2469 7.03828 16.2041 
23 1 19.8328 10.584 13.3055 
24 1 20.5891 9.52192 14.1494 
25 1 17.5056 10.4201 13.5862 
27 1 17.0632 7.48952 15.5308 
37 1 19.9905 8.20364 16.1158 
39 1 16.4603 8.24727 13.435 
40 1 16.633 9.4865 14.2965 
63 1 17.9536 9.5497 21.7936 
64 1 18.6792 8.34394 21.1403 
70 1 16.8914 8.9752 22.5336 
71 1 18.7229 8.27307 19.639 
72 1 20.216 11.8306 25.255 
81 1 19.9894 8.21235 21.9512 
83 1 16.4734 8.33099 24.7215 
84 1 16.9398 7.01968 23.9901 
85 1 17.5036 10.4683 24.4765 
87 1 20.0568 9.47439 22.6588 
97 1 18.2474 7.03849 21.9057 
99 1 19.8436 10.5519 24.8069 
100 1 18.4588 10.8762 23.8371 
104 1 15.1288 8.41561 25.2533 
108 1 18.8534 10.3193 22.5299 
111 1 20.5885 9.49051 23.9422 
112 1 17.1156 7.49858 22.6375 
115 1 16.6263 9.51679 23.7986 
118 1 16.8726 9.00306 15.587 
121 1 16.8295 7.01574 14.2402 
122 1 20.0538 9.48222 15.4253 
125 1 18.4391 10.8622 14.2433 
ITEM: TIMESTEP
60
ITEM: NUMBER OF ATOMS
130
ITEM: BOX BOUNDS xy xz yz pp pp pp
0.0000000000000000e+00 2.3654499999999999e+01 7.8845000000000001e+00
0.0000000000000000e+00 1.3658086643083999e+01 0.0000000000000000e+00
0.0000000000000000e+00 2.5747000000000000e+01 0.0000000000000000e+00
ITEM: ATOMS id type x y z 
18 1 10.3345 6.8142 2.6759 
28 1 5.10394 4.66238 12.9512 
31 1 9.33929 6.57101 0.408069 
62 1 8.94969 5.309 12.3792 
91 1 9.34679 6.57096 11.9275 
92 1 10.7321 6.2824 10.9765 
106 1 10.3344 6.80988 9.6652 
127 1 10.7222 6.26652 1.36915 
4 1 4.4277 5.85066 13.3459 
5 1 3.15008 5.70768 14.1921 
43 1 4.56261 6.98632 15.4394 
52 1 8.94815 5.31063 25.7021 
66 1 4.42583 5.88885 24.7855 
67 1 5.09313 7.03116 23.9025 
88 1 5.11311 4.6547 25.1884 
107 1 3.1815 5.63739 23.8419 
116 1 4.58624 6.98684 22.6086 
117 1 5.07064 7.0053 14.1492 
11 1 11.2357 7.58521 3.41453 
12 1 10.5071 8.78622 4.06736 
14 1 9.02732 11.1948 0.417634 
15 1 10.2532 11.4906 1.35702 
16 1 8.28892 8.85182 0.649464 
19 1 10.4658 8.85727 5.564 
29 1 10.942 10.0919 3.29983 
32 1 8.58412 7.62473 1.2722 
35 1 12.0834 9.64049 2.5798 
45 1 9.20022 8.92175 3.25242 
47 1 12.7134 8.82399 0.495962 
49 1 11.3833 11.0569 0.677472 
51 1 8.8365 10.1426 2.59063 
53 1 11.2295 7.57951 8.91986 
54 1 10.499 8.78635 8.26628 
56 1 9.02707 11.1973 11.9271 
57 1 8.32908 10.1007 11.0407 
58 1 11.4208 10.9278 11.6886 
60 1 12.3087 8.14392 9.62686 
61 1 10.4631 8.85679 6.76892 
73 1 9.20041 8.92705 9.08717 
75 1 12.7022 8.89939 11.7911 
76 1 12.3691 10.1254 10.9866 
79 1 9.12814 7.65538 9.79025 
80 1 8.34111 12.4388 12.3062 
89 1 10.9435 10.0923 9.01297 
93 1 8.27509 8.84708 11.6856 
95 1 10.0506 11.0066 9.69751 
105 1 10.2866 11.4114 11.0211 
109 1 8.58831 7.6206 11.0611 
110 1 12.1282 9.65164 9.68759 
114 1 8.8467 10.1493 9.75392 
119 1 8.31967 10.0958 1.30093 
120 1 12.2933 8.16573 2.68061 
123 1 12.2936 10.1278 1.23445 
124 1 9.12625 7.65536 2.54557 
128 1 10.0267 11.0194 2.65757 
6 1 5.0982 8.28043 13.5177 
13 1 9.67623 10.1983 25.1492 
17 1 9.1072 8.92491 25.1411 
30 1 9.89339 7.72497 25.0265 
34 1 11.2253 7.49295 25.1257 
36 1 8.33275 12.4312 25.7535 
46 1 11.6916 8.79569 25.1104 
50 1 11.0994 10.1708 25.2576 
55 1 9.6268 10.2017 13.0058 
59 1 11.0074 10.1581 12.9136 
74 1 11.6592 8.86226 12.9719 
78 1 11.2271 7.54163 12.943 
90 1 9.89098 7.73153 13.0533 
94 1 9.0773 8.91135 12.951 
101 1 5.08375 8.26228 24.5522 
33 1 11.6687 6.69161 0.725049 
77 1 11.6739 6.72228 11.6211 
41 1 17.7888 6.23719 13.5238 
68 1 17.8435 6.0902 24.5261 
103 1 19.1686 6.10888 22.5392 
126 1 19.1358 6.12132 15.52 
3 1 19.5847 6.90983 11.9703 
7 1 20.1026 8.27326 12.2892 
10 1 15.1234 8.43612 12.8466 
22 1 19.2962 9.42407 12.1663 
26 1 17.9516 9.61095 12.279 
38 1 17.5322 8.2835 12.2481 
42 1 18.158 7.01015 12.3465 
44 1 20.2473 11.8419 12.837 
48 1 12.5555 7.62946 1.4016 
65 1 19.5793 6.82577 0.109443 
69 1 18.1862 7.04868 -0.062179 
82 1 17.4672 8.38586 0.104074 
86 1 17.9316 9.6895 0.0933489 
96 1 14.0439 8.7157 12.3685 
98 1 19.2653 9.44235 0.163495 
102 1 19.9665 8.15861 0.0698455 
113 1 12.5463 7.66188 10.9285 
129 2 19.6107 6.76808 10.8458 
130 3 19.5485 6.80769 9.84319 
1 1 17.9601 9.55604 16.2951 
2 1 18.6985 8.34741 16.9424 
8 1 18.853 10.3266 15.5501 
9 1 18.731 8.27451 18.4388 
20 1 14.0511 8.7186 25.6978 
21 1 18.2482 7.04143 16.2029 
23 1 19.8414 10.5871 13.3012 
24 1 20.5977 9.5251 14.1506 
25 1 17.51 10.4118 13.5915 
27 1 17.0582 7.48566 15.5341 
37 1 19.9921 8.20496 16.114 
39 1 16.4608 8.23889 13.438 
40 1 16.6368 9.47811 14.2942 
63 1 17.954 9.54639 21.795 
64 1 18.6799 8.34716 21.1402 
70 1 16.8968 8.96711 22.5306 
71 1 18.7239 8.27468 19.6439 
72 1 20.2384 11.8242 25.2556 
81 1 19.9904 8.21214 21.953 
83 1 16.4719 8.32877 24.7226 
84 1 16.9375 7.01798 23.9928 
85 1 17.5098 10.4627 24.4735 
87 1 20.0667 9.4753 22.6607 
97 1 18.2482 7.04177 21.9076 
99 1 19.8513 10.5526 24.8094 
100 1 18.4701 10.8669 23.8368 
104 1 15.1279 8.41291 25.2536 
108 1 18.8587 10.3161 22.5343 
111 1 20.5989 9.49258 23.9402 
112 1 17.1151 7.49536 22.6387 
115 1 16.6287 9.51224 23.8042 
118 1 16.8772 8.99598 15.5932 
121 1 16.8187 7.0134 14.2399 
122 1 20.0647 9.48268 15.4215 
125 1 18.4496 10.8524 14.2425 
ITEM: TIMESTEP
70
ITEM: NUMBER OF ATOMS
130
ITEM: BOX BOUNDS xy xz yz pp pp pp
0.0000000000000000e+00 2.3654499999999999e+01 7.8845000000000001e+00
0.0000000000000000e+00 1.3658086643083999e+01 0.0000000000000000e+00
0.0000000000000000e+00 2.5747000000000000e+01 0.0000000000000000e+00
ITEM: ATOMS id type x y z 
18 1 10.3123 6.83229 2.67443 
28 1 5.11379 4.70354 12.976 
31 1 9.29952 6.57756 0.400611 
62 1 8.85276 5.33181 12.386 
91 1 9.30988 6.5785 11.9355 
92 1 10.6956 6.31602 10.9893 
106 1 10.3127 6.8294 9.66625 
127 1 10.6807 6.29611 1.35849 
4 1 4.4244 5.88507 13.3372 
5 1 3.13957 5.73096 14.1807 
43 1 4.56931 6.99927 15.4298 
52 1 8.84729 5.33005 25.6952 
66 1 4.43002 5.9093 24.7827 
67 1 5.10727 7.05199 23.9135 
88 1 5.13215 4.68558 25.1877 
107 1 3.18047 5.64385 23.8404 
116 1 4.60324 6.99742 22.6164 
117 1 5.08236 7.02957 14.1354 
11 1 11.2257 7.59362 3.40831 
12 1 10.4994 8.78075 4.06328 
14 1 9.02947 11.1658 0.423558 
15 1 10.2582 11.4791 1.3577 
16 1 8.24696 8.82986 0.634186 
19 1 10.4618 8.84922 5.56114 
29 1 10.9343 10.0821 3.29394 
32 1 8.53576 7.60803 1.26736 
35 1 12.0923 9.66232 2.57883 