LAMMPS (3 Mar 2020)
# Alpha
clear
units		real
dimension 3
boundary        p p p
atom_style	charge
newton on
read_data       O_1.lmp
  orthogonal box = (0 0 0) to (13.6 13.6 13.6)
  2 by 2 by 2 MPI processor grid
  reading atoms ...
  73 atoms
  read_data CPU = 0.00200179 secs

timestep 0.25

# ---------- Define Interatomic Potential ---------------------
pair_style      reax/c NULL checkqeq no
pair_coeff      * * ffield.reax C O
WARNING: Changed valency_val to valency_boc for X (../reaxc_ffield.cpp:315)
fix             2 all qeq/reax 1 0.0 10.0 1.0e-6 reax/c

#------------ Equilibration of the system -------------------------
reset_timestep 0

dump 1 all custom 10 min.lammpstrj id type x y z

minimize 1.0e-8 1.0e-8 100000 100000
WARNING: Using 'neigh_modify every 1 delay 0 check yes' setting during minimization (../min.cpp:190)
Neighbor list info ...
  update every 1 steps, delay 0 steps, check yes
  max neighbors/atom: 2000, page size: 100000
  master list distance cutoff = 12
  ghost atom cutoff = 12
  binsize = 6, bins = 3 3 3
  2 neighbor lists, perpetual/occasional/extra = 2 0 0
  (1) pair reax/c, perpetual
      attributes: half, newton off, ghost
      pair build: half/bin/newtoff/ghost
      stencil: half/ghost/bin/3d/newtoff
      bin: standard
  (2) fix qeq/reax, perpetual, copy from (1)
      attributes: half, newton off, ghost
      pair build: copy
      stencil: none
      bin: none
Per MPI rank memory allocation (min/avg/max) = 20.78 | 21.95 | 22.34 Mbytes
Step Temp E_pair E_mol TotEng Press 
       0            0   -13077.678            0   -13077.678    52932.827 
     116            0   -13355.375            0   -13355.375      14661.2 
Loop time of 2.4706 on 8 procs for 116 steps with 73 atoms

99.2% CPU use with 8 MPI tasks x no OpenMP threads

Minimization stats:
  Stopping criterion = energy tolerance
  Energy initial, next-to-last, final = 
        -13077.6777658      -13355.374783     -13355.3748028
  Force two-norm initial, final = 1802.25 32.0672
  Force max component initial, final = 781.738 12.0258
  Final line search alpha, max atom move = 0.000259717 0.0031233
  Iterations, force evaluations = 116 662

MPI task timing breakdown:
Section |  min time  |  avg time  |  max time  |%varavg| %total
---------------------------------------------------------------
Pair    | 1.7733     | 1.9202     | 1.9963     |   6.1 | 77.72
Neigh   | 0          | 0          | 0          |   0.0 |  0.00
Comm    | 0.024557   | 0.10007    | 0.24704    |  26.6 |  4.05
Output  | 0.00036484 | 0.00046024 | 0.00078953 |   0.0 |  0.02
Modify  | 0.4437     | 0.44401    | 0.44422    |   0.0 | 17.97
Other   |            | 0.005869   |            |       |  0.24

Nlocal:    9.125 ave 13 max 0 min
Histogram: 2 0 0 0 0 0 0 0 0 6
Nghost:    790.875 ave 796 max 776 min
Histogram: 2 0 0 0 0 0 0 0 0 6
Neighs:    1956.5 ave 2779 max 0 min
Histogram: 2 0 0 0 0 0 0 0 0 6

Total # of neighbors = 15652
Ave neighs/atom = 214.411
Neighbor list builds = 0
Dangerous builds = 0

###
min_style cg
minimize 1.0e-8 1.0e-8 100000 100000
WARNING: Using 'neigh_modify every 1 delay 0 check yes' setting during minimization (../min.cpp:190)
Per MPI rank memory allocation (min/avg/max) = 20.78 | 21.95 | 22.34 Mbytes
Step Temp E_pair E_mol TotEng Press 
     116            0   -13355.375            0   -13355.375    14661.194 
     117            0   -13355.375            0   -13355.375    14661.199 
Loop time of 0.0323638 on 8 procs for 1 steps with 73 atoms

98.9% CPU use with 8 MPI tasks x no OpenMP threads

Minimization stats:
  Stopping criterion = energy tolerance
  Energy initial, next-to-last, final = 
        -13355.3748047     -13355.3748047      -13355.374805
  Force two-norm initial, final = 32.0672 32.066
  Force max component initial, final = 12.0258 12.0251
  Final line search alpha, max atom move = 0.000259859 0.00312483
  Iterations, force evaluations = 1 8

MPI task timing breakdown:
Section |  min time  |  avg time  |  max time  |%varavg| %total
---------------------------------------------------------------
Pair    | 0.023815   | 0.025788   | 0.026818   |   0.7 | 79.68
Neigh   | 0          | 0          | 0          |   0.0 |  0.00
Comm    | 0.00030856 | 0.0013418  | 0.0033236  |   3.1 |  4.15
Output  | 0          | 0          | 0          |   0.0 |  0.00
Modify  | 0.0050409  | 0.0050496  | 0.0050571  |   0.0 | 15.60
Other   |            | 0.0001845  |            |       |  0.57

Nlocal:    9.125 ave 14 max 0 min
Histogram: 2 0 0 0 0 0 0 2 3 1
Nghost:    790.875 ave 797 max 775 min
Histogram: 2 0 0 0 0 0 0 0 1 5
Neighs:    1938.62 ave 2977 max 0 min
Histogram: 2 0 0 0 0 0 0 2 3 1

Total # of neighbors = 15509
Ave neighs/atom = 212.452
Neighbor list builds = 0
Dangerous builds = 0

###
fix 1 all box/relax aniso 0.0
min_style cg
minimize 1.0e-8 1.0e-8 100000 100000
WARNING: Using 'neigh_modify every 1 delay 0 check yes' setting during minimization (../min.cpp:190)
Per MPI rank memory allocation (min/avg/max) = 20.78 | 21.95 | 22.34 Mbytes
Step Temp E_pair E_mol TotEng Press Volume 
     117            0   -13355.375            0   -13355.375    14661.194     2515.456 
     932            0   -13360.894            0   -13360.894    100.76441    2532.4357 
Loop time of 4.44247 on 8 procs for 815 steps with 73 atoms

98.5% CPU use with 8 MPI tasks x no OpenMP threads

Minimization stats:
  Stopping criterion = energy tolerance
  Energy initial, next-to-last, final = 
        -13355.3748069     -13360.8934102     -13360.8935122
  Force two-norm initial, final = 932.896 10.4647
  Force max component initial, final = 555.162 4.90846
  Final line search alpha, max atom move = 2.2212e-05 0.000109027
  Iterations, force evaluations = 815 1315

MPI task timing breakdown:
Section |  min time  |  avg time  |  max time  |%varavg| %total
---------------------------------------------------------------
Pair    | 3.4319     | 3.7285     | 3.8773     |   8.3 | 83.93
Neigh   | 0          | 0          | 0          |   0.0 |  0.00
Comm    | 0.089724   | 0.23753    | 0.5342     |  32.8 |  5.35
Output  | 0.0022935  | 0.0029221  | 0.0048831  |   1.4 |  0.07
Modify  | 0.4395     | 0.4404     | 0.44114    |   0.1 |  9.91
Other   |            | 0.03308    |            |       |  0.74

Nlocal:    9.125 ave 14 max 0 min
Histogram: 2 0 0 0 0 0 0 2 3 1
Nghost:    790.875 ave 797 max 775 min
Histogram: 2 0 0 0 0 0 0 0 1 5
Neighs:    1938.62 ave 2977 max 0 min
Histogram: 2 0 0 0 0 0 0 2 3 1

Total # of neighbors = 15509
Ave neighs/atom = 212.452
Neighbor list builds = 0
Dangerous builds = 0

unfix 1
###
min_style cg
minimize 1.0e-8 1.0e-8 100000 100000
WARNING: Using 'neigh_modify every 1 delay 0 check yes' setting during minimization (../min.cpp:190)
Per MPI rank memory allocation (min/avg/max) = 20.78 | 21.95 | 22.34 Mbytes
Step Temp E_pair E_mol TotEng Press 
     932            0   -13360.894            0   -13360.894    100.76241 
    1003            0   -13362.333            0   -13362.333   -570.31071 
Loop time of 1.88588 on 8 procs for 71 steps with 73 atoms

97.7% CPU use with 8 MPI tasks x no OpenMP threads

Minimization stats:
  Stopping criterion = energy tolerance
  Energy initial, next-to-last, final = 
        -13360.8935128     -13362.3332905     -13362.3333687
  Force two-norm initial, final = 7.85205 22.2215
  Force max component initial, final = 2.56486 5.97793
  Final line search alpha, max atom move = 0.00295166 0.0176448
  Iterations, force evaluations = 71 528

MPI task timing breakdown:
Section |  min time  |  avg time  |  max time  |%varavg| %total
---------------------------------------------------------------
Pair    | 1.3406     | 1.4653     | 1.5391     |   5.1 | 77.70
Neigh   | 0          | 0          | 0          |   0.0 |  0.00
Comm    | 0.021874   | 0.095467   | 0.21973    |  19.8 |  5.06
Output  | 0.0002354  | 0.00028567 | 0.00046597 |   0.0 |  0.02
Modify  | 0.32008    | 0.32054    | 0.32072    |   0.0 | 17.00
Other   |            | 0.004325   |            |       |  0.23

Nlocal:    9.125 ave 14 max 0 min
Histogram: 2 0 0 0 0 0 0 2 3 1
Nghost:    790.875 ave 797 max 775 min
Histogram: 2 0 0 0 0 0 0 0 1 5
Neighs:    1917.38 ave 2946 max 0 min
Histogram: 2 0 0 0 0 0 0 2 3 1

Total # of neighbors = 15339
Ave neighs/atom = 210.123
Neighbor list builds = 0
Dangerous builds = 0

###
fix 1 all box/relax aniso 0.0
min_style cg
minimize 1.0e-8 1.0e-8 100000 100000
WARNING: Using 'neigh_modify every 1 delay 0 check yes' setting during minimization (../min.cpp:190)
Per MPI rank memory allocation (min/avg/max) = 20.78 | 21.95 | 22.34 Mbytes
Step Temp E_pair E_mol TotEng Press Volume 
    1003            0   -13362.333            0   -13362.333   -570.30528    2532.4357 
    1074            0   -13362.494            0   -13362.494    146.11872    2530.8562 
Loop time of 0.42363 on 8 procs for 71 steps with 73 atoms

97.9% CPU use with 8 MPI tasks x no OpenMP threads

Minimization stats:
  Stopping criterion = energy tolerance
  Energy initial, next-to-last, final = 
        -13362.3333672     -13362.4941466      -13362.494279
  Force two-norm initial, final = 44.5047 11.8026
  Force max component initial, final = 31.1793 6.90101
  Final line search alpha, max atom move = 1.57062e-05 0.000108389
  Iterations, force evaluations = 71 127

MPI task timing breakdown:
Section |  min time  |  avg time  |  max time  |%varavg| %total
---------------------------------------------------------------
Pair    | 0.32435    | 0.35403    | 0.36985    |   2.5 | 83.57
Neigh   | 0          | 0          | 0          |   0.0 |  0.00
Comm    | 0.0066     | 0.022354   | 0.052002   |  10.0 |  5.28
Output  | 0.00023752 | 0.00028822 | 0.0004694  |   0.0 |  0.07
Modify  | 0.043501   | 0.043596   | 0.043692   |   0.0 | 10.29
Other   |            | 0.003362   |            |       |  0.79

Nlocal:    9.125 ave 14 max 0 min
Histogram: 2 0 0 0 0 0 0 2 3 1
Nghost:    790.875 ave 797 max 775 min
Histogram: 2 0 0 0 0 0 0 0 1 5
Neighs:    1916.38 ave 2941 max 0 min
Histogram: 2 0 0 0 0 0 0 2 3 1

Total # of neighbors = 15331
Ave neighs/atom = 210.014
Neighbor list builds = 0
Dangerous builds = 0

unfix 1
###
min_style cg
minimize 1.0e-8 1.0e-8 100000 100000
WARNING: Using 'neigh_modify every 1 delay 0 check yes' setting during minimization (../min.cpp:190)
Per MPI rank memory allocation (min/avg/max) = 20.78 | 21.95 | 22.34 Mbytes
Step Temp E_pair E_mol TotEng Press 
    1074            0   -13362.494            0   -13362.494    146.12672 
    1127            0    -13363.63            0    -13363.63    -2316.027 
Loop time of 1.4072 on 8 procs for 53 steps with 73 atoms

98.8% CPU use with 8 MPI tasks x no OpenMP threads

Minimization stats:
  Stopping criterion = energy tolerance
  Energy initial, next-to-last, final = 
        -13362.4942771     -13363.6298459     -13363.6299183
  Force two-norm initial, final = 6.64871 7.82795
  Force max component initial, final = 1.76908 1.86939
  Final line search alpha, max atom move = 0.000799093 0.00149382
  Iterations, force evaluations = 53 390

MPI task timing breakdown:
Section |  min time  |  avg time  |  max time  |%varavg| %total
---------------------------------------------------------------
Pair    | 1.0237     | 1.1077     | 1.15       |   4.5 | 78.71
Neigh   | 0          | 0          | 0          |   0.0 |  0.00
Comm    | 0.01588    | 0.058343   | 0.14243    |  19.4 |  4.15
Output  | 0.00014445 | 0.00018369 | 0.0003238  |   0.0 |  0.01
Modify  | 0.23754    | 0.23774    | 0.23786    |   0.0 | 16.89
Other   |            | 0.003269   |            |       |  0.23

Nlocal:    9.125 ave 14 max 0 min
Histogram: 2 0 0 0 0 0 0 2 3 1
Nghost:    790.875 ave 797 max 775 min
Histogram: 2 0 0 0 0 0 0 0 1 5
Neighs:    1917.88 ave 2944 max 0 min
Histogram: 2 0 0 0 0 0 0 2 3 1

Total # of neighbors = 15343
Ave neighs/atom = 210.178
Neighbor list builds = 0
Dangerous builds = 0

undump 1
#############
#----------- Thermo ------------
reset_timestep 0
thermo  200

thermo_style    custom step temp etotal ke pe press
velocity all create 300 12345 mom yes rot yes
fix 1 all npt temp 300 300 25.0 iso 0.0 0.0 250.0

variable vpe equal pe
variable vtemp equal temp
variable vstep equal step

fix output all print 2500 "${vstep} ${vtemp} ${vpe}" file temp-tpdh-Pt.dat screen no

dump 1 all custom 2500 thermo-tpdh-Pt.lammpstrj id type x y z

run 1000000
Per MPI rank memory allocation (min/avg/max) = 19.66 | 20.95 | 21.21 Mbytes
Step Temp TotEng KinEng PotEng Press 
       0          300   -13299.244    64.385497    -13363.63   -1153.0994 
     200    205.45446   -13275.028    44.094293   -13319.122    9510.1954 
     400    281.66895   -13235.668    60.451318   -13296.119    5339.9463 
     600    299.19087   -13228.107    64.211843   -13292.319   -2194.5264 
     800    295.01324   -13243.415    63.315246   -13306.731   -3883.5447 
    1000    328.16123   -13226.425    70.429412   -13296.854   -2113.6625 
    1200     277.1002   -13222.812     59.47078   -13282.283    8974.1658 
    1400    258.20945   -13237.343    55.416479   -13292.759   -20283.274 
    1600    375.94898   -13215.879     80.68554   -13296.564   -1125.4761 
    1800     284.8578    -13233.88    61.135703   -13295.016   -7086.1324 
    2000     307.0169   -13233.272    65.891453   -13299.164   -8039.7216 
    2200    273.39495    -13243.33    58.675566   -13302.006   -1987.5228 
    2400    309.82412   -13237.259    66.493934   -13303.753    4176.5891 
    2600    329.96336    -13221.28    70.816184   -13292.096     12559.31 
    2800    275.87585   -13237.425    59.208013   -13296.633    -1578.615 
    3000     337.0605   -13213.131    72.339359    -13285.47    5370.6736 
    3200    293.17988   -13228.667    62.921774   -13291.589   -4718.3264 
    3400    296.16847   -13233.324     63.56318   -13296.887   -652.79526 
    3600    320.02261   -13214.548    68.682715    -13283.23   -1225.2996 
    3800    307.11082   -13233.772     65.91161   -13299.684   -888.64839 
    4000    276.95163   -13237.198    59.438895   -13296.637    -7976.119 
    4200    286.21591   -13240.384    61.427179   -13301.811    852.00263 
    4400    324.54685   -13221.914    69.653701   -13291.568    5081.2719 
    4600     315.4734   -13232.923    67.706373    -13300.63    6716.4616 
    4800    275.26595   -13235.949    59.077118   -13295.026     10092.63 
    5000    326.45039   -13221.962    70.062234   -13292.024   -2807.0774 
    5200    249.77813   -13243.711    53.606964   -13297.318    23884.532 
    5400    291.67443   -13232.912    62.598676   -13295.511    18409.122 
    5600    290.67254   -13224.613    62.383654   -13286.997   -6133.9748 
    5800    252.53486   -13243.344    54.198608   -13297.543   -17592.449 
    6000    307.75557   -13225.037    66.049985   -13291.087    24511.884 
    6200     304.5995   -13227.448    65.372635   -13292.821    4688.4294 
    6400     262.1931   -13242.328    56.271443   -13298.599    -4652.889 
    6600    343.86593   -13222.835     73.79993   -13296.635    784.23179 
    6800    308.27238   -13224.754    66.160902   -13290.914   -4549.4045 
    7000    325.06505   -13225.976    69.764917   -13295.741     5862.999 
    7200    245.15758   -13244.185    52.615308   -13296.801    207.14717 
    7400    283.00431   -13228.164     60.73791   -13288.902    17843.169 
    7600    303.65266   -13234.185    65.169424   -13299.354   -4570.9445 
    7800    256.97874   -13249.626    55.152346   -13304.779    6173.3002 
    8000    263.72584   -13244.214    56.600397   -13300.814   -11958.396 
    8200    299.47952   -13230.491    64.273793   -13294.765   -10289.508 
    8400    272.23442   -13232.764    58.426496   -13291.191    7084.9387 
    8600     282.5022   -13230.205    60.630149   -13290.835   -7691.6901 
    8800    367.57676   -13217.162    78.888708    -13296.05    2656.8208 
    9000    271.40953    -13233.97    58.249459    -13292.22    1964.0557 
    9200    316.18101   -13223.399    67.858239   -13291.257    3999.5745 
    9400    373.60439   -13214.143    80.182347   -13294.326    5487.0912 
    9600    303.33047   -13232.944    65.100277   -13298.045    2642.1648 
    9800    294.79671   -13239.418    63.268777   -13302.687    66.898143 
   10000    275.93525   -13242.807    59.220761   -13302.027    1802.8323 
   10200    342.35501   -13220.526    73.475659   -13294.002   -8135.4093 
   10400    291.01414   -13237.332    62.456966   -13299.789   -2553.6574 
   10600    273.75651   -13236.067    58.753163    -13294.82   -7106.9151 
   10800    287.66737   -13226.945    61.738689   -13288.684    2261.0383 
   11000    280.10093   -13230.787    60.114791   -13290.902    11095.595 
   11200     322.8277   -13223.874     69.28474   -13293.159    3232.7418 
   11400    296.23636   -13234.077    63.577751   -13297.655   -6933.7965 
   11600    297.52934   -13240.901    63.855249   -13304.756    7053.3387 
   11800    352.17423   -13225.245    75.583043   -13300.828    2517.6218 
   12000    298.17751   -13235.416    63.994356    -13299.41    1800.3951 
   12200    328.11249   -13227.452    70.418952   -13297.871   -1737.3124 
   12400    346.25303   -13218.534    74.312244   -13292.846     18319.74 
   12600    302.87386   -13237.906    65.002279   -13302.908    5016.2122 
   12800     323.3363   -13226.413    69.393895   -13295.807    -10521.79 
   13000    275.95076   -13222.105     59.22409   -13281.329    -1617.487 
   13200    291.96397   -13235.008    62.660818   -13297.669    5802.9547 
   13400    260.07114   -13241.438    55.816031   -13297.254    7807.1779 
   13600    293.14893   -13225.821    62.915131   -13288.737    7004.2617 
   13800    299.35374   -13233.619    64.246798   -13297.866   -1247.6067 
   14000    276.19575   -13237.608    59.276668   -13296.884    15094.844 
   14200    319.09131   -13220.072    68.482841   -13288.555   -17643.912 
   14400       303.12   -13232.875    65.055107    -13297.93   -5576.1247 
   14600    254.04783   -13242.185    54.523319   -13296.708    11930.444 
   14800     321.1397   -13222.474    68.922464   -13291.396    16515.551 
   15000    291.57058   -13234.111     62.57639   -13296.687    29.873749 
   15200    276.68457   -13242.653    59.381579   -13302.035   -2504.0378 
   15400    333.66083   -13231.006    71.609729   -13302.616   -3041.4731 
   15600    307.69481   -13226.338    66.036944   -13292.375    5408.2286 
   15800    249.92739   -13247.438    53.638998   -13301.077    18051.087 
   16000    292.98691    -13230.84    62.880359    -13293.72    3678.8969 
   16200     317.7284   -13230.887    68.190336   -13299.077    8072.7729 
   16400    278.87072   -13242.724    59.850766   -13302.575     9272.509 
   16600    330.08892   -13226.055     70.84313   -13296.899    1787.4957 
   16800    301.26281   -13220.773     64.65652   -13285.429   -1761.7007 
   17000    282.89326   -13238.213    60.714076   -13298.927    -4509.599 
   17200    267.81342   -13244.737    57.477667   -13302.214   -3675.0215 
   17400    302.88222   -13221.291    65.004075   -13286.295    -9978.063 
   17600    337.31989   -13231.626    72.395028   -13304.021   -1998.7296 
   17800    270.81039   -13239.525    58.120871   -13297.646    20302.366 
   18000    310.48378   -13222.461    66.635508   -13289.096    8050.9127 
   18200    286.60962   -13226.195    61.511676   -13287.707   -10045.287 
   18400    275.73926   -13237.166    59.178698   -13296.345    4791.5424 
   18600    358.08565   -13212.697    76.851743   -13289.548   -15667.977 
   18800    291.57628   -13227.134    62.577613   -13289.712   -9107.8347 
   19000    297.26134    -13225.64     63.79773   -13289.438    18338.577 
   19200    270.64043   -13245.636    58.084396    -13303.72     6645.758 
   19400     296.2822   -13238.401     63.58759   -13301.989   -2947.1097 
   19600    319.41577   -13224.761    68.552478   -13293.313     7251.793 
   19800    269.33347   -13228.732    57.803898   -13286.536    2550.2756 
   20000    274.66197   -13233.305    58.947492   -13292.253    -14447.06 
   20200    342.66321   -13215.709    73.541803    -13289.25    4530.0601 
   20400    273.59647   -13230.234    58.718816   -13288.953    13182.821 
   20600    313.76694   -13234.952    67.340135   -13302.292   -11244.358 
   20800     359.7258   -13215.207    77.203748    -13292.41      15072.6 
   21000    366.03869   -13216.127     78.55861   -13294.686    19646.748 
   21200    299.06234   -13237.144    64.184257   -13301.328   -4280.2292 
   21400    345.09709   -13227.727    74.064159   -13301.791   -1337.9585 
   21600     255.7402    -13236.17    54.886532   -13291.057   -2377.9397 
   21800    318.21061   -13231.323    68.293827   -13299.617    3237.7591 
   22000    315.00099   -13224.594    67.604983   -13292.199   -9991.2615 
   22200    248.73418   -13243.338    53.382912   -13296.721   -6225.0468 
   22400    267.22933    -13236.16    57.352312   -13293.513   -7598.1381 
   22600    312.41851   -13218.529    67.050737    -13285.58    5264.8994 
   22800    351.84703   -13230.054    75.512819   -13305.566   -2207.4217 
   23000    269.02018   -13240.357    57.736659   -13298.093   -12207.562 
   23200    295.58608   -13226.367    63.438188   -13289.806    8572.2756 
   23400    297.63788   -13236.412    63.878543   -13300.291    8611.5175 
   23600    321.12699   -13237.913    68.919737   -13306.833   -1803.5681 
   23800    336.32061    -13221.79    72.180565   -13293.971    -8186.283 
   24000    288.40469   -13239.767    61.896932   -13301.664   -3468.2993 
   24200    271.93063   -13242.159    58.361295   -13300.521    10138.626 
   24400    261.08911   -13226.629    56.034507   -13282.664    19866.586 
   24600    309.24924   -13224.028    66.370553   -13290.399    14151.688 
   24800    252.70154   -13249.217     54.23438   -13303.451   -7918.6427 
   25000    297.81173   -13233.406    63.915853   -13297.322   -1120.8803 
   25200    318.02386    -13230.19    68.253748   -13298.444   -4095.5545 
   25400    268.55676    -13251.41    57.637201   -13309.048    5126.0975 
   25600    302.81168   -13233.668    64.988934   -13298.657    174.82534 
   25800    304.76609   -13225.155    65.408387   -13290.564   -3406.9221 
   26000    313.57149   -13222.435    67.298187   -13289.733   -17176.771 
   26200    246.21612   -13240.836    52.842491   -13293.678    12718.133 
   26400    294.06359   -13227.267    63.111435   -13290.378   -5307.4795 
   26600    279.95507   -13230.823    60.083487   -13290.907   -13151.794 
   26800    297.75844   -13227.191    63.904417   -13291.095    2731.5967 
   27000    264.38644   -13243.078    56.742175   -13299.821    4042.9265 
   27200    312.64213   -13224.837    67.098731   -13291.936    13679.632 
   27400    278.49617   -13223.711    59.770381   -13283.481   -4723.3048 
   27600    300.37719   -13234.007    64.466449   -13298.474   -5172.9399 
   27800    291.54328    -13248.15    62.570531   -13310.721     7684.791 
   28000    298.36852     -13232.5    64.035352   -13296.535    2745.4616 
   28200    285.01675   -13223.676    61.169816   -13284.846   -3608.8508 
   28400     299.8687   -13237.903    64.357318    -13302.26   -2699.4209 
   28600    271.96674   -13235.102    58.369047   -13293.471   -3525.0944 
   28800    309.13754   -13223.148     66.34658   -13289.495   -19357.724 
   29000    249.54725    -13238.83    53.557413   -13292.388   -11799.073 
   29200    277.26109   -13244.387    59.505311   -13303.893    4376.6987 
   29400    246.12854   -13243.615    52.823695   -13296.439    10602.153 
   29600    303.65331   -13224.325    65.169565   -13289.495   -1257.6899 
   29800    256.69714   -13236.205     55.09191   -13291.296   -15876.435 
   30000    242.78708   -13254.828    52.106556   -13306.934   -4001.7494 
   30200    308.09787   -13230.912    66.123448   -13297.036     23293.54 
   30400    339.43654   -13222.903    72.849301   -13295.752    17443.795 
   30600    281.02736   -13239.658     60.31362   -13299.972   -13839.905 
   30800     273.0523   -13248.258    58.602027   -13306.861   -4085.3592 
   31000     298.8557   -13227.403     64.13991   -13291.543   -5808.3154 
   31200    292.93889    -13231.56    62.870054    -13294.43     7161.057 
   31400    272.59508   -13243.082      58.5039   -13301.586   -2408.1629 
   31600    312.79606   -13229.912    67.131766   -13297.044   -2987.1687 
   31800    293.10288   -13232.162    62.905248   -13295.067   -3296.5909 
   32000    320.39221   -13226.153    68.762038   -13294.915    9539.1417 
   32200    257.42619   -13240.732    55.248378    -13295.98   -11496.939 
   32400    307.49054   -13221.794    65.993104   -13287.787   -11586.931 
   32600    313.18798   -13228.916    67.215879   -13296.132   -2048.8732 
   32800    290.25369   -13234.851    62.293761   -13297.144    9653.2718 
   33000     237.1789   -13250.458    50.902938   -13301.361     4532.845 
   33200    327.11436   -13232.278    70.204736   -13302.483    153.75592 
   33400    306.19739   -13229.976     65.71557   -13295.691    1990.0262 
   33600    351.17347   -13209.744    75.368261   -13285.112   -90.098001 
   33800    302.66635   -13229.165    64.957745   -13294.123    20455.588 
   34000    301.18086   -13235.484    64.638931   -13300.123    11027.834 
   34200    317.64838   -13241.174    68.173163   -13309.347    1821.2898 
   34400    391.61715    -13221.09    84.048215   -13305.138    10061.854 
   34600    305.21578    -13233.58    65.504899   -13299.085   -11474.219 
   34800    272.58907   -13242.207    58.502609   -13300.709    3485.8172 
   35000    317.42337    -13229.36    68.124872   -13297.485    7148.1639 
   35200    282.86813    -13236.25    60.708685   -13296.959   -5569.3512 
   35400    292.20242   -13234.351    62.711994   -13297.063     4975.554 
   35600    279.90505   -13232.328    60.072753   -13292.401   -5016.2859 
   35800    345.24826   -13206.801    74.096604   -13280.898     -23854.1 
   36000     292.8972   -13227.939    62.861107     -13290.8   -7819.1462 
   36200    306.61159   -13232.172    65.804466   -13297.976    1131.2107 
   36400    272.92677   -13239.813    58.575087   -13298.388    576.17329 
   36600    320.92656   -13233.306     68.87672   -13302.183   -1862.4292 
   36800    337.54124   -13222.073    72.442535   -13294.516   -2414.8881 
   37000    292.19163   -13246.896    62.709679   -13309.605   -6658.8141 
   37200    323.35708   -13230.852    69.398355    -13300.25   -6936.9825 
   37400    282.36817   -13232.071    60.601384   -13292.672    267.91513 
   37600    288.45201   -13237.995    61.907088   -13299.902    15754.611 
   37800    352.65327   -13219.753    75.685853   -13295.439    17994.892 
   38000    279.76482     -13237.7    60.042656   -13297.742   -5676.4609 
   38200    291.05057   -13230.852    62.464786   -13293.316   -10651.535 
   38400    298.06044    -13228.68    63.969233   -13292.649   -3726.2425 
   38600    268.24686   -13248.496    57.570691   -13306.067     168.1238 
   38800    279.24854   -13230.891    59.931852   -13290.823   -5486.7317 
   39000    293.73812   -13231.784    63.041583   -13294.825   -2648.2897 
   39200    264.57919   -13244.286    56.783542    -13301.07   -3440.9496 
   39400    264.99057   -13244.501    56.871832   -13301.372    -4534.433 
   39600    300.01664   -13227.294    64.389069   -13291.684    18655.511 
   39800    305.19958   -13235.395    65.501421   -13300.897    3707.7021 
   40000    286.13903   -13237.307    61.410679   -13298.717    4340.1026 
   40200    321.89278   -13223.474    69.084088   -13292.558    10995.392 
   40400    291.47559   -13236.323    62.556003   -13298.879   -13204.252 
   40600    280.50212   -13252.456    60.200895   -13312.657    -2403.171 
   40800    295.58045   -13241.299     63.43698   -13304.736    6104.4157 
   41000    281.51791   -13232.729    60.418901   -13293.148    15221.238 
   41200    351.49386   -13217.523    75.437023    -13292.96   -16701.649 
   41400    331.51531   -13213.743    71.149259   -13284.892    6155.1652 
   41600    344.06822   -13233.497    73.843345   -13307.341   -1106.5257 
   41800    308.11828   -13237.019    66.127829   -13303.147    167.86769 
   42000    287.25874   -13224.887    61.650988   -13286.538    4876.4231 
   42200     310.7779   -13230.436    66.698632   -13297.135    4292.9587 
   42400    237.49449   -13250.985     50.97067   -13301.956   -9497.3303 
   42600    302.32876   -13236.804    64.885292    -13301.69   -1727.9962 
   42800    310.94675   -13235.359     66.73487   -13302.094    779.79909 
   43000    257.32049   -13239.082    55.225693   -13294.307   -8202.1252 
   43200    326.24806   -13219.663    70.018812   -13289.682    16764.895 
   43400    308.27933   -13229.091    66.162393   -13295.253    -7883.602 
   43600    275.52168   -13240.016       59.132   -13299.148   -10409.739 
   43800    312.04606   -13226.004    66.970801   -13292.975   -7157.7423 
   44000    336.08488   -13225.841    72.129973   -13297.971    3869.7958 
   44200    310.94843   -13233.472    66.735231   -13300.208    13335.196 
   44400    269.38825   -13239.413    57.815655   -13297.229    17762.084 
   44600    339.54794   -13230.404    72.873209   -13303.277   -5051.9178 
   44800    294.15567   -13237.387    63.131197   -13300.518    -2720.083 
   45000    277.33422   -13236.231    59.521006   -13295.752    14463.024 
   45200    292.25755   -13222.634    62.723824   -13285.358    1339.0946 
   45400    275.35989    -13243.76    59.097278   -13302.857    4244.2914 
   45600    272.60675   -13240.413    58.506403   -13298.919    4104.6045 
   45800    347.50397   -13228.987     74.58072   -13303.568    4092.2875 
   46000    277.84711   -13229.997    59.631082   -13289.628   -17669.042 
   46200    262.43012   -13225.393    56.322313   -13281.715    16549.708 
   46400    291.37768    -13241.62    62.534989   -13304.155    977.81214 
   46600    307.71787   -13235.171    66.041893   -13301.213   -8151.3418 
   46800    293.13194   -13219.766    62.911487   -13282.677    28833.595 
   47000     322.7769   -13230.918    69.273838   -13300.192    3347.9689 
   47200    271.17595     -13234.5    58.199328     -13292.7    12341.456 
   47400    283.11065   -13234.673    60.760733   -13295.434    380.33959 
   47600    356.82316   -13227.881    76.580789   -13304.462    11562.088 
   47800    380.40841   -13207.028    81.642615   -13288.671   -2115.6496 
   48000     300.7021   -13234.218     64.53618   -13298.754   -17771.858 
   48200    291.16001   -13237.392    62.488273    -13299.88     7461.715 
   48400    311.49951   -13222.768    66.853502   -13289.621    2194.1683 
   48600    256.38307     -13235.8    55.024505   -13290.825   -15320.923 
   48800     286.5315   -13238.192    61.494909   -13299.687   -756.09226 
   49000    349.36409   -13226.523    74.979936   -13301.503    8021.0525 
   49200    307.85047   -13230.701    66.070351   -13296.771     488.8961 
   49400    290.36408   -13248.347    62.317452   -13310.664    811.32959 
   49600    332.95231   -13238.168    71.457666   -13309.626   -3799.6469 
   49800    260.06277   -13233.756    55.814237   -13289.571   -18347.878 
   50000    352.78828    -13215.81    75.714829   -13291.525    24561.201 
   50200    297.88145   -13240.644    63.930817   -13304.575   -8784.1016 
   50400    312.18333   -13230.266    67.000263   -13297.267   -5773.9843 
   50600     284.7829   -13225.762    61.119629   -13286.882    18428.651 
   50800    294.57361   -13244.093    63.220895   -13307.314   -1647.2291 
   51000    318.98745   -13225.989    68.460551   -13294.449   -3270.1413 
   51200    297.48029   -13231.869    63.844721   -13295.714   -8912.5589 
   51400    271.27969   -13248.477    58.221593   -13306.698   -21285.575 
   51600    328.30653   -13227.898    70.460596   -13298.359   -6823.3291 
   51800     304.9408   -13233.675    65.445884   -13299.121    758.25186 
   52000    282.12709   -13249.251    60.549644   -13309.801    19737.432 
   52200    308.52647   -13238.198    66.215434   -13304.413    3833.8591 
   52400    337.49381   -13229.801    72.432355   -13302.233    -1593.231 
   52600    313.74105   -13223.923    67.334579   -13291.258    4367.9272 
   52800    296.10867   -13225.485    63.550346   -13289.035    -4086.662 
   53000    322.03983   -13231.487    69.115648   -13300.603   -3430.7753 
   53200    383.03743    -13213.13    82.206851   -13295.337   -13543.498 
   53400    270.19579   -13230.585    57.988967   -13288.574    14310.433 
   53600    283.37467   -13244.501    60.817397   -13305.318    10472.033 
   53800    294.20256   -13231.372    63.141261   -13294.513   -14297.409 
   54000     291.2675   -13223.394    62.511343   -13285.906    375.79935 
   54200    284.33084    -13238.88    61.022607   -13299.903   -11811.772 
   54400    251.03412   -13237.907    53.876522   -13291.784    2047.6563 
   54600     292.0628   -13220.417    62.682029   -13283.099    3090.7206 
   54800    261.18059   -13241.198     56.05414   -13297.252    10623.469 
   55000    287.32843   -13233.578    61.665946   -13295.244   -764.60273 
   55200    311.22441   -13238.294    66.794461   -13305.088    3029.0504 
   55400    281.28542   -13241.255    60.369005   -13301.624   -13994.499 
   55600    290.05197   -13225.167    62.250467   -13287.418   -1978.4503 
   55800    269.04961   -13239.205    57.742976   -13296.948    3787.9527 
   56000    283.19394   -13238.523    60.778608   -13299.301   -49.821102 
   56200    272.99334   -13230.971    58.589373    -13289.56    440.12444 
   56400    269.20013    -13243.85     57.77528   -13301.625    6212.2583 
   56600    308.94853   -13227.164    66.306016    -13293.47    2033.4419 
   56800    289.83934   -13227.657    62.204834   -13289.862   -18556.026 
   57000    251.93503   -13246.036    54.069874   -13300.106   -3493.6974 
   57200    298.51403   -13237.068     64.06658   -13301.134   -1496.3617 
   57400    306.10235   -13233.023    65.695173   -13298.718   -7502.8308 
   57600    355.04143   -13218.274    76.198396   -13294.473   -9931.5347 
   57800    318.27315   -13232.186    68.307249   -13300.493    12150.058 
   58000     260.7893   -13230.205    55.970162   -13286.175    3926.6661 
   58200    350.75415   -13218.333    75.278268   -13293.611   -6110.1064 
   58400    299.64051   -13230.987    64.308344   -13295.295    7515.4786 
   58600    324.03938    -13232.57    69.544789   -13302.115    4809.8086 
   58800    285.09719   -13250.143     61.18708    -13311.33    9289.5727 
   59000    341.74077    -13234.36    73.343831   -13307.704   -5095.7821 
   59200    324.90448   -13228.535    69.730455   -13298.266    -18006.86 
   59400    259.31826   -13246.081     55.65445   -13301.735   -15988.289 
   59600    288.65783   -13234.571    61.951259   -13296.522     35.39048 
   59800    323.66799   -13217.838    69.465082   -13287.303    10471.133 
   60000    293.05238    -13238.75    62.894411   -13301.644   -1504.3665 
   60200    253.38579   -13240.779    54.381233    -13295.16    12474.947 
   60400    305.10309    -13225.24    65.480713   -13290.721   -12532.094 
   60600    280.00591   -13233.816      60.0944   -13293.911    8820.9568 
   60800    303.28509   -13219.092    65.090537   -13284.183    7591.7252 
   61000    293.07336   -13220.581    62.898914   -13283.479   -5517.2336 
   61200    288.54498   -13236.598     61.92704   -13298.526   -6924.3655 
   61400    287.49976   -13240.996    61.702717   -13302.699    10835.907 
   61600    256.46251   -13247.652    55.041553   -13302.694    19700.884 
   61800    316.51346   -13232.015    67.929589   -13299.944   -2697.0474 
   62000    332.08762   -13219.545    71.272088   -13290.817    17254.522 
   62200    307.00304   -13217.669    65.888477   -13283.558   0.59862811 
   62400    283.22738   -13229.506    60.785786   -13290.291   -11765.102 
   62600    322.52098   -13231.413    69.218911   -13300.632   -2549.0551 
   62800    309.57959   -13247.851    66.441452   -13314.293    379.55365 
   63000    295.99476   -13234.267    63.525899   -13297.793    -1427.701 
   63200    273.35627   -13226.713    58.667264    -13285.38    -394.1323 
   63400    245.00925   -13245.208    52.583475   -13297.791    4699.3503 
   63600    298.23977   -13230.652    64.007719   -13294.659   -4561.6549 
   63800    298.35817   -13225.415     64.03313   -13289.448   -12866.597 
   64000    283.05129   -13236.488    60.747992   -13297.236    7978.9419 
   64200    279.32723   -13247.026    59.948743   -13306.975    15178.955 
   64400    304.67376   -13230.071    65.388572    -13295.46     15258.84 
   64600    292.58832   -13235.381    62.794816   -13298.176   -15940.833 
   64800     259.6684   -13242.618    55.729596   -13298.348   -12688.832 
   65000    317.93168   -13223.191    68.233964   -13291.425   -9410.7507 
   65200    315.50382   -13201.679    67.712901   -13269.392    7705.4179 
   65400    289.69191   -13225.337    62.173193    -13287.51    2607.9829 
   65600    305.75178    -13236.57    65.619935    -13302.19   -4108.5084 
   65800    294.24352   -13240.223    63.150051   -13303.373   -8647.1749 
   66000    318.14236    -13227.42     68.27918   -13295.699   -4397.4319 
   66200    238.81356   -13244.878    51.253765   -13296.132     8511.073 
   66400    235.72961    -13262.93    50.591894   -13313.522   -5410.9758 
   66600    324.16335    -13238.46    69.571394   -13308.031   -3615.6872 
   66800    291.91738   -13226.219    62.650818    -13288.87    23356.047 
   67000    346.02867   -13218.497    74.264094   -13292.761   -24473.173 
   67200    276.05813   -13236.051    59.247132   -13295.298   -8212.7025 
   67400    291.44994   -13226.149    62.550498     -13288.7   -2558.1415 
   67600    338.21808   -13220.855    72.587796   -13293.443   -11980.251 
   67800    308.88377   -13230.192    66.292116   -13296.484    7361.0494 
   68000     331.4845   -13232.219    71.142648   -13303.362    8074.6136 
   68200    322.46279   -13229.577    69.206423   -13298.783    7597.0685 
   68400    341.34383   -13224.013     73.25864   -13297.272    410.19609 
   68600    306.73145   -13242.916    65.830189   -13308.746    9654.9492 
   68800    322.62261   -13230.388    69.240724   -13299.629    2612.1866 
   69000    356.89113   -13212.723    76.595375   -13289.319   -11684.651 
   69200    350.70741   -13227.044    75.268236   -13302.312    8529.4843 
   69400    286.81577   -13236.552    61.555919   -13298.108    8109.5102 
   69600    324.02888   -13229.471    69.542534   -13299.013   -11379.438 
   69800    323.05125   -13228.499    69.332717   -13297.832   -19947.233 
   70000    301.06273   -13239.111    64.613578   -13303.724   -7424.5654 
   70200    259.20764    -13245.24     55.63071   -13300.871   -3434.4628 
   70400    359.31946    -13227.12     77.11654   -13304.237    6202.3382 
   70600    317.84397   -13232.973     68.21514   -13301.188    3483.4702 
   70800     303.4048   -13237.064     65.11623    -13302.18   -3758.3461 
   71000    269.08147   -13239.861    57.749814   -13297.611    15580.826 
   71200    324.23048   -13218.483    69.585801   -13288.069   -5754.9269 
   71400    307.39688   -13238.626    65.973004   -13304.599    1315.3689 
   71600    287.63421   -13241.043    61.731572   -13302.775    13579.977 
   71800    344.90366   -13215.504    74.022646   -13289.526   -8983.8225 
   72000    290.22096   -13231.923    62.286737    -13294.21    4970.9877 
   72200    301.87072   -13234.234    64.786989   -13299.021   -2134.1218 
   72400    329.37169   -13216.983    70.689201   -13287.672   -9418.9067 
   72600    312.04853   -13232.784    66.971331   -13299.755   -6698.6473 
   72800    296.77425   -13242.963    63.693192   -13306.657    7968.7136 
   73000     352.2374   -13223.724      75.5966    -13299.32    -421.5021 
   73200    329.40819   -13224.096    70.697034   -13294.793   -4199.3564 
   73400    265.85264   -13246.526    57.056847   -13303.582    9245.3833 
   73600    303.00388   -13232.567    65.030184   -13297.597    394.85936 
   73800    267.18596   -13232.607    57.343003    -13289.95    8897.1199 
   74000    320.16509   -13220.126    68.713295   -13288.839    -4622.968 
   74200    292.50307   -13235.307    62.776518   -13298.084    13113.565 
   74400    277.78402    -13243.49    59.617541   -13303.108   -239.99997 
   74600    310.39474   -13226.229    66.616398   -13292.846   -913.86321 
   74800    337.44515   -13219.621    72.421912   -13292.043   -461.91084 
   75000     262.2702   -13244.567    56.287991   -13300.855   -12519.416 
   75200    239.77076   -13239.525    51.459199   -13290.984   -2536.6946 
   75400     309.4976   -13232.397    66.423856   -13298.821    3883.9023 
   75600    313.64519   -13236.485    67.314005   -13303.799    2973.7006 
   75800    239.57751   -13248.493    51.417723   -13299.911    18725.606 
   76000    281.69043   -13229.935    60.455928   -13290.391   -5325.9087 
   76200    310.54524   -13239.196    66.648699   -13305.845     5943.073 
   76400    263.50566   -13240.527    56.553143    -13297.08   -2294.4456 
   76600     332.7145   -13223.628    71.406628   -13295.035   -11719.951 
   76800    287.67901   -13228.969    61.741186   -13290.711   -1479.9778 
   77000    359.65831   -13215.229    77.189263   -13292.418   -347.46531 
   77200    281.51162   -13237.727    60.417552   -13298.145    13795.304 
   77400     240.1331   -13246.146    51.536963   -13297.683    3837.8208 
   77600    306.66317    -13224.74    65.815536   -13290.556    386.87842 
   77800    297.14651   -13231.726    63.773086   -13295.499    19288.087 
   78000    274.57343   -13249.616    58.928489   -13308.544   -5640.0979 
   78200    281.17087   -13245.322     60.34442   -13305.667   -11472.603 
   78400    298.65909   -13228.572    64.097714    -13292.67    -3007.434 
   78600    342.94419   -13222.825    73.602107   -13296.427    3858.9154 
   78800    270.25204   -13238.311     58.00104   -13296.312    7012.4292 
   79000    327.70457   -13221.448    70.331406   -13291.779   -162.43563 
   79200    304.43247   -13228.554    65.336787    -13293.89   -11917.978 
   79400    265.45213   -13237.202    56.970891   -13294.173   -5942.9516 
   79600    286.45878   -13224.592    61.479302   -13286.071    3389.2444 
   79800    315.17327   -13216.837     67.64196   -13284.479    7881.4429 
   80000    259.52014    -13236.03    55.697777   -13291.728    12134.784 
   80200     290.5173    -13235.64    62.350337   -13297.991     3495.823 
   80400    344.23557   -13223.624    73.879261   -13297.504    9897.8273 
   80600    283.25774   -13235.297    60.792301    -13296.09   -6169.0806 
   80800    325.09855   -13226.705    69.772107   -13296.477   -2242.3934 
   81000    299.04501    -13233.14    64.180539    -13297.32   -1873.5517 
   81200    294.05913    -13236.67    63.110478    -13299.78   -11835.695 
   81400    289.81833   -13227.992    62.200324   -13290.193    9290.0227 
   81600    289.35306   -13240.443    62.100469   -13302.544   -8702.4545 
   81800    260.05895   -13240.562    55.813415   -13296.375    5176.2516 
   82000    281.37816   -13230.723     60.38891   -13291.111    4471.1093 
   82200    260.69352   -13241.945    55.949607   -13297.895   -966.66768 
   82400    293.44461   -13225.204     62.97859   -13288.182    8461.7776 
   82600    310.66885   -13225.759    66.675229   -13292.434   -714.46694 
   82800    267.73351   -13241.735    57.460517   -13299.195    902.60197 
   83000    301.02059   -13233.592    64.604534   -13298.196   -13511.726 
   83200    329.08567   -13223.816    70.627815   -13294.444   -15328.004 
   83400    327.55394   -13225.721    70.299077    -13296.02    22141.634 
   83600    314.76665   -13233.461    67.554691   -13301.015    7445.0399 
   83800     319.7242   -13226.492    68.618672   -13295.111   -3358.0798 
   84000    319.27271   -13225.192    68.521773   -13293.714    4729.0417 
   84200    293.29704   -13238.936     62.94692   -13301.883   -13237.645 
   84400    336.33751   -13221.679    72.184193   -13293.864    5631.1732 
   84600    345.63912   -13213.038    74.180489   -13287.218    11673.218 
   84800    321.67468    -13238.51    69.037282   -13307.548     8022.834 
   85000    268.64359    -13240.48    57.655838   -13298.136    5414.6163 
   85200    326.16077   -13227.126    70.000078   -13297.126   -4629.8651 
   85400    276.50921   -13248.442    59.343944   -13307.786   -868.59231 
   85600    318.27055   -13235.115    68.306691   -13303.421    4916.7455 
   85800    274.13766   -13231.924    58.834964   -13290.759   -14598.424 
   86000    309.34236   -13221.271    66.390538   -13287.661    4753.8615 
   86200    320.93429   -13220.765    68.878378   -13289.644   -230.32287 
   86400    297.83121   -13239.862    63.920035   -13303.782   -9090.0373 
   86600     338.5544   -13223.605    72.659977   -13296.265    19088.193 
   86800    255.11598   -13245.861    54.752563   -13300.613    8506.9018 
   87000    298.06563   -13239.476    63.970347   -13303.446   -8680.8692 
   87200    317.06191   -13225.272    68.047295   -13293.319   -4044.5051 
   87400    308.12468   -13243.675    66.129202   -13309.804   -11733.283 
   87600    287.08865   -13245.147    61.614485   -13306.762   -4300.1313 
   87800    277.81341   -13231.357    59.623849    -13290.98    6771.2898 
   88000    320.99882   -13229.035    68.892229   -13297.927   -551.42245 
   88200    259.70558   -13246.058    55.737577   -13301.796    4049.1802 
   88400    311.23691   -13229.623    66.797145   -13296.421   -9320.4322 
   88600    313.50339   -13234.871    67.283572   -13302.154    6774.9244 
   88800    255.96778   -13244.463    54.935377   -13299.398   -1888.5685 
   89000    321.20304   -13229.376    68.936057   -13298.312   -4518.2854 
   89200    276.39637   -13231.627    59.319725   -13290.947    16514.363 
   89400    304.59819   -13233.341    65.372353   -13298.713    2080.4952 
   89600    273.08406   -13238.217    58.608844   -13296.826    2615.2348 
   89800    335.93816    -13216.97    72.098484   -13289.068    828.92982 
   90000    287.78555   -13230.813    61.764053   -13292.577   -3007.6031 
   90200    320.78663   -13233.934    68.846688   -13302.781   -6934.6889 
   90400    308.17324   -13229.074    66.139623   -13295.214   -5266.7157 
   90600    274.58705   -13248.496    58.931413   -13307.427   -827.46947 
   90800    287.81078   -13237.829    61.769468   -13299.598    5193.0595 
   91000    338.19695   -13227.128    72.583262   -13299.711    12385.521 
   91200    273.53678    -13225.34    58.706005   -13284.046   -5743.0152 
   91400    299.43229   -13234.295    64.263656   -13298.559    6068.0044 
   91600    287.44039   -13243.647    61.689974   -13305.337   -9337.0523 
   91800    331.87253   -13221.294    71.225927    -13292.52    14701.823 
   92000    323.12883   -13226.552    69.349368   -13295.901   -9432.8111 
   92200    273.06073    -13246.04    58.603837   -13304.644   -4049.4994 
   92400    279.18536   -13238.152    59.918293    -13298.07   -16191.703 
   92600    316.50625    -13227.93    67.928042   -13295.858     1599.762 
   92800    256.78479   -13246.875     55.11072   -13301.986     318.3729 
   93000    265.70796   -13243.018    57.025797   -13300.043   -274.49734 
   93200    321.33598   -13235.251     68.96459   -13304.216    5502.3474 
   93400    335.19703   -13218.446    71.939424   -13290.385    14267.008 
   93600    270.72382   -13240.478    58.102292    -13298.58    10446.199 
   93800    286.59302   -13225.612    61.508114    -13287.12   -1770.0788 
   94000    237.50823   -13231.383    50.973617   -13282.357   -5248.1551 
   94200    283.74496   -13249.514    60.896868   -13310.411    8833.5218 
   94400     258.8691   -13235.259    55.558052   -13290.817    6361.5937 
   94600    291.18202    -13234.02    62.492996   -13296.513    1565.2995 
   94800     269.2289   -13244.664    57.781454   -13302.445   -659.61046 
   95000    316.21866   -13229.719    67.866319   -13297.586    2313.9513 
   95200    302.24774   -13238.562    64.867902    -13303.43     1662.086 
   95400    288.51519   -13234.474    61.920647   -13296.395   -13078.971 
   95600    308.85347   -13226.359    66.285614   -13292.645     7639.986 
   95800    251.86593   -13246.199    54.055045   -13300.254    953.58534 
   96000    283.49296   -13237.744    60.842784   -13298.587    10140.802 
   96200     263.5513   -13231.042    56.562938   -13287.605    10772.503 
   96400    260.99954   -13245.246    56.015284   -13301.262    16408.435 
   96600    273.69303   -13237.575    58.739539   -13296.315    4526.8865 
   96800    313.95762   -13233.249    67.381057   -13300.631    4690.6745 
   97000    281.00205   -13232.398    60.308188   -13292.707    1188.6989 
   97200    315.79313   -13217.257    67.774993   -13285.032   -23143.602 
   97400    279.52225    -13238.02    59.990596    -13298.01   -14370.345 
   97600    290.03044   -13236.315    62.245847    -13298.56    14631.797 
   97800    349.71427   -13216.451     75.05509   -13291.506    14786.003 
   98000    291.84455   -13244.198    62.635187   -13306.833    1515.3243 
   98200    245.22598   -13242.405    52.629988   -13295.035   -13147.692 
   98400    303.33221   -13225.418     65.10065   -13290.519   -9512.5902 
   98600     302.5444   -13223.942    64.931572   -13288.873    11214.975 
   98800    276.68262   -13243.311    59.381159   -13302.692   -5479.5058 
   99000      331.845   -13223.992    71.220018   -13295.212     -1940.31 
   99200    284.32036   -13228.824    61.020358   -13289.844    24609.623 
   99400      320.618   -13235.064    68.810497   -13303.874   -7937.2649 
   99600    238.25651   -13253.168    51.134214   -13304.302    6645.1126 
   99800     287.8583   -13235.195    61.779666   -13296.975   -4874.1236 
  100000    313.19777   -13223.862    67.217981   -13291.079   -9041.3955 
  100200    246.61918   -13246.509    52.928996   -13299.438    8925.7825 
  100400    288.15986   -13233.031    61.844386   -13294.876    11516.391 
  100600    322.85348   -13229.681    69.290274   -13298.971    9554.4749 
  100800    274.44595   -13237.162     58.90113   -13296.063    8481.6943 
  101000    350.86403   -13214.482     75.30185   -13289.784   -16602.508 
  101200    297.40873   -13234.977    63.829362   -13298.806   -7353.8933 
  101400    289.30815   -13236.555    62.090831   -13298.646   -1697.2812 
  101600    357.74931   -13212.562    76.779557   -13289.342   -9295.0367 
  101800    307.98728   -13233.846    66.099714   -13299.945   -23372.817 
  102000    285.16738   -13237.488    61.202145    -13298.69    7270.7902 
  102200    348.47031   -13226.312    74.788115     -13301.1    19732.539 
  102400    266.02704   -13223.812    57.094278   -13280.906    15262.545 
  102600     317.3378   -13235.319    68.106506   -13303.425    10567.142 
  102800    332.28329   -13226.394    71.314082   -13297.708    -6505.085 
  103000    244.53968    -13242.83    52.482697   -13295.313     5159.815 
  103200    303.74926   -13232.854    65.190158   -13298.044   -21691.277 
  103400    370.98078   -13219.146    79.619273   -13298.766     13319.66 
  103600    335.03763   -13230.807    71.905215   -13302.712   -2973.3821 
  103800    301.84305   -13237.733    64.781049   -13302.514   -3816.0801 
  104000    280.89382   -13235.497     60.28496   -13295.782    -3971.837 
  104200    306.85278   -13223.915     65.85623   -13289.772    10285.487 
  104400     288.1384   -13245.108    61.839781   -13306.948   -6390.2399 
  104600    278.76723   -13246.607    59.828556   -13306.435   -8848.0794 
  104800    302.66777   -13231.485    64.958049   -13296.443    -7247.029 
  105000    299.80063   -13225.902    64.342708   -13290.245    11962.632 
  105200    282.90522   -13239.428    60.716644   -13300.145   -3469.8355 
  105400    288.80546   -13228.873    61.982943   -13290.856   -7740.3715 
  105600    286.11281   -13225.536    61.405051   -13286.941    15429.942 
  105800    280.84702    -13249.06    60.274917   -13309.335    3376.2216 
  106000    327.67019   -13238.068    70.324027   -13308.392    3243.0633 
  106200    354.31224     -13208.6    76.041898   -13284.642   -3140.1439 
  106400    335.79852   -13225.381    72.068515   -13297.449    6448.2583 
  106600    302.27672   -13238.599    64.874124   -13303.474   -11254.922 
  106800    325.96624   -13228.445    69.958328   -13298.404   -4996.7634 
  107000    295.45631   -13219.631    63.410338   -13283.041   -1084.6768 
  107200    316.36961   -13233.841    67.898715    -13301.74    9278.9418 
  107400    345.96513   -13233.061    74.250455   -13307.312    3101.5104 
  107600    290.04612   -13234.703    62.249212   -13296.952    4726.1514 
  107800    328.80902   -13230.517     70.56844   -13301.085   -11452.777 
  108000     245.2019   -13245.227    52.624821   -13297.852   -12621.022 
  108200     289.8891    -13231.04    62.215512   -13293.255    -2636.634 
  108400    308.58673    -13231.21    66.228368   -13297.438    1714.5989 
  108600    261.55152   -13244.671    56.133749   -13300.805   -4328.8356 
  108800    314.89801   -13233.971    67.582883   -13301.554   -12402.028 
  109000    318.89886   -13228.393    68.441538   -13296.835    10552.761 
  109200    278.54775   -13233.812    59.781452   -13293.593   -5550.3938 
  109400    263.35505   -13238.015    56.520819   -13294.536    -189.2126 
  109600    294.35421   -13225.756    63.173807   -13288.929   -2839.8202 
  109800    274.08077   -13233.052    58.822756   -13291.875   -5158.7906 
  110000    303.40285   -13238.258    65.115811   -13303.374    295.17489 
  110200    301.50927   -13233.601    64.709413   -13298.311    2007.3164 
  110400    304.30876   -13222.001    65.310237   -13287.312   -6912.1892 
  110600    292.35644   -13245.011    62.745048   -13307.756   -8811.2286 
  110800    288.72047   -13231.732    61.964703   -13293.697    1041.1987 
  111000    318.09559   -13222.957    68.269141   -13291.226    18111.624 
  111200    314.40465   -13238.801       67.477   -13306.278    7052.5156 
  111400     303.6416   -13233.414    65.167051   -13298.581   -1487.8522 
  111600    321.93839   -13233.669    69.093878   -13302.763    3715.4769 
  111800    305.14696   -13237.815    65.490129   -13303.305   -8186.2157 
  112000    322.40174   -13232.044    69.193321   -13301.237   -6357.2838 
  112200    327.40642   -13215.258    70.267418   -13285.525   -40.664234 
  112400    288.42836   -13230.821    61.902011   -13292.723    1819.7849 
  112600    286.74492   -13231.037    61.540715   -13292.578    5613.1599 
  112800    293.15907    -13228.19    62.917308   -13291.108    -1031.099 
  113000    268.82167   -13239.865    57.694057   -13297.559   -3810.8153 
  113200    275.80581   -13242.764    59.192981   -13301.957   -14319.929 
  113400    300.34025   -13224.632     64.45852   -13289.091    11104.375 
  113600    318.17264   -13213.447    68.285679   -13281.733   -1814.9027 
  113800    241.78722   -13233.745    51.891967   -13285.637    14533.614 
  114000    323.97505    -13221.11    69.530983   -13290.641    1922.4716 
  114200    350.94053     -13206.3    75.318269   -13281.619   -2671.4662 
  114400    264.25383   -13230.921    56.713715   -13287.635    2112.3978 
  114600    283.76567   -13245.387    60.901313   -13306.288    -11076.68 
  114800     271.2392   -13240.666    58.212902   -13298.879   -6503.1173 
  115000    320.35371   -13231.059    68.753776   -13299.813    6323.0113 
  115200     262.5317   -13238.639    56.344114   -13294.983   -12688.065 
  115400    347.36979   -13222.052    74.551922   -13296.603    7855.1032 
  115600    292.86093   -13236.307    62.853322    -13299.16    9745.0369 
  115800     299.7823   -13228.679    64.338774   -13293.018   -10972.827 
  116000     317.0958   -13214.518    68.054569   -13282.573    9955.9118 
  116200    279.41978   -13231.163    59.968606   -13291.131   -12008.114 
  116400    326.90502   -13228.649    70.159808   -13298.808   -7855.4841 
  116600     287.1527   -13250.071    61.628231   -13311.699    1158.4574 
  116800    309.24698   -13234.267    66.370069   -13300.637   -6221.3596 
  117000    300.86121   -13237.363    64.570329   -13301.934    23683.501 
  117200    232.07944   -13257.095      49.8085   -13306.903   -6075.9288 
  117400     295.9099   -13229.685    63.507687   -13293.193    2058.3163 
  117600    289.10319   -13226.764    62.046841    -13288.81    19379.273 
  117800    302.44615   -13229.275    64.910486   -13294.185   -6235.6755 
  118000    312.17249   -13225.932    66.997936    -13292.93    7499.1866 
  118200    293.62742   -13232.332    63.017825    -13295.35    13911.746 
  118400    296.09901   -13248.545    63.548272   -13312.093    15207.614 
  118600    319.73489   -13240.245    68.620965   -13308.866   -8150.3394 
  118800    316.87944    -13231.54    68.008134   -13299.548   -5797.5039 
  119000    371.62964   -13224.746     79.75853   -13304.504    -11.65596 
  119200    274.87281    -13236.65    58.992742   -13295.643    3015.3163 
  119400    286.37824   -13233.268    61.462018    -13294.73    1712.6582 
  119600    303.93719   -13222.097     65.23049   -13287.328   -2170.0448 
  119800    271.58203   -13237.084    58.286479   -13295.371   -23412.546 
  120000    246.62417   -13253.712    52.930065   -13306.642    6067.6679 
  120200    267.46899   -13239.188    57.403747   -13296.592   -2416.2657 
  120400    317.29424   -13227.514    68.097158   -13295.611   -7824.4828 
  120600    278.80347   -13239.468    59.836333   -13299.304    24822.892 
  120800    285.23283   -13245.093    61.216192    -13306.31    -13191.24 
  121000    317.17872   -13228.447    68.072365   -13296.519   -9236.0757 
  121200    264.93199   -13236.221     56.85926    -13293.08    19869.677 
  121400    320.03475    -13213.19    68.685321   -13281.876   -4285.2646 
  121600    295.18146   -13229.732     63.35135   -13293.083    485.89568 
  121800    283.42522   -13237.459    60.828246   -13298.288   -3032.8869 
  122000    305.29016   -13236.928    65.520863   -13302.449    6533.6385 
  122200     319.9233   -13221.338    68.661402       -13290    345.37896 
  122400    317.97833   -13233.668    68.243976   -13301.912    11333.875 
  122600     276.9611   -13239.223    59.440926   -13298.664    11511.057 
  122800    293.77535   -13232.602    63.049574   -13295.651   -816.99146 
  123000    352.44629   -13211.823    75.641433   -13287.464   -5852.1072 
  123200    290.97652   -13232.218    62.448892   -13294.667   -10689.394 
  123400    280.49167   -13233.085    60.198651   -13293.283   -7605.8849 
  123600    307.00448   -13220.258    65.888786   -13286.147   -4805.8374 
  123800    298.44189   -13231.521    64.051097   -13295.572   -9547.4961 
  124000    272.60588   -13235.306    58.506218   -13293.812    3256.7432 
  124200    330.35627   -13211.451    70.900509   -13282.351    4513.1428 
  124400    337.11422   -13224.259    72.350888    -13296.61   -3972.8028 
  124600    289.76293   -13240.952    62.188433   -13303.141   -607.81706 
  124800    271.23808   -13235.977    58.212662    -13294.19    332.75455 
  125000    307.56391   -13221.803     66.00885   -13287.812   -1480.1784 
  125200    294.01543   -13239.392    63.101099   -13302.493    2788.9261 
  125400    321.27925   -13237.311    68.952414   -13306.264    2410.3327 
  125600    302.44643   -13231.486    64.910546   -13296.396   -6371.2169 
  125800    304.15074   -13234.051    65.276321   -13299.328   -9564.4144 
  126000    275.61846   -13236.182    59.152772   -13295.335    5782.3799 
  126200    295.67184   -13241.307    63.456596   -13304.764     1200.929 
  126400    319.07708    -13221.01    68.479788    -13289.49   -1087.8567 
  126600    303.49852     -13233.4    65.136343   -13298.536   -7241.3079 
  126800    270.78343   -13233.316    58.115086   -13291.431   -2323.6229 
  127000    299.47968   -13225.824    64.273827   -13290.097    5163.9535 
  127200     249.6156   -13245.112    53.572082   -13298.685   -1989.8292 
  127400    304.20898   -13227.322    65.288821   -13292.611    51.239462 
  127600    314.97549   -13231.959    67.599512   -13299.558   -6695.4391 
  127800    254.71722   -13240.391    54.666983   -13295.058   -9572.7428 
  128000    301.71762   -13246.349     64.75413   -13311.103    12458.219 
  128200    340.59181   -13225.146    73.097243   -13298.243   -3788.3901 
  128400    283.66982   -13236.914    60.880742   -13297.794   -9522.9435 
  128600    291.96941   -13241.086    62.661984   -13303.748    3085.2508 
  128800    330.45871   -13216.169    70.922494   -13287.091    8418.8027 
  129000    296.43281   -13232.965    63.619913   -13296.585    3677.6862 
  129200    301.85555   -13217.856    64.783732   -13282.639   -8329.9521 
  129400    328.78689   -13223.974    70.563691   -13294.538   -8087.5542 
  129600    302.04475   -13234.285    64.824337   -13299.109   -13740.793 
  129800    252.00526   -13250.069    54.084947   -13304.154    2035.1581 
  130000     248.4726   -13254.795    53.326772   -13308.122    5157.6177 
  130200    319.47268   -13233.506     68.56469    -13302.07    -6162.561 
  130400    299.96521    -13232.94     64.37803   -13297.318    8324.6511 
  130600    267.79458   -13224.225    57.473624   -13281.698   -1677.9578 
  130800    328.35544   -13221.881    70.471095   -13292.352   -759.23751 
  131000    309.52207   -13228.678    66.429108   -13295.107    1288.7605 
  131200    283.97332     -13234.4    60.945877   -13295.346    6806.9292 
  131400    264.56275   -13248.959    56.780015   -13305.739     10191.49 
  131600    303.52642   -13234.845    65.142331   -13299.987   -8137.2732 
  131800    302.47277   -13228.364    64.916199   -13293.281    12390.352 
  132000    280.20222   -13248.904    60.136531   -13309.041   -14529.203 
  132200    263.68083   -13234.971    56.590739   -13291.561   -6071.8791 
  132400    288.79943   -13231.705     61.98165   -13293.687    8663.3169 
  132600    303.91288   -13237.916    65.225272   -13303.141   -2936.0801 
  132800     359.9003   -13214.025      77.2412   -13291.266    5500.2823 
  133000    299.86484   -13231.206    64.356489   -13295.562   -12340.072 
  133200    316.24612   -13240.501    67.872211   -13308.373    6260.6668 
  133400    330.20423   -13231.314    70.867878   -13302.182    7439.2475 
  133600    282.34207    -13241.17    60.595782   -13301.766    65.029969 
  133800    357.02311   -13227.823    76.623702   -13304.447   -7473.0574 
  134000    274.85361   -13243.269    58.988621   -13302.258   -6897.3268 
  134200    247.11866   -13239.259    53.036193   -13292.296   -8693.0945 
  134400    331.60487   -13224.848    71.168481   -13296.016   -1759.8666 
  134600    263.46494   -13235.651    56.544404   -13292.196    61.773983 
  134800    272.38558   -13230.265    58.458936   -13288.724   -14524.961 
  135000    338.08188   -13225.371    72.558567    -13297.93     2116.692 
  135200     302.1127   -13240.852    64.838922   -13305.691   -1697.8241 
  135400    307.55193   -13228.427    66.006281   -13294.433   -3356.9316 
  135600    311.25982   -13227.212    66.802062   -13294.014    3344.0542 
  135800    292.44236   -13240.219    62.763489   -13302.982   -7419.6699 
  136000    338.31966   -13221.942    72.609597   -13294.551   -5389.7677 
  136200    301.49581   -13229.346    64.706525   -13294.052   -5689.5006 
  136400    304.49074   -13231.581    65.349291    -13296.93   -6733.7981 
  136600    277.72646   -13238.056    59.605188   -13297.661   -5980.3226 
  136800    306.85136   -13238.697    65.855924   -13304.553   -8735.9585 
  137000    333.90555   -13222.377    71.662249   -13294.039   -2770.4536 
  137200    300.33501   -13239.402    64.457397    -13303.86   -3104.6543 
  137400    318.24903   -13228.701    68.302073   -13297.004   -2512.9278 
  137600    273.99279   -13237.971    58.803873   -13296.775   -7438.5226 
  137800     294.7967   -13238.472    63.268773   -13301.741    2694.6366 
  138000    295.95188   -13229.403    63.516696   -13292.919    2040.5061 
  138200    273.32274   -13238.533    58.660068   -13297.193    4969.7927 
  138400     299.4268    -13228.59    64.262477   -13292.852   -3828.9656 
  138600    283.06149    -13235.52    60.750182    -13296.27    12865.903 
  138800     266.8842   -13236.514     57.27824   -13293.793    11114.542 
  139000    295.94887   -13229.232    63.516051   -13292.748   -2099.1801 
  139200     260.0432   -13252.952    55.810036   -13308.762      350.303 
  139400    319.35458   -13241.359    68.539346   -13309.899   -5676.2997 
  139600    328.67793   -13231.876    70.540306   -13302.416   -13863.147 
  139800    372.29281   -13219.312    79.900859   -13299.213    5683.0295 
  140000    269.13825    -13239.56    57.762001   -13297.322   -13326.667 
  140200    318.15605    -13230.99    68.282119   -13299.272   -10189.039 
  140400    316.39796   -13217.822    67.904801   -13285.727    16224.696 
  140600    318.68609   -13225.781    68.395874   -13294.177    17073.512 
  140800    315.05437   -13241.342    67.616442   -13308.958    5750.3497 
  141000    293.53893   -13232.753    62.998833   -13295.752   -15270.528 
  141200    296.15848   -13236.307    63.561036   -13299.868      4236.06 
  141400    273.90796   -13247.772    58.785667   -13306.558   -673.40213 
  141600     321.4405   -13230.964    68.987021   -13299.951   -29349.521 
  141800    304.20256   -13241.289    65.287443   -13306.576   -6515.0934 
  142000    320.30937   -13225.934     68.74426   -13294.679    1177.4685 
  142200     322.5499   -13230.588    69.225118   -13299.813     5315.475 
  142400    335.64298   -13234.408    72.035134   -13306.444    5563.9276 
  142600    346.18006   -13211.904    74.296584     -13286.2   -1752.6857 
  142800    288.68369   -13229.449    61.956809   -13291.406    7778.4283 
  143000     274.4557   -13237.619    58.903222   -13296.522   -26140.148 
  143200    292.56118   -13233.573     62.78899   -13296.362    16432.879 
  143400    348.56009   -13218.442    74.807382   -13293.249    32184.474 
  143600    304.44684   -13238.125    65.339871   -13303.465   -410.37508 
  143800    324.39578   -13230.932    69.621279   -13300.553    10132.391 
  144000    321.07615   -13220.052    68.908825   -13288.961   -7552.2556 
  144200    306.29811    -13225.84    65.737187   -13291.577   -2823.4244 
  144400     315.8584   -13231.388    67.788999   -13299.177    5750.4953 
  144600    267.71996   -13246.309     57.45761   -13303.767   -12922.793 
  144800    293.64911   -13244.746    63.022479   -13307.768    3385.9706 
  145000     279.0031   -13237.877    59.879179   -13297.756    4679.8728 
  145200    284.56441   -13231.941    61.072736   -13293.014    -4101.837 
  145400    319.95774   -13219.089    68.668793   -13287.758   -20910.371 
  145600    280.92512   -13239.444    60.291679   -13299.736    9462.5113 
  145800    297.22206   -13230.279    63.789301   -13294.068   -3828.5579 
  146000    290.39475   -13218.884    62.324035   -13281.209   -5838.8285 
  146200    296.06008   -13216.116    63.539918   -13279.656    5511.3971 
  146400    289.83026   -13235.088    62.202885   -13297.291    2800.2354 
  146600    287.34746   -13241.856    61.670029   -13303.526   -495.85324 
  146800    325.95832   -13221.446    69.956629   -13291.403   -2168.1126 
  147000    281.14701   -13240.007      60.3393   -13300.347     4576.081 
  147200    318.70488   -13228.414    68.399908   -13296.814    11339.482 
  147400    310.86966   -13222.775    66.718325   -13289.493   -9901.7862 
  147600    264.98365   -13236.938    56.870348   -13293.808   -10156.732 
  147800    314.98216   -13229.535    67.600943   -13297.136    5471.2685 
  148000    300.02503   -13228.643     64.39087   -13293.034   -5718.7873 
  148200    277.32904   -13243.973    59.519893   -13303.493    6390.3806 
  148400    365.46888   -13221.593    78.436319    -13300.03    10802.928 
  148600    274.03791   -13233.101    58.813556   -13291.914   -8972.9052 
  148800    260.78922   -13246.365    55.970145   -13302.335   -211.65013 
  149000     250.7449   -13251.407    53.814451   -13305.221   -9152.5126 
  149200    304.86323   -13235.234    65.429236   -13300.663    98.226541 
  149400    322.75038   -13222.754    69.268146   -13292.023    -8458.748 
  149600    352.98359   -13219.269    75.756746   -13295.025   -406.46198 
  149800    268.82288   -13236.654    57.694316   -13294.349    2086.0728 
  150000    304.50878   -13234.708    65.353164   -13300.061   -9252.0147 
  150200    277.44495   -13244.538     59.54477   -13304.083    8376.2608 
  150400     287.0198   -13240.428    61.599708   -13302.027    5541.2202 
  150600    311.12015   -13223.503    66.772086   -13290.275    398.23313 
  150800    360.55091   -13223.761    77.380833   -13301.142   -17059.388 
  151000    299.98782   -13238.233    64.382883   -13302.616    3597.8461 
  151200    254.95165   -13237.907    54.717295   -13292.624    18027.793 
  151400    351.29116   -13225.507    75.393521     -13300.9    8515.7308 
  151600    268.65024   -13234.568    57.657264   -13292.225   -8091.0801 
  151800    264.60312   -13250.069    56.788678   -13306.858    9652.5392 
  152000    285.99269   -13237.971    61.379272    -13299.35    1442.0705 
  152200    283.81055   -13228.844    60.910944   -13289.755   -3884.5086 
  152400    276.09783   -13236.626    59.255654   -13295.882     6526.992 
  152600     288.8031   -13229.098    61.982437    -13291.08    18808.405 
  152800    324.64209   -13226.378    69.674142   -13296.052    12702.732 
  153000    296.78193    -13240.17    63.694841   -13303.865   -4657.8507 
  153200    333.12544   -13225.267    71.494823   -13296.762    1698.4618 
  153400    323.32044   -13224.916     69.39049   -13294.306   -1925.3618 
  153600    284.33135   -13238.927    61.022717    -13299.95   -10496.734 
  153800    345.78041   -13222.493    74.210812   -13296.704    7507.4756 
  154000    257.83233   -13241.558    55.335543   -13296.894   -6060.0309 
  154200    277.64258   -13233.698    59.587186   -13293.285    20196.597 
  154400    287.66662   -13227.873    61.738527   -13289.611   -5057.9233 
  154600    310.69312   -13236.732    66.680436   -13303.412   -7865.9909 
  154800    245.25364   -13229.732    52.635925   -13282.368    8877.8362 
  155000     318.3255   -13220.415    68.318486   -13288.734    5498.8851 
  155200     287.0098   -13232.035    61.597561   -13293.633   -8100.3651 
  155400    308.51876   -13230.803    66.213779   -13297.017   -4635.8354 
  155600    267.95293   -13251.481    57.507608   -13308.988    -5573.967 
  155800    293.09638   -13236.013    62.903853   -13298.917    9470.6307 
  156000    286.69495   -13229.537    61.529989   -13291.067   -1319.3497 
  156200    287.62388   -13239.412    61.729356   -13301.141    2289.9067 
  156400    275.52926   -13242.135    59.133628   -13301.269   -1517.2461 
  156600    296.96038   -13230.913    63.733138   -13294.646   -10243.772 
  156800     257.7731   -13235.334     55.32283   -13290.657    1580.5576 
  157000    328.33166   -13223.408     70.46599   -13293.874    -487.0395 
  157200    275.25067   -13238.203    59.073837   -13297.277   -19982.213 
  157400    327.17152   -13233.974    70.217003   -13304.191    7259.3362 
  157600    306.83842    -13221.16    65.853148   -13287.014    3399.2949 
  157800    309.16491   -13231.645    66.352456   -13297.998    18192.597 
  158000     308.4701   -13233.193    66.203335   -13299.396      8219.89 
  158200    295.54399   -13239.456    63.429155   -13302.885   -1838.9585 
  158400    243.89327   -13245.356    52.343965     -13297.7    8242.9159 
  158600    319.48358   -13231.024     68.56703   -13299.591   -24943.808 
  158800    308.65762   -13235.083    66.243582   -13301.327    6644.0452 
  159000    279.51799   -13243.059    59.989683   -13303.048    69.066799 
  159200    337.20066   -13222.813    72.369441   -13295.183    601.00002 
  159400    296.35611   -13233.874    63.603451   -13297.477    8296.9597 
  159600    288.32441   -13235.169    61.879702   -13297.049   -10763.411 
  159800    336.22628   -13222.391     72.16032   -13294.552    18344.277 
  160000    314.78695   -13243.455    67.559047   -13311.014    4299.9443 
  160200    312.43527   -13235.654    67.054334   -13302.708   -11000.137 
  160400    284.80031   -13231.681    61.123366   -13292.804   -6437.6063 
  160600    288.67815   -13237.293     61.95562   -13299.248   -3092.2086 
  160800    285.35204   -13233.522    61.241777   -13294.763    8746.7648 
  161000    318.51851   -13214.107    68.359908   -13282.467   -6319.1786 
  161200    305.56637   -13231.479    65.580141    -13297.06   -6125.8671 
  161400    317.19699   -13234.241    68.076286   -13302.317    1970.8553 
  161600    313.62567   -13240.177    67.309815   -13307.487   -12263.007 
  161800    305.13918   -13242.823     65.48846   -13308.312    6872.0577 
  162000    309.39814   -13227.964    66.402509   -13294.366     1970.361 
  162200    289.79919   -13239.121    62.196217   -13301.318   -1795.7084 
  162400     251.8953   -13254.608    54.061348    -13308.67   -4878.5658 
  162600    311.25778   -13229.315    66.801624   -13296.117   -5870.3512 
  162800    288.36828   -13230.859    61.889117   -13292.748   -3140.5084 
  163000    344.44117   -13217.668    73.923387   -13291.591   -13299.434 
  163200    327.46237   -13238.211    70.279425   -13308.491    -358.2003 
  163400    281.33752   -13239.188    60.380187   -13299.569    1505.9053 
  163600    316.72598   -13229.864      67.9752   -13297.839    1824.5272 
  163800    278.45661   -13232.796    59.761892   -13292.558    4953.6409 
  164000    246.10152   -13252.446    52.817896   -13305.264    683.96474 
  164200     265.3578   -13238.132    56.950645   -13295.083   -14121.673 
  164400    283.37525   -13234.203    60.817522   -13295.021    704.75887 
  164600    307.15285   -13217.247    65.920631   -13283.167    5010.3943 
  164800    281.67982   -13223.603    60.453652   -13284.057    4003.5723 
  165000    299.83916   -13233.697    64.350978   -13298.048   -19394.943 
  165200    295.46767    -13238.71    63.412776   -13302.123   -605.13838 
  165400    304.34764    -13225.45     65.31858   -13290.768    6394.2199 
  165600     294.2645   -13238.526    63.154553    -13301.68    586.43837 
  165800    289.07657   -13244.144    62.041128   -13306.185   -6725.0949 
  166000    306.31055   -13230.067    65.739857   -13295.807    12310.098 
  166200    273.03451   -13234.037    58.598209   -13292.635   -1578.1063 
  166400    312.49192   -13228.214    67.066492    -13295.28    5537.6829 
  166600     267.5958   -13230.492    57.430963   -13287.923   -6094.7742 
  166800    297.59259   -13238.432    63.868822   -13302.301    -5344.874 
  167000    296.29564   -13233.174    63.590474   -13296.764    1008.2555 
  167200     323.1541   -13231.553     69.35479   -13300.908   -10829.072 
  167400     286.8264   -13233.067    61.558202   -13294.625    16051.238 
  167600    379.83534   -13221.932    81.519623   -13303.452    4380.2627 
  167800    256.12872   -13241.026    54.969917   -13295.996    5434.6262 
  168000    270.18771   -13231.046    57.987233   -13289.033    6473.1712 
  168200     286.1949   -13230.084    61.422669   -13291.507    -8538.954 
  168400    294.23997   -13238.556    63.149289   -13301.705     9431.569 
  168600    260.17445   -13246.627    55.838204   -13302.465   -1357.0526 
  168800    316.55711   -13229.407    67.938957   -13297.346   -8406.9553 
  169000     291.3342   -13238.823    62.525658   -13301.348    11511.554 
  169200    307.73615   -13225.693    66.045817   -13291.739   -470.97787 
  169400    294.29809   -13229.229    63.161763   -13292.391    2673.9542 
  169600    298.63639   -13238.296    64.092842   -13302.389    2888.5711 
  169800     277.0299   -13225.777    59.455693   -13285.233   -7309.6533 
  170000    264.23732   -13246.146     56.71017   -13302.856   -20295.697 
  170200    311.80451   -13233.964    66.918961   -13300.883    1414.5191 
  170400    316.52439   -13232.414    67.931934   -13300.346    13664.546 
  170600    315.97707    -13227.53     67.81447   -13295.344   -4152.1602 
  170800      317.468   -13235.431    68.134449   -13303.566   -2371.2966 
  171000    315.07029   -13240.823    67.619858   -13308.443    8872.1691 
  171200    337.32604   -13223.117     72.39635   -13295.513   -5213.8879 
  171400    296.78517   -13238.188    63.695535   -13301.884    1746.4965 
  171600    239.05276   -13247.928    51.305103   -13299.233    12275.154 
  171800    315.82268    -13231.54    67.781334   -13299.322   -2284.8635 
  172000    301.91463   -13239.275    64.796411   -13304.071    6186.3069 
  172200    345.66045   -13221.282    74.185067   -13295.467   -10322.993 
  172400     278.8146   -13236.139    59.838721   -13295.978   -2079.4131 
  172600    298.88499   -13226.912    64.146195   -13291.058   -6476.3158 
  172800    311.35371   -13238.178     66.82221       -13305    1890.2281 
  173000    294.91197   -13240.904    63.293513   -13304.198   -8427.0815 
  173200     304.9063   -13228.608    65.438479   -13294.047   -6273.9237 
  173400    323.66383   -13230.473    69.464189   -13299.937   -7342.8236 
  173600    292.91809   -13244.587     62.86559   -13307.453    7686.3405 
  173800    314.37746   -13227.597    67.471164   -13295.068    1513.3503 
  174000    249.02383   -13243.225    53.445077    -13296.67   -9584.5227 
  174200    316.94129   -13238.958    68.021408    -13306.98    20810.926 
  174400    304.80425   -13224.296    65.416576   -13289.712    13956.222 
  174600    263.66717   -13237.681    56.587806   -13294.269    7235.9703 
  174800    289.78431   -13242.735    62.193023   -13304.928   -8821.7777 
  175000    308.75146   -13233.269    66.263721   -13299.532    666.02524 
  175200    300.68326   -13232.178    64.532137    -13296.71    5783.2115 
  175400    233.73116   -13247.411     50.16299   -13297.574    -12692.91 
  175600    301.86403   -13226.854    64.785551    -13291.64   -11865.167 
  175800    312.15398   -13227.387    66.993965   -13294.381   -14020.948 
  176000    283.41938   -13238.222    60.826991   -13299.049    1009.6717 
  176200    272.10776   -13238.329    58.399311   -13296.728    1.6825233 
  176400    308.72299   -13221.312    66.257611    -13287.57    1570.3789 
  176600    272.05152   -13233.313    58.387241   -13291.701   -1237.7943 
  176800    269.45691   -13250.118    57.830389   -13307.948   -12261.583 
  177000    310.04847   -13231.131    66.542084   -13297.673    19055.374 
  177200    325.65793   -13224.988     69.89216    -13294.88   -5101.1272 
  177400    280.17642   -13238.381    60.130993   -13298.512    712.91366 
  177600    353.26221   -13220.214    75.816544   -13296.031   -17056.959 
  177800    328.05674    -13205.85    70.406988   -13276.257   -9864.5467 
  178000    287.91914   -13229.352    61.792723   -13291.144    17152.907 
  178200    282.21338   -13237.585    60.568162   -13298.154    5932.3773 
  178400    231.92918   -13253.029    49.776252   -13302.806   -10068.266 
  178600    313.73045     -13231.4    67.332304   -13298.732    4312.9607 
  178800    330.46083   -13238.011    70.922949   -13308.934   -3698.8162 
  179000    282.59594   -13242.908    60.650266   -13303.558    5965.2391 
  179200     322.7888   -13229.877    69.276391   -13299.153    884.46415 
  179400    304.41412   -13233.986    65.332848   -13299.319    1482.4443 
  179600    325.43899   -13229.642    69.845171   -13299.487    4942.5637 
  179800    305.70871   -13224.078    65.610691   -13289.689    8294.7153 
[...]
  950000    299.21103   -13234.962    64.216169   -13299.178   -5094.1542 
  950200    285.05575   -13246.351    61.178187   -13307.529    5744.9983 
  950400    312.54765   -13230.207    67.078453   -13297.286    14236.963 
  950600    262.94072   -13240.715    56.431896   -13297.147     5420.992 
  950800    275.01502   -13241.744    59.023262   -13300.768   -8738.2772 
  951000     283.7347   -13224.111    60.894665   -13285.005    3300.5037 
  951200    324.47332   -13231.352     69.63792    -13300.99    8862.6278 
  951400    290.56677   -13244.674    62.360953   -13307.035   -2139.9559 
  951600    312.88293   -13229.491    67.150409   -13296.641   -2336.4771 
  951800    292.14801   -13222.501    62.700316   -13285.202   -400.54009 
  952000    303.59961   -13242.778     65.15804   -13307.936   -1196.3353 
  952200    319.02748   -13227.394    68.469144   -13295.863    11974.851 
  952400    323.79068   -13229.098    69.491412   -13298.589   -15292.676 
  952600    290.28512   -13237.558    62.300506   -13299.859    3067.4486 
  952800    312.89667   -13224.595    67.153359   -13291.748    8101.4508 
  953000    294.32431   -13236.626    63.167389   -13299.793    3391.2578 
  953200    323.07113    -13235.54    69.336983   -13304.877    4307.7044 
  953400    292.13709   -13240.856    62.697974   -13303.554   -2321.9623 
  953600    285.15427   -13232.534    61.199331   -13293.733   -8062.5759 
  953800    288.66115   -13234.979    61.951973   -13296.931   -7384.2377 
  954000    307.59215   -13231.972    66.014911   -13297.987    9580.9856 
  954200    342.50925   -13228.214    73.508761   -13301.723    7601.6561 
  954400     297.6457   -13236.614    63.880222   -13300.494   -1735.6722 
  954600    354.39719   -13216.697    76.060132   -13292.757   -17379.998 
  954800    273.12278   -13233.167    58.617154   -13291.784   -13392.421 
  955000    356.88996   -13214.356    76.595126   -13290.951    18695.458 
  955200    331.25068   -13232.201    71.092465   -13303.294   -1254.8802 
  955400    302.52052   -13237.355    64.926446   -13302.281    1185.5159 
  955600    348.96426   -13222.244    74.894125   -13297.138   -425.74944 
  955800    287.61308   -13239.225    61.727036   -13300.953    3563.5271 
  956000    279.59159   -13234.571    60.005478   -13294.576    3646.5486 
  956200    338.43051    -13222.75    72.633389   -13295.383    7331.7831 
  956400    310.48372   -13226.172    66.635495   -13292.808    14500.048 
  956600    283.68972   -13242.484    60.885012   -13303.369   -2989.7133 
  956800    264.24787   -13254.588    56.712435     -13311.3   -2159.4707 
  957000    287.74679   -13239.527    61.755734   -13301.283    8380.4093 
  957200    363.62813   -13224.102    78.041259   -13302.144   -9971.2278 
  957400    296.84368    -13239.07    63.708094   -13302.778    5967.8097 
  957600    310.77098   -13233.002    66.697148     -13299.7    6616.5978 
  957800    314.69547   -13226.595    67.539415   -13294.134   -5028.3666 
  958000    293.00812   -13232.322    62.884911   -13295.207    3777.0767 
  958200    321.30548   -13226.355    68.958043   -13295.313   -14852.842 
  958400    258.14232   -13236.801    55.402072   -13292.203     1581.154 
  958600    334.34539   -13219.423    71.756647    -13291.18   -11064.854 
  958800    313.91792   -13235.519    67.372537   -13302.892    1680.1791 
  959000    353.02065   -13222.298    75.764701   -13298.062     2678.803 
  959200    291.63274   -13243.799     62.58973   -13306.389   -8226.9343 
  959400    304.66712   -13230.988    65.387147   -13296.375     973.0331 
  959600    331.20016   -13215.604    71.081624   -13286.686    415.82095 
  959800    293.33515   -13234.268    62.955098   -13297.223    15457.311 
  960000    309.27431   -13230.287    66.375933   -13296.662    293.25965 
  960200    298.83416   -13233.549    64.135287   -13297.684    12896.096 
  960400    276.73658   -13243.969    59.392741   -13303.362     10004.72 
  960600    319.89251   -13225.851    68.654794   -13294.506    1626.4522 
  960800     304.2927   -13234.224     65.30679   -13299.531   -1770.8564 
  961000    283.54756   -13242.827    60.854503   -13303.681    142.98172 
  961200    295.22535   -13223.159    63.360769    -13286.52    6223.7248 
  961400    267.88781   -13225.872    57.493633   -13283.366    7738.7602 
  961600    264.27215   -13248.912    56.717645   -13305.629    9445.9033 
  961800     329.6295   -13231.287    70.744531   -13302.032    4899.0141 
  962000    303.99357   -13234.381    65.242591   -13299.623   -17592.579 
  962200    266.13757   -13238.358    57.117999   -13295.476    6636.5005 
  962400    295.51379   -13228.947    63.422675    -13292.37    13867.181 
  962600    253.68448   -13243.021    54.445339   -13297.466   -1434.1947 
  962800    346.75076   -13222.995    74.419067   -13297.414    56.934426 
  963000    299.61132   -13229.942    64.302079   -13294.244    4274.5578 
  963200    267.87977    -13247.37    57.491907   -13304.862    11372.331 
  963400    270.88884   -13238.094    58.137709   -13296.232    5666.4927 
  963600    346.69949   -13230.662    74.408062    -13305.07   -5880.1156 
  963800     272.9533   -13242.333     58.58078   -13300.914   -12643.531 
  964000    327.67814   -13231.203    70.325734   -13301.529   -3621.1285 
  964200    258.64704    -13235.58    55.510395   -13291.091   -13566.176 
  964400    319.25587   -13210.801     68.51816    -13279.32    -10989.71 
  964600    313.85568   -13231.746     67.35918   -13299.105     13168.16 
  964800    303.76194   -13237.737    65.192879    -13302.93    5280.8031 
  965000    343.81166   -13218.466    73.788282   -13292.255    165.76386 
  965200    288.35543   -13241.137    61.886358   -13303.023   -11402.198 
  965400    309.47103   -13232.613    66.418153   -13299.032   -6122.5693 
  965600    274.10974    -13245.21    58.828973   -13304.039    5700.2299 
  965800    274.40229     -13240.2    58.891759   -13299.091    8191.6905 
  966000     275.6271   -13231.536    59.154625   -13290.691   -10178.103 
  966200    311.35513   -13216.926    66.822517   -13283.748    1624.0952 
  966400    276.33504    -13229.03    59.306563   -13288.337    12478.866 
  966600    281.84156   -13239.721    60.488364    -13300.21    10943.739 
  966800    314.36333   -13243.235    67.468131   -13310.703   -8937.1867 
  967000    305.46475   -13229.921    65.558333   -13295.479     1047.621 
  967200    277.00969   -13225.849    59.451355     -13285.3    13971.874 
  967400    277.88714   -13245.792    59.639672   -13305.432   -4999.3447 
  967600    327.15124   -13231.083     70.21265   -13301.295    386.68746 
  967800    303.95674   -13228.537    65.234687   -13293.772   -1910.9059 
  968000    289.92013   -13229.017    62.222172   -13291.239   -11501.948 
  968200    239.66593   -13248.166      51.4367   -13299.602   -13422.444 
  968400     279.9019   -13231.205    60.072076   -13291.277   -4199.9243 
  968600    257.61365   -13240.947     55.28861   -13296.235    8513.9846 
  968800    277.92024   -13239.759    59.646776   -13299.406    2896.6679 
  969000    319.71255   -13220.837    68.616171   -13289.453   -7531.7166 
  969200    295.67341   -13228.951    63.456932   -13292.408    12070.539 
  969400    294.96056    -13244.27    63.303941   -13307.574    2407.1238 
  969600    332.89032   -13224.511    71.444362   -13295.955   -12837.844 
  969800    297.77758   -13231.664    63.908526   -13295.573   -13266.423 
  970000    301.07948   -13242.438    64.617172   -13307.055    12482.427 
  970200    296.00842     -13214.8    63.528832   -13278.329   -9244.4972 
  970400     287.9547   -13221.351    61.800354   -13283.152   -20296.803 
  970600    298.01349    -13236.93    63.959157   -13300.889    24429.871 
  970800    270.10036   -13245.235    57.968486   -13303.204    22754.492 
  971000    291.77936   -13220.108    62.621197    -13282.73   -12940.389 
  971200    299.76024       -13228     64.33404   -13292.335   -4452.9359 
  971400    279.19165   -13233.657    59.919644   -13293.577    16281.386 
  971600    339.77034   -13236.041    72.920941   -13308.962   -2922.3922 
  971800    270.12684   -13236.719     57.97417   -13294.694   -9788.4646 
  972000    343.30051   -13219.379     73.67858   -13293.058     3343.551 
  972200    314.64619   -13231.981    67.528837    -13299.51    11210.784 
  972400     318.1871   -13224.036    68.288782   -13292.324     1604.785 
  972600    290.19651   -13234.861    62.281488   -13297.143   -3845.6208 
  972800    296.31408   -13237.468    63.594431   -13301.063   -11437.051 
  973000    309.30925   -13225.797    66.383433    -13292.18    2437.6956 
  973200    308.66978   -13230.625     66.24619   -13296.871     8695.047 
  973400    323.22073   -13232.689    69.369091   -13302.058    8526.3868 
  973600    277.37376   -13226.933    59.529492   -13286.462    4860.6668 
  973800    286.92194   -13242.063    61.578706   -13303.642    10631.613 
  974000    252.96816   -13246.859    54.291602   -13301.151   -1807.0833 
  974200    351.31563   -13222.217    75.398772   -13297.616   -2359.4461 
  974400    293.53836   -13232.354    62.998711   -13295.352    14492.127 
  974600    263.83163   -13244.494    56.623101   -13301.117    2698.6963 
  974800    290.77254   -13234.344    62.405115   -13296.749    4884.1904 
  975000    328.52253   -13226.406    70.506954   -13296.913   -10550.192 
  975200    374.73485   -13209.814    80.424965   -13290.239   -2165.4962 
  975400    299.24482    -13232.45    64.223422   -13296.674   -2329.7799 
  975600    258.86174   -13238.917    55.556473   -13294.474   -10204.088 
  975800    321.24979   -13217.096    68.946091   -13286.042   -22723.682 
  976000    303.65804    -13231.59     65.17058    -13296.76    1656.3978 
  976200    298.36618   -13241.189    64.034849   -13305.224   -172.31011 
  976400    272.21619   -13235.201    58.422582   -13293.624   -2010.6814 
  976600    347.27291   -13223.785     74.53113   -13298.316   -6838.3756 
  976800    278.41392   -13229.017     59.75273    -13288.77    7798.4904 
  977000    300.41497   -13222.779    64.474557   -13287.253    -7994.142 
  977200    263.56272   -13245.793     56.56539   -13302.358    1090.3076 
  977400    303.08016   -13227.807    65.046556   -13292.854    -3295.486 
  977600    272.85881   -13238.515    58.560501   -13297.075   -2809.7718 
  977800    229.94549   -13259.051    49.350515   -13308.402   -573.79607 
  978000    296.36107   -13242.847    63.604516   -13306.452   -14546.914 
  978200    309.06044   -13229.005    66.330033   -13295.335    11441.041 
  978400    285.57121   -13230.306    61.288815   -13291.595    14051.618 
  978600    253.38041   -13246.248    54.380079   -13300.628   -10021.332 
  978800    275.08852   -13231.179    59.039037   -13290.218    980.39299 
  979000    309.09037   -13234.915    66.336458   -13301.252   -1495.3489 
  979200    303.73234   -13235.227    65.186526   -13300.413   -9288.4329 
  979400     311.9186   -13226.857    66.943448   -13293.801    5363.9784 
  979600    295.71912   -13227.284    63.466741   -13290.751   -1904.7201 
  979800    286.26309   -13238.428    61.437305   -13299.865    4726.3356 
  980000    291.47569   -13232.486    62.556023   -13295.042   -5061.6713 
  980200    271.54863   -13222.425    58.279311   -13280.704   -327.26722 
  980400    298.22775    -13229.66    64.005139   -13293.665    4314.4437 
  980600    288.48909    -13249.27    61.915045   -13311.185   -4062.6901 
  980800     279.7362    -13250.49    60.036513   -13310.527    1884.1389 
  981000    261.75807   -13233.063    56.178078   -13289.241     5136.585 
  981200    312.33471   -13219.098    67.032753   -13286.131   -6004.5005 
  981400    277.26737   -13241.702    59.506657   -13301.209   -6269.4174 
  981600    308.83563   -13245.087    66.281786   -13311.369    10134.163 
  981800    299.03442   -13233.145    64.178265   -13297.324     8354.718 
  982000    354.00834   -13210.359    75.976676   -13286.336   -2434.3183 
  982200    300.38902   -13230.641    64.468989    -13295.11   -1438.0692 
  982400    282.55015   -13237.434     60.64044   -13298.074    13213.788 
  982600    273.73124   -13247.993     58.74774   -13306.741   -4491.2422 
  982800    300.69372   -13226.751    64.534381   -13291.285    989.08108 
  983000    265.50758   -13231.141    56.982793   -13288.124    6015.8797 
  983200    296.58433   -13228.145    63.652432   -13291.797   -835.30743 
  983400    308.11083   -13230.152     66.12623   -13296.279    9199.0032 
  983600    275.26874   -13244.968    59.077715   -13304.046    16149.515 
  983800    311.88684   -13236.827    66.936631   -13303.764    -1852.238 
  984000    309.02123   -13230.086    66.321618   -13296.407    3418.6611 
  984200    324.27455   -13209.176    69.595261   -13278.771    11819.022 
  984400    297.94766   -13230.698    63.945028   -13294.644    -6711.248 
  984600    246.25309   -13243.587    52.850426   -13296.437   -3954.5326 
  984800    293.04584   -13224.721    62.893006   -13287.614   -674.25503 
  985000    278.08933    -13236.58    59.683065   -13296.263    2045.9682 
  985200    287.97847   -13232.817    61.805457   -13294.622    -7291.312 
  985400    330.66245   -13222.601    70.966221   -13293.567   -7836.6241 
  985600     301.1682   -13237.662    64.636213   -13302.298   -5454.9863 
  985800    324.37403   -13245.438     69.61661   -13315.054    1577.5171 
  986000    239.24312   -13250.098    51.345957   -13301.444    10103.218 
  986200    310.14146   -13227.655    66.562041   -13294.217    5824.2241 
  986400    291.08124   -13224.862    62.471367   -13287.333   -2347.8844 
  986600    259.50413   -13241.938    55.694341   -13297.632   -2379.4431 
  986800    288.69166   -13225.012    61.958521    -13286.97    17870.653 
  987000    288.45326   -13233.111    61.907355   -13295.018    14816.384 
  987200    320.44856   -13232.711    68.774133   -13301.485    14488.013 
  987400    325.87023   -13226.971    69.937723   -13296.909    3001.3618 
  987600    266.75831   -13238.254    57.251221   -13295.505     4124.315 
  987800    313.48421   -13233.019    67.279455   -13300.299    2453.4901 
  988000    305.84394   -13234.441    65.639714   -13300.081    2543.8418 
  988200     337.7316   -13216.163    72.483389   -13288.646    3934.3989 
  988400    301.96797   -13227.978     64.80786   -13292.786    12599.697 
  988600    305.48668    -13234.79    65.563039   -13300.353   -8016.8508 
  988800    360.70911   -13213.156    77.414784   -13290.571    3659.9128 
  989000    295.77583   -13227.052    63.478913   -13290.531   -19558.385 
  989200    234.16487   -13243.586    50.256071   -13293.842   -767.70428 
  989400    335.76445   -13225.669    72.061204    -13297.73    2777.8259 
  989600    330.55443   -13211.951    70.943038   -13282.894    4150.4513 
  989800    289.88955    -13231.93     62.21561   -13294.146    947.95722 
  990000     292.2779   -13238.684    62.728193   -13301.412   -6568.0378 
  990200    315.04735   -13218.835    67.614935    -13286.45     8769.531 
  990400    296.06213   -13232.633    63.540359   -13296.173    1395.3032 
  990600    262.73335   -13236.478     56.38739   -13292.866   -1515.0817 
  990800    289.39206   -13230.085    62.108838   -13292.194     1503.125 
  991000    316.01636    -13234.38    67.822901   -13302.203    -4317.245 
  991200    258.38768   -13246.256     55.45473    -13301.71   -15703.918 
  991400    316.94242   -13226.777    68.021651   -13294.799    11505.975 
  991600    290.02286   -13237.213    62.244219   -13299.457    7780.7768 
  991800    339.03071    -13223.98    72.762202   -13296.742    4459.8942 
  992000    295.23029   -13227.264    63.361829   -13290.626   -1820.7654 
  992200    284.73461   -13238.268    61.109264   -13299.377   -23728.484 
  992400    280.88127   -13228.473    60.282268   -13288.755    3023.4037 
  992600    284.88757   -13229.384    61.142092   -13290.526    9617.3479 
  992800     265.8129   -13241.915    57.048319   -13298.964   -21186.989 
  993000    314.57187   -13230.749    67.512888   -13298.262    7231.4061 
  993200    301.73326   -13232.451    64.757487   -13297.208   -5044.7286 
  993400     264.2192   -13248.607    56.706281   -13305.314   -3775.0647 
  993600    305.41928   -13235.867    65.548574   -13301.415    6675.1409 
  993800    306.70598    -13226.17    65.824723   -13291.995   -2965.3689 
  994000    283.07678   -13233.515    60.753464   -13294.268    9508.4171 
  994200    245.17918   -13248.951    52.619944   -13301.571    5643.2423 
  994400    316.57022   -13226.305     67.94177   -13294.246    -8138.108 
  994600    258.86822   -13238.265    55.557863   -13293.823    16852.073 
  994800    382.12101   -13220.754    82.010171   -13302.765   -5016.7101 
  995000    297.32636   -13226.908    63.811685    -13290.72    17222.852 
  995200     290.0659   -13237.301    62.253457   -13299.555    910.35613 
  995400    338.93057   -13212.244    72.740711   -13284.985   -7498.9712 
  995600    335.27797   -13221.881    71.956797   -13293.838    21749.768 
  995800    256.18007   -13238.772    54.980937   -13293.753    5725.1681 
  996000    311.62169   -13235.105    66.879726   -13301.985   -15977.971 
  996200    307.47551   -13217.957    65.989879   -13283.947    14367.226 
  996400     308.3983   -13239.161    66.187926   -13305.349   -15671.243 
  996600    339.79468   -13229.295    72.926165   -13302.221     6481.422 
  996800    331.16049   -13231.336     71.07311   -13302.409     -6854.18 
  997000     287.9853   -13235.236    61.806922   -13297.043   -10641.505 
  997200    301.77907   -13229.029    64.767319   -13293.796   -3431.6476 
  997400    366.32331   -13216.095    78.619695   -13294.714   -2790.7174 
  997600    293.91246   -13235.731       63.079    -13298.81    4392.4689 
  997800    313.05104   -13230.879     67.18649   -13298.066    5155.6641 
  998000    351.63246   -13227.091    75.466769   -13302.558    7264.2583 
  998200    282.35387   -13228.714    60.598315   -13289.313   -8373.2456 
  998400    293.37198   -13237.466    62.963003   -13300.429   -11498.926 
  998600    257.82088   -13247.447    55.333084    -13302.78    7008.0914 
  998800    289.20497   -13232.239    62.068686   -13294.308    21793.014 
  999000    293.76622   -13227.121    63.047613   -13290.169    10744.673 
  999200     311.5125   -13240.348     66.85629   -13307.204     2055.765 
  999400    218.60148   -13236.652    46.915882   -13283.568    8020.9199 
  999600    267.81897   -13228.358    57.478859   -13285.837    7173.1741 
  999800    339.53085   -13214.567    72.869541   -13287.437   -4445.8651 
 1000000    325.32703   -13231.644    69.821141   -13301.465    312.90844 
Loop time of 3434.63 on 8 procs for 1000000 steps with 73 atoms

Performance: 6.289 ns/day, 3.816 hours/ns, 291.152 timesteps/s
99.1% CPU use with 8 MPI tasks x no OpenMP threads

MPI task timing breakdown:
Section |  min time  |  avg time  |  max time  |%varavg| %total
---------------------------------------------------------------
Pair    | 2622.6     | 2866.5     | 3036.1     | 250.3 | 83.46
Neigh   | 0.39172    | 0.40874    | 0.42212    |   1.3 |  0.01
Comm    | 52.023     | 221.5      | 465.23     | 899.6 |  6.45
Output  | 0.12413    | 0.14281    | 0.26597    |  12.3 |  0.00
Modify  | 342.6      | 343.05     | 343.59     |   1.7 |  9.99
Other   |            | 3.006      |            |       |  0.09

Nlocal:    9.125 ave 15 max 0 min
Histogram: 2 0 0 0 0 0 1 2 2 1
Nghost:    789.875 ave 800 max 768 min
Histogram: 1 0 0 0 1 0 1 2 0 3
Neighs:    1909.75 ave 3129 max 0 min
Histogram: 2 0 0 0 0 0 1 2 2 1

Total # of neighbors = 15278
Ave neighs/atom = 209.288
Neighbor list builds = 328
Dangerous builds = 0

unfix 1
unfix output
undump 1

Please see the log.cite file for references relevant to this simulation

Total wall time: 0:57:25
