ITEM: TIMESTEP
0
ITEM: NUMBER OF ATOMS
130
ITEM: BOX BOUNDS pp pp pp
0.0000000000000000e+00 1.8762000000000000e+01
0.0000000000000000e+00 1.8762000000000000e+01
0.0000000000000000e+00 1.8760999999999999e+01
ITEM: ATOMS id type x y z 
1 1 3.12 3.119 3.121 
10 1 5.595 5.596 5.595 
17 1 4.011 4.011 4.012 
26 1 4.704 4.704 4.704 
33 1 0.414 3.456 3.456 
41 1 3.456 0.413 3.456 
49 1 3.456 3.456 0.414 
58 1 8.301 5.259 5.259 
66 1 5.259 8.301 5.259 
74 1 5.259 5.259 8.301 
81 1 1.612 3.354 3.354 
89 1 3.353 1.612 3.354 
97 1 3.354 3.354 1.613 
106 1 7.103 5.361 5.361 
114 1 5.362 7.103 5.361 
122 1 5.361 5.361 7.103 
4 1 3.12 3.12 14.976 
11 1 5.595 5.595 12.5 
20 1 4.011 4.011 14.084 
27 1 4.704 4.704 13.392 
36 1 0.414 3.456 14.639 
46 1 3.456 0.414 14.639 
56 1 3.456 3.456 17.682 
59 1 8.301 5.259 12.837 
69 1 5.259 8.301 12.837 
79 1 5.259 5.259 9.794 
84 1 1.612 3.354 14.742 
94 1 3.354 1.612 14.742 
104 1 3.354 3.354 16.483 
107 1 7.103 5.361 12.735 
117 1 5.361 7.103 12.735 
127 1 5.361 5.361 10.993 
6 1 3.12 14.976 3.12 
13 1 5.595 12.501 5.596 
22 1 4.011 14.085 4.011 
29 1 4.704 13.392 4.705 
38 1 0.414 14.64 3.457 
48 1 3.456 17.682 3.456 
52 1 3.456 14.64 0.414 
61 1 8.301 12.837 5.259 
71 1 5.259 9.794 5.259 
75 1 5.259 12.837 8.301 
86 1 1.612 14.742 3.354 
96 1 3.354 16.483 3.354 
100 1 3.354 14.742 1.612 
109 1 7.103 12.735 5.361 
119 1 5.361 10.993 5.361 
123 1 5.361 12.735 7.103 
7 1 3.12 14.976 14.976 
16 1 5.595 12.501 12.5 
23 1 4.011 14.085 14.084 
32 1 4.704 13.392 13.391 
39 1 0.414 14.64 14.639 
43 1 3.456 17.682 14.639 
53 1 3.456 14.64 17.682 
64 1 8.302 12.837 12.837 
68 1 5.259 9.795 12.837 
78 1 5.259 12.837 9.794 
87 1 1.612 14.742 14.741 
91 1 3.354 16.483 14.741 
101 1 3.353 14.742 16.483 
112 1 7.103 12.735 12.735 
116 1 5.361 10.993 12.735 
126 1 5.361 12.735 10.993 
8 1 14.976 3.12 3.12 
15 1 12.501 5.595 5.595 
24 1 14.084 4.011 4.011 
31 1 13.392 4.704 4.704 
40 1 17.682 3.456 3.456 
44 1 14.64 0.414 3.457 
54 1 14.64 3.456 0.414 
63 1 9.795 5.259 5.259 
67 1 12.837 8.301 5.259 
77 1 12.837 5.259 8.301 
88 1 16.483 3.354 3.354 
92 1 14.742 1.612 3.354 
102 1 14.742 3.354 1.612 
111 1 10.993 5.361 5.361 
115 1 12.735 7.103 5.361 
125 1 12.735 5.361 7.103 
5 1 14.976 3.119 14.975 
14 1 12.501 5.596 12.501 
21 1 14.085 4.011 14.084 
30 1 13.392 4.703 13.392 
37 1 17.682 3.456 14.639 
47 1 14.64 0.413 14.639 
51 1 14.64 3.456 17.682 
62 1 9.794 5.259 12.837 
72 1 12.837 8.301 12.837 
76 1 12.837 5.259 9.795 
85 1 16.483 3.354 14.741 
95 1 14.742 1.612 14.741 
99 1 14.742 3.354 16.483 
110 1 10.993 5.361 12.735 
120 1 12.734 7.103 12.735 
124 1 12.735 5.361 10.993 
3 1 14.976 14.976 3.12 
12 1 12.501 12.501 5.595 
19 1 14.085 14.085 4.011 
28 1 13.392 13.392 4.704 
35 1 17.682 14.64 3.457 
45 1 14.64 17.682 3.457 
55 1 14.64 14.64 0.414 
60 1 9.794 12.837 5.259 
70 1 12.837 9.794 5.259 
80 1 12.837 12.837 8.301 
83 1 16.484 14.742 3.354 
93 1 14.742 16.483 3.354 
103 1 14.742 14.742 1.613 
108 1 10.993 12.735 5.361 
118 1 12.734 10.993 5.361 
128 1 12.734 12.734 7.103 
2 1 14.976 14.976 14.975 
9 1 12.501 12.501 12.501 
18 1 14.084 14.085 14.084 
25 1 13.391 13.393 13.392 
34 1 17.682 14.64 14.639 
42 1 14.64 17.682 14.639 
50 1 14.64 14.64 17.682 
57 1 9.795 12.837 12.837 
65 1 12.837 9.794 12.837 
73 1 12.837 12.837 9.794 
82 1 16.483 14.742 14.741 
90 1 14.742 16.483 14.741 
98 1 14.742 14.742 16.483 
105 1 10.993 12.734 12.734 
113 1 12.735 10.993 12.735 
121 1 12.735 12.734 10.993 
129 2 9.795 14.187 12.837 
130 3 9.795 15.163 12.837 
ITEM: TIMESTEP
10
ITEM: NUMBER OF ATOMS
130
ITEM: BOX BOUNDS pp pp pp
0.0000000000000000e+00 1.8762000000000000e+01
0.0000000000000000e+00 1.8762000000000000e+01
0.0000000000000000e+00 1.8760999999999999e+01
ITEM: ATOMS id type x y z 
1 1 3.11068 3.11007 3.11151 
10 1 5.60419 5.60464 5.60408 
17 1 4.01283 4.01268 4.0135 
26 1 4.70202 4.7021 4.70231 
33 1 0.417416 3.45472 3.45463 
41 1 3.45443 0.417646 3.45469 
49 1 3.45454 3.45462 0.41907 
58 1 8.2974 5.26027 5.2603 
66 1 5.26046 8.29713 5.26018 
74 1 5.2603 5.26027 8.29702 
81 1 1.60819 3.35443 3.35475 
89 1 3.35382 1.60718 3.35481 
97 1 3.35478 3.35476 1.60797 
106 1 7.10695 5.36045 5.3603 
114 1 5.36114 7.10703 5.36044 
122 1 5.36032 5.36045 7.10684 
4 1 3.11074 3.11072 14.985 
11 1 5.60421 5.60433 12.4913 
20 1 4.01285 4.01282 14.0826 
27 1 4.70204 4.70209 13.3936 
36 1 0.417825 3.45469 14.6405 
46 1 3.4547 0.417808 14.6405 
56 1 3.4546 3.45459 17.6771 
59 1 8.29716 5.2603 12.8357 
69 1 5.26019 8.29749 12.8357 
79 1 5.26034 5.26034 9.79871 
84 1 1.60768 3.35452 14.7411 
94 1 3.35451 1.60775 14.7411 
104 1 3.35479 3.35479 16.4882 
107 1 7.10663 5.36042 12.7356 
117 1 5.36047 7.10603 12.7355 
127 1 5.36029 5.36028 10.9883 
6 1 3.11091 14.985 3.11078 
13 1 5.60423 12.4917 5.60508 
22 1 4.01293 14.0829 4.01329 
29 1 4.70197 13.3941 4.70259 
38 1 0.417907 14.6413 3.45556 
48 1 3.45465 17.6773 3.4546 
52 1 3.45472 14.6413 0.418003 
61 1 8.29704 12.8357 5.26028 
71 1 5.26039 9.79943 5.26039 
75 1 5.26015 12.8358 8.29739 
86 1 1.60795 14.7414 3.35474 
96 1 3.35481 16.4882 3.35478 
100 1 3.35457 14.7413 1.60823 
109 1 7.10678 12.7358 5.36054 
119 1 5.36011 10.9878 5.36029 
123 1 5.36056 12.7356 7.10585 
7 1 3.11073 14.9852 14.9849 
16 1 5.58783 12.4914 12.4905 
23 1 4.01174 14.0842 14.0835 
32 1 4.70078 13.3942 13.3932 
39 1 0.417401 14.6413 14.6403 
43 1 3.45458 17.6778 14.6403 
53 1 3.45447 14.6413 17.6773 
64 1 8.26807 12.8232 12.8279 
68 1 5.26034 9.7955 12.8363 
78 1 5.26048 12.8361 9.79707 
87 1 1.60803 14.7413 14.7405 
91 1 3.35475 16.4882 14.7403 
101 1 3.35391 14.7413 16.4876 
112 1 7.09042 12.7351 12.7361 
116 1 5.35962 10.9871 12.7366 
126 1 5.35925 12.7369 10.9849 
8 1 14.9847 3.11069 3.11075 
15 1 12.4918 5.60419 5.6041 
24 1 14.0828 4.01285 4.01284 
31 1 13.3936 4.70214 4.7021 
40 1 17.6776 3.4546 3.4546 
44 1 14.6413 0.417726 3.45553 
54 1 14.6413 3.4547 0.418029 
63 1 9.7989 5.26031 5.26032 
67 1 12.8357 8.2972 5.2603 
77 1 12.8357 5.26026 8.29761 
88 1 16.4883 3.35478 3.35477 
92 1 14.7414 1.60773 3.35475 
102 1 14.7413 3.35456 1.60823 
111 1 10.9889 5.36035 5.36036 
115 1 12.7357 7.10689 5.36038 
125 1 12.7356 5.36039 7.10669 
5 1 14.9852 3.10999 14.9843 
14 1 12.4914 5.60374 12.4917 
21 1 14.0832 4.0121 14.0829 
30 1 13.3937 4.70223 13.3932 
37 1 17.678 3.45465 14.6403 
47 1 14.6414 0.417249 14.6403 
51 1 14.6414 3.45468 17.6772 
62 1 9.80009 5.26046 12.8355 
72 1 12.8357 8.29575 12.8361 
76 1 12.8356 5.26042 9.79976 
85 1 16.4878 3.35458 14.7402 
95 1 14.7414 1.60746 14.7403 
99 1 14.7413 3.35462 16.4874 
110 1 10.9871 5.36024 12.7359 
120 1 12.7348 7.10489 12.7353 
124 1 12.7358 5.36049 10.9881 
3 1 14.9851 14.9851 3.11087 
12 1 12.4914 12.4915 5.60245 
19 1 14.0833 14.0831 4.01308 
28 1 13.3936 13.3937 4.70192 
35 1 17.6785 14.6412 3.4556 
45 1 14.6413 17.6777 3.45551 
55 1 14.6414 14.6414 0.418498 
60 1 9.79985 12.8356 5.26051 
70 1 12.8354 9.7997 5.26043 
80 1 12.836 12.8362 8.29764 
83 1 16.4878 14.7414 3.35478 
93 1 14.7413 16.4883 3.35498 
103 1 14.7413 14.7412 1.60801 
108 1 10.9872 12.736 5.36025 
118 1 12.7353 10.9871 5.36033 
128 1 12.7344 12.7345 7.10266 
2 1 14.986 14.9861 14.9853 
9 1 12.4642 12.4966 12.5054 
18 1 14.0847 14.0853 14.0844 
25 1 13.3928 13.3947 13.3941 
34 1 17.6778 14.6414 14.6404 
42 1 14.6414 17.6775 14.6403 
50 1 14.6414 14.6414 17.6771 
57 1 9.83566 12.8277 12.8703 
65 1 12.8366 9.79932 12.8354 
73 1 12.837 12.8359 9.79473 
82 1 16.4877 14.7414 14.7403 
90 1 14.7414 16.4876 14.7403 
98 1 14.7413 14.7413 16.4876 
105 1 11.046 12.7049 12.6946 
113 1 12.7355 10.986 12.7373 
121 1 12.7353 12.7355 10.9926 
129 2 9.7925 14.2157 12.8403 
130 3 9.7938 15.185 12.8363 
ITEM: TIMESTEP
20
ITEM: NUMBER OF ATOMS
130
ITEM: BOX BOUNDS pp pp pp
0.0000000000000000e+00 1.8762000000000000e+01
0.0000000000000000e+00 1.8762000000000000e+01
0.0000000000000000e+00 1.8760999999999999e+01
ITEM: ATOMS id type x y z 
1 1 3.10691 3.10687 3.10804 
10 1 5.60784 5.60773 5.60786 
17 1 4.01227 4.01209 4.0124 
26 1 4.70277 4.7025 4.70269 
33 1 0.416145 3.45314 3.45325 
41 1 3.45278 0.416348 3.45334 
49 1 3.4532 3.45321 0.416992 
58 1 8.29787 5.26183 5.26173 
66 1 5.26206 8.2976 5.26162 
74 1 5.26166 5.26182 8.29733 
81 1 1.60509 3.35319 3.35353 
89 1 3.35288 1.6045 3.35357 
97 1 3.35343 3.3534 1.60546 
106 1 7.11034 5.36161 5.3615 
114 1 5.36205 7.1099 5.36162 
122 1 5.36155 5.36162 7.11 
4 1 3.10703 3.10667 14.9884 
11 1 5.6073 5.60757 12.4883 
20 1 4.01167 4.01193 14.0836 
27 1 4.70197 4.70272 13.3937 
36 1 0.416762 3.4532 14.6422 
46 1 3.45325 0.417267 14.642 
56 1 3.45317 3.45322 17.6791 
59 1 8.29871 5.26142 12.8343 
69 1 5.26069 8.29488 12.8347 
79 1 5.26175 5.2615 9.79698 
84 1 1.60482 3.35323 14.7422 
94 1 3.35317 1.60577 14.7423 
104 1 3.35345 3.35343 16.4908 
107 1 7.10925 5.36161 12.7343 
117 1 5.36182 7.10314 12.7334 
127 1 5.36142 5.36146 10.9851 
6 1 3.10714 14.9889 3.10756 
13 1 5.60725 12.4887 5.60759 
22 1 4.01195 14.0835 4.01231 
29 1 4.70207 13.3937 4.70229 
38 1 0.416733 14.6427 3.45386 
48 1 3.45331 17.6793 3.45329 
52 1 3.45331 14.6426 0.416931 
61 1 8.29825 12.8344 5.26164 
71 1 5.26156 9.79663 5.26149 
75 1 5.26073 12.8347 8.29607 
86 1 1.60459 14.7426 3.3538 
96 1 3.35355 16.4903 3.3534 
100 1 3.35337 14.7426 1.60615 
109 1 7.11049 12.7346 5.36156 
119 1 5.36129 10.9859 5.36159 
123 1 5.36172 12.7337 7.1048 
7 1 3.10396 14.9922 14.9914 
16 1 5.55613 12.4768 12.4775 
23 1 4.00459 14.0923 14.0915 
32 1 4.68964 13.3971 13.3963 
39 1 0.41513 14.6425 14.6415 
43 1 3.45356 17.681 14.6415 
53 1 3.45316 14.6424 17.6801 
64 1 8.29747 12.7895 12.8143 
68 1 5.26438 9.78613 12.8394 
78 1 5.26446 12.839 9.78783 
87 1 1.60462 14.7425 14.7417 
91 1 3.3535 16.4913 14.7415 
101 1 3.35307 14.7425 16.4911 
112 1 7.10832 12.7396 12.7316 
116 1 5.35163 10.982 12.7363 
126 1 5.35137 12.7368 10.9781 
8 1 14.9893 3.10719 3.1073 
15 1 12.4885 5.60797 5.60754 
24 1 14.0837 4.01148 4.01186 
31 1 13.3928 4.70277 4.70302 
40 1 17.6786 3.45324 3.45308 
44 1 14.6427 0.416307 3.45389 
54 1 14.6428 3.45326 0.416207 
63 1 9.79652 5.26161 5.26165 
67 1 12.8343 8.29841 5.26159 
77 1 12.8345 5.26143 8.30037 
88 1 16.4908 3.35342 3.35344 
92 1 14.7426 1.60556 3.35362 
102 1 14.7425 3.35322 1.60549 
111 1 10.987 5.36161 5.36168 
115 1 12.7344 7.1089 5.36165 
125 1 12.7341 5.36174 7.1071 
5 1 14.9892 3.10651 14.9885 
14 1 12.4877 5.60396 12.4877 
21 1 14.0884 4.00748 14.087 
30 1 13.3905 4.70386 13.3911 
37 1 17.6785 3.45315 14.6418 
47 1 14.6428 0.416943 14.6417 
51 1 14.6429 3.4532 17.6781 
62 1 9.79289 5.26166 12.8351 
72 1 12.8356 8.2879 12.8351 
76 1 12.8351 5.26173 9.79287 
85 1 16.4913 3.35316 14.7416 
95 1 14.7427 1.60488 14.7418 
99 1 14.7426 3.35318 16.4905 
110 1 10.988 5.36102 12.7346 
120 1 12.7336 7.1041 12.7347 
124 1 12.7346 5.36115 10.9881 
3 1 14.9892 14.9892 3.10753 
12 1 12.4873 12.4874 5.60462 
19 1 14.0829 14.083 4.0124 
28 1 13.3955 13.3949 4.69985 
35 1 17.6795 14.6427 3.4539 
45 1 14.6427 17.6789 3.45394 
55 1 14.6427 14.6427 0.417158 
60 1 9.79549 12.8349 5.26185 
70 1 12.8344 9.79603 5.26188 
80 1 12.8358 12.8355 8.2877 
83 1 16.4911 14.7427 3.35381 
93 1 14.7427 16.4909 3.35391 
103 1 14.7426 14.7425 1.60571 
108 1 10.986 12.7348 5.36089 
118 1 12.7344 10.9853 5.36089 
128 1 12.7327 12.7336 7.09694 
2 1 14.9916 14.9912 14.9902 
9 1 12.4977 12.5035 12.4575 
18 1 14.0921 14.0905 14.0909 
25 1 13.3852 13.3969 13.3967 
34 1 17.6805 14.6425 14.6414 
42 1 14.6424 17.6813 14.6413 
50 1 14.6424 14.6424 17.6811 
57 1 9.83527 12.7209 12.8724 
65 1 12.8398 9.78866 12.8355 
73 1 12.8413 12.8357 9.78171 
82 1 16.4918 14.7428 14.7418 
90 1 14.7428 16.4912 14.7418 
98 1 14.7428 14.7428 16.4909 
105 1 11.0342 12.6395 12.7703 
113 1 12.7323 10.9743 12.7456 
121 1 12.7308 12.7437 10.9867 
129 2 9.79546 14.3449 12.8501 
130 3 9.78082 15.2671 12.8298 
ITEM: TIMESTEP
30
ITEM: NUMBER OF ATOMS
130
ITEM: BOX BOUNDS pp pp pp
0.0000000000000000e+00 1.8762000000000000e+01
0.0000000000000000e+00 1.8762000000000000e+01
0.0000000000000000e+00 1.8760999999999999e+01
ITEM: ATOMS id type x y z 
1 1 3.10608 3.10644 3.10698 
10 1 5.60794 5.60706 5.60798 
17 1 4.01328 4.01304 4.01276 
26 1 4.70204 4.70147 4.70145 
33 1 0.416172 3.45141 3.45174 
41 1 3.4511 0.416521 3.45182 
49 1 3.45173 3.45164 0.417562 
58 1 8.29829 5.26339 5.26313 
66 1 5.2636 8.29738 5.26309 
74 1 5.26297 5.26325 8.29715 
81 1 1.60647 3.35048 3.35082 
89 1 3.3503 1.60676 3.35085 
97 1 3.35041 3.35043 1.60768 
106 1 7.10831 5.36414 5.36425 
114 1 5.36437 7.10747 5.36415 
122 1 5.36437 5.36431 7.10708 
4 1 3.10636 3.10601 14.9895 
11 1 5.60797 5.60526 12.4883 
20 1 4.01164 4.01257 14.0836 
27 1 4.7 4.70146 13.3954 
36 1 0.41639 3.45169 14.6438 
46 1 3.45187 0.418271 14.6434 
56 1 3.45167 3.45178 17.6791 
59 1 8.29774 5.26257 12.833 
69 1 5.26256 8.29161 12.8344 
79 1 5.26298 5.2627 9.79607 
84 1 1.60678 3.35056 14.7447 
94 1 3.35041 1.60905 14.745 
104 1 3.35066 3.35052 16.4892 
107 1 7.10738 5.36407 12.7318 
117 1 5.36351 7.10076 12.73 
127 1 5.36376 5.36378 10.9864 
6 1 3.10613 14.9899 3.10699 
13 1 5.60765 12.4881 5.60595 
22 1 4.01196 14.0833 4.01222 
29 1 4.70059 13.3947 4.70038 
38 1 0.416324 14.6441 3.45217 
48 1 3.45181 17.6795 3.45185 
52 1 3.4519 14.6438 0.418953 
61 1 8.2978 12.8335 5.2629 
71 1 5.26284 9.79664 5.26279 
75 1 5.26247 12.8346 8.29156 
86 1 1.60663 14.7453 3.35139 
96 1 3.35087 16.4892 3.35068 
100 1 3.35063 14.7455 1.60951 
109 1 7.10735 12.7319 5.36399 
119 1 5.36373 10.9869 5.36402 
123 1 5.3635 12.7302 7.10073 
7 1 3.09877 14.9984 14.9972 
16 1 5.54339 12.4685 12.4676 
23 1 4.00625 14.0914 14.0903 
32 1 4.6769 13.3934 13.3931 
39 1 0.414478 14.643 14.6421 
43 1 3.45294 17.6841 14.6423 
53 1 3.45236 14.6431 17.683 
64 1 8.31488 12.7383 12.8019 
68 1 5.26905 9.78862 12.8415 
78 1 5.26892 12.8416 9.79016 
87 1 1.60512 14.7453 14.7445 
91 1 3.35089 16.4934 14.7442 
101 1 3.3508 14.7452 16.4925 
112 1 7.12194 12.7382 12.7144 
116 1 5.34091 10.9827 12.7314 
126 1 5.34107 12.7311 10.9841 
8 1 14.99 3.10672 3.10664 
15 1 12.4883 5.60814 5.60857 
24 1 14.0824 4.01213 4.01304 
31 1 13.3941 4.70093 4.70156 
40 1 17.6793 3.45178 3.45155 
44 1 14.6442 0.416809 3.45203 
54 1 14.6443 3.45165 0.416943 
63 1 9.79749 5.26315 5.2632 
67 1 12.8329 8.29696 5.26295 
77 1 12.8328 5.26302 8.29666 
88 1 16.489 3.35058 3.35057 
92 1 14.7455 1.60702 3.35109 
102 1 14.7454 3.35047 1.60712 
111 1 10.9878 5.3642 5.36434 
115 1 12.7316 7.10628 5.36434 
125 1 12.7312 5.36439 7.10639 
5 1 14.9907 3.10643 14.9901 
14 1 12.4855 5.59178 12.4856 
21 1 14.0854 4.01068 14.0834 
30 1 13.3951 4.69668 13.3963 
37 1 17.6798 3.45174 14.6432 
47 1 14.644 0.417805 14.6428 
51 1 14.6442 3.45177 17.6792 
62 1 9.79452 5.26365 12.8345 
72 1 12.8387 8.2784 12.8352 
76 1 12.8343 5.26394 9.79388 
85 1 16.4897 3.3504 14.7444 
95 1 14.7454 1.60783 14.7447 
99 1 14.7454 3.3504 16.4891 
110 1 10.9859 5.36204 12.7329 
120 1 12.7311 7.08985 12.7327 
124 1 12.733 5.36181 10.9843 
3 1 14.9909 14.9908 3.10646 
12 1 12.4866 12.4869 5.59951 
19 1 14.084 14.0842 4.0102 
28 1 13.3965 13.3954 4.698 
35 1 17.6798 14.6441 3.45223 
45 1 14.6441 17.6801 3.45234 
55 1 14.644 14.6439 0.418559 
60 1 9.79555 12.8343 5.26323 
70 1 12.8337 9.79396 5.2634 
80 1 12.8375 12.8343 8.28256 
83 1 16.4895 14.7454 3.35146 
93 1 14.7454 16.4898 3.35151 
103 1 14.7455 14.7455 1.6089 
108 1 10.9859 12.7328 5.36204 
118 1 12.7326 10.9848 5.36209 
128 1 12.7304 12.732 7.09093 
2 1 14.9944 14.9929 14.9933 
9 1 12.5499 12.4769 12.4447 
18 1 14.0827 14.0835 14.0842 
25 1 13.3869 13.4045 13.3988 
34 1 17.6799 14.6433 14.642 
42 1 14.6433 17.6812 14.6422 
50 1 14.6434 14.6435 17.6808 
57 1 9.81879 12.5445 12.8681 
65 1 12.8373 9.80398 12.8388 
73 1 12.8403 12.8398 9.76518 
82 1 16.4893 14.7464 14.7455 
90 1 14.7462 16.4913 14.7453 
98 1 14.7464 14.7463 16.4907 
105 1 11.0176 12.5545 12.8766 
113 1 12.7392 10.9909 12.7372 
121 1 12.7337 12.7503 10.9599 
129 2 9.80131 14.5262 12.8629 
130 3 9.76142 15.4133 12.8196 
ITEM: TIMESTEP
40
ITEM: NUMBER OF ATOMS
130
ITEM: BOX BOUNDS pp pp pp
0.0000000000000000e+00 1.8762000000000000e+01
0.0000000000000000e+00 1.8762000000000000e+01
0.0000000000000000e+00 1.8760999999999999e+01
ITEM: ATOMS id type x y z 
1 1 3.10652 3.10679 3.10733 
10 1 5.60811 5.60728 5.60728 
17 1 4.01303 4.0128 4.01284 
26 1 4.70176 4.70129 4.70129 
33 1 0.415744 3.45104 3.45125 
41 1 3.45079 0.416158 3.45136 
49 1 3.45128 3.45124 0.416897 
58 1 8.29888 5.26376 5.2636 
66 1 5.26391 8.29797 5.26352 
74 1 5.26344 5.26358 8.29779 
81 1 1.60586 3.35046 3.35085 
89 1 3.35019 1.60633 3.35089 
97 1 3.35041 3.35043 1.60714 
106 1 7.10863 5.36408 5.36419 
114 1 5.36439 7.10765 5.36409 
122 1 5.36427 5.36422 7.1076 
4 1 3.10617 3.10703 14.9894 
11 1 5.60734 5.60487 12.4875 
20 1 4.01195 4.01292 14.0836 
27 1 4.70052 4.70126 13.3948 
36 1 0.415919 3.45134 14.644 
46 1 3.4518 0.41849 14.6435 
56 1 3.45139 3.45137 17.6806 
59 1 8.29784 5.26328 12.833 
69 1 5.26498 8.29575 12.8348 
79 1 5.26324 5.26338 9.796 
84 1 1.60607 3.35065 14.7447 
94 1 3.35042 1.60882 14.745 
104 1 3.35076 3.35066 16.4902 
107 1 7.10731 5.36359 12.7316 
117 1 5.36332 7.10534 12.7308 
127 1 5.36382 5.36329 10.9858 
6 1 3.10613 14.9897 3.1077 
13 1 5.60707 12.4875 5.60497 
22 1 4.01222 14.0834 4.01261 
29 1 4.70105 13.3941 4.70037 
38 1 0.415709 14.6444 3.45192 
48 1 3.45148 17.6806 3.45143 
52 1 3.4518 14.644 0.418859 
61 1 8.29735 12.8333 5.26339 
71 1 5.26321 9.79613 5.26338 
75 1 5.26495 12.8349 8.29668 
86 1 1.60601 14.7452 3.35139 
96 1 3.35094 16.4904 3.35089 
100 1 3.35057 14.7455 1.60916 
109 1 7.10713 12.7319 5.36372 
119 1 5.36368 10.986 5.36355 
123 1 5.36311 12.7311 7.10623 
7 1 3.10295 14.9953 14.9942 
16 1 5.57575 12.4802 12.4772 
23 1 4.00944 14.0858 14.085 
32 1 4.68001 13.388 13.3874 
39 1 0.414332 14.6431 14.6422 
43 1 3.45271 17.6837 14.6424 
53 1 3.45222 14.6432 17.683 
64 1 8.30356 12.7212 12.8061 
68 1 5.26492 9.79267 12.8372 
78 1 5.26472 12.8372 9.79287 
87 1 1.60411 14.7459 14.745 
91 1 3.35046 16.4937 14.7448 
101 1 3.35027 14.7458 16.493 
112 1 7.1143 12.727 12.7067 
116 1 5.34366 10.985 12.73 
126 1 5.34349 12.7297 10.9853 
8 1 14.9892 3.10675 3.10696 
15 1 12.4883 5.60674 5.60711 
24 1 14.0828 4.01224 4.01299 
31 1 13.3942 4.70079 4.70142 
40 1 17.68 3.45129 3.45119 
44 1 14.6446 0.4165 3.45172 
54 1 14.6446 3.45126 0.416672 
63 1 9.79673 5.26359 5.26358 
67 1 12.8328 8.29662 5.26332 
77 1 12.8327 5.26344 8.29716 
88 1 16.4898 3.35068 3.35056 
92 1 14.7455 1.60674 3.351 
102 1 14.7455 3.35052 1.60687 
111 1 10.9868 5.36399 5.36416 
115 1 12.7317 7.10629 5.36426 
125 1 12.7313 5.36427 7.10666 
5 1 14.9911 3.10614 14.9902 
14 1 12.4854 5.59356 12.4853 
21 1 14.0849 4.01077 14.0842 
30 1 13.3942 4.69639 13.3943 
37 1 17.6807 3.4514 14.6435 
47 1 14.6441 0.416674 14.6431 
51 1 14.6445 3.45137 17.6802 
62 1 9.79545 5.26426 12.8343 
72 1 12.836 8.29104 12.8346 
76 1 12.8342 5.2645 9.79471 
85 1 16.4905 3.35054 14.7445 
95 1 14.7455 1.60678 14.7446 
99 1 14.7455 3.35059 16.4901 
110 1 10.9855 5.36087 12.7324 
120 1 12.7336 7.10392 12.7329 
124 1 12.7323 5.36091 10.9851 
3 1 14.9908 14.991 3.10665 
12 1 12.4876 12.4876 5.59863 
19 1 14.085 14.0846 4.01024 
28 1 13.3956 13.3951 4.6971 
35 1 17.6806 14.6444 3.45201 
45 1 14.6444 17.6811 3.45204 
55 1 14.6442 14.6441 0.417122 
60 1 9.79429 12.8341 5.26328 
70 1 12.8335 9.79366 5.2635 
80 1 12.838 12.835 8.27918 
83 1 16.4903 14.7454 3.35141 
93 1 14.7454 16.4909 3.35151 
103 1 14.7455 14.7454 1.60731 
108 1 10.9852 12.7331 5.36148 
118 1 12.7328 10.9841 5.36141 
128 1 12.7313 12.7307 7.08795 
2 1 14.9905 14.99 14.991 
9 1 12.5223 12.4756 12.4839 
18 1 14.0799 14.0859 14.083 
25 1 13.3921 13.3994 13.3931 
34 1 17.6793 14.6437 14.6424 
42 1 14.6439 17.6809 14.6428 
50 1 14.644 14.644 17.6811 
57 1 9.81588 12.5672 12.8811 
65 1 12.8338 9.79206 12.8385 
73 1 12.8346 12.8441 9.76984 
82 1 16.4894 14.7465 14.7457 
90 1 14.7464 16.4912 14.7454 
98 1 14.7466 14.7462 16.4912 
105 1 11.0148 12.5452 12.8383 
113 1 12.7526 10.9812 12.7295 
121 1 12.7406 12.7432 10.9657 
129 2 9.80115 14.5117 12.8627 
130 3 9.76156 15.4394 12.8195 
ITEM: TIMESTEP
42
ITEM: NUMBER OF ATOMS
130
ITEM: BOX BOUNDS pp pp pp
0.0000000000000000e+00 1.8762000000000000e+01
0.0000000000000000e+00 1.8762000000000000e+01
0.0000000000000000e+00 1.8760999999999999e+01
ITEM: ATOMS id type x y z 
1 1 3.10626 3.10649 3.107 
10 1 5.60827 5.60735 5.60744 
17 1 4.01318 4.01292 4.01321 
26 1 4.70161 4.70125 4.70104 
33 1 0.416276 3.45091 3.45112 
41 1 3.45068 0.416793 3.45124 
49 1 3.45117 3.45114 0.417449 
58 1 8.29826 5.2639 5.26379 
66 1 5.26401 8.29756 5.26371 
74 1 5.26361 5.26377 8.29727 
81 1 1.60646 3.35036 3.35074 
89 1 3.35006 1.60704 3.35078 
97 1 3.35027 3.3503 1.60809 
106 1 7.10855 5.36414 5.36419 
114 1 5.36449 7.1075 5.36411 
122 1 5.36431 5.36423 7.10766 
4 1 3.10591 3.10722 14.9898 
11 1 5.60736 5.60572 12.4869 
20 1 4.01218 4.01313 14.0833 
27 1 4.70063 4.70117 13.3948 
36 1 0.416508 3.4512 14.644 
46 1 3.45175 0.418843 14.6436 
56 1 3.45133 3.45124 17.6802 
59 1 8.29728 5.26357 12.833 
69 1 5.26547 8.29578 12.8347 
79 1 5.26345 5.2636 9.79682 
84 1 1.6064 3.3506 14.7448 
94 1 3.35035 1.60911 14.7451 
104 1 3.35064 3.35058 16.4894 
107 1 7.10677 5.36356 12.7314 
117 1 5.36375 7.10513 12.7311 
127 1 5.36391 5.36325 10.9859 
6 1 3.10589 14.9901 3.10779 
13 1 5.60735 12.4869 5.60623 
22 1 4.01254 14.0831 4.01266 
29 1 4.70091 13.3942 4.70049 
38 1 0.416218 14.6445 3.45183 
48 1 3.45138 17.6801 3.45129 
52 1 3.45175 14.6441 0.419234 
61 1 8.29645 12.8332 5.26355 
71 1 5.26342 9.79677 5.26359 
75 1 5.26543 12.8349 8.29616 
86 1 1.60669 14.7453 3.35128 
96 1 3.35084 16.4899 3.35085 
100 1 3.35046 14.7455 1.60959 
109 1 7.10598 12.7316 5.36377 
119 1 5.36385 10.9865 5.36353 
123 1 5.3636 12.7313 7.10539 
7 1 3.10378 14.9944 14.9935 
16 1 5.58355 12.4817 12.4777 
23 1 4.00841 14.0855 14.0847 
32 1 4.68105 13.3879 13.3872 
39 1 0.415582 14.6433 14.6423 
43 1 3.45251 17.6827 14.6425 
53 1 3.45205 14.6434 17.6819 
64 1 8.30226 12.7166 12.8066 
68 1 5.26344 9.79571 12.8355 
78 1 5.26314 12.8355 9.7961 
87 1 1.60528 14.7462 14.7453 
91 1 3.35021 16.4926 14.7452 
101 1 3.35 14.7461 16.4918 
112 1 7.11265 12.7232 12.7059 
116 1 5.34511 10.9851 12.73 
126 1 5.34496 12.7299 10.9854 
8 1 14.9895 3.10652 3.10675 
15 1 12.4878 5.6068 5.60716 
24 1 14.0827 4.01245 4.01322 
31 1 13.3945 4.70056 4.701 
40 1 17.6795 3.45115 3.45105 
44 1 14.6448 0.417015 3.45162 
54 1 14.6448 3.45115 0.417211 
63 1 9.79724 5.26377 5.26375 
67 1 12.8327 8.29594 5.2635 
77 1 12.8327 5.2637 8.29709 
88 1 16.4893 3.35059 3.35048 
92 1 14.7455 1.60733 3.35087 
102 1 14.7455 3.35042 1.60743 
111 1 10.9869 5.36397 5.36415 
115 1 12.7317 7.10588 5.36428 
125 1 12.7313 5.36424 7.10638 
5 1 14.9914 3.10598 14.9905 
14 1 12.4854 5.5984 12.4853 
21 1 14.0852 4.01022 14.0847 
30 1 13.3929 4.6972 13.3928 
37 1 17.6802 3.4513 14.6436 
47 1 14.6442 0.416842 14.6432 
51 1 14.6445 3.45125 17.6799 
62 1 9.7957 5.26428 12.8341 
72 1 12.8349 8.28781 12.8351 
76 1 12.834 5.26448 9.79471 
85 1 16.49 3.35044 14.7446 
95 1 14.7456 1.6073 14.7448 
99 1 14.7456 3.35049 16.4895 
110 1 10.9878 5.36088 12.7317 
120 1 12.7331 7.09971 12.7319 
124 1 12.7317 5.36096 10.9876 
3 1 14.9913 14.9915 3.10619 
12 1 12.4873 12.4871 5.59653 
19 1 14.0853 14.085 4.00986 
28 1 13.3955 13.395 4.69686 
35 1 17.6801 14.6445 3.45194 
45 1 14.6445 17.6807 3.45195 
55 1 14.6442 14.6442 0.41773 
60 1 9.79383 12.8342 5.26328 
70 1 12.8335 9.79379 5.26352 
80 1 12.8374 12.8355 8.28143 
83 1 16.4896 14.7456 3.35127 
93 1 14.7455 16.4903 3.35138 
103 1 14.7456 14.7456 1.60803 
108 1 10.9857 12.7332 5.36134 
118 1 12.733 10.9841 5.36122 
128 1 12.7321 12.7306 7.08984 
2 1 14.99 14.9902 14.991 
9 1 12.5188 12.4702 12.4897 
18 1 14.0802 14.0869 14.0832 
25 1 13.3933 13.399 13.3939 
34 1 17.6783 14.6438 14.6426 
42 1 14.6442 17.6801 14.643 
50 1 14.6442 14.6442 17.6801 
57 1 9.81258 12.574 12.8857 
65 1 12.8356 9.79672 12.8366 
73 1 12.8342 12.8441 9.76968 
82 1 16.4884 14.7465 14.7459 
90 1 14.7465 16.4901 14.7456 
98 1 14.7467 14.7464 16.4899 
105 1 11.0121 12.5435 12.8269 
113 1 12.7541 10.982 12.7291 
121 1 12.7403 12.7419 10.9672 
129 2 9.80057 14.5143 12.8621 
130 3 9.76206 15.441 12.8199 
ITEM: TIMESTEP
50
ITEM: NUMBER OF ATOMS
130
ITEM: BOX BOUNDS pp pp pp
0.0000000000000000e+00 1.8762000000000000e+01
0.0000000000000000e+00 1.8762000000000000e+01
0.0000000000000000e+00 1.8760999999999999e+01
ITEM: ATOMS id type x y z 
1 1 3.10654 3.10677 3.10733 
10 1 5.60812 5.6073 5.60723 
17 1 4.01295 4.01287 4.013 
26 1 4.7018 4.70135 4.70138 
33 1 0.415816 3.45075 3.45095 
41 1 3.45054 0.416351 3.45107 
49 1 3.45097 3.45095 0.417151 
58 1 8.29886 5.26402 5.26394 
66 1 5.26414 8.29809 5.2639 
74 1 5.26374 5.26393 8.29798 
81 1 1.60607 3.35038 3.35076 
89 1 3.35007 1.60663 3.35079 
97 1 3.35031 3.35035 1.60737 
106 1 7.10835 5.36418 5.36421 
114 1 5.36452 7.10769 5.36409 
122 1 5.36435 5.36424 7.10755 
4 1 3.10618 3.10766 14.9897 
11 1 5.60715 5.60589 12.4871 
20 1 4.01222 4.01313 14.0833 
27 1 4.70086 4.70131 13.3944 
36 1 0.41595 3.45104 14.6441 
46 1 3.45162 0.418288 14.6437 
56 1 3.45117 3.45102 17.6805 
59 1 8.29772 5.26392 12.8328 
69 1 5.26578 8.29641 12.8344 
79 1 5.26362 5.2637 9.79594 
84 1 1.60632 3.35064 14.7449 
94 1 3.35039 1.60847 14.745 
104 1 3.35065 3.35069 16.4902 
107 1 7.10761 5.36348 12.7315 
117 1 5.36413 7.10637 12.7316 
127 1 5.36394 5.36331 10.9863 
6 1 3.10621 14.9899 3.10808 
13 1 5.60685 12.4871 5.60622 
22 1 4.01245 14.0831 4.01278 
29 1 4.70107 13.3939 4.70073 
38 1 0.415917 14.6446 3.45167 
48 1 3.45123 17.6806 3.4511 
52 1 3.4516 14.6442 0.418646 
61 1 8.29653 12.8331 5.2637 
71 1 5.26363 9.79602 5.26371 
75 1 5.26571 12.8346 8.29704 
86 1 1.60624 14.7453 3.35133 
96 1 3.35083 16.4904 3.35093 
100 1 3.3505 14.7455 1.60882 
109 1 7.10641 12.7316 5.36372 
119 1 5.36383 10.9863 5.3635 
123 1 5.36398 12.7318 7.10672 
7 1 3.10479 14.9934 14.9926 
16 1 5.58742 12.4838 12.4795 
23 1 4.00811 14.0843 14.0835 
32 1 4.68233 13.3885 13.3876 
39 1 0.415197 14.6436 14.6426 
43 1 3.45222 17.6827 14.6428 
53 1 3.45179 14.6437 17.6819 
64 1 8.30193 12.7128 12.8077 
68 1 5.26203 9.79468 12.8343 
78 1 5.26162 12.8342 9.79431 
87 1 1.60489 14.7463 14.7454 
91 1 3.35018 16.4928 14.7453 
101 1 3.34995 14.7463 16.492 
112 1 7.11244 12.7193 12.7056 
116 1 5.34673 10.9859 12.7303 
126 1 5.34658 12.7304 10.9857 
8 1 14.9894 3.10672 3.10701 
15 1 12.4879 5.6065 5.60708 
24 1 14.083 4.01234 4.01285 
31 1 13.3942 4.70068 4.70131 
40 1 17.68 3.45098 3.45088 
44 1 14.6449 0.416661 3.45148 
54 1 14.6449 3.45099 0.416796 
63 1 9.79664 5.26392 5.2639 
67 1 12.8326 8.29599 5.26368 
77 1 12.8326 5.26407 8.29751 
88 1 16.4897 3.3506 3.35051 
92 1 14.7455 1.60696 3.35086 
102 1 14.7455 3.35043 1.60709 
111 1 10.9869 5.36396 5.36411 
115 1 12.7317 7.10592 5.36423 
125 1 12.7314 5.36411 7.10746 
5 1 14.9909 3.10636 14.9902 
14 1 12.4862 5.59879 12.4859 
21 1 14.0841 4.01089 14.0837 
30 1 13.3939 4.69655 13.3935 
37 1 17.6806 3.45115 14.6437 
47 1 14.6444 0.416453 14.6434 
51 1 14.6447 3.45108 17.6802 
62 1 9.7957 5.26427 12.8336 
72 1 12.834 8.29069 12.835 
76 1 12.8335 5.26446 9.79529 
85 1 16.4903 3.35045 14.7447 
95 1 14.7456 1.60649 14.7447 
99 1 14.7457 3.35051 16.49 
110 1 10.986 5.36085 12.7319 
120 1 12.733 7.10175 12.7322 
124 1 12.7319 5.36092 10.9856 
3 1 14.9912 14.9914 3.10643 
12 1 12.487 12.4868 5.59684 
19 1 14.0851 14.0848 4.00993 
28 1 13.3956 13.3951 4.69634 
35 1 17.6806 14.6446 3.45181 
45 1 14.6447 17.6812 3.45182 
55 1 14.6444 14.6443 0.416964 
60 1 9.79422 12.834 5.26355 
70 1 12.8334 9.79368 5.26366 
80 1 12.8369 12.8358 8.28094 
83 1 16.4903 14.7456 3.35127 
93 1 14.7455 16.4909 3.35138 
103 1 14.7456 14.7456 1.60715 
108 1 10.9846 12.7332 5.36094 
118 1 12.7329 10.9842 5.36093 
128 1 12.7324 12.7304 7.08997 
2 1 14.9894 14.9902 14.9906 
9 1 12.5154 12.4715 12.4924 
18 1 14.0801 14.0871 14.083 
25 1 13.3938 13.3982 13.3946 
34 1 17.679 14.6441 14.6429 
42 1 14.6444 17.6805 14.6432 
50 1 14.6445 14.6444 17.6805 
57 1 9.81183 12.5799 12.8893 
65 1 12.8379 9.78959 12.8349 
73 1 12.8336 12.8438 9.77388 
82 1 16.4892 14.7464 14.7457 
90 1 14.7464 16.4906 14.7456 
98 1 14.7466 14.7463 16.4905 
105 1 11.0078 12.5418 12.8163 
113 1 12.7555 10.9809 12.7299 
121 1 12.7399 12.7405 10.9675 
129 2 9.79985 14.5164 12.8615 
130 3 9.76267 15.4438 12.8203 
ITEM: TIMESTEP
60
ITEM: NUMBER OF ATOMS
130
ITEM: BOX BOUNDS pp pp pp
0.0000000000000000e+00 1.8762000000000000e+01
0.0000000000000000e+00 1.8762000000000000e+01
0.0000000000000000e+00 1.8760999999999999e+01
ITEM: ATOMS id type x y z 
1 1 3.10652 3.1069 3.10737 
10 1 5.60818 5.60748 5.60737 
17 1 4.01295 4.01275 4.01329 
26 1 4.70177 4.7015 4.70149 
33 1 0.415964 3.45034 3.45053 
41 1 3.45019 0.416489 3.45066 
49 1 3.45059 3.45054 0.417134 
58 1 8.2986 5.26443 5.26442 
66 1 5.26453 8.29806 5.26438 
74 1 5.26425 5.26444 8.29787 
81 1 1.60623 3.35027 3.35064 
89 1 3.34994 1.60681 3.35067 
97 1 3.35018 3.35024 1.60765 
106 1 7.10834 5.36432 5.36428 
114 1 5.36469 7.10759 5.3642 
122 1 5.36444 5.36432 7.10789 
4 1 3.10633 3.10798 14.9898 
11 1 5.60728 5.60668 12.4869 
20 1 4.01251 4.01334 14.083 
27 1 4.70108 4.70133 13.3938 
36 1 0.41631 3.45059 14.6444 
46 1 3.45123 0.418046 14.644 
56 1 3.45083 3.45058 17.6806 
59 1 8.29761 5.26449 12.8324 
69 1 5.26606 8.29777 12.8335 
79 1 5.26423 5.26415 9.79657 
84 1 1.60628 3.35065 14.7451 
94 1 3.35035 1.60811 14.7452 
104 1 3.35044 3.35066 16.4898 
107 1 7.10714 5.36375 12.7313 
117 1 5.36533 7.10686 12.7324 
127 1 5.36397 5.36345 10.9859 
6 1 3.10643 14.99 3.10808 
13 1 5.60644 12.4869 5.60704 
22 1 4.01248 14.083 4.01315 
29 1 4.70101 13.3938 4.70111 
38 1 0.41628 14.6449 3.4513 
48 1 3.45082 17.6806 3.45067 
52 1 3.4512 14.6445 0.418246 
61 1 8.29627 12.8327 5.26404 
71 1 5.26424 9.79622 5.26408 
75 1 5.26591 12.8337 8.29776 
86 1 1.60667 14.7455 3.35123 
96 1 3.35065 16.4902 3.3509 
100 1 3.35042 14.7456 1.60842 
109 1 7.10561 12.7314 5.36388 
119 1 5.36386 10.986 5.36357 
123 1 5.36516 12.7326 7.10697 