ITEM: TIMESTEP
0
ITEM: NUMBER OF ATOMS
32
ITEM: BOX BOUNDS pp pp pp
0.0000000000000000e+00 6.8131000000000004e+00
0.0000000000000000e+00 6.8131000000000004e+00
0.0000000000000000e+00 2.4587700000000002e+01
ITEM: ATOMS id type x y z 
2 1 3.40655 1.70328 13.3442 
5 1 4.59537 1.70328 18.085 
7 1 3.40655 1.70328 15.9798 
8 1 2.21773 1.70328 18.085 
18 1 3.40655 1.70328 17.3904 
21 1 3.40655 2.89209 12.6496 
23 1 3.40655 1.70328 14.7548 
24 1 3.40655 0.514457 12.6496 
17 1 0 2.89209 24.2319 
19 1 0 1.70328 22.1267 
20 1 0 0.514457 24.2319 
22 1 0 1.70328 19.4912 
25 1 5.62428 1.70328 18.7966 
27 1 0 1.70328 20.9018 
28 1 1.18882 1.70328 18.7966 
30 1 0 1.70328 23.5373 
10 1 0 5.10982 5.09654 
13 1 0 3.92101 0.355784 
15 1 0 5.10982 2.46098 
16 1 0 6.29864 0.355784 
26 1 0 5.10982 1.05039 
29 1 5.62428 5.10982 5.79114 
31 1 0 5.10982 3.68594 
32 1 1.18882 5.10982 5.79114 
1 1 4.59537 5.10982 6.50271 
3 1 3.40655 5.10982 8.60791 
4 1 2.21773 5.10982 6.50271 
6 1 3.40655 5.10982 11.2435 
9 1 3.40655 3.92101 11.9381 
11 1 3.40655 5.10982 9.83287 
12 1 3.40655 6.29864 11.9381 
14 1 3.40655 5.10982 7.19731 
ITEM: TIMESTEP
10
ITEM: NUMBER OF ATOMS
32
ITEM: BOX BOUNDS pp pp pp
0.0000000000000000e+00 6.8131000000000004e+00
0.0000000000000000e+00 6.8131000000000004e+00
0.0000000000000000e+00 2.4587700000000002e+01
ITEM: ATOMS id type x y z 
2 1 3.40629 1.70305 13.3633 
5 1 4.61782 1.70336 18.0881 
7 1 3.40383 1.70415 15.9746 
8 1 2.20479 1.70336 18.0812 
18 1 3.40829 1.70266 17.3716 
21 1 3.4066 2.90628 12.6527 
23 1 3.40831 1.70288 14.7606 
24 1 3.4066 0.500464 12.6528 
17 1 -0.000159595 2.91355 24.2342 
19 1 0.00108262 1.70193 22.12 
20 1 -0.000165901 0.50144 24.2282 
22 1 -0.0018337 1.70428 19.51 
25 1 5.60184 1.70338 18.7935 
27 1 0.00132528 1.70222 20.9085 
28 1 1.20181 1.70338 18.8003 
30 1 -0.0010736 1.70479 23.5185 
10 1 0.000104268 5.11028 5.0776 
13 1 5.9593e-05 3.89978 0.353586 
15 1 0.000134279 5.11061 2.46576 
16 1 6.26598e-05 6.31186 0.359457 
26 1 8.28836e-05 5.1089 1.06911 
29 1 5.60971 5.10964 5.78838 
31 1 -0.000270962 5.10882 3.68067 
32 1 1.20343 5.10964 5.78841 
1 1 4.60995 5.11001 6.50546 
3 1 3.40665 5.11101 8.61141 
4 1 2.20313 5.11001 6.50545 
6 1 3.40662 5.10995 11.2245 
9 1 3.40652 3.907 11.9349 
11 1 3.40637 5.10872 9.82934 
12 1 3.40652 6.31281 11.935 
14 1 3.40653 5.10938 7.21624 
ITEM: TIMESTEP
20
ITEM: NUMBER OF ATOMS
32
ITEM: BOX BOUNDS pp pp pp
0.0000000000000000e+00 6.8131000000000004e+00
0.0000000000000000e+00 6.8131000000000004e+00
0.0000000000000000e+00 2.4587700000000002e+01
ITEM: ATOMS id type x y z 
2 1 3.4081 1.70372 13.3875 
5 1 4.61993 1.70328 18.0885 
7 1 3.40501 1.70274 15.979 
8 1 2.1986 1.70321 18.0831 
18 1 3.4245 1.70356 17.3624 
21 1 3.40659 2.91028 12.6536 
23 1 3.40463 1.70299 14.7685 
24 1 3.4066 0.49629 12.6536 
17 1 -0.000212005 2.91667 24.2352 
19 1 0.000125347 1.70082 22.1188 
20 1 -0.000248028 0.495409 24.2298 
22 1 -0.0176694 1.70387 19.5203 
25 1 5.5997 1.70347 18.7932 
27 1 0.00252978 1.70306 20.9097 
28 1 1.20772 1.70356 18.7987 
30 1 -0.000622984 1.72095 23.5075 
10 1 0.000589349 5.10841 5.05345 
13 1 6.76479e-05 3.89658 0.35233 
15 1 3.30918e-05 5.10928 2.46176 
16 1 7.91425e-05 6.31838 0.357485 
26 1 0.000587499 5.09229 1.07879 
29 1 5.6058 5.10982 5.78739 
31 1 -0.00133366 5.11255 3.6722 
32 1 1.20735 5.10982 5.78737 
1 1 4.61427 5.10984 6.50615 
3 1 3.40703 5.10745 8.6147 
4 1 2.19899 5.10984 6.50628 
6 1 3.40628 5.11002 11.2017 
9 1 3.40653 3.90233 11.9345 
11 1 3.40665 5.11051 9.82612 
12 1 3.40653 6.31742 11.9345 
14 1 3.40625 5.11119 7.23907 
ITEM: TIMESTEP
30
ITEM: NUMBER OF ATOMS
32
ITEM: BOX BOUNDS pp pp pp
0.0000000000000000e+00 6.8131000000000004e+00
0.0000000000000000e+00 6.8131000000000004e+00
0.0000000000000000e+00 2.4587700000000002e+01
ITEM: ATOMS id type x y z 
2 1 3.40777 1.70347 13.401 
5 1 4.62306 1.70333 18.0881 
7 1 3.40331 1.70318 15.9868 
8 1 2.19573 1.70337 18.0834 
18 1 3.43117 1.70341 17.364 
21 1 3.40691 2.91276 12.6565 
23 1 3.40472 1.70215 14.7749 
24 1 3.40691 0.494231 12.6566 
17 1 -0.00030609 2.91624 24.2318 
19 1 0.00195288 1.70101 22.1198 
20 1 -0.000343596 0.494332 24.2285 
22 1 -0.0244064 1.70424 19.5248 
25 1 5.59898 1.70352 18.7958 
27 1 0.00229349 1.70135 20.9086 
28 1 1.20888 1.70352 18.8 
30 1 -0.00113004 1.72758 23.5033 
10 1 -0.000303835 5.11016 5.0399 
13 1 0.000168411 3.89477 0.353611 
15 1 -0.00129785 5.11263 2.45397 
16 1 0.000197033 6.32103 0.357334 
26 1 0.00139639 5.08566 1.0767 
29 1 5.60403 5.10976 5.78426 
31 1 -0.000998845 5.10922 3.66623 
32 1 1.20947 5.10976 5.78418 
1 1 4.61784 5.10989 6.50776 
3 1 3.40795 5.11059 8.61359 
4 1 2.19524 5.10989 6.50797 
6 1 3.40562 5.11017 11.1943 
9 1 3.40633 3.89871 11.9328 
11 1 3.40706 5.1085 9.82727 
12 1 3.40634 6.32128 11.933 
14 1 3.40644 5.10989 7.24661 
ITEM: TIMESTEP
40
ITEM: NUMBER OF ATOMS
32
ITEM: BOX BOUNDS pp pp pp
0.0000000000000000e+00 6.8131000000000004e+00
0.0000000000000000e+00 6.8131000000000004e+00
0.0000000000000000e+00 2.4587700000000002e+01
ITEM: ATOMS id type x y z 
2 1 3.40766 1.70342 13.4012 
5 1 4.62291 1.70334 18.0871 
7 1 3.40264 1.70294 15.9876 
8 1 2.19501 1.70337 18.0838 
18 1 3.43053 1.70349 17.3657 
21 1 3.40692 2.91277 12.6575 
23 1 3.40491 1.70231 14.7759 
24 1 3.40692 0.494227 12.6576 
17 1 -0.000342046 2.91615 24.2308 
19 1 0.00181079 1.70069 22.1193 
20 1 -0.000365574 0.494471 24.2281 
22 1 -0.024075 1.70403 19.5249 
25 1 5.6003 1.70355 18.7977 
27 1 0.0026441 1.70146 20.909 
28 1 1.20895 1.70355 18.8003 
30 1 -0.000954519 1.72747 23.5035 
10 1 -5.22226e-05 5.10949 5.03974 
13 1 0.000213318 3.89361 0.353564 
15 1 -0.000766144 5.11237 2.45315 
16 1 0.000233206 6.32162 0.357069 
26 1 0.00117739 5.08606 1.07509 
29 1 5.60385 5.10974 5.78341 
31 1 -0.00133107 5.11077 3.66502 
32 1 1.20935 5.10974 5.78308 
1 1 4.6186 5.10992 6.50808 
3 1 3.40844 5.10969 8.61384 
4 1 2.1943 5.10991 6.50825 
6 1 3.40554 5.11015 11.1957 
9 1 3.40632 3.89786 11.9325 
11 1 3.40687 5.10887 9.82703 
12 1 3.40632 6.32221 11.9327 
14 1 3.40646 5.11034 7.24513 
ITEM: TIMESTEP
50
ITEM: NUMBER OF ATOMS
32
ITEM: BOX BOUNDS pp pp pp
0.0000000000000000e+00 6.8131000000000004e+00
0.0000000000000000e+00 6.8131000000000004e+00
0.0000000000000000e+00 2.4587700000000002e+01
ITEM: ATOMS id type x y z 
2 1 3.40839 1.70327 13.4057 
5 1 4.62955 1.70351 18.0846 
7 1 3.39804 1.70227 15.9959 
8 1 2.19179 1.70356 18.0849 
18 1 3.43092 1.70324 17.3787 
21 1 3.40709 2.91398 12.6661 
23 1 3.40326 1.70361 14.7848 
24 1 3.4071 0.493085 12.6661 
17 1 -0.000430383 2.91725 24.2222 
19 1 0.00233566 1.69839 22.1195 
20 1 -0.000298895 0.496226 24.2236 
22 1 -0.0230529 1.70293 19.5267 
25 1 5.59911 1.70364 18.8061 
27 1 0.00512166 1.70071 20.9089 
28 1 1.20712 1.70359 18.8049 
30 1 -0.00026054 1.72641 23.5017 
10 1 0.000136915 5.1088 5.03507 
13 1 0.000374159 3.8871 0.35589 
15 1 0.00101079 5.11635 2.44492 
16 1 0.000296033 6.32486 0.356138 
26 1 0.000685643 5.08555 1.06212 
29 1 5.60264 5.10946 5.77505 
31 1 -0.00247652 5.11344 3.65597 
32 1 1.21045 5.10945 5.77431 
1 1 4.62594 5.11023 6.51099 
3 1 3.41013 5.11006 8.61478 
4 1 2.18648 5.11022 6.51136 
6 1 3.40477 5.11064 11.2053 
9 1 3.40609 3.8903 11.9297 
11 1 3.40653 5.10676 9.82607 
12 1 3.40608 6.32981 11.9295 
14 1 3.40608 5.1109 7.23553 
ITEM: TIMESTEP
60
ITEM: NUMBER OF ATOMS
32
ITEM: BOX BOUNDS pp pp pp
0.0000000000000000e+00 6.8131000000000004e+00
0.0000000000000000e+00 6.8131000000000004e+00
0.0000000000000000e+00 2.4587700000000002e+01
ITEM: ATOMS id type x y z 
2 1 3.40889 1.7034 13.4079 
5 1 4.63018 1.70354 18.0836 
7 1 3.39687 1.70294 15.9966 
8 1 2.19164 1.70356 18.0851 
18 1 3.43226 1.70293 17.3777 
21 1 3.4072 2.91501 12.667 
23 1 3.40246 1.70337 14.7853 
24 1 3.4072 0.492188 12.6671 
17 1 -0.000341341 2.91815 24.2209 
19 1 0.00333778 1.69799 22.1198 
20 1 -0.000202992 0.495588 24.2232 
22 1 -0.0242884 1.70315 19.5278 
25 1 5.59825 1.70358 18.8075 
27 1 0.00552663 1.69975 20.9087 
28 1 1.20774 1.70351 18.8052 
30 1 -0.000578572 1.7276 23.5006 
10 1 9.1693e-06 5.10859 5.03293 
13 1 0.000299874 3.88648 0.356818 
15 1 -0.000167854 5.11773 2.44416 
16 1 0.000248932 6.32502 0.356031 
26 1 0.00146515 5.08422 1.06308 
29 1 5.60178 5.10948 5.77412 
31 1 -0.00220135 5.1137 3.65556 
32 1 1.21142 5.10947 5.77329 
1 1 4.6267 5.11025 6.51164 
3 1 3.4103 5.10905 8.61452 
4 1 2.18563 5.11023 6.5122 
6 1 3.40404 5.11042 11.2036 
9 1 3.40597 3.88972 11.929 
11 1 3.4073 5.10643 9.82631 
12 1 3.40597 6.33076 11.9287 
14 1 3.40608 5.11179 7.23725 
ITEM: TIMESTEP
70
ITEM: NUMBER OF ATOMS
32
ITEM: BOX BOUNDS pp pp pp
0.0000000000000000e+00 6.8131000000000004e+00
0.0000000000000000e+00 6.8131000000000004e+00
0.0000000000000000e+00 2.4587700000000002e+01
ITEM: ATOMS id type x y z 
2 1 3.41089 1.7047 13.4104 
5 1 4.63398 1.70345 18.0794 
7 1 3.39044 1.70428 15.9984 
8 1 2.19202 1.70331 18.0864 
18 1 3.43368 1.70306 17.3782 
21 1 3.40771 2.91783 12.6718 
23 1 3.39997 1.70137 14.7866 
24 1 3.40771 0.489149 12.6717 
17 1 -0.000326026 2.92226 24.2146 
19 1 0.0056125 1.69475 22.12 
20 1 -0.000294953 0.494542 24.2215 
22 1 -0.0253336 1.70308 19.5285 
25 1 5.5942 1.70352 18.8139 
27 1 0.00894954 1.69734 20.9085 
28 1 1.20878 1.70344 18.807 
30 1 -0.000811409 1.72852 23.4999 
10 1 -0.00124875 5.10704 5.03025 
13 1 0.000453238 3.88273 0.360663 
15 1 -0.0021734 5.1237 2.44237 
16 1 0.00064929 6.32476 0.354956 
26 1 0.00215369 5.08282 1.06269 
29 1 5.59869 5.10927 5.76981 
31 1 5.9804e-05 5.11605 3.65422 
32 1 1.21462 5.10926 5.76853 
1 1 4.62934 5.11076 6.51438 
3 1 3.41128 5.10888 8.61427 
4 1 2.18208 5.11074 6.51549 
6 1 3.40282 5.10939 11.2025 
9 1 3.40541 3.88691 11.9264 
11 1 3.4073 5.10579 9.82644 
12 1 3.40541 6.33443 11.9255 
14 1 3.40697 5.11249 7.23818 
ITEM: TIMESTEP
80
ITEM: NUMBER OF ATOMS
32
ITEM: BOX BOUNDS pp pp pp
0.0000000000000000e+00 6.8131000000000004e+00
0.0000000000000000e+00 6.8131000000000004e+00
0.0000000000000000e+00 2.4587700000000002e+01
ITEM: ATOMS id type x y z 
2 1 3.41149 1.70347 13.4094 
5 1 4.63482 1.70346 18.0785 
7 1 3.38886 1.70275 15.9982 
8 1 2.19249 1.70338 18.087 
18 1 3.43337 1.70352 17.3789 
21 1 3.40784 2.91839 12.6724 
23 1 3.39946 1.70303 14.7866 
24 1 3.40784 0.488711 12.6721 
17 1 -0.000347963 2.92307 24.2134 
19 1 0.00599661 1.69387 22.1198 
20 1 -0.000221933 0.494678 24.2214 
22 1 -0.0248995 1.70301 19.5281 
25 1 5.59323 1.7035 18.815 
27 1 0.00986775 1.69696 20.9086 
28 1 1.20858 1.70334 18.8071 
30 1 -0.000886323 1.72813 23.5003 
10 1 -0.000236559 5.10649 5.03149 
13 1 0.000515401 3.88202 0.361546 
15 1 -0.000339388 5.12519 2.44265 
16 1 0.000626392 6.3243 0.354427 
26 1 0.00153959 5.08309 1.06188 
29 1 5.59843 5.10917 5.76906 
31 1 -0.00149858 5.11673 3.65421 
32 1 1.21497 5.10916 5.76799 
1 1 4.62974 5.1108 6.51456 
3 1 3.41145 5.10899 8.61448 
4 1 2.18183 5.11079 6.51588 
6 1 3.4023 5.11031 11.204 
9 1 3.40536 3.88652 11.9262 
11 1 3.40737 5.10558 9.82635 
12 1 3.40536 6.3344 11.9249 
14 1 3.40609 5.11277 7.23679 
ITEM: TIMESTEP
90
ITEM: NUMBER OF ATOMS
32
ITEM: BOX BOUNDS pp pp pp
0.0000000000000000e+00 6.8131000000000004e+00
0.0000000000000000e+00 6.8131000000000004e+00
0.0000000000000000e+00 2.4587700000000002e+01
ITEM: ATOMS id type x y z 
2 1 3.41161 1.70344 13.4093 
5 1 4.63495 1.70347 18.0784 
7 1 3.38861 1.70278 15.9982 
8 1 2.19256 1.70339 18.0871 
18 1 3.43335 1.70351 17.3789 
21 1 3.40786 2.91846 12.6725 
23 1 3.39936 1.70303 14.7866 
24 1 3.40787 0.488668 12.6722 
17 1 -0.000349479 2.92318 24.2132 
19 1 0.00606817 1.69374 22.1199 
20 1 -0.000213526 0.494691 24.2214 
22 1 -0.0249312 1.70301 19.528 
25 1 5.59315 1.7035 18.8152 
27 1 0.0100011 1.69689 20.9085 
28 1 1.20858 1.70333 18.8071 
30 1 -0.000900242 1.72815 23.5004 
10 1 -0.000253006 5.1065 5.03154 
13 1 0.000514554 3.88188 0.361659 
15 1 -0.000373791 5.12553 2.44266 
16 1 0.0006194 6.32424 0.35434 
26 1 0.00155231 5.0831 1.06187 
29 1 5.59836 5.10914 5.76897 
31 1 -0.00142274 5.11662 3.6542 
32 1 1.21503 5.10913 5.7679 
1 1 4.62976 5.11081 6.51461 
3 1 3.41154 5.10896 8.61449 
4 1 2.18176 5.1108 6.51594 
6 1 3.40227 5.11025 11.2041 
9 1 3.40534 3.8865 11.9262 
11 1 3.40728 5.10558 9.82634 
12 1 3.40535 6.33448 11.9249 
14 1 3.40612 5.11284 7.23674 
ITEM: TIMESTEP
100
ITEM: NUMBER OF ATOMS
32
ITEM: BOX BOUNDS pp pp pp
0.0000000000000000e+00 6.8131000000000004e+00
0.0000000000000000e+00 6.8131000000000004e+00
0.0000000000000000e+00 2.4587700000000002e+01
ITEM: ATOMS id type x y z 
2 1 3.41362 1.70293 13.4086 
5 1 4.63729 1.70361 18.0757 
7 1 3.38384 1.70262 15.998 
8 1 2.19376 1.70353 18.0889 
18 1 3.43357 1.7032 17.3793 
21 1 3.40841 2.91939 12.6743 
23 1 3.39775 1.70432 14.7867 
24 1 3.40841 0.487484 12.6737 
17 1 -0.000389164 2.92554 24.21 
19 1 0.00744123 1.6914 22.1197 
20 1 -0.000103371 0.494886 24.2214 
22 1 -0.0251466 1.70292 19.5278 
25 1 5.59074 1.70346 18.8184 
27 1 0.0125041 1.69544 20.9086 
28 1 1.20838 1.70318 18.8071 
30 1 -0.00116623 1.72826 23.5006 
10 1 -0.000852527 5.10498 5.03216 
13 1 0.000511346 3.87966 0.364116 
15 1 -0.00111797 5.12988 2.44273 
16 1 0.000526002 6.32315 0.352645 
26 1 0.00157473 5.08288 1.06153 
29 1 5.59715 5.10871 5.7674 
31 1 0.00073267 5.11831 3.65415 
32 1 1.21611 5.10871 5.76626 
1 1 4.63017 5.11103 6.5154 
3 1 3.41228 5.10904 8.61453 
4 1 2.1806 5.11101 6.51701 
6 1 3.40095 5.10989 11.2048 
9 1 3.40504 3.88577 11.9256 
11 1 3.40699 5.10513 9.82625 
12 1 3.40504 6.33547 11.9236 
14 1 3.4064 5.11382 7.23605 
ITEM: TIMESTEP
110
ITEM: NUMBER OF ATOMS
32
ITEM: BOX BOUNDS pp pp pp
0.0000000000000000e+00 6.8131000000000004e+00
0.0000000000000000e+00 6.8131000000000004e+00
0.0000000000000000e+00 2.4587700000000002e+01
ITEM: ATOMS id type x y z 
2 1 3.41424 1.70348 13.4088 
5 1 4.63781 1.70361 18.075 
7 1 3.38251 1.70339 15.9981 
8 1 2.19416 1.70347 18.0895 
18 1 3.43371 1.70314 17.3792 
21 1 3.40861 2.91976 12.6745 
23 1 3.39736 1.70316 14.7867 
24 1 3.40861 0.487205 12.674 
17 1 -0.000417646 2.92617 24.2092 
19 1 0.00785093 1.6908 22.1198 
20 1 -0.000148343 0.49494 24.2215 
22 1 -0.0252509 1.70292 19.5278 
25 1 5.59009 1.70347 18.8191 
27 1 0.0131531 1.695 20.9086 
28 1 1.2083 1.70322 18.807 
30 1 -0.00124432 1.72838 23.5006 
10 1 -0.000222132 5.10451 5.03204 
13 1 0.000513868 3.87916 0.364837 
15 1 -5.29561e-05 5.13115 2.44267 
16 1 0.00054399 6.32277 0.35213 
26 1 0.00137935 5.08273 1.06157 
29 1 5.59685 5.10856 5.76705 
31 1 -0.000561458 5.11869 3.6541 
32 1 1.21636 5.10856 5.76597 
1 1 4.63043 5.1111 6.51541 
3 1 3.41248 5.10914 8.61454 
4 1 2.18052 5.11109 6.51735 
6 1 3.4005 5.10984 11.2047 
9 1 3.40493 3.88558 11.9256 
11 1 3.40693 5.10497 9.82629 
12 1 3.40493 6.33554 11.9233 
14 1 3.40612 5.1141 7.23615 
ITEM: TIMESTEP
120
ITEM: NUMBER OF ATOMS
32
ITEM: BOX BOUNDS pp pp pp
0.0000000000000000e+00 6.8131000000000004e+00
0.0000000000000000e+00 6.8131000000000004e+00
0.0000000000000000e+00 2.4587700000000002e+01
ITEM: ATOMS id type x y z 
2 1 3.42275 1.7049 13.4095 
5 1 4.64499 1.70355 18.0653 
7 1 3.36548 1.70705 15.9985 
8 1 2.19931 1.70312 18.0972 
18 1 3.43527 1.70425 17.3792 
21 1 3.41131 2.92289 12.679 
23 1 3.39208 1.69508 14.7877 
24 1 3.41129 0.484221 12.6774 
17 1 -0.000800112 2.9342 24.2002 
19 1 0.0130073 1.68317 22.1201 
20 1 -0.000585947 0.496141 24.2232 
22 1 -0.0264321 1.70307 19.5273 
25 1 5.58173 1.70367 18.828 
27 1 0.0214431 1.68958 20.9083 
28 1 1.20691 1.70335 18.8054 
30 1 -0.00226233 1.72952 23.5008 
10 1 0.00252738 5.09787 5.03146 
13 1 0.000335453 3.87234 0.37369 
15 1 0.00595632 5.14712 2.44233 
16 1 0.000548232 6.31789 0.34513 
26 1 0.00173367 5.0811 1.06144 
29 1 5.59448 5.10651 5.76268 
31 1 -0.0098884 5.12403 3.65328 
32 1 1.22009 5.10652 5.76258 
1 1 4.63242 5.11204 6.5157 
3 1 3.41511 5.11005 8.61453 
4 1 2.17871 5.11205 6.52089 
6 1 3.39444 5.11037 11.2044 
9 1 3.4035 3.88449 11.9244 
11 1 3.40618 5.10312 9.82641 
12 1 3.4035 6.33815 11.9207 
14 1 3.40589 5.11819 7.2365 
ITEM: TIMESTEP
129
ITEM: NUMBER OF ATOMS
32
ITEM: BOX BOUNDS pp pp pp
0.0000000000000000e+00 6.8131000000000004e+00
0.0000000000000000e+00 6.8131000000000004e+00
0.0000000000000000e+00 2.4587700000000002e+01
ITEM: ATOMS id type x y z 
2 1 3.42332 1.70355 13.4093 
5 1 4.64574 1.70357 18.0651 
7 1 3.36467 1.70588 15.9987 
8 1 2.19965 1.70326 18.0976 
18 1 3.43465 1.70464 17.3792 
21 1 3.41147 2.92356 12.6787 
23 1 3.39183 1.69623 14.7874 
24 1 3.41147 0.484997 12.6778 
17 1 6.81225 2.93392 24.1996 
19 1 0.0132252 1.68284 22.1198 
20 1 6.81248 0.496353 24.2234 
22 1 6.7861 1.70309 19.5272 
25 1 5.58212 1.70367 18.8287 
27 1 0.0217864 1.68937 20.9084 
28 1 1.20676 1.70326 18.8052 
30 1 6.81076 1.72992 23.5012 
10 1 0.0014299 5.09743 5.03168 
13 1 0.000307779 3.87167 0.373911 
15 1 0.00452968 5.14785 2.44215 
16 1 0.000563013 6.3176 0.344707 
26 1 0.00235433 5.08159 1.06152 
29 1 5.59474 5.10637 5.76255 
31 1 6.80448 5.12428 3.65339 
32 1 1.2202 5.10638 5.76245 
1 1 4.63237 5.11209 6.5156 
3 1 3.41553 5.11004 8.61456 
4 1 2.17882 5.11211 6.52107 
6 1 3.39425 5.1097 11.2047 
9 1 3.40341 3.88456 11.9245 
11 1 3.40563 5.10305 9.82637 
12 1 3.40341 6.33822 11.9206 
14 1 3.40618 5.11853 7.23624 
ITEM: TIMESTEP
130
ITEM: NUMBER OF ATOMS
32
ITEM: BOX BOUNDS pp pp pp
-3.4065500000000004e-04 6.8134406550000000e+00
-3.4065500000000004e-04 6.8134406550000000e+00
-1.2293850000000002e-03 2.4588929385000000e+01
ITEM: ATOMS id type x y z 
2 1 3.42332 1.70338 13.4094 
5 1 4.64587 1.7034 18.0657 
7 1 3.36467 1.70571 15.999 
8 1 2.19953 1.70309 18.0982 
18 1 3.43466 1.70447 17.3797 
21 1 3.41147 2.92351 12.6787 
23 1 3.39183 1.69606 14.7877 
24 1 3.41147 0.484704 12.6779 
17 1 6.8126 2.93388 24.2008 
19 1 0.0128859 1.68267 22.1208 
20 1 6.81282 0.496062 24.2246 
22 1 6.78644 1.70292 19.5279 
25 1 5.58234 1.7035 18.8293 
27 1 0.021448 1.6892 20.9092 
28 1 1.20654 1.70309 18.8059 
30 1 6.8111 1.72975 23.5023 
10 1 0.00108937 5.0976 5.03096 
13 1 -3.28453e-05 3.87171 0.372719 
15 1 0.0041894 5.14802 2.44116 
16 1 0.000222417 6.31789 0.343512 
26 1 0.00201394 5.08176 1.0604 
29 1 5.59496 5.10654 5.7619 
31 1 6.80482 5.12446 3.65253 
32 1 1.21998 5.10655 5.7618 
1 1 4.63249 5.11227 6.51502 
3 1 3.41553 5.11021 8.61419 
4 1 2.1787 5.11228 6.5205 
6 1 3.39425 5.10987 11.2046 
9 1 3.40341 3.88461 11.9244 
11 1 3.40563 5.10322 9.82612 
12 1 3.40341 6.33851 11.9206 
14 1 3.40618 5.1187 7.23573 
ITEM: TIMESTEP
140
ITEM: NUMBER OF ATOMS
32
ITEM: BOX BOUNDS pp pp pp
-3.7472050000000013e-03 6.8168472049999957e+00
-3.7472050000000013e-03 6.8168472049999957e+00
-1.3523235000000008e-02 2.4601223234999985e+01
ITEM: ATOMS id type x y z 
2 1 3.42334 1.70168 13.4105 
5 1 4.64712 1.7017 18.0715 
7 1 3.36463 1.70401 16.0027 
8 1 2.19832 1.70138 18.104 
18 1 3.43469 1.70276 17.3848 
21 1 3.41148 2.92303 12.6791 
23 1 3.39181 1.69435 14.7902 
24 1 3.41147 0.481778 12.6783 
17 1 6.816 2.93341 24.2127 
19 1 0.00949279 1.68094 22.1306 
20 1 6.81623 0.493149 24.2365 
22 1 6.78982 1.70122 19.5351 
25 1 5.58451 1.7018 18.8359 
27 1 0.0180632 1.68748 20.9179 
28 1 1.20434 1.70138 18.8124 
30 1 6.8145 1.72808 23.5135 
10 1 -0.00231597 5.09929 5.02369 
13 1 -0.0034391 3.87217 0.360793 
15 1 0.000786265 5.14976 2.43132 
16 1 -0.00318354 6.32081 0.331561 
26 1 -0.00138985 5.08344 1.04916 
29 1 5.59715 5.10824 5.75537 
31 1 6.80822 5.12617 3.64388 
32 1 1.2178 5.10825 5.75527 
1 1 4.63372 5.11397 6.50924 
3 1 3.41554 5.11191 8.61052 
4 1 2.17747 5.11398 6.51472 
6 1 3.39424 5.11158 11.2035 
9 1 3.40341 3.88509 11.9241 
11 1 3.40563 5.10492 9.82365 
12 1 3.40341 6.34145 11.9202 
14 1 3.40618 5.12041 7.23067 
ITEM: TIMESTEP
150
ITEM: NUMBER OF ATOMS
32
ITEM: BOX BOUNDS pp pp pp
-7.1537550000000056e-03 6.8202537549999915e+00
-7.1537550000000056e-03 6.8202537549999915e+00
-2.5817085000000028e-02 2.4613517084999970e+01
ITEM: ATOMS id type x y z 
2 1 3.42336 1.69998 13.4116 
5 1 4.64838 1.7 18.0773 
7 1 3.36458 1.7023 16.0064 
8 1 2.1971 1.69968 18.1098 
18 1 3.43472 1.70106 17.3898 
21 1 3.41148 2.92255 12.6795 
23 1 3.3918 1.69264 14.7927 
24 1 3.41148 0.478846 12.6786 
17 1 6.81941 2.93296 24.2246 
19 1 0.00609982 1.67922 22.1404 
20 1 6.81964 0.49023 24.2484 
22 1 6.7932 1.69952 19.5424 
25 1 5.58666 1.70009 18.8424 
27 1 0.0146781 1.68577 20.9265 
28 1 1.20215 1.69968 18.8189 
30 1 6.81791 1.7264 23.5247 
10 1 -0.00572141 5.10098 5.01643 
13 1 -0.00684538 3.87261 0.348853 
15 1 -0.00261753 5.1515 2.4215 
16 1 -0.00658949 6.32373 0.319605 
26 1 -0.00479347 5.08511 1.03793 
29 1 5.59933 5.10994 5.74885 
31 1 6.81162 5.12789 3.63521 
32 1 1.21562 5.10995 5.74875 
1 1 4.63495 5.11568 6.50346 
3 1 3.41555 5.11362 8.60686 
4 1 2.17623 5.11569 6.50894 
6 1 3.39423 5.11328 11.2024 
9 1 3.40341 3.88556 11.9237 
11 1 3.40563 5.10661 9.82116 
12 1 3.4034 6.34439 11.9198 
14 1 3.40618 5.12213 7.22561 
ITEM: TIMESTEP
160
ITEM: NUMBER OF ATOMS
32
ITEM: BOX BOUNDS pp pp pp
-1.0560305000000009e-02 6.8236603049999873e+00
-1.0560305000000009e-02 6.8236603049999873e+00
-3.8110935000000040e-02 2.4625810934999954e+01
ITEM: ATOMS id type x y z 
2 1 3.42338 1.69827 13.4127 
5 1 4.64964 1.6983 18.0831 
7 1 3.36454 1.7006 16.0101 
8 1 2.19588 1.69798 18.1156 
18 1 3.43474 1.69936 17.3949 
21 1 3.41149 2.92208 12.6799 
23 1 3.39178 1.69093 14.7952 
24 1 3.41148 0.475906 12.679 
17 1 6.82281 2.93252 24.2365 
19 1 0.00270677 1.6775 22.1502 
20 1 6.82304 0.487304 24.2604 
22 1 6.79658 1.69781 19.5496 
25 1 5.58881 1.69839 18.8489 
27 1 0.011293 1.68405 20.9352 
28 1 1.19996 1.69798 18.8254 
30 1 6.82131 1.72472 23.5359 
10 1 -0.0091269 5.10267 5.00917 
13 1 -0.0102517 3.87305 0.336911 
15 1 -0.00602169 5.15325 2.41168 
16 1 -0.00999544 6.32665 0.307643 
26 1 -0.00819693 5.08679 1.0267 
29 1 5.6015 5.11164 5.74233 
31 1 6.81502 5.12961 3.62654 
32 1 1.21345 5.11165 5.74223 
1 1 4.63619 5.11738 6.49766 
3 1 3.41556 5.11532 8.6032 
4 1 2.17498 5.11739 6.50315 
6 1 3.39421 5.11499 11.2013 
9 1 3.4034 3.88603 11.9234 
11 1 3.40562 5.10831 9.81867 
12 1 3.4034 6.34734 11.9195 
14 1 3.40618 5.12384 7.22055 
ITEM: TIMESTEP
170
ITEM: NUMBER OF ATOMS
32
ITEM: BOX BOUNDS pp pp pp
-1.3966855000000014e-02 6.8270668549999831e+00
-1.3966855000000014e-02 6.8270668549999831e+00
-5.0404785000000056e-02 2.4638104784999939e+01
ITEM: ATOMS id type x y z 
2 1 3.42339 1.69657 13.4138 
5 1 4.6509 1.69659 18.0888 
7 1 3.3645 1.6989 16.0138 
8 1 2.19465 1.69627 18.1215 
18 1 3.43477 1.69766 17.4 
21 1 3.41149 2.92162 12.6802 
23 1 3.39176 1.68923 14.7978 
24 1 3.41149 0.472963 12.6794 
17 1 6.82622 2.93206 24.2485 
19 1 -0.000686497 1.67577 22.16 
20 1 6.82645 0.484373 24.2723 
22 1 6.79996 1.69611 19.5568 
25 1 5.59096 1.69669 18.8554 
27 1 0.0079081 1.68233 20.9438 
28 1 1.19779 1.69627 18.8319 
30 1 6.82472 1.72304 23.5471 
10 1 -0.0125324 5.10436 5.00192 
13 1 -0.0136579 3.8735 0.324977 
15 1 -0.00942579 5.15499 2.40184 
16 1 -0.0134014 6.32959 0.295677 
26 1 -0.0116004 5.08846 1.01546 
29 1 5.60367 5.11334 5.73581 
31 1 6.81842 5.13133 3.61788 
32 1 1.21129 5.11335 5.73571 
1 1 4.63744 5.11909 6.49187 
3 1 3.41557 5.11702 8.59953 
4 1 2.17374 5.1191 6.49736 
6 1 3.3942 5.11669 11.2002 
9 1 3.4034 3.88649 11.923 
11 1 3.40562 5.11 9.8162 
12 1 3.4034 6.3503 11.9191 
14 1 3.40618 5.12555 7.21549 
ITEM: TIMESTEP
180
ITEM: NUMBER OF ATOMS
32
ITEM: BOX BOUNDS pp pp pp
-1.7373405000000029e-02 6.8304734049999789e+00
-1.7373405000000029e-02 6.8304734049999789e+00
-6.2698635000000114e-02 2.4650398634999924e+01
ITEM: ATOMS id type x y z 
2 1 3.42341 1.69487 13.4149 
5 1 4.65215 1.69489 18.0946 
7 1 3.36446 1.6972 16.0175 
8 1 2.19342 1.69457 18.1273 
18 1 3.43479 1.69596 17.4051 
21 1 3.4115 2.92117 12.6806 
23 1 3.39175 1.68752 14.8003 
24 1 3.41149 0.470001 12.6797 
17 1 6.82962 2.9316 24.2604 
19 1 -0.00407999 1.67405 22.1698 
20 1 6.82985 0.481435 24.2843 
22 1 6.80335 1.6944 19.5641 
25 1 5.59313 1.69498 18.8619 
27 1 0.00452361 1.68061 20.9524 
28 1 1.19561 1.69457 18.8384 
30 1 6.82812 1.72136 23.5583 
10 1 -0.015938 5.10605 4.99467 
13 1 -0.0170642 3.87396 0.313053 
15 1 -0.0128299 5.15673 2.39199 
16 1 -0.0168074 6.33253 0.283707 
26 1 -0.0150037 5.09015 1.00423 
29 1 5.60581 5.11504 5.72931 
31 1 6.82182 5.13305 3.60924 
32 1 1.20914 5.11505 5.72922 
1 1 4.63871 5.12079 6.48606 
3 1 3.41558 5.11873 8.59584 
4 1 2.17247 5.1208 6.49155 
6 1 3.39419 5.11839 11.1992 
9 1 3.4034 3.88693 11.9227 
11 1 3.40562 5.1117 9.81374 
12 1 3.40339 6.35327 11.9188 
14 1 3.40618 5.12726 7.21042 
ITEM: TIMESTEP
190
ITEM: NUMBER OF ATOMS
32
ITEM: BOX BOUNDS pp pp pp
-2.0779955000000051e-02 6.8338799549999747e+00
-2.0779955000000051e-02 6.8338799549999747e+00
-7.4992485000000109e-02 2.4662692484999909e+01
ITEM: ATOMS id type x y z 
2 1 3.42343 1.69316 13.416 
5 1 4.65338 1.69319 18.1004 
7 1 3.36442 1.69549 16.0212 
8 1 2.19217 1.69287 18.1331 
18 1 3.4348 1.69426 17.4102 
21 1 3.4115 2.92076 12.6809 
23 1 3.39174 1.68581 14.8027 
24 1 3.4115 0.467013 12.68 
17 1 6.83303 2.93112 24.2723 
19 1 -0.00747374 1.67233 22.1796 
20 1 6.83326 0.47849 24.2962 
22 1 6.80674 1.6927 19.5713 
25 1 5.59531 1.69328 18.8685 
27 1 0.00113951 1.6789 20.961 
28 1 1.19345 1.69287 18.8449 
30 1 6.83152 1.71967 23.5695 
10 1 -0.019344 5.10774 4.98743 
13 1 -0.0204705 3.87443 0.301141 
15 1 -0.0162341 5.15847 2.38213 
16 1 -0.0202133 6.33547 0.271732 
26 1 -0.0184068 5.09183 0.99299 
29 1 5.60793 5.11674 5.72284 
31 1 6.82522 5.13477 3.60061 
32 1 1.20702 5.11675 5.72274 
1 1 4.64 5.1225 6.48022 
3 1 3.41559 5.12043 8.59213 
4 1 2.17117 5.12251 6.48573 
6 1 3.39418 5.1201 11.1981 
9 1 3.4034 3.88733 11.9224 
11 1 3.40562 5.1134 9.8113 
12 1 3.40339 6.35627 11.9185 
14 1 3.40618 5.12897 7.20534 
ITEM: TIMESTEP
200
ITEM: NUMBER OF ATOMS
32
ITEM: BOX BOUNDS pp pp pp
-2.4186505000000073e-02 6.8372865049999705e+00
-2.4186505000000073e-02 6.8372865049999705e+00
-8.7286335000000104e-02 2.4674986334999893e+01
ITEM: ATOMS id type x y z 
2 1 3.42344 1.69146 13.4171 
5 1 4.6546 1.69148 18.1061 
7 1 3.36437 1.69379 16.0249 
8 1 2.19092 1.69117 18.1389 
18 1 3.43482 1.69256 17.4153 
21 1 3.4115 2.92037 12.6812 
23 1 3.39172 1.6841 14.8052 
24 1 3.4115 0.464002 12.6804 
17 1 6.83644 2.93063 24.2842 
19 1 -0.0108677 1.6706 22.1895 
20 1 6.83667 0.475537 24.3082 
22 1 6.81014 1.691 19.5785 
25 1 5.59751 1.69158 18.875 
27 1 -0.00224424 1.67718 20.9696 
28 1 1.19129 1.69116 18.8513 
30 1 6.83493 1.71798 23.5808 
10 1 -0.0227505 5.10943 4.9802 
13 1 -0.0238767 3.87491 0.289239 
15 1 -0.0196385 5.16021 2.37225 
16 1 -0.0236193 6.33843 0.25975 
26 1 -0.0218098 5.09352 0.98175 
29 1 5.61002 5.11844 5.71639 
31 1 6.82862 5.13648 3.592 
32 1 1.20493 5.11845 5.71629 
1 1 4.64133 5.1242 6.47436 
3 1 3.4156 5.12214 8.58841 
4 1 2.16985 5.12421 6.47987 
6 1 3.39416 5.1218 11.197 
9 1 3.40339 3.88771 11.9221 
11 1 3.40562 5.11509 9.80887 
12 1 3.40339 6.35929 11.9182 
14 1 3.40618 5.13069 7.20025 
ITEM: TIMESTEP
210
ITEM: NUMBER OF ATOMS
32
ITEM: BOX BOUNDS pp pp pp
-2.7593055000000095e-02 6.8406930549999663e+00
-2.7593055000000095e-02 6.8406930549999663e+00
-9.9580185000000099e-02 2.4687280184999878e+01
ITEM: ATOMS id type x y z 
2 1 3.42346 1.68976 13.4182 
5 1 4.65581 1.68978 18.1119 
7 1 3.36433 1.69209 16.0287 
8 1 2.18967 1.68946 18.1448 
18 1 3.43483 1.69085 17.4204 
21 1 3.41151 2.92001 12.6815 
23 1 3.39171 1.68239 14.8076 
24 1 3.4115 0.46098 12.6807 
17 1 6.83984 2.93013 24.296 
19 1 -0.0142619 1.66888 22.1993 
20 1 6.84007 0.472579 24.3201 
22 1 6.81354 1.68929 19.5857 
25 1 5.59971 1.68987 18.8816 
27 1 -0.00562778 1.67546 20.9782 
28 1 1.18914 1.68946 18.8578 
30 1 6.83833 1.71628 23.592 
10 1 -0.0261574 5.11112 4.97297 
13 1 -0.0272829 3.8754 0.277344 
15 1 -0.023043 5.16196 2.36236 
16 1 -0.0270252 6.34138 0.247764 
26 1 -0.0252127 5.09522 0.97051 
29 1 5.6121 5.12014 5.70995 
31 1 6.83201 5.1382 3.5834 
32 1 1.20285 5.12015 5.70984 
1 1 4.64267 5.12591 6.46849 
3 1 3.41561 5.12384 8.58469 
4 1 2.16851 5.12592 6.47401 
6 1 3.39415 5.1235 11.196 
9 1 3.40339 3.88807 11.9218 
11 1 3.40562 5.11679 9.80645 
12 1 3.40339 6.36232 11.9179 
14 1 3.40618 5.1324 7.19517 
ITEM: TIMESTEP
220
ITEM: NUMBER OF ATOMS
32
ITEM: BOX BOUNDS pp pp pp
-3.0999605000000117e-02 6.8440996049999621e+00
-3.0999605000000117e-02 6.8440996049999621e+00
-1.1187403500000016e-01 2.4699574034999863e+01
ITEM: ATOMS id type x y z 
2 1 3.42348 1.68806 13.4193 
5 1 4.65702 1.68808 18.1176 
7 1 3.36428 1.69039 16.0324 
8 1 2.18841 1.68776 18.1506 
18 1 3.43483 1.68915 17.4255 
21 1 3.41151 2.91963 12.6818 
23 1 3.39169 1.68068 14.8101 
24 1 3.41151 0.457962 12.681 
17 1 6.84325 2.92963 24.3079 
19 1 -0.0176561 1.66715 22.2092 
20 1 6.84348 0.469617 24.3321 
22 1 6.81694 1.68759 19.593 
25 1 5.60192 1.68817 18.8882 
27 1 -0.00901132 1.67375 20.9868 
28 1 1.18699 1.68776 18.8643 
30 1 6.84174 1.71459 23.6032 
10 1 -0.0295643 5.11281 4.96575 
13 1 -0.0306892 3.8759 0.265451 
15 1 -0.0264476 5.1637 2.35247 
16 1 -0.0304312 6.34435 0.235776 
26 1 -0.0286156 5.09691 0.95927 
29 1 5.61418 5.12184 5.7035 
31 1 6.83541 5.13992 3.5748 
32 1 1.20077 5.12185 5.70339 
1 1 4.644 5.12761 6.46263 
3 1 3.41562 5.12554 8.58097 
4 1 2.16718 5.12762 6.46816 
6 1 3.39414 5.1252 11.1949 
9 1 3.40339 3.88844 11.9215 
11 1 3.40562 5.11848 9.80402 
12 1 3.40338 6.36535 11.9176 
14 1 3.40618 5.13411 7.19008 
ITEM: TIMESTEP
230
ITEM: NUMBER OF ATOMS
32
ITEM: BOX BOUNDS pp pp pp
-3.4406155000000140e-02 6.8475061549999579e+00
-3.4406155000000140e-02 6.8475061549999579e+00
-1.2416788500000030e-01 2.4711867884999847e+01
ITEM: ATOMS id type x y z 
2 1 3.4235 1.68635 13.4204 
5 1 4.65824 1.68638 18.1234 
7 1 3.36424 1.68868 16.0361 
8 1 2.18714 1.68606 18.1565 
18 1 3.43484 1.68745 17.4306 
21 1 3.41152 2.91925 12.6821 
23 1 3.39168 1.67897 14.8126 
24 1 3.41151 0.454952 12.6813 
17 1 6.84665 2.92913 24.3198 
19 1 -0.0210503 1.66543 22.2191 
20 1 6.84688 0.46665 24.3441 
22 1 6.82034 1.68589 19.6002 
25 1 5.60412 1.68647 18.8947 
27 1 -0.012395 1.67203 20.9954 
28 1 1.18485 1.68605 18.8708 
30 1 6.84514 1.71289 23.6144 
10 1 -0.032971 5.1145 4.95852 
13 1 -0.0340954 3.87639 0.253557 
15 1 -0.0298524 5.16544 2.34259 
16 1 -0.0338372 6.34732 0.223783 
26 1 -0.0320184 5.09861 0.948029 
29 1 5.61627 5.12354 5.69704 