ITEM: TIMESTEP
0
ITEM: NUMBER OF ATOMS
57
ITEM: BOX BOUNDS pp pp pp
0.0000000000000000e+00 3.2808000000000000e+01
0.0000000000000000e+00 1.7780000000000001e+01
0.0000000000000000e+00 2.4729999999999999e+00
ITEM: ATOMS id type x y z 
13 1 7.043 0.849 2.464 
29 1 7.397 1.432 1.228 
37 1 8.035 2.733 1.228 
57 2 6.358 1.795 1.301 
1 1 6.173 17.398 2.464 
5 1 5.371 17.398 1.228 
9 1 3.973 17.398 1.228 
16 1 7.043 16.167 2.464 
32 1 7.397 15.584 1.228 
40 1 8.035 14.283 1.228 
45 1 3.236 17.398 2.464 
49 1 1.81 17.398 2.464 
53 1 1.083 17.398 1.228 
4 1 10.968 8.508 2.464 
8 1 11.771 8.508 1.228 
12 1 13.168 8.508 1.228 
18 1 10.098 7.277 2.464 
21 1 8.308 3.392 2.464 
26 1 8.833 4.734 2.464 
34 1 9.745 6.694 1.228 
42 1 9.106 5.393 1.228 
48 1 13.906 8.508 2.464 
52 1 15.331 8.508 2.464 
56 1 16.058 8.508 1.228 
19 1 10.098 9.739 2.464 
24 1 8.308 13.624 2.464 
27 1 8.833 12.282 2.464 
35 1 9.745 10.322 1.228 
43 1 9.106 11.623 1.228 
3 1 22.577 8.508 2.464 
7 1 21.775 8.508 1.228 
11 1 20.377 8.508 1.228 
20 1 23.447 7.277 2.464 
36 1 23.801 6.694 1.228 
44 1 24.439 5.393 1.228 
47 1 19.64 8.508 2.464 
51 1 18.214 8.508 2.464 
55 1 17.487 8.508 1.228 
17 1 23.447 9.739 2.464 
33 1 23.801 10.322 1.228 
41 1 24.439 11.623 1.228 
15 1 26.502 0.849 2.464 
23 1 25.237 3.392 2.464 
28 1 24.712 4.734 2.464 
31 1 26.149 1.432 1.228 
39 1 25.511 2.733 1.228 
2 1 27.373 17.398 2.464 
6 1 28.175 17.398 1.228 
10 1 29.572 17.398 1.228 
14 1 26.502 16.167 2.464 
22 1 25.237 13.624 2.464 
25 1 24.712 12.282 2.464 
30 1 26.149 15.584 1.228 
38 1 25.511 14.283 1.228 
46 1 30.31 17.398 2.464 
50 1 31.735 17.398 2.464 
54 1 32.462 17.398 1.228 
ITEM: TIMESTEP
10
ITEM: NUMBER OF ATOMS
57
ITEM: BOX BOUNDS pp pp pp
0.0000000000000000e+00 3.2808000000000000e+01
0.0000000000000000e+00 1.7780000000000001e+01
0.0000000000000000e+00 2.4729999999999999e+00
ITEM: ATOMS id type x y z 
13 1 7.29641 0.70562 2.39662 
29 1 7.34159 1.49221 1.15753 
37 1 8.12727 2.65713 1.2145 
57 2 6.13945 1.89127 1.45691 
1 1 6.19849 17.4522 2.46211 
5 1 5.40997 17.423 1.22974 
9 1 3.97238 17.3945 1.22784 
16 1 7.06354 16.203 2.46732 
32 1 7.44517 15.5734 1.22938 
40 1 8.05445 14.3243 1.22788 
45 1 3.23458 17.3977 2.4644 
49 1 1.84362 17.3981 2.46424 
53 1 1.10977 17.398 1.22778 
4 1 10.9657 8.50122 2.46417 
8 1 11.7895 8.50591 1.22774 
12 1 13.2003 8.50819 1.22777 
18 1 10.0436 7.28641 2.46425 
21 1 8.30561 3.34234 2.45494 
26 1 8.82397 4.75195 2.46394 
34 1 9.68712 6.66629 1.22781 
42 1 9.08031 5.41346 1.22761 
48 1 13.9029 8.50804 2.46424 
52 1 15.3039 8.508 2.46424 
56 1 16.0356 8.508 1.22776 
19 1 10.0462 9.71899 2.46424 
24 1 8.31119 13.6505 2.46423 
27 1 8.82768 12.2599 2.46421 
35 1 9.69262 10.3361 1.22781 
43 1 9.0853 11.5834 1.22778 
3 1 22.5688 8.508 2.46417 
7 1 21.7523 8.508 1.22775 
11 1 20.3437 8.508 1.22777 
20 1 23.4984 7.29533 2.46424 
36 1 23.8547 6.67848 1.22782 
44 1 24.4583 5.43825 1.22777 
47 1 19.6466 8.508 2.46424 
51 1 18.2494 8.508 2.46424 
55 1 17.4974 8.508 1.22776 
17 1 23.4984 9.72067 2.46424 
33 1 23.8547 10.3375 1.22782 
41 1 24.4583 11.5777 1.22777 
15 1 26.4516 0.830386 2.46424 
23 1 25.2335 3.36451 2.46421 
28 1 24.7153 4.7613 2.46421 
31 1 26.0965 1.44584 1.22782 
39 1 25.4921 2.68737 1.22777 
2 1 27.3837 17.398 2.46417 
6 1 28.1924 17.398 1.22774 
10 1 29.6065 17.398 1.22777 
14 1 26.4516 16.1856 2.46424 
22 1 25.2335 13.6515 2.46421 
25 1 24.7153 12.2547 2.46421 
30 1 26.0965 15.5702 1.22782 
38 1 25.4921 14.3286 1.22777 
46 1 30.3174 17.398 2.46424 
50 1 31.6942 17.398 2.46424 
54 1 32.4376 17.398 1.22776 
ITEM: TIMESTEP
20
ITEM: NUMBER OF ATOMS
57
ITEM: BOX BOUNDS pp pp pp
0.0000000000000000e+00 3.2808000000000000e+01
0.0000000000000000e+00 1.7780000000000001e+01
0.0000000000000000e+00 2.4729999999999999e+00
ITEM: ATOMS id type x y z 
13 1 7.326 0.705414 2.41174 
29 1 7.25851 1.48993 1.17593 
37 1 8.1445 2.6525 1.20949 
57 2 6.15909 1.88061 1.44046 
1 1 6.21311 17.4703 2.46032 
5 1 5.41645 17.45 1.22443 
9 1 3.99946 17.3934 1.22779 
16 1 7.06362 16.1675 2.46781 
32 1 7.45048 15.5814 1.23068 
40 1 8.06383 14.3268 1.22804 
45 1 3.22433 17.3959 2.46433 
49 1 1.83897 17.3979 2.46427 
53 1 1.10274 17.398 1.22777 
4 1 10.9633 8.49883 2.46421 
8 1 11.7762 8.50378 1.22771 
12 1 13.1929 8.5084 1.22775 
18 1 10.0383 7.28603 2.46425 
21 1 8.32368 3.35067 2.44893 
26 1 8.81437 4.74448 2.46341 
34 1 9.67906 6.67606 1.22774 
42 1 9.0749 5.42497 1.22718 
48 1 13.9137 8.50824 2.46425 
52 1 15.3003 8.50803 2.46425 
56 1 16.0408 8.50799 1.22775 
19 1 10.0401 9.71702 2.46427 
24 1 8.31728 13.6496 2.46445 
27 1 8.82347 12.2567 2.46425 
35 1 9.68256 10.3292 1.22777 
43 1 9.07734 11.5793 1.22775 
3 1 22.5724 8.508 2.46421 
7 1 21.7627 8.508 1.22772 
11 1 20.3474 8.508 1.22775 
20 1 23.5038 7.29543 2.46427 
36 1 23.8647 6.68607 1.22778 
44 1 24.4679 5.43961 1.22774 
47 1 19.6315 8.508 2.46425 
51 1 18.2463 8.508 2.46425 
55 1 17.5016 8.508 1.22775 
17 1 23.5038 9.72057 2.46427 
33 1 23.8647 10.3299 1.22778 
41 1 24.4679 11.5764 1.22774 
15 1 26.4463 0.830404 2.46427 
23 1 25.2277 3.3654 2.46424 
28 1 24.7211 4.76036 2.46424 
31 1 26.0864 1.43841 1.22778 
39 1 25.4826 2.68559 1.22774 
2 1 27.3768 17.398 2.46421 
6 1 28.1846 17.398 1.22772 
10 1 29.6058 17.398 1.22775 
14 1 26.4463 16.1856 2.46427 
22 1 25.2277 13.6506 2.46424 
25 1 24.7211 12.2556 2.46424 
30 1 26.0864 15.5776 1.22778 
38 1 25.4826 14.3304 1.22774 
46 1 30.3293 17.398 2.46425 
50 1 31.7036 17.398 2.46425 
54 1 32.4463 17.398 1.22775 
ITEM: TIMESTEP
30
ITEM: NUMBER OF ATOMS
57
ITEM: BOX BOUNDS pp pp pp
0.0000000000000000e+00 3.2808000000000000e+01
0.0000000000000000e+00 1.7780000000000001e+01
0.0000000000000000e+00 2.4729999999999999e+00
ITEM: ATOMS id type x y z 
13 1 7.36551 0.705144 2.46129 
29 1 7.17848 1.45407 1.23107 
37 1 8.16368 2.6329 1.20343 
57 2 6.11287 1.89372 1.3663 
1 1 6.2611 17.497 2.45605 
5 1 5.4357 17.5102 1.21965 
9 1 4.04851 17.3964 1.22691 
16 1 7.02553 16.1517 2.46716 
32 1 7.4496 15.6021 1.23115 
40 1 8.09661 14.3354 1.22868 
45 1 3.30212 17.3858 2.46372 
49 1 1.85082 17.3958 2.46426 
53 1 1.11734 17.3986 1.22776 
4 1 10.9544 8.50369 2.46423 
8 1 11.746 8.50116 1.22773 
12 1 13.1792 8.50916 1.22775 
18 1 10.0206 7.29177 2.46402 
21 1 8.36835 3.32389 2.43923 
26 1 8.78391 4.71093 2.46076 
34 1 9.64689 6.69206 1.22749 
42 1 9.03424 5.42534 1.22491 
48 1 13.9455 8.50913 2.46425 
52 1 15.3027 8.5082 2.46425 
56 1 16.0377 8.50793 1.22775 
19 1 10.0215 9.71359 2.46426 
24 1 8.33376 13.6566 2.46509 
27 1 8.80486 12.2611 2.4643 
35 1 9.6483 10.3143 1.22776 
43 1 9.04765 11.5712 1.22779 
3 1 22.5813 8.508 2.46424 
7 1 21.785 8.508 1.22774 
11 1 20.3563 8.508 1.22775 
20 1 23.5197 7.29767 2.46426 
36 1 23.9 6.70053 1.22776 
44 1 24.4992 5.44923 1.22775 
47 1 19.6039 8.508 2.46425 
51 1 18.2446 8.508 2.46425 
55 1 17.5078 8.50798 1.22775 
17 1 23.5197 9.71833 2.46426 
33 1 23.9 10.3155 1.22776 
41 1 24.4992 11.5668 1.22775 
15 1 26.4308 0.828314 2.46426 
23 1 25.2115 3.36063 2.46425 
28 1 24.7376 4.76447 2.46425 
31 1 26.0505 1.42514 1.22776 
39 1 25.4509 2.6762 1.22775 
2 1 27.3678 17.398 2.46423 
6 1 28.1628 17.398 1.22774 
10 1 29.5934 17.398 1.22775 
14 1 26.4308 16.1877 2.46426 
22 1 25.2115 13.6554 2.46425 
25 1 24.7376 12.2515 2.46425 
30 1 26.0505 15.5909 1.22776 
38 1 25.4509 14.3398 1.22775 
46 1 30.3542 17.398 2.46425 
50 1 31.7211 17.398 2.46425 
54 1 32.4671 17.3982 1.22775 
ITEM: TIMESTEP
40
ITEM: NUMBER OF ATOMS
57
ITEM: BOX BOUNDS pp pp pp
0.0000000000000000e+00 3.2808000000000000e+01
0.0000000000000000e+00 1.7780000000000001e+01
0.0000000000000000e+00 2.4729999999999999e+00
ITEM: ATOMS id type x y z 
13 1 7.38915 0.703123 2.48442 
29 1 7.16491 1.48627 1.25321 
37 1 8.15121 2.61122 1.20956 
57 2 6.11191 1.89514 1.31194 
1 1 6.30798 17.5199 2.46066 
5 1 5.45768 17.5525 1.22474 
9 1 4.08036 17.4057 1.22627 
16 1 7.00841 16.1523 2.46479 
32 1 7.45186 15.5936 1.22871 
40 1 8.12086 14.3624 1.22895 
45 1 3.29669 17.367 2.46238 
49 1 1.87459 17.3901 2.46416 
53 1 1.1383 17.3996 1.22767 
4 1 10.9409 8.4968 2.4642 
8 1 11.7375 8.49759 1.22769 
12 1 13.1635 8.51002 1.22774 
18 1 10.0011 7.28608 2.46353 
21 1 8.39894 3.29533 2.44461 
26 1 8.77203 4.69152 2.4584 
34 1 9.61466 6.70012 1.22694 
42 1 8.98811 5.41402 1.22241 
48 1 13.9349 8.51019 2.46425 
52 1 15.2982 8.5085 2.46425 
56 1 16.0333 8.50776 1.22775 
19 1 10.0029 9.71212 2.46427 
24 1 8.35443 13.6673 2.46546 
27 1 8.78895 12.2582 2.4644 
35 1 9.61893 10.2976 1.22777 
43 1 9.01397 11.566 1.22788 
3 1 22.5954 8.508 2.46425 
7 1 21.7911 8.508 1.22774 
11 1 20.3762 8.508 1.22774 
20 1 23.54 7.2949 2.46425 
36 1 23.9324 6.71485 1.22775 
44 1 24.5337 5.46055 1.22775 
47 1 19.5971 8.50801 2.46425 
51 1 18.2388 8.508 2.46425 
55 1 17.5022 8.5079 1.22775 
17 1 23.54 9.7211 2.46425 
33 1 23.9324 10.3012 1.22775 
41 1 24.5337 11.5554 1.22775 
15 1 26.4159 0.826819 2.46425 
23 1 25.1937 3.35475 2.46425 
28 1 24.756 4.76845 2.46425 
31 1 26.021 1.40723 1.22775 
39 1 25.4167 2.66423 1.22775 
2 1 27.3621 17.398 2.46425 
6 1 28.1687 17.398 1.22774 
10 1 29.581 17.398 1.22774 
14 1 26.4159 16.1892 2.46425 
22 1 25.1937 13.6612 2.46425 
25 1 24.756 12.2476 2.46425 
30 1 26.021 15.6088 1.22775 
38 1 25.4167 14.3518 1.22775 
46 1 30.3575 17.3979 2.46425 
50 1 31.7421 17.398 2.46425 
54 1 32.4818 17.3992 1.22775 
ITEM: TIMESTEP
50
ITEM: NUMBER OF ATOMS
57
ITEM: BOX BOUNDS pp pp pp
0.0000000000000000e+00 3.2808000000000000e+01
0.0000000000000000e+00 1.7780000000000001e+01
0.0000000000000000e+00 2.4729999999999999e+00
ITEM: ATOMS id type x y z 
13 1 7.39394 0.713762 2.48557 
29 1 7.17461 1.47473 1.25284 
37 1 8.15689 2.61428 1.21251 
57 2 6.10342 1.89892 1.30459 
1 1 6.30287 17.5202 2.46251 
5 1 5.45554 17.558 1.22595 
9 1 4.07542 17.4071 1.22604 
16 1 7.00699 16.1463 2.46444 
32 1 7.44694 15.5992 1.22831 
40 1 8.12978 14.3625 1.22889 
45 1 3.31886 17.3636 2.46263 
49 1 1.87295 17.3874 2.4641 
53 1 1.14662 17.3998 1.2276 
4 1 10.9356 8.49584 2.46416 
8 1 11.7316 8.4963 1.22766 
12 1 13.1605 8.51032 1.22774 
18 1 9.99911 7.28921 2.46331 
21 1 8.40735 3.29069 2.4472 
26 1 8.77041 4.68761 2.4581 
34 1 9.60892 6.70933 1.22678 
42 1 8.97109 5.40746 1.22203 
48 1 13.9289 8.51065 2.46424 
52 1 15.2959 8.50862 2.46425 
56 1 16.0331 8.50768 1.22775 
19 1 10.0008 9.70709 2.46428 
24 1 8.36173 13.6718 2.4654 
27 1 8.78389 12.2588 2.46443 
35 1 9.60966 10.2963 1.22778 
43 1 9.00384 11.5638 1.22791 
3 1 22.5965 8.508 2.46425 
7 1 21.8033 8.508 1.22775 
11 1 20.3729 8.508 1.22775 
20 1 23.5392 7.30152 2.46425 
36 1 23.9408 6.71932 1.22775 
44 1 24.5451 5.4631 1.22775 
47 1 19.6064 8.50802 2.46425 
51 1 18.2391 8.508 2.46425 
55 1 17.5022 8.50785 1.22775 
17 1 23.5392 9.71448 2.46425 
33 1 23.9408 10.2967 1.22775 
41 1 24.5451 11.5529 1.22775 
15 1 26.4162 0.822566 2.46425 
23 1 25.1875 3.35307 2.46425 
28 1 24.7623 4.76954 2.46425 
31 1 26.0125 1.40334 1.22775 
39 1 25.4059 2.66024 1.22775 
2 1 27.359 17.398 2.46425 
6 1 28.1662 17.398 1.22775 
10 1 29.5778 17.398 1.22775 
14 1 26.4162 16.1934 2.46425 
22 1 25.1875 13.6629 2.46425 
25 1 24.7623 12.2465 2.46425 
30 1 26.0125 15.6127 1.22775 
38 1 25.4059 14.3558 1.22775 
46 1 30.3492 17.3978 2.46425 
50 1 31.7558 17.3981 2.46425 
54 1 32.4943 17.3998 1.22775 
ITEM: TIMESTEP
60
ITEM: NUMBER OF ATOMS
57
ITEM: BOX BOUNDS pp pp pp
0.0000000000000000e+00 3.2808000000000000e+01
0.0000000000000000e+00 1.7780000000000001e+01
0.0000000000000000e+00 2.4729999999999999e+00
ITEM: ATOMS id type x y z 
13 1 7.40137 0.711747 2.48583 
29 1 7.17715 1.47559 1.25297 
37 1 8.1638 2.61177 1.21623 
57 2 6.10324 1.89969 1.29469 
1 1 6.3124 17.5223 2.46465 
5 1 5.46282 17.5676 1.22788 
9 1 4.08323 17.4091 1.22617 
16 1 7.00178 16.1459 2.46411 
32 1 7.44543 15.5985 1.22783 
40 1 8.1419 14.3678 1.22877 
45 1 3.32594 17.3551 2.46268 
49 1 1.88535 17.383 2.46403 
53 1 1.15394 17.4006 1.22753 
4 1 10.9308 8.49576 2.46411 
8 1 11.7278 8.49472 1.2276 
12 1 13.1526 8.51068 1.22774 
18 1 9.99195 7.28747 2.46304 
21 1 8.42156 3.28688 2.45111 
26 1 8.76982 4.68924 2.45786 
34 1 9.59423 6.71176 1.22646 
42 1 8.95354 5.41329 1.22171 
48 1 13.9229 8.5114 2.46424 
52 1 15.2966 8.50883 2.46425 
56 1 16.0326 8.50756 1.22775 
19 1 9.99362 9.70626 2.46429 
24 1 8.37412 13.6751 2.46529 
27 1 8.77646 12.259 2.46446 
35 1 9.59815 10.29 1.2278 
43 1 8.98908 11.5597 1.22795 
3 1 22.5995 8.508 2.46425 
7 1 21.8038 8.508 1.22775 
11 1 20.3783 8.508 1.22775 
20 1 23.545 7.30133 2.46425 
36 1 23.9534 6.72621 1.22775 
44 1 24.5618 5.4681 1.22775 
47 1 19.6079 8.50803 2.46425 
51 1 18.2383 8.508 2.46425 
55 1 17.5016 8.50777 1.22775 
17 1 23.545 9.71467 2.46425 
33 1 23.9534 10.2898 1.22775 
41 1 24.5618 11.5479 1.22775 
15 1 26.4106 0.823719 2.46425 
23 1 25.1776 3.35081 2.46425 
28 1 24.772 4.77179 2.46425 
31 1 25.9992 1.39828 1.22775 
39 1 25.3893 2.65432 1.22775 
2 1 27.3501 17.398 2.46425 
6 1 28.1728 17.398 1.22775 
10 1 29.5693 17.398 1.22775 
14 1 26.4106 16.1923 2.46425 
22 1 25.1776 13.6652 2.46425 
25 1 24.772 12.2442 2.46425 
30 1 25.9992 15.6177 1.22775 
38 1 25.3893 14.3617 1.22775 
46 1 30.3358 17.3977 2.46425 
50 1 31.7676 17.3982 2.46424 
54 1 32.5018 17.401 1.22774 
ITEM: TIMESTEP
70
ITEM: NUMBER OF ATOMS
57
ITEM: BOX BOUNDS pp pp pp
0.0000000000000000e+00 3.2808000000000000e+01
0.0000000000000000e+00 1.7780000000000001e+01
0.0000000000000000e+00 2.4729999999999999e+00
ITEM: ATOMS id type x y z 
13 1 7.40659 0.713097 2.48557 
29 1 7.18204 1.47561 1.25211 
37 1 8.17183 2.61018 1.22007 
57 2 6.10968 1.90211 1.28538 
1 1 6.31314 17.5257 2.46652 
5 1 5.4679 17.5737 1.2296 
9 1 4.08535 17.4102 1.22642 
16 1 6.99689 16.1452 2.46397 
32 1 7.44145 15.6005 1.22757 
40 1 8.15732 14.3735 1.22861 
45 1 3.32997 17.3473 2.46295 
49 1 1.89012 17.3772 2.46395 
53 1 1.15036 17.4007 1.22746 
4 1 10.9223 8.4933 2.46403 
8 1 11.7218 8.49255 1.22753 
12 1 13.1452 8.51117 1.22773 
18 1 9.98347 7.28592 2.46271 
21 1 8.43833 3.28147 2.4552 
26 1 8.76836 4.69058 2.45793 
34 1 9.57726 6.71607 1.22613 
42 1 8.93278 5.42022 1.22165 
48 1 13.9155 8.51246 2.46423 
52 1 15.2965 8.50915 2.46425 
56 1 16.0325 8.50738 1.22775 
19 1 9.98598 9.70301 2.46431 
24 1 8.39004 13.6792 2.46513 
27 1 8.76739 12.2596 2.4645 
35 1 9.58412 10.2828 1.22781 
43 1 8.97015 11.555 1.22798 
3 1 22.6046 8.508 2.46425 
7 1 21.8078 8.508 1.22775 
11 1 20.3826 8.50801 1.22775 
20 1 23.5503 7.30315 2.46425 
36 1 23.9681 6.73411 1.22775 
44 1 24.5832 5.47403 1.22775 
47 1 19.613 8.50806 2.46425 
51 1 18.2371 8.50799 2.46425 
55 1 17.5003 8.50763 1.22775 
17 1 23.5503 9.71285 2.46425 
33 1 23.9681 10.2819 1.22775 
41 1 24.5832 11.542 1.22775 
15 1 26.4101 0.818483 2.46425 
23 1 25.1648 3.34779 2.46425 
28 1 24.7852 4.7731 2.46425 
31 1 25.9874 1.3875 1.22775 
39 1 25.3683 2.6477 1.22775 
2 1 27.3535 17.398 2.46425 
6 1 28.179 17.398 1.22775 
10 1 29.5735 17.3979 1.22775 
14 1 26.4102 16.1975 2.46425 
22 1 25.1648 13.6682 2.46425 
25 1 24.7852 12.2429 2.46425 
30 1 25.9874 15.6285 1.22775 
38 1 25.3683 14.3683 1.22775 
46 1 30.325 17.3975 2.46425 
50 1 31.7736 17.3986 2.46423 
54 1 32.51 17.4027 1.22772 
ITEM: TIMESTEP
80
ITEM: NUMBER OF ATOMS
57
ITEM: BOX BOUNDS pp pp pp
0.0000000000000000e+00 3.2808000000000000e+01
0.0000000000000000e+00 1.7780000000000001e+01
0.0000000000000000e+00 2.4729999999999999e+00
ITEM: ATOMS id type x y z 
13 1 7.42334 0.710452 2.48236 
29 1 7.2028 1.47258 1.24734 
37 1 8.21626 2.59886 1.23362 
57 2 6.14003 1.91388 1.25313 
1 1 6.30482 17.5395 2.47235 
5 1 5.48864 17.6005 1.23506 
9 1 4.09124 17.4107 1.22796 
16 1 6.97331 16.1504 2.46419 
32 1 7.42367 15.6126 1.22739 
40 1 8.23085 14.4002 1.22799 
45 1 3.33557 17.3163 2.46443 
49 1 1.90166 17.3507 2.46373 
53 1 1.16578 17.3984 1.2273 
4 1 10.8787 8.48434 2.46365 
8 1 11.6984 8.48217 1.22715 
12 1 13.1157 8.51376 1.22768 
18 1 9.94191 7.27757 2.4615 
21 1 8.5136 3.26355 2.46982 
26 1 8.7588 4.70032 2.45942 
34 1 9.49867 6.73071 1.22487 
42 1 8.84484 5.45345 1.22268 
48 1 13.8838 8.51806 2.46419 
52 1 15.2996 8.5109 2.46424 
56 1 16.0327 8.50645 1.22774 
19 1 9.9504 9.68967 2.46436 
24 1 8.46497 13.6937 2.46451 
27 1 8.72574 12.2662 2.46458 
35 1 9.52429 10.2472 1.22788 
43 1 8.88152 11.5324 1.22808 
3 1 22.6348 8.508 2.46425 
7 1 21.8238 8.50798 1.22775 
11 1 20.405 8.50806 1.22775 
20 1 23.5764 7.30755 2.46425 
36 1 24.0295 6.76753 1.22775 
44 1 24.6829 5.49628 1.22775 
47 1 19.6358 8.50825 2.46425 
51 1 18.2321 8.5079 2.46425 
55 1 17.4971 8.50678 1.22775 
17 1 23.5764 9.70845 2.46425 
33 1 24.0295 10.2485 1.22775 
41 1 24.6829 11.5197 1.22775 
15 1 26.4003 0.811089 2.46425 
23 1 25.1046 3.33334 2.46425 
28 1 24.8487 4.77165 2.46425 
31 1 25.9353 1.34937 1.22775 
39 1 25.2718 2.62115 1.22775 
2 1 27.3513 17.398 2.46425 
6 1 28.181 17.3981 1.22775 
10 1 29.5978 17.3972 1.22774 
14 1 26.4004 16.2049 2.46425 
22 1 25.1046 13.6827 2.46425 
25 1 24.8487 12.2444 2.46425 
30 1 25.9354 15.6667 1.22775 
38 1 25.2718 14.3949 1.22775 
46 1 30.3495 17.3963 2.46424 
50 1 31.7796 17.4015 2.46416 
54 1 32.5305 17.4116 1.22764 
ITEM: TIMESTEP
90
ITEM: NUMBER OF ATOMS
57
ITEM: BOX BOUNDS pp pp pp
0.0000000000000000e+00 3.2808000000000000e+01
0.0000000000000000e+00 1.7780000000000001e+01
0.0000000000000000e+00 2.4729999999999999e+00
ITEM: ATOMS id type x y z 
13 1 7.42194 0.717069 2.48199 
29 1 7.22204 1.48403 1.24605 
37 1 8.21864 2.6028 1.23436 
57 2 6.14683 1.91582 1.25186 
1 1 6.32233 17.536 2.47225 
5 1 5.47768 17.6035 1.23516 
9 1 4.09644 17.4093 1.22826 
16 1 6.9793 16.1451 2.46444 
32 1 7.42533 15.6064 1.22766 
40 1 8.23508 14.4026 1.22797 
45 1 3.34605 17.3126 2.46466 
49 1 1.90288 17.3467 2.4638 
53 1 1.16034 17.3978 1.22729 
4 1 10.8795 8.47821 2.46359 
8 1 11.7045 8.48078 1.22712 
12 1 13.0973 8.51332 1.22766 
18 1 9.937 7.27923 2.46146 
21 1 8.51674 3.2669 2.47024 
26 1 8.75386 4.69938 2.45984 
34 1 9.49471 6.73529 1.22485 
42 1 8.8366 5.43707 1.22323 
48 1 13.8596 8.51915 2.46417 
52 1 15.2978 8.51124 2.46424 
56 1 16.026 8.50631 1.22774 
19 1 9.9466 9.68623 2.46436 
24 1 8.47089 13.6933 2.46448 
27 1 8.72121 12.2724 2.46458 
35 1 9.52044 10.2417 1.22788 
43 1 8.86728 11.5428 1.22807 
3 1 22.6343 8.50799 2.46425 
7 1 21.8167 8.50798 1.22775 
11 1 20.419 8.50808 1.22775 
20 1 23.5791 7.30857 2.46425 
36 1 24.0361 6.7764 1.22775 
44 1 24.7045 5.49872 1.22775 
47 1 19.6488 8.50832 2.46425 
51 1 18.2199 8.50787 2.46425 
55 1 17.4903 8.50655 1.22775 
17 1 23.5791 9.70743 2.46425 
33 1 24.0361 10.2396 1.22775 
41 1 24.7045 11.5173 1.22775 
15 1 26.4032 0.806032 2.46425 
23 1 25.0931 3.34528 2.46425 
28 1 24.8604 4.75805 2.46425 
31 1 25.9397 1.32867 1.22775 
39 1 25.2525 2.61371 1.22775 
2 1 27.3647 17.398 2.46425 
6 1 28.1869 17.3981 1.22775 
10 1 29.5856 17.397 1.22774 
14 1 26.4033 16.21 2.46425 
22 1 25.0931 13.6707 2.46425 
25 1 24.8604 12.258 2.46425 
30 1 25.9397 15.6873 1.22775 
38 1 25.2525 14.4023 1.22775 
46 1 30.3349 17.3961 2.46424 
50 1 31.7822 17.4025 2.46414 
54 1 32.5237 17.4132 1.22763 
ITEM: TIMESTEP
100
ITEM: NUMBER OF ATOMS
57
ITEM: BOX BOUNDS pp pp pp
0.0000000000000000e+00 3.2808000000000000e+01
0.0000000000000000e+00 1.7780000000000001e+01
0.0000000000000000e+00 2.4729999999999999e+00
ITEM: ATOMS id type x y z 
13 1 7.42047 0.715832 2.48076 
29 1 7.22846 1.48634 1.24493 
37 1 8.23062 2.60176 1.23466 
57 2 6.15675 1.91956 1.25087 
1 1 6.32014 17.5323 2.47194 
5 1 5.47976 17.6029 1.2349 
9 1 4.09764 17.4073 1.22866 
16 1 6.98246 16.1444 2.46487 
32 1 7.42482 15.6035 1.2281 
40 1 8.24646 14.404 1.22797 
45 1 3.34499 17.3105 2.46512 
49 1 1.9043 17.3423 2.46388 
53 1 1.16608 17.3942 1.22737 
4 1 10.8682 8.48005 2.46352 
8 1 11.6984 8.47927 1.22704 
12 1 13.0891 8.51294 1.22763 
18 1 9.92769 7.28157 2.46148 
21 1 8.52676 3.26544 2.47064 
26 1 8.74767 4.69944 2.46069 
34 1 9.48215 6.73681 1.22489 
42 1 8.82583 5.4395 1.224 
48 1 13.8415 8.52137 2.46412 
52 1 15.2909 8.51192 2.46423 
56 1 16.0289 8.50607 1.22773 
19 1 9.93717 9.68672 2.46434 
24 1 8.48046 13.696 2.46447 
27 1 8.7156 12.2743 2.46455 
35 1 9.50888 10.2451 1.22786 
43 1 8.85449 11.539 1.22805 
3 1 22.6416 8.50802 2.46425 
7 1 21.8078 8.50797 1.22775 
11 1 20.4204 8.50813 1.22775 
20 1 23.5844 7.31125 2.46425 
36 1 24.0466 6.77954 1.22775 
44 1 24.7374 5.48959 1.22775 
47 1 19.6707 8.50842 2.46425 
51 1 18.2174 8.50779 2.46425 
55 1 17.4815 8.50613 1.22775 
17 1 23.5845 9.70478 2.46425 
33 1 24.0466 10.2365 1.22775 
41 1 24.7373 11.5264 1.22775 
15 1 26.403 0.80402 2.46425 
23 1 25.0824 3.3327 2.46425 
28 1 24.8721 4.76462 2.46425 
31 1 25.9319 1.32956 1.22775 
39 1 25.2318 2.60161 1.22775 
2 1 27.3641 17.398 2.46425 
6 1 28.1859 17.398 1.22775 
10 1 29.5835 17.3966 1.22773 
14 1 26.4031 16.212 2.46425 
22 1 25.0824 13.6833 2.46425 
25 1 24.8721 12.2514 2.46425 
30 1 25.932 15.6864 1.22775 
38 1 25.2319 14.4144 1.22775 
46 1 30.3426 17.396 2.46423 
50 1 31.7834 17.4045 2.46413 
54 1 32.5237 17.4151 1.22762 
ITEM: TIMESTEP
110
ITEM: NUMBER OF ATOMS
57
ITEM: BOX BOUNDS pp pp pp
0.0000000000000000e+00 3.2808000000000000e+01
0.0000000000000000e+00 1.7780000000000001e+01
0.0000000000000000e+00 2.4729999999999999e+00
ITEM: ATOMS id type x y z 
13 1 7.41511 0.71782 2.47914 
29 1 7.24427 1.48766 1.24315 
37 1 8.25087 2.59872 1.23501 
57 2 6.17266 1.92762 1.249 
1 1 6.31893 17.5268 2.47146 
5 1 5.48266 17.5985 1.23452 
9 1 4.09581 17.4038 1.22936 
16 1 6.98907 16.1425 2.46549 
32 1 7.42739 15.5982 1.22877 
40 1 8.26248 14.4047 1.22804 
45 1 3.3428 17.3088 2.4657 
49 1 1.90259 17.3352 2.46409 
53 1 1.16044 17.3867 1.22754 
4 1 10.8672 8.482 2.46342 
8 1 11.6918 8.47917 1.22696 
12 1 13.0879 8.51213 1.22755 
18 1 9.91305 7.28942 2.46162 
21 1 8.54147 3.26546 2.47107 
26 1 8.73707 4.70656 2.46197 
34 1 9.46969 6.74615 1.22505 
42 1 8.81438 5.44307 1.22528 
48 1 13.846 8.52306 2.46407 
52 1 15.2896 8.51334 2.46422 
56 1 16.0353 8.50654 1.22772 
19 1 9.925 9.68459 2.4643 
24 1 8.4962 13.6994 2.46451 
27 1 8.70672 12.2701 2.46452 
35 1 9.49761 10.2404 1.22783 
43 1 8.8375 11.5367 1.22801 
3 1 22.6473 8.50801 2.46425 
7 1 21.8226 8.50799 1.22775 
11 1 20.4247 8.50827 1.22775 
20 1 23.6032 7.31208 2.46425 
36 1 24.0502 6.77557 1.22775 
44 1 24.7479 5.49382 1.22775 
47 1 19.6736 8.50848 2.46425 
51 1 18.2235 8.50738 2.46425 
55 1 17.4824 8.50555 1.22775 
17 1 23.6032 9.70395 2.46425 
33 1 24.0502 10.2405 1.22775 
41 1 24.7479 11.5222 1.22775 
15 1 26.392 0.804791 2.46425 
23 1 25.0632 3.33176 2.46425 
28 1 24.8914 4.76493 2.46425 
31 1 25.9288 1.33516 1.22775 
39 1 25.2173 2.59876 1.22775 
2 1 27.3569 17.3981 2.46425 
6 1 28.1755 17.3977 1.22775 
10 1 29.5766 17.3958 1.22772 
14 1 26.392 16.2112 2.46425 
22 1 25.0632 13.6843 2.46425 
25 1 24.8914 12.2511 2.46425 
30 1 25.9289 15.6809 1.22775 
38 1 25.2174 14.4173 1.22775 
46 1 30.3384 17.3963 2.46422 
50 1 31.7767 17.4087 2.46411 
54 1 32.5208 17.4173 1.22761 
ITEM: TIMESTEP
120
ITEM: NUMBER OF ATOMS
57
ITEM: BOX BOUNDS pp pp pp
0.0000000000000000e+00 3.2808000000000000e+01
0.0000000000000000e+00 1.7780000000000001e+01
0.0000000000000000e+00 2.4729999999999999e+00
ITEM: ATOMS id type x y z 
13 1 7.41228 0.718145 2.47861 
29 1 7.2508 1.49034 1.24255 
37 1 8.25808 2.59854 1.23506 
57 2 6.17918 1.92973 1.24824 
1 1 6.31643 17.5231 2.4713 
5 1 5.48045 17.5952 1.2344 
9 1 4.09503 17.4029 1.22957 
16 1 6.99327 16.1416 2.4657 
32 1 7.42949 15.5963 1.22898 
40 1 8.26544 14.4057 1.22808 
45 1 3.3418 17.3102 2.46592 
49 1 1.90084 17.333 2.46418 
53 1 1.15789 17.3831 1.22763 
4 1 10.8703 8.48242 2.46339 
8 1 11.6912 8.47981 1.22694 
12 1 13.0911 8.51188 1.22752 
18 1 9.90996 7.29409 2.46171 
21 1 8.54474 3.26654 2.47116 
26 1 8.73307 4.70976 2.46242 
34 1 9.46672 6.74958 1.22516 
42 1 8.81368 5.44491 1.22572 
48 1 13.8483 8.52283 2.46404 
52 1 15.2908 8.51389 2.46421 
56 1 16.0362 8.50703 1.22772 
19 1 9.92314 9.68251 2.46428 
24 1 8.50094 13.6989 2.46455 
27 1 8.70398 12.2677 2.46451 
35 1 9.49481 10.238 1.2278 
43 1 8.83406 11.536 1.228 
3 1 22.6473 8.508 2.46425 
7 1 21.827 8.508 1.22775 
11 1 20.4265 8.50833 1.22775 
20 1 23.6051 7.31593 2.46425 
36 1 24.0516 6.77469 1.22775 
44 1 24.7506 5.49619 1.22775 
47 1 19.6691 8.50847 2.46425 
51 1 18.2265 8.50715 2.46425 
55 1 17.4807 8.50542 1.22774 
17 1 23.6051 9.7001 2.46425 
33 1 24.0516 10.2413 1.22775 
41 1 24.7506 11.5198 1.22775 
15 1 26.3898 0.804306 2.46425 
23 1 25.0581 3.32978 2.46425 
28 1 24.8962 4.76733 2.46425 
31 1 25.9287 1.33451 1.22775 
39 1 25.2105 2.60151 1.22775 
2 1 27.3558 17.3981 2.46425 
6 1 28.1756 17.3976 1.22774 
10 1 29.5757 17.3955 1.22772 
14 1 26.3898 16.2117 2.46425 
22 1 25.0581 13.6862 2.46425 
25 1 24.8962 12.2487 2.46425 
30 1 25.9288 15.6815 1.22775 
38 1 25.2106 14.4145 1.22775 
46 1 30.3336 17.3968 2.46421 
50 1 31.7757 17.4104 2.46411 
54 1 32.5203 17.4175 1.22761 
ITEM: TIMESTEP
130
ITEM: NUMBER OF ATOMS
57
ITEM: BOX BOUNDS pp pp pp
0.0000000000000000e+00 3.2808000000000000e+01
0.0000000000000000e+00 1.7780000000000001e+01
0.0000000000000000e+00 2.4729999999999999e+00
ITEM: ATOMS id type x y z 
13 1 7.3759 0.724105 2.4733 
29 1 7.30999 1.50386 1.23688 
37 1 8.3307 2.5947 1.23522 
57 2 6.24581 1.95831 1.24047 
1 1 6.29935 17.4941 2.4699 
5 1 5.47086 17.5551 1.23324 
9 1 4.07961 17.3976 1.23154 
16 1 7.03513 16.1381 2.46758 
32 1 7.45487 15.5848 1.23096 
40 1 8.29831 14.3988 1.22868 
45 1 3.32372 17.3281 2.46788 
49 1 1.88188 17.3111 2.46526 
53 1 1.13647 17.3445 1.22864 
4 1 10.8814 8.48848 2.46326 
8 1 11.6994 8.48624 1.22679 
12 1 13.1005 8.50956 1.22723 
18 1 9.88216 7.33158 2.46293 
21 1 8.56935 3.28077 2.47161 
26 1 8.69556 4.73421 2.46683 
34 1 9.43608 6.7827 1.22652 
42 1 8.80879 5.46218 1.23008 
48 1 13.8578 8.51973 2.46375 
52 1 15.3011 8.51941 2.46411 
56 1 16.0461 8.51238 1.22763 
19 1 9.90746 9.6724 2.46404 
24 1 8.53966 13.6925 2.46509 
27 1 8.67907 12.2527 2.46443 
35 1 9.46335 10.2195 1.22757 
43 1 8.80582 11.5206 1.2279 
3 1 22.6586 8.50791 2.46425 
7 1 21.8389 8.50825 1.22775 
11 1 20.4384 8.50889 1.22775 
20 1 23.6298 7.32617 2.46425 
36 1 24.0677 6.77513 1.22775 
44 1 24.7789 5.49965 1.22775 
47 1 19.6781 8.5081 2.46425 
51 1 18.2383 8.50454 2.46423 
55 1 17.4905 8.50427 1.22773 
17 1 23.6298 9.6898 2.46425 
33 1 24.0676 10.2408 1.22775 
41 1 24.7789 11.5163 1.22775 
15 1 26.3655 0.804123 2.46425 
23 1 25.0153 3.32546 2.46425 
28 1 24.9335 4.77521 2.46425 
31 1 25.9184 1.34548 1.22775 
39 1 25.1713 2.60119 1.22775 
2 1 27.3332 17.3981 2.46423 
6 1 28.1526 17.3952 1.22773 
10 1 29.5542 17.3939 1.22768 
14 1 26.365 16.2121 2.46425 
22 1 25.0153 13.6904 2.46425 
25 1 24.9334 12.2407 2.46425 
30 1 25.9181 15.6705 1.22775 
38 1 25.1712 14.4147 1.22775 
46 1 30.3141 17.4039 2.46417 
50 1 31.7542 17.4276 2.46419 
54 1 32.5021 17.4164 1.22772 
ITEM: TIMESTEP
140
ITEM: NUMBER OF ATOMS
57
ITEM: BOX BOUNDS pp pp pp
0.0000000000000000e+00 3.2808000000000000e+01
0.0000000000000000e+00 1.7780000000000001e+01
0.0000000000000000e+00 2.4729999999999999e+00
ITEM: ATOMS id type x y z 
13 1 7.37712 0.72414 2.47306 
29 1 7.30999 1.50144 1.23679 
37 1 8.32936 2.59493 1.235 
57 2 6.2485 1.97164 1.23999 
1 1 6.29887 17.4945 2.46988 
5 1 5.47017 17.5457 1.23322 
9 1 4.07707 17.4009 1.23147 
16 1 7.03538 16.141 2.46754 
32 1 7.46163 15.59 1.23091 
40 1 8.29983 14.3974 1.22881 
45 1 3.31956 17.3295 2.46781 
49 1 1.88011 17.3108 2.46541 
53 1 1.13256 17.3434 1.22878 
4 1 10.8804 8.48756 2.46335 
8 1 11.6965 8.48539 1.22686 
12 1 13.1001 8.5094 1.22722 
18 1 9.88502 7.3276 2.46323 
21 1 8.56564 3.28067 2.47137 
26 1 8.70035 4.73329 2.46687 
34 1 9.43618 6.78193 1.22683 
42 1 8.80675 5.46157 1.23015 
48 1 13.8603 8.51933 2.46375 
52 1 15.3002 8.51915 2.46409 
56 1 16.0486 8.51309 1.22761 
19 1 9.91047 9.67406 2.46401 
24 1 8.53483 13.692 2.46523 
27 1 8.68202 12.2508 2.46445 
35 1 9.46386 10.2185 1.22755 
43 1 8.80291 11.5199 1.22792 
3 1 22.6614 8.50787 2.46425 
7 1 21.8446 8.5083 1.22775 
11 1 20.4403 8.50878 1.22775 
20 1 23.6299 7.32053 2.46425 
36 1 24.0704 6.77532 1.22775 
44 1 24.7762 5.50032 1.22775 
47 1 19.6811 8.50779 2.46425 
51 1 18.2401 8.50442 2.46422 
55 1 17.4924 8.50467 1.22772 
17 1 23.6299 9.69534 2.46425 
33 1 24.0704 10.2405 1.22775 
41 1 24.7763 11.5155 1.22775 
15 1 26.3646 0.806845 2.46425 
23 1 25.0217 3.32789 2.46425 
28 1 24.9252 4.77153 2.46425 
31 1 25.916 1.34445 1.22775 
39 1 25.178 2.59931 1.22775 
2 1 27.3313 17.3979 2.46423 
6 1 28.1482 17.3949 1.22773 
10 1 29.552 17.3957 1.22768 
14 1 26.3637 16.2094 2.46425 
22 1 25.0215 13.6879 2.46425 
25 1 24.9253 12.2443 2.46425 
30 1 25.9153 15.6715 1.22775 
38 1 25.1776 14.4165 1.22775 
46 1 30.3109 17.4061 2.46418 
50 1 31.7514 17.4263 2.46427 
54 1 32.4989 17.4136 1.22781 
ITEM: TIMESTEP
150
ITEM: NUMBER OF ATOMS
57
ITEM: BOX BOUNDS pp pp pp
0.0000000000000000e+00 3.2808000000000000e+01
0.0000000000000000e+00 1.7780000000000001e+01
0.0000000000000000e+00 2.4729999999999999e+00
ITEM: ATOMS id type x y z 
13 1 7.37269 0.724758 2.47287 
29 1 7.30808 1.50305 1.23656 
37 1 8.32916 2.59451 1.23475 
57 2 6.25321 1.98187 1.23946 
1 1 6.29866 17.4934 2.46983 
5 1 5.46871 17.5408 1.23316 
9 1 4.07603 17.4025 1.23141 
16 1 7.04066 16.142 2.4675 
32 1 7.46896 15.593 1.23088 
40 1 8.30009 14.3961 1.22894 
45 1 3.3189 17.3324 2.46776 
49 1 1.87904 17.3103 2.46555 
53 1 1.13192 17.3415 1.22893 
4 1 10.8813 8.48715 2.46346 
8 1 11.6988 8.4848 1.22696 
12 1 13.1009 8.50896 1.22722 
18 1 9.88768 7.3264 2.46356 
21 1 8.56347 3.28141 2.47112 
26 1 8.70321 4.73325 2.46694 
34 1 9.43794 6.78077 1.22716 
42 1 8.80749 5.46167 1.23023 
48 1 13.8604 8.51876 2.46374 
52 1 15.3006 8.51907 2.46406 
56 1 16.0482 8.51368 1.22758 
19 1 9.91265 9.6738 2.464 
24 1 8.5307 13.6895 2.46536 
27 1 8.6828 12.2492 2.46449 
35 1 9.46582 10.2181 1.22753 
43 1 8.80338 11.5179 1.22796 
3 1 22.6612 8.50782 2.46425 
7 1 21.8422 8.50831 1.22775 
11 1 20.44 8.50858 1.22774 
20 1 23.6281 7.32116 2.46425 
36 1 24.0722 6.77754 1.22775 
44 1 24.7779 5.50121 1.22775 
47 1 19.6814 8.50745 2.46424 
51 1 18.2391 8.5044 2.46421 
55 1 17.4927 8.50518 1.22771 
17 1 23.6281 9.69461 2.46425 
33 1 24.0722 10.2382 1.22775 
41 1 24.7781 11.5144 1.22775 
15 1 26.365 0.806276 2.46424 
23 1 25.0238 3.3281 2.46425 