LAMMPS (3 Mar 2020)
# Alpha
clear
units		real
dimension 3
boundary        p p p
atom_style	charge
newton on
read_data       O_3.lmp
  triclinic box = (0 0 0) to (15.77 13.6581 25.747) with tilt (7.8845 0 0)
  2 by 2 by 2 MPI processor grid
  reading atoms ...
  129 atoms
  read_data CPU = 0.00196624 secs

timestep 0.25

# ---------- Define Interatomic Potential ---------------------
pair_style      reax/c NULL checkqeq no
pair_coeff      * * ffield.reax C O
fix             2 all qeq/reax 1 0.0 10.0 1.0e-6 reax/c

#------------ Equilibration of the system -------------------------
reset_timestep 0

dump 1 all custom 10 min.lammpstrj id type x y z

minimize 1.0e-8 1.0e-8 100000 100000
WARNING: Using 'neigh_modify every 1 delay 0 check yes' setting during minimization (../min.cpp:190)
WARNING: Total cutoff < 2*bond cutoff. May need to use an increased neighbor list skin. (../pair_reaxc.cpp:413)
Neighbor list info ...
  update every 1 steps, delay 0 steps, check yes
  max neighbors/atom: 2000, page size: 100000
  master list distance cutoff = 9.5
  ghost atom cutoff = 9.5
  binsize = 4.75, bins = 5 3 6
  2 neighbor lists, perpetual/occasional/extra = 2 0 0
  (1) pair reax/c, perpetual
      attributes: half, newton off, ghost
      pair build: half/bin/newtoff/ghost
      stencil: half/ghost/bin/3d/newtoff
      bin: standard
  (2) fix qeq/reax, perpetual, copy from (1)
      attributes: half, newton off, ghost
      pair build: copy
      stencil: none
      bin: none
Per MPI rank memory allocation (min/avg/max) = 16.27 | 16.82 | 17.41 Mbytes
Step Temp E_pair E_mol TotEng Press 
       0            0   -19462.647            0   -19462.647    54367.164 
     405            0   -22014.267            0   -22014.267   -497.07634 
Loop time of 9.88183 on 8 procs for 405 steps with 129 atoms

99.4% CPU use with 8 MPI tasks x no OpenMP threads

Minimization stats:
  Stopping criterion = energy tolerance
  Energy initial, next-to-last, final = 
        -19462.6467568     -22014.2670131     -22014.2670154
  Force two-norm initial, final = 5071.13 173.867
  Force max component initial, final = 1201.25 51.2155
  Final line search alpha, max atom move = 0.000268904 0.013772
  Iterations, force evaluations = 405 2651

MPI task timing breakdown:
Section |  min time  |  avg time  |  max time  |%varavg| %total
---------------------------------------------------------------
Pair    | 6.2363     | 7.1212     | 7.6661     |  20.2 | 72.06
Neigh   | 0.0004243  | 0.00047347 | 0.00053795 |   0.0 |  0.00
Comm    | 0.067149   | 0.61255    | 1.4996     |  69.0 |  6.20
Output  | 0.0016695  | 0.0020072  | 0.0030808  |   0.9 |  0.02
Modify  | 2.1269     | 2.1272     | 2.1275     |   0.0 | 21.53
Other   |            | 0.01843    |            |       |  0.19

Nlocal:    16.125 ave 41 max 0 min
Histogram: 2 1 1 1 1 0 0 0 1 1
Nghost:    472.875 ave 520 max 417 min
Histogram: 1 2 0 1 0 0 0 0 2 2
Neighs:    1125.38 ave 2665 max 0 min
Histogram: 1 2 1 0 1 1 0 0 1 1

Total # of neighbors = 9003
Ave neighs/atom = 69.7907
Neighbor list builds = 1
Dangerous builds = 0

###
min_style cg
minimize 1.0e-8 1.0e-8 100000 100000
WARNING: Using 'neigh_modify every 1 delay 0 check yes' setting during minimization (../min.cpp:190)
WARNING: Total cutoff < 2*bond cutoff. May need to use an increased neighbor list skin. (../pair_reaxc.cpp:413)
Per MPI rank memory allocation (min/avg/max) = 16.27 | 16.82 | 17.41 Mbytes
Step Temp E_pair E_mol TotEng Press 
     405            0   -22014.267            0   -22014.267   -497.07634 
     531            0   -22020.593            0   -22020.593    895.26678 
Loop time of 3.58391 on 8 procs for 126 steps with 129 atoms

99.4% CPU use with 8 MPI tasks x no OpenMP threads

Minimization stats:
  Stopping criterion = energy tolerance
  Energy initial, next-to-last, final = 
        -22014.2670154     -22020.5924002     -22020.5925767
  Force two-norm initial, final = 173.867 32.1385
  Force max component initial, final = 51.2155 8.33823
  Final line search alpha, max atom move = 9.21138e-05 0.000768066
  Iterations, force evaluations = 126 943

MPI task timing breakdown:
Section |  min time  |  avg time  |  max time  |%varavg| %total
---------------------------------------------------------------
Pair    | 2.2732     | 2.5857     | 2.8179     |  11.4 | 72.15
Neigh   | 0          | 0          | 0          |   0.0 |  0.00
Comm    | 0.015129   | 0.24863    | 0.56192    |  36.9 |  6.94
Output  | 0.00058585 | 0.00068033 | 0.0010112  |   0.0 |  0.02
Modify  | 0.74215    | 0.74225    | 0.74235    |   0.0 | 20.71
Other   |            | 0.006632   |            |       |  0.19

Nlocal:    16.125 ave 42 max 0 min
Histogram: 2 1 1 1 1 0 0 0 1 1
Nghost:    472.125 ave 522 max 412 min
Histogram: 1 2 0 1 0 0 0 0 2 2
Neighs:    1115.25 ave 2699 max 0 min
Histogram: 1 2 1 1 0 1 0 0 1 1

Total # of neighbors = 8922
Ave neighs/atom = 69.1628
Neighbor list builds = 0
Dangerous builds = 0

###
fix 1 all box/relax aniso 0.0
min_style cg
minimize 1.0e-8 1.0e-8 100000 100000
WARNING: Using 'neigh_modify every 1 delay 0 check yes' setting during minimization (../min.cpp:190)
WARNING: Total cutoff < 2*bond cutoff. May need to use an increased neighbor list skin. (../pair_reaxc.cpp:413)
Per MPI rank memory allocation (min/avg/max) = 16.27 | 16.82 | 17.41 Mbytes
Step Temp E_pair E_mol TotEng Press Volume 
     531            0   -22020.593            0   -22020.593    895.26678    5545.5955 
     543            0   -22020.627            0   -22020.627   -91.077298    5545.8626 
Loop time of 0.0903879 on 8 procs for 12 steps with 129 atoms

99.3% CPU use with 8 MPI tasks x no OpenMP threads

Minimization stats:
  Stopping criterion = energy tolerance
  Energy initial, next-to-last, final = 
        -22020.5925767     -22020.6269423     -22020.6269537
  Force two-norm initial, final = 140.976 34.2949
  Force max component initial, final = 116.896 21.2686
  Final line search alpha, max atom move = 5.16901e-07 1.09938e-05
  Iterations, force evaluations = 12 25

MPI task timing breakdown:
Section |  min time  |  avg time  |  max time  |%varavg| %total
---------------------------------------------------------------
Pair    | 0.061851   | 0.070686   | 0.077156   |   1.9 | 78.20
Neigh   | 0          | 0          | 0          |   0.0 |  0.00
Comm    | 0.0003563  | 0.0068487  | 0.015689   |   6.3 |  7.58
Output  | 4.4353e-05 | 5.1722e-05 | 8.0671e-05 |   0.0 |  0.06
Modify  | 0.012237   | 0.012244   | 0.012251   |   0.0 | 13.55
Other   |            | 0.0005569  |            |       |  0.62

Nlocal:    16.125 ave 42 max 0 min
Histogram: 2 1 1 1 1 0 0 0 1 1
Nghost:    471.125 ave 522 max 410 min
Histogram: 1 2 0 1 0 0 0 0 2 2
Neighs:    1116.25 ave 2703 max 0 min
Histogram: 2 1 1 1 0 1 0 0 1 1

Total # of neighbors = 8930
Ave neighs/atom = 69.2248
Neighbor list builds = 0
Dangerous builds = 0

unfix 1
###
min_style cg
minimize 1.0e-8 1.0e-8 100000 100000
WARNING: Using 'neigh_modify every 1 delay 0 check yes' setting during minimization (../min.cpp:190)
WARNING: Total cutoff < 2*bond cutoff. May need to use an increased neighbor list skin. (../pair_reaxc.cpp:413)
Per MPI rank memory allocation (min/avg/max) = 16.27 | 16.82 | 17.41 Mbytes
Step Temp E_pair E_mol TotEng Press 
     543            0   -22020.627            0   -22020.627   -91.077297 
     545            0   -22020.633            0   -22020.633    643.42661 
Loop time of 0.0831812 on 8 procs for 2 steps with 129 atoms

99.5% CPU use with 8 MPI tasks x no OpenMP threads

Minimization stats:
  Stopping criterion = energy tolerance
  Energy initial, next-to-last, final = 
        -22020.6269537     -22020.6324215     -22020.6325974
  Force two-norm initial, final = 23.4089 29.2135
  Force max component initial, final = 4.71511 5.17875
  Final line search alpha, max atom move = 7.88974e-05 0.00040859
  Iterations, force evaluations = 2 21

MPI task timing breakdown:
Section |  min time  |  avg time  |  max time  |%varavg| %total
---------------------------------------------------------------
Pair    | 0.052732   | 0.060028   | 0.06547    |   1.8 | 72.17
Neigh   | 0          | 0          | 0          |   0.0 |  0.00
Comm    | 0.00031422 | 0.0057816  | 0.013087   |   5.7 |  6.95
Output  | 0          | 0          | 0          |   0.0 |  0.00
Modify  | 0.017129   | 0.017134   | 0.017138   |   0.0 | 20.60
Other   |            | 0.0002374  |            |       |  0.29

Nlocal:    16.125 ave 42 max 0 min
Histogram: 2 1 1 1 1 0 0 0 1 1
Nghost:    472.125 ave 522 max 412 min
Histogram: 1 2 0 1 0 0 0 0 2 2
Neighs:    1116.75 ave 2704 max 0 min
Histogram: 2 1 1 1 0 1 0 0 1 1

Total # of neighbors = 8934
Ave neighs/atom = 69.2558
Neighbor list builds = 0
Dangerous builds = 0

###
fix 1 all box/relax aniso 0.0
min_style cg
minimize 1.0e-8 1.0e-8 100000 100000
WARNING: Using 'neigh_modify every 1 delay 0 check yes' setting during minimization (../min.cpp:190)
WARNING: Total cutoff < 2*bond cutoff. May need to use an increased neighbor list skin. (../pair_reaxc.cpp:413)
Per MPI rank memory allocation (min/avg/max) = 16.27 | 16.82 | 17.41 Mbytes
Step Temp E_pair E_mol TotEng Press Volume 
     545            0   -22020.633            0   -22020.633    643.42661    5545.8626 
     550            0   -22020.644            0   -22020.644    31.708636    5545.9965 
Loop time of 0.172746 on 8 procs for 5 steps with 129 atoms

99.4% CPU use with 8 MPI tasks x no OpenMP threads

Minimization stats:
  Stopping criterion = linesearch alpha is zero
  Energy initial, next-to-last, final = 
        -22020.6325974     -22020.6441814     -22020.6441814
  Force two-norm initial, final = 95.2789 28.8546
  Force max component initial, final = 57.8053 19.9525
  Final line search alpha, max atom move = 8.33329e-12 1.6627e-10
  Iterations, force evaluations = 5 49

MPI task timing breakdown:
Section |  min time  |  avg time  |  max time  |%varavg| %total
---------------------------------------------------------------
Pair    | 0.11946    | 0.13645    | 0.14901    |   2.7 | 78.99
Neigh   | 0          | 0          | 0          |   0.0 |  0.00
Comm    | 0.00067306 | 0.013275   | 0.03028    |   8.7 |  7.68
Output  | 0          | 0          | 0          |   0.0 |  0.00
Modify  | 0.022207   | 0.022219   | 0.022229   |   0.0 | 12.86
Other   |            | 0.0008008  |            |       |  0.46

Nlocal:    16.125 ave 42 max 0 min
Histogram: 2 1 1 1 1 0 0 0 1 1
Nghost:    471.125 ave 522 max 410 min
Histogram: 1 2 0 1 0 0 0 0 2 2
Neighs:    1116.75 ave 2704 max 0 min
Histogram: 2 1 1 1 0 1 0 0 1 1

Total # of neighbors = 8934
Ave neighs/atom = 69.2558
Neighbor list builds = 0
Dangerous builds = 0

unfix 1
###
min_style cg
minimize 1.0e-8 1.0e-8 100000 100000
WARNING: Using 'neigh_modify every 1 delay 0 check yes' setting during minimization (../min.cpp:190)
WARNING: Total cutoff < 2*bond cutoff. May need to use an increased neighbor list skin. (../pair_reaxc.cpp:413)
Per MPI rank memory allocation (min/avg/max) = 16.27 | 16.82 | 17.41 Mbytes
Step Temp E_pair E_mol TotEng Press 
     550            0   -22020.644            0   -22020.644    31.708636 
     561            0   -22020.682            0   -22020.682   -55.280361 
Loop time of 0.316935 on 8 procs for 11 steps with 129 atoms

99.4% CPU use with 8 MPI tasks x no OpenMP threads

Minimization stats:
  Stopping criterion = energy tolerance
  Energy initial, next-to-last, final = 
        -22020.6441814     -22020.6824627     -22020.6824651
  Force two-norm initial, final = 17.4166 69.5541
  Force max component initial, final = 3.91616 24.6441
  Final line search alpha, max atom move = 0.00038937 0.00959569
  Iterations, force evaluations = 11 83

MPI task timing breakdown:
Section |  min time  |  avg time  |  max time  |%varavg| %total
---------------------------------------------------------------
Pair    | 0.20079    | 0.2294     | 0.25059    |   3.5 | 72.38
Neigh   | 0          | 0          | 0          |   0.0 |  0.00
Comm    | 0.0011909  | 0.022479   | 0.051132   |  11.3 |  7.09
Output  | 4.4594e-05 | 5.2874e-05 | 8.3928e-05 |   0.0 |  0.02
Modify  | 0.064328   | 0.064346   | 0.064358   |   0.0 | 20.30
Other   |            | 0.0006563  |            |       |  0.21

Nlocal:    16.125 ave 42 max 0 min
Histogram: 2 1 1 1 1 0 0 0 1 1
Nghost:    471.125 ave 522 max 410 min
Histogram: 1 2 0 1 0 0 0 0 2 2
Neighs:    1116.5 ave 2703 max 0 min
Histogram: 2 1 1 1 0 1 0 0 1 1

Total # of neighbors = 8932
Ave neighs/atom = 69.2403
Neighbor list builds = 0
Dangerous builds = 0

undump 1
#############
#----------- Thermo ------------
reset_timestep 0
thermo  200

thermo_style    custom step temp etotal ke pe press
velocity all create 300 12345 mom yes rot yes
fix 1 all npt temp 300 300 25.0 iso 0.0 0.0 250.0

variable vpe equal pe
variable vtemp equal temp
variable vstep equal step

fix output all print 2500 "${vstep} ${vtemp} ${vpe}" file temp-tpdh-Pt.dat screen no

dump 1 all custom 2500 thermo-tpdh-Pt.lammpstrj id type x y z

run 1000000
WARNING: Total cutoff < 2*bond cutoff. May need to use an increased neighbor list skin. (../pair_reaxc.cpp:413)
Per MPI rank memory allocation (min/avg/max) = 15.13 | 15.58 | 16.3 Mbytes
Step Temp TotEng KinEng PotEng Press 
       0          300   -21906.219    114.46311   -22020.682    888.16942 
     200    214.12864   -21865.174    81.699432   -21946.874    20415.245 
     400    284.85079   -21803.862    108.68302   -21912.545   -18786.767 
     600     323.9602   -21777.135    123.60497    -21900.74    8338.7985 
     800    299.92835   -21805.167    114.43577   -21919.602    17962.623 
    1000    289.96545   -21799.175    110.63449    -21909.81   -9757.6927 
    1200    313.17633   -21783.668    119.49045   -21903.158   -20254.847 
    1400    341.29861   -21802.189    130.22033    -21932.41    5730.5857 
    1600    274.58731   -21812.114    104.76705   -21916.881     2595.016 
    1800     321.7876   -21795.863    122.77603   -21918.639    4603.0538 
    2000    331.25158   -21794.312    126.38695   -21920.699    14285.479 
    2200    279.78947   -21812.917    106.75191   -21919.668    6860.6679 
    2400    308.30319   -21786.749    117.63114    -21904.38    5331.8804 
    2600    298.77438   -21802.631    113.99548   -21916.626   -8426.6888 
    2800    274.81538   -21814.913    104.85407   -21919.767   -9731.3878 
    3000    318.62623   -21791.058    121.56982   -21912.628    2991.2142 
    3200    307.04681   -21795.949    117.15177     -21913.1    10942.506 
    3400    277.94134   -21811.305    106.04676   -21917.352    13922.878 
    3600    308.53233   -21797.021    117.71856   -21914.739   -7590.4581 
    3800    357.82506   -21768.311    136.52589   -21904.837    5805.1825 
    4000    296.92464   -21798.443    113.28972   -21911.732    25297.122 
    4200    293.89973   -21810.998    112.13559   -21923.134   -1477.8694 
    4400     298.9386   -21786.735    114.05814   -21900.793   -4447.6174 
    4600    300.35594   -21791.003    114.59891   -21905.602    16355.198 
    4800    291.47679   -21799.954    111.21113   -21911.165   -12959.408 
    5000    309.95927   -21785.501      118.263   -21903.764     -11910.3 
    5200    304.58871   -21784.126     116.2139    -21900.34   -8822.2844 
    5400    325.73881   -21800.559    124.28359   -21924.843   -6319.6166 
    5600    322.65862   -21781.245    123.10836   -21904.353   -2564.9141 
    5800    331.97058   -21791.185    126.66128   -21917.847     2851.036 
    6000    292.82399   -21806.971    111.72515   -21918.696   -16247.168 
    6200    327.51144   -21784.748    124.95992   -21909.708    6049.3059 
    6400    275.80238    -21818.67    105.23066     -21923.9    31046.154 
    6600    312.05221   -21799.917    119.06155   -21918.979    1357.1586 
    6800    309.97131   -21802.237     118.2676   -21920.505    11432.365 
    7000    257.47657   -21832.494    98.238561   -21930.733    12445.121 
    7200     291.7104   -21808.485    111.30026   -21919.785    -18145.09 
    7400    313.62134    -21795.37    119.66024    -21915.03   -20778.584 
    7600     274.5408    -21799.14    104.74931    -21903.89    12568.582 
    7800    277.43367   -21819.517    105.85306    -21925.37   -850.32721 
    8000     300.0787    -21790.93    114.49313   -21905.423   -8351.7718 
    8200    266.89125   -21803.588    101.83067   -21905.419   -7113.6693 
    8400    276.39753   -21807.713    105.45773   -21913.171   -17604.788 
    8600    310.52983   -21785.902    118.48069   -21904.383     -20051.6 
    8800    255.22674    -21810.54     97.38015    -21907.92   -7450.9374 
    9000     305.5006   -21803.167    116.56183   -21919.729    3497.9291 
    9200    304.46191   -21796.332    116.16552   -21912.497    22378.712 
    9400    286.74846   -21800.493    109.40706     -21909.9    7587.5183 
    9600    285.71721   -21804.648     109.0136   -21913.661    29712.906 
    9800     315.7832   -21806.078    120.48509   -21926.563   -7390.2826 
   10000    333.68881   -21788.452    127.31686   -21915.769   -10967.423 
   10200    300.58913   -21809.956    114.68788   -21924.644   -16787.285 
   10400    313.61275   -21810.087    119.65697   -21929.744   -10963.253 
   10600    292.92607   -21795.192    111.76409   -21906.956     28550.97 
   10800    289.22744   -21802.473    110.35291   -21912.826   -13688.291 
   11000    286.90877   -21804.339    109.46823   -21913.807    584.84847 
   11200    336.74743   -21781.375    128.48385   -21909.859    7259.2177 
   11400    297.47614   -21811.369    113.50014   -21924.869   -10443.049 
   11600    296.46879   -21805.145     113.1158   -21918.261     3809.916 
   11800    314.90184   -21783.396    120.14881   -21903.545   -11648.658 
   12000    297.86996   -21790.263     113.6504   -21903.913   -3264.0639 
   12200     309.9385   -21810.579    118.25508   -21928.834    7850.3562 
   12400    306.77725   -21799.006    117.04892   -21916.055   -1338.3579 
   12600      308.345    -21794.31    117.64709   -21911.957    5100.4974 
   12800    267.49442   -21808.911    102.06081   -21910.972   -15468.381 
   13000    278.84464   -21798.198    106.39141   -21904.589   -6603.4697 
   13200    287.04067   -21803.715    109.51855   -21913.234    5018.3816 
   13400    278.16428   -21822.025    106.13183   -21928.157    19062.917 
   13600     327.0399   -21796.536    124.78001   -21921.316   -7910.6575 
   13800    308.78861    -21794.18    117.81634   -21911.996     9937.147 
   14000    300.83682   -21791.302    114.78239   -21906.084   -6184.0436 
   14200    297.95706    -21808.35    113.68363   -21922.034   -13437.859 
   14400    277.75647    -21808.63    105.97623   -21914.606    1503.8328 
   14600    314.32742   -21786.013    119.92964   -21905.942    1025.0295 
   14800    281.44593   -21808.057    107.38392   -21915.441   -15309.471 
   15000    288.10227   -21802.636     109.9236    -21912.56    9861.4797 
   15200    306.17314   -21796.707    116.81843   -21913.525   -20107.997 
   15400    285.74017   -21793.478    109.02236     -21902.5   -11509.815 
   15600    278.09768   -21811.301    106.10641   -21917.407   -1638.7933 
   15800    310.15273   -21787.253    118.33682   -21905.589   -4863.3573 
   16000    269.58128    -21786.93    102.85703   -21889.787    4110.7693 
   16200    280.23302   -21812.649    106.92114    -21919.57   -20016.111 
   16400    284.71858   -21797.658    108.63257    -21906.29   -6115.8426 
   16600    281.41218   -21786.147    107.37104   -21893.518    24940.902 
   16800    281.90731   -21806.481    107.55996   -21914.041      12131.9 
   17000    275.62364    -21816.46    105.16246   -21921.622   -3775.4195 
   17200    306.70679   -21784.389    117.02204   -21901.411   -4299.1742 
   17400    271.58696   -21802.908    103.62229    -21906.53   -2026.2097 
   17600    313.94683   -21803.583    119.78443   -21923.367   -2814.4715 
   17800    297.18201   -21796.296    113.38792   -21909.684   -6144.3731 
   18000    311.30252   -21793.566    118.77551   -21912.342    2263.2881 
   18200    282.50305   -21810.254    107.78725   -21918.041   -11770.956 
   18400     286.0313   -21806.646    109.13344   -21915.779   -6997.3725 
   18600    331.54291   -21788.127     126.4981   -21914.625    1443.6807 
   18800    291.90776   -21810.249    111.37556   -21921.625    7104.9465 
   19000    278.97163   -21825.715    106.43986   -21932.155   -6682.2307 
   19200    334.34112   -21791.199    127.56574   -21918.765    -17475.65 
   19400    301.22413   -21789.707    114.93017   -21904.638   -3630.6375 
   19600    277.63783   -21814.196    105.93096   -21920.127     5185.981 
   19800    295.13184   -21797.793    112.60569   -21910.398    5829.4496 
   20000     306.2857   -21797.019    116.86138    -21913.88    6130.7275 
   20200    275.93123   -21812.206    105.27982   -21917.486   -13081.935 
   20400    300.52475   -21798.075    114.66332   -21912.738    13144.633 
   20600    293.15371   -21790.599    111.85095    -21902.45   -5289.8391 
   20800    296.84963   -21807.656     113.2611   -21920.917   -12049.914 
   21000    309.05259   -21803.637    117.91707   -21921.554    7393.3593 
   21200    342.84281   -21777.709    130.80951   -21908.518    6831.0525 
   21400    317.75319   -21786.539    121.23672   -21907.776    24723.913 
   21600    273.18003    -21804.61    104.23011    -21908.84   -3154.1234 
   21800    276.34636   -21809.794    105.43821   -21915.232   -12619.258 
   22000    307.94003    -21781.64    117.49257   -21899.133   -15138.346 
   22200    265.05318    -21805.28    101.12937   -21906.409   -11725.417 
   22400    299.15897   -21800.448    114.14221   -21914.591    7853.5461 
   22600    283.86139   -21790.508    108.30552   -21898.813    -290.3154 
   22800    314.07733    -21798.66    119.83422   -21918.495    3257.6805 
   23000    263.02421   -21810.629    100.35523   -21910.984    21189.666 
   23200    325.12793   -21785.998    124.05051   -21910.049    4053.7268 
   23400    280.05116   -21800.513    106.85175   -21907.364    27310.391 
   23600    264.56606   -21826.334    100.94351   -21927.277   -11989.069 
   23800    301.82897   -21796.916    115.16094   -21912.077    2142.6644 
   24000     290.5593   -21791.384    110.86106   -21902.245   -26706.737 
   24200     268.0257   -21813.636    102.26351   -21915.899   -12298.814 
   24400    331.77676   -21780.932    126.58733    -21907.52    18013.822 
   24600    302.81514   -21798.303     115.5372    -21913.84     11955.92 
   24800    259.57734   -21808.719    99.040097    -21907.76    18415.891 
   25000     310.3633   -21794.652    118.41716   -21913.069    23150.491 
   25200    318.24201   -21796.587    121.42323    -21918.01    -6112.321 
   25400    304.65266   -21809.048     116.2383   -21925.287   -1701.3375 
   25600    321.34689   -21805.919    122.60788   -21928.526      4857.74 
   25800    309.91675   -21786.656    118.24678   -21904.903   -12.403119 
   26000    265.74967   -21817.123    101.39511   -21918.518   -4408.7523 
   26200    325.35714   -21800.216    124.13796   -21924.354    6189.3077 
   26400    325.76205   -21791.365    124.29245   -21915.657    7715.3463 
   26600    290.40084   -21798.218    110.80061   -21909.018    26236.813 
   26800    289.78768   -21799.506    110.56666   -21910.073    8560.4117 
   27000    258.03366   -21825.453    98.451112   -21923.904    3802.1055 
   27200    272.93052   -21798.609    104.13491   -21902.744   -27065.828 
   27400    328.54111   -21801.385    125.35279   -21926.738   -847.51291 
   27600    274.84256   -21820.591    104.86444   -21925.455     36235.88 
   27800    328.24637   -21789.097    125.24033   -21914.337   -8609.5267 
   28000    279.72583   -21810.404    106.72762   -21917.132   -3635.2946 
   28200    303.05024   -21810.109     115.6269   -21925.736   -11339.953 
   28400    329.67451   -21773.239    125.78523   -21899.024    11793.899 
   28600    327.22493   -21798.179    124.85061    -21923.03   -7848.6017 
   28800     293.2681   -21816.945    111.89459   -21928.839    -6156.418 
   29000      318.383   -21795.117    121.47702   -21916.594    806.98268 
   29200     269.7056   -21802.228    102.90447   -21905.133   -6.3634591 
   29400    306.53842   -21810.499     116.9578   -21927.456   -6198.7465 
   29600    309.31447   -21792.342    118.01698   -21910.359   -2456.4006 
   29800    307.57355   -21788.809    117.35274   -21906.162   -41852.494 
   30000    309.08111   -21811.409    117.92795   -21929.337    310.10119 
   30200    305.74455   -21799.265     116.6549    -21915.92   -11225.865 
   30400    342.06678   -21779.498    130.51342   -21910.012   -4247.5578 
   30600    290.23202   -21811.183    110.73619   -21921.919    13702.094 
   30800        322.5   -21793.583    123.04784   -21916.631   -5898.6357 
   31000    311.20401   -21798.828    118.73792   -21917.566    3704.8829 
   31200     291.1335   -21815.215    111.08015   -21926.295   -468.18783 
   31400    297.94624   -21794.255    113.67951   -21907.934   -10514.291 
   31600    308.70722   -21790.631    117.78529   -21908.416    14660.425 
   31800    287.19689   -21814.532    109.57816   -21924.111   -12437.175 
   32000    310.75903    -21793.07    118.56815   -21911.638   -22107.894 
   32200    312.55473   -21796.307    119.25329   -21915.561    5308.0009 
   32400    285.57825   -21809.485    108.96058   -21918.446   -14884.534 
   32600    318.99728   -21796.797     121.7114   -21918.508   -11328.241 
   32800    350.97339    -21771.65    133.91168   -21905.562   -12928.371 
   33000    306.25897   -21805.464    116.85118   -21922.315   -11759.056 
   33200    313.13966   -21808.377    119.47646   -21927.854   -23469.904 
   33400    321.07134   -21791.474    122.50274   -21913.977    17560.657 
   33600    281.03921    -21813.86    107.22874   -21921.089    3561.1175 
   33800      313.267   -21812.022    119.52505   -21931.547    17299.203 
   34000    320.55033   -21792.358    122.30395   -21914.662    -28237.11 
   34200    305.34827   -21810.253     116.5037   -21926.757    15238.494 
   34400    286.20913    -21814.22    109.20129   -21923.421   -10831.025 
   34600    309.22392    -21784.41    117.98243   -21902.392    -1170.547 
   34800    258.57593   -21798.979    98.658013   -21897.637   -20534.637 
   35000    298.24511   -21804.817    113.79354    -21918.61   -4637.5525 
   35200    284.44638   -21794.689    108.52872   -21903.218    28546.029 
   35400     329.0674    -21775.69    125.55359   -21901.243    4437.7563 
   35600    311.44187   -21793.094    118.82868   -21911.923   -19707.757 
   35800    278.03886   -21807.199    106.08397   -21913.283    21048.651 
   36000    329.31903   -21783.303     125.6496   -21908.952    -14663.71 
   36200    329.73728   -21796.522    125.80918   -21922.331   -775.37312 
   36400    312.03167   -21807.482    119.05372   -21926.536    3057.0713 
   36600     309.0103   -21804.788    117.90093   -21922.689     1746.908 
   36800    311.50893   -21792.627    118.85427   -21911.481     18726.52 
   37000    295.98693   -21811.781    112.93195   -21924.713    6885.4795 
   37200    277.76109   -21817.075    105.97799   -21923.053    37107.171 
   37400    333.40923   -21793.012    127.21019   -21920.222   -17983.901 
   37600    315.63723   -21810.266    120.42939   -21930.696    4712.8989 
   37800    310.18797   -21813.521    118.35026   -21931.871   -5548.4287 
   38000    339.02388   -21787.077    129.35242   -21916.429   -28359.805 
   38200    266.61563   -21810.424    101.72551    -21912.15    7681.3232 
   38400    247.11514   -21808.921    94.285222   -21903.206   -7965.6001 
   38600    327.09922   -21776.182    124.80264   -21900.985    8090.1701 
   38800    281.68701   -21803.376     107.4759   -21910.852    8249.2866 
   39000    325.26228   -21814.994    124.10177   -21939.095    12689.552 
   39200    306.46325   -21806.487    116.92912   -21923.416   -5212.0745 
   39400    320.18114   -21790.523    122.16309   -21912.686   -2540.0121 
   39600     274.8151   -21823.017    104.85397    -21927.87    10819.853 
   39800    297.71287    -21806.09    113.59047    -21919.68   -6199.1353 
   40000     285.6745   -21823.561     108.9973   -21932.558   -11764.123 
   40200      282.932   -21836.627    107.95092   -21944.578    6208.6511 
   40400    294.77022   -21831.474    112.46772   -21943.942    35702.544 
   40600    308.28517   -21814.795    117.62426   -21932.419   -10037.129 
   40800    286.44102    -21838.54    109.28976    -21947.83    8213.6447 
   41000    306.26351   -21834.019    116.85291   -21950.872   -19011.282 
   41200    309.39727   -21809.535    118.04858   -21927.584     7922.408 
   41400     306.7511   -21833.191    117.03895    -21950.23     15304.74 
   41600    291.39072   -21836.883    111.17829   -21948.062    11304.303 
   41800    299.40022   -21811.882    114.23426   -21926.116   -3052.5338 
   42000    314.58037    -21837.01    120.02616   -21957.036   -11600.562 
   42200    298.33034   -21832.758    113.82606   -21946.584    4753.9892 
   42400    319.33345   -21819.407    121.83966   -21941.247   -10095.738 
   42600    275.61651    -21848.89    105.15974    -21954.05    5110.6807 
   42800    281.05308   -21828.803    107.23403   -21936.037    3761.8984 
   43000    288.98305   -21825.868    110.25966   -21936.127   -10558.827 
   43200    257.73288   -21846.865    98.336352   -21945.201   -7843.7353 
   43400    280.81923   -21836.721     107.1448   -21943.866    3529.9204 
   43600    287.35814   -21822.614    109.63968   -21932.254    17187.724 
   43800    286.82082   -21835.596    109.43467   -21945.031   -8743.6539 
   44000    292.59092   -21842.339    111.63622   -21953.975    4337.4886 
   44200    321.32909   -21815.929    122.60109    -21938.53   -17310.113 
   44400    296.06405   -21835.825    112.96137   -21948.786   -15513.369 
   44600    319.42221   -21836.237    121.87353    -21958.11    9246.3531 
   44800    318.39914   -21810.819    121.48318   -21932.303   -550.33761 
   45000    307.66782   -21838.381    117.38871    -21955.77   -16812.956 
   45200    319.65121   -21832.652     121.9609   -21954.613   -6603.2221 
   45400    330.85945   -21801.426    126.23733   -21927.664   -1464.7055 
   45600    308.70892    -21825.48    117.78594   -21943.266   -497.23389 
   45800    267.99334   -21839.875    102.25117   -21942.126    20894.047 
   46000    306.03706   -21811.068    116.76651   -21927.834    -5080.505 
   46200    311.08089   -21823.314    118.69095   -21942.004   -95.029184 
   46400    292.36948   -21834.288    111.55173    -21945.84   -2764.6289 
   46600    324.08937   -21814.969    123.65425   -21938.623   -7401.0713 
   46800     321.0511   -21816.878    122.49502   -21939.373   -11691.832 
   47000     329.4719   -21832.505    125.70792   -21958.213   -11717.606 
   47200    292.46048    -21840.75    111.58645   -21952.336    -9863.699 
   47400    285.44748   -21827.307    108.91068   -21936.217    4722.6469 
   47600    320.86978   -21821.655    122.42584   -21944.081   -5352.1363 
   47800    297.27873   -21846.752    113.42482   -21960.177    8311.4253 
   48000    348.83869   -21833.414     133.0972   -21966.511    8508.2619 
   48200    325.04749   -21854.791    124.01982   -21978.811    12752.625 
   48400    292.16915   -21857.479    111.47529   -21968.954   -11422.333 
   48600    321.83791   -21830.482    122.79522   -21953.277    7553.6023 
   48800    284.07488   -21851.296    108.38698   -21959.683    2192.3723 
   49000     464.5375   -21932.435    177.24135   -22109.676   -2868.5622 
   49200    301.98635   -22038.944    115.22099   -22154.165    8803.0917 
   49400    266.45564    -22072.64    101.66447   -22174.304   -9119.9522 
   49600    278.53212   -22052.073    106.27217   -22158.345    9423.9035 
   49800    328.11421   -22045.523    125.18991   -22170.713    24014.092 
   50000    273.21154   -22066.522    104.24214   -22170.764    -24673.75 
   50200    340.93128   -22048.008    130.08018   -22178.088   -3165.1769 
   50400    296.96698    -22066.68    113.30588   -22179.986    13090.557 
   50600     254.6491    -22074.45    97.159757    -22171.61   -30539.689 
   50800    341.28416   -22042.703    130.21482   -22172.918   -10756.144 
   51000    266.57349    -22068.91    101.70943    -22170.62    6078.1445 
   51200    293.75111   -22061.895    112.07888   -22173.974    -24404.88 
   51400    321.53809   -22050.958    122.68083   -22173.638   -11379.548 
   51600    284.90108   -22055.361    108.70221   -22164.063    -14517.93 
   51800    257.63224   -22062.243    98.297953   -22160.541   -15346.435 
   52000    330.95068   -22033.587    126.27214    -22159.86    32923.006 
   52200    298.40458   -22054.915    113.85438    -22168.77    8556.6902 
   52400    306.83838   -22052.729    117.07225   -22169.801   -19209.444 
   52600    312.13962   -22042.325     119.0949    -22161.42   -3756.5088 
   52800    291.21591    -22051.06    111.11159   -22162.172   -225.67999 
   53000    272.28628   -22065.577    103.88911   -22169.466    10497.543 
   53200    325.53951   -22030.096    124.20755   -22154.303    2960.1713 
   53400    275.54517   -22060.722    105.13252   -22165.854    7003.5142 
   53600    283.43725   -22059.036    108.14369    -22167.18     8600.638 
   53800    296.81153   -22054.929    113.24656   -22168.175   -3116.9787 
   54000     296.6378   -22068.673    113.18028   -22181.853    5453.7031 
   54200    282.48404   -22070.305       107.78   -22178.085   -939.80048 
   54400    339.66717   -22050.164    129.59787   -22179.762   -5705.1675 
   54600    283.08529   -22069.974    108.00941   -22177.984   -4642.1601 
   54800    336.03395   -22051.594    128.21163   -22179.806    2240.8281 
   55000    341.34259   -22055.384    130.23711   -22185.621    22382.415 
   55200    272.16003   -22070.944    103.84094   -22174.785   -1954.8246 
   55400    316.75606   -22055.497    120.85628   -22176.353    720.73936 
   55600    317.07386    -22049.24    120.97753   -22170.218   -22295.277 
   55800    286.16775   -22071.242     109.1855   -22180.427    5631.0075 
   56000    330.07173   -22051.202    125.93678   -22177.139   -11813.087 
   56200    300.25797   -22046.787    114.56153   -22161.348     -14504.2 
   56400    268.27784   -22060.726    102.35972   -22163.086     6918.752 
   56600    275.88623   -22071.024    105.26265   -22176.287    16524.356 
   56800    329.41771   -22046.499    125.68725   -22172.186    13791.584 
   57000    318.55257   -22051.592    121.54172   -22173.134   -6749.7309 
   57200    305.60326   -22073.401      116.601   -22190.002    10719.549 
   57400    335.56136   -22055.888    128.03132    -22183.92   -8380.7361 
   57600    301.54926   -22070.032    115.05422   -22185.087    12840.419 
   57800    310.74557   -22079.153    118.56301   -22197.716   -117.96059 
   58000    301.84676   -22052.948    115.16772   -22168.116    12300.246 
   58200    285.13056   -22063.696    108.78977   -22172.485    5040.3122 
   58400    284.24645   -22084.109    108.45244   -22192.561   -18002.997 
   58600    275.49175   -22102.026    105.11214   -22207.138   -4237.1757 
   58800    298.56175   -22065.903    113.91435   -22179.818     15657.68 
   59000    309.09281    -22064.04    117.93241   -22181.973   -26075.856 
   59200    269.44406    -22082.26    102.80468   -22185.065    4750.1553 
   59400    326.98093   -22052.401    124.75751   -22177.158   -1391.5462 
   59600    288.48104   -22067.385    110.06812   -22177.454   -40389.601 
   59800    305.82308   -22057.285    116.68486    -22173.97    5505.4552 
   60000    321.89554   -22048.714    122.81721   -22171.531   -14484.213 
   60200    286.47767   -22071.341    109.30375   -22180.645    -7513.929 
   60400    285.45528   -22067.735    108.91366   -22176.648     19947.52 
   60600    268.54433   -22054.255    102.46139   -22156.717    13019.032 
   60800    312.47579   -22068.515    119.22317   -22187.738    12383.508 
   61000    282.05355   -22070.187    107.61575   -22177.803    2719.1278 
   61200    309.60497   -22054.217    118.12782   -22172.345    -3385.776 
   61400    273.72256   -22071.174    104.43711   -22175.611   -3075.1023 
   61600    329.55867   -22062.272    125.74103   -22188.013    8920.1134 
   61800    295.03156   -22058.798    112.56743   -22171.365    6757.1223 
   62000    257.88563   -22077.506    98.394632     -22175.9    8394.5971 
   62200    291.19605   -22057.069    111.10401   -22168.173    31615.563 
   62400    295.67405   -22051.751    112.81257   -22164.564   -320.17781 
   62600    307.33752   -22059.648    117.26269   -22176.911    13776.074 
   62800    264.79277   -22070.901    101.03001   -22171.931    -16315.21 
   63000    321.41108   -22045.565    122.63237   -22168.198    1063.1806 
   63200    292.59952   -22060.321     111.6395    -22171.96     20028.79 
   63400    294.80019   -22067.869    112.47915   -22180.348   -3018.6883 
   63600    348.37292   -22079.423    132.91949   -22212.343   -23892.766 
   63800     346.8416   -22132.318    132.33522   -22264.653   -7734.7573 
   64000       255.45   -22164.617    97.465336   -22262.083   -18714.577 
   64200    320.24973   -22153.979    122.18926   -22276.168   -10770.827 
   64400    322.20304   -22140.499    122.93454   -22263.434   -16447.158 
   64600      281.717    -22171.31    107.48734   -22278.797    14548.881 
   64800    327.64802   -22149.769    125.01203   -22274.781   -1425.2961 
   65000     305.9634   -22147.144     116.7384   -22263.883   -28590.603 
   65200    317.99814   -22150.121    121.33018   -22271.451   -32154.338 
   65400    285.44641   -22157.979    108.91028   -22266.889    5735.1322 
   65600    297.09234   -22145.872    113.35371   -22259.225    3248.4299 
   65800    320.42442   -22141.725    122.25592   -22263.981    1189.6727 
   66000    263.19118    -22164.72    100.41893   -22265.139    978.11024 
   66200     312.1131   -22150.708    119.08478   -22269.793   -8871.6957 
   66400    307.46119   -22149.736    117.30988   -22267.046    371.45579 
   66600    268.74976   -22173.018    102.53977   -22275.558    -12845.66 
   66800     292.1342   -22150.368    111.46196    -22261.83   -5834.2187 
   67000    275.85945   -22149.548    105.25243     -22254.8   -6094.2208 
   67200    287.32783    -22169.75    109.62812   -22279.378    19489.169 
   67400    302.06291    -22171.51     115.2502    -22286.76    2140.0052 
   67600    303.10555   -22143.203    115.64801   -22258.851     3165.731 
   67800    279.19182   -22163.587    106.52388   -22270.111   -2321.3986 
   68000    272.56649   -22151.849    103.99602   -22255.845   -25623.358 
   68200    322.44971   -22141.449    123.02865   -22264.478    8601.6673 
   68400    293.37627   -22161.572    111.93587   -22273.508    3110.4767 
   68600    307.16419    -22133.45    117.19656   -22250.646    1688.7929 
   68800    342.07689   -22144.134    130.51728   -22274.651    6571.3789 
   69000    261.66199   -22156.808     99.83548   -22256.644   -14253.739 
   69200    315.53293   -22131.013     120.3896   -22251.402    37102.017 
   69400    290.41333   -22151.774    110.80537   -22262.579    350.05042 
   69600    278.19291    -22158.27    106.14275   -22264.413   -1785.5383 
   69800    308.41021   -22144.815    117.67197   -22262.487   -30451.599 
   70000    282.46094   -22156.175    107.77119   -22263.946   -650.17461 
   70200    277.67416   -22165.679    105.94482   -22271.624   -11530.749 
   70400    296.46805   -22140.337    113.11551   -22253.452   -2571.2842 
   70600     287.0098   -22160.325    109.50678   -22269.832    1541.6321 
   70800    304.59645   -22165.829    116.21685   -22282.046   -22434.622 
   71000    317.89573   -22146.309    121.29111     -22267.6   -16246.498 
   71200    276.30921   -22152.913    105.42403   -22258.337   -22273.844 
   71400    292.56059   -22164.473    111.62465   -22276.097    4593.2031 
   71600    273.59751     -22152.2     104.3894    -22256.59   -15338.548 
   71800    315.85525   -22136.855    120.51258   -22257.367   -4010.5624 
   72000     293.5587   -22165.219    112.00547   -22277.225    219.95475 
   72200    309.70461   -22158.722    118.16584   -22276.888    19261.177 
   72400    292.62846   -22148.746    111.65054   -22260.396    15495.441 
   72600    322.16098   -22139.368    122.91849   -22262.287   -19560.433 
   72800    274.47743   -22169.614    104.72513   -22274.339    3184.7032 
   73000    296.51793   -22146.647    113.13455   -22259.781   -5617.8995 
   73200    255.96081   -22173.479    97.660232    -22271.14   -7502.9347 
   73400    287.61951   -22165.957    109.73941   -22275.697   -16073.661 
   73600    285.93588   -22149.853    109.09703    -22258.95   -7744.3095 
   73800    320.48989   -22136.759     122.2809    -22259.04   -2056.6385 
   74000    292.24685   -22162.647    111.50494   -22274.152    15250.277 
   74200    279.02583   -22160.066    106.46054   -22266.527    3412.9696 
   74400    289.37615   -22141.718    110.40964   -22252.128   -13967.472 
   74600    296.42458    -22154.97    113.09893   -22268.069   -15082.705 
   74800    269.04616   -22165.161    102.65286   -22267.813    4261.2495 
   75000    300.75879   -22146.293    114.75262   -22261.045    4398.6774 
   75200    316.47223   -22144.821    120.74798   -22265.569    27271.742 
   75400    287.14021     -22169.2    109.55653   -22278.756    11266.704 
   75600    314.43334   -22150.959    119.97006   -22270.929    6389.1828 
   75800    305.43404   -22144.446    116.53643   -22260.982    32383.108 
   76000    270.24504   -22172.042    103.11029   -22275.152    12764.014 
   76200    300.33544    -22151.23    114.59109   -22265.821     13477.17 
   76400    304.66872   -22148.878    116.24443   -22265.122   -6000.3606 
   76600    315.81944   -22150.294    120.49891   -22270.793    16894.616 
   76800     296.6256    -22151.53    113.17562   -22264.705    14075.518 
   77000    325.38343   -22146.411    124.14799   -22270.559   -6124.9756 
   77200    293.90908   -22155.543    112.13915   -22267.682    9782.2856 
   77400    278.21827   -22168.464    106.15242   -22274.616   -2423.0124 
   77600    329.35439   -22139.768    125.66309   -22265.431    3037.0199 
   77800     279.8898   -22149.967    106.79019   -22256.757   -14025.476 
   78000    275.83329   -22161.013    105.24245   -22266.256    264.32903 
   78200    319.79967   -22143.097    122.01754   -22265.114   -28530.183 
   78400    283.55163   -22150.325    108.18733   -22258.513    -15645.99 
   78600    287.25511   -22164.348    109.60037   -22273.949   -7360.3634 
   78800    316.37266   -22133.283    120.70999   -22253.993    -17767.56 
   79000    340.18657   -22120.904    129.79604     -22250.7   -5192.7297 
   79200    296.07823   -22154.457    112.96678   -22267.424   -8551.2088 
   79400    270.39491   -22157.355    103.16747   -22260.522   -21437.775 
   79600    313.65886   -22140.913    119.67456   -22260.588   -11595.214 
   79800    291.46506   -22154.023    111.20665   -22265.229   -15002.829 
   80000    303.59695   -22154.545     115.8355   -22270.381   -10487.448 
   80200     318.7521   -22132.142    121.61785    -22253.76    4583.9732 
   80400    286.18145   -22159.914    109.19073   -22269.104    2451.9771 
   80600    317.85745   -22156.938     121.2765   -22278.215    26173.167 
   80800    365.21636   -22128.079    139.34599   -22267.425    1840.0812 
   81000    309.98182   -22151.067    118.27161   -22269.339    12520.691 
   81200    304.12499   -22162.082    116.03697   -22278.119    14547.984 
   81400    306.69105   -22135.821    117.01603   -22252.837    4893.7766 
   81600    314.79818   -22148.599    120.10926   -22268.709    2258.7788 
   81800    269.61136   -22159.361    102.86851   -22262.229    30495.978 
   82000    300.45588   -22153.886    114.63705   -22268.523     24081.17 
   82200    311.40045   -22131.931    118.81288   -22250.744    -2369.071 
   82400    312.13317     -22159.6    119.09244   -22278.693    -19191.95 
   82600    306.10653   -22151.318    116.79301   -22268.111     7983.612 
   82800    340.18263   -22130.097    129.79454   -22259.892    6781.4436 
   83000    301.75735   -22156.341    115.13361   -22271.475    8047.5122 
   83200    287.79076   -22145.139    109.80475   -22254.943    9959.7588 
   83400    316.14874   -22122.799    120.62455   -22243.424   -15669.889 
   83600    329.30352   -22131.798    125.64368   -22257.442    19142.838 
   83800    290.72157   -22153.972    110.92298   -22264.895    9481.8671 
   84000    297.93254   -22152.641    113.67428   -22266.315   -16231.852 
   84200    319.60963   -22129.277    121.94503   -22251.222    10160.917 
   84400    249.72579    -22161.85    95.281299   -22257.132    -11105.14 
   84600    301.76608   -22148.337    115.13694   -22263.474    27445.628 
   84800    302.97835   -22133.004    115.59948   -22248.604    22405.464 
   85000    272.21727   -22167.254    103.86278   -22271.117   -10316.637 
   85200    279.88228   -22143.729    106.78732   -22250.516   -7600.3208 
   85400     319.9369   -22143.856    122.06991   -22265.926    2386.7396 
   85600    279.14213   -22155.914    106.50492   -22262.419   -2432.1263 
   85800    292.10454   -22148.538    111.45064   -22259.988    20664.718 
   86000    329.95866   -22137.529    125.89364   -22263.423   -12109.617 
   86200    275.45972   -22149.075    105.09992   -22254.175    2956.3565 
   86400    279.74587   -22164.635    106.73527   -22271.371    11859.686 
   86600    319.21217   -22132.796    121.79339   -22254.589     21432.38 
   86800     305.9071   -22154.905    116.71692   -22271.622   -11241.512 
   87000     278.6329   -22158.204    106.31063   -22264.514    16910.292 
   87200    385.23088   -22124.234    146.98241   -22271.216   -1177.3293 
   87400     291.5822   -22142.019    111.25135    -22253.27   -2366.0378 
   87600    275.65327   -22162.396    105.17376   -22267.569    286.56477 
   87800    300.37303   -22151.029    114.60543   -22265.635   -5546.9605 
   88000    317.75825   -22140.132    121.23865   -22261.371   -8561.9997 
   88200    260.05301   -22168.452    99.221585   -22267.674    -4649.226 
   88400    278.68192   -22157.268    106.32933   -22263.597    20889.579 
   88600    292.17429   -22142.826    111.47726   -22254.303     4607.215 
   88800    283.45793   -22157.468    108.15159   -22265.619   -9814.1318 
   89000    272.56361   -22165.555    103.99492    -22269.55   -18776.912 
   89200    304.27218   -22140.053    116.09313   -22256.146    30884.272 
   89400    316.43597   -22155.807    120.73414   -22276.541   -5394.9963 
   89600     299.7848   -22156.909      114.381    -22271.29   -18280.907 
   89800    324.54097    -22141.18    123.82656   -22265.006   -17171.655 
   90000    305.80413   -22156.657    116.67763   -22273.334   -5113.7268 
   90200    283.92456   -22165.548    108.32962   -22273.878   -4169.8971 
   90400    299.72504   -22139.099     114.3582   -22253.457    24128.575 
   90600    297.24521   -22161.316    113.41203   -22274.728   -13730.624 
   90800    298.52273   -22166.784    113.89946   -22280.684   -4963.6541 
   91000    330.21015   -22136.657     125.9896   -22262.647   -5257.1829 
   91200    274.99003    -22159.31    104.92071    -22264.23    7985.7815 
   91400    294.80569   -22158.912    112.48125   -22271.393   -8678.9136 
   91600    343.29288   -22153.242    130.98123   -22284.223   -5546.2719 
   91800    289.01089   -22153.973    110.27028   -22264.244    10600.627 
   92000    315.02741   -22127.979    120.19672   -22248.176    2964.1961 
   92200    331.95541    -22151.19    126.65549   -22277.845   -8527.5852 
   92400    287.70249    -22150.43    109.77107   -22260.201     14413.64 
   92600    299.31714   -22147.133    114.20257   -22261.336     3693.778 
   92800    276.09179   -22157.063    105.34108   -22262.404    5516.7923 
   93000    314.26456   -22155.555    119.90566   -22275.461    17693.587 
   93200    290.37279   -22134.424    110.78991   -22245.214   -17532.795 
   93400    296.63126   -22156.281    113.17778   -22269.458   -3280.1761 
   93600    304.98134    -22157.57    116.36371   -22273.934    3891.7119 
   93800    280.50693   -22159.537    107.02565   -22266.563   -8807.4835 
   94000    333.84829   -22148.205    127.37771   -22275.582    6898.1465 
   94200    305.67024   -22156.643    116.62655    -22273.27    12609.555 
   94400    291.01332    -22172.44     111.0343   -22283.474     14588.33 
   94600    314.98899   -22144.651    120.18206   -22264.833    3638.5131 
   94800    273.63098   -22158.597    104.40217       -22263   -22855.054 
   95000    304.48515     -22154.6    116.17439   -22270.775    21422.803 
   95200    320.25976   -22137.987    122.19309    -22260.18    5435.2794 
   95400    305.96958   -22164.767    116.74076   -22281.507   -13941.135 
   95600    299.46091   -22150.684    114.25742   -22264.942   -2650.0528 
   95800    316.61004   -22144.379    120.80056   -22265.179   -4123.4811 
   96000    294.93021   -22153.824    112.52876   -22266.353    14655.906 
   96200    324.29982   -22151.378    123.73455   -22275.112    -361.2819 
   96400    317.09788     -22147.4    120.98669   -22268.386   -16002.053 
   96600    294.31669   -22168.149    112.29468   -22280.444   -6422.1268 
   96800    332.78123   -22149.162    126.97058   -22276.133   -12124.693 
   97000    292.23841   -22145.769    111.50172   -22257.271    13627.145 
   97200    291.96982     -22172.3    111.39924   -22283.699    26650.235 
   97400    320.32471   -22142.362    122.21787    -22264.58    3617.3345 
   97600    297.96483   -22147.985     113.6866   -22261.671   -7923.0765 
   97800    276.72052     -22164.2    105.58097   -22269.781   -9708.4217 
   98000    318.54999   -22133.094    121.54074   -22254.634    -11232.14 
   98200    307.71152   -22151.292    117.40539   -22268.697   -6624.5284 
   98400    284.11908   -22156.552    108.40384   -22264.956   -1299.6574 
   98600    356.90544   -22125.332    136.17502   -22261.507    4825.6833 
   98800    283.42544   -22151.038    108.13919   -22259.177   -23854.077 
   99000    298.87013   -22156.587    114.03201   -22270.619    7749.7841 
   99200    288.95624   -22155.187    110.24943   -22265.436    3412.8749 
   99400    262.85583   -22179.654    100.29098   -22279.945   -387.10115 
   99600    319.24001   -22151.941    121.80401   -22273.745    5337.2644 
   99800    312.30731    -22147.95    119.15888   -22267.109   -26899.731 
  100000    273.87251   -22168.594    104.49433   -22273.089   -4565.4683 
  100200    300.14454   -22157.631    114.51825   -22272.149    30464.463 
  100400    284.90788   -22145.867     108.7048   -22254.572     5331.335 
  100600    266.88709   -22178.748    101.82908   -22280.578    11741.658 
  100800    267.97731   -22168.357    102.24505   -22270.602    8243.2572 
  101000     310.2814   -22149.673    118.38591   -22268.059    13238.566 
  101200    331.10241   -22150.376    126.33003   -22276.706    13907.535 
  101400    284.31626   -22169.136    108.47908   -22277.615    5499.9652 
  101600    290.54662   -22145.011    110.85623   -22255.867    3805.0318 
  101800    284.01316   -22149.256    108.36343   -22257.619    2607.7256 
  102000    298.38671     -22162.2    113.84756   -22276.047    13558.996 
  102200    315.96132   -22144.139    120.55305   -22264.692   -7024.2937 
  102400    288.68327   -22154.944    110.14528   -22265.089    19879.945 
  102600    275.25193   -22167.081    105.02064   -22272.102    22024.371 
  102800    307.14825   -22141.314    117.19047   -22258.504   -13391.817 
  103000    305.96331    -22153.66    116.73837   -22270.399   -15265.818 
  103200    278.54195   -22166.504    106.27592    -22272.78   -12279.113 
  103400    275.73267     -22146.1    105.20406   -22251.304    11090.446 
  103600    287.37704   -22148.051     109.6469   -22257.698    30481.809 
  103800      276.546    -22170.21    105.51438   -22275.724   -33.387314 
  104000    316.75717   -22140.153     120.8567    -22261.01   -12035.822 
  104200    272.33584   -22158.144    103.90802   -22262.052   -8017.8643 
  104400    284.87632    -22156.64    108.69276   -22265.333   -2460.5084 
  104600    336.85141   -22131.134    128.52353   -22259.657   -44196.272 
  104800    292.11726   -22154.359     111.4555   -22265.814   -5581.1283 
  105000    287.99906    -22153.67    109.88422   -22263.555   -3354.5098 
  105200    344.87989   -22127.547    131.58674   -22259.134    3131.3984 
  105400    313.40206   -22154.662    119.57658   -22274.239    5397.4021 
  105600    283.46012   -22159.072    108.15242   -22267.224   -13727.826 
  105800     318.7084   -22139.683    121.60118   -22261.284    319.86519 
  106000    261.16864   -22166.818    99.647245   -22266.465    13371.176 
  106200    274.84441   -22158.837    104.86515   -22263.702   -2928.0101 
  106400    306.28529   -22145.209    116.86122    -22262.07   -9486.8458 
  106600    285.80788   -22156.589    109.04819   -22265.637   -8898.5458 
  106800    278.71316    -22179.57    106.34125   -22285.911     9248.953 
  107000    304.71459   -22152.628    116.26193    -22268.89    941.11391 
  107200    321.52341   -22147.428    122.67523   -22270.104    -5802.932 
  107400    306.24925   -22136.406    116.84747   -22253.254   -6253.4258 
  107600    287.93416   -22163.822    109.85946   -22273.681   -15725.403 
  107800    292.17755   -22156.079     111.4785   -22267.558    -14588.63 
  108000    297.44037   -22142.691     113.4865   -22256.177   -6027.3679 
  108200    291.39279   -22155.523    111.17908   -22266.702    5992.8887 
  108400    268.10804   -22167.697    102.29493   -22269.992    18032.219 
  108600    298.02197   -22157.005     113.7084   -22270.714   -10421.491 
  108800    308.23077   -22146.703     117.6035   -22264.306     -9116.27 
  109000    257.68454   -22176.018     98.31791   -22274.336     1302.774 
  109200     307.6679   -22156.901    117.38874    -22274.29   -12949.451 
  109400    301.04772    -22159.48    114.86286   -22274.343    5920.5797 
  109600    304.41068   -22137.947    116.14597   -22254.093    974.14507 
  109800    320.60421   -22146.885    122.32451   -22269.209     24139.08 
  110000    326.21476   -22158.692    124.46518   -22283.157    6425.0666 
  110200     315.8383    -22148.23    120.50611   -22268.736    -5504.909 
  110400    320.64925   -22131.382     122.3417   -22253.724   -13330.573 
  110600    302.68228   -22161.203    115.48651    -22276.69    10170.733 
  110800    286.60738   -22154.196    109.35323    -22263.55    829.45968 
  111000    350.13856   -22135.733    133.59316   -22269.327   -5901.6553 
  111200    322.64325   -22152.016     123.1025   -22275.118   -2115.9139 
  111400    271.28157   -22154.776    103.50577   -22258.282   -16912.367 
  111600    310.69878   -22137.462    118.54516   -22256.007   -17672.715 
  111800    297.27615   -22159.009    113.42384   -22272.433   -2185.1703 
  112000    318.44692    -22141.29    121.50141   -22262.791    3706.5188 
  112200    314.33291   -22142.243    119.93174   -22262.175     9804.349 
  112400    315.59318   -22154.524    120.41259   -22274.936   -11445.754 
  112600     282.8367   -22179.143    107.91456   -22287.058   -15237.022 
  112800    304.56925   -22164.221    116.20647   -22280.428    -3818.425 
  113000    317.56219    -22145.46    121.16385   -22266.624   -20793.164 
  113200    271.35466   -22162.451    103.53366   -22265.985     -1045.92 
  113400    267.53242   -22149.591    102.07531   -22251.666   -4874.4953 
  113600    292.91153   -22140.815    111.75855   -22252.573    7435.2521 
  113800    282.91884   -22159.298     107.9459   -22267.244   -26255.758 
  114000    310.26733    -22128.08    118.38054   -22246.461   -14865.719 
  114200    315.03452   -22152.336    120.19943   -22272.535   -2924.6274 
  114400    336.33101   -22152.509    128.32497   -22280.834    9474.3864 
  114600    301.59214   -22134.361    115.07058   -22249.432   -23123.992 
  114800    288.73504     -22147.4    110.16503   -22257.565     4299.388 
  115000    311.33946   -22158.512     118.7896   -22277.302   -3671.5112 
  115200    279.30647     -22150.8    106.56762   -22257.368    -10239.32 
  115400    328.46842   -22140.468    125.32505   -22265.793   -18386.526 
  115600    277.95481   -22165.758     106.0519    -22271.81   -23346.281 
  115800    293.07547   -22150.422     111.8211   -22262.243    2083.7219 
  116000    288.74439   -22149.149     110.1686   -22259.318    23107.682 
  116200    285.80175   -22157.957    109.04585   -22267.003   -28381.091 
  116400    251.40538   -22184.718    95.922135    -22280.64   -13020.195 
  116600    321.77819   -22160.066    122.77244   -22282.838    10147.739 
  116800    301.86203   -22151.484    115.17355   -22266.657    -12398.64 
  117000    284.83584    -22168.41    108.67732   -22277.087    6998.3234 
  117200    335.45779   -22160.666     127.9918   -22288.658    12905.155 
  117400    324.23495   -22147.533     123.7098   -22271.242   -18802.942 
  117600    304.60525   -22163.962    116.22021   -22280.182   -23509.884 
  117800    276.43078   -22174.309    105.47042    -22279.78    1427.8203 
  118000      297.724    -22143.39    113.59471   -22256.985   -1424.2885 
  118200    292.60898   -22154.117    111.64311    -22265.76    8938.9462 
  118400    266.88564   -22167.972    101.82853   -22269.801   -3421.3146 
  118600    282.99115   -22152.171    107.97349   -22260.145    12134.803 
  118800     289.5553   -22151.429      110.478   -22261.907    13175.365 
  119000    294.90171   -22169.228    112.51789   -22281.746    4066.0003 
  119200    291.18972   -22150.627     111.1016   -22261.728   -13698.654 
  119400    295.63721    -22159.53    112.79851   -22272.328   -10071.012 
  119600    300.11256   -22155.993    114.50605   -22270.499   -6980.4338 
  119800    309.93202   -22138.652     118.2526   -22256.904   -13959.676 
  120000    265.11274    -22164.84    101.15209   -22265.992    1735.4132 
  120200    300.33309   -22154.036    114.59019   -22268.626    -14560.84 
  120400    318.07456   -22125.407    121.35934   -22246.766    1084.6954 
  120600    317.14495   -22136.427    121.00465   -22257.431   -6164.6016 
  120800    298.50461   -22155.452    113.89255   -22269.345   -8308.4566 
  121000     284.4302    -22150.51    108.52255   -22259.032   -16466.883 
  121200    346.61796   -22134.626     132.2499   -22266.876    2858.3468 
  121400    283.44286   -22156.663    108.14583   -22264.809   -1374.0246 
  121600    313.65137    -22149.56     119.6717   -22269.232   -2541.2593 
  121800    296.35744   -22135.393    113.07331   -22248.466   -2769.8405 
  122000    287.09169   -22163.642    109.53802    -22273.18    14764.353 
  122200    309.84738   -22143.867    118.22031   -22262.088    10418.648 
  122400    286.86493   -22147.694     109.4515   -22257.146    10321.313 
  122600    294.21107    -22166.55    112.25438   -22278.805   -19363.775 
  122800    310.90748    -22140.05    118.62479   -22258.675   -6783.8891 
  123000    299.16973   -22146.545    114.14632   -22260.691    15159.506 
  123200    311.36758   -22161.906    118.80033   -22280.706    18025.702 
  123400    301.92344   -22161.467    115.19698   -22276.664    20340.012 
  123600    320.10878   -22135.168    122.13548   -22257.303   -6556.5409 
  123800    304.40548   -22160.678    116.14399   -22276.822   -3643.4982 
  124000    300.60769   -22157.299    114.69497   -22271.994     1646.458 
  124200    351.09772   -22125.101    133.95912    -22259.06   -2433.1707 
  124400    273.48889   -22156.725    104.34796   -22261.072   -19657.867 
  124600    289.62859   -22146.741    110.50596   -22257.247   -1270.0245 
  124800    322.25449   -22141.391    122.95417   -22264.345    7707.8308 
  125000    296.05277   -22167.076    112.95707   -22280.033    14415.879 
  125200    308.96854   -22145.139      117.885   -22263.024   -1108.0543 
  125400     337.6515   -22133.204     128.8288   -22262.033    7465.5622 
  125600    308.08256   -22165.862    117.54696   -22283.409   -17219.193 
  125800    291.53741   -22149.923    111.23426   -22261.157      263.129 
  126000    328.25675   -22143.674    125.24429   -22268.919   -4732.8526 
  126200    296.53975   -22157.701    113.14287   -22270.843   -7745.0756 
  126400    301.06977   -22151.702    114.87127   -22266.573   -21783.528 
  126600    339.67196   -22120.892    129.59969   -22250.491    25325.502 
  126800    321.49143     -22149.3    122.66302   -22271.963   -29593.666 
  127000    279.73214   -22155.821    106.73003   -22262.551    9194.6159 
  127200    262.40322   -22168.957    100.11829   -22269.075   -2679.3676 
  127400    308.64046   -22149.811    117.75982   -22267.571    13704.944 
  127600    309.25403   -22135.661    117.99392   -22253.655   -4737.4126 
  127800    263.04223   -22170.692     100.3621   -22271.054    2005.7516 
  128000    292.85737   -22161.812    111.73788    -22273.55    5281.2614 
  128200    308.27229     -22142.3    117.61934   -22259.919   -22267.033 
  128400    333.71173   -22130.524     127.3256   -22257.849    642.97207 
  128600    276.08518    -22158.73    105.33856   -22264.069    4524.9684 
  128800    299.57092   -22143.379    114.29939   -22257.678   -9182.8553 
  129000    295.95438   -22146.848    112.91952   -22259.768   -17063.385 
  129200    291.37285   -22160.664    111.17147   -22271.836   -8719.5899 
  129400    295.56524   -22138.666    112.77105   -22251.437   -14220.182 
  129600    283.34509    -22159.26    108.10853   -22267.369   -5452.8026 
  129800    305.31909   -22159.954    116.49257   -22276.447    9578.4311 
  130000    301.07545   -22142.409    114.87344   -22257.282   -272.91936 
  130200    271.53402   -22174.515    103.60209   -22278.117    15595.076 
  130400    345.31855   -22152.221    131.75411   -22283.975   -16624.983 
  130600    305.66106   -22143.784    116.62305   -22260.407   -1201.9586 
  130800    285.04006   -22146.999    108.75524   -22255.754   -8903.0193 
  131000    284.49894   -22171.799    108.54877   -22280.348    4877.2712 
  131200    295.21967   -22145.283     112.6392   -22257.922    16558.963 
  131400    306.44094   -22147.397     116.9206   -22264.318    14819.153 
  131600    292.17066   -22169.025    111.47587     -22280.5   -7358.6119 
  131800    295.74549    -22141.45    112.83983    -22254.29   -11469.664 
  132000    319.53367   -22153.127    121.91605   -22275.043   -9018.8547 
  132200    270.24588   -22161.207    103.11061   -22264.318   -1575.9723 
  132400    289.15151   -22145.999    110.32393   -22256.323    1916.4622 
  132600    337.33366   -22149.921    128.70753   -22278.628   -22746.205 
  132800    315.89966   -22162.675    120.52952   -22283.205    -1378.828 
  133000    324.77265   -22143.493    123.91496   -22267.408   -606.37494 
  133200    317.76166   -22147.248    121.23996   -22268.488     14714.98 
  133400    297.18293   -22159.547    113.38827   -22272.935    4953.2098 
  133600    312.18994   -22149.551     119.1141   -22268.665   -15799.844 
  133800    304.03302   -22147.184    116.00188   -22263.185     33106.09 
  134000    330.54354   -22134.918     126.1168   -22261.034    11509.293 
  134200    292.96747   -22162.308    111.77989   -22274.088   -15989.015 
  134400    324.84907   -22142.592    123.94411   -22266.536    6728.0588 
  134600    317.79701   -22135.509    121.25344   -22256.763   -3851.8857 
  134800    304.26516   -22157.663    116.09045   -22273.753    20366.334 
  135000    280.50363   -22160.261    107.02439   -22267.285    2123.2926 
  135200    306.69765   -22130.679    117.01855   -22247.698    2814.5249 
  135400    291.55887   -22157.083    111.24245   -22268.325    27773.041 
  135600    265.18395   -22152.554    101.17926   -22253.734   -4568.6193 
  135800    343.08101   -22115.976    130.90039   -22246.876   -17514.742 
  136000    293.56664   -22143.497     112.0085   -22255.505    6236.6545 
  136200    304.80445   -22156.519    116.29621   -22272.815   -2782.3686 
  136400    309.76127   -22137.112    118.18746   -22255.299    -2973.629 
  136600    306.69694   -22147.306    117.01828   -22264.324    19570.926 
  136800    291.83848    -22161.15    111.34913     -22272.5    7900.4344 
  137000    306.71086   -22143.695    117.02359   -22260.718    600.26059 
  137200    318.02022   -22131.801    121.33861    -22253.14    4895.8431 
  137400    281.28323   -22160.738    107.32184    -22268.06    17856.995 
  137600    333.27105   -22145.522    127.15746   -22272.679    2520.7731 
  137800    323.79117   -22150.483    123.54048   -22274.023    4983.4535 
  138000    276.65333   -22164.259    105.55533   -22269.814   -7037.3765 
  138200    306.96516   -22144.157    117.12062   -22261.278    5033.6549 
  138400    268.17447   -22168.826    102.32027   -22271.147   -4609.5051 
  138600    284.47302   -22170.438    108.53888   -22278.977   -15353.239 
  138800    297.28827   -22152.971    113.42846   -22266.399   -16690.361 
  139000    305.07198    -22149.79    116.39829   -22266.188    3230.7125 
  139200    270.02595   -22173.011     103.0267   -22276.038    22119.645 
  139400    308.63403   -22145.471    117.75737   -22263.228   -10023.535 
  139600    288.81732   -22152.629    110.19642   -22262.826   -19787.831 
  139800    283.01655   -22165.937    107.98318    -22273.92    44558.205 
  140000    274.50528   -22169.515    104.73576   -22274.251   -14923.211 
  140200    305.80755   -22142.577    116.67894   -22259.256   -13551.201 
  140400    328.66944    -22150.55    125.40175   -22275.952   -5211.5165 
  140600    273.35428   -22168.264     104.2966    -22272.56   -7133.3158 
  140800    314.32659    -22143.44    119.92933    -22263.37    6319.3081 
  141000    297.83458   -22152.668     113.6369   -22266.305   -6422.6264 
  141200    295.06447   -22165.826    112.57999   -22278.406   -12324.751 
  141400    316.20118   -22133.251    120.64457   -22253.896   -9960.9083 
  141600     291.2209   -22162.703     111.1135   -22273.816   -7282.2434 
  141800    295.31124   -22152.376    112.67414    -22265.05    14538.883 
  142000    312.37653   -22142.597    119.18529   -22261.782   -8731.6594 
  142200    274.64276   -22157.227    104.78821   -22262.015   -15440.842 
  142400    335.21795   -22136.736    127.90029   -22264.637   -2472.8202 
  142600    327.75047   -22145.201    125.05112   -22270.253    8260.6255 
  142800    310.62123   -22160.424    118.51557    -22278.94    17076.798 
  143000    296.42597   -22171.995    113.09946   -22285.095   -10692.693 
  143200    295.34713   -22168.561    112.68783   -22281.249    20142.399 
  143400     320.6317   -22148.728      122.335   -22271.063    33708.499 
  143600    263.71077   -22176.875    100.61718   -22277.493   -9170.0715 
  143800    294.44231   -22163.971    112.34261   -22276.313    5660.4134 
  144000    299.07728    -22152.75    114.11105   -22266.862   -432.43981 
  144200    264.65673   -22174.639     100.9781   -22275.617    16380.764 
  144400    269.78346   -22167.299    102.93418   -22270.233    12658.495 
  144600    274.42857   -22150.888    104.70649   -22255.595    20583.513 
  144800     284.8891   -22173.818    108.69764   -22282.516   -936.73879 
  145000    286.95135   -22175.458    109.48448   -22284.942   -13076.404 
  145200     310.8987   -22155.482    118.62144   -22274.103   -3772.2802 
  145400    281.13958   -22173.124    107.26703   -22280.391    10277.356 
  145600    307.59585    -22168.42    117.36126   -22285.781   -34204.786 
  145800    344.09618   -22148.475    131.28773   -22279.762     7224.679 
  146000    274.78687   -22170.309     104.8432   -22275.152   -8419.5223 
  146200    305.12416   -22163.055     116.4182   -22279.473    2917.5158 
  146400    301.10498   -22153.708     114.8847   -22268.592   -21283.565 
  146600    344.13904   -22148.488    131.30408   -22279.792    23963.792 
  146800    285.72665   -22171.788     109.0172   -22280.805   -6275.0866 
  147000    324.48106   -22152.305     123.8037   -22276.109    6740.1472 
  147200    296.74401   -22142.843     113.2208   -22256.063    11299.568 
  147400     316.4956    -22159.08     120.7569   -22279.837   -568.66648 
  147600    288.15455   -22172.637    109.94355   -22282.581   -15438.224 
  147800    259.87216   -22169.864    99.152583   -22269.017     5958.809 
  148000    319.58262   -22151.292    121.93473   -22273.227    13967.142 
  148200     307.1994   -22177.986    117.20999   -22295.196   -1931.8715 
  148400     289.0378   -22167.406    110.28055   -22277.686   -7294.7909 
  148600    299.00776   -22159.465    114.08452    -22273.55   -20873.124 
  148800    275.03052    -22167.81    104.93616   -22272.746    23737.227 
  149000    274.04473   -22179.088    104.56004   -22283.648   -7393.0234 
  149200    314.88987   -22157.961    120.14424   -22278.105    -11017.09 
  149400    303.89783   -22164.501     115.9503   -22280.451   -12224.508 
  149600    293.43006   -22184.631    111.95639   -22296.587    1464.1091 
  149800    301.64492   -22166.546    115.09071   -22281.636   -14496.071 
  150000    306.97566   -22157.304    117.12463   -22274.429   -25662.558 
  150200    324.69839   -22149.135    123.88662   -22273.022    9456.6251 
  150400    284.76631   -22171.292    108.65079   -22279.943   -4905.9378 
  150600    274.30393   -22165.794    104.65893   -22270.453    8251.2276 
  150800     321.1185    -22147.87    122.52074   -22270.391   -16763.509 
  151000    278.89751   -22166.128    106.41158    -22272.54    22452.948 
  151200    252.45432   -22195.786    96.322352   -22292.108    -4888.528 
  151400    271.48902   -22170.693    103.58492   -22274.278   -5220.7731 
  151600    319.94912   -22160.191    122.07457   -22282.266    9244.2264 
  151800    288.16204   -22177.342    109.94641   -22287.289    18536.519 
  152000    282.43668   -22170.971    107.76193   -22278.733   -164.15536 
  152200    322.79932   -22157.846    123.16204   -22281.008     15314.24 
  152400    305.65172   -22165.565    116.61948   -22282.185   -13140.612 
  152600    270.47839   -22183.575    103.19932   -22286.774   -3353.5889 
  152800    345.53531    -22151.73    131.83682   -22283.567     16890.75 
  153000    302.93114   -22167.677    115.58147   -22283.259    13920.836 
  153200    277.72884    -22168.28    105.96569   -22274.246    20228.101 
  153400    342.15023   -22144.678    130.54526   -22275.223   -253.47424 
  153600    284.29672    -22171.22    108.47162   -22279.691    4196.7097 
  153800    292.24777   -22158.892    111.50529   -22270.397    2490.3641 
  154000    304.17726   -22141.725    116.05691   -22257.782    4531.7835 
  154200    279.24986   -22165.064    106.54602    -22271.61    11440.726 
  154400     295.9972   -22169.423    112.93586   -22282.359   -2028.8363 
  154600    311.92611   -22139.698    119.01344   -22258.711    17485.448 
  154800    280.08968    -22165.22    106.86645   -22272.087   -16409.704 
  155000    282.95888   -22158.765    107.96117   -22266.726   -11271.342 
  155200    342.69921   -22133.658    130.75472   -22264.413   -16.328289 
  155400    294.19586   -22158.053    112.24857   -22270.302   -7233.4665 
  155600    265.62739   -22169.658    101.34846   -22271.007    7614.2796 
  155800    320.66358   -22145.199    122.34716   -22267.546    19852.012 
  156000    314.42747   -22151.419    119.96782   -22271.387   -9394.9068 
  156200    281.70314   -22164.073    107.48205   -22271.555   -126.14992 
  156400     345.9192   -22158.103    131.98329   -22290.086    10374.043 
  156600    249.85346   -22178.017    95.330011   -22273.347    3613.8527 
  156800    304.44085   -22151.467    116.15748   -22267.625    3196.6125 
  157000    288.92098   -22153.695    110.23598   -22263.931    20738.035 
  157200    275.88141   -22183.951    105.26081   -22289.211    8413.5855 
  157400    279.27672   -22174.234    106.55627    -22280.79    29363.504 
  157600    267.34759   -22160.865    102.00478    -22262.87    9170.3629 
  157800    291.34472   -22171.483    111.16074   -22282.644    16788.681 
  158000    312.72752   -22170.389    119.31921   -22289.709   -1781.7896 
  158200    304.35341   -22150.675    116.12412   -22266.799    3115.1604 
  158400    281.08797   -22173.295    107.24734   -22280.543   -10848.328 
  158600    265.30876   -22192.885    101.22688   -22294.112    2522.0186 
  158800    330.01662   -22162.214    125.91576    -22288.13   -10538.111 
  159000    302.48824    -22151.98    115.41248   -22267.392    2305.2544 
  159200     285.2575   -22172.013     108.8382   -22280.851    -6967.209 
  159400    306.15211   -22163.681     116.8104   -22280.491    8282.4754 
  159600    302.07047   -22151.313    115.25308   -22266.566   -25819.353 
  159800    284.74185   -22168.462    108.64146   -22277.104    4350.9734 
  160000    266.79823   -22195.556    101.79518   -22297.351     14946.05 
  160200    301.03673   -22161.638    114.85867   -22276.497     20655.13 
  160400    339.39841   -22153.116    129.49532   -22282.612    7423.2346 
  160600    292.57876   -22179.389    111.63158   -22291.021    1447.0104 
  160800    312.85189   -22164.273    119.36666   -22283.639   -5215.0605 
  161000    325.44463   -22152.756    124.17134   -22276.927   -8560.9151 
  161200    300.05882   -22172.232    114.48555   -22286.718     1814.629 
  161400    338.34739   -22151.883    129.09431   -22280.977   -4334.3749 
  161600    312.00103   -22158.536    119.04202   -22277.578    7848.7473 
  161800    295.33566   -22171.597    112.68346   -22284.281     9713.438 
  162000    277.54331   -22167.961     105.8949   -22273.856   -2540.2014 
  162200    328.97144   -22157.085    125.51698   -22282.602   -13590.806 
  162400    325.23823   -22158.855    124.09259   -22282.947   -24870.586 
  162600    294.96332   -22178.891    112.54139   -22291.432   -12538.001 
  162800    329.41011   -22154.266    125.68435    -22279.95    11365.983 
  163000    302.45217   -22152.923    115.39871   -22268.322    8007.0827 
  163200    286.55568    -22169.84    109.33351   -22279.174    2972.1451 
  163400     300.9184   -22161.603    114.81351   -22276.416   -1746.2157 
  163600    300.71739   -22154.434    114.73682   -22269.171    16377.614 
  163800    271.00366   -22183.354    103.39974   -22286.754   -16398.061 
  164000    306.18958   -22163.349     116.8247   -22280.174   -5690.1755 
  164200    319.01671   -22153.469    121.71881   -22275.188    15268.813 
  164400     290.3928   -22187.392    110.79754   -22298.189    14852.468 
  164600    308.95638   -22172.681    117.88036   -22290.561   -682.41491 
  164800     310.9212   -22156.895    118.63002   -22275.525    6258.2267 
  165000    251.05629   -22184.198    95.788944   -22279.987    146.37372 
  165200    297.76108   -22170.987    113.60886   -22284.596   -4768.5118 
  165400     288.1151   -22160.414     109.9285   -22270.343   -17225.213 
  165600    307.28207   -22156.535    117.24153   -22273.777   -4392.3117 
  165800    289.64125   -22161.072    110.51079   -22271.583   -14614.998 
  166000    277.42555   -22176.429    105.84997   -22282.279   -6534.4649 
  166200    346.15062    -22144.26    132.07158   -22276.331   -2712.9276 
  166400    297.00605   -22166.176    113.32078   -22279.496   -10611.467 
  166600     306.0679   -22166.443    116.77828   -22283.221    11347.625 
  166800    317.03903   -22148.028    120.96424   -22268.992    1202.8777 
  167000    302.01254   -22157.617    115.23098   -22272.848    -19492.97 
  167200    292.00248   -22164.813     111.4117   -22276.225   -10709.673 
  167400     340.6488   -22136.809     129.9724   -22266.781    8149.2151 
  167600    309.01048    -22163.36      117.901   -22281.261   -1247.6893 
  167800    296.77536   -22163.661    113.23277   -22276.893    169.31708 
  168000    336.06815    -22148.73    128.22468   -22276.954   -14235.672 
  168200    317.55732   -22148.463    121.16199   -22269.625   -11665.039 
  168400    294.60345   -22171.001    112.40409   -22283.405   -11589.676 
  168600     301.1463     -22147.9    114.90047     -22262.8    18309.522 
  168800    311.62473    -22146.63    118.89845   -22265.528   -5581.1829 
  169000    315.39465   -22160.987    120.33684   -22281.324    20981.331 
  169200    307.99365   -22166.535    117.51303   -22284.048    32359.292 
  169400      330.255   -22141.216    126.00671   -22267.223    521.24486 
  169600    290.55979   -22169.486    110.86125   -22280.348    4586.9156 
  169800    304.06847   -22158.547    116.01541   -22274.562    12410.258 
  170000    301.89212   -22150.722    115.18503   -22265.907   -3072.1622 
  170200    294.82427   -22164.721    112.48834    -22277.21   -8435.0714 
  170400     285.1509   -22163.349    108.79753   -22272.147    -25011.54 
  170600     311.6087   -22158.347    118.89233    -22277.24    2377.0827 
  170800    278.12096   -22169.946     106.1153   -22276.061    17456.377 
  171000     305.3511    -22168.14    116.50479   -22284.644    50.822428 
  171200    340.48226   -22150.352    129.90886   -22280.261    17805.624 
  171400    257.34346    -22181.71    98.187773   -22279.898   -9623.1344 
  171600    258.04115   -22162.511    98.453973   -22260.965    1266.2607 
  171800    308.21713   -22153.177     117.5983   -22270.775   -27759.377 
  172000    273.16245    -22176.55    104.22341   -22280.774   -12146.598 
  172200    294.67926   -22172.767    112.43301     -22285.2   -9123.1176 
  172400    316.07963   -22155.104    120.59819   -22275.702   -3871.4737 
  172600    261.94041   -22165.657    99.941708   -22265.599   -3575.8452 
  172800    329.86259    -22146.95    125.85699   -22272.807   -944.22797 
  173000    298.68747   -22151.055    113.96232   -22265.017   -1456.2077 
  173200    279.42491   -22169.895    106.61281   -22276.508    9710.7065 
  173400    306.07717    -22160.71    116.78181   -22277.492    9793.1169 
  173600    287.97394   -22143.476    109.87464    -22253.35    23640.279 
  173800     299.3954   -22158.738    114.23242    -22272.97     714.3762 
  174000     298.4888   -22158.733    113.88652    -22272.62    21555.642 
  174200    320.76802   -22155.084    122.38701   -22277.471   -4585.1694 
  174400    293.86134   -22176.606    112.12094   -22288.726    1113.0185 
  174600    301.12965     -22153.2    114.89412   -22268.094    44.377552 
  174800     304.7045   -22152.834    116.25808   -22269.092   -585.58192 
  175000    279.39015   -22172.096    106.59955   -22278.695   -4043.7655 
  175200    302.18959   -22169.293    115.29853   -22284.591     12563.79 
  175400    298.01067    -22162.85    113.70409   -22276.554    7948.7453 
  175600      309.923   -22144.882    118.24917   -22263.131    -21921.11 
  175800    279.63214   -22170.074    106.69188   -22276.765   -7104.1859 
  176000    289.11025   -22167.908    110.30819   -22278.216    14008.155 
  176200    271.41835   -22145.203    103.55796   -22248.761   -1309.2601 
  176400    309.70543   -22157.576    118.16615   -22275.742   -4316.0063 
  176600     278.2181   -22170.428    106.15236   -22276.581    7685.3575 
  176800    323.19144   -22138.899    123.31165   -22262.211   -1320.2378 
  177000    271.80256   -22162.525    103.70455   -22266.229    7611.4521 
  177200    315.18056    -22159.89    120.25515   -22280.145    1843.0349 
  177400    333.25153   -22129.711    127.15002   -22256.861   -6431.6256 
  177600    279.22718   -22155.389    106.53737   -22261.927    20864.905 
  177800    280.17275   -22172.518    106.89815   -22279.417    12112.836 
[...]
  950000    309.90146   -22225.671    118.24094   -22343.912    8157.1578 
  950200    300.02895    -22244.44    114.47415   -22358.914   -17256.599 
  950400    302.20932   -22238.679    115.30606   -22353.985   -6719.5126 
  950600     308.5795   -22228.365    117.73656   -22346.102   -34436.465 
  950800    288.55097   -22237.298     110.0948   -22347.393    -296.5366 
  951000    269.73947   -22252.577    102.91739   -22355.495   -22006.118 
  951200    315.18431   -22226.815    120.25658   -22347.072    22062.532 
  951400    279.13745   -22239.751    106.50313   -22346.254   -26568.876 
  951600    279.66985    -22245.47    106.70626   -22352.176     19336.49 
  951800    282.13643   -22227.573    107.64737   -22335.221    11221.528 
  952000    281.97631   -22228.137    107.58628   -22335.723   -22207.493 
  952200    315.26662   -22212.923    120.28799   -22333.211   -4613.2523 
  952400    274.06055   -22233.068    104.56607   -22337.634   -10769.641 
  952600    283.10725   -22230.483    108.01778   -22338.501     2835.733 
  952800    355.49824   -22210.776    135.63811   -22346.414   -22869.264 
  953000     276.5408   -22242.252     105.5124   -22347.765   -17308.587 
  953200    319.55415   -22229.465    121.92387   -22351.389   -12825.956 
  953400    356.99891   -22219.564    136.21068   -22355.775   -2688.6703 
  953600    250.04795   -22250.591    95.404216   -22345.995   -14442.901 
  953800    311.95658   -22224.554    119.02506   -22343.579   -11644.371 
  954000    312.46865   -22230.247    119.22044   -22349.467   -7091.4763 
  954200    284.25245   -22254.442    108.45473   -22362.896     12653.68 
  954400    273.13256   -22234.163      104.212   -22338.375   -9386.7418 
  954600    277.42399   -22232.406    105.84937   -22338.255   -13180.215 
  954800    324.80189   -22212.534    123.92611    -22336.46   -15768.569 
  955000    269.21845   -22235.461     102.7186    -22338.18    7404.1878 
  955200    292.14334   -22232.308    111.46545   -22343.773    4916.9869 
  955400    304.83396   -22216.092    116.30747     -22332.4   -21210.064 
  955600    278.51081   -22248.671    106.26404   -22354.935   -1139.5296 
  955800    289.07747   -22232.688    110.29568   -22342.984   -11406.895 
  956000     323.8065   -22214.043    123.54633   -22337.589   -29810.132 
  956200    335.89745   -22234.407    128.15955   -22362.566   -6595.0751 
  956400    266.27631   -22237.469    101.59604   -22339.065    7992.3707 
  956600    309.40744   -22214.244    118.05245   -22332.297   -8420.2638 
  956800    292.41848   -22234.285    111.57043   -22345.856   -22068.418 
  957000    297.02551   -22240.461    113.32821   -22353.789    4173.2395 
  957200    293.73474   -22231.358    112.07264   -22343.431   -20343.259 
  957400    309.58215   -22230.141    118.11912    -22348.26   -14321.931 
  957600    239.35844   -22256.556    91.325701   -22347.881   -16536.745 
  957800    299.22562   -22230.382    114.16765   -22344.549   -21046.912 
  958000    322.32028   -22230.026    122.97927   -22353.005   -5538.6112 
  958200    284.63346   -22249.709     108.6001   -22358.309    3410.8799 
  958400     315.7683   -22226.987     120.4794   -22347.467   -22614.623 
  958600    290.64473   -22227.073    110.89366   -22337.967   -14178.119 
  958800    272.99282   -22246.936    104.15869   -22351.095   -7867.0854 
  959000    289.98873   -22233.826    110.64337   -22344.469   -4979.1569 
  959200    320.98114       -22222    122.46833   -22344.468    11451.807 
  959400    269.66654   -22242.759    102.88957   -22345.648    8695.4752 
  959600    291.97348   -22221.318    111.40064   -22332.718    2848.3341 
  959800    294.00712   -22222.435    112.17656   -22334.612    -25958.11 
  960000    317.76548   -22227.609    121.24141    -22348.85    12258.389 
  960200    301.52026   -22225.108    115.04315   -22340.151   -17890.009 
  960400    328.81132    -22208.71    125.45588   -22334.166    41143.831 
  960600    286.25338   -22235.366    109.21817   -22344.584   -12304.753 
  960800    293.44037   -22234.694    111.96032   -22346.654   -1245.9279 
  961000    325.98284   -22197.292    124.37669   -22321.669   -3335.2552 
  961200    299.69192   -22227.096    114.34556   -22341.441    20667.388 
  961400     282.6837   -22243.124    107.85618    -22350.98   -19228.852 
  961600    329.25905   -22222.528    125.62671   -22348.155    12126.196 
  961800    278.20601   -22219.488    106.14775   -22325.636   -12273.987 
  962000    299.24917   -22235.604    114.17663   -22349.781   -11190.872 
  962200    288.43798   -22225.171    110.05169   -22335.223   -6231.8366 
  962400     316.5496   -22222.455     120.7775   -22343.233    25005.297 
  962600    259.48364   -22244.725    99.004343   -22343.729   -4358.3588 
  962800    319.88483   -22219.674    122.05004   -22341.724     8217.903 
  963000    290.27896   -22233.332    110.75411   -22344.086    959.82052 
  963200    304.09948   -22242.212    116.02724   -22358.239   -15406.371 
  963400    306.86639   -22223.973    117.08293   -22341.056   -11342.493 
  963600    271.65866   -22236.193    103.64965   -22339.843    3443.4199 
  963800    285.60896   -22246.586    108.97229   -22355.558    1822.6817 
  964000     321.8625   -22227.489    122.80461   -22350.294    -7016.803 
  964200    287.25632   -22239.371    109.60084   -22348.972    11751.253 
  964400    298.44018   -22259.248    113.86797   -22373.116    2407.5177 
  964600    287.53071   -22234.578    109.70553   -22344.283   -19974.763 
  964800    302.75182   -22227.999    115.51304   -22343.512   -10175.921 
  965000     246.1216   -22253.888    93.906143   -22347.794   -24240.729 
  965200    308.55578   -22233.311    117.72751   -22351.039   -3337.3506 
  965400    297.02731   -22228.739    113.32889   -22342.068    23868.715 
  965600     278.6367   -22245.704    106.31207   -22352.016    8560.2193 
  965800    256.51913    -22247.11    97.873256   -22344.983   -10955.759 
  966000    317.85218   -22226.672    121.27449   -22347.946   -1374.4279 
  966200    297.12719   -22228.356      113.367   -22341.723     323.4498 
  966400    298.90793   -22246.058    114.04643   -22360.105   -9996.2927 
  966600    310.51727   -22229.575    118.47591    -22348.05    12040.583 
  966800    300.40953   -22217.979    114.61936   -22332.598   -14383.512 
  967000    282.03583   -22239.985    107.60899   -22347.594    8640.1244 
  967200    296.67518   -22238.281    113.19454   -22351.476    3012.3528 
  967400    338.24114   -22222.952    129.05377   -22352.006   -17001.255 
  967600    288.99615   -22221.689    110.26466   -22331.954     10646.75 
  967800    278.32108   -22240.674    106.19165   -22346.865   -13007.943 
  968000    326.11026   -22213.019    124.42531   -22337.445   -12260.809 
  968200    309.52552   -22222.837    118.09751   -22340.934   -7961.5349 
  968400    291.24433   -22238.148    111.12244   -22349.271   -4332.1655 
  968600    293.43081   -22210.576    111.95667   -22322.533   -917.31247 
  968800    327.75389   -22215.551    125.05243   -22340.603   -24880.144 
  969000    317.28082   -22228.314    121.05649    -22349.37   -1936.7277 
  969200    313.72354   -22231.021    119.69924   -22350.721   -8369.1678 
  969400    245.20299   -22255.821    93.555653   -22349.377    4439.0594 
  969600    251.82909   -22242.145    96.083799   -22338.229    6904.3896 
  969800    303.19357   -22231.392    115.68159   -22347.073   -12323.117 
  970000    297.36452    -22238.19    113.45755   -22351.648    21448.027 
  970200    329.85934   -22222.661    125.85575   -22348.517   -1842.4982 
  970400    313.59393   -22224.433    119.64978   -22344.083   -4314.6783 
  970600     281.2382   -22240.951    107.30466   -22348.256   -15582.079 
  970800    304.96556   -22225.663    116.35768   -22342.021   -6304.7632 
  971000    344.90802   -22193.744    131.59748   -22325.341   -564.58007 
  971200    306.97295   -22226.928    117.12359   -22344.052   -15218.324 
  971400    307.60774   -22239.724    117.36579    -22357.09    45998.565 
  971600    313.16288   -22212.764    119.48532   -22332.249   -19736.931 
  971800    295.41401   -22221.562    112.71335   -22334.275   -27905.803 
  972000    319.33085   -22235.285    121.83867   -22357.124    14861.262 
  972200    310.73531   -22223.741     118.5591     -22342.3    32965.337 
  972400    327.87404   -22206.999    125.09827   -22332.097     3619.339 
  972600    282.67849   -22242.158    107.85419   -22350.012   -35270.062 
  972800    321.76184   -22221.231     122.7662   -22343.998     14063.56 
  973000     297.8396   -22223.577    113.63882   -22337.216    11096.594 
  973200    299.03602   -22233.285    114.09531   -22347.381    2908.4652 
  973400    294.77753   -22232.783    112.47051   -22345.253    14754.459 
  973600    333.26753   -22212.552    127.15612   -22339.708    11064.751 
  973800     317.9706   -22215.992    121.31968   -22337.311     18069.73 
  974000     269.5562   -22233.509    102.84747   -22336.356    38952.841 
  974200    313.28028   -22218.735    119.53011   -22338.265   -6607.3692 
  974400    317.79702   -22212.339    121.25345   -22333.593   -11959.102 
  974600    292.52777   -22229.317    111.61212   -22340.929   -3761.8641 
  974800    305.88716    -22233.62    116.70932   -22350.329    17907.555 
  975000    267.67781   -22249.276    102.13078   -22351.407    6324.0154 
  975200    315.55658   -22228.589    120.39862   -22348.987    35097.333 
  975400     288.0552   -22231.649    109.90564   -22341.555    3285.2944 
  975600    275.60238   -22261.871    105.15435   -22367.026    30881.178 
  975800    260.95603   -22242.985    99.566124   -22342.551   -5383.4267 
  976000    296.03422   -22224.918    112.94999   -22337.868    26142.429 
  976200    322.17673   -22219.904     122.9245   -22342.829   -7915.8141 
  976400     280.8593   -22243.711    107.16009   -22350.871   -6473.5347 
  976600    324.18395   -22213.776    123.69034   -22337.466    7891.7318 
  976800    304.43002   -22227.819    116.15335   -22343.973    22274.285 
  977000    275.15466   -22241.044    104.98352   -22346.027   -15511.439 
  977200    302.52501   -22211.905    115.42651   -22327.332   -23749.006 
  977400    307.53168   -22226.671    117.33677   -22344.008    3790.6516 
  977600    274.72838   -22235.068    104.82088   -22339.889   -1725.1205 
  977800    301.79937   -22228.028    115.14964   -22343.177   -6963.1235 
  978000    316.70886   -22212.203    120.83827   -22333.041   -26369.112 
  978200    326.68386   -22228.727    124.64416   -22353.371   -9157.9314 
  978400    303.64499    -22242.13    115.85383   -22357.984   -17314.261 
  978600     347.8946   -22215.056    132.73699   -22347.793   -17590.935 
  978800    281.28577   -22234.492    107.32281   -22341.815    14611.075 
  979000    278.79792    -22239.45    106.37359   -22345.823    9127.0992 
  979200    273.27146   -22218.807      104.265   -22323.072    5574.2563 
  979400    295.05813   -22231.762    112.57757    -22344.34   -15879.741 
  979600    281.82043   -22240.041    107.52681   -22347.568   -10612.259 
  979800    314.00956   -22212.563    119.80837   -22332.372    -10710.12 
  980000    340.08139   -22224.785    129.75591   -22354.541      4949.83 
  980200    280.18515   -22242.164    106.90287   -22349.067     11073.89 
  980400    294.43231   -22243.962    112.33879   -22356.301    2454.7148 
  980600    303.91658   -22216.639    115.95745   -22332.597    2991.0084 
  980800    283.12566   -22235.388    108.02481   -22343.412   -22364.222 
  981000    285.15918   -22240.595    108.80068   -22349.396   -3728.0939 
  981200    319.25174   -22215.821    121.80848    -22337.63   -18792.235 
  981400    298.83766   -22242.835    114.01962   -22356.855   -27416.518 
  981600    344.84131   -22224.377    131.57202   -22355.949    5880.2735 
  981800    329.81265   -22222.166    125.83793   -22348.003    6426.9123 
  982000    283.50617   -22235.529    108.16999   -22343.699    17969.892 
  982200    325.45159   -22212.083      124.174   -22336.257   -6226.1614 
  982400    316.71876   -22215.005    120.84204   -22335.847   -7537.9088 
  982600    275.11709   -22227.208    104.96919   -22332.177    10175.675 
  982800    285.12683   -22241.811    108.78834   -22350.599   -13978.655 
  983000    283.57277   -22239.718     108.1954   -22347.914   -14416.828 
  983200    332.53878   -22217.647    126.87807   -22344.525   -1440.4293 
  983400     301.5113   -22239.898    115.03973   -22354.938   -1489.1702 
  983600    289.33331   -22237.824     110.3933   -22348.217   -244.91167 
  983800    310.35771   -22222.779    118.41502   -22341.194   -10648.463 
  984000    271.03884   -22241.578    103.41316   -22344.991   -11718.077 
  984200    287.87256   -22240.664    109.83596     -22350.5    1485.3297 
  984400    299.65545     -22226.7    114.33164   -22341.032   -1390.6737 
  984600    299.15593   -22229.229    114.14106   -22343.371    8568.5976 
  984800    288.05751   -22239.441    109.90653   -22349.348    6713.9279 
  985000     258.9796   -22249.983    98.812033   -22348.795   -4457.6569 
  985200    313.87729   -22228.791     119.7579   -22348.549   -18463.524 
  985400     305.8266   -22225.713    116.68621   -22342.399   -9524.9452 
  985600    291.08714   -22240.272    111.06246   -22351.335    15174.909 
  985800    311.98378   -22225.471    119.03544   -22344.506   -11097.795 
  986000    317.17569   -22219.407    121.01638   -22340.423   -227.36843 
  986200    284.43915   -22232.147    108.52596   -22340.673    6703.6469 
  986400    295.56004   -22229.258    112.76907   -22342.027    -22323.28 
  986600    278.67615   -22227.519    106.32713   -22333.846    3786.3592 
  986800    284.86776   -22249.693     108.6895   -22358.382    11531.398 
  987000    294.85176   -22237.836    112.49883   -22350.335     3268.963 
  987200    312.21853   -22224.485    119.12501    -22343.61    24099.573 
  987400    318.03316   -22242.702    121.34354   -22364.046   -732.52714 
  987600    310.25998   -22250.507    118.37774   -22368.885    3421.2692 
  987800    281.56606   -22222.217    107.42975   -22329.647   -5235.3952 
  988000    268.92945   -22240.584    102.60833   -22343.192    1183.0068 
  988200    280.65972   -22237.148    107.08395   -22344.232   -16891.034 
  988400     300.1441   -22226.645    114.51808   -22341.163    2039.6051 
  988600    300.53633    -22239.01    114.66774   -22353.677    907.44667 
  988800    293.58916   -22236.259    112.01709   -22348.276    15664.726 
  989000    322.24993   -22222.149    122.95243   -22345.102    3949.8749 
  989200     271.0599   -22236.134    103.42119   -22339.555    5803.9672 
  989400     353.5435   -22205.279    134.89229   -22340.172   -7733.4585 
  989600    317.07312   -22225.821    120.97725   -22346.799    2151.8808 
  989800    279.66804   -22240.267    106.70557   -22346.972    8304.2188 
  990000    252.63483   -22265.254    96.391226   -22361.645    13631.022 
  990200     320.2441   -22240.659    122.18711   -22362.846    19980.277 
  990400    321.75183   -22231.787    122.76238   -22354.549   -3787.7185 
  990600    313.79896   -22243.317    119.72801   -22363.045    12977.986 
  990800    282.80657   -22256.961    107.90306   -22364.864   -20907.663 
  991000     291.2318   -22224.715    111.11765   -22335.832   -9262.2902 
  991200    282.61054   -22230.207    107.82827   -22338.035     -12060.5 
  991400    261.94258   -22253.212    99.942536   -22353.154   -5087.5995 
  991600    288.59789   -22220.749     110.1127   -22330.862    -5824.229 
  991800    295.33721   -22232.858    112.68405   -22345.542    2023.3339 
  992000    286.13252   -22241.048    109.17205    -22350.22    4120.7089 
  992200     325.6623   -22212.977    124.25439   -22337.232   -12115.939 
  992400    317.88462   -22238.278    121.28687   -22359.565   -702.39369 
  992600    318.29759   -22226.817    121.44444   -22348.261   -2192.2137 
  992800      311.292   -22217.384     118.7715   -22336.156    -6501.728 
  993000    290.84057    -22244.93    110.96838   -22355.898   -27033.192 
  993200    304.04827   -22227.387     116.0077   -22343.395   -9018.1498 
  993400    294.20296   -22238.072    112.25128   -22350.324   -2062.4764 
  993600    273.25705   -22246.883     104.2595   -22351.142    1296.2426 
  993800    287.44289   -22232.684    109.67202   -22342.356   -4306.0407 
  994000    278.12787   -22235.968    106.11793   -22342.086    26759.993 
  994200    315.78031   -22207.472    120.48398   -22327.956    24669.532 
  994400    314.17649   -22230.511    119.87206   -22350.383   -17199.916 
  994600    307.88422   -22231.898    117.47128   -22349.369    7137.9654 
  994800    338.03783   -22198.253     128.9762   -22327.229    10951.407 
  995000    326.50969   -22215.815    124.57771   -22340.393     8742.019 
  995200     323.8228   -22230.335    123.55255   -22353.888   -21639.496 
  995400    281.79549   -22240.066    107.51729   -22347.584   -11905.359 
  995600    305.58388   -22215.236     116.5936    -22331.83   -8831.2545 
  995800    288.31888   -22236.321    110.00625   -22346.328   -9313.6389 
  996000    294.51979   -22239.831    112.37217   -22352.203    24253.393 
  996200    332.76485   -22217.851    126.96433   -22344.815    2543.2013 
  996400    301.60442   -22248.361    115.07526   -22363.436   -3028.6489 
  996600     304.6706   -22237.156    116.24514   -22353.401   -21128.077 
  996800    318.93402   -22220.399    121.68726   -22342.087   -15871.463 
  997000    278.01136   -22244.142    106.07348   -22350.215    11052.023 
  997200    294.14567    -22239.66    112.22942    -22351.89   -14760.927 
  997400    311.93847   -22220.603    119.01815   -22339.621   -2908.7764 
  997600    315.65925   -22220.128    120.43779   -22340.566    3138.3904 
  997800     261.7035   -22242.767    99.851319   -22342.619   -1168.4054 
  998000    307.24569   -22220.723    117.22765   -22337.951   -7464.9559 
  998200    286.25525   -22222.556    109.21888   -22331.775    9610.5405 
  998400    292.81354   -22237.431    111.72116   -22349.152    8484.1675 
  998600    310.07892   -22228.755    118.30865   -22347.064    7969.6321 
  998800    302.67868    -22219.74    115.48514   -22335.225    18098.496 
  999000    309.42423   -22239.986    118.05886   -22358.045    10831.236 
  999200    297.54073   -22231.884    113.52479   -22345.409    6362.2117 
  999400    313.86329   -22213.258    119.75256   -22333.011   -48388.858 
  999600    305.73899   -22239.362    116.65278   -22356.015   -6863.2114 
  999800    311.12183    -22239.91    118.70657   -22358.616    7524.4416 
 1000000    318.11342   -22212.644    121.37417   -22334.019    25187.413 
Loop time of 3370.4 on 8 procs for 1000000 steps with 129 atoms

Performance: 6.409 ns/day, 3.745 hours/ns, 296.700 timesteps/s
99.4% CPU use with 8 MPI tasks x no OpenMP threads

MPI task timing breakdown:
Section |  min time  |  avg time  |  max time  |%varavg| %total
---------------------------------------------------------------
Pair    | 2458.8     | 2757.1     | 2874.6     | 291.8 | 81.80
Neigh   | 0.30583    | 0.32504    | 0.34614    |   3.0 |  0.01
Comm    | 52.21      | 168.43     | 466.06     |1179.0 |  5.00
Output  | 0.21261    | 0.22816    | 0.23094    |   1.2 |  0.01
Modify  | 440.38     | 441.94     | 442.77     |   4.3 | 13.11
Other   |            | 2.351      |            |       |  0.07

Nlocal:    16.125 ave 39 max 5 min
Histogram: 2 2 2 0 0 0 0 0 1 1
Nghost:    504.25 ave 531 max 467 min
Histogram: 1 1 0 1 0 1 0 1 1 2
Neighs:    1011.12 ave 2333 max 362 min
Histogram: 2 2 2 0 0 0 0 0 1 1

Total # of neighbors = 8089
Ave neighs/atom = 62.7054
Neighbor list builds = 672
Dangerous builds = 0

unfix 1
unfix output
undump 1

Please see the log.cite file for references relevant to this simulation

Total wall time: 0:56:24
