ITEM: TIMESTEP
0
ITEM: NUMBER OF ATOMS
49
ITEM: BOX BOUNDS pp pp pp
0.0000000000000000e+00 1.1000000000000000e+01
0.0000000000000000e+00 1.1002000000000001e+01
0.0000000000000000e+00 1.1000000000000000e+01
ITEM: ATOMS id type x y z 
10 1 4.603 4.603 4.603 
11 1 3.085 3.085 3.085 
12 1 3.796 3.796 3.796 
46 1 0.726 0.725 0.725 
47 1 2.26 2.259 2.26 
48 1 1.551 1.55 1.55 
19 1 4.546 4.545 6.226 
20 1 3.013 3.013 7.764 
21 1 3.721 3.721 7.053 
31 1 0.668 0.667 10.103 
32 1 2.187 2.187 8.589 
33 1 1.476 1.475 9.298 
16 1 4.546 6.225 4.546 
17 1 3.013 7.765 3.013 
18 1 3.721 7.053 3.722 
25 1 0.668 10.103 0.668 
26 1 2.188 8.589 2.188 
27 1 1.476 9.298 1.476 
4 1 4.608 6.169 6.169 
5 1 3.086 7.684 7.684 
6 1 3.799 6.974 6.974 
37 1 0.729 10.046 10.046 
38 1 2.259 8.509 8.508 
39 1 1.552 9.219 9.219 
49 2 2.87 7.771 9.462 
13 1 6.225 4.546 4.546 
14 1 7.764 3.013 3.013 
15 1 7.053 3.721 3.722 
28 1 10.102 0.667 0.668 
29 1 8.589 2.187 2.188 
30 1 9.298 1.475 1.476 
1 1 6.168 4.608 6.169 
2 1 7.684 3.086 7.684 
3 1 6.974 3.799 6.974 
40 1 10.045 0.728 10.046 
41 1 8.508 2.259 8.508 
42 1 9.218 1.551 9.218 
7 1 6.169 6.169 4.608 
8 1 7.684 7.684 3.086 
9 1 6.974 6.974 3.799 
43 1 10.046 10.047 0.729 
44 1 8.508 8.509 2.259 
45 1 9.219 9.219 1.552 
22 1 6.229 6.229 6.229 
23 1 7.764 7.765 7.765 
24 1 7.055 7.056 7.055 
34 1 10.108 10.108 10.107 
35 1 8.59 8.59 8.59 
36 1 9.301 9.301 9.3 
ITEM: TIMESTEP
10
ITEM: NUMBER OF ATOMS
49
ITEM: BOX BOUNDS pp pp pp
0.0000000000000000e+00 1.1000000000000000e+01
0.0000000000000000e+00 1.1002000000000001e+01
0.0000000000000000e+00 1.1000000000000000e+01
ITEM: ATOMS id type x y z 
10 1 4.59465 4.59537 4.59515 
11 1 3.08402 3.08389 3.08389 
12 1 3.7917 3.79192 3.79195 
46 1 0.73414 0.733149 0.733123 
47 1 2.26481 2.2638 2.26453 
48 1 1.55976 1.55879 1.55925 
19 1 4.53798 4.53744 6.23383 
20 1 3.00797 3.00818 7.76872 
21 1 3.71315 3.71276 7.06144 
31 1 0.67559 0.680249 10.0946 
32 1 2.18901 2.18811 8.58734 
33 1 1.47878 1.47952 9.29454 
16 1 4.53796 6.23303 4.53833 
17 1 3.00862 7.76907 3.00896 
18 1 3.71302 7.06154 3.71336 
25 1 0.675803 10.0946 0.681371 
26 1 2.1893 8.5873 2.18897 
27 1 1.47982 9.29494 1.48042 
4 1 4.59424 6.18169 6.18203 
5 1 3.10705 7.65842 7.66258 
6 1 3.80714 6.97105 6.96543 
37 1 0.739116 10.0365 10.035 
38 1 2.25048 8.52185 8.45168 
39 1 1.51828 9.25455 9.24673 
49 2 2.90212 7.73282 9.50411 
13 1 6.23333 4.53784 4.53808 
14 1 7.76863 3.00824 3.00863 
15 1 7.06184 3.71241 3.71273 
28 1 10.0939 0.675293 0.676345 
29 1 8.58809 2.18824 2.18921 
30 1 9.29344 1.47895 1.47997 
1 1 6.17598 4.60039 6.1771 
2 1 7.68519 3.08491 7.68481 
3 1 6.97785 3.79491 6.97858 
40 1 10.0369 0.735881 10.0376 
41 1 8.50351 2.26324 8.5033 
42 1 9.20937 1.56012 9.20973 
7 1 6.17634 6.17709 4.6003 
8 1 7.68501 7.68498 3.08463 
9 1 6.97841 6.97851 3.79519 
43 1 10.0379 10.0387 0.737082 
44 1 8.50368 8.50429 2.26346 
45 1 9.21 9.21066 1.56078 
22 1 6.23678 6.23704 6.23671 
23 1 7.76829 7.76946 7.76911 
24 1 7.06313 7.06377 7.06342 
34 1 10.0945 10.1007 10.0987 
35 1 8.58881 8.58849 8.58806 
36 1 9.29663 9.2973 9.2971 
ITEM: TIMESTEP
20
ITEM: NUMBER OF ATOMS
49
ITEM: BOX BOUNDS pp pp pp
0.0000000000000000e+00 1.1000000000000000e+01
0.0000000000000000e+00 1.1002000000000001e+01
0.0000000000000000e+00 1.1000000000000000e+01
ITEM: ATOMS id type x y z 
10 1 4.59578 4.5975 4.59906 
11 1 3.0823 3.08221 3.0814 
12 1 3.78877 3.78885 3.79052 
46 1 0.733737 0.733587 0.733789 
47 1 2.26904 2.2681 2.26841 
48 1 1.5629 1.56198 1.56308 
19 1 4.53896 4.52991 6.23259 
20 1 3.00531 3.00566 7.77091 
21 1 3.71127 3.71019 7.06433 
31 1 0.671147 0.710057 10.0972 
32 1 2.19422 2.1884 8.58231 
33 1 1.47915 1.48987 9.29368 
16 1 4.53833 6.23296 4.52996 
17 1 3.0048 7.77312 3.00543 
18 1 3.71032 7.06378 3.70965 
25 1 0.672222 10.0981 0.7109 
26 1 2.19439 8.58266 2.18929 
27 1 1.47994 9.29391 1.49009 
4 1 4.59912 6.1787 6.17494 
5 1 3.12968 7.63636 7.67543 
6 1 3.82097 6.95014 6.94587 
37 1 0.74107 10.0359 10.0343 
38 1 2.23042 8.54418 8.44811 
39 1 1.52093 9.25127 9.24046 
49 2 2.91603 7.71871 9.49266 
13 1 6.233 4.5385 4.53859 
14 1 7.77258 3.00433 3.00462 
15 1 7.06475 3.70954 3.70989 
28 1 10.0951 0.674611 0.67632 
29 1 8.58622 2.1908 2.1917 
30 1 9.28987 1.48103 1.48238 
1 1 6.17217 4.60291 6.17588 
2 1 7.68772 3.08291 7.68652 
3 1 6.97944 3.79211 6.98188 
40 1 10.0361 0.736533 10.0377 
41 1 8.49985 2.26709 8.49924 
42 1 9.20556 1.56384 9.20661 
7 1 6.17405 6.17552 4.60255 
8 1 7.68698 7.68685 3.0819 
9 1 6.98145 6.98187 3.7935 
43 1 10.0374 10.039 0.737372 
44 1 8.49999 8.50065 2.26686 
45 1 9.20695 9.20748 1.56445 
22 1 6.24508 6.23645 6.23635 
23 1 7.77132 7.7728 7.77245 
24 1 7.0663 7.06595 7.06567 
34 1 10.0643 10.1048 10.102 
35 1 8.58838 8.58319 8.5833 
36 1 9.28658 9.29716 9.29587 
ITEM: TIMESTEP
30
ITEM: NUMBER OF ATOMS
49
ITEM: BOX BOUNDS pp pp pp
0.0000000000000000e+00 1.1000000000000000e+01
0.0000000000000000e+00 1.1002000000000001e+01
0.0000000000000000e+00 1.1000000000000000e+01
ITEM: ATOMS id type x y z 
10 1 4.59652 4.58501 4.59974 
11 1 3.08603 3.08678 3.08428 
12 1 3.79453 3.79191 3.79806 
46 1 0.737117 0.749614 0.749598 
47 1 2.28006 2.27833 2.27847 
48 1 1.57006 1.57225 1.57289 
19 1 4.54815 4.47618 6.22389 
20 1 3.00093 3.0092 7.77582 
21 1 3.7177 3.69316 7.05755 
31 1 0.650399 0.750743 10.1116 
32 1 2.2068 2.18323 8.57 
33 1 1.47029 1.52582 9.30123 
16 1 4.54521 6.22768 4.46205 
17 1 2.99287 7.78479 3.00314 
18 1 3.71327 7.06094 3.68658 
25 1 0.65527 10.1142 0.749146 
26 1 2.20453 8.57084 2.18166 
27 1 1.47133 9.3053 1.52435 
4 1 4.63694 6.13797 6.10325 
5 1 3.19156 7.54927 7.87005 
6 1 3.86219 6.91308 6.94263 
37 1 0.688484 10.0898 10.0897 
38 1 2.15264 8.62717 8.44478 
39 1 1.47058 9.30826 9.21731 
49 2 3.01749 7.62233 9.32084 
13 1 6.23786 4.53292 4.53341 
14 1 7.77592 2.99942 2.99985 
15 1 7.06897 3.70838 3.70826 
28 1 10.0919 0.680961 0.68318 
29 1 8.58371 2.19509 2.19287 
30 1 9.28895 1.47806 1.48585 
1 1 6.17385 4.59974 6.17733 
2 1 7.68353 3.0872 7.68051 
3 1 6.97172 3.79896 6.97785 
40 1 10.0201 0.751738 10.0329 
41 1 8.49169 2.27561 8.48959 
42 1 9.19526 1.57418 9.20025 
7 1 6.1867 6.17526 4.59981 
8 1 7.68199 7.68327 3.08363 
9 1 6.97974 6.97707 3.80139 
43 1 10.0213 10.035 0.750802 
44 1 8.49147 8.49099 2.27616 
45 1 9.19752 9.20127 1.57283 
22 1 6.29947 6.22749 6.22715 
23 1 7.76731 7.77885 7.77874 
24 1 7.08559 7.05774 7.05783 
34 1 10.0244 10.1242 10.1169 
35 1 8.59279 8.56925 8.57031 
36 1 9.2493 9.30559 9.302 
ITEM: TIMESTEP
40
ITEM: NUMBER OF ATOMS
49
ITEM: BOX BOUNDS pp pp pp
0.0000000000000000e+00 1.1000000000000000e+01
0.0000000000000000e+00 1.1002000000000001e+01
0.0000000000000000e+00 1.1000000000000000e+01
ITEM: ATOMS id type x y z 
10 1 4.5982 4.58549 4.59718 
11 1 3.08308 3.08503 3.08707 
12 1 3.79999 3.794 3.79208 
46 1 0.73299 0.754241 0.753414 
47 1 2.28141 2.277 2.27742 
48 1 1.56711 1.5753 1.57504 
19 1 4.55113 4.4871 6.21999 
20 1 2.99847 3.00734 7.7791 
21 1 3.71781 3.68858 7.0563 
31 1 0.648971 0.754661 10.1169 
32 1 2.20263 2.1882 8.57427 
33 1 1.47017 1.51333 9.30078 
16 1 4.55186 6.22043 4.47223 
17 1 2.99456 7.78213 3.00636 
18 1 3.71594 7.05996 3.68216 
25 1 0.653126 10.1195 0.752865 
26 1 2.1989 8.57761 2.18479 
27 1 1.47111 9.3033 1.51186 
4 1 4.62607 6.15318 6.10978 
5 1 3.20431 7.53514 7.90342 
6 1 3.86208 6.90925 6.93967 
37 1 0.693981 10.0829 10.0808 
38 1 2.1438 8.63479 8.44652 
39 1 1.45627 9.32884 9.19853 
49 2 3.04703 7.59173 9.2983 
13 1 6.24243 4.53104 4.53 
14 1 7.77621 3.00186 3.00198 
15 1 7.06608 3.70661 3.70665 
28 1 10.0905 0.677963 0.685343 
29 1 8.58163 2.1909 2.19366 
30 1 9.29467 1.48381 1.48271 
1 1 6.17572 4.59846 6.17732 
2 1 7.6822 3.08629 7.68602 
3 1 6.97707 3.79763 6.96986 
40 1 10.0156 0.756165 10.0375 
41 1 8.49022 2.27663 8.48608 
42 1 9.19278 1.57769 9.20208 
7 1 6.18616 6.17357 4.60054 
8 1 7.68435 7.68694 3.0864 
9 1 6.97824 6.97175 3.79388 
43 1 10.0166 10.0391 0.755116 
44 1 8.49155 8.48861 2.27624 
45 1 9.19394 9.20342 1.57554 
22 1 6.29019 6.22358 6.221 
23 1 7.76893 7.7785 7.77801 
24 1 7.08571 7.05758 7.05856 
34 1 10.0199 10.1253 10.1193 
35 1 8.58879 8.5748 8.57541 
36 1 9.26157 9.30475 9.30188 
ITEM: TIMESTEP
42
ITEM: NUMBER OF ATOMS
49
ITEM: BOX BOUNDS pp pp pp
0.0000000000000000e+00 1.1000000000000000e+01
0.0000000000000000e+00 1.1002000000000001e+01
0.0000000000000000e+00 1.1000000000000000e+01
ITEM: ATOMS id type x y z 
10 1 4.5982 4.58549 4.59718 
11 1 3.08308 3.08503 3.08707 
12 1 3.79999 3.794 3.79208 
46 1 0.73299 0.754241 0.753414 
47 1 2.28141 2.277 2.27742 
48 1 1.56711 1.5753 1.57504 
19 1 4.55113 4.4871 6.21999 
20 1 2.99847 3.00734 7.7791 
21 1 3.71781 3.68858 7.0563 
31 1 0.648971 0.754661 10.1169 
32 1 2.20263 2.1882 8.57427 
33 1 1.47017 1.51333 9.30078 
16 1 4.55186 6.22043 4.47223 
17 1 2.99456 7.78213 3.00636 
18 1 3.71594 7.05996 3.68216 
25 1 0.653126 10.1195 0.752865 
26 1 2.1989 8.57761 2.18479 
27 1 1.47111 9.3033 1.51186 
4 1 4.62607 6.15318 6.10978 
5 1 3.20431 7.53514 7.90342 
6 1 3.86208 6.90925 6.93967 
37 1 0.693981 10.0829 10.0808 
38 1 2.1438 8.63479 8.44652 
39 1 1.45627 9.32884 9.19853 
49 2 3.04703 7.59173 9.2983 
13 1 6.24243 4.53104 4.53 
14 1 7.77621 3.00186 3.00198 
15 1 7.06608 3.70661 3.70665 
28 1 10.0905 0.677963 0.685343 
29 1 8.58163 2.1909 2.19366 
30 1 9.29467 1.48381 1.48271 
1 1 6.17572 4.59846 6.17732 
2 1 7.6822 3.08629 7.68602 
3 1 6.97707 3.79763 6.96986 
40 1 10.0156 0.756165 10.0375 
41 1 8.49022 2.27663 8.48608 
42 1 9.19278 1.57769 9.20208 
7 1 6.18616 6.17357 4.60054 
8 1 7.68435 7.68694 3.0864 
9 1 6.97824 6.97175 3.79388 
43 1 10.0166 10.0391 0.755116 
44 1 8.49155 8.48861 2.27624 
45 1 9.19394 9.20342 1.57554 
22 1 6.29019 6.22358 6.221 
23 1 7.76893 7.7785 7.77801 
24 1 7.08571 7.05758 7.05856 
34 1 10.0199 10.1253 10.1193 
35 1 8.58879 8.5748 8.57541 
36 1 9.26157 9.30475 9.30188 
ITEM: TIMESTEP
43
ITEM: NUMBER OF ATOMS
49
ITEM: BOX BOUNDS pp pp pp
0.0000000000000000e+00 1.1000000000000000e+01
0.0000000000000000e+00 1.1002000000000001e+01
0.0000000000000000e+00 1.1000000000000000e+01
ITEM: ATOMS id type x y z 
10 1 4.5982 4.58549 4.59718 
11 1 3.08308 3.08503 3.08707 
12 1 3.79999 3.794 3.79208 
46 1 0.73299 0.754241 0.753414 
47 1 2.28141 2.277 2.27742 
48 1 1.56711 1.5753 1.57504 
19 1 4.55113 4.4871 6.21999 
20 1 2.99847 3.00734 7.7791 
21 1 3.71781 3.68858 7.0563 
31 1 0.648971 0.754661 10.1169 
32 1 2.20263 2.1882 8.57427 
33 1 1.47017 1.51333 9.30078 
16 1 4.55186 6.22043 4.47223 
17 1 2.99456 7.78213 3.00636 
18 1 3.71594 7.05996 3.68216 
25 1 0.653126 10.1195 0.752865 
26 1 2.1989 8.57761 2.18479 
27 1 1.47111 9.3033 1.51186 
4 1 4.62607 6.15318 6.10978 
5 1 3.20431 7.53514 7.90342 
6 1 3.86208 6.90925 6.93967 
37 1 0.693981 10.0829 10.0808 
38 1 2.1438 8.63479 8.44652 
39 1 1.45627 9.32884 9.19853 
49 2 3.04703 7.59173 9.2983 
13 1 6.24243 4.53104 4.53 
14 1 7.77621 3.00186 3.00198 
15 1 7.06608 3.70661 3.70665 
28 1 10.0905 0.677963 0.685343 
29 1 8.58163 2.1909 2.19366 
30 1 9.29467 1.48381 1.48271 
1 1 6.17572 4.59846 6.17732 
2 1 7.6822 3.08629 7.68602 
3 1 6.97707 3.79763 6.96986 
40 1 10.0156 0.756165 10.0375 
41 1 8.49022 2.27663 8.48608 
42 1 9.19278 1.57769 9.20208 
7 1 6.18616 6.17357 4.60054 
8 1 7.68435 7.68694 3.0864 
9 1 6.97824 6.97175 3.79388 
43 1 10.0166 10.0391 0.755116 
44 1 8.49155 8.48861 2.27624 
45 1 9.19394 9.20342 1.57554 
22 1 6.29019 6.22358 6.221 
23 1 7.76893 7.7785 7.77801 
24 1 7.08571 7.05758 7.05856 
34 1 10.0199 10.1253 10.1193 
35 1 8.58879 8.5748 8.57541 
36 1 9.26157 9.30475 9.30188 
ITEM: TIMESTEP
50
ITEM: NUMBER OF ATOMS
49
ITEM: BOX BOUNDS pp pp pp
-3.7507002121495493e-03 1.1003750700212150e+01
-3.8507000000000003e-03 1.1005850700000000e+01
-3.6569602112689501e-03 1.1003656960211270e+01
ITEM: ATOMS id type x y z 
10 1 4.5976 4.58486 4.59659 
11 1 3.08148 3.08338 3.0855 
12 1 3.79877 3.79275 3.79091 
46 1 0.729732 0.750923 0.750263 
47 1 2.27923 2.27476 2.2753 
48 1 1.56442 1.57254 1.57241 
19 1 4.55049 4.48639 6.22046 
20 1 2.99677 3.00559 7.78061 
21 1 3.7166 3.68734 7.05732 
31 1 0.645648 0.75133 10.12 
32 1 2.20032 2.18584 8.57637 
33 1 1.46748 1.51058 9.30326 
16 1 4.55122 6.22093 4.47154 
17 1 2.99285 7.78373 3.00469 
18 1 3.71474 7.06103 3.68098 
25 1 0.649813 10.1227 0.749698 
26 1 2.19663 8.57979 2.18257 
27 1 1.46838 9.30594 1.50921 
4 1 4.62548 6.15362 6.11018 
5 1 3.20276 7.53654 7.90501 
6 1 3.86096 6.91025 6.94064 
37 1 0.690692 10.0861 10.0839 
38 1 2.14149 8.63703 8.4485 
39 1 1.4535 9.33151 9.20095 
49 2 3.04539 7.59316 9.30085 
13 1 6.24293 4.53036 4.52936 
14 1 7.77778 3.00009 3.0003 
15 1 7.06714 3.70538 3.70548 
28 1 10.0937 0.674594 0.682131 
29 1 8.58377 2.18855 2.19143 
30 1 9.29721 1.48102 1.48008 
1 1 6.17616 4.59784 6.17775 
2 1 7.68364 3.08465 7.68741 
3 1 6.97812 3.79638 6.97091 
40 1 10.0187 0.752845 10.0405 
41 1 8.49224 2.2744 8.48805 
42 1 9.19533 1.57491 9.20457 
7 1 6.18662 6.17402 4.59994 
8 1 7.6858 7.68843 3.08482 
9 1 6.97929 6.97283 3.79273 
43 1 10.0196 10.0423 0.751962 
44 1 8.49357 8.49068 2.27411 
45 1 9.19648 9.20603 1.57291 
22 1 6.29073 6.22408 6.22148 
23 1 7.77047 7.78008 7.77952 
24 1 7.08679 7.05868 7.05959 
34 1 10.0229 10.1286 10.1224 
35 1 8.59091 8.57699 8.57749 
36 1 9.26412 9.30738 9.30438 
ITEM: TIMESTEP
60
ITEM: NUMBER OF ATOMS
49
ITEM: BOX BOUNDS pp pp pp
-7.9747401583449944e-03 1.1007974740158348e+01
-9.3517000000000027e-03 1.1011351699999999e+01
-4.8786265903588899e-03 1.1004878626590363e+01
ITEM: ATOMS id type x y z 
10 1 4.59745 4.58437 4.59677 
11 1 3.08033 3.08161 3.08547 
12 1 3.79665 3.79028 3.79005 
46 1 0.725715 0.74595 0.748997 
47 1 2.27677 2.27164 2.27467 
48 1 1.56114 1.56823 1.57118 
19 1 4.55006 4.48549 6.22029 
20 1 2.99516 3.00325 7.7808 
21 1 3.71546 3.68589 7.05746 
31 1 0.641393 0.746117 10.1213 
32 1 2.19691 2.18194 8.5778 
33 1 1.46526 1.5071 9.30345 
16 1 4.5508 6.22137 4.47141 
17 1 2.99104 7.78594 3.00409 
18 1 3.71369 7.06219 3.68105 
25 1 0.645633 10.1277 0.748139 
26 1 2.19368 8.58324 2.18168 
27 1 1.46564 9.30944 1.50833 
4 1 4.62506 6.15396 6.1099 
5 1 3.20133 7.53823 7.90558 
6 1 3.85954 6.91178 6.94118 
37 1 0.686519 10.0913 10.0853 
38 1 2.13843 8.64083 8.44962 
39 1 1.44999 9.33546 9.20143 
49 2 3.04397 7.59472 9.30195 
13 1 6.24317 4.52962 4.5294 
14 1 7.77953 2.9975 2.99967 
15 1 7.06803 3.70403 3.70551 
28 1 10.0975 0.669553 0.680636 
29 1 8.58672 2.18483 2.19015 
30 1 9.29943 1.47738 1.4798 
1 1 6.17628 4.5973 6.17734 
2 1 7.68466 3.08296 7.68703 
3 1 6.97991 3.79391 6.97226 
40 1 10.0224 0.747852 10.0419 
41 1 8.49443 2.27131 8.48867 
42 1 9.19866 1.57042 9.20583 
7 1 6.18674 6.17415 4.60002 
8 1 7.68696 7.69001 3.08469 
9 1 6.98102 6.975 3.79198 
43 1 10.0233 10.0472 0.750665 
44 1 8.49578 8.49367 2.27348 
45 1 9.19977 9.21006 1.57161 
22 1 6.29121 6.2245 6.22141 
23 1 7.77201 7.78199 7.77974 
24 1 7.0878 7.06018 7.05972 
34 1 10.0269 10.1337 10.1238 
35 1 8.5936 8.58065 8.5787 
36 1 9.26679 9.31061 9.30475 
ITEM: TIMESTEP
70
ITEM: NUMBER OF ATOMS
49
ITEM: BOX BOUNDS pp pp pp
-1.1565552668568272e-02 1.1011565552668573e+01
-1.4852699999999998e-02 1.1016852699999998e+01
-2.9562011238788788e-03 1.1002956201123883e+01
ITEM: ATOMS id type x y z 
10 1 4.59777 4.58422 4.59778 
11 1 3.07953 3.07989 3.08675 
12 1 3.79458 3.78769 3.79026 
46 1 0.721949 0.740792 0.750253 
47 1 2.27437 2.26829 2.27564 
48 1 1.55841 1.56391 1.57221 
19 1 4.55002 4.48471 6.21942 
20 1 2.99421 3.00116 7.7793 
21 1 3.71455 3.6846 7.0567 
31 1 0.637398 0.740501 10.1203 
32 1 2.19373 2.17802 8.57763 
33 1 1.46359 1.50359 9.30139 
16 1 4.55076 6.22157 4.47197 
17 1 2.98987 7.78782 3.00512 
18 1 3.7128 7.06334 3.68225 
25 1 0.641689 10.133 0.748897 
26 1 2.19095 8.58686 2.18271 
27 1 1.4635 9.31283 1.50963 
4 1 4.62499 6.15406 6.10896 
5 1 3.20041 7.53967 7.9049 
6 1 3.85822 6.91337 6.94101 
37 1 0.682482 10.0971 10.0844 
38 1 2.13546 8.64505 8.44939 
39 1 1.44661 9.3396 9.19958 
49 2 3.04317 7.5959 9.30096 
13 1 6.24308 4.52908 4.53021 
14 1 7.78073 2.99514 3.0007 
15 1 7.06886 3.70269 3.70655 
28 1 10.1011 0.66435 0.681635 
29 1 8.58942 2.18115 2.19071 
30 1 9.30104 1.47367 1.48194 
1 1 6.17598 4.59712 6.17618 
2 1 7.6855 3.08125 7.68531 
3 1 6.98146 3.79141 6.97296 
40 1 10.0258 0.742678 10.041 
41 1 8.49659 2.26795 8.48794 
42 1 9.20151 1.56594 9.20486 
7 1 6.18648 6.17392 4.60088 
8 1 7.68782 7.69151 3.08588 
9 1 6.98268 6.97733 3.79231 
43 1 10.0267 10.0524 0.751891 
44 1 8.49788 8.49697 2.27443 
45 1 9.20265 9.21401 1.57255 
22 1 6.29143 6.22461 6.22068 
23 1 7.77304 7.78355 7.77838 
24 1 7.08851 7.06167 7.05884 
34 1 10.0307 10.1392 10.1229 
35 1 8.59598 8.58443 8.57828 
36 1 9.26898 9.3138 9.30288 
ITEM: TIMESTEP
80
ITEM: NUMBER OF ATOMS
49
ITEM: BOX BOUNDS pp pp pp
-1.5176015729183291e-02 1.1015176015729187e+01
-2.0153322635733210e-02 1.1022153322635729e+01
-8.3519920379127293e-04 1.1000835199203793e+01
ITEM: ATOMS id type x y z 
10 1 4.59809 4.58416 4.59885 
11 1 3.07846 3.07798 3.08783 
12 1 3.79277 3.78544 3.79084 
46 1 0.718167 0.735737 0.751625 
47 1 2.27183 2.26481 2.2765 
48 1 1.55566 1.55998 1.5736 
19 1 4.55008 4.48404 6.21844 
20 1 2.99338 2.99925 7.77759 
21 1 3.71358 3.68335 7.05594 
31 1 0.633476 0.73495 10.1192 
32 1 2.19097 2.17442 8.57707 
33 1 1.46132 1.50011 9.29945 
16 1 4.55078 6.22168 4.47261 
17 1 2.9889 7.78942 3.0064 
18 1 3.71174 7.06457 3.68338 
25 1 0.637756 10.1382 0.749725 
26 1 2.18835 8.59026 2.18383 
27 1 1.46113 9.31622 1.5112 
4 1 4.62496 6.1541 6.10798 
5 1 3.19951 7.54097 7.90427 
6 1 3.85691 6.91488 6.94076 
37 1 0.678342 10.1027 10.0833 
38 1 2.13247 8.64912 8.44907 
39 1 1.4432 9.34367 9.19755 
49 2 3.04242 7.59694 9.29975 
13 1 6.24295 4.5286 4.53108 
14 1 7.78173 2.99305 3.00201 
15 1 7.06992 3.70121 3.70746 
28 1 10.1048 0.659303 0.682808 
29 1 8.59192 2.17782 2.1916 
30 1 9.30287 1.46985 1.48401 
1 1 6.17564 4.59706 6.17498 
2 1 7.68669 3.07928 7.68384 
3 1 6.98262 3.78935 6.97327 
40 1 10.0293 0.737664 10.0399 
41 1 8.499 2.26448 8.48735 
42 1 9.20415 1.56179 9.20352 
7 1 6.18618 6.17365 4.60182 
8 1 7.6889 7.69313 3.08693 
9 1 6.98414 6.9794 3.79295 
43 1 10.0302 10.0574 0.753237 
44 1 8.50027 8.5003 2.27524 
45 1 9.20527 9.21784 1.57388 
22 1 6.29159 6.2246 6.21987 
23 1 7.77401 7.78491 7.77685 
24 1 7.08923 7.06312 7.05787 
34 1 10.0347 10.1444 10.1218 
35 1 8.59828 8.58786 8.57756 
36 1 9.27121 9.31716 9.30108 
ITEM: TIMESTEP
90
ITEM: NUMBER OF ATOMS
49
ITEM: BOX BOUNDS pp pp pp
-1.8576796271856932e-02 1.1018576796271860e+01
-2.4937139144148156e-02 1.1026937139144144e+01
1.0324471817216476e-03 1.0998967552818277e+01
ITEM: ATOMS id type x y z 
10 1 4.5984 4.58417 4.59985 
11 1 3.07734 3.07617 3.08866 
12 1 3.79119 3.78349 3.7915 
46 1 0.714561 0.731127 0.752801 
47 1 2.26937 2.26155 2.27714 
48 1 1.55308 1.5565 1.57486 
19 1 4.55018 4.4835 6.21749 
20 1 2.99265 2.99758 7.77597 
21 1 3.71265 3.68225 7.05528 
31 1 0.629727 0.729945 10.1183 
32 1 2.18848 2.17131 8.57644 
33 1 1.4591 1.49684 9.29793 
16 1 4.55085 6.22171 4.47322 
17 1 2.9881 7.79075 3.00762 
18 1 3.71066 7.06572 3.68437 
25 1 0.63404 10.1429 0.750401 
26 1 2.18595 8.59331 2.18479 
27 1 1.4588 9.31933 1.51266 
4 1 4.62497 6.1541 6.10704 
5 1 3.19871 7.54208 7.90385 
6 1 3.85571 6.91623 6.94054 
37 1 0.67439 10.1079 10.0825 
38 1 2.12969 8.6528 8.44884 
39 1 1.44 9.34739 9.19564 
49 2 3.04176 7.5978 9.29864 
13 1 6.24279 4.52822 4.5319 
14 1 7.78259 2.99126 3.00326 
15 1 7.07101 3.69982 3.7082 
28 1 10.1082 0.654715 0.683796 
29 1 8.59418 2.17492 2.19246 
30 1 9.30466 1.46629 1.48577 
1 1 6.1753 4.59708 6.17388 
2 1 7.68797 3.07737 7.68263 
3 1 6.98355 3.78762 6.97348 
40 1 10.0326 0.733117 10.0391 
41 1 8.50136 2.26125 8.48697 
42 1 9.20656 1.55808 9.20228 
7 1 6.18586 6.17337 4.60272 
8 1 7.69 7.69464 3.08776 
9 1 6.98544 6.98122 3.79362 
43 1 10.0334 10.062 0.754394 
44 1 8.50263 8.50342 2.27584 
45 1 9.20767 9.22126 1.57508 
22 1 6.29166 6.22449 6.21908 
23 1 7.77488 7.78605 7.77543 
24 1 7.08992 7.06443 7.05697 
34 1 10.0383 10.1492 10.121 
35 1 8.60036 8.59092 8.57688 
36 1 9.27338 9.32024 9.29957 
ITEM: TIMESTEP
100
ITEM: NUMBER OF ATOMS
49
ITEM: BOX BOUNDS pp pp pp
-2.1891934068396818e-02 1.1021891934068400e+01
-2.9406628132749621e-02 1.1031406628132745e+01
2.5927377875298490e-03 1.0997407262212466e+01
ITEM: ATOMS id type x y z 
10 1 4.59871 4.58425 4.60077 
11 1 3.07623 3.07446 3.0893 
12 1 3.78966 3.78167 3.79213 
46 1 0.710986 0.726797 0.753725 
47 1 2.26692 2.25845 2.27756 
48 1 1.55057 1.55323 1.57592 
19 1 4.55034 4.48306 6.21656 
20 1 2.99198 2.99604 7.77447 
21 1 3.71175 3.68127 7.05472 
31 1 0.626086 0.725274 10.1176 
32 1 2.18614 2.16844 8.57595 
33 1 1.4568 1.49376 9.29664 
16 1 4.55098 6.22168 4.47379 
17 1 2.98738 7.79192 3.00871 
18 1 3.70958 7.06677 3.68523 
25 1 0.630383 10.1473 0.750859 
26 1 2.18361 8.59615 2.18555 
27 1 1.4565 9.32231 1.51395 
4 1 4.62499 6.15406 6.10613 
5 1 3.19798 7.54302 7.90369 
6 1 3.85456 6.91746 6.94035 
37 1 0.670488 10.1128 10.0819 
38 1 2.127 8.65621 8.44874 
39 1 1.43688 9.35094 9.19386 
49 2 3.04117 7.59851 9.29767 
13 1 6.24261 4.5279 4.53266 
14 1 7.78338 2.98963 3.00439 
15 1 7.07211 3.69851 3.70882 
28 1 10.1116 0.650401 0.684533 
29 1 8.59637 2.17226 2.19317 
30 1 9.30643 1.46289 1.48726 
1 1 6.17496 4.59716 6.17283 
2 1 7.68928 3.07555 7.68159 
3 1 6.98438 3.78604 6.97373 
40 1 10.0358 0.728853 10.0386 
41 1 8.50371 2.25818 8.48679 
42 1 9.20889 1.5546 9.20123 
7 1 6.18551 6.17306 4.60354 
8 1 7.69109 7.69606 3.08841 
9 1 6.9867 6.98293 3.79425 
43 1 10.0366 10.0664 0.75528 
44 1 8.50496 8.5064 2.2762 
45 1 9.21003 9.22448 1.57612 
22 1 6.29165 6.22431 6.21832 
23 1 7.77568 7.78705 7.77413 
24 1 7.09063 7.06564 7.05611 
34 1 10.0419 10.1537 10.1204 
35 1 8.60235 8.59375 8.57636 
36 1 9.27552 9.32319 9.29828 
ITEM: TIMESTEP
110
ITEM: NUMBER OF ATOMS
49
ITEM: BOX BOUNDS pp pp pp
-2.5392348731462684e-02 1.1025392348731465e+01
-3.3909184761226174e-02 1.1035909184761220e+01
3.8520404725787922e-03 1.0996147959527413e+01
ITEM: ATOMS id type x y z 
10 1 4.59905 4.5844 4.60166 
11 1 3.07505 3.07275 3.08978 
12 1 3.78804 3.7798 3.79272 
46 1 0.707152 0.722383 0.754377 
47 1 2.26431 2.25524 2.27774 
48 1 1.54788 1.54997 1.57678 
19 1 4.55056 4.48269 6.21557 
20 1 2.99132 2.99451 7.77299 
21 1 3.7108 3.68035 7.05425 
31 1 0.622187 0.720564 10.1173 
32 1 2.18365 2.16555 8.57558 
33 1 1.45441 1.49069 9.29566 
16 1 4.55109 6.22155 4.47445 
17 1 2.98657 7.79301 3.00982 
18 1 3.70864 7.06782 3.6858 
25 1 0.626481 10.1519 0.751102 
26 1 2.18114 8.59908 2.18617 
27 1 1.45406 9.32521 1.51497 
4 1 4.62503 6.15399 6.10518 
5 1 3.19729 7.54384 7.90383 
6 1 3.85337 6.91866 6.94022 
37 1 0.666296 10.1178 10.0815 
38 1 2.12419 8.65964 8.44885 
39 1 1.43356 9.35461 9.19213 
49 2 3.04062 7.5991 9.29684 
13 1 6.24239 4.52763 4.53341 
14 1 7.78418 2.98803 3.00542 
15 1 7.07331 3.6972 3.70933 
28 1 10.1153 0.646029 0.684974 
29 1 8.59869 2.1696 2.1937 
30 1 9.30826 1.45942 1.48856 
1 1 6.1746 4.59732 6.17177 
2 1 7.69069 3.07372 7.68064 
3 1 6.98521 3.78447 6.97413 
40 1 10.0392 0.724533 10.0383 
41 1 8.50626 2.25505 8.48682 
42 1 9.21129 1.55107 9.20041 
7 1 6.18512 6.17269 4.60435 
8 1 7.69223 7.69747 3.0889 
9 1 6.98805 6.9847 3.79484 
43 1 10.0401 10.071 0.755902 
44 1 8.5075 8.50947 2.27633 
45 1 9.21246 9.22776 1.57689 
22 1 6.29155 6.22409 6.21747 
23 1 7.77647 7.78804 7.77284 
24 1 7.09144 7.06668 7.05538 
34 1 10.0456 10.1583 10.1201 
35 1 8.60448 8.59662 8.57599 
36 1 9.2777 9.32615 9.29727 
ITEM: TIMESTEP
120
ITEM: NUMBER OF ATOMS
49
ITEM: BOX BOUNDS pp pp pp
-2.9426379780651914e-02 1.1029426379780652e+01
-3.8813438708613278e-02 1.1040813438708605e+01
4.6906841552308001e-03 1.0995309315844759e+01
ITEM: ATOMS id type x y z 
10 1 4.59949 4.58468 4.60256 
11 1 3.07374 3.07094 3.09003 
12 1 3.78612 3.77768 3.79327 
46 1 0.702624 0.717512 0.754579 
47 1 2.26125 2.25167 2.27748 
48 1 1.54471 1.5464 1.57739 
19 1 4.55093 4.48242 6.21442 
20 1 2.99064 2.99289 7.77145 
21 1 3.70972 3.67944 7.05388 
31 1 0.617693 0.71542 10.1175 
32 1 2.18081 2.16243 8.5756 
33 1 1.45154 1.48736 9.29482 
16 1 4.55129 6.22131 4.4752 
17 1 2.9857 7.79411 3.01092 
18 1 3.7076 7.06886 3.68612 
25 1 0.621901 10.1569 0.750836 
26 1 2.17824 8.60228 2.18645 
27 1 1.45125 9.3285 1.51585 
4 1 4.62511 6.15385 6.10412 
5 1 3.19665 7.5445 7.90452 
6 1 3.85205 6.91992 6.94018 
37 1 0.661318 10.1236 10.0817 
38 1 2.12098 8.66338 8.44936 
39 1 1.42964 9.35879 9.19033 
49 2 3.04015 7.5995 9.29622 
13 1 6.24208 4.52741 4.53418 
14 1 7.78505 2.98633 3.00636 
15 1 7.07473 3.6958 3.70972 
28 1 10.1195 0.641238 0.684944 
29 1 8.60141 2.16675 2.19392 
30 1 9.3103 1.45556 1.48964 
1 1 6.17417 4.59761 6.17059 
2 1 7.69234 3.07173 7.67972 
3 1 6.98611 3.78273 6.97484 
40 1 10.0431 0.719643 10.0386 
41 1 8.50921 2.2514 8.48714 
42 1 9.21413 1.54748 9.20011 
7 1 6.18462 6.17218 4.60517 
8 1 7.69353 7.69894 3.08916 
9 1 6.98968 6.98671 3.79538 
43 1 10.044 10.0761 0.756048 
44 1 8.51047 8.51292 2.27601 
45 1 9.21534 9.23139 1.57742 
22 1 6.29128 6.22374 6.21645 
23 1 7.77729 7.78905 7.77146 
24 1 7.09242 7.06763 7.05478 
34 1 10.0498 10.1634 10.1204 
35 1 8.60692 8.59981 8.57591 
36 1 9.28016 9.32936 9.29655 
ITEM: TIMESTEP
130
ITEM: NUMBER OF ATOMS
49
ITEM: BOX BOUNDS pp pp pp
-3.2080825034289363e-02 1.1032080825034289e+01
-4.1890502375209700e-02 1.1043890502375200e+01
4.9745518998227777e-03 1.0995025448100165e+01
ITEM: ATOMS id type x y z 
10 1 4.5999 4.58501 4.60314 
11 1 3.07295 3.06986 3.09003 
12 1 3.78476 3.77623 3.79364 
46 1 0.69943 0.714357 0.754468 
47 1 2.25913 2.2493 2.27706 
48 1 1.54259 1.54414 1.57757 
19 1 4.55129 4.48259 6.21364 
20 1 2.99027 2.99217 7.77049 
21 1 3.70923 3.67858 7.05348 
31 1 0.614597 0.712104 10.1179 
32 1 2.17885 2.16046 8.57577 
33 1 1.44973 1.48536 9.29453 
16 1 4.55158 6.22096 4.47571 
17 1 2.98525 7.79462 3.01159 
18 1 3.70697 7.06948 3.68623 
25 1 0.618764 10.1603 0.750389 
26 1 2.17628 8.60441 2.18647 
27 1 1.44936 9.33051 1.51626 
4 1 4.62523 6.15368 6.10337 
5 1 3.19647 7.54461 7.90541 
6 1 3.85121 6.92066 6.9402 
37 1 0.657792 10.1275 10.0821 
38 1 2.11881 8.6658 8.44999 
39 1 1.4269 9.36165 9.18904 
49 2 3.0401 7.59943 9.29589 
13 1 6.24187 4.52745 4.53476 
14 1 7.78565 2.98542 3.00698 
15 1 7.07547 3.69483 3.70981 
28 1 10.1224 0.638167 0.684658 
29 1 8.60326 2.16496 2.19388 
30 1 9.31154 1.4531 1.4902 
1 1 6.1738 4.59794 6.16975 
2 1 7.69346 3.0705 7.67913 
3 1 6.98664 3.78161 6.97555 
40 1 10.0457 0.71649 10.0392 
41 1 8.51127 2.249 8.48759 
42 1 9.21597 1.54519 9.20015 
7 1 6.18418 6.17176 4.60573 
8 1 7.69431 7.69984 3.08922 
9 1 6.99088 6.98797 3.79564 
43 1 10.0467 10.0796 0.755885 
44 1 8.51255 8.51523 2.27554 
45 1 9.21722 9.23375 1.57753 
22 1 6.29096 6.2233 6.21566 
23 1 7.77776 7.78948 7.7705 
24 1 7.093 7.06817 7.05441 
34 1 10.0526 10.1667 10.1209 
35 1 8.60852 8.60188 8.57609 
36 1 9.28173 9.33138 9.29622 
ITEM: TIMESTEP
140
ITEM: NUMBER OF ATOMS
49
ITEM: BOX BOUNDS pp pp pp
-3.4702121807962248e-02 1.1034702121807960e+01
-4.4755206789160000e-02 1.1046755206789150e+01
4.1629949078714305e-03 1.0995837005092113e+01
ITEM: ATOMS id type x y z 
10 1 4.60019 4.58525 4.60342 
11 1 3.07212 3.06886 3.08954 
12 1 3.78348 3.77487 3.79367 
46 1 0.696335 0.71145 0.753484 
47 1 2.25709 2.24713 2.27607 
48 1 1.5405 1.54203 1.57698 
19 1 4.55159 4.48271 6.21307 
20 1 2.98984 2.9914 7.77006 
21 1 3.70866 3.67786 7.05346 
31 1 0.61163 0.709105 10.1192 
32 1 2.17693 2.15866 8.5765 
33 1 1.44794 1.4835 9.29502 
16 1 4.5518 6.22064 4.47594 
17 1 2.98472 7.79513 3.01166 
18 1 3.70634 7.07009 3.68598 
25 1 0.615762 10.1633 0.749138 
26 1 2.17435 8.60635 2.18587 
27 1 1.44752 9.33244 1.51585 
4 1 4.62525 6.15356 6.10285 
5 1 3.19627 7.54467 7.90678 
6 1 3.85042 6.92132 6.94047 
37 1 0.654403 10.1311 10.0834 
38 1 2.11676 8.66796 8.45115 
39 1 1.42423 9.36437 9.1885 
49 2 3.03999 7.59937 9.29628 
13 1 6.24173 4.52747 4.53505 
14 1 7.78631 2.98455 3.00703 
15 1 7.07618 3.69391 3.70955 
28 1 10.1249 0.63519 0.68357 
29 1 8.60488 2.16308 2.19326 
30 1 9.31314 1.45121 1.48983 
1 1 6.17356 4.59817 6.16917 
2 1 7.69458 3.06936 7.67902 
3 1 6.98714 3.78057 6.97648 
40 1 10.0483 0.713597 10.0406 
41 1 8.51323 2.2468 8.48856 
42 1 9.21778 1.54307 9.2009 
7 1 6.18395 6.1715 4.60615 
8 1 7.69524 7.7008 3.089 
9 1 6.99181 6.98896 3.79515 
43 1 10.0493 10.0828 0.754868 
44 1 8.51453 8.51735 2.27451 
45 1 9.21906 9.23592 1.57688 
22 1 6.2907 6.22292 6.21509 
23 1 7.77831 7.78993 7.77009 
24 1 7.0936 7.06869 7.05442 
34 1 10.0553 10.1698 10.1222 
35 1 8.61006 8.60379 8.57683 
36 1 9.28329 9.33325 9.29667 
ITEM: TIMESTEP
150
ITEM: NUMBER OF ATOMS
49
ITEM: BOX BOUNDS pp pp pp
-3.7423024529811867e-02 1.1037423024529811e+01
-4.7266900866710593e-02 1.1049266900866701e+01
2.5418042776047334e-03 1.0997458195722380e+01
ITEM: ATOMS id type x y z 
10 1 4.60039 4.58547 4.60371 
11 1 3.07115 3.06794 3.08889 
12 1 3.78237 3.77374 3.7931 
46 1 0.693077 0.708812 0.751815 
47 1 2.25498 2.24513 2.27456 
48 1 1.53828 1.54017 1.57583 
19 1 4.55194 4.483 6.21256 
20 1 2.98941 2.99085 7.76993 
21 1 3.70812 3.67718 7.0536 
31 1 0.608626 0.706375 10.1211 
32 1 2.17501 2.15703 8.57771 
33 1 1.44595 1.48203 9.29604 
16 1 4.55206 6.22022 4.47604 
17 1 2.98417 7.79548 3.01136 
18 1 3.7057 7.07055 3.6854 
25 1 0.612683 10.1661 0.747191 
26 1 2.17235 8.60813 2.18479 
27 1 1.44556 9.33413 1.51489 
4 1 4.62522 6.15341 6.10241 
5 1 3.19619 7.54441 7.90872 
6 1 3.84963 6.92183 6.94092 
37 1 0.650815 10.1345 10.0853 
38 1 2.11465 8.6699 8.45285 
39 1 1.42138 9.36699 9.18832 
49 2 3.03997 7.59902 9.29716 
13 1 6.24158 4.52757 4.53521 
14 1 7.78699 2.98384 3.00674 
15 1 7.07692 3.69314 3.70903 
28 1 10.1276 0.632573 0.681804 
29 1 8.60657 2.16144 2.19215 
30 1 9.31477 1.44956 1.4889 
1 1 6.17319 4.59845 6.16887 
2 1 7.69558 3.06841 7.6794 
3 1 6.98796 3.77958 6.9773 
40 1 10.0509 0.710983 10.0427 
41 1 8.51527 2.24478 8.48998 
42 1 9.21966 1.54122 9.20223 
7 1 6.18374 6.17117 4.60639 
8 1 7.6962 7.70161 3.08841 
9 1 6.9928 6.98985 3.7944 
43 1 10.052 10.0858 0.753149 
44 1 8.51658 8.51927 2.27295 
45 1 9.22097 9.23792 1.57573 