ITEM: TIMESTEP
0
ITEM: NUMBER OF ATOMS
80
ITEM: BOX BOUNDS pp pp pp
0.0000000000000000e+00 1.2991300000000001e+01
0.0000000000000000e+00 1.2991300000000001e+01
0.0000000000000000e+00 1.2991300000000001e+01
ITEM: ATOMS id type x y z 
21 1 2.05315 2.05315 2.05315 
22 1 2.90031 2.90031 2.90031 
23 1 0.604745 2.28322 2.28322 
33 1 2.28322 2.28322 0.604745 
37 1 2.28322 0.604745 2.28322 
41 1 4.4425 4.4425 4.4425 
42 1 3.59534 3.59534 3.59534 
43 1 4.21243 5.8909 4.21243 
53 1 4.21243 4.21243 5.8909 
57 1 5.8909 4.21243 4.21243 
4 1 2.05315 2.05315 10.9382 
5 1 2.90031 2.90031 10.091 
6 1 2.28322 0.604745 10.7081 
16 1 2.28322 2.28322 12.3866 
19 1 0.604745 2.28322 10.7081 
64 1 4.4425 4.4425 8.5488 
65 1 3.59534 3.59534 9.39596 
66 1 5.8909 4.21243 8.77887 
76 1 4.21243 4.21243 7.1004 
79 1 4.21243 5.8909 8.77887 
10 1 2.05315 10.9382 2.05315 
11 1 2.90031 10.091 2.90031 
12 1 2.28322 12.3866 2.28322 
15 1 2.28322 10.7081 0.604745 
18 1 0.604745 10.7081 2.28322 
67 1 4.4425 8.5488 4.4425 
68 1 3.59534 9.39596 3.59534 
69 1 5.8909 8.77887 4.21243 
74 1 4.21243 8.77887 5.8909 
80 1 4.21243 7.1004 4.21243 
30 1 2.05315 10.9382 10.9382 
31 1 2.90031 10.091 10.091 
32 1 0.604745 10.7081 10.7081 
35 1 2.28322 10.7081 12.3866 
38 1 2.28322 12.3866 10.7081 
47 1 4.4425 8.5488 8.5488 
48 1 3.59534 9.39596 9.39596 
49 1 4.21243 7.1004 8.77887 
54 1 4.21243 8.77887 7.1004 
60 1 5.8909 8.77887 8.77887 
7 1 10.9382 2.05315 2.05315 
8 1 10.091 2.90031 2.90031 
9 1 10.7081 0.604745 2.28322 
14 1 10.7081 2.28322 0.604745 
20 1 12.3866 2.28322 2.28322 
70 1 8.5488 4.4425 4.4425 
71 1 9.39596 3.59534 3.59534 
72 1 7.1004 4.21243 4.21243 
75 1 8.77887 4.21243 5.8909 
78 1 8.77887 5.8909 4.21243 
27 1 10.9382 2.05315 10.9382 
28 1 10.091 2.90031 10.091 
29 1 12.3866 2.28322 10.7081 
34 1 10.7081 2.28322 12.3866 
40 1 10.7081 0.604745 10.7081 
50 1 8.5488 4.4425 8.5488 
51 1 9.39596 3.59534 9.39596 
52 1 8.77887 5.8909 8.77887 
55 1 8.77887 4.21243 7.1004 
58 1 7.1004 4.21243 8.77887 
24 1 10.9382 10.9382 2.05315 
25 1 10.091 10.091 2.90031 
26 1 12.3866 10.7081 2.28322 
36 1 10.7081 10.7081 0.604745 
39 1 10.7081 12.3866 2.28322 
44 1 8.5488 8.5488 4.4425 
45 1 9.39596 9.39596 3.59534 
46 1 8.77887 7.1004 4.21243 
56 1 8.77887 8.77887 5.8909 
59 1 7.1004 8.77887 4.21243 
1 1 10.9382 10.9382 10.9382 
2 1 10.091 10.091 10.091 
3 1 10.7081 12.3866 10.7081 
13 1 10.7081 10.7081 12.3866 
17 1 12.3866 10.7081 10.7081 
61 1 8.5488 8.5488 8.5488 
62 1 9.39596 9.39596 9.39596 
63 1 7.1004 8.77887 8.77887 
73 1 8.77887 8.77887 7.1004 
77 1 8.77887 7.1004 8.77887 
ITEM: TIMESTEP
10
ITEM: NUMBER OF ATOMS
80
ITEM: BOX BOUNDS pp pp pp
0.0000000000000000e+00 1.2991300000000001e+01
0.0000000000000000e+00 1.2991300000000001e+01
0.0000000000000000e+00 1.2991300000000001e+01
ITEM: ATOMS id type x y z 
21 1 2.08933 2.08922 2.08922 
22 1 2.90046 2.9013 2.90129 
23 1 0.595572 2.30954 2.30954 
33 1 2.30957 2.30956 0.595541 
37 1 2.30957 0.595541 2.30956 
41 1 4.40632 4.40643 4.40643 
42 1 3.59519 3.59435 3.59436 
43 1 4.18608 5.90011 4.18609 
53 1 4.18608 4.18609 5.90011 
57 1 5.90008 4.18611 4.18611 
4 1 2.08928 2.08928 10.9021 
5 1 2.90082 2.90082 10.0899 
6 1 2.30955 0.59555 10.6817 
16 1 2.30957 2.30957 12.3958 
19 1 0.59555 2.30955 10.6817 
64 1 4.40637 4.40637 8.58486 
65 1 3.59483 3.59483 9.39705 
66 1 5.9001 4.1861 8.8052 
76 1 4.18608 4.18608 7.09118 
79 1 4.1861 5.9001 8.8052 
10 1 2.08929 10.9021 2.08927 
11 1 2.90076 10.0899 2.90089 
12 1 2.30957 12.3958 2.30957 
15 1 2.30955 10.6817 0.595549 
18 1 0.595553 10.6817 2.30955 
67 1 4.40636 8.58486 4.40638 
68 1 3.5949 9.39705 3.59476 
69 1 5.9001 8.8052 4.1861 
74 1 4.1861 8.8052 5.9001 
80 1 4.18608 7.09118 4.18608 
30 1 2.08932 10.9021 10.9021 
31 1 2.90038 10.09 10.09 
32 1 0.595538 10.6818 10.6818 
35 1 2.30957 10.6817 12.3958 
38 1 2.30957 12.3958 10.6817 
47 1 4.40633 8.58487 8.58487 
48 1 3.59527 9.39696 9.39696 
49 1 4.18608 7.09116 8.80521 
54 1 4.18608 8.80521 7.09117 
60 1 5.90012 8.80518 8.80519 
7 1 10.9021 2.08929 2.08926 
8 1 10.0899 2.90075 2.90088 
9 1 10.6818 0.595556 2.30955 
14 1 10.6817 2.30955 0.595552 
20 1 12.3958 2.30957 2.30957 
70 1 8.58487 4.40636 4.40639 
71 1 9.39704 3.59491 3.59477 
72 1 7.09113 4.18608 4.18608 
75 1 8.8052 4.1861 5.9001 
78 1 8.8052 5.90009 4.1861 
27 1 10.9021 2.08932 10.9021 
28 1 10.09 2.90038 10.09 
29 1 12.3958 2.30957 10.6817 
34 1 10.6817 2.30957 12.3958 
40 1 10.6818 0.595537 10.6818 
50 1 8.58487 4.40633 8.58487 
51 1 9.39696 3.59527 9.39696 
52 1 8.80518 5.90012 8.80519 
55 1 8.80521 4.18608 7.09116 
58 1 7.09116 4.18608 8.80521 
24 1 10.9021 10.9021 2.08932 
25 1 10.09 10.09 2.90039 
26 1 12.3958 10.6817 2.30957 
36 1 10.6818 10.6818 0.595568 
39 1 10.6817 12.3958 2.30957 
44 1 8.58487 8.58487 4.40633 
45 1 9.39696 9.39696 3.59526 
46 1 8.80521 7.09115 4.18608 
56 1 8.80518 8.80518 5.90008 
59 1 7.09116 8.80521 4.18608 
1 1 10.902 10.902 10.9021 
2 1 10.0905 10.0905 10.0899 
3 1 10.6818 12.3958 10.6818 
13 1 10.6817 10.6817 12.3958 
17 1 12.3958 10.6818 10.6818 
61 1 8.58492 8.58492 8.58485 
62 1 9.39646 9.39646 9.39701 
63 1 7.09116 8.8052 8.80519 
73 1 8.80521 8.80521 7.09114 
77 1 8.8052 7.09116 8.80519 
ITEM: TIMESTEP
20
ITEM: NUMBER OF ATOMS
80
ITEM: BOX BOUNDS pp pp pp
0.0000000000000000e+00 1.2991300000000001e+01
0.0000000000000000e+00 1.2991300000000001e+01
0.0000000000000000e+00 1.2991300000000001e+01
ITEM: ATOMS id type x y z 
21 1 2.07165 2.0716 2.0716 
22 1 2.90054 2.90206 2.90206 
23 1 0.599746 2.3361 2.33611 
33 1 2.33623 2.33619 0.599802 
37 1 2.33622 0.599786 2.3362 
41 1 4.424 4.42405 4.42405 
42 1 3.5951 3.59359 3.59359 
43 1 4.15943 5.89586 4.15945 
53 1 4.15942 4.15946 5.89585 
57 1 5.89591 4.15955 4.15954 
4 1 2.07155 2.07155 10.9197 
5 1 2.90103 2.90104 10.0895 
6 1 2.33615 0.599777 10.6552 
16 1 2.33621 2.33622 12.3915 
19 1 0.599775 2.33615 10.6552 
64 1 4.4241 4.4241 8.5672 
65 1 3.59462 3.59462 9.39747 
66 1 5.89588 4.1595 8.83179 
76 1 4.15944 4.15943 7.09547 
79 1 4.1595 5.89587 8.83179 
10 1 2.07159 10.9197 2.07149 
11 1 2.90066 10.0895 2.9015 
12 1 2.33621 12.3915 2.33621 
15 1 2.33617 10.6551 0.599753 
18 1 0.599832 10.6552 2.33613 
67 1 4.42406 8.56721 4.42416 
68 1 3.595 9.39741 3.59415 
69 1 5.89581 8.83178 4.15952 
74 1 4.15948 8.83181 5.8959 
80 1 4.15944 7.09546 4.15944 
30 1 2.07157 10.9198 10.9198 
31 1 2.90025 10.0894 10.0894 
32 1 0.599639 10.6552 10.6552 
35 1 2.33621 10.6551 12.3915 
38 1 2.33621 12.3915 10.6551 
47 1 4.42407 8.56716 8.56717 
48 1 3.5954 9.3975 9.3975 
49 1 4.15944 7.09543 8.83183 
54 1 4.15944 8.83183 7.09545 
60 1 5.896 8.83173 8.83173 
7 1 10.9198 2.07159 2.07149 
8 1 10.0896 2.9006 2.90144 
9 1 10.6552 0.599885 2.33612 
14 1 10.6552 2.33616 0.599803 
20 1 12.3916 2.3362 2.33619 
70 1 8.56713 4.42406 4.42416 
71 1 9.39734 3.59505 3.59421 
72 1 7.09538 4.15945 4.15946 
75 1 8.8318 4.15949 5.89585 
78 1 8.83177 5.89576 4.15953 
27 1 10.9198 2.07157 10.9198 
28 1 10.0895 2.90024 10.0895 
29 1 12.3915 2.33621 10.6551 
34 1 10.6551 2.33621 12.3915 
40 1 10.6552 0.599641 10.6552 
50 1 8.56716 4.42408 8.56716 
51 1 9.3975 3.59541 9.39749 
52 1 8.83173 5.89599 8.83173 
55 1 8.83183 4.15944 7.09547 
58 1 7.09544 4.15944 8.83182 
24 1 10.9198 10.9198 2.07161 
25 1 10.0895 10.0895 2.90017 
26 1 12.3915 10.6551 2.33621 
36 1 10.6552 10.6552 0.599789 
39 1 10.6551 12.3915 2.33621 
44 1 8.56714 8.56714 4.42405 
45 1 9.39742 9.39742 3.59548 
46 1 8.83182 7.09549 4.15944 
56 1 8.83173 8.83173 5.89589 
59 1 7.09547 8.83182 4.15944 
1 1 10.9196 10.9196 10.9196 
2 1 10.0895 10.0895 10.0888 
3 1 10.6552 12.3916 10.6552 
13 1 10.6551 10.6551 12.3915 
17 1 12.3916 10.6552 10.6552 
61 1 8.56737 8.56737 8.56735 
62 1 9.39742 9.39742 9.39817 
63 1 7.09534 8.83179 8.83177 
73 1 8.83184 8.83184 7.09542 
77 1 8.83179 7.09533 8.83177 
ITEM: TIMESTEP
30
ITEM: NUMBER OF ATOMS
80
ITEM: BOX BOUNDS pp pp pp
0.0000000000000000e+00 1.2991300000000001e+01
0.0000000000000000e+00 1.2991300000000001e+01
0.0000000000000000e+00 1.2991300000000001e+01
ITEM: ATOMS id type x y z 
21 1 2.05836 2.05886 2.05889 
22 1 2.89634 2.89836 2.89837 
23 1 0.591665 2.41562 2.41563 
33 1 2.41612 2.41601 0.592534 
37 1 2.41612 0.59253 2.41602 
41 1 4.43729 4.43679 4.43677 
42 1 3.59931 3.5973 3.59729 
43 1 4.07953 5.90312 4.07963 
53 1 4.07953 4.07964 5.90311 
57 1 5.90399 4.08002 4.08001 
4 1 2.05854 2.05856 10.9322 
5 1 2.89769 2.89768 10.0938 
6 1 2.41596 0.592259 10.5755 
16 1 2.41612 2.41607 12.399 
19 1 0.592183 2.41596 10.5754 
64 1 4.43711 4.43709 8.55471 
65 1 3.59796 3.59797 9.39311 
66 1 5.90347 4.07969 8.9115 
76 1 4.07953 4.07958 7.08798 
79 1 4.07969 5.90339 8.9115 
10 1 2.05823 10.9325 2.05894 
11 1 2.89696 10.0928 2.89868 
12 1 2.41614 12.3989 2.41598 
15 1 2.41613 10.5753 0.592242 
18 1 0.59157 10.5756 2.41573 
67 1 4.43743 8.55444 4.43671 
68 1 3.59869 9.39411 3.59696 
69 1 5.90407 8.91133 4.07993 
74 1 4.07952 8.91163 5.90341 
80 1 4.07951 7.08803 4.07967 
30 1 2.05845 10.9322 10.9321 
31 1 2.89513 10.0939 10.0939 
32 1 0.591641 10.5757 10.5757 
35 1 2.41617 10.5753 12.3988 
38 1 2.41616 12.3988 10.5753 
47 1 4.43722 8.55476 8.55482 
48 1 3.60051 9.39309 9.3931 
49 1 4.07949 7.08811 8.91167 
54 1 4.07948 8.91168 7.08813 
60 1 5.904 8.91126 8.91124 
7 1 10.9295 2.06104 2.06165 
8 1 10.0932 2.89623 2.89834 
9 1 10.5763 0.592183 2.41508 
14 1 10.576 2.4155 0.592785 
20 1 12.3984 2.41551 2.4154 
70 1 8.55747 4.43462 4.434 
71 1 9.39375 3.59942 3.59731 
72 1 7.08857 4.08013 4.08024 
75 1 8.911 4.08014 5.90287 
78 1 8.91068 5.90345 4.08057 
27 1 10.9321 2.0586 10.9322 
28 1 10.0942 2.89474 10.0942 
29 1 12.3989 2.41614 10.5753 
34 1 10.5753 2.4161 12.3995 
40 1 10.5757 0.591619 10.5757 
50 1 8.5549 4.43707 8.55476 
51 1 9.39277 3.6009 9.39276 
52 1 8.91124 5.90402 8.91122 
55 1 8.91162 4.07955 7.08742 
58 1 7.08809 4.07951 8.91165 
24 1 10.9296 10.9298 2.06088 
25 1 10.0941 10.0941 2.8946 
26 1 12.3983 10.5759 2.41559 
36 1 10.5763 10.5763 0.592264 
39 1 10.5759 12.399 2.41554 
44 1 8.55733 8.55713 4.43473 
45 1 9.39286 9.39283 3.60105 
46 1 8.91103 7.08795 4.08012 
56 1 8.91065 8.91064 5.90343 
59 1 7.08865 8.91108 4.08006 
1 1 10.9311 10.9311 10.9309 
2 1 10.0957 10.0957 10.0954 
3 1 10.5757 12.3988 10.5758 
13 1 10.5756 10.5756 12.3994 
17 1 12.3988 10.5757 10.5758 
61 1 8.55586 8.55586 8.55604 
62 1 9.39127 9.39127 9.39152 
63 1 7.0882 8.91123 8.91117 
73 1 8.91135 8.91135 7.0875 
77 1 8.91123 7.08813 8.91117 
ITEM: TIMESTEP
40
ITEM: NUMBER OF ATOMS
80
ITEM: BOX BOUNDS pp pp pp
0.0000000000000000e+00 1.2991300000000001e+01
0.0000000000000000e+00 1.2991300000000001e+01
0.0000000000000000e+00 1.2991300000000001e+01
ITEM: ATOMS id type x y z 
21 1 2.04354 2.0467 2.04694 
22 1 2.89756 2.89957 2.8996 
23 1 0.594778 2.40817 2.40844 
33 1 2.40972 2.4092 0.593115 
37 1 2.40948 0.593604 2.40924 
41 1 4.45213 4.44897 4.44873 
42 1 3.59808 3.59606 3.59604 
43 1 4.08617 5.90204 4.08641 
53 1 4.08593 4.08645 5.90253 
57 1 5.90087 4.08748 4.0872 
4 1 2.0465 2.04638 10.9472 
5 1 2.89824 2.89828 10.0925 
6 1 2.40899 0.593416 10.5818 
16 1 2.40877 2.40898 12.3968 
19 1 0.59335 2.409 10.5818 
64 1 4.44915 4.44927 8.53974 
65 1 3.59742 3.59738 9.39443 
66 1 5.9023 4.08665 8.90514 
76 1 4.08687 4.08667 7.09017 
79 1 4.08666 5.90223 8.90514 
10 1 2.04357 10.945 2.04686 
11 1 2.89768 10.0919 2.89953 
12 1 2.40944 12.3977 2.40914 
15 1 2.40948 10.5821 0.593356 
18 1 0.594731 10.5828 2.40825 
67 1 4.45207 8.542 4.44878 
68 1 3.59798 9.39505 3.59613 
69 1 5.90092 8.90413 4.0874 
74 1 4.08617 8.90488 5.90229 
80 1 4.08621 7.08926 4.08651 
30 1 2.04372 10.9446 10.9449 
31 1 2.89671 10.0923 10.0923 
32 1 0.594058 10.583 10.5827 
35 1 2.40954 10.5821 12.3976 
38 1 2.4098 12.3978 10.5822 
47 1 4.45191 8.54241 8.54203 
48 1 3.59895 9.39466 9.39462 
49 1 4.08585 7.08913 8.90474 
54 1 4.08611 8.90488 7.08932 
60 1 5.9016 8.90398 8.90425 
7 1 10.9442 2.04346 2.04691 
8 1 10.0919 2.89726 2.89954 
9 1 10.5829 0.594838 2.40806 
14 1 10.5822 2.40936 0.593341 
20 1 12.3984 2.40955 2.40903 
70 1 8.54279 4.45218 4.44875 
71 1 9.39503 3.59839 3.59611 
72 1 7.0885 4.0861 4.08662 
75 1 8.90479 4.0863 5.90231 
78 1 8.904 5.90082 4.08759 
27 1 10.9446 2.04367 10.945 
28 1 10.0924 2.89653 10.0924 
29 1 12.3978 2.40981 10.5822 
34 1 10.5822 2.40944 12.3977 
40 1 10.583 0.594067 10.5827 
50 1 8.54236 4.45195 8.54197 
51 1 9.39454 3.59913 9.3945 
52 1 8.90398 5.90159 8.90423 
55 1 8.90476 4.08621 7.08923 
58 1 7.08914 4.08584 8.90473 
24 1 10.944 10.944 2.04283 
25 1 10.0922 10.0922 2.89647 
26 1 12.3986 10.5821 2.40972 
36 1 10.5832 10.5832 0.595161 
39 1 10.5823 12.3987 2.40963 
44 1 8.54293 8.54298 4.45282 
45 1 9.39478 9.39478 3.59917 
46 1 8.9047 7.08823 4.08602 
56 1 8.90378 8.90376 5.90048 
59 1 7.08838 8.9048 4.08593 
1 1 10.9463 10.9463 10.9431 
2 1 10.0933 10.0933 10.0929 
3 1 10.5822 12.3976 10.5826 
13 1 10.5817 10.5817 12.3994 
17 1 12.3976 10.5822 10.5826 
61 1 8.54063 8.54064 8.54383 
62 1 9.39366 9.39366 9.39408 
63 1 7.08938 8.90475 8.90434 
73 1 8.90523 8.90523 7.08754 
77 1 8.90475 7.08935 8.90434 
ITEM: TIMESTEP
50
ITEM: NUMBER OF ATOMS
80
ITEM: BOX BOUNDS pp pp pp
0.0000000000000000e+00 1.2991300000000001e+01
0.0000000000000000e+00 1.2991300000000001e+01
0.0000000000000000e+00 1.2991300000000001e+01
ITEM: ATOMS id type x y z 
21 1 2.04489 2.04534 2.04546 
22 1 2.89883 2.89907 2.89909 
23 1 0.59352 2.40586 2.40568 
33 1 2.40625 2.40614 0.594158 
37 1 2.40633 0.593928 2.40607 
41 1 4.45076 4.45031 4.4502 
42 1 3.59682 3.59659 3.59656 
43 1 4.08932 5.90172 4.08958 
53 1 4.0894 4.0895 5.90149 
57 1 5.90213 4.08978 4.08997 
4 1 2.04527 2.04534 10.9461 
5 1 2.89892 2.89875 10.0921 
6 1 2.4062 0.593714 10.5853 
16 1 2.4062 2.40602 12.3976 
19 1 0.593703 2.40621 10.5853 
64 1 4.45038 4.4503 8.54087 
65 1 3.59673 3.59691 9.39485 
66 1 5.90195 4.08945 8.90163 
76 1 4.08945 4.08963 7.08937 
79 1 4.08945 5.90194 8.90163 
10 1 2.04497 10.946 2.04551 
11 1 2.89907 10.0923 2.89891 
12 1 2.40626 12.3974 2.40603 
15 1 2.40633 10.5853 0.593868 
18 1 0.593525 10.5856 2.40595 
67 1 4.45068 8.54095 4.45014 
68 1 3.59658 9.39463 3.59674 
69 1 5.90212 8.90137 4.0897 
74 1 4.08932 8.90166 5.90178 
80 1 4.08939 7.08953 4.08962 
30 1 2.04531 10.9461 10.946 
31 1 2.89888 10.0924 10.0922 
32 1 0.593714 10.5853 10.5855 
35 1 2.4063 10.5851 12.3974 
38 1 2.40616 12.3973 10.5851 
47 1 4.45034 8.54088 8.54094 
48 1 3.59676 9.39456 9.39475 
49 1 4.08949 7.0897 8.90185 
54 1 4.08935 8.90183 7.08955 
60 1 5.90194 8.90164 8.90149 
7 1 10.9458 2.04508 2.04521 
8 1 10.0929 2.89965 2.89892 
9 1 10.5855 0.593301 2.406 
14 1 10.5853 2.40623 0.593821 
20 1 12.397 2.40601 2.40602 
70 1 8.54118 4.45056 4.45045 
71 1 9.394 3.59601 3.59672 
72 1 7.08991 4.08964 4.08962 
75 1 8.90166 4.08942 5.90183 
78 1 8.90146 5.90235 4.08965 
27 1 10.9459 2.04491 10.9458 
28 1 10.0928 2.89953 10.0925 
29 1 12.3973 2.4062 10.5851 
34 1 10.5852 2.40627 12.3974 
40 1 10.5853 0.593749 10.5855 
50 1 8.54104 4.45073 8.54112 
51 1 9.3941 3.59613 9.3945 
52 1 8.90161 5.9019 8.90146 
55 1 8.90174 4.08939 7.08954 
58 1 7.08968 4.08945 8.90186 
24 1 10.9462 10.946 2.0453 
25 1 10.0924 10.0925 2.89926 
26 1 12.3971 10.5852 2.40615 
36 1 10.5853 10.5853 0.593131 
39 1 10.5852 12.3969 2.40606 
44 1 8.54079 8.54094 4.45035 
45 1 9.39454 9.39444 3.59639 
46 1 8.9017 7.09004 4.08959 
56 1 8.90168 8.90168 5.90252 
59 1 7.08989 8.90179 4.0895 
1 1 10.9464 10.9464 10.9457 
2 1 10.0921 10.0921 10.0928 
3 1 10.5852 12.3971 10.5852 
13 1 10.5851 10.5851 12.3969 
17 1 12.3971 10.5852 10.5852 
61 1 8.54058 8.54057 8.54123 
62 1 9.39488 9.39487 9.39412 
63 1 7.08988 8.90171 8.90175 
73 1 8.90185 8.90184 7.09003 
77 1 8.90171 7.08985 8.90173 
ITEM: TIMESTEP
60
ITEM: NUMBER OF ATOMS
80
ITEM: BOX BOUNDS pp pp pp
0.0000000000000000e+00 1.2991300000000001e+01
0.0000000000000000e+00 1.2991300000000001e+01
0.0000000000000000e+00 1.2991300000000001e+01
ITEM: ATOMS id type x y z 
21 1 2.04505 2.04484 2.04493 
22 1 2.89887 2.89902 2.89904 
23 1 0.593886 2.40374 2.40367 
33 1 2.40396 2.40391 0.594398 
37 1 2.40401 0.59426 2.40387 
41 1 4.4506 4.45081 4.45072 
42 1 3.59677 3.59663 3.59661 
43 1 4.09164 5.90139 4.09178 
53 1 4.09169 4.09174 5.90125 
57 1 5.90177 4.0919 4.09198 
4 1 2.04503 2.045 10.9464 
5 1 2.899 2.89894 10.0923 
6 1 2.40392 0.594146 10.5875 
16 1 2.40398 2.4038 12.3973 
19 1 0.594168 2.40395 10.5875 
64 1 4.45062 4.45065 8.54056 
65 1 3.59665 3.59671 9.39464 
66 1 5.90148 4.0917 8.89945 
76 1 4.09167 4.09185 7.08967 
79 1 4.09173 5.9015 8.89946 
10 1 2.04481 10.9463 2.04514 
11 1 2.89898 10.0924 2.89901 
12 1 2.40408 12.3972 2.40381 
15 1 2.40407 10.5874 0.594182 
18 1 0.594027 10.5877 2.40377 
67 1 4.45084 8.54061 4.45051 
68 1 3.59667 9.3946 3.59664 
69 1 5.90162 8.89924 4.09188 
74 1 4.09158 8.89951 5.90147 
80 1 4.09157 7.08976 4.09184 
30 1 2.0451 10.9463 10.9465 
31 1 2.89902 10.0923 10.0924 
32 1 0.594189 10.5875 10.5875 
35 1 2.40412 10.5874 12.3971 
38 1 2.40404 12.3972 10.5873 
47 1 4.45055 8.54069 8.54047 
48 1 3.59663 9.39465 9.39453 
49 1 4.09161 7.08977 8.89965 
54 1 4.09153 8.89957 7.08982 
60 1 5.90146 8.89949 8.8994 
7 1 10.9461 2.04478 2.04488 
8 1 10.0924 2.89905 2.89896 
9 1 10.5876 0.593907 2.40379 
14 1 10.5874 2.40402 0.594124 
20 1 12.3969 2.4039 2.40384 
70 1 8.54087 4.45088 4.45077 
71 1 9.39458 3.59662 3.59667 
72 1 7.09008 4.09175 4.09181 
75 1 8.89957 4.09162 5.90153 
78 1 8.89938 5.90174 4.09186 
27 1 10.9463 2.04494 10.9463 
28 1 10.0923 2.89891 10.0923 
29 1 12.3972 2.40408 10.5873 
34 1 10.5874 2.4041 12.3971 
40 1 10.5875 0.594195 10.5875 
50 1 8.54063 4.45071 8.54065 
51 1 9.39466 3.59674 9.39466 
52 1 8.89948 5.90145 8.8994 
55 1 8.89954 4.09154 7.08989 
58 1 7.08978 4.09158 8.89967 
24 1 10.9462 10.946 2.04444 
25 1 10.0923 10.0922 2.89884 
26 1 12.397 10.5873 2.40406 
36 1 10.5875 10.5875 0.593912 
39 1 10.5874 12.3969 2.40402 
44 1 8.54075 8.54093 4.45121 
45 1 9.39468 9.39473 3.59681 
46 1 8.89957 7.09006 4.09163 
56 1 8.89944 8.89946 5.90173 
59 1 7.08993 8.89965 4.09159 
1 1 10.9464 10.9463 10.9462 
2 1 10.0923 10.0923 10.0923 
3 1 10.5873 12.3971 10.5873 
13 1 10.5872 10.5872 12.3969 
17 1 12.3971 10.5873 10.5873 
61 1 8.54056 8.54062 8.54075 
62 1 9.39462 9.39463 9.39462 
63 1 7.08987 8.89967 8.89968 
73 1 8.89973 8.89971 7.09001 
77 1 8.89968 7.08984 8.89968 
ITEM: TIMESTEP
70
ITEM: NUMBER OF ATOMS
80
ITEM: BOX BOUNDS pp pp pp
0.0000000000000000e+00 1.2991300000000001e+01
0.0000000000000000e+00 1.2991300000000001e+01
0.0000000000000000e+00 1.2991300000000001e+01
ITEM: ATOMS id type x y z 
21 1 2.04495 2.04488 2.04497 
22 1 2.89903 2.89896 2.89896 
23 1 0.593891 2.40364 2.40356 
33 1 2.40387 2.40381 0.594323 
37 1 2.40392 0.594217 2.40377 
41 1 4.45067 4.45079 4.45069 
42 1 3.59665 3.59667 3.59668 
43 1 4.09173 5.90143 4.09188 
53 1 4.09178 4.09184 5.90133 
57 1 5.90176 4.09201 4.09209 
4 1 2.04504 2.04499 10.9464 
5 1 2.89896 2.89899 10.0923 
6 1 2.40382 0.594152 10.5876 
16 1 2.40386 2.4037 12.3973 
19 1 0.594165 2.40385 10.5876 
64 1 4.45061 4.45066 8.54053 
65 1 3.59669 3.59666 9.39463 
66 1 5.90149 4.0918 8.89935 
76 1 4.09178 4.09195 7.08963 
79 1 4.09184 5.9015 8.89937 
10 1 2.04486 10.9464 2.04507 
11 1 2.89891 10.0924 2.89909 
12 1 2.40397 12.3972 2.40371 
15 1 2.40396 10.5875 0.59418 
18 1 0.594022 10.5878 2.40368 
67 1 4.45079 8.5406 4.45058 
68 1 3.59674 9.39459 3.59656 
69 1 5.90163 8.89914 4.09197 
74 1 4.09169 8.8994 5.90147 
80 1 4.09168 7.08975 4.09194 
30 1 2.04509 10.9463 10.9465 
31 1 2.89896 10.0923 10.0924 
32 1 0.594141 10.5876 10.5877 
35 1 2.40402 10.5875 12.3972 
38 1 2.40394 12.3971 10.5874 
47 1 4.45056 8.54066 8.54048 
48 1 3.59668 9.3947 9.39457 
49 1 4.09172 7.0898 8.89954 
54 1 4.09163 8.89947 7.08977 
60 1 5.90151 8.89938 8.8993 
7 1 10.9461 2.0448 2.04486 
8 1 10.0923 2.89895 2.89895 
9 1 10.5877 0.593884 2.40369 
14 1 10.5875 2.40392 0.594093 
20 1 12.3969 2.4038 2.40374 
70 1 8.54082 4.45085 4.45077 
71 1 9.3947 3.59672 3.59669 
72 1 7.09005 4.09185 4.09192 
75 1 8.89947 4.09173 5.90156 
78 1 8.89928 5.90176 4.09196 
27 1 10.9463 2.04492 10.9463 
28 1 10.0924 2.89902 10.0923 
29 1 12.3972 2.40397 10.5874 
34 1 10.5875 2.404 12.3971 
40 1 10.5876 0.594151 10.5876 
50 1 8.54063 4.45073 8.54065 
51 1 9.3946 3.59663 9.39462 
52 1 8.89938 5.9015 8.8993 
55 1 8.89943 4.09165 7.08986 
58 1 7.08978 4.09168 8.89956 
24 1 10.9462 10.9461 2.0445 
25 1 10.0923 10.0922 2.89886 
26 1 12.397 10.5874 2.40394 
36 1 10.5876 10.5876 0.593941 
39 1 10.5875 12.3969 2.4039 
44 1 8.54072 8.54089 4.45115 
45 1 9.39467 9.39472 3.5968 
46 1 8.89947 7.09006 4.09175 
56 1 8.89935 8.89938 5.90171 
59 1 7.08995 8.89954 4.09171 
1 1 10.9464 10.9463 10.9462 
2 1 10.0924 10.0923 10.0923 
3 1 10.5874 12.3971 10.5874 
13 1 10.5873 10.5873 12.3969 
17 1 12.3972 10.5874 10.5874 
61 1 8.54056 8.54061 8.54073 
62 1 9.39459 9.3946 9.39469 
63 1 7.0898 8.89956 8.89957 
73 1 8.89963 8.89961 7.09009 
77 1 8.89957 7.08981 8.89957 
ITEM: TIMESTEP
80
ITEM: NUMBER OF ATOMS
80
ITEM: BOX BOUNDS pp pp pp
0.0000000000000000e+00 1.2991300000000001e+01
0.0000000000000000e+00 1.2991300000000001e+01
0.0000000000000000e+00 1.2991300000000001e+01
ITEM: ATOMS id type x y z 
21 1 2.04436 2.04471 2.04476 
22 1 2.89898 2.899 2.89903 
23 1 0.59433 2.40009 2.40007 
33 1 2.40033 2.4002 0.594454 
37 1 2.4004 0.594438 2.40019 
41 1 4.45147 4.45083 4.45085 
42 1 3.59686 3.59655 3.59656 
43 1 4.09519 5.90129 4.09545 
53 1 4.09527 4.09546 5.90123 
57 1 5.90127 4.09564 4.09565 
4 1 2.04447 2.04453 10.9468 
5 1 2.89907 2.89895 10.0923 
6 1 2.4002 0.594442 10.5911 
16 1 2.40026 2.40021 12.3969 
19 1 0.59455 2.40021 10.5912 
64 1 4.45111 4.45114 8.54015 
65 1 3.59663 3.59665 9.39468 
66 1 5.9011 4.09544 8.89579 
76 1 4.09541 4.09543 7.0901 
79 1 4.09545 5.90121 8.89584 
10 1 2.04474 10.9468 2.04436 
11 1 2.89892 10.0923 2.89913 
12 1 2.40032 12.3968 2.40024 
15 1 2.40031 10.5911 0.594574 
18 1 0.59441 10.5913 2.40025 
67 1 4.4511 8.54016 4.45111 
68 1 3.59651 9.39463 3.59671 
69 1 5.90124 8.8957 4.09539 
74 1 4.09534 8.89584 5.9011 
80 1 4.09535 7.09015 4.0954 
30 1 2.04462 10.9468 10.9468 
31 1 2.89906 10.0924 10.0922 
32 1 0.594628 10.5911 10.5912 
35 1 2.40043 10.5911 12.3969 
38 1 2.40029 12.3968 10.5912 
47 1 4.45099 8.54001 8.54022 
48 1 3.59658 9.39467 9.39461 
49 1 4.09536 7.09017 8.89579 
54 1 4.09522 8.89585 7.08999 
60 1 5.90103 8.89583 8.89574 
7 1 10.9466 2.04441 2.04459 
8 1 10.0921 2.89894 2.89896 
9 1 10.5912 0.594323 2.40016 
14 1 10.591 2.40028 0.594449 
20 1 12.3967 2.40013 2.40007 
70 1 8.54028 4.45117 4.4511 
71 1 9.39457 3.59668 3.59652 
72 1 7.09026 4.09558 4.09564 
75 1 8.89597 4.09536 5.90124 
78 1 8.89581 5.90137 4.09549 
27 1 10.9469 2.04471 10.9467 
28 1 10.0924 2.89914 10.0923 
29 1 12.3969 2.40032 10.5911 
34 1 10.5911 2.40039 12.3968 
40 1 10.5911 0.59449 10.5911 
50 1 8.54002 4.45094 8.54021 
51 1 9.39458 3.59651 9.39461 
52 1 8.89587 5.90117 8.89585 
55 1 8.89583 4.09525 7.09016 
58 1 7.09003 4.09533 8.89586 
24 1 10.9467 10.9468 2.04477 
25 1 10.0922 10.0925 2.89906 
26 1 12.3968 10.591 2.40019 
36 1 10.5909 10.5909 0.594063 
39 1 10.5911 12.3967 2.40012 
44 1 8.5402 8.54017 4.45085 
45 1 9.39476 9.39444 3.59653 
46 1 8.89584 7.0903 4.09554 
56 1 8.89605 8.8961 5.90162 
59 1 7.09017 8.89597 4.09547 
1 1 10.9469 10.9468 10.9467 
2 1 10.0923 10.0923 10.0923 
3 1 10.591 12.3969 10.591 
13 1 10.591 10.591 12.3965 
17 1 12.397 10.591 10.591 
61 1 8.54004 8.54012 8.5403 
62 1 9.39469 9.39465 9.39468 
63 1 7.08994 8.89593 8.89598 
73 1 8.89595 8.89596 7.09046 
77 1 8.89595 7.09005 8.89598 
ITEM: TIMESTEP
88
ITEM: NUMBER OF ATOMS
80
ITEM: BOX BOUNDS pp pp pp
0.0000000000000000e+00 1.2991300000000001e+01
0.0000000000000000e+00 1.2991300000000001e+01
0.0000000000000000e+00 1.2991300000000001e+01
ITEM: ATOMS id type x y z 
21 1 2.04439 2.04468 2.04472 
22 1 2.89899 2.89899 2.89902 
23 1 0.594319 2.40013 2.40011 
33 1 2.40036 2.40023 0.594474 
37 1 2.40042 0.594456 2.40022 
41 1 4.45142 4.45088 4.45088 
42 1 3.59682 3.59656 3.59659 
43 1 4.09518 5.90125 4.09542 
53 1 4.09525 4.09543 5.9012 
57 1 5.90129 4.0956 4.09561 
4 1 2.04451 2.0445 10.9468 
5 1 2.89902 2.899 10.0923 
6 1 2.40023 0.594452 10.5911 
16 1 2.4003 2.40024 12.3969 
19 1 0.59455 2.40025 10.5911 
64 1 4.45113 4.45114 8.54017 
65 1 3.59664 3.59663 9.39466 
66 1 5.9011 4.0954 8.89582 
76 1 4.09537 4.0954 7.09008 
79 1 4.09541 5.9012 8.89587 
10 1 2.04462 10.9468 2.04447 
11 1 2.89899 10.0923 2.89903 
12 1 2.40036 12.3969 2.40027 
15 1 2.40035 10.5911 0.594552 
18 1 0.594422 10.5912 2.40027 
67 1 4.45105 8.54015 4.45115 
68 1 3.59659 9.39465 3.59668 
69 1 5.90124 8.89574 4.09537 
74 1 4.09531 8.89588 5.90111 
80 1 4.0953 7.09013 4.09537 
30 1 2.04463 10.9469 10.9468 
31 1 2.89905 10.0923 10.0923 
32 1 0.59461 10.5911 10.5912 
35 1 2.40045 10.5911 12.3969 
38 1 2.40032 12.3968 10.5911 
47 1 4.45099 8.54008 8.54015 
48 1 3.59659 9.39463 9.39464 
49 1 4.09533 7.09015 8.89583 
54 1 4.0952 8.89588 7.09002 
60 1 5.90104 8.89586 8.89578 
7 1 10.9466 2.0444 2.04455 
8 1 10.0922 2.89895 2.89897 
9 1 10.5911 0.594339 2.40019 
14 1 10.591 2.40031 0.59444 
20 1 12.3967 2.40016 2.40011 
70 1 8.54025 4.45119 4.45108 
71 1 9.3946 3.59668 3.59658 
72 1 7.09028 4.09555 4.09561 
75 1 8.896 4.09533 5.90125 
78 1 8.89585 5.90134 4.09547 
27 1 10.9469 2.04471 10.9467 
28 1 10.0924 2.89905 10.0923 
29 1 12.3969 2.40035 10.5911 
34 1 10.5911 2.40042 12.3968 
40 1 10.5911 0.594498 10.5911 
50 1 8.54002 4.45093 8.5402 
51 1 9.39462 3.59659 9.39466 
52 1 8.89589 5.90116 8.89588 
55 1 8.89586 4.09522 7.09014 
58 1 7.09004 4.09529 8.8959 
24 1 10.9467 10.9468 2.04469 
25 1 10.0923 10.0923 2.89902 
26 1 12.3968 10.591 2.40023 
36 1 10.5909 10.5909 0.59412 
39 1 10.5911 12.3967 2.40016 
44 1 8.54024 8.54016 4.45093 
45 1 9.39464 9.3946 3.59659 
46 1 8.89588 7.09029 4.09549 
56 1 8.89606 8.89611 5.90156 
59 1 7.09015 8.896 4.09543 
1 1 10.9469 10.9468 10.9466 
2 1 10.0923 10.0923 10.0922 
3 1 10.591 12.3969 10.5909 
13 1 10.591 10.591 12.3966 
17 1 12.397 10.591 10.5909 
61 1 8.54005 8.54011 8.54032 
62 1 9.39462 9.39466 9.39471 
63 1 7.08995 8.89596 8.89601 
73 1 8.89599 8.896 7.09041 
77 1 8.89598 7.09005 8.89601 
ITEM: TIMESTEP
90
ITEM: NUMBER OF ATOMS
80
ITEM: BOX BOUNDS pp pp pp
0.0000000000000000e+00 1.2991300000000001e+01
0.0000000000000000e+00 1.2991300000000001e+01
0.0000000000000000e+00 1.2991300000000001e+01
ITEM: ATOMS id type x y z 
21 1 2.04439 2.04468 2.04472 
22 1 2.899 2.89899 2.89902 
23 1 0.594318 2.40013 2.40011 
33 1 2.40036 2.40023 0.594474 
37 1 2.40042 0.594456 2.40022 
41 1 4.45143 4.45088 4.45088 
42 1 3.59681 3.59657 3.59659 
43 1 4.09518 5.90125 4.09542 
53 1 4.09525 4.09543 5.9012 
57 1 5.90129 4.0956 4.09561 
4 1 2.04451 2.0445 10.9468 
5 1 2.89901 2.899 10.0923 
6 1 2.40023 0.594452 10.5911 
16 1 2.4003 2.40024 12.3969 
19 1 0.594549 2.40025 10.5911 
64 1 4.45113 4.45114 8.54017 
65 1 3.59664 3.59663 9.39466 
66 1 5.9011 4.0954 8.89583 
76 1 4.09536 4.0954 7.09008 
79 1 4.09541 5.9012 8.89587 
10 1 2.04462 10.9468 2.04447 
11 1 2.89899 10.0923 2.89903 
12 1 2.40036 12.3969 2.40027 
15 1 2.40035 10.5911 0.594551 
18 1 0.594423 10.5912 2.40027 
67 1 4.45105 8.54015 4.45116 
68 1 3.59659 9.39465 3.59667 
69 1 5.90124 8.89574 4.09537 
74 1 4.0953 8.89588 5.90111 
80 1 4.0953 7.09013 4.09537 
30 1 2.04464 10.9469 10.9468 
31 1 2.89903 10.0923 10.0923 
32 1 0.594609 10.5911 10.5912 
35 1 2.40046 10.5911 12.3969 
38 1 2.40033 12.3968 10.5911 
47 1 4.45099 8.54007 8.54014 
48 1 3.5966 9.39464 9.39465 
49 1 4.09533 7.09015 8.89583 
54 1 4.0952 8.89588 7.09002 
60 1 5.90104 8.89587 8.89578 
7 1 10.9466 2.0444 2.04455 
8 1 10.0922 2.89896 2.89896 
9 1 10.5911 0.594339 2.40019 
14 1 10.591 2.40032 0.59444 
20 1 12.3967 2.40016 2.40011 
70 1 8.54024 4.45119 4.45107 
71 1 9.39461 3.59667 3.59659 
72 1 7.09028 4.09555 4.09561 
75 1 8.89601 4.09533 5.90125 
78 1 8.89585 5.90134 4.09547 
27 1 10.9469 2.04471 10.9467 
28 1 10.0924 2.89905 10.0923 
29 1 12.3969 2.40035 10.5911 
34 1 10.5911 2.40042 12.3968 
40 1 10.5911 0.594498 10.5911 
50 1 8.54002 4.45094 8.5402 
51 1 9.39461 3.59659 9.39465 
52 1 8.8959 5.90116 8.89588 
55 1 8.89586 4.09522 7.09014 
58 1 7.09004 4.09529 8.8959 
24 1 10.9467 10.9468 2.04469 
25 1 10.0923 10.0923 2.89901 
26 1 12.3968 10.591 2.40024 
36 1 10.5909 10.5909 0.594121 
39 1 10.5911 12.3967 2.40016 
44 1 8.54024 8.54016 4.45093 
45 1 9.39464 9.39461 3.59661 
46 1 8.89588 7.09029 4.09549 
56 1 8.89607 8.89611 5.90155 
59 1 7.09015 8.896 4.09543 
1 1 10.9469 10.9468 10.9466 
2 1 10.0923 10.0923 10.0922 
3 1 10.591 12.3969 10.5909 
13 1 10.591 10.591 12.3966 
17 1 12.397 10.591 10.5909 
61 1 8.54005 8.54011 8.54032 
62 1 9.39464 9.39465 9.39471 
63 1 7.08995 8.89596 8.89601 
73 1 8.89599 8.896 7.09041 
77 1 8.89598 7.09005 8.89601 
ITEM: TIMESTEP
91
ITEM: NUMBER OF ATOMS
80
ITEM: BOX BOUNDS pp pp pp
0.0000000000000000e+00 1.2991300000000001e+01
0.0000000000000000e+00 1.2991300000000001e+01
0.0000000000000000e+00 1.2991300000000001e+01
ITEM: ATOMS id type x y z 
21 1 2.04439 2.04468 2.04472 
22 1 2.899 2.89899 2.89902 
23 1 0.594318 2.40013 2.40011 
33 1 2.40036 2.40023 0.594474 
37 1 2.40042 0.594456 2.40022 
41 1 4.45143 4.45088 4.45088 
42 1 3.59681 3.59657 3.59659 
43 1 4.09518 5.90125 4.09542 
53 1 4.09525 4.09543 5.9012 
57 1 5.90129 4.0956 4.09561 
4 1 2.04451 2.0445 10.9468 
5 1 2.89901 2.899 10.0923 
6 1 2.40023 0.594452 10.5911 
16 1 2.4003 2.40024 12.3969 
19 1 0.594549 2.40025 10.5911 
64 1 4.45113 4.45114 8.54017 
65 1 3.59664 3.59663 9.39466 
66 1 5.9011 4.0954 8.89583 
76 1 4.09536 4.0954 7.09008 
79 1 4.09541 5.9012 8.89587 
10 1 2.04462 10.9468 2.04447 
11 1 2.89899 10.0923 2.89903 
12 1 2.40037 12.3969 2.40027 
15 1 2.40035 10.5911 0.594551 
18 1 0.594423 10.5912 2.40027 
67 1 4.45105 8.54015 4.45116 
68 1 3.59659 9.39465 3.59667 
69 1 5.90124 8.89574 4.09537 
74 1 4.0953 8.89588 5.90111 
80 1 4.0953 7.09013 4.09537 
30 1 2.04464 10.9469 10.9468 
31 1 2.89903 10.0923 10.0923 
32 1 0.594609 10.5911 10.5912 
35 1 2.40046 10.5911 12.3969 
38 1 2.40033 12.3968 10.5911 
47 1 4.45099 8.54008 8.54014 