LAMMPS (3 Mar 2020)
Reading data file ...
  triclinic box = (0 0 0) to (15.77 13.6581 25.747) with tilt (7.8845 0 0)
  2 by 2 by 2 MPI processor grid
  reading atoms ...
  130 atoms
  read_data CPU = 0.0173811 secs
WARNING: Using 'neigh_modify every 1 delay 0 check yes' setting during minimization (../min.cpp:190)
WARNING: Total cutoff < 2*bond cutoff. May need to use an increased neighbor list skin. (../pair_reaxc.cpp:413)
Neighbor list info ...
  update every 1 steps, delay 0 steps, check yes
  max neighbors/atom: 2000, page size: 100000
  master list distance cutoff = 9.5
  ghost atom cutoff = 9.5
  binsize = 4.75, bins = 5 3 6
  2 neighbor lists, perpetual/occasional/extra = 2 0 0
  (1) pair reax/c, perpetual
      attributes: half, newton off, ghost
      pair build: half/bin/newtoff/ghost
      stencil: half/ghost/bin/3d/newtoff
      bin: standard
  (2) fix qeq/reax, perpetual, copy from (1)
      attributes: half, newton off, ghost
      pair build: copy
      stencil: none
      bin: none
Setting up cg style minimization ...
  Unit style    : real
  Current step  : 0
Per MPI rank memory allocation (min/avg/max) = 16.34 | 16.88 | 17.48 Mbytes
Step Temp E_pair E_mol TotEng Press 
       0            0   -19337.849            0   -19337.849     58997.24 
     188            0   -21916.379            0   -21916.379     17289.76 
Loop time of 4.75024 on 8 procs for 188 steps with 130 atoms

99.3% CPU use with 8 MPI tasks x no OpenMP threads

Minimization stats:
  Stopping criterion = energy tolerance
  Energy initial, next-to-last, final = 
        -19337.8493249     -21916.3785432     -21916.3785669
  Force two-norm initial, final = 5078.5 405.51
  Force max component initial, final = 1337.8 136.921
  Final line search alpha, max atom move = 6.42684e-05 0.00879971
  Iterations, force evaluations = 188 1147

MPI task timing breakdown:
Section |  min time  |  avg time  |  max time  |%varavg| %total
---------------------------------------------------------------
Pair    | 2.824      | 3.1867     | 3.4507     |  13.0 | 67.08
Neigh   | 0          | 0          | 0          |   0.0 |  0.00
Comm    | 0.021643   | 0.28537    | 0.64896    |  43.6 |  6.01
Output  | 0.00072859 | 0.00088552 | 0.0012197  |   0.0 |  0.02
Modify  | 1.2681     | 1.2686     | 1.2691     |   0.0 | 26.71
Other   |            | 0.008704   |            |       |  0.18

Nlocal:    16.25 ave 37 max 2 min
Histogram: 2 1 1 1 1 0 0 0 0 2
Nghost:    469.375 ave 512 max 419 min
Histogram: 2 0 2 0 0 0 0 0 0 4
Neighs:    1172.88 ave 2486 max 174 min
Histogram: 2 1 1 0 2 0 0 0 0 2

Total # of neighbors = 9383
Ave neighs/atom = 72.1769
Neighbor list builds = 0
Dangerous builds = 0
WARNING: Using 'neigh_modify every 1 delay 0 check yes' setting during minimization (../min.cpp:190)
WARNING: Total cutoff < 2*bond cutoff. May need to use an increased neighbor list skin. (../pair_reaxc.cpp:413)
Setting up cg style minimization ...
  Unit style    : real
  Current step  : 188
Per MPI rank memory allocation (min/avg/max) = 16.34 | 16.89 | 17.48 Mbytes
Step Temp E_pair E_mol TotEng Press 
     188            0   -21916.379            0   -21916.379     17289.76 
     264            0   -21933.842            0   -21933.842    8429.6749 
Loop time of 2.28732 on 8 procs for 76 steps with 130 atoms

99.4% CPU use with 8 MPI tasks x no OpenMP threads

Minimization stats:
  Stopping criterion = energy tolerance
  Energy initial, next-to-last, final = 
        -21916.3785669      -21933.841732     -21933.8417373
  Force two-norm initial, final = 405.51 200.287
  Force max component initial, final = 136.921 51.8742
  Final line search alpha, max atom move = 0.000261832 0.0135824
  Iterations, force evaluations = 76 555

MPI task timing breakdown:
Section |  min time  |  avg time  |  max time  |%varavg| %total
---------------------------------------------------------------
Pair    | 1.3981     | 1.567      | 1.6921     |   8.8 | 68.51
Neigh   | 0          | 0          | 0          |   0.0 |  0.00
Comm    | 0.0091442  | 0.1348     | 0.30429    |  30.0 |  5.89
Output  | 0.00032534 | 0.00037838 | 0.00051101 |   0.0 |  0.02
Modify  | 0.58063    | 0.58096    | 0.58129    |   0.0 | 25.40
Other   |            | 0.004193   |            |       |  0.18

Nlocal:    16.25 ave 38 max 1 min
Histogram: 1 2 1 1 1 0 0 0 0 2
Nghost:    473.25 ave 519 max 417 min
Histogram: 2 1 1 0 0 0 0 0 0 4
Neighs:    1154.88 ave 2529 max 82 min
Histogram: 1 2 1 0 1 1 0 0 0 2

Total # of neighbors = 9239
Ave neighs/atom = 71.0692
Neighbor list builds = 0
Dangerous builds = 0
WARNING: Using 'neigh_modify every 1 delay 0 check yes' setting during minimization (../min.cpp:190)
WARNING: Total cutoff < 2*bond cutoff. May need to use an increased neighbor list skin. (../pair_reaxc.cpp:413)
Setting up cg style minimization ...
  Unit style    : real
  Current step  : 264
WARNING: Energy due to 3 extra global DOFs will be included in minimizer energies
Per MPI rank memory allocation (min/avg/max) = 16.34 | 16.89 | 17.48 Mbytes
Step Temp E_pair E_mol TotEng Press Volume 
     264            0   -21933.842            0   -21933.842    8429.6749    5545.5955 
     360            0   -21940.031            0   -21940.031    3285.3682    5555.0076 
Loop time of 0.541335 on 8 procs for 96 steps with 130 atoms

99.4% CPU use with 8 MPI tasks x no OpenMP threads

Minimization stats:
  Stopping criterion = energy tolerance
  Energy initial, next-to-last, final = 
        -21933.8417373     -21940.0314651     -21940.0314651
  Force two-norm initial, final = 1552.17 486.533
  Force max component initial, final = 1235.66 267.914
  Final line search alpha, max atom move = 1.84792e-13 4.95085e-11
  Iterations, force evaluations = 96 145

MPI task timing breakdown:
Section |  min time  |  avg time  |  max time  |%varavg| %total
---------------------------------------------------------------
Pair    | 0.37475    | 0.41678    | 0.44321    |   3.9 | 76.99
Neigh   | 0          | 0          | 0          |   0.0 |  0.00
Comm    | 0.0022181  | 0.028725   | 0.070831   |  15.0 |  5.31
Output  | 0.00034239 | 0.00039118 | 0.00051195 |   0.0 |  0.07
Modify  | 0.092444   | 0.092455   | 0.09247    |   0.0 | 17.08
Other   |            | 0.002988   |            |       |  0.55

Nlocal:    16.25 ave 38 max 1 min
Histogram: 2 1 1 1 1 0 0 0 0 2
Nghost:    479.25 ave 523 max 429 min
Histogram: 2 1 1 0 0 0 0 0 0 4
Neighs:    1154.75 ave 2531 max 82 min
Histogram: 2 1 1 0 1 1 0 0 0 2

Total # of neighbors = 9238
Ave neighs/atom = 71.0615
Neighbor list builds = 0
Dangerous builds = 0
WARNING: Using 'neigh_modify every 1 delay 0 check yes' setting during minimization (../min.cpp:190)
WARNING: Total cutoff < 2*bond cutoff. May need to use an increased neighbor list skin. (../pair_reaxc.cpp:413)
Setting up cg style minimization ...
  Unit style    : real
  Current step  : 360
Per MPI rank memory allocation (min/avg/max) = 16.34 | 16.89 | 17.48 Mbytes
Step Temp E_pair E_mol TotEng Press 
     360            0   -21940.031            0   -21940.031    3285.3682 
     670            0    -21977.22            0    -21977.22     2482.194 
Loop time of 8.97147 on 8 procs for 310 steps with 130 atoms

99.4% CPU use with 8 MPI tasks x no OpenMP threads

Minimization stats:
  Stopping criterion = energy tolerance
  Energy initial, next-to-last, final = 
        -21940.0314651     -21977.2199086     -21977.2199788
  Force two-norm initial, final = 156.275 51.0853
  Force max component initial, final = 22.4691 15.1369
  Final line search alpha, max atom move = 0.00122896 0.0186026
  Iterations, force evaluations = 310 2199

MPI task timing breakdown:
Section |  min time  |  avg time  |  max time  |%varavg| %total
---------------------------------------------------------------
Pair    | 5.6986     | 6.2827     | 6.6026     |  13.1 | 70.03
Neigh   | 0          | 0          | 0          |   0.0 |  0.00
Comm    | 0.035515   | 0.35852    | 0.94303    |  54.9 |  4.00
Output  | 0.0011905  | 0.001378   | 0.0018735  |   0.5 |  0.02
Modify  | 2.3111     | 2.3129     | 2.3146     |   0.1 | 25.78
Other   |            | 0.01599    |            |       |  0.18

Nlocal:    16.25 ave 38 max 1 min
Histogram: 2 1 1 1 1 0 0 0 0 2
Nghost:    477.5 ave 517 max 433 min
Histogram: 2 1 1 0 0 0 0 0 1 3
Neighs:    1147.62 ave 2515 max 82 min
Histogram: 2 1 1 0 1 1 0 0 0 2

Total # of neighbors = 9181
Ave neighs/atom = 70.6231
Neighbor list builds = 0
Dangerous builds = 0
WARNING: Using 'neigh_modify every 1 delay 0 check yes' setting during minimization (../min.cpp:190)
WARNING: Total cutoff < 2*bond cutoff. May need to use an increased neighbor list skin. (../pair_reaxc.cpp:413)
Setting up cg style minimization ...
  Unit style    : real
  Current step  : 670
WARNING: Energy due to 3 extra global DOFs will be included in minimizer energies
Per MPI rank memory allocation (min/avg/max) = 16.34 | 16.89 | 17.48 Mbytes
Step Temp E_pair E_mol TotEng Press Volume 
     670            0    -21977.22            0    -21977.22     2482.194    5555.0076 
     689            0   -21977.507            0   -21977.507   -1573.1362    5556.3543 
Loop time of 0.275079 on 8 procs for 19 steps with 130 atoms

99.4% CPU use with 8 MPI tasks x no OpenMP threads

Minimization stats:
  Stopping criterion = linesearch alpha is zero
  Energy initial, next-to-last, final = 
        -21977.2199788     -21977.5070102     -21977.5070102
  Force two-norm initial, final = 464.836 243.724
  Force max component initial, final = 334.385 173.336
  Final line search alpha, max atom move = 2.10164e-13 3.64289e-11
  Iterations, force evaluations = 19 72

MPI task timing breakdown:
Section |  min time  |  avg time  |  max time  |%varavg| %total
---------------------------------------------------------------
Pair    | 0.18978    | 0.20979    | 0.22072    |   2.5 | 76.27
Neigh   | 0          | 0          | 0          |   0.0 |  0.00
Comm    | 0.0011622  | 0.01211    | 0.032146   |  10.6 |  4.40
Output  | 4.4583e-05 | 5.0998e-05 | 6.9781e-05 |   0.0 |  0.02
Modify  | 0.051805   | 0.051829   | 0.051838   |   0.0 | 18.84
Other   |            | 0.001299   |            |       |  0.47

Nlocal:    16.25 ave 43 max 1 min
Histogram: 2 2 1 1 0 0 0 0 1 1
Nghost:    480.875 ave 521 max 434 min
Histogram: 2 1 0 1 0 0 0 0 1 3
Neighs:    1125.62 ave 2790 max 82 min
Histogram: 2 1 1 1 1 0 0 0 1 1

Total # of neighbors = 9005
Ave neighs/atom = 69.2692
Neighbor list builds = 0
Dangerous builds = 0
WARNING: Using 'neigh_modify every 1 delay 0 check yes' setting during minimization (../min.cpp:190)
WARNING: Total cutoff < 2*bond cutoff. May need to use an increased neighbor list skin. (../pair_reaxc.cpp:413)
Setting up cg style minimization ...
  Unit style    : real
  Current step  : 689
Per MPI rank memory allocation (min/avg/max) = 16.34 | 16.89 | 17.48 Mbytes
Step Temp E_pair E_mol TotEng Press 
     689            0   -21977.507            0   -21977.507   -1573.1362 
     720            0   -21979.268            0   -21979.268    103.75193 
Loop time of 1.05025 on 8 procs for 31 steps with 130 atoms

99.4% CPU use with 8 MPI tasks x no OpenMP threads

Minimization stats:
  Stopping criterion = energy tolerance
  Energy initial, next-to-last, final = 
        -21977.5070102     -21979.2679144     -21979.2679445
  Force two-norm initial, final = 84.4525 92.4761
  Force max component initial, final = 15.7234 26.7148
  Final line search alpha, max atom move = 0.0103964 0.277737
  Iterations, force evaluations = 31 249

MPI task timing breakdown:
Section |  min time  |  avg time  |  max time  |%varavg| %total
---------------------------------------------------------------
Pair    | 0.65023    | 0.72068    | 0.75912    |   4.8 | 68.62
Neigh   | 0          | 0          | 0          |   0.0 |  0.00
Comm    | 0.004051   | 0.042797   | 0.11348    |  19.8 |  4.07
Output  | 0.00012681 | 0.00014495 | 0.00019423 |   0.0 |  0.01
Modify  | 0.28457    | 0.28474    | 0.2849     |   0.0 | 27.11
Other   |            | 0.001886   |            |       |  0.18

Nlocal:    16.25 ave 43 max 1 min
Histogram: 2 2 1 1 0 0 0 0 1 1
Nghost:    480.875 ave 521 max 434 min
Histogram: 2 1 0 1 0 0 0 0 1 3
Neighs:    1124.5 ave 2787 max 82 min
Histogram: 2 1 1 1 1 0 0 0 1 1

Total # of neighbors = 8996
Ave neighs/atom = 69.2
Neighbor list builds = 0
Dangerous builds = 0
WARNING: Total cutoff < 2*bond cutoff. May need to use an increased neighbor list skin. (../pair_reaxc.cpp:413)
Setting up Verlet run ...
  Unit style    : real
  Current step  : 0
  Time step     : 0.25
Per MPI rank memory allocation (min/avg/max) = 15.23 | 15.78 | 16.37 Mbytes
Step Temp TotEng KinEng PotEng Press 
       0          300   -21863.911    115.35735   -21979.268       1052.8 
     200    247.09987    -21822.24    95.015953   -21917.256    4539.9307 
     400    269.64447   -21766.795     103.6849    -21870.48    12386.691 
     600     319.4119   -21749.405     122.8217   -21872.227     10032.51 
     800    287.01263   -21782.948    110.36339   -21893.312   -27109.876 
    1000    282.73119   -21770.853    108.71707   -21879.571    21769.845 
    1200     319.4593   -21757.081    122.83993   -21879.921    3491.8473 
    1400    297.04451   -21785.789    114.22089    -21900.01    4497.6121 
    1600     313.3187   -21769.267    120.47871   -21889.745   -6173.7862 
    1800    306.07955    -21764.82    117.69508   -21882.515   -891.54157 
    2000    279.80374   -21775.464    107.59139   -21883.055    7699.6683 
    2200     320.4176   -21768.847    123.20842   -21892.055    6505.1376 
    2400    273.43441   -21789.964    105.14223   -21895.106   -1283.6309 
    2600    303.80507   -21762.308    116.82049   -21879.128   -14236.136 
    2800    552.34647   -21786.248    212.39075   -21998.638    20587.675 
    3000    439.33015   -21918.417    168.93321    -22087.35   -21777.213 
    3200    373.69624   -22073.284    143.69536    -22216.98    27338.761 
    3400    262.25649   -22152.112    100.84404   -22252.956    4298.8582 
    3600    304.63794   -22166.656    117.14075   -22283.797   -9408.3985 
    3800    300.22158    -22171.93    115.44255   -22287.372   -9037.6637 
    4000    322.34509   -22149.346    123.94958   -22273.296    17061.211 
    4200     294.9608   -22162.021    113.41965    -22275.44    28331.263 
    4400    269.42593    -22169.92    103.60087   -22273.521     23807.86 
    4600    315.67758    -22172.03    121.38576   -22293.415    7188.5599 
    4800    259.73065   -22179.445    99.872799   -22279.318    1362.4209 
    5000    301.80113   -22150.487    116.04993   -22266.537   -11205.114 
    5200    299.38387   -22148.908    115.12043   -22264.028   -7769.5683 
    5400    290.35186   -22179.035     111.6474   -22290.682   -10113.506 
    5600    302.79613   -22161.675    116.43253   -22278.108    8631.6897 
    5800    299.37325   -22157.558    115.11635   -22272.674   -115.84358 
    6000    312.88508   -22164.911    120.31198   -22285.223   -7148.1202 
    6200    296.27566   -22167.085    113.92525   -22281.011     9873.824 
    6400    302.74319    -22172.09    116.41217   -22288.502   -2527.1489 
    6600    250.18432    -22195.62       96.202   -22291.822   -8799.8906 
    6800    303.01329   -22167.918    116.51603   -22284.435    14706.705 
    7000    325.34443   -22147.891     125.1029   -22272.994   -3818.4692 
    7200    287.92075   -22165.641    110.71258   -22276.353   -10597.122 
    7400    288.62686   -22174.471     110.9841   -22285.455    3579.3553 
    7600    317.88274   -22160.136     122.2337    -22282.37    33917.113 
    7800    294.72563   -22155.623    113.32922   -22268.952   -14455.565 
    8000    269.67432   -22175.827    103.69638   -22279.524    33620.598 
    8200    286.58718   -22185.317    110.19979   -22295.517    7143.3663 
    8400    339.65004    -22150.35    130.60376   -22280.954    10010.362 
    8600    300.76681   -22167.332    115.65221   -22282.985    41041.318 
    8800    283.12263     -22178.2    108.86758   -22287.068   -5436.8784 
    9000    327.52271   -22152.803    125.94051   -22278.743   -11054.955 
    9200    280.75439   -22168.754    107.95694   -22276.711    10099.411 
    9400    341.15142   -22154.998    131.18108   -22286.179    2634.1119 
    9600     318.3547   -22164.845    122.41518   -22287.261    19263.271 
    9800    268.60443   -22170.289    103.28499   -22273.574    1398.7818 
   10000    301.77024   -22151.516    116.03805   -22267.554    7062.0174 
   10200    296.15918   -22171.805    113.88046   -22285.686    7536.3719 
   10400     281.3837   -22179.377    108.19892   -22287.576    20329.068 
   10600    304.39184   -22151.275    117.04612   -22268.321    2197.7427 
   10800    315.56276    -22162.36    121.34161   -22283.702    7567.5183 
   11000    277.59008    -22181.23    106.74019    -22287.97   -15980.883 
   11200    307.94339   -22157.738    118.41178    -22276.15    18809.828 
   11400    336.49851    -22150.61    129.39192   -22280.002    3370.5123 
   11600    270.70914   -22169.342     104.0943   -22273.437    11829.367 
   11800     297.2217   -22162.621    114.28903    -22276.91    1738.3901 
   12000    305.82931   -22145.877    117.59886   -22263.476     2073.715 
   12200    320.61376   -22157.717    123.28384       -22281    9042.3063 
   12400    269.93315   -22176.975    103.79591   -22280.771   -24346.118 
   12600    304.07656   -22150.534    116.92489   -22267.459   -10061.393 
   12800    332.70564   -22156.742    127.93347   -22284.676    108.93746 
   13000    292.80987    -22173.08    112.59257   -22285.673     20130.02 
   13200    291.02961   -22163.369    111.90802   -22275.277   -14011.752 
   13400    332.28037   -22154.648    127.76994   -22282.418    16309.265 
   13600    300.82982   -22171.799    115.67644   -22287.476    3622.4427 
   13800    289.67579   -22177.488    111.38744   -22288.876    21732.596 
   14000    295.62232   -22151.673    113.67402   -22265.347   -14999.999 
   14200    307.52783   -22173.061    118.25198   -22291.313   -7960.3191 
   14400    302.44043   -22172.661    116.29575   -22288.957    4985.6899 
   14600    306.30483   -22165.939    117.78171   -22283.721   -1074.1265 
   14800    300.01648   -22167.558    115.36369   -22282.921   -9060.4194 
   15000    319.70119   -22148.094    122.93294   -22271.027    3680.2747 
   15200    291.87093   -22167.658    112.23152    -22279.89      1085.42 
   15400    274.32468    -22164.17    105.48456   -22269.655    12432.864 
   15600    326.67609   -22134.111    125.61496   -22259.726   -11695.967 
   15800    304.25212    -22161.81    116.99239   -22278.803    34132.896 
   16000    297.84202   -22173.546    114.52755   -22288.074    5043.0971 
   16200    340.35292    -22146.73    130.87403   -22277.604   -13639.848 
   16400    291.70729   -22161.687     112.1686   -22273.856   -12527.956 
   16600    287.49491   -22165.856    110.54884   -22276.404   -25011.837 
   16800    297.30833   -22173.411    114.32234   -22287.733    3894.7072 
   17000    261.51776   -22191.269    100.55998   -22291.829   -7212.2218 
   17200    322.76146   -22164.959    124.10969   -22289.068    14079.046 
   17400    283.55213   -22167.834    109.03274   -22276.867     10930.72 
   17600    272.63675   -22191.512    104.83551   -22296.347     13208.45 
   17800    347.93349   -22156.348    133.78895   -22290.137     2968.739 
   18000    315.69529   -22170.706    121.39257   -22292.099    6889.4942 
   18200      282.295    -22181.23    108.54934   -22289.779    9259.2509 
   18400    333.53612   -22154.105    128.25281   -22282.358    -10921.22 
   18600    282.00516   -22178.244    108.43789   -22286.682   -12336.769 
   18800    301.88197   -22164.507    116.08101   -22280.588    14800.044 
   19000    305.47266   -22144.769    117.46172   -22262.231   -3295.2642 
   19200    293.14441   -22171.245    112.72121   -22283.966    8272.1025 
   19400    325.96475   -22164.398    125.34143   -22289.739   -4907.2495 
   19600    324.02256   -22149.955    124.59461    -22274.55   -11300.839 
   19800     298.7742   -22172.826      114.886   -22287.712    20751.637 
   20000    309.89406   -22154.903    119.16186   -22274.065    2511.3289 
   20200    308.99406   -22162.978    118.81579   -22281.794    4507.7395 
   20400    294.66007   -22177.789    113.30401   -22291.093   -3010.7916 
   20600    304.21851    -22153.86    116.97947   -22270.839    311.98666 
   20800    304.74643   -22162.482    117.18247   -22279.665   -2428.0953 
   21000    319.92503   -22174.202    123.01901   -22297.221   -16466.933 
   21200    296.46058   -22187.742    113.99636   -22301.738    13664.366 
   21400    326.30135   -22166.763    125.47086   -22292.234    18298.791 
   21600    295.33113   -22172.053    113.56205   -22285.615   -7968.7363 
   21800    294.76734   -22191.256    113.34526   -22304.601    31927.663 
   22000    277.27111   -22174.543    106.61753    -22281.16   -23553.218 
   22200    342.03055   -22158.088    131.51913   -22289.607   -6216.9764 
   22400    311.62261   -22158.022    119.82653   -22277.848    21303.954 
   22600    273.10067   -22164.938     105.0139   -22269.952   -3098.5328 
   22800    316.97476   -22138.722    121.88456   -22260.607   -10635.079 
   23000    280.58149    -22165.34    107.89045   -22273.231    12783.816 
   23200    290.85101   -22175.435    111.83934   -22287.274    3439.9102 
   23400    291.29573   -22147.496    112.01034   -22259.507    11693.133 
   23600    277.51604   -22156.303    106.71172   -22263.015   -971.94723 
   23800    278.76585   -22172.857     107.1923    -22280.05   -26382.927 
   24000    331.57388   -22157.292    127.49828    -22284.79   -5998.3061 
   24200    297.62713   -22168.167    114.44492   -22282.612    16224.658 
   24400     273.9224   -22181.101    105.32987   -22286.431    15.005015 
   24600    322.34135   -22159.607    123.94814   -22283.556    11586.096 
   24800     291.6107   -22176.356    112.13146   -22288.488    2070.5245 
   25000    279.24855   -22184.767    107.37791   -22292.145    6904.4518 
   25200    262.09678   -22164.771    100.78263   -22265.554    -21514.46 
   25400    309.75491   -22158.881    119.10835    -22277.99    10755.988 
   25600    276.35345   -22183.837    106.26467   -22290.102   -6841.1299 
   25800    302.90329    -22155.97    116.47374   -22272.443    30.116311 
   26000    300.22072   -22158.497    115.44222   -22273.939    14834.273 
   26200    282.57016   -22174.339    108.65515   -22282.994    15277.511 
   26400    308.46774   -22144.116     118.6134   -22262.729   -99.465456 
   26600    287.90511   -22160.945    110.70657   -22271.652   -8387.7666 
   26800    310.85343    -22166.75    119.53076   -22286.281   -5018.7792 
   27000    302.88774   -22161.429    116.46775   -22277.897    6506.6752 
   27200    290.46738   -22152.346    111.69182   -22264.038   -13568.906 
   27400    314.50513   -22164.245    120.93493    -22285.18   -14467.716 
   27600    272.46348   -22179.187    104.76888   -22283.955    12543.319 
   27800    328.68747   -22149.777    126.38838   -22276.166    22601.229 
   28000    314.49808   -22170.509    120.93222   -22291.441    935.49117 
   28200    268.82478   -22181.305    103.36971   -22284.675    4568.6694 
   28400    320.27009   -22149.869    123.15169   -22273.021   -24137.554 
   28600    283.97085   -22174.027    109.19375   -22283.221   -2963.6963 
   28800    301.19334   -22177.772    115.81622   -22293.588    13116.069 
   29000    331.26149   -22145.555    127.37816   -22272.933   -17533.387 
   29200    300.10637   -22173.115    115.39825   -22288.513    2737.8262 
   29400    290.96699   -22164.099    111.88394   -22275.983    4498.5927 
   29600    329.96738   -22152.472    126.88054   -22279.353    3372.6142 
   29800    280.11077   -22177.074    107.70945   -22284.783    11237.592 
   30000    272.95023   -22161.152    104.95605   -22266.108     8933.259 
   30200    270.09379    -22158.62    103.85768   -22262.477   -655.01678 
   30400    287.04688   -22181.562    110.37656   -22291.938   -10201.224 
   30600    323.80006   -22155.901    124.50905    -22280.41    544.25219 
   30800    298.56991   -22161.456    114.80744   -22276.263   -15430.845 
   31000    273.09992   -22189.171    105.01361   -22294.185   -2900.4285 
   31200    261.64458    -22175.36    100.60875   -22275.969    22702.088 
   31400     316.4482   -22160.999    121.68209   -22282.681    10351.365 
   31600    296.79211   -22178.299    114.12384   -22292.423    5658.7573 
   31800    297.49009   -22168.798    114.39223   -22283.191    4349.6949 
   32000    309.69786    -22156.51    119.08642   -22275.596   -1955.0226 
   32200    259.83909   -22178.462    99.914494   -22278.377   -4873.0202 
   32400    315.82014    -22171.97    121.44058   -22293.411    7323.5996 
   32600    323.38895   -22144.919    124.35097    -22269.27      1088.19 
   32800    293.70687   -22176.564    112.93749   -22289.502   -12853.723 
   33000    308.12626   -22159.727    118.48209   -22278.209    12096.384 
   33200    335.67716   -22155.354    129.07609    -22284.43   -6867.2099 
   33400    284.94131   -22177.601    109.56692   -22287.168    9825.3609 
   33600    323.54378   -22155.512    124.41051   -22279.923   -7735.2713 
   33800    300.73585   -22155.395     115.6403   -22271.035    20536.327 
   34000    273.76942   -22180.662    105.27105   -22285.933    12985.263 
   34200    338.81682   -22151.563    130.28337   -22281.847    10387.641 
   34400    291.62697   -22161.729    112.13772   -22273.867    16576.183 
   34600    275.51273   -22179.225    105.94139   -22285.166   -1485.5053 
   34800    299.70546   -22156.442    115.24409   -22271.686   -1486.3823 
   35000     280.3031    -22158.85    107.78341   -22266.634   -2040.6917 
   35200    284.41547   -22176.673    109.36472   -22286.038   -1507.1097 
   35400    313.44215   -22140.609    120.52619   -22261.135    3061.7457 
   35600    311.24331   -22164.246    119.68068   -22283.927   -4977.6726 
   35800    272.56802    -22172.64    104.80908   -22277.449    25003.805 
   36000    309.69407   -22141.041    119.08496   -22260.126   -12653.582 
   36200    307.55013   -22162.114    118.26056   -22280.375   -1030.4687 
   36400    290.12562   -22171.252    111.56041   -22282.813    8048.3602 
   36600    343.38701   -22139.316    132.04072   -22271.357    8760.3916 
   36800    308.35933   -22165.146    118.57172   -22283.718   -12740.852 
   37000    258.27089   -22171.364    99.311484   -22270.675    5300.3283 
   37200    334.53785   -22144.854      128.638   -22273.492    8732.1342 
   37400    297.49081   -22154.584     114.3925   -22268.976    6954.6924 
   37600     291.7501   -22160.507    112.18506   -22272.693   -9681.6252 
   37800    337.88965   -22150.908    129.92685   -22280.835   -11186.604 
   38000    328.06062   -22144.022    126.14734   -22270.169    19500.156 
   38200    260.66927   -22172.604    100.23372   -22272.838   -547.69838 
   38400    320.84907   -22152.144    123.37433   -22275.518   -13043.389 
   38600    306.28896   -22141.436    117.77561   -22259.211    24097.603 
   38800    287.36728     -22175.5    110.49976       -22286   -21290.735 
   39000    330.42909   -22162.646    127.05808   -22289.704    6082.0374 
   39200    346.70665   -22154.504     133.3172   -22287.822    276.72793 
   39400     302.8274   -22178.926    116.44455   -22295.371    1785.8957 
   39600    325.52498   -22155.119    125.17233   -22280.291    28417.812 
   39800    318.26124   -22164.286    122.37924   -22286.665   -23303.456 
   40000    289.09295   -22177.147    111.16332    -22288.31   -2745.8936 
   40200    326.98476   -22149.267    125.73365       -22275    7172.6085 
   40400    318.91209   -22162.706    122.62951   -22285.335       -18973 
   40600    293.21909   -22175.889    112.74992   -22288.639   -6570.1758 
   40800    286.42125    -22162.63    110.13599   -22272.765   -13492.236 
   41000    323.71527   -22180.195    124.47645   -22304.672     14424.89 
   41200    298.35784   -22174.363     114.7259   -22289.089    1021.7088 
   41400    327.89366   -22158.872    126.08314   -22284.955   -11962.985 
   41600    290.93199   -22174.376    111.87048   -22286.247    2480.6089 
   41800    265.23631   -22184.648    101.98986   -22286.638    15861.842 
   42000    299.37428   -22159.832    115.11675   -22274.948    13939.703 
   42200    291.12915   -22149.583    111.94629   -22261.529    -23780.77 
   42400    288.60503   -22180.157     110.9757   -22291.133   -4210.0875 
   42600    296.46064   -22159.207    113.99638   -22273.203   -735.04734 
   42800    283.44074   -22161.589    108.98991   -22270.578    13146.237 
   43000    264.05267   -22186.673    101.53472   -22288.208    8127.6336 
   43200     301.4234   -22175.991    115.90468   -22291.896    3298.6036 
   43400    282.88105   -22160.508    108.77469   -22269.282    2686.0688 
   43600    307.93859   -22173.485    118.40993   -22291.895    5002.4957 
   43800    276.94989   -22175.227    106.49402   -22281.721   -4925.2592 
   44000    321.80473   -22154.332     123.7418   -22278.074   -7375.3112 
   44200    287.65436   -22172.872    110.61015   -22283.482    11405.009 
   44400    300.77356   -22178.747     115.6548   -22294.402    9128.6383 
   44600     503.7897   -22193.814    193.71948   -22387.533    27207.527 
   44800    328.74526   -22344.866    126.41061   -22471.277    5911.3306 
   45000    327.21705   -22416.543    125.82297   -22542.366   -13603.397 
   45200    260.04987   -22456.603    99.995546   -22556.599   -14288.871 
   45400    308.72755   -22429.697    118.71331    -22548.41    3862.2945 
   45600    338.45603   -22422.796    130.14463   -22552.941    7628.1542 
   45800    312.46131   -22461.599    120.14903   -22581.748   -11066.977 
   46000    267.76136   -22476.773     102.9608   -22579.733   -3597.8652 
   46200    311.14288   -22452.661    119.64206   -22572.303   -5358.9888 
   46400    274.17655   -22473.346     105.4276   -22578.774    1937.7558 
   46600    314.53707   -22469.237    120.94721   -22590.184     23449.55 
   46800    302.24703   -22465.991    116.22139   -22582.212    30824.338 
   47000    355.39015   -22433.433    136.65622   -22570.089   -13746.027 
   47200    311.73906   -22459.472     119.8713   -22579.344    615.90794 
   47400    295.90127   -22468.099    113.78128    -22581.88    12693.309 
   47600    263.17378   -22484.822    101.19677   -22586.018    18130.725 
   47800    327.93014   -22459.888    126.09717   -22585.985   -29485.274 
   48000    298.89942    -22483.44    114.93415   -22598.374    31944.988 
   48200    262.42791   -22486.326    100.90996   -22587.236    3756.6381 
   48400    316.83021   -22465.887    121.82898   -22587.716    15670.871 
   48600    296.04926   -22455.951    113.83819   -22569.789   -7422.1196 
   48800    306.10499   -22444.077    117.70487   -22561.781   -35736.059 
   49000    285.07808   -22475.814    109.61951   -22585.434   -1662.5684 
   49200    305.14351   -22458.363    117.33516   -22575.698    28796.597 
   49400    293.01288   -22463.648    112.67063   -22576.319     9132.785 
   49600     329.1368   -22459.411    126.56116   -22585.972     4901.203 
   49800     265.6225   -22483.159    102.13836   -22585.297    4851.4176 
   50000     309.0931    -22468.81    118.85387   -22587.664     18688.12 
   50200    282.18718   -22457.006    108.50788   -22565.514   -12546.508 
   50400    280.63303    -22479.68    107.91027    -22587.59    10152.081 
   50600    273.67487    -22482.03    105.23469   -22587.265   -9097.3143 
   50800    288.34678   -22465.485     110.8764   -22576.361    17432.107 
   51000    306.70043   -22459.725    117.93383   -22577.659     6854.743 
   51200    300.94725   -22475.262    115.72159   -22590.983    12342.978 
   51400     309.8721   -22477.965    119.15341   -22597.118    1585.2594 
   51600    314.40135   -22456.017    120.89502   -22576.912    17502.931 
   51800    300.20949   -22462.396     115.4379   -22577.834    1764.2843 
   52000    278.66643   -22488.203    107.15407   -22595.357    3626.4872 
   52200    266.10601   -22462.604    102.32428   -22564.929   -37609.385 
   52400    310.38593   -22455.711    119.35099   -22575.062   -1468.1105 
   52600    279.45715   -22480.395    107.45812   -22587.853    5534.9483 
   52800    327.15835   -22464.605     125.8004   -22590.406    9196.4221 
   53000    286.19292   -22469.033    110.04819   -22579.081    10263.606 
   53200    255.24999   -22484.088    98.149873   -22582.238    23960.601 
   53400    312.26913   -22458.268    120.07513   -22578.343    14673.244 
   53600    322.65267   -22468.499    124.06785   -22592.567   -19818.448 
   53800    272.28022   -22497.552    104.69842   -22602.251    8959.5681 
   54000    303.28149   -22470.242    116.61916   -22586.862   -18100.949 
   54200    276.57755   -22467.607    106.35084   -22573.958   -30396.739 
   54400    281.91417   -22472.651     108.4029   -22581.054    20790.238 
   54600    291.12461   -22485.732    111.94455   -22597.677    16711.084 
   54800    333.73756   -22458.209    128.33027    -22586.54     25219.66 
   55000    265.90805   -22477.268    102.24816   -22579.516    11338.239 
   55200    305.39074   -22472.506    117.43022   -22589.936   -20454.035 
   55400    337.72825   -22440.728    129.86479   -22570.593    7230.7272 
   55600    296.16937   -22473.566    113.88438    -22587.45    151.75185 
   55800    296.76128   -22465.335    114.11198   -22579.447    -10033.68 
   56000    316.63751   -22460.437    121.75488   -22582.191    -23361.74 
   56200    284.76404   -22476.302    109.49875   -22585.801    8496.3219 
   56400    337.74659   -22451.271    129.87184   -22581.143   -16964.514 
   56600    308.38273   -22466.327    118.58072   -22584.908   -31696.631 
   56800    272.75958   -22466.807    104.88274    -22571.69   -13406.254 
   57000     325.3915   -22433.979      125.121     -22559.1    547.09882 
   57200    298.47122   -22461.587     114.7695   -22576.356   -14288.812 
   57400    285.52738    -22468.01    109.79227   -22577.802    12935.036 
   57600    318.11148   -22444.082    122.32166   -22566.403    6904.8677 
   57800    295.57582   -22471.671    113.65614   -22585.327    4928.5496 
   58000    273.66766   -22463.343    105.23192   -22568.574    -4535.916 
   58200    316.33501   -22445.831    121.63856    -22567.47   -12270.391 
   58400    294.51508   -22465.455    113.24826   -22578.703    4013.1572 
   58600    300.70235   -22466.909    115.62742   -22582.537   -7849.5031 
   58800    319.55037   -22435.281    122.87495   -22558.156   -20259.887 
   59000     292.7066   -22457.612    112.55286   -22570.165    -14113.34 
   59200    287.49409   -22469.524    110.54852   -22580.072    -4655.935 
   59400    306.86892   -22454.685    117.99862   -22572.684    3305.2062 
   59600    314.15022   -22453.951    120.79845    -22574.75    1017.5805 
   59800    289.89201   -22470.987    111.47058   -22582.457   -1591.6528 
   60000    307.72265   -22466.763     118.3269    -22585.09    14713.099 
   60200    335.10372   -22435.318    128.85559   -22564.173    12924.789 
   60400    292.66471   -22457.927    112.53675   -22570.464   -12214.271 
   60600    281.69154   -22464.552     108.3173    -22572.87    4023.6115 
   60800    292.98284   -22468.275    112.65908   -22580.934   -17771.402 
   61000    344.47204    -22446.99    132.45794   -22579.448    1184.8425 
   61200    266.92129   -22475.853    102.63778   -22578.491   -12096.269 
   61400    279.17875   -22472.741    107.35107   -22580.092    17506.337 
   61600    328.38981   -22441.223    126.27393   -22567.496   -4787.5851 
   61800     287.3284   -22464.062    110.48481   -22574.547    12466.287 
   62000    296.26963    -22465.81    113.92293   -22579.733   -14758.482 
   62200    344.88514   -22452.649    132.61679   -22585.266   -11509.413 
   62400    250.54568   -22480.226    96.340952   -22576.567   -11717.117 
   62600    335.91202   -22463.595     129.1664   -22592.761   -16760.182 
   62800    338.33189   -22441.134     130.0969   -22571.231   -3548.6854 
   63000    335.01618   -22447.103    128.82193   -22575.925   -48.933293 
   63200    293.27504   -22468.947    112.77144   -22581.718   -19017.951 
   63400     285.0869   -22476.817     109.6229    -22586.44    11033.927 
   63600    294.00884   -22462.768     113.0536   -22575.822    -22696.33 
   63800    309.17047   -22461.673    118.88362   -22580.557   -9787.4596 
   64000     272.8282   -22481.453    104.90913   -22586.363   -3372.9851 
   64200    280.37595   -22466.661    107.81142   -22574.473   -13012.948 
   64400    308.05897   -22461.992    118.45622   -22580.448   -23221.005 
   64600    310.10392   -22466.352    119.24256   -22585.594   -10443.278 
   64800    288.99942   -22474.124    111.12736   -22585.251    5505.5599 
   65000     258.6983   -22488.239    99.475832   -22587.715   -4171.8242 
   65200     310.6267   -22456.932    119.44358   -22576.375    19156.426 
   65400    272.42304   -22471.179    104.75333   -22575.933    36749.258 
   65600    311.81356   -22468.664    119.89995   -22588.564   -9594.6281 
   65800    322.12607   -22455.626    123.86537   -22579.492   -15804.984 
   66000    266.57014   -22481.603    102.50275   -22584.106    10683.919 
   66200    317.97413   -22460.584    122.26884   -22582.853    21785.459 
   66400    297.92352   -22460.417    114.55889   -22574.976    23139.289 
   66600    270.07307    -22469.35    103.84971   -22573.199    3953.0662 
   66800    338.73295   -22439.633    130.25112   -22569.884    2925.7163 
   67000    317.75131   -22464.557    122.18316    -22586.74   -7346.0616 
   67200    294.12005   -22470.964    113.09636    -22584.06   -37629.848 
   67400    316.82507   -22445.874      121.827   -22567.701    -12670.17 
   67600    285.14741   -22467.006    109.64616   -22576.652   -2951.9349 
   67800    307.59495   -22469.598    118.27779   -22587.876   -2048.6987 
   68000     320.1054   -22439.397    123.08837   -22562.485   -3041.1198 
   68200    293.12706   -22460.693    112.71454   -22573.407    7046.5561 
   68400    297.39292   -22471.528    114.35486   -22585.883    1616.9481 
   68600    298.02163   -22451.492    114.59662   -22566.089   -4041.0388 
   68800    330.48829   -22453.119    127.08084     -22580.2   -16289.286 
   69000     304.5692   -22471.894    117.11432   -22589.008   -13205.652 
   69200    293.62769    -22456.02    112.90704   -22568.927   -13381.162 
   69400    339.69619   -22462.782    130.62151   -22593.404   -10983.483 
   69600    312.41961   -22471.493    120.13299   -22591.626     17783.46 
   69800     316.5085     -22467.4    121.70527   -22589.105   -17589.163 
   70000    269.23382   -22486.631      103.527   -22590.158    17772.244 
   70200    299.62618   -22461.124    115.21361   -22576.337   -11760.423 
   70400    295.94559   -22456.545    113.79833   -22570.343   -538.83204 
   70600    273.89292    -22484.84    105.31854   -22590.159   -17304.469 
   70800    294.06756   -22470.353    113.07618   -22583.429    6216.2993 
   71000    286.19004    -22462.26    110.04708   -22572.307   -11251.102 
   71200    336.27177   -22432.577    129.30473   -22561.882    1655.6983 
   71400    309.87791   -22459.614    119.15565    -22578.77   -4408.7268 
   71600    298.91406   -22467.705    114.93978   -22582.644   -11597.959 
   71800    318.21608   -22474.774    122.36188   -22597.136    16.962261 
   72000     324.7535   -22449.001    124.87568   -22573.877    404.25522 
   72200    292.99036   -22480.228    112.66197    -22592.89   -4597.1785 
   72400    293.52389   -22471.126    112.86713   -22583.993    1272.3303 
   72600    315.46542   -22451.026    121.30418   -22572.331   -11267.772 
   72800    304.33451    -22459.73    117.02408   -22576.754    12855.265 
   73000    304.00395   -22468.054    116.89697   -22584.951   -2860.7633 
   73200    254.39137   -22494.316    97.819713   -22592.136    11156.013 
   73400    293.01263   -22466.002    112.67053   -22578.672    4699.7188 
   73600    322.99884    -22456.69    124.20097   -22580.891    -4425.836 
   73800    288.22889   -22466.123    110.83107   -22576.954   -8511.2881 
   74000    272.63846   -22474.335    104.83617   -22579.172    17949.236 
   74200    295.44538   -22445.997    113.60599   -22559.603   -1064.9677 
   74400    286.42659   -22460.591    110.13804   -22570.729     -15912.1 
   74600    295.61356   -22467.561    113.67066   -22581.232   -3722.1574 
   74800     348.0174    -22439.59    133.82121   -22573.411   -3641.4974 
   75000    310.33408   -22465.158    119.33105   -22584.489   -1523.4254 
   75200    288.11868   -22470.509    110.78869   -22581.298    340.87193 
   75400    307.46974   -22448.629    118.22965   -22566.859    4460.7667 
   75600    305.23048   -22461.495    117.36859   -22578.863   -24027.473 
   75800    287.38461   -22471.309    110.50642   -22581.816    13584.554 
   76000    313.94381   -22461.799    120.71909   -22582.518   -23557.159 
   76200    298.58968    -22470.48    114.81505   -22585.295    11923.737 
   76400    278.88217    -22463.08    107.23702   -22570.317    848.53252 
   76600    294.41419   -22450.677    113.20947   -22563.887    20717.873 
   76800    275.53514    -22480.86    105.95001    -22586.81   -22561.353 
   77000    293.87104   -22461.498    113.00061   -22574.498    -1747.074 
   77200    312.48345   -22460.581    120.15754   -22580.738    6021.9198 
   77400    267.78101   -22496.039    102.96836   -22599.008    -1872.228 
   77600    291.02695    -22471.67    111.90699   -22583.577      18346.8 
   77800     299.5861   -22456.849    115.19819   -22572.048    1549.0982 
   78000    255.29224    -22483.54    98.166118   -22581.706    2626.4363 
   78200    281.40851   -22470.176    108.20846   -22578.384    -12305.07 
   78400    309.45651   -22461.765    118.99361   -22580.758    -4171.002 
   78600    279.87323   -22472.159    107.61811   -22579.778      6079.52 
   78800    286.59499   -22479.777    110.20279    -22589.98   -17250.633 
   79000    300.04202   -22459.605    115.37351   -22574.978    13922.037 
   79200    268.83476   -22474.246    103.37355   -22577.619   -1433.2541 
   79400     261.9503   -22481.258    100.72631   -22581.984    20460.001 
   79600    312.82464   -22455.202    120.28874    -22575.49    5946.0912 
   79800    270.05803   -22478.149    103.84393   -22581.993    27413.584 
   80000    283.73138   -22473.067    109.10167   -22582.169    18631.402 
   80200     291.5808   -22464.362    112.11996   -22576.482   -1156.4738 
   80400    310.68071   -22455.985    119.46434   -22575.449   -10600.417 
   80600    289.65887   -22457.887    111.38093   -22569.268     24439.13 
   80800    284.52442   -22473.628    109.40661   -22583.035   -23861.455 
   81000    315.31741   -22449.846    121.24727   -22571.093    30730.386 
   81200    300.42948   -22460.616    115.52249   -22576.138    46881.547 
   81400    288.87146   -22470.087    111.07815   -22581.165     12055.66 
   81600    327.93362   -22467.678    126.09851   -22593.776    9606.0763 
   81800      316.916   -22490.703    121.86197   -22612.565    19543.611 
   82000    331.41941   -22469.346    127.43888   -22596.785   -1930.1479 
   82200    309.36663   -22467.026    118.95905   -22585.985    4467.3653 
   82400    224.69205   -22490.082    86.399599   -22576.482    14829.069 
   82600    278.65421   -22456.421    107.14937    -22563.57    9733.8213 
   82800    307.49539   -22471.196    118.23951   -22589.435    13419.662 
   83000    268.61229   -22477.778      103.288   -22581.066    9149.4367 
   83200    307.67485   -22464.393    118.30852   -22582.702   -6870.6827 
   83400    279.31255   -22465.957    107.40252    -22573.36   -15829.049 
   83600    276.60624   -22480.373    106.36188   -22586.735    1513.5808 
   83800    292.79615   -22480.218    112.58729   -22592.805   -13828.679 
   84000    292.34749   -22458.097    112.41477   -22570.512    6786.9417 
   84200     276.1567   -22475.413    106.18902   -22581.602   -13010.043 
   84400    280.37693    -22494.43     107.8118   -22602.242   -9910.6257 
   84600    328.66492   -22462.647    126.37971   -22589.027   -9932.6745 
   84800    304.82697   -22467.227    117.21344    -22584.44    31698.148 
   85000    305.10324   -22485.112    117.31967   -22602.432    11481.492 
   85200    304.14969   -22460.974    116.95301   -22577.927     11742.45 
   85400     299.0812   -22469.055    115.00405   -22584.059   -7256.3269 
   85600    265.31965   -22487.253     102.0219   -22589.275   -17919.909 
   85800    303.74708   -22456.256    116.79819   -22573.054    5899.0925 
   86000    282.69184   -22473.762    108.70194   -22582.464   -15544.176 
   86200    289.37795    -22469.87    111.27291   -22581.143     10215.71 
   86400    327.74174   -22449.146    126.02473    -22575.17   -3639.8964 
   86600    284.64048   -22471.481    109.45124   -22580.932    5118.4916 
   86800    303.40673   -22449.581    116.66732   -22566.248    672.44043 
   87000     329.9886   -22456.514     126.8887   -22583.403    -3242.356 
   87200    313.79049   -22466.333    120.66013   -22586.994   -674.88035 
   87400    328.60422   -22438.282    126.35637   -22564.639    343.99224 
   87600    297.79455   -22455.699     114.5093   -22570.209     11831.41 
   87800    290.15248   -22464.373    111.57074   -22575.944    22002.888 
   88000    279.05403   -22464.937    107.30311    -22572.24    8760.1754 
   88200    304.91607   -22460.301     117.2477   -22577.549    16842.722 
   88400    292.01534   -22461.399    112.28705   -22573.686    41900.785 
   88600    291.18034   -22477.901    111.96597   -22589.867   -1275.5611 
   88800    292.67834   -22468.294    112.54199   -22580.836     13869.66 
   89000    283.48627   -22455.913    109.00741    -22564.92    4667.0484 
   89200     257.6356   -22485.292    99.067198   -22584.359   -4478.9291 
   89400    301.03311   -22469.414    115.75461   -22585.169    4296.5373 
   89600    295.59344   -22455.506    113.66292   -22569.169   -10189.305 
   89800    258.01401   -22484.506    99.212708   -22583.719    10736.749 
   90000    284.85618   -22476.254    109.53418   -22585.789    -5608.519 
   90200    288.61237   -22463.034    110.97853   -22574.012   -7339.9739 
   90400    273.95394   -22476.112      105.342   -22581.454   -8532.5885 
   90600    290.48194   -22484.871    111.69742   -22596.568   -14691.899 
   90800    312.76616   -22464.847    120.26625   -22585.113    6750.8719 
   91000    321.28004   -22464.948    123.54005   -22588.488    6223.5463 
   91200    300.19947   -22489.205    115.43405   -22604.639   -1648.9606 
   91400    304.05525   -22463.068    116.91669   -22579.985    22133.618 
   91600    323.93578   -22469.205    124.56124   -22593.766   -3856.5751 
   91800    273.50006   -22496.515    105.16747   -22601.683   -5951.0339 
   92000    285.72629   -22470.396    109.86876   -22580.265   -13215.423 
   92200    323.51001    -22466.05    124.39753   -22590.447    -2730.378 
   92400    275.21266   -22487.371    105.82601   -22593.197   -6793.8418 
   92600     300.5162   -22461.346    115.55584   -22576.901    28852.353 
   92800    294.01744    -22459.23    113.05691   -22572.287   -12345.715 
   93000    276.24996   -22480.562    106.22488   -22586.787   -6138.7926 
   93200    337.44859   -22447.031    129.75725   -22576.789     15746.95 
   93400    300.97974   -22465.973    115.73408   -22581.707   -33148.906 
   93600    282.35028   -22470.297     108.5706   -22578.867    18052.731 
   93800    320.84107   -22440.071    123.37125   -22563.442    4167.7165 
   94000    336.02613    -22459.78    129.21028    -22588.99    18416.352 
   94200    315.63416   -22462.711    121.36907    -22584.08    12633.956 
   94400    317.27326   -22430.927    121.99934   -22552.926    -12708.37 
   94600    323.38563   -22455.151     124.3497   -22579.501    17601.253 
   94800    308.58448   -22464.898    118.65829   -22583.556   -11675.378 
   95000    286.41933    -22474.84    110.13525   -22584.976   -12535.495 
   95200    293.22355   -22451.796    112.75164   -22564.547   -3963.5398 
   95400    268.30438   -22469.579    103.16961   -22572.748   -29049.025 
   95600    294.67996   -22474.343    113.31166   -22587.655   -337.26861 
   95800    334.15425   -22453.428    128.49049   -22581.918   -20924.113 
   96000    275.07801   -22484.204    105.77423   -22589.978    11503.162 
   96200    268.05213   -22466.885    103.07261   -22569.958    8959.6758 
   96400    322.07733   -22452.557    123.84662   -22576.404     5104.009 
   96600    272.33015   -22478.067    104.71761   -22582.784   -17171.412 
   96800    287.81846    -22455.51    110.67325   -22566.184   -15514.418 
   97000    297.82964   -22456.576    114.52279   -22571.099     8719.863 
   97200    281.22258   -22476.611    108.13697   -22584.748   -26940.046 
   97400    318.67686   -22449.695    122.53906   -22572.234   -429.57554 
   97600    321.55818   -22459.352      123.647   -22582.999    4293.4512 
   97800    295.63769   -22468.637    113.67993   -22582.317    24265.148 
   98000    308.21676   -22444.008     118.5169   -22562.525   -19851.954 
   98200     299.0423    -22457.76    114.98909   -22572.749   -6454.3717 
   98400    308.18442   -22468.261    118.50446   -22586.765    3687.4374 
   98600    309.56486   -22453.683    119.03527   -22572.718    18574.022 
   98800    302.91252   -22463.233    116.47729    -22579.71   -10069.485 
   99000    297.25568   -22474.372    114.30209   -22588.674    5793.9855 
   99200    326.27208   -22449.246    125.45961   -22574.706    3215.6796 
   99400    269.78039   -22477.821    103.73717   -22581.558    8048.8717 
   99600    268.36496   -22472.171     103.1929   -22575.364   -8511.2342 
   99800    311.04201   -22453.643    119.60327   -22573.246   -29689.292 
  100000    272.73952   -22480.629    104.87503   -22585.504    14228.076 
  100200    319.66935    -22455.01     122.9207   -22577.931    16807.715 
  100400    278.17826     -22465.3    106.96635   -22572.267    23152.431 
  100600    306.27722   -22476.666    117.77109   -22594.437    33828.189 
  100800    317.76997   -22447.586    122.19034   -22569.777    8442.7496 
  101000    313.77756    -22459.26    120.65516   -22579.915   -4184.4531 
  101200    282.89692   -22467.765     108.7808   -22576.545    3289.0601 
  101400    325.43193   -22462.228    125.13655   -22587.364    -9216.446 
  101600    325.25396   -22453.651    125.06812   -22578.719    -7608.181 
  101800    270.99087   -22479.316    104.20263   -22583.519   -23799.265 
  102000    333.87068   -22464.449    128.38146    -22592.83     43.79849 
  102200    328.43322   -22458.462    126.29062   -22584.753   -671.35572 
  102400    277.91295   -22473.027    106.86434   -22579.891    31828.067 
  102600    331.57442   -22448.891    127.49849    -22576.39    -3760.077 
  102800    317.51787   -22450.667     122.0934    -22572.76     19863.34 
  103000    292.09939   -22466.032    112.31937   -22578.352   -719.95199 
  103200    312.96678   -22455.604     120.3434   -22575.948   -2041.5691 
  103400    288.33899   -22461.709     110.8734   -22572.583    6201.5061 
  103600    287.23235    -22473.34    110.44788   -22583.788    1349.0099 
  103800    278.56632   -22484.173    107.11558   -22591.288     9972.566 
  104000    313.26137   -22455.999    120.45667   -22576.456    21667.149 
  104200    283.96687   -22469.099    109.19222   -22578.292    -6168.437 
  104400    268.75778   -22487.448    103.34395   -22590.792    14339.363 
  104600    294.22224   -22458.879    113.13566   -22572.015    7481.6001 
  104800    278.71664   -22473.505    107.17338   -22580.678    10157.197 
  105000    315.80579   -22460.123    121.43506   -22581.558   -6672.1423 
  105200    290.55884   -22461.503    111.72699    -22573.23    5424.4448 
  105400    292.52395   -22479.458    112.48262    -22591.94   -14383.794 
  105600    318.49837   -22468.773    122.47042   -22591.244   -36260.551 
  105800    343.24657   -22441.473    131.98671    -22573.46    13739.326 
  106000    272.66957   -22472.291    104.84813   -22577.139   -36127.255 
  106200    302.03247   -22468.271    116.13888    -22584.41   -15363.771 
  106400    327.59311    -22442.71    125.96757   -22568.678   -29039.007 
  106600    273.35195   -22473.475    105.11052   -22578.586   -5333.3997 
  106800    325.70412   -22470.076    125.24121   -22595.317    -10260.52 
  107000     349.8857    -22450.84    134.53962   -22585.379   -13901.733 
  107200    303.53642   -22473.595    116.71719   -22590.312   -1055.9452 
  107400    300.28055   -22474.341    115.46523   -22589.806   -5007.7496 
  107600    306.75164   -22453.897    117.95352   -22571.851    5696.7172 
  107800    298.39675   -22465.444    114.74086   -22580.185    11086.346 
  108000     289.1598   -22480.706    111.18903   -22591.895   -828.33947 
  108200    297.54671   -22474.415      114.414   -22588.829    347.61738 
  108400    324.46251   -22451.345    124.76378   -22576.109    -23181.06 
  108600    290.95721   -22475.972    111.88017   -22587.852   -8137.4957 
  108800     308.3595    -22472.74    118.57178   -22591.312     22958.92 
  109000    291.66314     -22451.5    112.15162   -22563.652    15152.152 
  109200    288.51125   -22472.432    110.93964   -22583.371    -15606.48 
  109400    304.31345   -22468.502    117.01597   -22585.518    5352.2066 
  109600     309.6916   -22459.062      119.084   -22578.146   -2190.3785 
  109800    290.76298   -22487.845    111.80549   -22599.651   -8877.2693 
  110000    299.60299   -22469.936    115.20469    -22585.14    8135.1456 
  110200    314.30127   -22463.714    120.85654    -22584.57    643.93793 
  110400    250.80933   -22489.651    96.442331   -22586.093    29256.322 
  110600    283.33877    -22466.38     108.9507    -22575.33    6875.6419 
  110800     289.6352   -22461.825    111.37183   -22573.196   -26616.923 
  111000    310.86436   -22448.772    119.53496   -22568.307    -10085.55 
  111200    269.25571   -22469.329    103.53542   -22572.865    7825.9315 
  111400    278.34374   -22474.584    107.02998   -22581.614    17478.559 
  111600     332.6858   -22445.286    127.92584   -22573.212    6185.4343 
  111800    302.84507   -22472.668    116.45135   -22589.119   -3734.0647 
  112000    291.34189   -22472.274    112.02809   -22584.302    -12342.25 
  112200    309.64961   -22448.659    119.06786   -22567.727    2036.9023 
  112400    299.73928   -22456.682    115.25709   -22571.939    13529.913 
  112600    285.63048   -22469.161    109.83192   -22578.993    10448.297 
  112800    337.77149    -22449.26    129.88141   -22579.141    6340.1149 
  113000    261.31583   -22479.196    100.48234   -22579.678   -3215.6339 
  113200    308.42082   -22465.472    118.59536   -22584.068     7094.408 
  113400    314.51741   -22460.833    120.93965   -22581.773    4317.4135 
  113600    266.81434     -22481.5    102.59665   -22584.096    5877.5008 
  113800    260.66999   -22493.616    100.23399    -22593.85    2526.3921 
  114000    285.41017   -22468.424     109.7472   -22578.172    8599.1136 
  114200    305.52315   -22448.927    117.48114   -22566.408      1433.21 
  114400    291.57471   -22445.762    112.11762   -22557.879    24697.122 
  114600    285.05589   -22471.391    109.61097   -22581.002    1761.0505 
  114800    313.18024   -22472.672    120.42547   -22593.098    9577.7843 
  115000    314.89457   -22450.235    121.08467   -22571.319   -16300.077 
  115200    277.69857   -22479.033     106.7819   -22585.815   -8220.2369 
  115400    301.37413   -22471.541    115.88574   -22587.426   -1199.4084 
  115600    314.62232   -22453.059    120.97999   -22574.039    10220.213 
  115800    295.20472   -22451.108    113.51345   -22564.622    3732.5859 
  116000    292.61441   -22471.149    112.51741   -22583.667     4793.595 
  116200    288.75576   -22455.184    111.03366   -22566.217   -13276.735 
  116400    338.70874    -22454.41    130.24181   -22584.652   -14538.394 
  116600    308.89419   -22467.106    118.77738   -22585.883    18290.138 
  116800     305.9968   -22459.937    117.66327     -22577.6    18426.891 
  117000    299.55689   -22448.031    115.18696   -22563.218    9057.8722 
  117200    288.41817   -22478.577    110.90385   -22589.481    858.54084 
  117400    294.34807   -22468.831    113.18404   -22582.015    23351.533 
  117600    318.39403   -22459.971     122.4303   -22582.401    13131.605 
  117800    293.32364   -22472.033    112.79013   -22584.823   -8863.2696 
  118000    286.67236   -22490.703    110.23255   -22600.936    36940.472 
  118200    282.51377   -22462.987    108.63347   -22571.621     7411.226 
  118400    288.33045   -22465.206    110.87012   -22576.076    33.128238 
  118600     280.1815   -22484.647    107.73665   -22592.384    4847.8641 
  118800     290.2038   -22483.655    111.59047   -22595.245    20572.709 
  119000    312.41145   -22463.478    120.12985   -22583.608    12670.064 
  119200     266.1506   -22485.352    102.34142   -22587.693   -7016.2683 
  119400    287.80727   -22482.114    110.66895   -22592.783   -9880.0099 
  119600    313.97258   -22460.941    120.73015   -22581.671    6987.5425 
  119800    295.48021   -22476.237    113.61938   -22589.856    5593.9885 
  120000    278.30426   -22481.401    107.01481   -22588.416    21995.987 
  120200    299.86411   -22455.898    115.30509   -22571.203   -843.79894 
  120400    265.78267   -22478.501    102.19995   -22580.701    5712.9251 
  120600    300.18426   -22459.779     115.4282   -22575.207    8694.4999 
  120800    306.69451   -22453.224    117.93155   -22571.156   -2469.7892 
  121000    280.39599   -22467.259    107.81913   -22575.078   -12281.362 
  121200    328.47025   -22456.285    126.30486    -22582.59    11240.745 
  121400    296.51581   -22478.067    114.01759   -22592.085   -6985.4927 
  121600    286.63387   -22468.712    110.21774    -22578.93    10477.692 
  121800    327.41027   -22447.739    125.89727   -22573.637    6463.1972 
  122000    282.64216   -22468.354    108.68283   -22577.037   -2267.9271 
  122200    262.47211   -22486.463    100.92695    -22587.39   -38714.895 
  122400    313.58071    -22461.93    120.57946    -22582.51    31811.517 
  122600    325.39672   -22467.749    125.12301   -22592.872    9251.9644 
  122800    286.85155   -22480.845    110.30145   -22591.146    5626.6345 
  123000    277.61293   -22459.252    106.74897   -22566.001    36058.741 
  123200    309.47194   -22470.137    118.99954   -22589.137   -18952.954 
  123400     272.2042   -22487.044    104.66918   -22591.714   -24390.726 
  123600    324.32518   -22461.999    124.71098    -22586.71     30523.16 
  123800    329.71039   -22467.318    126.78172     -22594.1   -6172.6157 
  124000    246.07334   -22491.387    94.621228   -22586.008    15223.584 
  124200    318.94858   -22469.895    122.64354   -22592.538   -2518.7288 
  124400    317.78284   -22463.854    122.19529   -22586.049   -18743.516 
  124600     325.4697   -22448.542    125.15107   -22573.693   -21517.135 
  124800    303.95041   -22465.097    116.87638   -22581.973   -1608.2044 
  125000    308.90677   -22470.997    118.78222   -22589.779   -6266.3025 
  125200    301.97758   -22447.824    116.11778   -22563.942    2379.9429 
  125400    290.11956   -22472.969    111.55808   -22584.527   -21419.087 
  125600    296.54015   -22472.944    114.02695   -22586.971   -10051.039 
  125800    328.17863   -22448.343    126.19272   -22574.536    9284.0362 
  126000    283.95939   -22464.574    109.18934   -22573.763    -11526.79 
  126200    311.00695   -22464.431    119.58979   -22584.021    16401.176 
  126400    275.13927   -22484.147    105.79779   -22589.945    6088.4182 
  126600    336.05938   -22461.439    129.22306   -22590.662     9732.903 
  126800    305.95056   -22461.643    117.64549   -22579.289    15145.055 
  127000    276.15354   -22471.685     106.1878   -22577.873   -1796.8542 
  127200    311.17722   -22459.151    119.65526   -22578.806      18438.9 
  127400    278.84455   -22467.623    107.22256   -22574.845   -11943.488 
  127600    302.14727   -22480.722    116.18303   -22596.905   -9592.9844 
  127800    293.75855   -22468.631    112.95736   -22581.588    17081.377 
  128000    326.53134   -22445.416     125.5593   -22570.976    20287.979 
  128200     259.8387   -22471.545    99.914347   -22571.459   -9774.2739 
  128400    294.90717   -22463.814    113.39903   -22577.213   -3590.8381 
  128600    339.04603   -22444.795     130.3715   -22575.167   -15172.403 
  128800    286.05198   -22466.324    109.99399   -22576.318   -282.41986 
  129000    264.76779    -22475.26     101.8097   -22577.069   -21064.203 
  129200    336.62398   -22445.007    129.44016   -22574.447    4663.1035 
  129400    283.86124   -22460.867     109.1516   -22570.018    12242.943 
  129600    297.28815   -22459.452    114.31457   -22573.767    3748.8632 
  129800    376.87388   -22427.747    144.91724   -22572.664   -323.52053 
  130000    293.86377   -22456.845    112.99782   -22569.842    9679.8652 
  130200    290.23642   -22470.631    111.60301   -22582.234    30368.834 
  130400    280.94713   -22440.459    108.03105    -22548.49    774.32344 
  130600     303.8729   -22459.766    116.84657   -22576.612    2098.4336 
  130800    286.10421   -22473.289    110.01408   -22583.303    2132.7209 
  131000    340.73478   -22441.527    131.02087   -22572.548    12635.761 
  131200    307.46372    -22459.09    118.22733   -22577.317    2721.2928 
  131400    294.25823   -22468.366     113.1495   -22581.516    7893.6324 
  131600     262.2868   -22481.142     100.8557   -22581.997    25.276236 
  131800    309.16433    -22478.54    118.88126   -22597.421    3479.7811 
  132000    291.81866   -22460.024    112.21142   -22572.236    -13961.47 
  132200    273.04893   -22472.731      104.994   -22577.725     12189.49 
  132400    261.95075   -22490.795    100.72648   -22591.522   -2224.3028 
  132600    283.41682   -22465.957    108.98071   -22574.938    4319.9953 
  132800    285.37424   -22470.963    109.73339   -22580.696    26831.995 
  133000      305.484   -22453.379    117.46608   -22570.845    6136.4007 
  133200    301.01332   -22457.186    115.74699   -22572.933    11406.229 
  133400    311.30031   -22472.229    119.70259   -22591.932   -20425.269 
  133600    320.87677    -22454.63    123.38498   -22578.015   -10146.864 
  133800    323.84793   -22448.853    124.52746    -22573.38   -13415.741 
  134000    310.66041   -22476.432    119.45654   -22595.888    -9192.547 
  134200     318.5386   -22460.292     122.4859   -22582.778   -6084.3723 
  134400     302.4125   -22455.642    116.28502   -22571.927     20926.32 
  134600    305.37203   -22464.064    117.42303   -22581.487    436.37587 
  134800    295.87042   -22467.173    113.76942   -22580.943   -12553.995 
  135000    317.50194   -22444.016    122.08727   -22566.103   -13353.266 
  135200    285.15112   -22473.799    109.64759   -22583.446    12075.295 
  135400    324.35418   -22463.522    124.72213   -22588.244   -14028.386 
  135600     291.0269   -22459.375    111.90697   -22571.282   -28007.235 
  135800     275.9327   -22481.011    106.10288   -22587.113    6689.4884 
  136000    339.17156   -22459.202    130.41977   -22589.622    10145.373 
  136200    303.18337   -22459.282    116.58143   -22575.863   -30780.034 
  136400    290.09723   -22479.995    111.54949   -22591.545   -3589.8038 
  136600    266.15449   -22497.193    102.34292   -22599.536   -24743.268 
  136800    306.07674   -22467.958    117.69401   -22585.652   -2520.5496 
  137000    332.91802   -22451.823    128.01513   -22579.838   -4859.9982 
  137200    309.45921   -22475.792    118.99465   -22594.786   -18025.522 
  137400    292.27269   -22475.287    112.38601   -22587.673   -5948.2849 
  137600      296.058    -22465.59    113.84156   -22579.432   -1419.1931 
  137800    314.91195   -22465.825    121.09136   -22586.916    19857.664 
  138000    319.69441   -22457.163    122.93033   -22580.093   -9142.3619 
  138200    317.23441   -22460.837     121.9844   -22582.821   -6613.5888 
  138400    277.69608   -22480.178    106.78095   -22586.959   -15842.158 
  138600    339.45783   -22448.897    130.52985   -22579.427    3337.5249 
  138800    255.61693   -22467.301    98.290971   -22565.592   -14703.795 
  139000    272.31592   -22471.104    104.71214   -22575.816   -9129.4047 
  139200    339.55364   -22438.863    130.56669    -22569.43   -3175.5632 
  139400    288.08841   -22463.367    110.77705   -22574.144    6960.2608 
  139600    272.14344    -22472.58    104.64582   -22577.226    -5646.964 
  139800    339.85676    -22439.88    130.68325   -22570.563   -19974.819 
  140000    300.51841   -22467.539    115.55669   -22583.095    4231.7602 
  140200    286.38499   -22466.358    110.12204    -22576.48    894.49211 
  140400    326.99507   -22439.629    125.73762   -22565.367   -8715.1451 
  140600    303.32206   -22463.118    116.63476   -22579.753   -37446.287 
  140800    297.77833   -22473.687    114.50306    -22588.19    9191.9028 
  141000    307.28557   -22456.409    118.15883   -22574.568   -20381.162 
  141200    287.97685   -22454.712    110.73415   -22565.447    8886.3315 
  141400     268.3865   -22477.477    103.20118   -22580.678   -583.64196 
  141600    315.64418   -22460.623    121.37292   -22581.996    -4892.121 
  141800    353.31442   -22431.588    135.85805   -22567.446    552.21784 
  142000    298.52209   -22465.665    114.78906   -22580.454   -33771.798 
  142200    315.89218   -22455.514    121.46828   -22576.983   -3239.9488 
  142400    298.13186   -22480.012      114.639   -22594.651   -17492.622 
  142600      281.642   -22467.119    108.29825   -22575.417    -953.8435 
  142800    319.21702   -22457.424    122.74676   -22580.171    8311.8479 
  143000     281.8078   -22469.657      108.362   -22578.019   -10411.078 
  143200    309.32487   -22451.506    118.94299   -22570.449    699.43169 
  143400    264.89905   -22458.374    101.86017   -22560.235    2164.1341 
  143600    309.28261   -22470.628    118.92674   -22589.555    5965.3817 
  143800    287.23248     -22456.4    110.44792   -22566.848    20369.805 
  144000    304.90879   -22456.913     117.2449   -22574.158    1191.5374 
  144200    284.35037   -22473.562    109.33968   -22582.902    26961.358 
  144400    300.45822   -22460.394    115.53355   -22575.928    23274.586 
  144600    291.47825   -22445.642    112.08053   -22557.723   -24972.848 
  144800    267.74301   -22480.802    102.95374   -22583.756   -5531.9342 
  145000    304.74086   -22458.432    117.18033   -22575.612   -7150.8213 
  145200     300.3148   -22452.725     115.4784   -22568.203    24070.194 
  145400    270.54427   -22464.323     104.0309   -22568.354   -7780.0548 
  145600    294.22366   -22464.526     113.1362   -22577.662    15139.864 
  145800     288.8788   -22485.675    111.08098   -22596.756   -10952.574 
  146000    335.96315   -22458.857    129.18606   -22588.043    11291.131 
  146200    285.88072   -22465.611    109.92814   -22575.539   -10811.994 
  146400    273.25811   -22499.865    105.07444   -22604.939    -20927.27 
  146600    260.81618   -22481.105    100.29021   -22581.395    21112.969 
  146800    308.11266   -22461.253    118.47687    -22579.73   -27494.848 
  147000    342.07169   -22442.525    131.53495    -22574.06   -7241.1515 
  147200    299.26611   -22468.894    115.07515   -22583.969    6048.1351 
  147400    285.29649    -22467.63    109.70349   -22577.333   -7852.0911 
  147600    331.14758   -22443.759    127.33435   -22571.093   -1348.0024 
  147800    304.40496   -22467.057    117.05116   -22584.108    12106.467 
  148000    308.01054    -22467.48     118.4376   -22585.918   -15189.878 
  148200    337.22229   -22453.365    129.67023   -22583.035   -8998.8411 
  148400    287.51978    -22464.27     110.5584   -22574.828    23181.473 
  148600    283.05629   -22466.944    108.84208   -22575.786    19184.147 
  148800    326.50989   -22453.945    125.55105   -22579.496    1978.8559 
  149000    303.31711    -22464.57    116.63286   -22581.203     -8825.48 
  149200    294.78332   -22478.947    113.35141   -22592.299   -6189.5657 
  149400    344.24714   -22458.322    132.37146   -22590.694   -10871.389 
  149600    315.85466   -22458.554    121.45385   -22580.008    15665.963 
  149800     320.7701   -22469.501    123.34396   -22592.845   -10637.185 
  150000    276.10927   -22475.918    106.17078   -22582.089    3050.9763 
  150200    317.89682    -22449.03    122.23911   -22571.269   -5364.1806 
  150400    279.69457   -22474.273    107.54941   -22581.822   -6634.9057 
  150600     290.1676   -22470.007    111.57655   -22581.583   -541.27334 
  150800    315.56902   -22450.033    121.34402   -22571.377   -585.40175 
  151000    285.77261   -22483.521    109.88657   -22593.407    -13427.31 
  151200    290.12423   -22461.784    111.55987   -22573.344   -25301.441 
  151400    275.37389   -22463.617    105.88801   -22569.505    17298.382 
  151600    271.54215    -22492.71    104.41461   -22597.125   -19826.823 
  151800    288.59767   -22474.743    110.97287   -22585.716    43256.374 
  152000    284.55283   -22462.068    109.41753   -22571.486    1036.2511 
  152200    289.27783   -22481.459    111.23441   -22592.694   -8618.5621 
  152400    312.27968   -22473.289    120.07919   -22593.368    4745.7427 
  152600    312.66352   -22459.676    120.22678   -22579.903   -14284.684 
  152800    279.25186   -22479.111    107.37918    -22586.49    24729.625 
  153000    272.03018   -22478.643    104.60227   -22583.245   -2695.4551 
  153200    304.39646   -22451.045     117.0479   -22568.093    7679.2167 
  153400    299.79946   -22470.876    115.28024   -22586.156   -18766.726 
  153600    280.69714   -22472.803    107.93492   -22580.738   -11078.937 
  153800    322.72306   -22448.379    124.09492   -22572.474    6916.7112 
  154000    307.74984   -22474.048    118.33735   -22592.386   -8751.6041 
  154200    288.58302   -22466.675    110.96724   -22577.642   -3019.5347 
  154400    293.33916   -22448.759    112.79609   -22561.555    3470.8101 
  154600    288.40889   -22466.266    110.90028   -22577.167    5973.4916 
  154800    304.98928   -22469.566    117.27585   -22586.842   -11122.395 
  155000    312.37635   -22453.601    120.11636   -22573.717    16898.843 
  155200     299.9585   -22479.263    115.34139   -22594.604    23342.464 
  155400    302.54685    -22469.22    116.33668   -22585.556    10215.413 
  155600    308.46692   -22459.983    118.61309   -22578.596    16570.673 
  155800    305.65696   -22473.262    117.53259   -22590.794   -2452.8687 
  156000    240.88472   -22487.001    92.626077   -22579.627    11104.225 
  156200    274.54599   -22464.649    105.56966   -22570.218   -6868.3006 
  156400    334.20844   -22448.836    128.51133   -22577.347    1541.6234 
  156600    281.01251   -22469.082    108.05619   -22577.139    5786.0905 
  156800    300.03822   -22473.219    115.37205   -22588.591    24239.679 
  157000    310.10181   -22446.203    119.24174   -22565.445    15178.645 
  157200    282.36075   -22461.437    108.57463   -22570.011    16762.051 
  157400    307.29528   -22455.981    118.16256   -22574.144    1347.2482 
  157600    347.67768   -22433.914    133.69058   -22567.604   -9323.5038 
  157800    293.71013   -22461.348    112.93874   -22574.286    3527.9474 
  158000    318.90252   -22464.736    122.62583   -22587.361    25201.324 
  158200    312.15613   -22461.542    120.03168   -22581.573    -13350.13 
  158400    316.17044   -22466.234    121.57528   -22587.809   -9286.8983 
  158600    262.83391   -22480.944    101.06608    -22582.01    2530.3606 
  158800     311.8346   -22458.589    119.90804   -22578.497    5144.7911 
  159000    338.44985   -22459.755    130.14226   -22589.897    3003.9808 
  159200    253.59902    -22479.05    97.515034   -22576.565    4854.0282 
  159400    316.52782    -22463.02     121.7127   -22584.733   -5199.4902 
  159600    291.86661   -22461.188    112.22986   -22573.418    23185.209 
  159800    284.90208   -22486.198    109.55183    -22595.75     8937.042 
  160000     310.0112   -22460.732     119.2069   -22579.939   -13327.041 
  160200    289.54671   -22464.465     111.3378   -22575.803    -2403.663 
  160400    270.99329   -22484.233    104.20356   -22588.436    27349.412 
  160600    282.16648    -22488.18    108.49992    -22596.68   -8913.5321 
  160800    282.04093   -22466.179    108.45165   -22574.631   -9484.6852 
  161000    271.97026   -22475.294    104.57923   -22579.874   -13564.472 
  161200    265.65757    -22485.44    102.15184   -22587.592   -8060.1001 
  161400    313.86234   -22455.276    120.68776   -22575.963   -19870.885 
  161600    303.75027    -22465.68    116.79942   -22582.479   -1529.5913 
  161800    265.08336    -22494.88    101.93104   -22596.811     4961.467 
  162000     278.1929   -22472.076    106.97199   -22579.048   -8621.1178 
  162200    294.04955   -22458.948    113.06926   -22572.017    -8849.846 
  162400    320.93181   -22449.687    123.40614   -22573.093    -18831.33 
  162600    289.53806   -22480.193    111.33448   -22591.528    11802.832 
  162800    301.25671   -22459.153    115.84058   -22574.994   -20868.276 
  163000    292.43263   -22464.119    112.44751   -22576.567   -519.33256 
  163200    308.44977   -22465.319    118.60649   -22583.926   -6635.8986 
  163400    333.74403   -22445.829    128.33276   -22574.161    5386.8368 
  163600    268.18486   -22470.555    103.12365   -22573.678    11416.515 
  163800    288.80522   -22463.428    111.05268    -22574.48    809.30458 
  164000    305.81275   -22452.959    117.59249   -22570.551    25329.979 
  164200    267.21443   -22471.041    102.75049   -22573.792   -30344.558 
  164400    261.46441   -22472.726    100.53947   -22573.266   -6575.2611 
  164600    323.94451   -22444.415     124.5646    -22568.98    26368.638 
  164800     286.2717   -22465.808    110.07848   -22575.886    -18618.42 
  165000    289.96099   -22468.055     111.4971   -22579.552   -7062.8469 
  165200    332.97566   -22445.724     128.0373   -22573.762   -17052.852 
  165400    317.40632   -22446.562     122.0505   -22568.613   -8165.6405 
  165600    263.44619   -22468.768    101.30151   -22570.069   -7570.2323 
  165800    329.66521   -22457.576    126.76435   -22584.341    -470.8999 
  166000    286.10192    -22467.64     110.0132   -22577.653    4149.4831 
  166200    268.30601   -22483.432    103.17023   -22586.602    3736.8671 
  166400    288.49708   -22463.478    110.93419   -22574.412    8218.3822 
  166600    344.47036   -22467.619    132.45729   -22600.076    426.02733 
  166800    344.48861   -22456.363    132.46431   -22588.827    -4348.509 
  167000    291.56206   -22477.591    112.11275   -22589.704    23613.137 
  167200    274.91617   -22472.444      105.712   -22578.156     9630.974 
  167400    313.36858   -22462.538    120.49789   -22583.036    -5379.639 
  167600    300.56935   -22479.219    115.57628   -22594.795   -15604.528 
  167800    345.53175   -22452.859    132.86542   -22585.724    11225.651 
  168000    280.22964   -22469.312    107.75516   -22577.067    3796.2083 
  168200    303.77099   -22472.854    116.80739   -22589.662    298.10919 
  168400    312.89076   -22470.679    120.31416   -22590.993    -17325.86 
  168600     310.4596   -22450.068    119.37932   -22569.447     -10910.1 
  168800    288.97923   -22468.743    111.11959   -22579.863    15283.357 
  169000    307.64224   -22472.645    118.29598   -22590.941    26454.216 
  169200    310.66491   -22452.074    119.45827   -22571.532   -20883.225 
  169400    299.04647   -22475.243    114.99069   -22590.233    21335.933 
  169600    302.50823    -22471.25    116.32183   -22587.572   -9052.0321 
  169800    328.65902   -22453.484    126.37744   -22579.861   -20526.401 
  170000    287.24869   -22469.028    110.45416   -22579.482   -5908.6937 
  170200    263.26272   -22473.268    101.23097   -22574.499   -10407.024 
  170400    320.64899   -22457.808    123.29739   -22581.105    25798.823 
  170600    329.43664   -22445.871    126.67646   -22572.547   -11431.492 
  170800    278.12927   -22478.775    106.94752   -22585.723    2975.6194 
  171000     315.3282   -22460.961    121.25142   -22582.212   -11628.681 
  171200    312.22914   -22451.953    120.05975   -22572.012   -19173.337 
  171400    289.14737   -22461.684    111.18425   -22572.868    4784.7817 
  171600    266.49618   -22471.244    102.47431   -22573.718   -7385.6158 
  171800    284.93784   -22465.624    109.56558   -22575.189    14913.149 
  172000    331.41632   -22453.312    127.43769    -22580.75    24951.834 
  172200     250.3087   -22484.928    96.249826   -22581.178    11260.862 
  172400    302.60558   -22464.818    116.35926   -22581.177   -11937.284 
  172600    292.64837   -22465.052    112.53047   -22577.582    26663.298 
  172800    253.91026   -22492.736    97.634714    -22590.37    20182.658 
  173000    296.96049   -22468.529    114.18858   -22582.718    25574.568 
  173200     309.6107   -22465.125     119.0529   -22584.178   -3217.9833 
  173400    289.22096   -22473.013    111.21254   -22584.225   -9328.6409 
  173600    255.96728   -22482.746    98.425691   -22581.172   -2881.1778 
  173800    311.64736   -22455.457    119.83604   -22575.293   -18.070566 
  174000    283.28586   -22473.999    108.93035   -22582.929   -23722.972 
  174200    322.26189   -22473.966    123.91759   -22597.883    8813.3521 
  174400    319.44759    -22449.07    122.83542   -22571.906   -3496.4013 
  174600    276.09185    -22475.32    106.16408   -22581.484   -11991.593 
  174800    297.97557   -22462.117    114.57891   -22576.696   -28024.522 
  175000    351.85475   -22447.871    135.29677   -22583.168    9725.9657 
  175200     291.9806   -22469.394    112.27369   -22581.668    9991.0898 
  175400     267.8857   -22479.828    103.00862   -22582.836    10937.707 
  175600    314.21831   -22457.354    120.82464   -22578.178   -2222.2667 
  175800    298.08085   -22463.628    114.61939   -22578.247   -1200.6996 
  176000    268.70728   -22489.229    103.32453   -22592.553   -5329.2272 
  176200    291.14579   -22470.354    111.95269   -22582.307    6609.7104 
  176400    310.21123   -22462.311    119.28382   -22581.595    12482.114 
  176600    275.59093   -22491.463    105.97146   -22597.434   -26101.766 
  176800    313.42498   -22469.411    120.51958    -22589.93   -6309.5817 
  177000    315.54194   -22460.575     121.3336   -22581.908   -4975.6389 
  177200    293.22707   -22489.871    112.75299   -22602.624   -1197.9328 
  177400    267.72456   -22472.175    102.94665   -22575.121    5973.1474 
  177600    303.27848   -22465.627    116.61801   -22582.245   -2288.5765 
  177800    290.36994    -22482.87    111.65436   -22594.524   -413.13609 
  178000    291.42818   -22472.948    112.06127   -22585.009   -12776.574 
  178200    320.85289   -22458.222     123.3758   -22581.598   -6253.8005 
  178400    283.56916   -22470.858    109.03929   -22579.897   -22039.054 
  178600    244.88563   -22495.892    94.164523   -22590.056   -10712.041 
  178800    310.53902   -22465.135    119.40986   -22584.544    20178.469 
  179000    346.25065    -22449.73    133.14186   -22582.872   -12725.359 
  179200    290.08692   -22477.144    111.54553   -22588.689   -23039.648 
[...]
  950000    312.20238   -22504.391    120.04946   -22624.441   -6949.7947 
  950200    323.97117   -22501.065    124.57485    -22625.64   -2819.3802 
  950400    339.48917   -22496.429     130.5419   -22626.971    25405.232 
  950600    295.14202   -22515.986    113.48934   -22629.476   -2140.2421 
  950800    314.95908   -22514.161    121.10948   -22635.271    9996.7012 
  951000    326.61163   -22496.869    125.59017   -22622.459   -9724.5478 
  951200    289.25874   -22513.399    111.22707   -22624.626    41647.899 
  951400    257.78822   -22535.918    99.125885   -22635.044    28770.638 
  951600    293.58276   -22506.398    112.88976   -22619.288   -14428.892 
  951800    305.31693   -22496.415    117.40184   -22613.817    -6312.829 
  952000    291.43202   -22509.704    112.06275   -22621.767   -10351.022 
  952200    268.55362   -22518.486    103.26545   -22621.751    -18882.63 
  952400    308.32027   -22494.969     118.5567   -22613.525   -781.70902 
  952600    280.90583   -22512.068    108.01517   -22620.083   -4998.6187 
  952800    292.97152   -22511.999    112.65473   -22624.654   -11550.166 
  953000    332.80847   -22501.759    127.97301   -22629.732    25292.888 
  953200    318.71568   -22498.214    122.55399   -22620.768    1460.0593 
  953400     263.1858   -22513.708    101.20139   -22614.909    -20066.18 
  953600    314.60925   -22498.241    120.97496   -22619.216    17587.995 
  953800    313.65906   -22496.818    120.60959   -22617.428    7860.7343 
  954000    267.98697   -22518.663    103.04755   -22621.711   -2798.1421 
  954200    302.26865   -22499.071     116.2297   -22615.301     9843.545 
  954400    288.61694   -22504.997    110.98028   -22615.977    11944.003 
  954600    267.04266   -22519.561    102.68445   -22622.245    3349.3099 
  954800    303.87101   -22494.289    116.84585   -22611.135   -11940.911 
  955000    317.64372   -22503.646    122.14179   -22625.788    4752.7334 
  955200    267.55951   -22532.413    102.88319   -22635.296    16301.105 
  955400     308.8725   -22505.385    118.76904   -22624.154   -2248.7105 
  955600    331.43161   -22488.124    127.44357   -22615.567   -1368.7204 
  955800    310.65599   -22507.321    119.45484   -22626.776    8423.2151 
  956000    291.15263   -22513.804    111.95532    -22625.76    -234.3085 
  956200    337.27377   -22493.959    129.69003   -22623.649   -8884.0331 
  956400     367.6686   -22469.579    141.37758   -22610.957    8430.9833 
  956600    330.05034   -22503.012    126.91244   -22629.924    16060.022 
  956800    279.24017   -22514.113    107.37469   -22621.487   -8716.3437 
  957000     323.8063   -22484.599    124.51145   -22609.111    17540.115 
  957200    309.39413   -22499.244    118.96962   -22618.214    9470.0469 
  957400    271.22866   -22501.016    104.29406    -22605.31    6042.9954 
  957600    263.96122    -22501.96    101.49955   -22603.459    20939.454 
  957800    299.29978    -22503.18     115.0881   -22618.268   -21936.935 
  958000    291.26296   -22518.432    111.99774   -22630.429    3653.3727 
  958200    303.03933   -22493.084    116.52605    -22609.61   -18784.103 
  958400    296.47429   -22497.287    114.00163   -22611.288    -12801.85 
  958600     279.8224   -22522.153    107.59857   -22629.751    6408.8777 
  958800    328.45533   -22500.214    126.29912   -22626.513    1821.8207 
  959000    290.17698   -22507.007    111.58016   -22618.587    18442.906 
  959200    342.72525   -22481.509    131.78625   -22613.296    11932.424 
  959400     332.3395   -22495.149    127.79268   -22622.942    4838.7785 
  959600    274.95462   -22507.483    105.72679   -22613.209    23660.828 
  959800    311.45546   -22480.958    119.76226    -22600.72    26782.562 
  960000    286.00026   -22513.916    109.97411    -22623.89    17167.058 
  960200    318.93653    -22503.05    122.63891   -22625.689       -23060 
  960400    339.08185   -22492.912    130.38528   -22623.297   -1845.1283 
  960600    292.43974   -22518.241    112.45024   -22630.691     23526.96 
  960800     315.4277   -22493.868    121.28968   -22615.157    923.14856 
  961000    275.84704   -22512.042    106.06995   -22618.112    6158.3845 
  961200    331.84709   -22511.231    127.60333   -22638.834     14018.52 
  961400      326.195   -22493.264    125.42997   -22618.694   -13471.551 
  961600    290.42648   -22521.299     111.6761   -22632.975    -18661.61 
  961800    302.97392    -22509.59    116.50089    -22626.09   -10016.667 
  962000     299.6827    -22508.21    115.23534   -22623.445   -9718.6389 
  962200    286.23919   -22525.073    110.06598   -22635.139    15663.062 
  962400    292.52609    -22512.17    112.48345   -22624.654     9435.758 
  962600    313.42308   -22501.917    120.51885   -22622.436    -10468.42 
  962800    270.34928   -22526.314    103.95592    -22630.27    6889.5642 
  963000    302.63808    -22511.85    116.37176   -22628.222    6831.1858 
  963200    312.85157   -22502.818    120.29909   -22623.117    11171.506 
  963400    315.48288   -22490.376    121.31089   -22611.686    18870.734 
  963600    302.35454   -22489.801    116.26273   -22606.063    8900.4716 
  963800    282.38258   -22507.631    108.58302   -22616.214    28162.288 
  964000    349.32981   -22483.013    134.32587   -22617.339   -13001.083 
  964200    260.78651   -22508.898     100.2788   -22609.177    7274.3445 
  964400    286.63925   -22506.535    110.21981   -22616.755    2026.8849 
  964600    315.86852   -22495.025    121.45918   -22616.484   -16642.923 
  964800    269.81583   -22517.265     103.7508   -22621.015    2462.4344 
  965000    281.77467   -22503.275    108.34926   -22611.625    -2132.586 
  965200    343.14547   -22494.322    131.94784    -22626.27    21407.613 
  965400    299.35229   -22509.494    115.10829   -22624.603    -8175.027 
  965600    341.07813   -22479.895     131.1529   -22611.048    12079.383 
  965800    302.20129   -22501.561     116.2038   -22617.765   -25123.062 
  966000     315.2862   -22506.142    121.23527   -22627.377   -1406.1697 
  966200    348.66308   -22482.964     134.0695   -22617.033   -7901.5623 
  966400    294.41308    -22501.04    113.20904   -22614.249   -321.62377 
  966600     291.8937   -22508.245    112.24028   -22620.485    2271.0772 
  966800    305.22113   -22491.246      117.365   -22608.611   -9523.4846 
  967000    282.69445   -22492.963    108.70294   -22601.666   -1697.0969 
  967200    308.50047   -22507.218    118.62599   -22625.844    22157.415 
  967400    293.62183   -22499.499    112.90479   -22612.404   -7473.5682 
  967600    318.84776   -22501.295    122.60478     -22623.9    2776.3661 
  967800    302.64809   -22496.298    116.37561   -22612.673    1389.8715 
  968000    315.42118   -22509.069    121.28717   -22630.357   -1980.0431 
  968200    272.06125   -22514.784    104.61421   -22619.398   -6443.0277 
  968400     317.4036   -22491.399    122.04946   -22613.448     10025.15 
  968600    276.80815   -22510.674    106.43952   -22617.114   -15498.683 
  968800    290.48459     -22515.7    111.69844   -22627.399   -269.57017 
  969000    301.05679   -22487.526    115.76371   -22603.289    10492.282 
  969200    299.26068   -22510.814    115.07306   -22625.888    21768.065 
  969400    278.50184   -22510.954    107.09078   -22618.045    18854.129 
  969600    310.88582   -22499.937    119.54321    -22619.48    11456.418 
  969800    322.63164   -22503.822    124.05977   -22627.882   -1998.4859 
  970000    289.37198    -22533.65    111.27062   -22644.921    8710.7207 
  970200    279.27404   -22509.204    107.38771   -22616.592   -26497.267 
  970400    319.73783   -22502.884    122.94703   -22625.831    2029.1045 
  970600    289.78543    -22526.82     111.4296    -22638.25   -518.28763 
  970800    297.64956   -22510.663    114.45355   -22625.116    2987.4906 
  971000    319.50948   -22500.154    122.85922   -22623.013   -9287.8657 
  971200    265.98688    -22520.55    102.27847   -22622.829   -12046.318 
  971400    291.42463   -22504.365    112.05991   -22616.425    5481.1413 
  971600    290.16152   -22504.174    111.57421   -22615.748   -42013.921 
  971800    279.63923   -22513.465    107.52813   -22620.993    18367.755 
  972000    313.67832   -22486.331      120.617   -22606.948    19641.733 
  972200    287.04978   -22504.739    110.37767   -22615.117   -1155.1486 
  972400    310.36961   -22510.619    119.34472   -22629.964    8954.4848 
  972600    295.61991   -22498.186     113.6731   -22611.859   -7758.6924 
  972800    283.67025    -22524.12    109.07816   -22633.198   -23676.438 
  973000    280.27046   -22513.279    107.77086    -22621.05   -19040.544 
  973200    305.75821   -22490.497    117.57152   -22608.069   -15249.885 
  973400       262.73   -22514.558    101.02612   -22615.584    25553.276 
  973600     269.9411   -22513.537    103.79896   -22617.336    1539.6543 
  973800    295.57637   -22502.656    113.65635   -22616.312   -5541.7748 
  974000    304.15353   -22499.824    116.95448   -22616.779    9529.6104 
  974200    332.73818   -22481.259    127.94598   -22609.205    6774.5996 
  974400    284.53311    -22510.07    109.40995    -22619.48   -4925.8901 
  974600    311.50604    -22490.58     119.7817   -22610.361    7002.3891 
  974800     311.6034   -22504.536    119.81914   -22624.355    7728.3306 
  975000    281.38118   -22513.509    108.19796   -22621.707    11350.463 
  975200    322.53439   -22491.326    124.02237   -22615.348    16613.396 
  975400    283.05276   -22515.804    108.84072   -22624.645   -730.22311 
  975600    263.05472   -22518.472    101.15098   -22619.623    10723.653 
  975800    294.00218   -22500.627    113.05104   -22613.678    -17641.21 
  976000    300.87334   -22499.008    115.69317   -22614.701   -26939.556 
  976200    260.08676   -22514.307    100.00973   -22614.317   -5520.8608 
  976400    330.74464   -22498.428    127.17942   -22625.607    12217.654 
  976600    316.39967   -22490.595    121.66342   -22612.259   -17356.471 
  976800    313.20535   -22503.213    120.43513   -22623.648    10569.215 
  977000    294.43076   -22501.428    113.21584   -22614.644    8512.6807 
  977200    312.28345   -22485.651    120.08064   -22605.732   -6537.2828 
  977400    280.14765   -22499.754    107.72363   -22607.478   -18392.487 
  977600    299.33158   -22510.724    115.10033   -22625.825   -10461.324 
  977800    339.09942   -22489.649    130.39203   -22620.041   -11528.578 
  978000    291.09905    -22522.36    111.93472   -22634.294   -2379.0805 
  978200    316.52876    -22505.57    121.71306   -22627.283    8952.0779 
  978400    302.01227   -22494.936    116.13112   -22611.067   -839.83021 
  978600     263.3693   -22529.047    101.27195   -22630.319    163.43578 
  978800    305.83283   -22506.639    117.60021    -22624.24    6153.1528 
  979000    307.77726   -22494.086    118.34789   -22612.434     29148.73 
  979200      266.393   -22521.741    102.43464   -22624.176   -14087.742 
  979400    293.91603   -22505.585    113.01791   -22618.603   -23243.729 
  979600    318.73065   -22498.384    122.55974   -22620.944   -1939.7957 
  979800    264.65533   -22524.024    101.76646   -22625.791    2822.0472 
  980000    297.02429   -22513.702    114.21312   -22627.915   -25892.095 
  980200    327.93927   -22503.046    126.10068   -22629.147    11064.683 
  980400    253.53897   -22514.971    97.491944   -22612.463   -4471.7823 
  980600    307.81165   -22491.984    118.36112   -22610.346    28338.341 
  980800    304.71356    -22502.56    117.16983    -22619.73    18543.374 
  981000    256.25183   -22513.543    98.535107   -22612.078    26899.296 
  981200    350.31492   -22493.629    134.70467   -22628.334    25414.894 
  981400    333.63464   -22501.623    128.29069   -22629.913   -1923.0486 
  981600    293.32786   -22517.324    112.79175   -22630.116    29408.752 
  981800    293.92543   -22490.981    113.02153   -22604.003     4081.478 
  982000    310.84455    -22503.36    119.52734   -22622.887    5501.4802 
  982200    320.77199   -22504.934    123.34469   -22628.278   -12162.409 
  982400    293.27384   -22522.115    112.77098   -22634.886    4281.6481 
  982600    267.01614   -22498.368    102.67425   -22601.042    19552.322 
  982800    323.60268   -22491.128    124.43316   -22615.561    248.94454 
  983000    260.29458   -22522.759    100.08964   -22622.849    5114.5848 
  983200    318.62419   -22503.041     122.5188   -22625.559   -161.75768 
  983400    319.59294   -22497.933    122.89131   -22620.824    16303.479 
  983600    259.19954   -22532.999    99.668574   -22632.668   -11868.515 
  983800    308.42005   -22514.227    118.59507   -22632.822    11793.744 
  984000    305.55493   -22500.162    117.49336   -22617.655   -3764.4736 
  984200    286.06326   -22509.906    109.99833   -22619.905    6598.4647 
  984400    291.79737   -22515.011    112.20324   -22627.214    5297.5442 
  984600    309.66929    -22493.22    119.07543   -22612.296    3027.1696 
  984800    286.04141   -22508.475    109.98993   -22618.464    7635.7674 
  985000    315.14913   -22495.947    121.18256    -22617.13   -803.16657 
  985200     321.4964    -22489.36    123.62324   -22612.984    21176.686 
  985400     305.8239   -22510.527    117.59678   -22628.124    11650.261 
  985600    354.03137   -22482.949    136.13373   -22619.083    4321.8842 
  985800    322.99976   -22496.584    124.20132   -22620.785   -3371.4158 
  986000    279.55145   -22512.249    107.49438   -22619.744    4713.7067 
  986200    328.43596   -22476.303    126.29167   -22602.594   -22928.097 
  986400    329.94363   -22494.375    126.87141   -22621.246   -17634.368 
  986600     293.6767    -22510.14    112.92589   -22623.066    22206.503 
  986800    331.81818   -22480.906    127.59222   -22608.499   -26682.594 
  987000    339.52228   -22492.208    130.55463   -22622.762   -531.44313 
  987200    331.60022   -22506.032    127.50841   -22633.541   -10979.896 
  987400    294.37993   -22522.938    113.19629   -22636.134     876.6239 
  987600     287.9698   -22526.236    110.73144   -22636.968    -15368.06 
  987800    306.97524   -22498.223     118.0395   -22616.263   -16639.809 
  988000     301.9324   -22514.118     116.1004   -22630.218    2844.8185 
  988200    268.91546   -22530.877    103.40458   -22634.281    19080.135 
  988400    323.99505    -22496.67    124.58403   -22621.254    5754.2919 
  988600     308.7671   -22509.053    118.72852   -22627.781   -14653.339 
  988800    292.83385   -22520.876    112.60179   -22633.478    34396.489 
  989000     310.1792    -22490.84     119.2715   -22610.111    33789.902 
  989200    282.32516   -22514.134    108.56094   -22622.695      26204.3 
  989400    316.43283   -22497.231    121.67617   -22618.907    12955.284 
  989600    319.18705   -22493.412    122.73524   -22616.147   -4527.4956 
  989800     257.1738   -22513.845    98.889627   -22612.734    2366.4626 
  990000    287.70729   -22504.722     110.6305   -22615.353   -11176.284 
  990200     321.5656   -22484.155    123.64985   -22607.805    1068.6842 
  990400    292.84483   -22505.868    112.60601   -22618.474   -6345.3271 
  990600    309.29124   -22499.305    118.93006   -22618.235    -1434.605 
  990800    325.50721   -22478.891     125.1655   -22604.057   -9327.0382 
  991000    306.29613   -22507.788    117.77836   -22625.566   -7280.8907 
  991200    309.76715   -22498.777    119.11306    -22617.89   -22537.066 
  991400    321.69475   -22478.413    123.69951   -22602.112   -686.04038 
  991600    284.06114   -22505.364    109.22847   -22614.593   -22243.209 
  991800    309.02763    -22501.17    118.82869   -22619.998    7279.7458 
  992000    343.03124   -22484.922    131.90391   -22616.826     1047.613 
  992200    314.84738   -22513.172    121.06653   -22634.239   -15069.675 
  992400    292.07114   -22507.901    112.30851   -22620.209    16895.772 
  992600    334.42423    -22482.91    128.59431   -22611.505    22053.134 
  992800    305.08681   -22506.858    117.31335   -22624.172    23091.291 
  993000    299.33673   -22507.862    115.10231   -22622.964    23443.057 
  993200    307.83154   -22486.049    118.36877   -22604.418    375.35968 
  993400    290.20078   -22500.959    111.58931   -22612.548   -8755.4339 
  993600    292.63528   -22506.809    112.52543   -22619.334   -16678.841 
  993800    312.69083   -22483.007    120.23728   -22603.244    19352.079 
  994000    315.25688   -22500.523    121.22399   -22621.747   -3115.8269 
  994200    306.32997   -22504.949    117.79138    -22622.74   -20996.554 
  994400    296.50923    -22486.32    114.01506   -22600.335    1942.7311 
  994600    317.78138   -22486.912    122.19473   -22609.107    9391.7911 
  994800    288.99579   -22505.697    111.12596   -22616.823     20729.51 
  995000     316.2296   -22496.299    121.59803   -22617.897     197.0492 
  995200    320.51833   -22486.993    123.24715    -22610.24   -1186.9823 
  995400    288.76873   -22508.959    111.03865   -22619.997   -23285.231 
  995600    303.77653   -22501.362    116.80952   -22618.171    18889.093 
  995800     319.7309   -22483.256    122.94436     -22606.2     19792.32 
  996000    292.24858   -22502.838    112.37674   -22615.214    31089.534 
  996200    311.50108   -22500.292     119.7798   -22620.072    10124.089 
  996400    305.58109   -22482.185    117.50341   -22599.688     13942.81 
  996600    296.06953   -22505.664    113.84599    -22619.51    14602.715 
  996800    282.20923   -22505.934    108.51636    -22614.45    15363.571 
  997000    307.12308   -22490.479    118.09635   -22608.575    23059.981 
  997200    312.70242   -22499.441    120.24174   -22619.682   -17103.474 
  997400    294.27987   -22513.828    113.15782   -22626.985   -1661.1668 
  997600    335.97387   -22483.377    129.19018   -22612.567    892.43275 
  997800    309.14215   -22501.222    118.87273   -22620.095    14418.384 
  998000    298.86073    -22510.28    114.91927   -22625.199   -7911.0085 
  998200    302.86737   -22507.717    116.45992   -22624.177   -2619.5797 
  998400    302.22437    -22487.62    116.21267   -22603.832    9012.8652 
  998600    292.75457   -22511.381    112.57131   -22623.952    1668.2202 
  998800     287.3731   -22506.725      110.502   -22617.227   -3484.6523 
  999000    260.68562   -22501.948    100.24001   -22602.188   -9200.4077 
  999200    317.06733   -22501.213    121.92015   -22623.133   -19686.891 
  999400    248.36375   -22528.632    95.501948   -22624.134    31042.684 
  999600    304.64271   -22509.223    117.14259   -22626.366      21264.6 
  999800    304.28514   -22500.641    117.00509   -22617.646   -8706.3106 
 1000000    270.55895   -22521.665    104.03654   -22625.702   -8540.3029 
Loop time of 3929.44 on 8 procs for 1000000 steps with 130 atoms

Performance: 5.497 ns/day, 4.366 hours/ns, 254.489 timesteps/s
99.4% CPU use with 8 MPI tasks x no OpenMP threads

MPI task timing breakdown:
Section |  min time  |  avg time  |  max time  |%varavg| %total
---------------------------------------------------------------
Pair    | 2720.6     | 2996.1     | 3191.5     | 312.4 | 76.25
Neigh   | 0.46801    | 0.50462    | 0.53435    |   3.4 |  0.01
Comm    | 23.175     | 219.03     | 494.91     |1157.3 |  5.57
Output  | 0.094786   | 0.10563    | 0.17012    |   7.5 |  0.00
Modify  | 710.8      | 711.23     | 711.43     |   0.7 | 18.10
Other   |            | 2.453      |            |       |  0.06

Nlocal:    16.25 ave 37 max 6 min
Histogram: 4 0 1 1 0 0 0 0 0 2
Nghost:    513.5 ave 546 max 475 min
Histogram: 1 2 0 0 0 0 2 1 0 2
Neighs:    1168.12 ave 2488 max 477 min
Histogram: 4 0 1 1 0 0 0 0 0 2

Total # of neighbors = 9345
Ave neighs/atom = 71.8846
Neighbor list builds = 957
Dangerous builds = 0

Please see the log.cite file for references relevant to this simulation

Total wall time: 1:05:47
