ITEM: TIMESTEP
0
ITEM: NUMBER OF ATOMS
97
ITEM: BOX BOUNDS pp pp pp
0.0000000000000000e+00 1.6524999999999999e+01
0.0000000000000000e+00 1.6526000000000000e+01
0.0000000000000000e+00 1.6526000000000000e+01
ITEM: ATOMS id type x y z 
1 1 1.813 1.813 1.813 
10 1 5.821 5.821 5.821 
17 1 3.388 3.388 3.388 
26 1 4.246 4.246 4.246 
33 1 0.284 2 2 
41 1 2 0.284 2 
49 1 2 2 0.283 
58 1 7.351 5.634 5.634 
66 1 5.634 7.351 5.634 
74 1 5.634 5.634 7.351 
81 1 2.689 2.689 2.689 
90 1 4.945 4.945 4.945 
97 2 4.488 3.388 3.388 
4 1 1.813 1.813 14.084 
11 1 5.821 5.821 10.076 
20 1 3.388 3.388 12.509 
27 1 4.246 4.246 11.651 
36 1 0.284 2 13.897 
46 1 2 0.284 13.897 
56 1 2 2 15.614 
59 1 7.351 5.634 10.263 
69 1 5.634 7.351 10.263 
79 1 5.634 5.634 8.546 
84 1 2.689 2.689 13.208 
91 1 4.945 4.945 10.952 
6 1 1.813 14.084 1.813 
13 1 5.821 10.076 5.821 
22 1 3.388 12.509 3.388 
29 1 4.246 11.651 4.246 
38 1 0.284 13.897 2 
48 1 2 15.614 2 
52 1 2 13.897 0.283 
61 1 7.351 10.263 5.634 
71 1 5.634 8.546 5.634 
75 1 5.634 10.263 7.351 
86 1 2.689 13.208 2.689 
93 1 4.945 10.952 4.945 
7 1 1.813 14.084 14.084 
16 1 5.821 10.076 10.076 
23 1 3.388 12.509 12.509 
32 1 4.246 11.651 11.651 
39 1 0.284 13.897 13.897 
43 1 2 15.614 13.897 
53 1 2 13.897 15.614 
64 1 7.351 10.263 10.263 
68 1 5.634 8.547 10.263 
78 1 5.634 10.263 8.546 
87 1 2.689 13.208 13.208 
96 1 4.945 10.952 10.952 
8 1 14.084 1.813 1.813 
15 1 10.076 5.821 5.821 
24 1 12.509 3.388 3.388 
31 1 11.651 4.246 4.246 
40 1 15.613 2 2 
44 1 13.897 0.284 2 
54 1 13.897 2 0.283 
63 1 8.547 5.634 5.634 
67 1 10.263 7.351 5.634 
77 1 10.263 5.634 7.351 
88 1 13.208 2.689 2.689 
95 1 10.952 4.945 4.945 
5 1 14.084 1.813 14.084 
14 1 10.076 5.821 10.076 
21 1 12.509 3.388 12.509 
30 1 11.651 4.246 11.651 
37 1 15.613 2 13.897 
47 1 13.897 0.284 13.897 
51 1 13.897 2 15.614 
62 1 8.546 5.634 10.263 
72 1 10.263 7.351 10.263 
76 1 10.263 5.634 8.546 
85 1 13.208 2.689 13.208 
94 1 10.952 4.945 10.952 
3 1 14.084 14.084 1.813 
12 1 10.076 10.076 5.821 
19 1 12.509 12.509 3.388 
28 1 11.651 11.651 4.246 
35 1 15.613 13.897 2 
45 1 13.897 15.614 2 
55 1 13.897 13.897 0.283 
60 1 8.547 10.263 5.634 
70 1 10.263 8.547 5.634 
80 1 10.263 10.263 7.351 
83 1 13.208 13.208 2.689 
92 1 10.952 10.952 4.945 
2 1 14.084 14.084 14.084 
9 1 10.076 10.076 10.076 
18 1 12.509 12.509 12.509 
25 1 11.651 11.651 11.651 
34 1 15.613 13.897 13.897 
42 1 13.897 15.614 13.897 
50 1 13.897 13.897 15.614 
57 1 8.546 10.263 10.263 
65 1 10.263 8.546 10.263 
73 1 10.263 10.263 8.547 
82 1 13.208 13.208 13.208 
89 1 10.952 10.952 10.952 
ITEM: TIMESTEP
10
ITEM: NUMBER OF ATOMS
97
ITEM: BOX BOUNDS pp pp pp
0.0000000000000000e+00 1.6524999999999999e+01
0.0000000000000000e+00 1.6526000000000000e+01
0.0000000000000000e+00 1.6526000000000000e+01
ITEM: ATOMS id type x y z 
1 1 1.79037 1.78605 1.78605 
10 1 5.82609 5.83529 5.83542 
17 1 3.28801 3.33011 3.33023 
26 1 4.42825 4.25656 4.25644 
33 1 0.265129 2.00468 2.00463 
41 1 2.00603 0.263172 2.00531 
49 1 2.00607 2.0054 0.263268 
58 1 7.36308 5.6294 5.62944 
66 1 5.62832 7.36421 5.62959 
74 1 5.62837 5.62956 7.36487 
81 1 2.62023 2.61698 2.61704 
90 1 5.00857 5.01508 5.01509 
97 2 4.44435 3.46319 3.46319 
4 1 1.81215 1.81193 14.072 
11 1 5.82261 5.82237 10.0864 
20 1 3.38969 3.38958 12.5092 
27 1 4.2448 4.24529 11.652 
36 1 0.280342 1.99955 13.8962 
46 1 1.99952 0.280372 13.8963 
56 1 2.00253 2.00258 15.5955 
59 1 7.3502 5.63481 10.2633 
69 1 5.6347 7.35451 10.2634 
79 1 5.63287 5.63225 8.56017 
84 1 2.68999 2.68987 13.2033 
91 1 4.94457 4.944 10.9532 
6 1 1.8122 14.0721 1.81186 
13 1 5.82106 10.0853 5.82236 
22 1 3.38976 12.509 3.38979 
29 1 4.24394 11.6505 4.24479 
38 1 0.280833 13.8962 1.99949 
48 1 2.00253 15.5961 2.00254 
52 1 1.99953 13.8963 0.281701 
61 1 7.35457 10.2634 5.63452 
71 1 5.63285 8.56058 5.63211 
75 1 5.63471 10.2634 7.3517 
86 1 2.68966 13.2037 2.68956 
93 1 4.94608 10.9562 4.94439 
7 1 1.81319 14.0833 14.083 
16 1 5.82227 10.0767 10.0773 
23 1 3.38765 12.5088 12.5086 
32 1 4.24708 11.6512 11.652 
39 1 0.282116 13.8978 13.8979 
43 1 1.99943 15.613 13.8981 
53 1 1.99944 13.8981 15.6114 
64 1 7.351 10.2619 10.2619 
68 1 5.63483 8.54738 10.2617 
78 1 5.63475 10.2618 8.54943 
87 1 2.69122 13.2068 13.2071 
96 1 4.94233 10.9524 10.951 
8 1 14.0722 1.81188 1.81174 
15 1 10.0842 5.8216 5.82298 
24 1 12.5094 3.38938 3.38943 
31 1 11.65 4.24482 4.24549 
40 1 15.5968 2.00238 2.00233 
44 1 13.8963 0.280718 1.9994 
54 1 13.8963 1.99946 0.281573 
63 1 8.55791 5.63256 5.63253 
67 1 10.2633 7.35414 5.6349 
77 1 10.2632 5.63509 7.34999 
88 1 13.2038 2.68942 2.68938 
95 1 10.9553 4.94651 4.94515 
5 1 14.0825 1.81365 14.0839 
14 1 10.0771 5.82124 10.077 
21 1 12.5087 3.38877 12.51 
30 1 11.6519 4.24545 11.6518 
37 1 15.6126 1.99944 13.898 
47 1 13.8978 0.281809 13.898 
51 1 13.8979 1.99934 15.6117 
62 1 8.54872 5.63452 10.2621 
72 1 10.2621 7.35101 10.2623 
76 1 10.262 5.63445 8.54718 
85 1 13.2067 2.68945 13.2045 
94 1 10.9526 4.94362 10.9528 
3 1 14.083 14.0838 1.81336 
12 1 10.0772 10.0757 5.82151 
19 1 12.5084 12.5088 3.38899 
28 1 11.6524 11.6501 4.24652 
35 1 15.6122 13.8981 1.99939 
45 1 13.8979 15.6129 1.99931 
55 1 13.8978 13.8979 0.283526 
60 1 8.54821 10.2617 5.63509 
70 1 10.2617 8.54633 5.63499 
80 1 10.2619 10.262 7.35281 
83 1 13.2075 13.2069 2.68845 
92 1 10.9498 10.954 4.94401 
2 1 14.0837 14.0837 14.0844 
9 1 10.0749 10.0768 10.0759 
18 1 12.5089 12.509 12.5094 
25 1 11.6501 11.6523 11.6505 
34 1 15.6134 13.8981 13.898 
42 1 13.8979 15.6148 13.898 
50 1 13.898 13.8982 15.6121 
57 1 8.54677 10.2618 10.2619 
65 1 10.2619 8.54835 10.2619 
73 1 10.2619 10.2618 8.5451 
82 1 13.2073 13.2075 13.2065 
89 1 10.954 10.9499 10.9535 
ITEM: TIMESTEP
20
ITEM: NUMBER OF ATOMS
97
ITEM: BOX BOUNDS pp pp pp
0.0000000000000000e+00 1.6524999999999999e+01
0.0000000000000000e+00 1.6526000000000000e+01
0.0000000000000000e+00 1.6526000000000000e+01
ITEM: ATOMS id type x y z 
1 1 1.78116 1.77265 1.7725 
10 1 5.84355 5.8598 5.85992 
17 1 3.24982 3.32433 3.32461 
26 1 4.52474 4.25523 4.25494 
33 1 0.249193 2.00005 1.99997 
41 1 2.00364 0.244615 2.00152 
49 1 2.00366 2.00161 0.244493 
58 1 7.37484 5.63395 5.63402 
66 1 5.6272 7.38378 5.63123 
74 1 5.62724 5.63122 7.38379 
81 1 2.59978 2.59783 2.59787 
90 1 5.05251 5.02692 5.02695 
97 2 4.3834 3.4779 3.47792 
4 1 1.80981 1.80968 14.0546 
11 1 5.82446 5.82414 10.0994 
20 1 3.39155 3.39153 12.508 
27 1 4.24488 4.24488 11.6521 
36 1 0.277601 2.00011 13.8904 
46 1 2.00013 0.277333 13.8905 
56 1 2.01121 2.01132 15.579 
59 1 7.35632 5.63433 10.2681 
69 1 5.63422 7.35611 10.268 
79 1 5.62631 5.62544 8.57516 
84 1 2.68701 2.68691 13.1971 
91 1 4.94705 4.94703 10.9576 
6 1 1.80995 14.0548 1.8096 
13 1 5.82481 10.0997 5.82411 
22 1 3.3913 12.5074 3.39143 
29 1 4.2448 11.6518 4.24493 
38 1 0.277645 13.8905 2.00005 
48 1 2.01121 15.5791 2.01122 
52 1 2.00013 13.8906 0.277258 
61 1 7.35644 10.2678 5.63451 
71 1 5.62618 8.57513 5.62519 
75 1 5.63439 10.2678 7.35587 
86 1 2.68695 13.1968 2.6868 
93 1 4.9483 10.9594 4.94756 
7 1 1.81259 14.08 14.08 
16 1 5.82138 10.0797 10.079 
23 1 3.38952 12.5081 12.5087 
32 1 4.24506 11.6515 11.6516 
39 1 0.281933 13.8974 13.8974 
43 1 2.00071 15.6087 13.8973 
53 1 2.00067 13.8974 15.6086 
64 1 7.3524 10.2625 10.2625 
68 1 5.63381 8.55079 10.2626 
78 1 5.63398 10.2624 8.5506 
87 1 2.68906 13.2068 13.2068 
96 1 4.94473 10.9533 10.9518 
8 1 14.0568 1.81012 1.81026 
15 1 10.0933 5.82322 5.82326 
24 1 12.5072 3.39131 3.39166 
31 1 11.6516 4.24567 4.24589 
40 1 15.5825 2.01028 2.01019 
44 1 13.891 0.278019 1.9998 
54 1 13.8909 1.99988 0.277912 
63 1 8.56629 5.62673 5.6267 
67 1 10.2667 7.35454 5.63471 
77 1 10.2667 5.63464 7.35439 
88 1 13.197 2.68749 2.68702 
95 1 10.9575 4.94841 4.94761 
5 1 14.0795 1.81223 14.0803 
14 1 10.0796 5.82186 10.0784 
21 1 12.5082 3.38906 12.5079 
30 1 11.6512 4.24545 11.6517 
37 1 15.6079 2.00069 13.8972 
47 1 13.8973 0.281566 13.8976 
51 1 13.8971 2.0005 15.6091 
62 1 8.55105 5.63383 10.2624 
72 1 10.2622 7.3522 10.2622 
76 1 10.2625 5.63419 8.54929 
85 1 13.2062 2.68886 13.2066 
94 1 10.953 4.9458 10.9525 
3 1 14.0794 14.0805 1.81224 
12 1 10.0792 10.0786 5.82133 
19 1 12.5087 12.5076 3.3894 
28 1 11.6514 11.6514 4.24555 
35 1 15.6079 13.8974 2.00054 
45 1 13.8971 15.6091 2.00033 
55 1 13.8973 13.8976 0.281294 
60 1 8.55115 10.2621 5.63424 
70 1 10.2626 8.54938 5.63435 
80 1 10.2625 10.2623 7.35227 
83 1 13.2064 13.2069 2.68877 
92 1 10.9516 10.9535 4.94499 
2 1 14.0825 14.0831 14.083 
9 1 10.0773 10.0765 10.0772 
18 1 12.5085 12.5093 12.508 
25 1 11.6514 11.6514 11.6515 
34 1 15.6118 13.8981 13.898 
42 1 13.898 15.6124 13.8982 
50 1 13.898 13.8983 15.6121 
57 1 8.5476 10.2619 10.2619 
65 1 10.2615 8.54746 10.2617 
73 1 10.2617 10.2619 8.54742 
82 1 13.207 13.2077 13.2082 
89 1 10.953 10.9511 10.9528 
ITEM: TIMESTEP
30
ITEM: NUMBER OF ATOMS
97
ITEM: BOX BOUNDS pp pp pp
0.0000000000000000e+00 1.6524999999999999e+01
0.0000000000000000e+00 1.6526000000000000e+01
0.0000000000000000e+00 1.6526000000000000e+01
ITEM: ATOMS id type x y z 
1 1 1.77919 1.7701 1.77018 
10 1 5.84736 5.86403 5.86435 
17 1 3.23606 3.32819 3.32864 
26 1 4.53352 4.24987 4.24944 
33 1 0.247778 1.99166 1.99144 
41 1 1.99872 0.240985 1.99504 
49 1 1.99875 1.99522 0.240679 
58 1 7.381 5.64514 5.645 
66 1 5.63029 7.39326 5.63669 
74 1 5.63031 5.63687 7.39288 
81 1 2.5799 2.60266 2.60271 
90 1 5.0907 5.01759 5.01749 
97 2 4.36609 3.46481 3.46487 
4 1 1.80847 1.80903 14.0522 
11 1 5.82626 5.82633 10.1069 
20 1 3.38862 3.3887 12.5036 
27 1 4.24503 4.24586 11.6541 
36 1 0.275584 2.00096 13.8834 
46 1 2.00099 0.274997 13.8834 
56 1 2.0108 2.01015 15.5746 
59 1 7.35928 5.63329 10.2751 
69 1 5.63348 7.35832 10.2751 
79 1 5.62222 5.62304 8.58451 
84 1 2.68508 2.68481 13.1939 
91 1 4.95184 4.95021 10.9661 
6 1 1.80863 14.0519 1.80862 
13 1 5.82765 10.1068 5.82489 
22 1 3.38837 12.5034 3.38871 
29 1 4.24638 11.6547 4.24547 
38 1 0.275559 13.8835 2.00084 
48 1 2.01089 15.5751 2.01019 
52 1 2.00096 13.8836 0.275929 
61 1 7.3589 10.275 5.63355 
71 1 5.62207 8.58463 5.62298 
75 1 5.63341 10.2751 7.35885 
86 1 2.68447 13.1934 2.68431 
93 1 4.95069 10.9663 4.95132 
7 1 1.81197 14.0801 14.0783 
16 1 5.82183 10.0807 10.0802 
23 1 3.38813 12.5076 12.5079 
32 1 4.24506 11.6517 11.6518 
39 1 0.281101 13.8952 13.8954 
43 1 2.00163 15.6066 13.8924 
53 1 2.00185 13.892 15.6076 
64 1 7.3536 10.2645 10.2646 
68 1 5.63241 8.55301 10.2672 
78 1 5.63262 10.2671 8.55304 
87 1 2.68865 13.2066 13.2065 
96 1 4.94738 10.9544 10.9534 
8 1 14.0543 1.80987 1.80837 
15 1 10.0985 5.82542 5.82349 
24 1 12.5029 3.38931 3.38904 
31 1 11.6552 4.24695 4.24723 
40 1 15.5809 2.0084 2.00848 
44 1 13.8851 0.276861 2.00074 
54 1 13.8852 2.00057 0.277844 
63 1 8.57256 5.6266 5.62668 
67 1 10.2715 7.355 5.63372 
77 1 10.2717 5.63346 7.3571 
88 1 13.1947 2.68614 2.68585 
95 1 10.9605 4.94906 4.94934 
5 1 14.0779 1.81223 14.0804 
14 1 10.0814 5.82118 10.0778 
21 1 12.5077 3.38844 12.5082 
30 1 11.6511 4.24558 11.6519 
37 1 15.6061 2.0017 13.8923 
47 1 13.8951 0.280972 13.8957 
51 1 13.8921 2.00115 15.6092 
62 1 8.55356 5.63256 10.2667 
72 1 10.2645 7.35369 10.2641 
76 1 10.2665 5.63344 8.55147 
85 1 13.2058 2.68775 13.2061 
94 1 10.9545 4.94727 10.9521 
3 1 14.0776 14.081 1.81148 
12 1 10.0813 10.0796 5.82195 
19 1 12.5075 12.5076 3.38817 
28 1 11.6519 11.6515 4.24526 
35 1 15.6061 13.8924 2.00156 
45 1 13.8923 15.6082 2.00081 
55 1 13.8952 13.8957 0.280763 
60 1 8.55359 10.2665 5.63264 
70 1 10.267 8.55002 5.63302 
80 1 10.2648 10.264 7.35306 
83 1 13.2065 13.2071 2.68873 
92 1 10.9534 10.9541 4.94657 
2 1 14.0815 14.0823 14.0831 
9 1 10.0774 10.0769 10.0786 
18 1 12.5082 12.5087 12.5082 
25 1 11.6512 11.6515 11.652 
34 1 15.6112 13.8965 13.8962 
42 1 13.8963 15.612 13.8965 
50 1 13.8963 13.8968 15.6116 
57 1 8.54847 10.2636 10.2634 
65 1 10.2632 8.54842 10.2632 
73 1 10.2634 10.2636 8.54847 
82 1 13.2071 13.2076 13.2076 
89 1 10.9534 10.9516 10.9521 
ITEM: TIMESTEP
40
ITEM: NUMBER OF ATOMS
97
ITEM: BOX BOUNDS pp pp pp
0.0000000000000000e+00 1.6524999999999999e+01
0.0000000000000000e+00 1.6526000000000000e+01
0.0000000000000000e+00 1.6526000000000000e+01
ITEM: ATOMS id type x y z 
1 1 1.77718 1.76802 1.76789 
10 1 5.85067 5.86801 5.86798 
17 1 3.22867 3.33008 3.33061 
26 1 4.54293 4.24691 4.24636 
33 1 0.245339 1.98844 1.98836 
41 1 1.99739 0.238886 1.99307 
49 1 1.99739 1.99319 0.238874 
58 1 7.38316 5.64961 5.64959 
66 1 5.63093 7.39539 5.63855 
74 1 5.63098 5.63862 7.3954 
81 1 2.57247 2.60648 2.60657 
90 1 5.10445 5.01072 5.01056 
97 2 4.3582 3.4641 3.4642 
4 1 1.80665 1.80708 14.0485 
11 1 5.82812 5.82734 10.1106 
20 1 3.38795 3.38836 12.5022 
27 1 4.24636 4.24661 11.6572 
36 1 0.274926 2.00096 13.8804 
46 1 2.00086 0.275386 13.8804 
56 1 2.00975 2.00863 15.5734 
59 1 7.36027 5.63331 10.2785 
69 1 5.63349 7.35921 10.2787 
79 1 5.62244 5.62442 8.58695 
84 1 2.68358 2.683 13.1911 
91 1 4.95145 4.9505 10.967 
6 1 1.80669 14.0486 1.80689 
13 1 5.82829 10.1106 5.82694 
22 1 3.38787 12.5019 3.38806 
29 1 4.24681 11.6575 4.24648 
38 1 0.274953 13.8805 2.00084 
48 1 2.00975 15.5734 2.00857 
52 1 2.00086 13.8805 0.275225 
61 1 7.36009 10.2784 5.63332 
71 1 5.62239 8.58684 5.62421 
75 1 5.6336 10.2786 7.35902 
86 1 2.6833 13.1911 2.68307 
93 1 4.95123 10.9675 4.95098 
7 1 1.81159 14.0784 14.0787 
16 1 5.8228 10.0819 10.0814 
23 1 3.38872 12.508 12.5077 
32 1 4.24575 11.6528 11.6519 
39 1 0.281018 13.8946 13.8945 
43 1 2.00207 15.6069 13.8896 
53 1 2.00205 13.8897 15.6067 
64 1 7.35405 10.2656 10.2655 
68 1 5.63214 8.55386 10.2697 
78 1 5.63219 10.2697 8.55351 
87 1 2.68645 13.2054 13.2059 
96 1 4.94685 10.9535 10.9545 
8 1 14.0528 1.80865 1.80878 
15 1 10.1014 5.82529 5.82521 
24 1 12.5021 3.38888 3.38866 
31 1 11.6556 4.2469 4.24703 
40 1 15.5788 2.00615 2.00603 
44 1 13.8822 0.27715 2.00065 
54 1 13.8821 2.00085 0.276658 
63 1 8.57462 5.62932 5.62926 
67 1 10.2745 7.35677 5.63333 
77 1 10.2744 5.63337 7.35624 
88 1 13.193 2.68488 2.68493 
95 1 10.9632 4.95019 4.95021 
5 1 14.0774 1.81148 14.0797 
14 1 10.0825 5.82264 10.0798 
21 1 12.5075 3.38816 12.5074 
30 1 11.6528 4.24578 11.6515 
37 1 15.6054 2.00192 13.8899 
47 1 13.8942 0.280804 13.895 
51 1 13.8899 2.00133 15.608 
62 1 8.5548 5.63221 10.2689 
72 1 10.2656 7.35328 10.2647 
76 1 10.2689 5.63271 8.55083 
85 1 13.205 2.68772 13.2073 
94 1 10.9534 4.94667 10.9538 
3 1 14.0776 14.0798 1.81151 
12 1 10.0828 10.0798 5.8229 
19 1 12.5076 12.5082 3.38888 
28 1 11.6517 11.6527 4.2459 
35 1 15.6054 13.8901 2.0018 
45 1 13.8899 15.6085 2.00135 
55 1 13.8942 13.8952 0.280816 
60 1 8.55469 10.269 5.63226 
70 1 10.2688 8.55149 5.63285 
80 1 10.2656 10.2649 7.35352 
83 1 13.2051 13.2059 2.68641 
92 1 10.955 10.9521 4.94633 
2 1 14.0816 14.0824 14.0821 
9 1 10.0781 10.0778 10.0778 
18 1 12.5083 12.5085 12.5082 
25 1 11.6524 11.6511 11.6515 
34 1 15.6109 13.8956 13.8956 
42 1 13.8954 15.6117 13.8958 
50 1 13.8955 13.8959 15.6117 
57 1 8.54906 10.2642 10.2643 
65 1 10.2643 8.54828 10.2642 
73 1 10.2644 10.2641 8.54867 
82 1 13.207 13.2076 13.208 
89 1 10.9514 10.953 10.9529 
ITEM: TIMESTEP
50
ITEM: NUMBER OF ATOMS
97
ITEM: BOX BOUNDS pp pp pp
0.0000000000000000e+00 1.6524999999999999e+01
0.0000000000000000e+00 1.6526000000000000e+01
0.0000000000000000e+00 1.6526000000000000e+01
ITEM: ATOMS id type x y z 
1 1 1.76743 1.76158 1.76154 
10 1 5.86084 5.87646 5.87576 
17 1 3.19376 3.33905 3.34021 
26 1 4.58781 4.23329 4.23194 
33 1 0.236183 1.97374 1.97378 
41 1 1.99037 0.230284 1.98377 
49 1 1.99043 1.9839 0.230342 
58 1 7.39402 5.67009 5.67009 
66 1 5.63491 7.40573 5.64679 
74 1 5.63474 5.64682 7.40447 
81 1 2.5488 2.61923 2.61946 
90 1 5.15792 4.98734 4.98683 
97 2 4.32318 3.46275 3.46313 
4 1 1.80051 1.80154 14.0373 
11 1 5.83262 5.83181 10.1228 
20 1 3.38472 3.38417 12.4958 
27 1 4.24972 4.2473 11.6626 
36 1 0.270202 2.00005 13.8673 
46 1 1.9998 0.272279 13.8669 
56 1 2.00292 1.99944 15.5661 
59 1 7.3645 5.63345 10.2922 
69 1 5.63506 7.36166 10.2928 
79 1 5.6253 5.63163 8.59549 
84 1 2.67872 2.67773 13.1826 
91 1 4.9538 4.95962 10.9816 
6 1 1.80159 14.0381 1.80139 
13 1 5.83387 10.1223 5.83189 
22 1 3.38485 12.4969 3.3858 
29 1 4.24855 11.6623 4.24872 
38 1 0.27038 13.8672 2.00024 
48 1 2.00276 15.5659 1.99917 
52 1 1.99997 13.8666 0.271326 
61 1 7.36344 10.2919 5.63458 
71 1 5.62567 8.59657 5.63241 
75 1 5.63474 10.2934 7.36378 
86 1 2.67819 13.1832 2.67931 
93 1 4.95829 10.9782 4.95367 
7 1 1.81059 14.0752 14.0767 
16 1 5.82392 10.0853 10.0831 
23 1 3.38763 12.5052 12.5081 
32 1 4.24635 11.6527 11.6538 
39 1 0.279429 13.8904 13.8902 
43 1 2.00179 15.6041 13.8786 
53 1 2.00171 13.8789 15.6029 
64 1 7.35561 10.2694 10.2699 
68 1 5.63232 8.55627 10.2816 
78 1 5.63303 10.2802 8.55796 
87 1 2.68682 13.2063 13.2046 
96 1 4.94763 10.9579 10.9515 
8 1 14.0431 1.80236 1.80696 
15 1 10.1165 5.82935 5.8324 
24 1 12.4987 3.38681 3.38702 
31 1 11.6597 4.24867 4.24746 
40 1 15.5708 1.99474 1.99431 
44 1 13.8692 0.274202 2.00052 
54 1 13.8685 2.00158 0.27277 
63 1 8.58509 5.64419 5.64393 
67 1 10.2885 7.36091 5.6326 
77 1 10.288 5.63323 7.36047 
88 1 13.1845 2.67988 2.68062 
95 1 10.9701 4.95209 4.95312 
5 1 14.0754 1.80924 14.0761 
14 1 10.0864 5.82578 10.083 
21 1 12.5047 3.38703 12.5086 
30 1 11.6521 4.24748 11.6548 
37 1 15.6011 2.00168 13.8805 
47 1 13.8895 0.279565 13.892 
51 1 13.8791 2.00239 15.6048 
62 1 8.55866 5.63188 10.2799 
72 1 10.2701 7.35506 10.2682 
76 1 10.2782 5.63205 8.55469 
85 1 13.2073 2.68619 13.2027 
94 1 10.9584 4.94641 10.9501 
3 1 14.0754 14.0776 1.81115 
12 1 10.0854 10.0837 5.82587 
19 1 12.5058 12.5065 3.38648 
28 1 11.6528 11.6521 4.24493 
35 1 15.6009 13.8801 2.00162 
45 1 13.8795 15.6057 2.00175 
55 1 13.8893 13.8916 0.279023 
60 1 8.55786 10.2792 5.63189 
70 1 10.2788 8.55521 5.63138 
80 1 10.2699 10.2676 7.35531 
83 1 13.2046 13.2061 2.68653 
92 1 10.9576 10.956 4.9521 
2 1 14.0797 14.0821 14.0797 
9 1 10.0799 10.0791 10.0771 
18 1 12.5077 12.5082 12.5076 
25 1 11.6514 11.6516 11.6525 
34 1 15.6095 13.8921 13.8921 
42 1 13.8918 15.6108 13.8926 
50 1 13.8917 13.8927 15.61 
57 1 8.55015 10.268 10.2681 
65 1 10.2678 8.54964 10.2674 
73 1 10.2675 10.2667 8.55016 
82 1 13.2057 13.2064 13.2091 
89 1 10.9545 10.9529 10.9503 
ITEM: TIMESTEP
60
ITEM: NUMBER OF ATOMS
97
ITEM: BOX BOUNDS pp pp pp
0.0000000000000000e+00 1.6524999999999999e+01
0.0000000000000000e+00 1.6526000000000000e+01
0.0000000000000000e+00 1.6526000000000000e+01
ITEM: ATOMS id type x y z 
1 1 1.77055 1.76112 1.76111 
10 1 5.85936 5.8755 5.87509 
17 1 3.19661 3.34165 3.34269 
26 1 4.59005 4.2308 4.22952 
33 1 0.235755 1.97304 1.97266 
41 1 1.98922 0.230224 1.98294 
49 1 1.98937 1.98312 0.230164 
58 1 7.39607 5.67177 5.67139 
66 1 5.63579 7.40521 5.64768 
74 1 5.63565 5.64758 7.40518 
81 1 2.54222 2.61752 2.61815 
90 1 5.16158 4.9897 4.98859 
97 2 4.31971 3.4626 3.46306 
4 1 1.80121 1.80218 14.0384 
11 1 5.83338 5.83202 10.1223 
20 1 3.38483 3.38329 12.4952 
27 1 4.24923 4.24905 11.6645 
36 1 0.270685 1.99987 13.8664 
46 1 1.99937 0.270677 13.8655 
56 1 2.00174 1.99803 15.5646 
59 1 7.36411 5.63398 10.2931 
69 1 5.63545 7.36317 10.2941 
79 1 5.62637 5.63313 8.59698 
84 1 2.67897 2.67861 13.183 
91 1 4.95451 4.95771 10.9787 
6 1 1.80097 14.0381 1.80191 
13 1 5.83302 10.1229 5.83269 
22 1 3.38417 12.4962 3.38542 
29 1 4.24958 11.6636 4.24835 
38 1 0.270881 13.8663 1.99956 
48 1 2.00173 15.5647 1.99776 
52 1 1.99953 13.8655 0.270945 
61 1 7.36454 10.2928 5.63443 
71 1 5.62655 8.5969 5.63352 
75 1 5.63531 10.2941 7.36267 
86 1 2.67873 13.1839 2.67971 
93 1 4.95675 10.9773 4.95405 
7 1 1.80996 14.0767 14.0748 
16 1 5.82488 10.0843 10.085 
23 1 3.388 12.5066 12.5075 
32 1 4.24644 11.654 11.6523 
39 1 0.278929 13.8901 13.8902 
43 1 2.00158 15.6023 13.8784 
53 1 2.00169 13.8782 15.6027 
64 1 7.35555 10.2698 10.27 
68 1 5.63287 8.5577 10.2816 
78 1 5.63298 10.2814 8.55705 
87 1 2.68574 13.2042 13.2058 
96 1 4.9478 10.9555 10.954 
8 1 14.04 1.80383 1.80232 
15 1 10.1149 5.83057 5.83004 
24 1 12.4969 3.38562 3.38623 
31 1 11.6587 4.24745 4.24773 
40 1 15.5692 1.99315 1.99337 
44 1 13.8676 0.272194 2.00084 
54 1 13.8675 2.00075 0.273222 
63 1 8.58786 5.64635 5.64657 
67 1 10.2899 7.36145 5.63308 
77 1 10.2897 5.63297 7.36189 
88 1 13.1869 2.68171 2.68143 
95 1 10.9724 4.95443 4.9535 
5 1 14.0742 1.81001 14.0768 
14 1 10.0861 5.82378 10.0821 
21 1 12.5062 3.38741 12.507 
30 1 11.6532 4.2461 11.6529 
37 1 15.6012 2.00162 13.8793 
47 1 13.8893 0.27866 13.8912 
51 1 13.8786 2.00223 15.6047 
62 1 8.55855 5.63221 10.2805 
72 1 10.2706 7.35567 10.2689 
76 1 10.2792 5.63238 8.55624 
85 1 13.2045 2.68603 13.2056 
94 1 10.9568 4.94848 10.9533 
3 1 14.0738 14.078 1.81009 
12 1 10.0859 10.0831 5.82472 
19 1 12.5064 12.5075 3.38782 
28 1 11.6537 11.6528 4.24682 
35 1 15.6015 13.8793 2.00186 
45 1 13.8789 15.6038 2.00168 
55 1 13.8895 13.8915 0.27895 
60 1 8.5589 10.2802 5.63262 
70 1 10.2795 8.55573 5.63177 
80 1 10.2702 10.2684 7.35507 
83 1 13.2032 13.2041 2.68313 
92 1 10.9564 10.9552 4.94988 
2 1 14.0804 14.0808 14.0818 
9 1 10.0794 10.0792 10.0791 
18 1 12.5073 12.5076 12.5091 
25 1 11.6526 11.6519 11.6511 
34 1 15.6091 13.8921 13.8918 
42 1 13.8912 15.6098 13.8926 
50 1 13.8914 13.8929 15.6101 
57 1 8.55036 10.268 10.2682 
65 1 10.2684 8.55046 10.2673 
73 1 10.2683 10.2671 8.54984 
82 1 13.2066 13.2079 13.2074 
89 1 10.9528 10.9529 10.9522 
ITEM: TIMESTEP
70
ITEM: NUMBER OF ATOMS
97
ITEM: BOX BOUNDS pp pp pp
0.0000000000000000e+00 1.6524999999999999e+01
0.0000000000000000e+00 1.6526000000000000e+01
0.0000000000000000e+00 1.6526000000000000e+01
ITEM: ATOMS id type x y z 
1 1 1.76948 1.76116 1.76128 
10 1 5.86003 5.8757 5.87541 
17 1 3.19558 3.34177 3.34307 
26 1 4.59106 4.23069 4.22928 
33 1 0.235807 1.97257 1.97231 
41 1 1.98902 0.230483 1.98264 
49 1 1.98916 1.98282 0.230436 
58 1 7.39577 5.6723 5.67201 
66 1 5.63602 7.40513 5.64794 
74 1 5.6359 5.64785 7.40501 
81 1 2.5429 2.61787 2.61807 
90 1 5.16172 4.98893 4.98794 
97 2 4.31913 3.46272 3.46321 
4 1 1.80122 1.8017 14.038 
11 1 5.83324 5.8324 10.1226 
20 1 3.38505 3.38346 12.4953 
27 1 4.24926 4.24947 11.6644 
36 1 0.270483 1.99979 13.8661 
46 1 1.99927 0.270959 13.8653 
56 1 2.00147 1.99777 15.5645 
59 1 7.36422 5.6341 10.2934 
69 1 5.63556 7.36312 10.2943 
79 1 5.62666 5.63348 8.59689 
84 1 2.67875 2.67853 13.1829 
91 1 4.95468 4.95715 10.9786 
6 1 1.80111 14.0379 1.80172 
13 1 5.83333 10.1229 5.83238 
22 1 3.38424 12.4964 3.38554 
29 1 4.24978 11.6636 4.24835 
38 1 0.270618 13.866 1.99956 
48 1 2.00141 15.5645 1.9975 
52 1 1.99943 13.8652 0.270848 
61 1 7.36438 10.2931 5.63456 
71 1 5.62685 8.59698 5.63387 
75 1 5.63535 10.2945 7.36296 
86 1 2.67868 13.1835 2.67941 
93 1 4.95647 10.9773 4.95425 
7 1 1.80981 14.0758 14.0752 
16 1 5.82469 10.0846 10.0846 
23 1 3.38798 12.5063 12.5076 
32 1 4.24618 11.6539 11.6522 
39 1 0.278931 13.8901 13.89 
43 1 2.00155 15.6026 13.878 
53 1 2.00158 13.878 15.6025 
64 1 7.35555 10.2699 10.2701 
68 1 5.63298 8.55755 10.2819 
78 1 5.63312 10.2817 8.55736 
87 1 2.68575 13.2045 13.2053 
96 1 4.94839 10.9557 10.9545 
8 1 14.0404 1.80348 1.80289 
15 1 10.1165 5.83107 5.83094 
24 1 12.4974 3.3859 3.3864 
31 1 11.6592 4.24768 4.24797 
40 1 15.5689 1.9927 1.99278 
44 1 13.8673 0.272475 2.00064 
54 1 13.8671 2.00076 0.272651 
63 1 8.58755 5.64687 5.64701 
67 1 10.2903 7.36156 5.63311 
77 1 10.2901 5.63312 7.36162 
88 1 13.1859 2.68107 2.68098 
95 1 10.9718 4.95403 4.95304 
5 1 14.0742 1.80988 14.0768 
14 1 10.0861 5.82434 10.0828 
21 1 12.5064 3.38756 12.507 
30 1 11.6536 4.24623 11.6526 
37 1 15.6011 2.00155 13.879 
47 1 13.8893 0.278768 13.8911 
51 1 13.8784 2.00213 15.6042 
62 1 8.55862 5.63228 10.2806 
72 1 10.2707 7.35549 10.2689 
76 1 10.2796 5.63227 8.55598 
85 1 13.204 2.68555 13.2056 
94 1 10.9563 4.94833 10.9538 
3 1 14.074 14.077 1.80963 
12 1 10.086 10.0834 5.82477 
19 1 12.5064 12.507 3.38745 
28 1 11.6538 11.6531 4.24706 
35 1 15.6013 13.8791 2.00173 
45 1 13.8786 15.6041 2.00179 
55 1 13.8894 13.8914 0.278986 
60 1 8.55876 10.2805 5.63265 
70 1 10.2798 8.55587 5.63183 
80 1 10.2704 10.2685 7.35527 
83 1 13.203 13.2048 2.6837 
92 1 10.9564 10.9549 4.94949 
2 1 14.0802 14.081 14.0813 
9 1 10.0793 10.0793 10.0791 
18 1 12.5073 12.5079 12.5088 
25 1 11.6525 11.652 11.6513 
34 1 15.6091 13.892 13.8918 
42 1 13.8912 15.6099 13.8925 
50 1 13.8913 13.8927 15.6102 
57 1 8.55037 10.2681 10.2682 
65 1 10.2685 8.55031 10.2675 
73 1 10.2684 10.2672 8.55009 
82 1 13.2066 13.2074 13.2078 
89 1 10.9531 10.9528 10.9521 
ITEM: TIMESTEP
80
ITEM: NUMBER OF ATOMS
97
ITEM: BOX BOUNDS pp pp pp
0.0000000000000000e+00 1.6524999999999999e+01
0.0000000000000000e+00 1.6526000000000000e+01
0.0000000000000000e+00 1.6526000000000000e+01
ITEM: ATOMS id type x y z 
1 1 1.76856 1.76123 1.76112 
10 1 5.86073 5.87587 5.87575 
17 1 3.19436 3.34238 3.34354 
26 1 4.59341 4.22985 4.22817 
33 1 0.235411 1.97148 1.97136 
41 1 1.98837 0.230351 1.98191 
49 1 1.9885 1.98213 0.230341 
58 1 7.39629 5.67362 5.67347 
66 1 5.63665 7.40519 5.64865 
74 1 5.63657 5.64851 7.40509 
81 1 2.54172 2.61833 2.61896 
90 1 5.16302 4.98808 4.98722 
97 2 4.31751 3.46287 3.46345 
4 1 1.80095 1.80128 14.0373 
11 1 5.83332 5.83279 10.1231 
20 1 3.38506 3.38392 12.4955 
27 1 4.24919 4.24998 11.6646 
36 1 0.270302 1.99955 13.8654 
46 1 1.99905 0.270829 13.8646 
56 1 2.0007 1.99694 15.5644 
59 1 7.36429 5.63446 10.294 
69 1 5.63579 7.36329 10.2951 
79 1 5.62743 5.63448 8.59695 
84 1 2.6789 2.67815 13.1825 
91 1 4.95507 4.95632 10.978 
6 1 1.801 14.0373 1.80123 
13 1 5.8336 10.1231 5.83239 
22 1 3.38444 12.4965 3.38544 
29 1 4.25003 11.6639 4.24844 
38 1 0.270325 13.8654 1.99943 
48 1 2.00061 15.5644 1.99667 
52 1 1.9992 13.8645 0.270684 
61 1 7.36441 10.2938 5.6348 
71 1 5.62761 8.59706 5.63476 
75 1 5.6356 10.2952 7.36318 
86 1 2.67848 13.1833 2.67931 
93 1 4.95602 10.9771 4.95448 
7 1 1.80961 14.0753 14.0751 
16 1 5.82488 10.085 10.0848 
23 1 3.38785 12.5064 12.5072 
32 1 4.24626 11.6539 11.6524 
39 1 0.278815 13.8899 13.8897 
43 1 2.0013 15.6025 13.8772 
53 1 2.00132 13.8773 15.6023 
64 1 7.35561 10.2702 10.2704 
68 1 5.63329 8.5577 10.2825 
78 1 5.63337 10.2824 8.55757 
87 1 2.68555 13.2044 13.2051 
96 1 4.94878 10.9557 10.9549 
8 1 14.0399 1.80275 1.80283 
15 1 10.1179 5.83173 5.83161 
24 1 12.4977 3.38597 3.38643 
31 1 11.6594 4.24794 4.24779 
40 1 15.5685 1.99156 1.99147 
44 1 13.8663 0.272338 2.00038 
54 1 13.8661 2.00062 0.272156 
63 1 8.58808 5.64856 5.64852 
67 1 10.2915 7.36211 5.63323 
77 1 10.2913 5.63342 7.36182 
88 1 13.1849 2.68049 2.68034 
95 1 10.9721 4.95363 4.95351 
5 1 14.0738 1.80939 14.0765 
14 1 10.0858 5.82464 10.0837 
21 1 12.5064 3.38749 12.5069 
30 1 11.6537 4.2461 11.6524 
37 1 15.6009 2.00142 13.8784 
47 1 13.889 0.278789 13.8909 
51 1 13.8777 2.00196 15.6038 
62 1 8.55869 5.63252 10.2812 
72 1 10.271 7.35546 10.2691 
76 1 10.2805 5.63219 8.55617 
85 1 13.2038 2.68523 13.2054 
94 1 10.9564 4.94903 10.9544 
3 1 14.0738 14.0764 1.80918 
12 1 10.0862 10.0836 5.82482 
19 1 12.506 12.5066 3.38672 
28 1 11.6543 11.6532 4.24737 
35 1 15.601 13.8784 2.00142 
45 1 13.8778 15.604 2.00172 
55 1 13.8891 13.8911 0.278679 
60 1 8.5588 10.2811 5.63287 
70 1 10.2807 8.55644 5.63198 
80 1 10.2708 10.2689 7.35558 
83 1 13.2036 13.2053 2.68478 
92 1 10.9559 10.9551 4.94906 
2 1 14.0801 14.0809 14.0811 
9 1 10.0793 10.0794 10.0792 
18 1 12.5075 12.5079 12.5086 
25 1 11.6524 11.6522 11.6514 
34 1 15.609 13.8917 13.8916 
42 1 13.8909 15.61 13.8923 
50 1 13.8911 13.8925 15.6098 
57 1 8.55042 10.2684 10.2685 
65 1 10.2687 8.55027 10.2678 
73 1 10.2686 10.2675 8.55039 
82 1 13.2066 13.2074 13.2078 
89 1 10.9531 10.9525 10.9525 
ITEM: TIMESTEP
90
ITEM: NUMBER OF ATOMS
97
ITEM: BOX BOUNDS pp pp pp
0.0000000000000000e+00 1.6524999999999999e+01
0.0000000000000000e+00 1.6526000000000000e+01
0.0000000000000000e+00 1.6526000000000000e+01
ITEM: ATOMS id type x y z 
1 1 1.76797 1.76114 1.76109 
10 1 5.86125 5.87581 5.87586 
17 1 3.19252 3.34311 3.34444 
26 1 4.59629 4.22875 4.22679 
33 1 0.234441 1.97025 1.97014 
41 1 1.98743 0.23001 1.98103 
49 1 1.98755 1.9813 0.229976 
58 1 7.39738 5.67535 5.67528 
66 1 5.63749 7.40525 5.64955 
74 1 5.63741 5.64934 7.40533 
81 1 2.54063 2.61894 2.61952 
90 1 5.16507 4.98737 4.98644 
97 2 4.31539 3.46289 3.46362 
4 1 1.8009 1.80077 14.0369 
11 1 5.83353 5.83297 10.1234 
20 1 3.38526 3.3839 12.496 
27 1 4.2491 4.24994 11.6647 
36 1 0.270072 1.99921 13.8645 
46 1 1.99877 0.27034 13.8636 
56 1 1.99971 1.99574 15.564 
59 1 7.36426 5.63485 10.2949 
69 1 5.63603 7.36367 10.2961 
79 1 5.62839 5.63573 8.59726 
84 1 2.67837 2.67864 13.1821 
91 1 4.95547 4.956 10.9777 
6 1 1.80067 14.037 1.80096 
13 1 5.83369 10.1233 5.83261 
22 1 3.38458 12.4967 3.38537 
29 1 4.25005 11.6638 4.24822 
38 1 0.27003 13.8645 1.99916 
48 1 1.99959 15.564 1.99551 
52 1 1.99886 13.8636 0.270455 
61 1 7.36451 10.2947 5.63503 
71 1 5.62854 8.59716 5.63581 
75 1 5.63598 10.2961 7.36331 
86 1 2.67852 13.1828 2.67883 
93 1 4.95572 10.9777 4.95547 
7 1 1.80961 14.075 14.0751 
16 1 5.82472 10.085 10.0848 
23 1 3.38798 12.5064 12.5072 
32 1 4.24604 11.6535 11.6525 
39 1 0.278611 13.8895 13.8894 
43 1 2.00095 15.602 13.8765 
53 1 2.00101 13.8764 15.6021 
64 1 7.35577 10.2706 10.2707 
68 1 5.63369 8.55807 10.2833 
78 1 5.63371 10.2833 8.5577 
87 1 2.68462 13.2043 13.2042 
96 1 4.94996 10.9563 10.9555 
8 1 14.0386 1.80211 1.80193 
15 1 10.1188 5.83262 5.83174 
24 1 12.4971 3.38569 3.38587 
31 1 11.659 4.2481 4.2471 
40 1 15.5675 1.98999 1.98989 
44 1 13.865 0.271596 2.00015 
54 1 13.8649 2.00035 0.271707 
63 1 8.58929 5.65072 5.65059 
67 1 10.2931 7.36273 5.63347 
77 1 10.293 5.63373 7.36262 
88 1 13.1851 2.68047 2.68053 
95 1 10.9736 4.95343 4.95515 
5 1 14.0737 1.80944 14.0762 
14 1 10.0859 5.82507 10.0843 
21 1 12.5062 3.3874 12.5068 
30 1 11.6538 4.24664 11.6529 
37 1 15.6007 2.00114 13.8776 
47 1 13.8885 0.278497 13.8905 
51 1 13.8767 2.00174 15.6034 
62 1 8.55865 5.63285 10.2821 
72 1 10.2713 7.35565 10.2695 
76 1 10.2815 5.63233 8.55691 
85 1 13.2037 2.68486 13.205 
94 1 10.9565 4.9487 10.954 
3 1 14.0737 14.0761 1.80917 