ITEM: TIMESTEP
0
ITEM: NUMBER OF ATOMS
82
ITEM: BOX BOUNDS pp pp pp
0.0000000000000000e+00 1.3416000000000000e+01
0.0000000000000000e+00 1.3416000000000000e+01
0.0000000000000000e+00 1.3414999999999999e+01
ITEM: ATOMS id type x y z 
21 1 1.912 1.912 1.912 
22 1 2.794 2.794 2.795 
23 1 0.386 2.099 2.099 
33 1 2.098 2.099 0.386 
37 1 2.099 0.386 2.099 
41 1 4.371 4.372 4.372 
42 1 3.489 3.489 3.489 
43 1 4.184 5.897 4.185 
53 1 4.185 4.185 5.898 
57 1 5.897 4.185 4.185 
4 1 1.912 1.912 11.079 
5 1 2.794 2.794 10.197 
6 1 2.099 0.386 10.892 
16 1 2.098 2.099 12.605 
19 1 0.386 2.099 10.892 
64 1 4.371 4.372 8.62 
65 1 3.489 3.489 9.502 
66 1 5.897 4.185 8.807 
76 1 4.185 4.185 7.094 
79 1 4.184 5.897 8.807 
10 1 1.911 11.079 1.912 
11 1 2.794 10.197 2.795 
12 1 2.099 12.605 2.099 
15 1 2.099 10.892 0.386 
18 1 0.386 10.892 2.099 
67 1 4.372 8.62 4.371 
68 1 3.489 9.502 3.489 
69 1 5.897 8.807 4.185 
74 1 4.185 8.807 5.897 
80 1 4.185 7.094 4.185 
30 1 1.911 11.079 11.079 
31 1 2.794 10.197 10.197 
32 1 0.386 10.892 10.892 
35 1 2.099 10.892 12.605 
38 1 2.099 12.605 10.892 
47 1 4.372 8.62 8.62 
48 1 3.489 9.502 9.502 
49 1 4.184 7.094 8.807 
54 1 4.184 8.807 7.094 
60 1 5.897 8.807 8.807 
7 1 11.08 1.912 1.912 
8 1 10.197 2.794 2.795 
9 1 10.893 0.386 2.099 
14 1 10.893 2.099 0.386 
20 1 12.606 2.099 2.099 
70 1 8.62 4.372 4.372 
71 1 9.502 3.489 3.489 
72 1 7.094 4.185 4.185 
75 1 8.807 4.185 5.897 
78 1 8.807 5.898 4.185 
27 1 11.08 1.912 11.079 
28 1 10.197 2.794 10.197 
29 1 12.606 2.099 10.892 
34 1 10.893 2.099 12.605 
40 1 10.893 0.386 10.892 
50 1 8.62 4.372 8.62 
51 1 9.502 3.489 9.502 
52 1 8.807 5.897 8.807 
55 1 8.807 4.185 7.094 
58 1 7.094 4.185 8.807 
24 1 11.08 11.08 1.912 
25 1 10.197 10.197 2.795 
26 1 12.606 10.892 2.099 
36 1 10.893 10.892 0.386 
39 1 10.893 12.605 2.099 
44 1 8.62 8.62 4.372 
45 1 9.502 9.502 3.489 
46 1 8.807 7.094 4.185 
56 1 8.807 8.807 5.898 
59 1 7.094 8.807 4.185 
1 1 11.08 11.079 11.079 
2 1 10.197 10.197 10.197 
3 1 10.893 12.605 10.892 
13 1 10.893 10.892 12.605 
17 1 12.606 10.892 10.892 
61 1 8.62 8.62 8.62 
62 1 9.502 9.502 9.502 
63 1 7.094 8.807 8.807 
73 1 8.807 8.807 7.094 
77 1 8.807 7.094 8.807 
81 2 9.585 9.546 11.224 
82 3 9.585 8.57 11.224 
ITEM: TIMESTEP
10
ITEM: NUMBER OF ATOMS
82
ITEM: BOX BOUNDS pp pp pp
0.0000000000000000e+00 1.3416000000000000e+01
0.0000000000000000e+00 1.3416000000000000e+01
0.0000000000000000e+00 1.3414999999999999e+01
ITEM: ATOMS id type x y z 
21 1 1.90946 1.90887 1.90975 
22 1 2.79672 2.79693 2.79613 
23 1 0.384633 2.10874 2.10889 
33 1 2.10792 2.10875 0.384529 
37 1 2.10881 0.384231 2.10873 
41 1 4.37453 4.3744 4.3748 
42 1 3.48668 3.48726 3.48836 
43 1 4.17482 5.89743 4.17528 
53 1 4.17541 4.17543 5.89752 
57 1 5.89713 4.1755 4.17549 
4 1 1.90905 1.90858 11.0817 
5 1 2.79617 2.79647 10.195 
6 1 2.10884 0.384399 10.8824 
16 1 2.10779 2.10862 12.606 
19 1 0.385621 2.10872 10.8823 
64 1 4.37406 4.37388 8.61697 
65 1 3.48702 3.48757 9.50438 
66 1 5.89933 4.17559 8.8169 
76 1 4.17523 4.17525 7.09334 
79 1 4.17449 5.89669 8.81693 
10 1 1.90933 11.0819 1.90975 
11 1 2.79634 10.1948 2.79586 
12 1 2.10856 12.6062 2.10872 
15 1 2.10878 10.8823 0.385344 
18 1 0.38506 10.8822 2.10896 
67 1 4.37363 8.6169 4.37403 
68 1 3.4871 9.50434 3.48764 
69 1 5.89897 8.81687 4.17524 
74 1 4.17513 8.81665 5.89639 
80 1 4.17498 7.0933 4.17534 
30 1 1.90636 11.0828 11.0823 
31 1 2.79447 10.1956 10.1954 
32 1 0.38923 10.8823 10.8824 
35 1 2.10829 10.8827 12.6044 
38 1 2.10822 12.6049 10.8827 
47 1 4.36539 8.61575 8.61568 
48 1 3.48601 9.50538 9.50539 
49 1 4.17361 7.09277 8.81654 
54 1 4.17402 8.81671 7.09249 
60 1 5.89024 8.81809 8.81905 
7 1 11.0823 1.90909 1.90964 
8 1 10.1951 2.79663 2.79595 
9 1 10.8834 0.38481 2.10875 
14 1 10.8834 2.10871 0.38587 
20 1 12.6062 2.10863 2.10872 
70 1 8.61676 4.37365 4.3739 
71 1 9.50462 3.48701 3.48795 
72 1 7.09301 4.17537 4.17529 
75 1 8.81688 4.17555 5.89836 
78 1 8.81687 5.89902 4.17536 
27 1 11.0826 1.90653 11.082 
28 1 10.1966 2.79526 10.1959 
29 1 12.6052 2.10842 10.8824 
34 1 10.8834 2.10839 12.6046 
40 1 10.8833 0.387248 10.8824 
50 1 8.6152 4.36583 8.61594 
51 1 9.50555 3.48574 9.50517 
52 1 8.81714 5.8904 8.81994 
55 1 8.81656 4.17444 7.09058 
58 1 7.08974 4.17444 8.81649 
24 1 11.0829 11.0818 1.907 
25 1 10.1962 10.1958 2.79474 
26 1 12.6048 10.8826 2.10851 
36 1 10.8832 10.8824 0.387964 
39 1 10.8835 12.6063 2.10844 
44 1 8.6154 8.61537 4.36684 
45 1 9.50544 9.50594 3.48601 
46 1 8.81643 7.09108 4.17447 
56 1 8.81763 8.81942 5.88335 
59 1 7.09115 8.81642 4.17454 
1 1 11.092 11.0962 11.0832 
2 1 10.26 10.3895 9.96386 
3 1 10.885 12.6047 10.8839 
13 1 10.8833 10.8821 12.605 
17 1 12.605 10.8823 10.8829 
61 1 8.59668 8.57596 8.56686 
62 1 9.55704 9.49028 9.5649 
63 1 7.0898 8.81604 8.8148 
73 1 8.81844 8.81843 7.08522 
77 1 8.81546 7.08541 8.81475 
81 2 9.58876 9.46125 11.5087 
82 3 9.49848 8.52958 11.1948 
ITEM: TIMESTEP
20
ITEM: NUMBER OF ATOMS
82
ITEM: BOX BOUNDS pp pp pp
0.0000000000000000e+00 1.3416000000000000e+01
0.0000000000000000e+00 1.3416000000000000e+01
0.0000000000000000e+00 1.3414999999999999e+01
ITEM: ATOMS id type x y z 
21 1 1.91047 1.91028 1.91059 
22 1 2.79624 2.79633 2.79651 
23 1 0.384554 2.11158 2.11182 
33 1 2.11087 2.11163 0.384862 
37 1 2.11167 0.384233 2.11168 
41 1 4.37325 4.3737 4.37399 
42 1 3.48729 3.48749 3.48791 
43 1 4.17212 5.89839 4.17255 
53 1 4.17263 4.17264 5.89874 
57 1 5.89789 4.17271 4.17266 
4 1 1.9104 1.91012 11.0807 
5 1 2.79573 2.79565 10.1953 
6 1 2.11174 0.384591 10.8795 
16 1 2.11068 2.11145 12.6058 
19 1 0.384816 2.11163 10.8794 
64 1 4.37256 4.3733 8.61829 
65 1 3.48719 3.48762 9.50349 
66 1 5.8996 4.17259 8.81974 
76 1 4.17238 4.17244 7.09218 
79 1 4.1717 5.89926 8.81972 
10 1 1.91033 11.0808 1.91078 
11 1 2.79593 10.1951 2.79607 
12 1 2.11146 12.6063 2.11157 
15 1 2.11173 10.8795 0.384931 
18 1 0.38427 10.8794 2.11188 
67 1 4.37243 8.61808 4.37294 
68 1 3.48709 9.50374 3.48747 
69 1 5.89791 8.81977 4.17233 
74 1 4.17224 8.81958 5.89923 
80 1 4.17206 7.09204 4.17245 
30 1 1.90912 11.0818 11.0814 
31 1 2.79441 10.1959 10.1957 
32 1 0.386524 10.8782 10.8804 
35 1 2.11105 10.8799 12.6053 
38 1 2.11102 12.6057 10.8799 
47 1 4.37226 8.61683 8.61684 
48 1 3.48604 9.50378 9.5037 
49 1 4.17074 7.09254 8.81872 
54 1 4.17117 8.81884 7.09243 
60 1 5.89974 8.82049 8.82128 
7 1 11.0813 1.91051 1.91084 
8 1 10.1954 2.79618 2.79634 
9 1 10.8805 0.384796 2.11169 
14 1 10.8804 2.11171 0.385484 
20 1 12.6066 2.11153 2.11164 
70 1 8.61755 4.37221 4.37342 
71 1 9.50394 3.48709 3.4875 
72 1 7.09279 4.17257 4.17243 
75 1 8.81969 4.17274 5.90035 
78 1 8.81969 5.89759 4.17243 
27 1 11.0823 1.90871 11.0813 
28 1 10.1965 2.79464 10.1957 
29 1 12.6065 2.11119 10.8796 
34 1 10.8806 2.11117 12.6054 
40 1 10.8798 0.388702 10.8803 
50 1 8.61597 4.37143 8.6178 
51 1 9.50439 3.48565 9.50444 
52 1 8.81932 5.88995 8.82289 
55 1 8.81898 4.17146 7.08881 
58 1 7.0915 4.17131 8.81886 
24 1 11.0823 11.0817 1.9093 
25 1 10.1966 10.1966 2.7942 
26 1 12.6064 10.8797 2.11127 
36 1 10.8803 10.8787 0.380428 
39 1 10.8807 12.6062 2.11114 
44 1 8.61717 8.61733 4.37095 
45 1 9.50497 9.505 3.48504 
46 1 8.81906 7.09222 4.17119 
56 1 8.82041 8.82298 5.88994 
59 1 7.09193 8.819 4.17116 
1 1 11.0865 11.0979 11.0642 
2 1 10.2677 10.3932 9.95733 
3 1 10.8845 12.6115 10.8822 
13 1 10.8784 10.8777 12.6021 
17 1 12.6086 10.8812 10.8802 
61 1 8.59028 8.57781 8.57165 
62 1 9.56196 9.48923 9.57719 
63 1 7.09297 8.81271 8.81137 
73 1 8.81782 8.81713 7.084 
77 1 8.81326 7.08917 8.81166 
81 2 9.58335 9.41431 11.5377 
82 3 9.48784 8.5616 11.1828 
ITEM: TIMESTEP
30
ITEM: NUMBER OF ATOMS
82
ITEM: BOX BOUNDS pp pp pp
0.0000000000000000e+00 1.3416000000000000e+01
0.0000000000000000e+00 1.3416000000000000e+01
0.0000000000000000e+00 1.3414999999999999e+01
ITEM: ATOMS id type x y z 
21 1 1.91045 1.91034 1.91064 
22 1 2.79607 2.79595 2.79637 
23 1 0.38449 2.11307 2.11332 
33 1 2.11238 2.11315 0.384764 
37 1 2.11316 0.383547 2.11318 
41 1 4.37264 4.37309 4.37319 
42 1 3.48735 3.48746 3.48777 
43 1 4.17044 5.89888 4.17089 
53 1 4.1709 4.17093 5.89947 
57 1 5.89872 4.17104 4.17096 
4 1 1.91067 1.91016 11.0802 
5 1 2.79592 2.7958 10.1953 
6 1 2.11325 0.385 10.878 
16 1 2.11228 2.11303 12.6066 
19 1 0.385366 2.11319 10.8778 
64 1 4.37266 4.37298 8.61829 
65 1 3.48724 3.48753 9.50325 
66 1 5.8998 4.17088 8.82109 
76 1 4.17085 4.17099 7.09305 
79 1 4.16994 5.89999 8.82105 
10 1 1.91023 11.0806 1.9107 
11 1 2.79571 10.1951 2.79614 
12 1 2.11301 12.6074 2.11312 
15 1 2.11321 10.878 0.384836 
18 1 0.384162 10.8779 2.11335 
67 1 4.37219 8.6184 4.37274 
68 1 3.4871 9.5036 3.48761 
69 1 5.89788 8.82122 4.17052 
74 1 4.17039 8.82097 5.90004 
80 1 4.17047 7.09241 4.17088 
30 1 1.91037 11.0812 11.0807 
31 1 2.79499 10.1954 10.1951 
32 1 0.385822 10.8758 10.8795 
35 1 2.1128 10.8783 12.6067 
38 1 2.11273 12.6064 10.8783 
47 1 4.37507 8.61736 8.61752 
48 1 3.48665 9.50348 9.50336 
49 1 4.16963 7.09304 8.82007 
54 1 4.17005 8.82017 7.09295 
60 1 5.90024 8.82162 8.82221 
7 1 11.081 1.91045 1.91081 
8 1 10.1953 2.79594 2.79625 
9 1 10.879 0.384287 2.1132 
14 1 10.8788 2.11323 0.385573 
20 1 12.6072 2.11305 2.11322 
70 1 8.61787 4.37228 4.37256 
71 1 9.50364 3.48712 3.48739 
72 1 7.09286 4.17097 4.17092 
75 1 8.82115 4.17086 5.90004 
78 1 8.8211 5.89781 4.17071 
27 1 11.082 1.91059 11.0808 
28 1 10.1958 2.79495 10.1954 
29 1 12.6076 2.113 10.8779 
34 1 10.8789 2.113 12.6074 
40 1 10.8778 0.391938 10.8791 
50 1 8.61679 4.37254 8.61766 
51 1 9.50396 3.4862 9.50404 
52 1 8.8206 5.89158 8.82418 
55 1 8.82041 4.1702 7.09077 
58 1 7.09089 4.16996 8.82043 
24 1 11.0819 11.0817 1.90878 
25 1 10.1966 10.1965 2.79357 
26 1 12.6069 10.8782 2.11275 
36 1 10.8789 10.8768 0.376061 
39 1 10.8792 12.6068 2.11259 
44 1 8.61779 8.61816 4.3713 
45 1 9.50499 9.50517 3.48506 
46 1 8.82066 7.09177 4.16973 
56 1 8.82216 8.82471 5.88989 
59 1 7.0921 8.82056 4.16965 
1 1 11.086 11.099 11.06 
2 1 10.272 10.3972 9.95257 
3 1 10.8838 12.6135 10.8805 
13 1 10.8758 10.8756 12.5994 
17 1 12.6099 10.8807 10.8781 
61 1 8.59055 8.57847 8.57311 
62 1 9.56366 9.48552 9.58436 
63 1 7.09406 8.81189 8.81066 
73 1 8.81768 8.81718 7.08632 
77 1 8.81212 7.08873 8.81081 
81 2 9.58193 9.40207 11.5598 
82 3 9.47934 8.56437 11.1703 
ITEM: TIMESTEP
40
ITEM: NUMBER OF ATOMS
82
ITEM: BOX BOUNDS pp pp pp
0.0000000000000000e+00 1.3416000000000000e+01
0.0000000000000000e+00 1.3416000000000000e+01
0.0000000000000000e+00 1.3414999999999999e+01
ITEM: ATOMS id type x y z 
21 1 1.91022 1.90989 1.91237 
22 1 2.79555 2.79557 2.79671 
23 1 0.384124 2.11827 2.11826 
33 1 2.11755 2.11835 0.383407 
37 1 2.1183 0.38359 2.11825 
41 1 4.37367 4.37332 4.37369 
42 1 3.48739 3.48763 3.48756 
43 1 4.1654 5.90173 4.16585 
53 1 4.16579 4.16592 5.89945 
57 1 5.89807 4.16598 4.16598 
4 1 1.91234 1.91127 11.0812 
5 1 2.79636 2.79604 10.1954 
6 1 2.11845 0.384158 10.8724 
16 1 2.11782 2.11835 12.6072 
19 1 0.386108 2.11844 10.8719 
64 1 4.37233 4.37212 8.61911 
65 1 3.48821 3.48777 9.50267 
66 1 5.90081 4.16492 8.82607 
76 1 4.16528 4.16564 7.09094 
79 1 4.16369 5.90323 8.82567 
10 1 1.91142 11.0811 1.9105 
11 1 2.79649 10.1955 2.79507 
12 1 2.11802 12.6071 2.11833 
15 1 2.11789 10.8727 0.386151 
18 1 0.378573 10.8729 2.11845 
67 1 4.3719 8.61772 4.37271 
68 1 3.48643 9.50367 3.48891 
69 1 5.899 8.82601 4.16472 
74 1 4.16436 8.82549 5.90141 
80 1 4.16515 7.08983 4.16572 
30 1 1.91392 11.08 11.0797 
31 1 2.79716 10.1948 10.1943 
32 1 0.386202 10.8686 10.8758 
35 1 2.11884 10.8728 12.6092 
38 1 2.11852 12.6079 10.8726 
47 1 4.38248 8.61834 8.61987 
48 1 3.48947 9.50273 9.50273 
49 1 4.16618 7.09431 8.82487 
54 1 4.16658 8.82498 7.09311 
60 1 5.90371 8.82521 8.82516 
7 1 11.0812 1.91084 1.91161 
8 1 10.1954 2.79499 2.79552 
9 1 10.8739 0.377267 2.11852 
14 1 10.8732 2.11832 0.383826 
20 1 12.6087 2.11816 2.11867 
70 1 8.6196 4.37202 4.37146 
71 1 9.50278 3.48706 3.48738 
72 1 7.09026 4.16526 4.16536 
75 1 8.82613 4.16454 5.90148 
78 1 8.82618 5.89979 4.16451 
27 1 11.081 1.91664 11.0813 
28 1 10.1948 2.79758 10.1952 
29 1 12.6109 2.11954 10.872 
34 1 10.8733 2.11974 12.614 
40 1 10.8712 0.40076 10.8748 
50 1 8.61907 4.37658 8.61866 
51 1 9.50289 3.48858 9.50236 
52 1 8.82476 5.89312 8.82818 
55 1 8.82555 4.16543 7.09077 
58 1 7.0878 4.16504 8.82583 
24 1 11.0842 11.0837 1.9012 
25 1 10.1974 10.1967 2.79074 
26 1 12.604 10.8741 2.1162 
36 1 10.8751 10.8719 0.364688 
39 1 10.8751 12.606 2.11595 
44 1 8.61979 8.6199 4.37435 
45 1 9.50647 9.50704 3.48481 
46 1 8.82559 7.09265 4.16507 
56 1 8.82727 8.82996 5.89256 
59 1 7.09149 8.82557 4.16479 
1 1 11.0868 11.1037 11.0479 
2 1 10.2837 10.4088 9.93266 
3 1 10.8809 12.6238 10.8744 
13 1 10.8685 10.8699 12.593 
17 1 12.6121 10.8784 10.8709 
61 1 8.59201 8.58136 8.57627 
62 1 9.57327 9.47278 9.61454 
63 1 7.09731 8.80994 8.80888 
73 1 8.81781 8.818 7.08878 
77 1 8.80858 7.09119 8.80846 
81 2 9.57496 9.35633 11.6415 
82 3 9.44724 8.57321 11.1223 
ITEM: TIMESTEP
50
ITEM: NUMBER OF ATOMS
82
ITEM: BOX BOUNDS pp pp pp
0.0000000000000000e+00 1.3416000000000000e+01
0.0000000000000000e+00 1.3416000000000000e+01
0.0000000000000000e+00 1.3414999999999999e+01
ITEM: ATOMS id type x y z 
21 1 1.91067 1.91011 1.9103 
22 1 2.79586 2.79545 2.7962 
23 1 0.382106 2.11923 2.1196 
33 1 2.11849 2.11924 0.384636 
37 1 2.11919 0.382783 2.11955 
41 1 4.37189 4.37273 4.37206 
42 1 3.48723 3.4873 3.48831 
43 1 4.16403 5.90043 4.16445 
53 1 4.16432 4.16446 5.90082 
57 1 5.90177 4.16442 4.16452 
4 1 1.91338 1.91136 11.08 
5 1 2.79734 2.79608 10.1951 
6 1 2.11979 0.382596 10.8711 
16 1 2.11929 2.11981 12.6095 
19 1 0.383755 2.11983 10.8704 
64 1 4.37033 4.37495 8.61666 
65 1 3.48789 3.48842 9.50311 
66 1 5.89884 4.16361 8.82709 
76 1 4.16455 4.16469 7.09414 
79 1 4.16296 5.90086 8.82637 
10 1 1.90756 11.0813 1.91134 
11 1 2.79542 10.1956 2.79629 
12 1 2.11909 12.6065 2.11898 
15 1 2.11896 10.8719 0.38451 
18 1 0.382464 10.8725 2.11913 
67 1 4.37165 8.61742 4.37314 
68 1 3.48728 9.50367 3.4876 
69 1 5.90133 8.82687 4.16357 
74 1 4.16322 8.82638 5.90241 
80 1 4.16405 7.09365 4.16469 
30 1 1.91484 11.0812 11.0818 
31 1 2.79774 10.1945 10.1944 
32 1 0.3868 10.8677 10.875 
35 1 2.11974 10.8718 12.6088 
38 1 2.11942 12.6064 10.8716 
47 1 4.38293 8.62084 8.61867 
48 1 3.48981 9.50362 9.5034 
49 1 4.16539 7.09136 8.82636 
54 1 4.16596 8.82604 7.09249 
60 1 5.9051 8.82554 8.82584 
7 1 11.0825 1.90785 1.91423 
8 1 10.1952 2.7953 2.79662 
9 1 10.8732 0.383926 2.11935 
14 1 10.8719 2.11951 0.387808 
20 1 12.6083 2.11922 2.1194 
70 1 8.61627 4.3717 4.37293 
71 1 9.50334 3.48722 3.48695 
72 1 7.09307 4.16473 4.16457 
75 1 8.82691 4.1638 5.89665 
78 1 8.82694 5.89993 4.16356 
27 1 11.0831 1.92053 11.0834 
28 1 10.1948 2.79879 10.1946 
29 1 12.6107 2.12095 10.8709 
34 1 10.8721 2.12123 12.6083 
40 1 10.8699 0.402625 10.8738 
50 1 8.61664 4.37781 8.62016 
51 1 9.50289 3.48907 9.50296 
52 1 8.82503 5.896 8.8283 
55 1 8.82684 4.16444 7.09106 
58 1 7.0922 4.16423 8.82671 
24 1 11.0806 11.0798 1.89833 
25 1 10.1971 10.1977 2.79079 
26 1 12.6069 10.8726 2.11689 
36 1 10.874 10.871 0.361978 
39 1 10.8736 12.6042 2.11659 
44 1 8.6193 8.62048 4.3769 
45 1 9.50726 9.50656 3.48372 
46 1 8.82637 7.09315 4.16441 
56 1 8.82762 8.8304 5.89304 
59 1 7.09124 8.82634 4.16418 
1 1 11.0868 11.1073 11.0446 
2 1 10.2873 10.4114 9.93187 
3 1 10.8812 12.6209 10.8738 
13 1 10.8677 10.8699 12.5846 
17 1 12.6107 10.8785 10.8694 
61 1 8.59112 8.58045 8.57403 
62 1 9.5776 9.47023 9.62527 
63 1 7.10052 8.80986 8.80847 
73 1 8.81829 8.81858 7.08808 
77 1 8.80792 7.09108 8.80789 
81 2 9.57161 9.33689 11.66 
82 3 9.43875 8.58063 11.1139 
ITEM: TIMESTEP
60
ITEM: NUMBER OF ATOMS
82
ITEM: BOX BOUNDS pp pp pp
0.0000000000000000e+00 1.3416000000000000e+01
0.0000000000000000e+00 1.3416000000000000e+01
0.0000000000000000e+00 1.3414999999999999e+01
ITEM: ATOMS id type x y z 
21 1 1.91065 1.90987 1.91059 
22 1 2.79583 2.79549 2.79629 
23 1 0.38411 2.11973 2.11998 
33 1 2.11896 2.11971 0.385593 
37 1 2.11966 0.383078 2.11991 
41 1 4.37229 4.37325 4.3728 
42 1 3.48738 3.48738 3.48834 
43 1 4.16373 5.89993 4.16412 
53 1 4.16405 4.16412 5.90026 
57 1 5.90067 4.16413 4.16414 
4 1 1.91322 1.91057 11.0804 
5 1 2.79719 2.79592 10.1954 
6 1 2.1201 0.383197 10.8708 
16 1 2.11968 2.12017 12.6077 
19 1 0.386024 2.12013 10.87 
64 1 4.37033 4.3749 8.61687 
65 1 3.48777 3.48855 9.50306 
66 1 5.89938 4.1631 8.82747 
76 1 4.16402 4.16421 7.0932 
79 1 4.16243 5.90019 8.82678 
10 1 1.9074 11.0812 1.91135 
11 1 2.79516 10.1954 2.79658 
12 1 2.11944 12.6064 2.11944 
15 1 2.11931 10.8715 0.385497 
18 1 0.381651 10.8722 2.11963 
67 1 4.37195 8.61781 4.37339 
68 1 3.48736 9.50374 3.48743 
69 1 5.90005 8.82714 4.16309 
74 1 4.16275 8.82667 5.90106 
80 1 4.16359 7.09309 4.16424 
30 1 1.91472 11.081 11.0819 
31 1 2.79787 10.1945 10.1946 
32 1 0.387307 10.8673 10.8747 
35 1 2.12033 10.8713 12.6077 
38 1 2.11995 12.6069 10.8711 
47 1 4.38369 8.62055 8.6189 
48 1 3.49032 9.50365 9.50331 
49 1 4.16525 7.0928 8.82676 
54 1 4.16576 8.82649 7.09365 
60 1 5.90531 8.82564 8.82586 
7 1 11.0821 1.90724 1.91405 
8 1 10.1954 2.79512 2.7968 
9 1 10.8729 0.381548 2.11986 
14 1 10.8715 2.11985 0.387123 
20 1 12.6065 2.1196 2.11994 
70 1 8.61649 4.37215 4.3731 
71 1 9.50328 3.48729 3.48705 
72 1 7.09322 4.16428 4.16412 
75 1 8.82726 4.16335 5.89847 
78 1 8.82718 5.9004 4.16312 
27 1 11.0829 1.92092 11.084 
28 1 10.1949 2.7992 10.1946 
29 1 12.6097 2.12173 10.8705 
34 1 10.8718 2.12202 12.6094 
40 1 10.8695 0.401974 10.8736 
50 1 8.61625 4.37818 8.61928 
51 1 9.50268 3.48947 9.50296 
52 1 8.82494 5.89556 8.82843 
55 1 8.82719 4.16422 7.08952 
58 1 7.0922 4.16397 8.82714 
24 1 11.0809 11.0801 1.89609 
25 1 10.1975 10.1982 2.78993 
26 1 12.606 10.8724 2.11664 
36 1 10.8739 10.8709 0.360147 
39 1 10.8733 12.605 2.11632 
44 1 8.61975 8.62071 4.377 
45 1 9.50754 9.50685 3.48361 
46 1 8.8268 7.09268 4.16413 
56 1 8.82788 8.83075 5.89202 
59 1 7.09237 8.82681 4.16387 
1 1 11.0865 11.1083 11.0431 
2 1 10.2884 10.4121 9.93072 
3 1 10.8811 12.624 10.8732 
13 1 10.8672 10.8698 12.5857 
17 1 12.6117 10.8783 10.8686 
61 1 8.59138 8.58069 8.57351 
62 1 9.57903 9.46879 9.62965 
63 1 7.10078 8.80987 8.80838 
73 1 8.81853 8.81884 7.08959 
77 1 8.80774 7.09198 8.80759 
81 2 9.57025 9.32917 11.6683 
82 3 9.43482 8.58278 11.11 
ITEM: TIMESTEP
70
ITEM: NUMBER OF ATOMS
82
ITEM: BOX BOUNDS pp pp pp
0.0000000000000000e+00 1.3416000000000000e+01
0.0000000000000000e+00 1.3416000000000000e+01
0.0000000000000000e+00 1.3414999999999999e+01
ITEM: ATOMS id type x y z 
21 1 1.91047 1.9098 1.91071 
22 1 2.79583 2.79552 2.79641 
23 1 0.384105 2.1198 2.12001 
33 1 2.11905 2.11978 0.385568 
37 1 2.11975 0.383269 2.11995 
41 1 4.37253 4.3734 4.37302 
42 1 3.48739 3.48741 3.48824 
43 1 4.1637 5.89973 4.16409 
53 1 4.16403 4.16408 5.89998 
57 1 5.9004 4.16411 4.16411 
4 1 1.91317 1.9105 11.0805 
5 1 2.79718 2.79596 10.1954 
6 1 2.12017 0.383698 10.8707 
16 1 2.11976 2.12023 12.6075 
19 1 0.386488 2.12018 10.8699 
64 1 4.37041 4.37474 8.61709 
65 1 3.4877 3.48851 9.50308 
66 1 5.89923 4.16301 8.82754 
76 1 4.16388 4.1641 7.09286 
79 1 4.1623 5.9007 8.82688 
10 1 1.9076 11.0811 1.91134 
11 1 2.79511 10.1954 2.79655 
12 1 2.1195 12.6064 2.11956 
15 1 2.11937 10.8714 0.38586 
18 1 0.382147 10.8721 2.11975 
67 1 4.37201 8.61798 4.37339 
68 1 3.48736 9.50374 3.4875 
69 1 5.90012 8.8272 4.163 
74 1 4.16266 8.82674 5.90094 
80 1 4.16349 7.09282 4.16415 
30 1 1.91474 11.0808 11.0818 
31 1 2.79795 10.1945 10.1946 
32 1 0.387385 10.8672 10.8746 
35 1 2.12046 10.8712 12.6075 
38 1 2.12007 12.6066 10.871 
47 1 4.38397 8.6203 8.61902 
48 1 3.49038 9.50369 9.50334 
49 1 4.16525 7.09287 8.82678 
54 1 4.16574 8.82656 7.09381 
60 1 5.90543 8.82564 8.82582 
7 1 11.0819 1.90733 1.91395 
8 1 10.1954 2.79509 2.79683 
9 1 10.8729 0.381469 2.12 
14 1 10.8714 2.11991 0.387508 
20 1 12.6069 2.11967 2.12007 
70 1 8.61669 4.37219 4.37291 
71 1 9.50326 3.48729 3.4871 
72 1 7.09287 4.16416 4.16401 
75 1 8.82736 4.16323 5.89837 
78 1 8.82724 5.90052 4.16302 
27 1 11.0828 1.92103 11.0839 
28 1 10.1949 2.79932 10.1945 
29 1 12.6097 2.12192 10.8704 
34 1 10.8717 2.12222 12.6094 
40 1 10.8694 0.40257 10.8735 
50 1 8.61639 4.37835 8.61908 
51 1 9.50266 3.48954 9.50294 
52 1 8.82489 5.89578 8.82844 
55 1 8.82723 4.16417 7.08998 
58 1 7.09229 4.16391 8.82723 
24 1 11.0809 11.0802 1.89592 
25 1 10.1974 10.198 2.7898 
26 1 12.6051 10.8723 2.11659 
36 1 10.8739 10.8709 0.36029 
39 1 10.8733 12.6046 2.11626 
44 1 8.61982 8.62071 4.37711 
45 1 9.50765 9.50706 3.48357 
46 1 8.82685 7.0928 4.16409 
56 1 8.8279 8.83079 5.8924 
59 1 7.09243 8.82687 4.16383 
1 1 11.0866 11.1083 11.043 
2 1 10.2886 10.4122 9.93045 
3 1 10.881 12.624 10.873 
13 1 10.8671 10.8697 12.5852 
17 1 12.6118 10.8783 10.8684 
61 1 8.59153 8.58077 8.57347 
62 1 9.57921 9.46847 9.63042 
63 1 7.10051 8.80988 8.80837 
73 1 8.81858 8.8189 7.08915 
77 1 8.80771 7.09178 8.80752 
81 2 9.57 9.32784 11.6698 
82 3 9.43404 8.583 11.1093 
ITEM: TIMESTEP
78
ITEM: NUMBER OF ATOMS
82
ITEM: BOX BOUNDS pp pp pp
0.0000000000000000e+00 1.3416000000000000e+01
0.0000000000000000e+00 1.3416000000000000e+01
0.0000000000000000e+00 1.3414999999999999e+01
ITEM: ATOMS id type x y z 
21 1 1.91045 1.90977 1.91099 
22 1 2.79584 2.79555 2.79652 
23 1 0.384151 2.11996 2.1201 
33 1 2.11919 2.11993 0.385298 
37 1 2.1199 0.383475 2.12005 
41 1 4.37276 4.37361 4.37317 
42 1 3.48739 3.48746 3.48814 
43 1 4.16363 5.89951 4.16403 
53 1 4.16397 4.16399 5.89967 
57 1 5.89985 4.16405 4.16404 
4 1 1.91307 1.91033 11.0808 
5 1 2.79714 2.79599 10.1954 
6 1 2.12024 0.384047 10.8706 
16 1 2.11984 2.12029 12.6072 
19 1 0.38686 2.12023 10.8698 
64 1 4.37065 4.37449 8.61726 
65 1 3.48764 3.4885 9.50306 
66 1 5.89913 4.1629 8.82764 
76 1 4.16371 4.16398 7.09271 
79 1 4.16213 5.90101 8.827 
10 1 1.90782 11.081 1.91121 
11 1 2.79505 10.1953 2.79652 
12 1 2.11959 12.6063 2.11972 
15 1 2.11945 10.8713 0.385975 
18 1 0.381779 10.872 2.11991 
67 1 4.3721 8.61819 4.37344 
68 1 3.48735 9.50374 3.48761 
69 1 5.9 8.82728 4.16287 
74 1 4.16253 8.82682 5.90101 
80 1 4.16335 7.09251 4.16401 
30 1 1.91478 11.0806 11.0817 
31 1 2.79805 10.1945 10.1946 
32 1 0.387407 10.8671 10.8745 
35 1 2.12066 10.8711 12.6077 
38 1 2.12025 12.6067 10.8709 
47 1 4.38428 8.62005 8.61914 
48 1 3.4905 9.50372 9.50335 
49 1 4.16524 7.09321 8.82684 
54 1 4.16571 8.82665 7.09373 
60 1 5.90538 8.82565 8.82579 
7 1 11.0819 1.90759 1.91374 
8 1 10.1954 2.79502 2.79686 
9 1 10.8728 0.381105 2.12018 
14 1 10.8712 2.11997 0.387844 
20 1 12.6069 2.11975 2.12025 
70 1 8.61696 4.37223 4.37264 
71 1 9.50324 3.48729 3.48718 
72 1 7.09273 4.16399 4.16385 
75 1 8.8275 4.16305 5.89847 
78 1 8.82734 5.90057 4.16287 
27 1 11.0827 1.92122 11.0836 
28 1 10.1948 2.79949 10.1945 
29 1 12.61 2.12219 10.8703 
34 1 10.8715 2.12251 12.6097 
40 1 10.8693 0.403005 10.8734 
50 1 8.61666 4.37855 8.61875 
51 1 9.50262 3.48967 9.5029 
52 1 8.82482 5.89586 8.82848 
55 1 8.82729 4.1641 7.0904 
58 1 7.09205 4.16381 8.82736 
24 1 11.0811 11.0805 1.89575 
25 1 10.1974 10.1979 2.78958 
26 1 12.6047 10.8722 2.11649 
36 1 10.8738 10.8708 0.360177 
39 1 10.8732 12.604 2.11615 
44 1 8.62 8.62073 4.37713 
45 1 9.50775 9.50731 3.48357 
46 1 8.82696 7.09303 4.16402 
56 1 8.82796 8.83087 5.89246 
59 1 7.09258 8.82698 4.16375 
1 1 11.0867 11.1083 11.0427 
2 1 10.2888 10.4124 9.93007 
3 1 10.8809 12.6244 10.8728 
13 1 10.867 10.8697 12.5847 
17 1 12.6121 10.8783 10.8681 
61 1 8.59172 8.58087 8.57342 
62 1 9.57945 9.46798 9.63153 
63 1 7.10052 8.80988 8.80834 
73 1 8.81864 8.81897 7.0892 
77 1 8.80766 7.09182 8.80742 
81 2 9.56964 9.32587 11.6721 
82 3 9.4329 8.58333 11.1082 
ITEM: TIMESTEP
79
ITEM: NUMBER OF ATOMS
82
ITEM: BOX BOUNDS pp pp pp
0.0000000000000000e+00 1.3416000000000000e+01
0.0000000000000000e+00 1.3416000000000000e+01
0.0000000000000000e+00 1.3414999999999999e+01
ITEM: ATOMS id type x y z 
21 1 1.91045 1.90977 1.91099 
22 1 2.79584 2.79555 2.79652 
23 1 0.384151 2.11996 2.1201 
33 1 2.11919 2.11993 0.385298 
37 1 2.1199 0.383475 2.12005 
41 1 4.37276 4.37361 4.37317 
42 1 3.48739 3.48746 3.48814 
43 1 4.16363 5.89951 4.16403 
53 1 4.16397 4.16399 5.89967 
57 1 5.89985 4.16405 4.16404 
4 1 1.91307 1.91033 11.0808 
5 1 2.79714 2.79599 10.1954 
6 1 2.12024 0.384047 10.8706 
16 1 2.11984 2.12029 12.6072 
19 1 0.38686 2.12023 10.8698 
64 1 4.37065 4.37449 8.61726 
65 1 3.48764 3.4885 9.50306 
66 1 5.89913 4.1629 8.82764 
76 1 4.16371 4.16398 7.09271 
79 1 4.16213 5.90101 8.827 
10 1 1.90782 11.081 1.91121 
11 1 2.79505 10.1953 2.79652 
12 1 2.11959 12.6063 2.11972 
15 1 2.11945 10.8713 0.385975 
18 1 0.381779 10.872 2.11991 
67 1 4.3721 8.61819 4.37344 
68 1 3.48735 9.50374 3.48761 
69 1 5.9 8.82728 4.16287 
74 1 4.16253 8.82682 5.90101 
80 1 4.16335 7.09251 4.16401 
30 1 1.91478 11.0806 11.0817 
31 1 2.79805 10.1945 10.1946 
32 1 0.387407 10.8671 10.8745 
35 1 2.12066 10.8711 12.6077 
38 1 2.12025 12.6067 10.8709 
47 1 4.38428 8.62005 8.61914 
48 1 3.4905 9.50372 9.50335 
49 1 4.16524 7.09321 8.82684 
54 1 4.16571 8.82665 7.09373 
60 1 5.90538 8.82565 8.82579 
7 1 11.0819 1.90759 1.91374 
8 1 10.1954 2.79502 2.79686 
9 1 10.8728 0.381105 2.12018 
14 1 10.8712 2.11997 0.387844 
20 1 12.6069 2.11975 2.12025 
70 1 8.61696 4.37223 4.37264 
71 1 9.50324 3.48729 3.48718 
72 1 7.09273 4.16399 4.16385 
75 1 8.8275 4.16305 5.89847 
78 1 8.82734 5.90057 4.16287 
27 1 11.0827 1.92122 11.0836 
28 1 10.1948 2.79949 10.1945 
29 1 12.61 2.12219 10.8703 
34 1 10.8715 2.12251 12.6097 
40 1 10.8693 0.403005 10.8734 
50 1 8.61666 4.37855 8.61875 
51 1 9.50262 3.48967 9.5029 
52 1 8.82482 5.89586 8.82848 
55 1 8.82729 4.1641 7.0904 
58 1 7.09205 4.16381 8.82736 
24 1 11.0811 11.0805 1.89575 
25 1 10.1974 10.1979 2.78958 
26 1 12.6047 10.8722 2.11649 
36 1 10.8738 10.8708 0.360177 
39 1 10.8732 12.604 2.11615 
44 1 8.62 8.62073 4.37713 
45 1 9.50775 9.50731 3.48357 
46 1 8.82696 7.09303 4.16402 
56 1 8.82796 8.83087 5.89246 
59 1 7.09258 8.82698 4.16375 
1 1 11.0867 11.1083 11.0427 
2 1 10.2888 10.4124 9.93007 
3 1 10.8809 12.6244 10.8728 
13 1 10.867 10.8697 12.5847 
17 1 12.6121 10.8783 10.8681 
61 1 8.59172 8.58087 8.57342 
62 1 9.57945 9.46798 9.63153 
63 1 7.10052 8.80988 8.80834 
73 1 8.81864 8.81897 7.0892 
77 1 8.80766 7.09182 8.80742 
81 2 9.56964 9.32587 11.6721 
82 3 9.4329 8.58333 11.1082 
ITEM: TIMESTEP
80
ITEM: NUMBER OF ATOMS
82
ITEM: BOX BOUNDS pp pp pp
-1.7867841130499409e-04 1.3416178678411306e+01
-4.0012740478834663e-04 1.3416400127404788e+01
6.9551471992417886e-05 1.3414930448528006e+01
ITEM: ATOMS id type x y z 
21 1 1.91032 1.90948 1.91104 
22 1 2.79574 2.79532 2.79656 
23 1 0.383977 2.11968 2.12015 
33 1 2.11907 2.11966 0.385358 
37 1 2.11978 0.383097 2.12009 
41 1 4.3727 4.37346 4.37319 
42 1 3.48731 3.48727 3.48818 
43 1 4.16356 5.89946 4.16406 
53 1 4.1639 4.16384 5.89968 
57 1 5.89983 4.1639 4.16407 
4 1 1.91294 1.91004 11.0808 
5 1 2.79704 2.79576 10.1953 
6 1 2.12012 0.38366 10.8706 
16 1 2.11972 2.12001 12.6072 
19 1 0.386691 2.11995 10.8697 
64 1 4.37059 4.37435 8.61724 
65 1 3.48755 3.48831 9.50303 
66 1 5.89911 4.16275 8.82762 
76 1 4.16364 4.16383 7.0927 
79 1 4.16206 5.90096 8.82698 
10 1 1.90769 11.0813 1.91126 
11 1 2.79494 10.1955 2.79656 
12 1 2.11947 12.6066 2.11977 
15 1 2.11932 10.8715 0.386039 
18 1 0.381609 10.8723 2.11996 
67 1 4.37204 8.61831 4.37346 
68 1 3.48727 9.50391 3.48764 
69 1 5.89998 8.8274 4.1629 
74 1 4.16247 8.82695 5.90102 
80 1 4.16328 7.09254 4.16404 
30 1 1.91466 11.0809 11.0817 
31 1 2.79795 10.1947 10.1946 
32 1 0.387239 10.8673 10.8745 
35 1 2.12054 10.8714 12.6076 
38 1 2.12013 12.6071 10.8708 
47 1 4.38422 8.62016 8.61912 
48 1 3.49042 9.50389 9.50332 
49 1 4.16517 7.09323 8.82682 
54 1 4.16564 8.82678 7.09372 
60 1 5.90535 8.82577 8.82577 
7 1 11.082 1.90731 1.91379 
8 1 10.1955 2.79478 2.7969 
9 1 10.8729 0.380728 2.12023 
14 1 10.8713 2.11969 0.387909 
20 1 12.6071 2.11948 2.1203 
70 1 8.61701 4.37209 4.37266 
71 1 9.50332 3.4871 3.48721 
72 1 7.09273 4.16384 4.16388 
75 1 8.82756 4.1629 5.89848 
78 1 8.8274 5.90052 4.16289 
27 1 11.0828 1.92093 11.0836 
28 1 10.1949 2.79925 10.1945 
29 1 12.6102 2.12192 10.8702 
34 1 10.8716 2.12224 12.6096 
40 1 10.8694 0.402625 10.8734 
50 1 8.61671 4.37841 8.61873 
51 1 9.50269 3.48948 9.50287 
52 1 8.82487 5.89581 8.82845 
55 1 8.82734 4.16395 7.0904 
58 1 7.09206 4.16365 8.82734 
24 1 11.0812 11.0807 1.8958 
25 1 10.1975 10.1981 2.78962 
26 1 12.6048 10.8725 2.11654 
36 1 10.8739 10.8711 0.360239 
39 1 10.8733 12.6044 2.1162 
44 1 8.62005 8.62085 4.37715 
45 1 9.50783 9.50748 3.4836 
46 1 8.82701 7.09306 4.16405 
56 1 8.82801 8.831 5.89247 
59 1 7.09258 8.82711 4.16377 
1 1 11.0868 11.1086 11.0427 
2 1 10.2889 10.4126 9.93003 
3 1 10.881 12.6248 10.8728 
13 1 10.8671 10.8699 12.5847 
17 1 12.6122 10.8785 10.8681 
61 1 8.59177 8.58099 8.5734 
62 1 9.57953 9.46814 9.6315 
63 1 7.10053 8.81001 8.80832 
73 1 8.8187 8.8191 7.08919 
77 1 8.80772 7.09184 8.8074 
81 2 9.56972 9.32602 11.672 
82 3 9.43297 8.58344 11.1081 
ITEM: TIMESTEP
82
ITEM: NUMBER OF ATOMS
82
ITEM: BOX BOUNDS pp pp pp
-1.7793169131327094e-04 1.3416177931691314e+01
-4.1508434111227582e-04 1.3416415084341113e+01
9.0512409492417897e-05 1.3414909487590506e+01
ITEM: ATOMS id type x y z 
21 1 1.91032 1.90947 1.91105 
22 1 2.79574 2.79531 2.79657 
23 1 0.383978 2.11967 2.12016 
33 1 2.11907 2.11965 0.385377 
37 1 2.11978 0.383082 2.12011 
41 1 4.3727 4.37346 4.3732 
42 1 3.48731 3.48726 3.48819 
43 1 4.16356 5.89946 4.16407 
53 1 4.1639 4.16383 5.89969 
57 1 5.89983 4.16389 4.16407 
4 1 1.91294 1.91003 11.0807 
5 1 2.79704 2.79575 10.1953 
6 1 2.12012 0.383645 10.8706 
16 1 2.11972 2.12 12.6072 
19 1 0.386692 2.11994 10.8697 
64 1 4.37059 4.37434 8.61723 
65 1 3.48755 3.4883 9.50302 
66 1 5.89911 4.16274 8.82761 
76 1 4.16364 4.16383 7.0927 
79 1 4.16206 5.90096 8.82697 
10 1 1.90769 11.0813 1.91128 
11 1 2.79494 10.1955 2.79657 
12 1 2.11947 12.6066 2.11979 
15 1 2.11932 10.8715 0.386058 
18 1 0.38161 10.8723 2.11997 
67 1 4.37204 8.61831 4.37347 
68 1 3.48727 9.50392 3.48765 
69 1 5.89998 8.82741 4.1629 