LAMMPS (3 Mar 2020)
Reading data file ...
  triclinic box = (0 0 0) to (15.77 13.6581 25.747) with tilt (7.8845 0 0)
  2 by 2 by 2 MPI processor grid
  reading atoms ...
  129 atoms
  read_data CPU = 0.00216168 secs
WARNING: Using 'neigh_modify every 1 delay 0 check yes' setting during minimization (../min.cpp:190)
WARNING: Total cutoff < 2*bond cutoff. May need to use an increased neighbor list skin. (../pair_reaxc.cpp:413)
Neighbor list info ...
  update every 1 steps, delay 0 steps, check yes
  max neighbors/atom: 2000, page size: 100000
  master list distance cutoff = 9.5
  ghost atom cutoff = 9.5
  binsize = 4.75, bins = 5 3 6
  2 neighbor lists, perpetual/occasional/extra = 2 0 0
  (1) pair reax/c, perpetual
      attributes: half, newton off, ghost
      pair build: half/bin/newtoff/ghost
      stencil: half/ghost/bin/3d/newtoff
      bin: standard
  (2) fix qeq/reax, perpetual, copy from (1)
      attributes: half, newton off, ghost
      pair build: copy
      stencil: none
      bin: none
Setting up cg style minimization ...
  Unit style    : real
  Current step  : 0
Per MPI rank memory allocation (min/avg/max) = 16.27 | 16.8 | 17.41 Mbytes
Step Temp E_pair E_mol TotEng Press 
       0            0   -19341.155            0   -19341.155    62070.185 
     172            0   -21897.738            0   -21897.738    9780.7623 
Loop time of 3.79456 on 8 procs for 172 steps with 129 atoms

99.4% CPU use with 8 MPI tasks x no OpenMP threads

Minimization stats:
  Stopping criterion = energy tolerance
  Energy initial, next-to-last, final = 
        -19341.1548302     -21897.7377885     -21897.7378004
  Force two-norm initial, final = 5103.81 201.501
  Force max component initial, final = 1296.57 70.7533
  Final line search alpha, max atom move = 0.000339451 0.0240173
  Iterations, force evaluations = 172 1020

MPI task timing breakdown:
Section |  min time  |  avg time  |  max time  |%varavg| %total
---------------------------------------------------------------
Pair    | 2.3985     | 2.7259     | 2.9668     |  12.8 | 71.84
Neigh   | 0          | 0          | 0          |   0.0 |  0.00
Comm    | 0.016576   | 0.25766    | 0.58582    |  41.6 |  6.79
Output  | 0.00069126 | 0.00085408 | 0.001271   |   0.0 |  0.02
Modify  | 0.80272    | 0.80287    | 0.80306    |   0.0 | 21.16
Other   |            | 0.007304   |            |       |  0.19

Nlocal:    16.125 ave 37 max 2 min
Histogram: 2 1 1 1 1 0 0 0 0 2
Nghost:    464.5 ave 508 max 415 min
Histogram: 2 0 2 0 0 0 0 0 0 4
Neighs:    1157.62 ave 2458 max 173 min
Histogram: 2 0 2 0 2 0 0 0 0 2

Total # of neighbors = 9261
Ave neighs/atom = 71.7907
Neighbor list builds = 0
Dangerous builds = 0
WARNING: Using 'neigh_modify every 1 delay 0 check yes' setting during minimization (../min.cpp:190)
WARNING: Total cutoff < 2*bond cutoff. May need to use an increased neighbor list skin. (../pair_reaxc.cpp:413)
Setting up cg style minimization ...
  Unit style    : real
  Current step  : 172
Per MPI rank memory allocation (min/avg/max) = 16.27 | 16.8 | 17.41 Mbytes
Step Temp E_pair E_mol TotEng Press 
     172            0   -21897.738            0   -21897.738    9780.7623 
     615            0   -21949.863            0   -21949.863    2241.1978 
Loop time of 11.9981 on 8 procs for 443 steps with 129 atoms

99.4% CPU use with 8 MPI tasks x no OpenMP threads

Minimization stats:
  Stopping criterion = energy tolerance
  Energy initial, next-to-last, final = 
        -21897.7378004     -21949.8629773     -21949.8631581
  Force two-norm initial, final = 201.501 10.784
  Force max component initial, final = 70.7533 2.90372
  Final line search alpha, max atom move = 0.000532617 0.00154657
  Iterations, force evaluations = 443 3208

MPI task timing breakdown:
Section |  min time  |  avg time  |  max time  |%varavg| %total
---------------------------------------------------------------
Pair    | 8.0316     | 8.8658     | 9.4328     |  16.8 | 73.89
Neigh   | 0          | 0          | 0          |   0.0 |  0.00
Comm    | 0.050485   | 0.61827    | 1.4548     |  63.9 |  5.15
Output  | 0.0019694  | 0.0026296  | 0.00608    |   2.6 |  0.02
Modify  | 2.4857     | 2.4862     | 2.4867     |   0.0 | 20.72
Other   |            | 0.0252     |            |       |  0.21

Nlocal:    16.125 ave 39 max 0 min
Histogram: 1 2 1 0 2 0 0 0 0 2
Nghost:    475.25 ave 520 max 427 min
Histogram: 2 1 1 0 0 0 0 0 1 3
Neighs:    1135 ave 2545 max 0 min
Histogram: 1 2 1 0 0 2 0 0 0 2

Total # of neighbors = 9080
Ave neighs/atom = 70.3876
Neighbor list builds = 0
Dangerous builds = 0
WARNING: Using 'neigh_modify every 1 delay 0 check yes' setting during minimization (../min.cpp:190)
WARNING: Total cutoff < 2*bond cutoff. May need to use an increased neighbor list skin. (../pair_reaxc.cpp:413)
Setting up cg style minimization ...
  Unit style    : real
  Current step  : 615
WARNING: Energy due to 3 extra global DOFs will be included in minimizer energies
Per MPI rank memory allocation (min/avg/max) = 16.27 | 16.8 | 17.41 Mbytes
Step Temp E_pair E_mol TotEng Press Volume 
     615            0   -21949.863            0   -21949.863    2241.1978    5545.5955 
     625            0   -21949.932            0   -21949.932   -754.23513    5546.1866 
Loop time of 0.0829151 on 8 procs for 10 steps with 129 atoms

99.4% CPU use with 8 MPI tasks x no OpenMP threads

Minimization stats:
  Stopping criterion = energy tolerance
  Energy initial, next-to-last, final = 
        -21949.8631581     -21949.9322032     -21949.9324051
  Force two-norm initial, final = 399.38 143.668
  Force max component initial, final = 321.016 118.068
  Final line search alpha, max atom move = 2.44126e-08 2.88235e-06
  Iterations, force evaluations = 10 23

MPI task timing breakdown:
Section |  min time  |  avg time  |  max time  |%varavg| %total
---------------------------------------------------------------
Pair    | 0.058979   | 0.066197   | 0.071175   |   1.6 | 79.84
Neigh   | 0          | 0          | 0          |   0.0 |  0.00
Comm    | 0.00035395 | 0.0053237  | 0.012551   |   5.7 |  6.42
Output  | 4.3853e-05 | 4.9926e-05 | 6.7576e-05 |   0.0 |  0.06
Modify  | 0.01084    | 0.010848   | 0.010857   |   0.0 | 13.08
Other   |            | 0.0004961  |            |       |  0.60

Nlocal:    16.125 ave 42 max 0 min
Histogram: 2 2 0 1 1 0 0 0 1 1
Nghost:    475.75 ave 528 max 423 min
Histogram: 2 1 0 1 0 0 0 1 2 1
Neighs:    1112.75 ave 2687 max 0 min
Histogram: 2 1 1 1 0 1 0 0 1 1

Total # of neighbors = 8902
Ave neighs/atom = 69.0078
Neighbor list builds = 0
Dangerous builds = 0
WARNING: Using 'neigh_modify every 1 delay 0 check yes' setting during minimization (../min.cpp:190)
WARNING: Total cutoff < 2*bond cutoff. May need to use an increased neighbor list skin. (../pair_reaxc.cpp:413)
Setting up cg style minimization ...
  Unit style    : real
  Current step  : 625
Per MPI rank memory allocation (min/avg/max) = 16.27 | 16.8 | 17.41 Mbytes
Step Temp E_pair E_mol TotEng Press 
     625            0   -21949.932            0   -21949.932   -754.23513 
     631            0       -21950            0       -21950    967.43508 
Loop time of 0.196137 on 8 procs for 6 steps with 129 atoms

99.5% CPU use with 8 MPI tasks x no OpenMP threads

Minimization stats:
  Stopping criterion = energy tolerance
  Energy initial, next-to-last, final = 
        -21949.9324051     -21949.9999249        -21950.0001
  Force two-norm initial, final = 66.4361 36.3712
  Force max component initial, final = 9.73891 6.55599
  Final line search alpha, max atom move = 0.00959827 0.0629261
  Iterations, force evaluations = 6 51

MPI task timing breakdown:
Section |  min time  |  avg time  |  max time  |%varavg| %total
---------------------------------------------------------------
Pair    | 0.12824    | 0.14389    | 0.15496    |   2.4 | 73.36
Neigh   | 0          | 0          | 0          |   0.0 |  0.00
Comm    | 0.00078752 | 0.011851   | 0.027533   |   8.3 |  6.04
Output  | 4.3371e-05 | 5.0276e-05 | 7.2456e-05 |   0.0 |  0.03
Modify  | 0.039905   | 0.039915   | 0.039924   |   0.0 | 20.35
Other   |            | 0.0004335  |            |       |  0.22

Nlocal:    16.125 ave 42 max 0 min
Histogram: 2 2 0 1 1 0 0 0 1 1
Nghost:    475.75 ave 528 max 423 min
Histogram: 2 1 0 1 0 0 0 1 2 1
Neighs:    1112.5 ave 2686 max 0 min
Histogram: 2 1 1 1 0 1 0 0 1 1

Total # of neighbors = 8900
Ave neighs/atom = 68.9922
Neighbor list builds = 0
Dangerous builds = 0
WARNING: Using 'neigh_modify every 1 delay 0 check yes' setting during minimization (../min.cpp:190)
WARNING: Total cutoff < 2*bond cutoff. May need to use an increased neighbor list skin. (../pair_reaxc.cpp:413)
Setting up cg style minimization ...
  Unit style    : real
  Current step  : 631
WARNING: Energy due to 3 extra global DOFs will be included in minimizer energies
Per MPI rank memory allocation (min/avg/max) = 16.27 | 16.8 | 17.41 Mbytes
Step Temp E_pair E_mol TotEng Press Volume 
     631            0       -21950            0       -21950    967.43508    5546.1866 
     637            0   -21950.024            0   -21950.024   -1092.7122    5546.5869 
Loop time of 0.0556986 on 8 procs for 6 steps with 129 atoms

99.4% CPU use with 8 MPI tasks x no OpenMP threads

Minimization stats:
  Stopping criterion = energy tolerance
  Energy initial, next-to-last, final = 
           -21950.0001     -21950.0241845     -21950.0243814
  Force two-norm initial, final = 220.595 182.155
  Force max component initial, final = 172.026 147.272
  Final line search alpha, max atom move = 1.46105e-08 2.15172e-06
  Iterations, force evaluations = 6 15

MPI task timing breakdown:
Section |  min time  |  avg time  |  max time  |%varavg| %total
---------------------------------------------------------------
Pair    | 0.039572   | 0.044384   | 0.047774   |   1.3 | 79.69
Neigh   | 0          | 0          | 0          |   0.0 |  0.00
Comm    | 0.00023626 | 0.0036203  | 0.0084364  |   4.5 |  6.50
Output  | 0          | 0          | 0          |   0.0 |  0.00
Modify  | 0.0073428  | 0.0073483  | 0.0073538  |   0.0 | 13.19
Other   |            | 0.0003456  |            |       |  0.62

Nlocal:    16.125 ave 42 max 0 min
Histogram: 2 2 0 1 1 0 0 0 1 1
Nghost:    475.75 ave 528 max 423 min
Histogram: 2 1 0 1 0 0 0 1 2 1
Neighs:    1112.25 ave 2686 max 0 min
Histogram: 2 1 1 1 0 1 0 0 1 1

Total # of neighbors = 8898
Ave neighs/atom = 68.9767
Neighbor list builds = 0
Dangerous builds = 0
WARNING: Using 'neigh_modify every 1 delay 0 check yes' setting during minimization (../min.cpp:190)
WARNING: Total cutoff < 2*bond cutoff. May need to use an increased neighbor list skin. (../pair_reaxc.cpp:413)
Setting up cg style minimization ...
  Unit style    : real
  Current step  : 637
Per MPI rank memory allocation (min/avg/max) = 16.27 | 16.8 | 17.41 Mbytes
Step Temp E_pair E_mol TotEng Press 
     637            0   -21950.024            0   -21950.024   -1092.7122 
     681            0   -21950.426            0   -21950.426    2329.3047 
Loop time of 1.38264 on 8 procs for 44 steps with 129 atoms

99.4% CPU use with 8 MPI tasks x no OpenMP threads

Minimization stats:
  Stopping criterion = energy tolerance
  Energy initial, next-to-last, final = 
        -21950.0243814     -21950.4261823     -21950.4263758
  Force two-norm initial, final = 66.2395 47.0954
  Force max component initial, final = 11.0104 17.8383
  Final line search alpha, max atom move = 5.88491e-05 0.00104977
  Iterations, force evaluations = 44 366

MPI task timing breakdown:
Section |  min time  |  avg time  |  max time  |%varavg| %total
---------------------------------------------------------------
Pair    | 0.90458    | 1.0153     | 1.0938     |   6.3 | 73.43
Neigh   | 0          | 0          | 0          |   0.0 |  0.00
Comm    | 0.005748   | 0.084326   | 0.19533    |  22.0 |  6.10
Output  | 0.00021999 | 0.00025374 | 0.0003626  |   0.0 |  0.02
Modify  | 0.28013    | 0.28016    | 0.2802     |   0.0 | 20.26
Other   |            | 0.002612   |            |       |  0.19

Nlocal:    16.125 ave 42 max 0 min
Histogram: 2 2 0 1 1 0 0 0 1 1
Nghost:    475.75 ave 528 max 423 min
Histogram: 2 1 0 1 0 0 0 1 2 1
Neighs:    1112 ave 2685 max 0 min
Histogram: 2 1 1 1 0 1 0 0 1 1

Total # of neighbors = 8896
Ave neighs/atom = 68.9612
Neighbor list builds = 0
Dangerous builds = 0
WARNING: Total cutoff < 2*bond cutoff. May need to use an increased neighbor list skin. (../pair_reaxc.cpp:413)
Setting up Verlet run ...
  Unit style    : real
  Current step  : 0
  Time step     : 0.25
Per MPI rank memory allocation (min/avg/max) = 15.09 | 15.57 | 16.3 Mbytes
Step Temp TotEng KinEng PotEng Press 
       0          300   -21835.963    114.46311   -21950.426    3272.6541 
     200    208.98016   -21795.163    79.735059   -21874.898   -8556.2172 
     400    288.29022   -21734.814    109.99531   -21844.809    30404.096 
     600    325.88767   -21714.266    124.34038   -21838.607   -4135.7126 
     800    293.55361   -21736.974    112.00352   -21848.978   -7497.7583 
    1000    301.17684   -21719.227    114.91212   -21834.139    2041.3583 
    1200    304.71381   -21726.118    116.26163    -21842.38   -6121.3741 
    1400    283.05737   -21740.791    107.99875    -21848.79   -7760.2548 
    1600    313.06834   -21710.386    119.44925   -21829.835    7017.6757 
    1800    314.85615   -21714.538    120.13137   -21834.669   -24061.585 
    2000    311.42656   -21730.549    118.82284   -21849.372    3998.5872 
    2200    285.49575   -21745.303     108.9291   -21854.232    7881.4257 
    2400    286.60842   -21725.211    109.35363   -21834.565   -23304.359 
    2600    290.42188    -21720.73    110.80864   -21831.539    19535.592 
    2800    254.38183     -21748.6    97.057782   -21845.658   -4703.8021 
    3000    264.22889   -21728.146    100.81486   -21828.961    4315.6537 
    3200    311.53145   -21725.597    118.86286    -21844.46   -19294.862 
    3400    299.97731   -21748.238    114.45445   -21862.692    2923.0554 
    3600    283.16333   -21732.549    108.03918   -21840.588   -10098.842 
    3800    309.89395    -21721.94    118.23808   -21840.178   -2911.2729 
    4000    267.06625    -21738.84    101.89744   -21840.738    6071.3328 
    4200    287.36554   -21740.624    109.64251   -21850.267   -605.11745 
    4400    325.02814   -21724.964    124.01243   -21848.977    5891.5014 
    4600    256.08558   -21751.841    97.707835   -21849.549   -6297.3671 
    4800    282.67241   -21732.456    107.85187   -21840.308    2021.3423 
    5000    333.40603   -21722.613    127.20897   -21849.822    6988.3654 
    5200    264.53302   -21751.852     100.9309   -21852.783   -19041.906 
    5400    272.33597   -21735.681    103.90807   -21839.589     4114.674 
    5600    303.80115   -21724.077    115.91341    -21839.99     18703.95 
    5800    299.89014   -21735.474    114.42119   -21849.895    7277.3696 
    6000    305.35754   -21737.524    116.50724   -21854.031    15295.014 
    6200    329.09853   -21715.636    125.56547   -21841.202    2533.9542 
    6400    320.52552    -21722.46    122.29449   -21844.755    24537.451 
    6600    296.46795   -21724.509    113.11548   -21837.625   -28150.507 
    6800     314.6946   -21724.353    120.06974   -21844.423   -32242.987 
    7000    300.61455   -21750.743    114.69758    -21865.44   -13102.253 
    7200    305.54313    -21727.92    116.57805   -21844.498    8242.8842 
    7400    303.19414   -21731.531    115.68181   -21847.213    11154.509 
    7600    295.34271   -21744.224    112.68615    -21856.91   -8976.3001 
    7800     260.8151   -21766.825    99.512354   -21866.337    24989.647 
    8000    297.09176    -21739.37    113.35348   -21852.724   -8395.2484 
    8200    298.18025    -21734.82    113.76879   -21848.589    24356.517 
    8400    284.27567   -21741.284    108.46359   -21849.748   -3996.7547 
    8600    319.54081   -21724.324    121.91878   -21846.242    15538.347 
    8800    320.46377   -21746.555    122.27093   -21868.826     6085.549 
    9000    306.13496   -21750.389    116.80386   -21867.193   -27080.735 
    9200    295.50719   -21726.005     112.7489   -21838.754     -6827.02 
    9400    298.77812   -21733.087    113.99691   -21847.084   -34171.127 
    9600      305.507   -21759.487    116.56427   -21876.051   -1542.5905 
    9800    292.83141   -21744.419    111.72798   -21856.147   -6569.3097 
   10000    303.82667   -21736.957    115.92315    -21852.88   -5001.7485 
   10200    257.98883   -21753.621    98.434008   -21852.055   -8109.6698 
   10400    301.89866   -21724.308    115.18753   -21839.495    709.26849 
   10600    517.54005   -21796.038    197.46414   -21993.502    23965.821 
   10800    325.91893   -21934.058    124.35231    -22058.41    12186.187 
   11000    272.84003   -21974.074    104.10039   -22078.175    11014.542 
   11200    320.45235   -21964.209    122.26657   -22086.476    -9897.646 
   11400    302.50135   -21969.968    115.41748   -22085.386   -1523.9734 
   11600    282.82239   -21992.473     107.9091   -22100.382    7230.8763 
   11800    284.89022   -21990.605    108.69807   -22099.303    26512.651 
   12000    320.04871   -21980.293    122.11257   -22102.406   -17818.088 
   12200    277.60104   -21999.054    105.91692   -22104.971   -5163.4454 
   12400    327.57318   -21971.356    124.98348   -22096.339   -2250.3149 
   12600    278.75309   -21974.218    106.35648   -22080.575   -3969.5029 
   12800    271.45501    -21961.02    103.57195   -22064.591   -31630.567 
   13000    304.26357   -21937.465    116.08984   -22053.555    9684.2031 
   13200    295.29836   -21962.046    112.66923   -22074.716    -16968.23 
   13400    295.04154   -21963.325    112.57124   -22075.896    -11458.35 
   13600    305.36152   -21988.624    116.50876   -22105.133    4336.3678 
   13800    296.70733   -21989.035    113.20681   -22102.242   -22201.444 
   14000    365.60842   -21964.596    139.49559   -22104.092     16751.14 
   14200    300.25754   -21996.783    114.56137   -22111.345    6570.8419 
   14400    303.79771   -21977.226     115.9121   -22093.139    3096.3489 
   14600    285.79264   -21978.935    109.04238   -22087.977    13095.659 
   14800    258.71997   -21995.964    98.712969   -22094.677    19456.878 
   15000    290.77628   -21975.861    110.94385   -22086.805     12295.91 
   15200    305.67084   -21969.485    116.62678   -22086.111   -16525.396 
   15400    324.58707   -21948.651    123.84415   -22072.495    7786.6682 
   15600     283.6675   -21977.535    108.23154   -22085.767   -15063.347 
   15800    287.45337   -21965.548    109.67602   -22075.224    22363.527 
   16000    363.38868   -21936.963    138.64866   -22075.611   -2853.8639 
   16200    292.67372   -21977.869    111.66781   -22089.537    11038.134 
   16400    310.63786    -21973.56    118.52191   -22092.082   -10893.379 
   16600    326.06359    -21965.51     124.4075   -22089.918   -2061.3839 
   16800    303.85014    -21981.45     115.9321   -22097.382    14329.893 
   17000    297.66626   -21976.519    113.57268   -22090.091   -30429.288 
   17200    285.16897   -21993.818    108.80442   -22102.622   -6241.0542 
   17400    329.55888   -21977.062    125.74111   -22102.803    2845.9727 
   17600    321.10325   -21979.016    122.51492   -22101.531    4830.7512 
   17800    291.62113   -21983.645     111.2662   -22094.911   -7573.7461 
   18000    272.40161   -21970.668    103.93311   -22074.602    12505.405 
   18200    329.49673   -21954.051     125.7174   -22079.768   -8075.4917 
   18400    274.25907   -21988.646    104.64182   -22093.288     1154.156 
   18600    302.44591    -21966.13    115.39633   -22081.526   -19376.249 
   18800    304.45202   -21978.143    116.16175   -22094.304    299.84131 
   19000    304.20339    -21990.18    116.06688   -22106.247   -9289.1809 
   19200    321.50495   -21972.219    122.66818   -22094.887   -955.29997 
   19400    305.49489   -21978.167    116.55965   -22094.727    7835.0717 
   19600    296.15311   -21988.007    112.99535   -22101.002   -17524.146 
   19800    329.63988   -21960.414    125.77201   -22086.186   -10959.556 
   20000    298.92299   -21975.122    114.05218   -22089.174    1576.5176 
   20200    276.26056   -21983.264    105.40547   -22088.669   -3974.2914 
   20400    295.74958   -21958.966    112.84138   -22071.807   -8628.7013 
   20600    272.98287   -21982.393    104.15489   -22086.548    19803.672 
   20800    281.42856   -21971.679    107.37729   -22079.057    695.48686 
   21000    286.45999    -21961.57      109.297   -22070.867    24369.159 
   21200    293.20566   -21980.219    111.87077    -22092.09    7566.5904 
   21400    312.63663   -21978.095    119.28453    -22097.38    16643.622 
   21600    294.76451   -21994.215    112.46554    -22106.68    -14162.01 
   21800    272.74116   -21997.081    104.06267   -22101.143   -3005.8206 
   22000    316.45732    -21975.21    120.74229   -22095.953    6596.0743 
   22200    306.46826   -21983.435    116.93103   -22100.366   -9742.8795 
   22400    295.32904   -21997.926    112.68093   -22110.607   -17153.283 
   22600    308.63596   -21967.671     117.7581   -22085.429    2385.2345 
   22800    299.58991   -21976.752    114.30664   -22091.059    8451.5596 
   23000    276.01504   -21974.273     105.3118   -22079.585    16476.509 
   23200    305.64495   -21954.506     116.6169   -22071.122   -18727.592 
   23400     261.7157   -21985.125    99.855973   -22084.981   -7514.9318 
   23600    317.08892   -21982.444    120.98328   -22103.428   -26726.337 
   23800    321.35121   -21961.806    122.60952   -22084.416    774.06004 
   24000    307.41811   -21978.802    117.29344   -22096.096   -11399.473 
   24200    292.28514   -21988.611    111.51955    -22100.13   -9347.3104 
   24400    331.46937   -21968.892    126.47005   -22095.362    6107.3489 
   24600    257.33916   -21994.828    98.186132   -22093.014   -6187.3402 
   24800    282.23922   -21973.737    107.68659   -22081.424   -17873.486 
   25000    279.75146   -21977.646     106.7374   -22084.383    2674.1721 
   25200    255.33251   -22002.902    97.420506   -22100.323    24805.039 
   25400    298.07863   -21972.075    113.73002   -22085.805   -12265.758 
   25600    328.42921   -21964.577    125.31009   -22089.887    10892.421 
   25800    265.38032   -21980.312    101.25418   -22081.567   -20882.357 
   26000    289.92306   -21981.432    110.61831    -22092.05    21333.973 
   26200    325.15682   -21960.687    124.06153   -22084.748   -6687.0318 
   26400    304.04961   -21993.451    116.00821    -22109.46    7225.1946 
   26600    273.83857   -21981.604    104.48138   -22086.086     -11793.7 
   26800    316.51136    -21961.42    120.76291   -22082.183    -3299.496 
   27000     254.4994   -21996.231     97.10264   -22093.334    -7950.806 
   27200    265.45995   -21968.937    101.28457   -22070.222    7548.9064 
   27400    300.01858     -21963.5     114.4702    -22077.97   -16514.175 
   27600    278.41356   -21990.511    106.22694   -22096.738   -3538.0003 
   27800    293.75615   -21976.456     112.0808   -22088.537    16093.716 
   28000    287.56211   -21973.419    109.71751   -22083.136   -15395.096 
   28200    260.28554   -21987.918    99.310304   -22087.228   -10881.063 
   28400    341.03077   -21960.717    130.11814   -22090.836    12107.412 
   28600    323.33258   -21983.974     123.3655    -22107.34    8307.3883 
   28800    309.87455     -21987.3    118.23068    -22105.53    6402.4083 
   29000    280.96093   -21976.344    107.19887   -22083.542   -20281.782 
   29200    298.77734   -21965.186    113.99661   -22079.182    13948.427 
   29400    269.76815   -21988.415    102.92834   -22091.344   -6263.8927 
   29600    277.21834   -21970.053    105.77091   -22075.823    10484.599 
   29800     313.3494   -21958.884    119.55649   -22078.441   -17083.676 
   30000    300.27535   -21983.368    114.56816   -22097.936   -3342.5986 
   30200    287.48067   -21988.497    109.68644   -22098.183    4796.7389 
   30400    316.22989   -21971.611    120.65552   -22092.267    9744.0886 
   30600    266.89184   -21992.408     101.8309   -22094.239    17440.235 
   30800    314.08849   -21971.976    119.83848   -22091.814    11421.501 
   31000    314.39137   -21962.128    119.95404   -22082.082    3682.1486 
   31200    290.21877   -21977.895    110.73114   -22088.626    -12810.18 
   31400    269.33078   -21997.241    102.76146   -22100.002     21526.21 
   31600    342.66775   -21966.386    130.74272   -22097.129    18639.445 
   31800    289.19759    -21988.15    110.34151   -22098.491   -8962.9346 
   32000    277.66976   -21984.846    105.94314   -22090.789    40580.994 
   32200     277.4457   -21964.168    105.85765   -22070.025   -12148.611 
   32400    313.60163   -21957.792    119.65272   -22077.444    8972.2418 
   32600    284.77272   -21989.302    108.65323   -22097.955    17011.231 
   32800    322.83652   -21981.328    123.17623   -22104.504    9173.0008 
   33000    296.23896   -21980.035     113.0281   -22093.063   -11117.791 
   33200    297.30772    -21976.45    113.43588   -22089.886   -13456.194 
   33400    321.05166   -21955.235    122.49523   -22077.731    7365.9839 
   33600    301.30633   -21981.109    114.96153   -22096.071   -11588.863 
   33800    305.46003    -21988.09    116.54635   -22104.636    18566.986 
   34000     280.2808   -21991.415    106.93937   -22098.354     -29308.6 
   34200    317.83859   -21972.901    121.26931    -22094.17   -19691.602 
   34400    267.27038   -21979.562    101.97533   -22081.537    8398.0652 
   34600    261.21197   -21979.807    99.663779    -22079.47   -9961.3816 
   34800    295.70538   -21957.264    112.82452   -22070.088   -8267.7375 
   35000    320.77695   -21960.862    122.39042   -22083.253   -4972.6303 
   35200    285.17441   -21983.737     108.8065   -22092.544    16068.542 
   35400    336.85118   -21965.861    128.52344   -22094.384    1354.2236 
   35600    327.09284   -21974.352    124.80021   -22099.152     3764.945 
   35800    282.02966   -21982.316    107.60663   -22089.923    4897.8693 
   36000    332.83257   -21948.104    126.99017   -22075.095   -14822.869 
   36200    299.61443   -21969.688    114.31599   -22084.004   -1736.7761 
   36400    299.16762   -21972.003    114.14552   -22086.148   -12544.335 
   36600    289.23724   -22001.136    110.35664   -22111.492    1463.7752 
   36800    295.63865   -21988.961    112.79906    -22101.76    19916.787 
   37000    299.09522   -21984.833    114.11789   -22098.951   -15201.808 
   37200    295.48381   -21971.005    112.73998   -22083.744    885.72469 
   37400    294.13458   -21954.279    112.22519   -22066.505   -15084.897 
   37600    288.45513    -21976.53    110.05823   -22086.589    22430.262 
   37800     353.7129   -21953.527    134.95692   -22088.484    12952.825 
   38000    339.51074   -21958.996    129.53818   -22088.534   -55.792203 
   38200    270.79436   -21989.082    103.31988   -22092.402    10635.637 
   38400     293.1985   -21976.081    111.86804   -22087.949   -3423.6917 
   38600     299.6758   -21962.876    114.33941   -22077.215   -23016.948 
   38800    293.18092   -21971.449    111.86133    -22083.31    5758.0065 
   39000    271.33374   -21979.686    103.52567   -22083.211    1664.4845 
   39200    288.16174   -21991.066    109.94629   -22101.013   -3448.1837 
   39400    309.43874   -21967.923     118.0644   -22085.988   -4717.0959 
   39600    289.78512   -21985.286    110.56568   -22095.852   -2810.4837 
   39800    240.81037   -21982.454    91.879675   -22074.334    -3021.316 
   40000    275.39168   -21959.918    105.07396   -22064.992     9760.291 
   40200    314.84522   -21963.062    120.12721   -22083.189   -6676.1332 
   40400     292.8193   -21984.117    111.72336   -22095.841   -14993.207 
   40600    310.34972   -21960.573    118.41198   -22078.985   -20949.654 
   40800    300.48331   -21973.328    114.64751   -22087.976   -12543.793 
   41000    279.05258   -21983.951    106.47075   -22090.422      5767.41 
   41200    306.05034   -21964.315    116.77157   -22081.087    -10100.21 
   41400     293.3972   -21990.669    111.94385   -22102.613   -5915.7276 
   41600    291.38245   -21986.773    111.17514   -22097.948    6182.4389 
   41800    317.94279   -21971.235    121.30907   -22092.544   -7690.1041 
   42000    301.80608   -21973.555     115.1522   -22088.707   -690.38513 
   42200    294.25756   -21970.386    112.27211   -22082.658    8094.1398 
   42400    316.54901   -21954.044    120.77728   -22074.821    27794.557 
   42600    303.56788   -21963.936    115.82441   -22079.761   -473.65711 
   42800    274.91076   -21981.591    104.89046   -22086.481    -21702.66 
   43000    337.61603   -21958.143    128.81526   -22086.958    4429.9886 
   43200    333.72189   -21970.007    127.32948   -22097.336    21370.659 
   43400    303.26033   -21991.154    115.70707   -22106.861    22065.852 
   43600    305.79719    -21966.66    116.67499   -22083.335   -7396.6655 
   43800    277.51075   -21970.233    105.88247   -22076.115    4478.9764 
   44000    307.04774   -21975.478    117.15212    -22092.63    11450.349 
   44200    295.58994   -21975.294    112.78048   -22088.075    15419.853 
   44400    322.44056   -21968.364    123.02516   -22091.389   -79.681037 
   44600    286.53456   -21969.095    109.32545    -22078.42    3305.3874 
   44800    307.13375   -21959.588    117.18494   -22076.773     1376.106 
   45000    301.06798    -21959.35    114.87059    -22074.22    13702.655 
   45200    295.91739   -21984.767    112.90541   -22097.672    998.86266 
   45400    344.80652   -21965.403    131.55875   -22096.962   -7757.0702 
   45600    313.80297   -21969.043    119.72954   -22088.772    3459.4874 
   45800    292.26164   -21986.799    111.51059    -22098.31    2311.1417 
   46000    290.61588   -21971.081    110.88265   -22081.963   -3325.0252 
   46200    320.99082   -21968.634    122.47202   -22091.106    7807.2879 
   46400    286.95232   -21989.573    109.48485   -22099.058   -6551.4703 
   46600    321.47712   -21974.496    122.65757   -22097.154    622.28297 
   46800    325.31862   -21967.974    124.12326   -22092.097     22455.02 
   47000    275.86076   -21985.793    105.25293   -22091.046   -11612.684 
   47200    306.89386   -21958.916    117.09341    -22076.01   -15992.557 
   47400    307.59964   -21960.131     117.3627   -22077.493   -23240.412 
   47600    266.84076   -21985.055    101.81141   -22086.867    -5568.049 
   47800    311.30363   -21963.281    118.77593   -22082.057   -35598.338 
   48000    311.41424   -21965.896    118.81814   -22084.714   -71.014059 
   48200    281.62226   -21988.127    107.45119   -22095.579    8413.5229 
   48400    261.03201   -22009.439    99.595117   -22109.034   -7755.7053 
   48600    310.93613   -21975.115    118.63572   -22093.751    5399.0431 
   48800    295.85054   -21995.079    112.87991   -22107.958    17626.579 
   49000    258.10793   -21993.797     98.47945   -22092.277   -3829.2076 
   49200    304.89084    -21972.39    116.32917   -22088.719    145.68755 
   49400    271.04566   -21977.875    103.41576   -22081.291   -13362.532 
   49600    330.50553   -21950.889     126.1023   -22076.991    4429.2323 
   49800    327.95853   -21969.662    125.13051   -22094.792   -11266.527 
   50000    312.86729    -21976.44    119.37254   -22095.813    5725.5852 
   50200    279.28214   -21978.866    106.55834   -22085.425   -20648.243 
   50400    280.48362   -21981.004    107.01675   -22088.021   -5583.5266 
   50600     320.6024   -21964.243    122.32382   -22086.567   -35245.417 
   50800    305.97094   -21972.849    116.74128    -22089.59   -33674.251 
   51000     276.2063   -21987.053    105.38477   -22092.437     14035.41 
   51200    297.96201   -21964.285    113.68552    -22077.97    8354.0345 
   51400    313.90438   -21974.794    119.76823   -22094.562    -1417.978 
   51600    293.79594   -21972.383    112.09598   -22084.479   -547.71073 
   51800     322.9154   -21958.505    123.20633   -22081.712   -15375.592 
   52000    296.35225   -21981.099    113.07133    -22094.17   -4040.0803 
   52200    300.51571   -21951.713    114.65987   -22066.373   -12640.619 
   52400    274.27257   -21962.857    104.64697   -22067.504   -3513.7298 
   52600    288.27889    -21979.04    109.99099   -22089.031   -1590.6682 
   52800    307.89943   -21974.009    117.47708   -22091.486   -17408.819 
   53000    279.25333   -21993.188    106.54735   -22099.735   -24158.425 
   53200    322.42685   -21988.884    123.01993   -22111.904    23377.157 
   53400    320.90968   -21976.467    122.44106   -22098.908   -10198.287 
   53600    266.64397   -22004.886    101.73632   -22106.622    -21358.04 
   53800    299.80332   -21992.023    114.38806   -22106.411   -3558.0071 
   54000    316.22215   -21971.861    120.65257   -22092.514   -1957.8402 
   54200    261.46623   -21997.739    99.760788   -22097.499    4709.5097 
   54400    288.32858    -21990.26    110.00995    -22100.27    5647.6207 
   54600    313.51559   -21969.371    119.61989   -22088.991   -24733.237 
   54800    300.46927   -21960.415    114.64215   -22075.057   -9818.9466 
   55000    302.78331   -21949.816    115.52506   -22065.341    -9683.282 
   55200    283.50842   -21978.308    108.17085   -22086.479   -5591.0274 
   55400    321.82608   -21963.203    122.79071   -22085.994   -6104.7104 
   55600     323.7116   -21943.027    123.51012   -22066.537   -17938.824 
   55800    290.26639   -21971.572    110.74931   -22082.321    24645.506 
   56000    299.20876   -21971.093    114.16121   -22085.255   -6017.7989 
   56200    346.39858   -21945.301    132.16619   -22077.467    4743.9116 
   56400    267.88993   -21976.299    102.21171    -22078.51   -3795.9434 
   56600    265.32017   -21965.069    101.23124   -22066.301    9472.8776 
   56800    319.24986     -21944.8    121.80777   -22066.607   -11032.723 
   57000    285.89662   -21976.453    109.08205   -22085.535    5871.8552 
   57200    275.74027   -21967.546    105.20696   -22072.753    10299.122 
   57400    348.25678   -21951.535    132.87518   -22084.411    4114.8931 
   57600    321.59069   -21984.565     122.7009   -22107.266    11659.529 
   57800    275.45138    -21991.16    105.09674   -22096.257   -7201.0584 
   58000    335.26765   -21974.776    127.91925   -22102.695   -16228.016 
   58200    321.42139   -21977.522     122.6363   -22100.158    7505.4115 
   58400    314.09733   -21990.962    119.84186   -22110.804    1685.0584 
   58600    323.12298   -21972.876    123.28553   -22096.161    4404.3559 
   58800    296.87461   -21975.001    113.27063   -22088.272    12090.219 
   59000    275.74698   -21987.411    105.20952   -22092.621   -393.89781 
   59200    279.97311   -21973.404    106.82197   -22080.226    5618.9054 
   59400    312.21797   -21967.569    119.12479   -22086.694   -11703.456 
   59600    272.54914   -21996.471     103.9894   -22100.461   -12788.188 
   59800     295.4038   -21978.721    112.70946    -22091.43    21061.568 
   60000    292.90165   -21967.856    111.75477   -22079.611    6801.5954 
   60200     275.9608   -21974.808     105.2911   -22080.099    -9748.372 
   60400    273.88462   -21983.162    104.49895   -22087.661   -528.92521 
   60600    306.43086   -21955.962    116.91676   -22072.879    13714.746 
   60800    300.43584   -21973.593     114.6294   -22088.222    11716.378 
   61000    263.34488   -22003.478    100.47758   -22103.955    21426.544 
   61200    276.88995   -21983.201    105.64561   -22088.847   -10613.531 
   61400    294.23455   -21966.646    112.26333    -22078.91     3695.423 
   61600    303.84015   -21976.887    115.92829   -22092.816    23056.893 
   61800    276.95088   -21989.703    105.66886   -22095.372   -22509.736 
   62000    293.96888   -21970.899    112.16197   -22083.061     2603.112 
   62200    295.22459   -21983.178    112.64108   -22095.819    22798.652 
   62400    270.94053    -22006.88    103.37565   -22110.256    12636.992 
   62600    296.65999    -21993.66    113.18875   -22106.848    -6727.356 
   62800    299.25814   -21977.539    114.18005   -22091.719    4725.5933 
   63000    294.43322   -21972.567    112.33914   -22084.907    23656.642 
   63200    324.26345    -21977.15    123.72067   -22100.871   -6776.0623 
   63400    291.98435   -21989.007    111.40479   -22100.411    13229.325 
   63600    299.76856   -21959.259     114.3748   -22073.634   -10142.965 
   63800    304.88652   -21973.921    116.32753   -22090.248   -4519.3475 
   64000    311.92109   -21979.577    119.01152   -22098.589   -523.95213 
   64200    329.67549   -21957.388     125.7856   -22083.174    32705.136 
   64400    272.76752   -21986.434    104.07273   -22090.507   -8402.5951 
   64600    331.05169   -21970.126    126.31068   -22096.437   -7257.2378 
   64800    296.54777   -21956.979    113.14593   -22070.125   -6925.5292 
   65000    295.73474   -21970.998    112.83572   -22083.833   -8677.9497 
   65200    278.03221   -21984.841    106.08143   -22090.923    -17008.82 
   65400    297.26605   -21979.344    113.41999   -22092.764    6769.4509 
   65600    333.79189   -21964.218    127.35619   -22091.574   -11446.974 
   65800    287.95403   -21993.641    109.86704   -22103.508    -607.2573 
   66000    286.01311   -21988.909     109.1265   -22098.035     29444.78 
   66200    314.86903   -21965.825    120.13629   -22085.962   -2204.7467 
   66400    273.17027   -21994.044    104.22639   -22098.271   -14282.312 
   66600      267.782    -21980.88    102.17053   -22083.051   -192.77017 
   66800    295.43304   -21964.141    112.72061   -22076.862   -13615.691 
   67000    349.15504    -21949.21     133.2179   -22082.428   -5166.0225 
   67200    308.13252   -21945.247    117.56602   -22062.813    22152.611 
   67400    277.68555   -21968.489    105.94917   -22074.439   -16851.202 
   67600    309.76551   -21959.731    118.18907    -22077.92   -14493.362 
   67800      282.552   -21950.249    107.80593   -22058.054    8413.9442 
   68000    523.49414   -22027.058    199.73588   -22226.794   -2632.9443 
   68200    406.30327   -22205.092    155.02245   -22360.115    10586.518 
   68400    252.43753   -22289.245    96.315946   -22385.561   -14304.702 
   68600    276.82363   -22284.442    105.62031   -22390.062    15022.161 
   68800    306.24132   -22255.905    116.84444    -22372.75   -22272.927 
   69000     284.5211   -22274.805    108.55723   -22383.363     14768.44 
   69200    286.65857   -22286.571    109.37277   -22395.943   -7106.2019 
   69400    318.63585   -22266.305     121.5735   -22387.878    1435.2221 
   69600    326.29121   -22270.147    124.49435   -22394.641    8491.8285 
   69800     286.1573   -22282.738    109.18151   -22391.919    20144.767 
   70000    337.47702   -22262.042    128.76223   -22390.804    15441.611 
   70200    285.30153   -22282.949      108.855   -22391.804    11896.111 
   70400     293.5067   -22286.117    111.98563   -22398.103   -8260.6977 
   70600    317.34117   -22256.477    121.07952   -22377.556    1965.1634 
   70800    327.25094   -22276.804    124.86053   -22401.664   -2793.6948 
   71000     273.5166   -22289.175    104.35853   -22393.534   -4022.8144 
   71200    320.96771   -22266.394     122.4632   -22388.857    16444.094 
   71400    279.26708   -22283.315    106.55259   -22389.868    16519.625 
   71600    321.82117   -22280.249    122.78883   -22403.038   -14656.718 
   71800    256.94319   -22277.034    98.035051   -22375.069    12262.383 
   72000    343.94486   -22256.596    131.22999   -22387.826   -14917.621 
   72200    275.50853   -22282.855    105.11854   -22387.974      11227.2 
   72400    310.09422   -22275.256    118.31449   -22393.571    16857.671 
   72600    325.14545   -22253.647    124.05719   -22377.704   -4211.8358 
   72800    299.92636   -22276.055    114.43501    -22390.49    6305.4374 
   73000    303.37457   -22278.904    115.75065   -22394.654    -13849.01 
   73200    310.14347   -22260.732    118.33328   -22379.065   -9624.4838 
   73400     301.9972   -22285.212    115.22513   -22400.437    11646.197 
   73600    297.08906   -22273.436    113.35246   -22386.788    12167.512 
   73800    323.56754   -22256.987    123.45515   -22380.442    12943.439 
   74000    311.15709    -22277.89    118.72002    -22396.61    13931.147 
   74200    309.59954   -22275.207    118.12575   -22393.333   -20962.659 
   74400    311.94349   -22249.292    119.02007   -22368.312   -12016.695 
   74600    321.46607   -22272.884    122.65335   -22395.537   -31695.109 
   74800     293.1354   -22281.765    111.84396   -22393.609   -15943.794 
   75000    320.81124   -22272.951     122.4035   -22395.355   -14893.628 
   75200    292.14005   -22287.581    111.46419   -22399.045   -27262.138 
   75400    279.22149   -22288.933     106.5352   -22395.468    24080.431 
   75600    321.76319   -22266.636    122.76671   -22389.403   -4066.9914 
   75800    327.58537   -22284.839    124.98813   -22409.828   -1965.3056 
   76000    279.75429   -22302.653    106.73848   -22409.392   -22518.193 
   76200    277.61762   -22268.547    105.92325   -22374.471   -1429.4435 
   76400      296.079   -22285.296    112.96707   -22398.263    11421.195 
   76600    318.23636   -22287.022    121.42107   -22408.443     10762.21 
   76800    313.29589   -22277.062    119.53607   -22396.598   -3901.0239 
   77000    288.79498   -22281.985     110.1879   -22392.173    16699.867 
   77200    323.88865   -22258.395    123.57767   -22381.973   -23967.189 
   77400    284.14967   -22279.552    108.41551   -22387.968    1058.7669 
   77600    272.93875   -22282.664    104.13806   -22386.802     3630.543 
   77800    335.01249   -22252.473     127.8219   -22380.295   -12034.331 
   78000    338.92775   -22282.487    129.31574   -22411.803    155.11559 
   78200    333.48215   -22276.011    127.23801   -22403.249   -2595.0152 
   78400    295.88737   -22266.156    112.89396    -22379.05    59.418907 
   78600    281.93886   -22293.259    107.57199   -22400.831    3622.4646 
   78800    306.27746   -22283.955    116.85823   -22400.813   -9366.7507 
   79000    322.92889   -22266.694    123.21148   -22389.905    6511.6528 
   79200    300.26534   -22271.586    114.56435   -22386.151   -5102.7553 
   79400    252.66588   -22292.601    96.403073   -22389.004    25571.605 
   79600    302.12239    -22267.46    115.27289   -22382.733    4652.4892 
   79800    289.64727   -22281.216    110.51309    -22391.73    -10605.81 
   80000    307.45567   -22279.045    117.30777   -22396.353    8680.8625 
   80200    352.37057   -22259.258    134.44477   -22393.703    14723.701 
   80400    311.99396   -22283.805    119.03932   -22402.844   -4355.9667 
   80600    297.84584   -22284.288     113.6412   -22397.929   -11974.209 
   80800    323.30929   -22270.703    123.35662    -22394.06    20901.465 
   81000    267.44525   -22280.342    102.04205   -22382.384   -9602.3072 
   81200    264.71166   -22304.122    100.99906   -22405.121    6917.4668 
   81400     327.9973   -22273.363     125.1453   -22398.509    6684.1533 
   81600    324.14675   -22274.431    123.67615   -22398.107   -6139.2249 
   81800    276.55553   -22290.152    105.51802    -22395.67    -8672.008 
   82000    324.30401    -22258.52    123.73615   -22382.256     -28277.6 
   82200    291.30503   -22279.766     111.1456   -22390.912   -11940.175 
   82400    298.53303   -22283.479    113.90339   -22397.382    15773.245 
   82600    325.19425    -22256.22    124.07581   -22380.296    10575.444 
   82800    283.37699   -22280.381     108.1207   -22388.502    11506.448 
   83000    272.93709   -22280.073    104.13742    -22384.21     13297.07 
   83200    314.83795    -22267.22    120.12443   -22387.344   -14350.372 
   83400    297.45025   -22276.343    113.49026   -22389.833    859.77091 
   83600    294.34934   -22282.067    112.30713   -22394.374   -2418.3879 
   83800    259.46005     -22299.4    98.995343   -22398.396    15573.931 
   84000    309.65518   -22275.256    118.14698   -22393.403    6174.5847 
   84200    317.57416    -22270.48    121.16841   -22391.648    11762.221 
   84400    292.35836   -22298.156    111.54749   -22409.703    22126.189 
   84600     300.5176   -22280.686    114.66059   -22395.346   -6711.6686 
   84800     292.3744   -22276.692    111.55361   -22388.245    5978.1163 
   85000    292.81509   -22280.944    111.72175   -22392.666    6196.0796 
   85200     313.1193   -22280.181    119.46869   -22399.649   -17978.492 
   85400    280.05481   -22289.175    106.85315   -22396.028   -22823.137 
   85600    266.55007    -22300.61     101.7005    -22402.31    1876.9887 
   85800    313.76384   -22270.611    119.71461   -22390.326   -8061.8613 
   86000    261.65866   -22288.051     99.83421   -22387.886    36563.354 
   86200    297.16927   -22284.762    113.38306   -22398.145    4998.3574 
   86400    305.87437    -22265.74    116.70444   -22382.444    3804.4132 
   86600     239.4657   -22290.237    91.366627   -22381.604    -10275.96 
   86800     305.2288   -22281.469    116.45812   -22397.927   -23875.342 
   87000    325.47662   -22273.493    124.18355   -22397.677    5062.0875 
   87200    349.66597   -22250.763    133.41284   -22384.176    3560.4558 
   87400    277.84577   -22273.207     106.0103   -22379.217    7986.7773 
   87600     278.8288   -22280.729    106.38537   -22387.114    7046.8661 
   87800    331.56822   -22250.416    126.50776   -22376.924     2283.038 
   88000    317.03981   -22270.735    120.96454   -22391.699   -8472.1343 
   88200    317.07362   -22272.915    120.97744   -22393.892   -4166.0531 
   88400    342.29928   -22261.616    130.60213   -22392.218    -393.8416 
   88600    301.06504   -22279.006    114.86947   -22393.876    17361.167 
   88800    288.28155   -22285.071    109.99201   -22395.063    20879.672 
   89000    323.17231   -22252.288    123.30436   -22375.592    -14667.03 
   89200    290.39635   -22271.586    110.79889   -22382.385    7967.1313 
   89400    262.39222     -22283.4    100.11409   -22383.514   -2844.5811 
   89600    338.07322   -22250.825     128.9897   -22379.815   -16102.188 
   89800    309.43711   -22269.518    118.06377   -22387.582    14120.107 
   90000    280.58621   -22284.444     107.0559     -22391.5   -14677.872 
   90200    278.68121   -22298.613    106.32906   -22404.942    11085.976 
   90400    296.34735   -22277.901    113.06946   -22390.971    598.46497 
   90600    337.18819   -22272.585    128.65203   -22401.237    18099.938 
   90800     283.9815   -22297.366    108.35135   -22405.718    5438.1101 
   91000    311.90054   -22269.334    119.00368   -22388.338    14807.991 
   91200    325.90179   -22253.855    124.34577   -22378.201    1520.9855 
   91400    292.01438   -22287.526    111.41624   -22398.943   -6532.8951 
   91600    281.73633   -22275.528    107.49472   -22383.022   -12366.327 
   91800    320.71472   -22270.352    122.36668   -22392.718   -3078.2383 
   92000    298.38061   -22289.088    113.84524   -22402.933    7954.6533 
   92200    312.59014   -22266.784    119.26679    -22386.05    14761.529 
   92400    275.56537     -22274.5    105.14023    -22379.64    5716.7838 
   92600    260.37373   -22289.356    99.343954     -22388.7    10486.183 
   92800    320.33835   -22275.528    122.22307   -22397.751    19567.254 
   93000    298.01015   -22268.456    113.70389    -22382.16    15720.772 
   93200    273.52977   -22297.361    104.36356   -22401.724    21771.648 
   93400    288.66308   -22277.482    110.13757   -22387.619    25199.919 
   93600    302.40879   -22272.809    115.38216   -22388.191     9412.709 
   93800    291.12855   -22282.852    111.07826    -22393.93     20065.07 
   94000    265.77758   -22289.043    101.40576   -22390.449    -11712.44 
   94200    298.05779   -22264.186    113.72207   -22377.908   -2693.6742 
   94400    253.74582   -22289.593    96.815117   -22386.408   -23985.719 
   94600    284.91188   -22286.948    108.70633   -22395.655    1844.2626 
   94800    312.91441   -22272.931    119.39052   -22392.322   -1821.9393 
   95000    274.35385   -22299.762    104.67798    -22404.44   -23256.527 
   95200     275.4388   -22288.692    105.09194   -22393.784    11656.468 
   95400    317.74428   -22272.746    121.23333    -22393.98    7378.1556 
   95600    246.16105   -22288.033    93.921193   -22381.954   -7982.5309 
   95800    296.32412   -22296.967     113.0606   -22410.028    2039.0631 
   96000    286.26143   -22276.983    109.22124   -22386.204    15554.604 
   96200    311.06287   -22279.568    118.68407   -22398.252   -3436.9733 
   96400    280.76233    -22301.99    107.12309   -22409.113    6352.8409 
   96600    290.41792   -22271.238    110.80712   -22382.045   -11213.356 
   96800     281.0748   -22272.822    107.24232   -22380.064    9326.0526 
   97000    283.32044   -22298.236    108.09913   -22406.335   -518.48956 
   97200    339.17738   -22265.048    129.41099   -22394.459    27889.936 
   97400    266.21293   -22282.841    101.57186   -22384.412    390.74753 
   97600    291.19568   -22266.248    111.10387   -22377.352    48165.505 
   97800    300.49631   -22260.987    114.65247    -22375.64   -11142.258 
   98000     310.9497   -22274.278    118.64089   -22392.918    5116.2837 
   98200    313.16608   -22278.381    119.48654   -22397.867   -13855.952 
   98400    279.55826   -22285.996    106.66369    -22392.66    24415.764 
   98600    339.69608   -22266.603     129.6089   -22396.212   -23975.917 
   98800    296.94068   -22290.482    113.29584   -22403.778   -1054.1344 
   99000    272.79456   -22288.082    104.08304   -22392.165   -2601.3886 
   99200    312.68826    -22263.13    119.30423   -22382.434   -27131.788 
   99400    315.30112   -22287.949    120.30115   -22408.251    3769.7978 
   99600     285.2953   -22286.181    108.85262   -22395.033    9403.8772 
   99800     336.8967   -22263.368    128.54081   -22391.909    13597.081 
  100000    283.84582   -22285.207    108.29958   -22393.507    21949.929 
  100200     287.6731   -22279.376    109.75985   -22389.136   -14142.218 
  100400    336.44745   -22250.035     128.3694   -22378.405   -21602.813 
  100600    310.23636   -22272.376    118.36872   -22390.744    10274.381 
  100800    297.08139   -22293.686    113.34953   -22407.036   -10677.332 
  101000    327.60448   -22271.757    124.99542   -22396.752    11273.773 
  101200    330.94567   -22273.754    126.27023   -22400.024    8051.3337 
  101400    309.13129    -22289.26    117.94709   -22407.207    16853.746 
  101600    342.07408    -22262.54    130.51621   -22393.056     6642.245 
  101800    299.92034   -22279.277    114.43271    -22393.71    13323.797 
  102000     308.9684   -22285.446    117.88494   -22403.331   -17823.463 
  102200    321.58026   -22254.335    122.69692   -22377.032   -13654.509 
  102400    322.24566   -22274.458     122.9508   -22397.409   -34103.832 
  102600    270.27548   -22284.867     103.1219   -22387.989   -16520.089 
  102800    308.25032   -22253.686    117.61096   -22371.297    15116.081 
  103000    306.60741   -22266.165    116.98412   -22383.149    12168.754 
  103200    295.97697   -22279.979    112.92814   -22392.908   -3152.2722 
  103400    310.71729   -22270.713    118.55222   -22389.265    12729.424 
  103600    320.50824   -22262.229    122.28789   -22384.517    14090.901 
  103800    280.81443   -22288.917    107.14297    -22396.06    3962.2327 
  104000    321.92399   -22272.428    122.82807   -22395.257    -1308.485 
  104200    310.29734   -22261.582    118.39199   -22379.974   -1737.9848 
  104400    267.00158    -22292.12    101.87277   -22393.993    22696.764 
  104600    325.65568   -22271.888    124.25187    -22396.14    38838.874 
  104800    305.56962   -22280.945    116.58816   -22397.533   -1534.3566 
  105000    278.57316   -22292.762    106.28783    -22399.05   -24004.751 
  105200    348.74464   -22272.594    133.06131   -22405.655   -3481.2571 
  105400    295.37114   -22285.122    112.69699   -22397.819    15948.284 
  105600    287.42546   -22305.565    109.66537   -22415.231   -568.10483 
  105800    317.05429     -22279.6    120.97006    -22400.57   -6054.5149 
  106000    267.57863   -22274.652    102.09294   -22376.745    235.65924 
  106200    244.81076   -22287.597    93.405999   -22381.003     9476.854 
  106400    291.70828   -22275.483    111.29945   -22386.783   -14481.113 
  106600    305.04403   -22262.797    116.38762   -22379.185    6621.0943 
  106800    266.05205   -22279.731    101.51048   -22381.242   -20850.368 
  107000     282.4366   -22274.405     107.7619   -22382.167   -9668.6082 
  107200    323.82254   -22246.859    123.55245   -22370.411    2195.0417 
  107400    321.32338   -22278.527    122.59891   -22401.125    2929.9618 
  107600    292.60042   -22275.983    111.63984   -22387.623   -3029.5703 
  107800    320.67512   -22255.326    122.35157   -22377.678   -4252.1977 
  108000    302.85515   -22287.444    115.55247   -22402.996   -3093.3339 
  108200    305.44435   -22273.161    116.54036   -22389.701    31993.397 
  108400    324.86267   -22266.936     123.9493   -22390.885   -2509.5924 
  108600    316.07717   -22279.378    120.59725   -22399.976    27562.384 
  108800    294.25718   -22281.397    112.27197   -22393.669   -16739.108 
  109000    344.04581   -22255.668    131.26851   -22386.937    17784.829 
  109200    274.82135   -22279.715    104.85635   -22384.571   -25090.337 
  109400    282.53094   -22276.521     107.7979   -22384.319     9316.253 
  109600    297.65938   -22274.805    113.57006   -22388.375    931.70382 
  109800    323.19769   -22286.995    123.31404   -22410.309   -6652.8768 
  110000    307.85522   -22279.646    117.46022   -22397.106    9878.8745 
  110200    328.27005   -22265.355    125.24936   -22390.604    6354.8248 
  110400    273.95669   -22294.797    104.52645   -22399.323   -27739.001 
  110600    306.87298   -22273.609    117.08545   -22390.694   -176.45025 
  110800    347.26592   -22273.097    132.49712   -22405.594   -8543.8442 
  111000     306.0396   -22281.498    116.76748   -22398.266    1617.0484 
  111200    332.95417   -22278.997    127.03656   -22406.034    19265.235 
  111400    307.56784   -22254.549    117.35057   -22371.899   -2434.4882 
  111600    311.42632   -22282.429    118.82275   -22401.252    17903.276 
  111800    319.14956   -22279.499     121.7695   -22401.268   -12256.532 
  112000    321.58843   -22277.921    122.70004   -22400.621    4525.7873 
  112200    287.01931   -22292.151     109.5104   -22401.662    19130.509 
  112400    318.08633   -22275.869    121.36383   -22397.233    14107.465 
  112600    299.44309   -22265.357    114.25062   -22379.608   -4886.9345 
  112800    298.81417   -22279.979    114.01066   -22393.989    11897.593 
  113000    277.00349   -22277.193    105.68893   -22382.882    8721.9203 
  113200    310.69097   -22268.884    118.54218   -22387.426     21191.77 
  113400    267.89931   -22290.752    102.21529   -22392.967    4979.0269 
  113600    290.19445   -22277.861    110.72186   -22388.583    3921.4203 
  113800     346.4184   -22266.121    132.17375   -22398.294   -20245.851 
  114000    299.38833   -22283.128    114.22973   -22397.358    1127.6751 
  114200    286.11063   -22275.868     109.1637   -22385.031   -6225.7474 
  114400    327.04199   -22263.957    124.78081   -22388.738   -2395.9966 
  114600    304.54392   -22288.352    116.19681   -22404.549   -1484.9168 
  114800    308.66701   -22273.641    117.76995   -22391.411    8025.8515 
  115000    324.62417    -22261.62     123.8583   -22385.478    8411.5342 
  115200    287.92227   -22283.764    109.85493   -22393.619   -23118.394 
  115400    286.02961    -22281.25    109.13279   -22390.383    -14497.15 
  115600    296.88654   -22258.962    113.27519   -22372.238   -4328.2571 
  115800    276.50509   -22291.793    105.49877   -22397.291    13086.937 
  116000    306.27197   -22274.091    116.85613   -22390.947   -1127.2549 
  116200    295.42601    -22270.11    112.71793   -22382.828   -833.54716 
  116400    264.82097    -22298.31    101.04077   -22399.351    15802.283 
  116600    308.92885   -22274.148    117.86985   -22392.018   -20786.597 
  116800    304.55409   -22274.511    116.20069   -22390.711    16242.722 
  117000    286.27749   -22297.382    109.22737   -22406.609    27833.366 
  117200    285.94647   -22279.426    109.10107   -22388.527   -6883.7126 
  117400     318.8707   -22272.906     121.6631    -22394.57    2165.7012 
  117600    299.50023   -22295.271    114.27242   -22409.544    7790.8418 
  117800    286.69104     -22294.2    109.38516   -22403.585    838.36127 
  118000    290.94442    -22278.37    111.00801   -22389.378   -13391.509 
  118200    316.76123   -22265.863    120.85825   -22386.721     36263.64 
  118400     268.6227   -22294.227    102.49129   -22396.718    11960.082 
  118600    293.34799   -22277.758    111.92507   -22389.683     4714.354 
  118800    301.67183    -22265.84    115.10098   -22380.941   -12423.104 
  119000    288.49361   -22278.324    110.07291   -22388.397   -17199.799 
  119200    266.26199   -22298.483    101.59058   -22400.073   -14167.761 
  119400    315.17137   -22280.638    120.25165    -22400.89    7108.7026 
  119600    329.08912   -22271.354    125.56188   -22396.916   -13313.239 
  119800    262.98449   -22295.949    100.34007    -22396.29   -11080.044 
  120000    305.67056   -22284.948    116.62667   -22401.575    7144.0998 
  120200    270.77407   -22274.159    103.31214   -22377.471    15105.095 
  120400    306.24792   -22291.226    116.84696   -22408.073   -20708.682 
  120600    292.58152   -22287.956    111.63263   -22399.589   -982.48204 
  120800    311.91195   -22270.593    119.00803   -22389.601   -14624.035 
  121000    285.55446   -22290.692     108.9515   -22399.643    -3668.992 
  121200    310.48954   -22265.104    118.46532    -22383.57    15847.677 
  121400    301.26645   -22276.124    114.94631    -22391.07   -30136.791 
  121600    264.50554   -22287.109    100.92042   -22388.029    17689.584 
  121800     328.1568   -22256.537    125.20616   -22381.743   -7493.7278 
  122000    306.54719   -22269.443    116.96114   -22386.404    20770.173 
  122200    303.83973   -22275.558    115.92813   -22391.486    1679.9002 
  122400    307.62529   -22273.587    117.37249   -22390.959    1337.5631 
  122600    276.89374   -22296.636    105.64706   -22402.283   -3246.8198 
  122800    311.04701   -22271.725    118.67802   -22390.403    1602.7921 
  123000    286.30592   -22275.203    109.23822   -22384.442    6220.4884 
  123200    301.85517    -22287.24    115.17093   -22402.411   -2441.6207 
  123400    301.73135   -22279.153    115.12369   -22394.277    2225.9332 
  123600    322.67602   -22262.756      123.115   -22385.871    5048.0762 
  123800    318.26857   -22294.278    121.43336   -22415.711    7692.0454 
  124000    311.68494   -22277.488    118.92142   -22396.409    15230.846 
  124200    341.21373   -22252.198    130.18795   -22382.386   -2164.8339 
  124400    291.08508   -22277.448    111.06167   -22388.509   -7152.8899 
  124600     283.4418   -22293.704    108.14543    -22401.85    2250.8626 
  124800    309.42553     -22264.7    118.05936   -22382.759   -22820.696 
  125000    318.47811   -22274.052    121.51331   -22395.565    16695.664 
  125200    289.37941   -22281.702    110.41089   -22392.113    7828.6621 
  125400    338.29431   -22250.164    129.07406   -22379.238    7771.8018 
  125600    288.39911   -22278.065    110.03686   -22388.102   -2282.1715 
  125800    284.49068   -22284.773    108.54562   -22393.318   -2631.8973 
  126000    291.29573    -22260.84    111.14205   -22371.982   -7943.5538 
  126200    305.43759   -22274.857    116.53779   -22391.395   -3074.5605 
  126400    288.69512    -22280.53     110.1498    -22390.68   -34474.635 
  126600    312.13265   -22265.943    119.09224   -22385.035   -12.914809 
  126800    326.84554   -22252.116    124.70585   -22376.822    9721.3017 
  127000    289.14446   -22283.892    110.32124   -22394.213    7160.8536 
  127200    306.61427   -22273.505    116.98674   -22390.491   -14384.084 
  127400    290.45671   -22258.227    110.82192   -22369.049    701.62962 
  127600    318.60308   -22276.015    121.56099   -22397.576   -14709.889 
  127800    288.27724   -22277.116    109.99036   -22387.106    2593.7398 
  128000    361.85918   -22250.391    138.06509   -22388.456    4982.2096 
  128200    343.17975   -22276.219    130.93807   -22407.157     1078.116 
  128400    300.57604    -22278.97    114.68289   -22393.653    7070.0659 
  128600     350.4138   -22251.455    133.69817   -22385.153    6889.4283 
  128800    295.76292    -22279.63    112.84647   -22392.476    16725.912 
  129000    299.80454   -22282.767    114.38853   -22397.156    11273.582 
  129200    307.80739   -22264.677    117.44197   -22382.119   -2587.5267 
  129400    287.37309   -22275.406    109.64539   -22385.051   -18781.074 
  129600    262.30805   -22287.467    100.08198   -22387.549   -4588.7466 
  129800    310.92488   -22264.387    118.63142   -22383.019    7988.4921 
  130000    323.06883   -22261.908    123.26487   -22385.173    1038.1644 
  130200    294.81199   -22285.309    112.48365   -22397.793    11563.752 
  130400    320.62035   -22285.842    122.33067   -22408.173    9854.8949 
  130600    312.93749   -22260.441    119.39932    -22379.84    10651.842 
  130800    272.61205   -22287.881    104.01341   -22391.894    3527.9624 
  131000    306.72749     -22279.4    117.02994    -22396.43   -7829.1037 
  131200    311.65593   -22266.527    118.91035   -22385.437    6870.6166 
  131400     308.1035   -22296.596    117.55494   -22414.151    19196.911 
  131600    292.52785   -22276.503    111.61216   -22388.115     2108.169 
  131800    296.64618    -22269.06    113.18348   -22382.244    13048.771 
  132000    266.19583   -22294.951    101.56534   -22396.516   -183.24956 
  132200    309.50709   -22282.962    118.09048   -22401.052    21219.646 
  132400    290.67813   -22273.277     110.9064   -22384.183   -5405.1496 
  132600    324.81572   -22266.014    123.93139   -22389.946    29358.204 
  132800    301.51201    -22289.33    115.04001    -22404.37    6186.6356 
  133000    298.55422   -22278.376    113.91148   -22392.288    4152.4093 
  133200     271.2207   -22263.778    103.48255    -22367.26   -689.26327 
  133400    270.09641   -22288.033    103.05358   -22391.087    14727.571 
  133600     282.0952   -22282.585    107.63164   -22390.217     4568.479 
  133800    341.01985   -22256.081    130.11397   -22386.195   -18068.996 
  134000    289.77137   -22283.073    110.56044   -22393.634   -16814.113 
  134200    278.63417   -22284.417    106.31111   -22390.729    17001.798 
  134400    322.28896   -22260.467    122.96732   -22383.434    12129.693 
  134600    260.35913   -22288.157    99.338384   -22387.495   -11903.181 
  134800    273.39388   -22277.263    104.31171   -22381.575   -1097.0944 
  135000    323.32161   -22249.327    123.36132   -22372.688      209.117 
  135200    284.79603   -22288.472    108.66213   -22397.134    14166.151 
  135400    275.43181   -22278.313    105.08927   -22383.402    50153.193 
  135600    324.64208   -22270.389    123.86514   -22394.254    6330.6447 
  135800    270.70129    -22294.38    103.28437   -22397.664   -14313.321 
  136000    288.09958   -22275.863    109.92258   -22385.785   -5922.5925 
  136200    281.14395   -22276.214     107.2687   -22383.483    16576.153 
  136400    276.28076   -22296.809    105.41318   -22402.222     1499.717 
  136600     279.5765   -22288.599    106.67065   -22395.269    6881.7164 
  136800    301.41207   -22273.054    115.00187   -22388.056     2551.555 
  137000    313.45613   -22276.783    119.59721    -22396.38    -4246.285 
  137200    309.99181   -22281.085    118.27542    -22399.36    -14851.17 
  137400    312.00046   -22269.723    119.04181   -22388.764    18861.509 
  137600     320.1884   -22259.758    122.16586   -22381.924   -3433.9182 
  137800    284.97088   -22291.585    108.72884   -22400.314    3.7252022 
  138000    302.22028   -22270.171    115.31024   -22385.481   -9818.6649 
  138200    298.84355   -22270.183    114.02187   -22384.205   -10717.761 
  138400    297.54262    -22298.29    113.52551   -22411.816    10700.981 
  138600    326.51292   -22270.361    124.57894    -22394.94    16310.714 
  138800    313.66965   -22274.242    119.67868   -22393.921   -8902.6397 
  139000    278.16835   -22295.454    106.13338   -22401.587    3358.2772 
  139200    291.31874   -22278.857    111.15083   -22390.008     1992.209 
  139400    318.66742   -22280.092    121.58554   -22401.677    -9452.411 
  139600    281.56557   -22300.216    107.42957   -22407.646   -11084.625 
  139800    302.86339   -22275.168    115.55561   -22390.724    16146.551 
  140000    303.20257   -22279.876    115.68503   -22395.561    14219.282 
  140200    286.17205   -22296.396    109.18714   -22405.583    -24229.92 
  140400    294.83622   -22293.114     112.4929   -22405.606   -62.952429 
  140600    321.87931       -22275    122.81102   -22397.811   -8034.3856 
  140800    275.67544    -22295.29    105.18222   -22400.472    12706.257 
  141000    264.00893   -22308.153    100.73094   -22408.884    4908.5085 
  141200     306.1518   -22274.144    116.81029   -22390.955    3148.5206 
  141400    296.55058   -22271.485      113.147   -22384.632   -12598.374 
  141600    278.02996   -22295.416    106.08058   -22401.497   -17461.904 
  141800    296.39383   -22278.502    113.08719    -22391.59   -3006.4979 
  142000    327.79735   -22272.955    125.06901   -22398.024   -1150.7599 
  142200    274.68612   -22283.014    104.80476   -22387.819    11240.285 
  142400    296.34959   -22286.293    113.07031   -22399.364   -14995.722 
  142600    341.16713   -22260.464    130.17017   -22390.634    38325.438 
  142800    293.75926   -22276.415    112.08199   -22388.497    214.15145 
  143000    301.93914   -22278.551    115.20297   -22393.754   -17138.682 
  143200    341.30029   -22271.401    130.22097   -22401.622    9656.9606 
  143400    295.11632   -22281.497    112.59977   -22394.097   -12941.317 
  143600    281.04016   -22294.878     107.2291   -22402.108   -11015.287 
  143800    321.92114   -22263.872    122.82698   -22386.699   -2930.1016 
  144000    299.06214   -22279.536    114.10527   -22393.641   -1712.2555 
  144200    282.50711    -22284.41     107.7888   -22392.199    18472.732 
  144400    332.77431   -22274.981    126.96794   -22401.949    20583.207 
  144600    355.19907    -22249.68    135.52396   -22385.204     10849.66 
  144800    286.51203   -22280.629    109.31686   -22389.946    7510.6412 
  145000    296.26007   -22286.079    113.03616   -22399.115    550.10513 
  145200    315.54273   -22263.863    120.39334   -22384.256    11568.686 
  145400    301.97185   -22270.304    115.21545    -22385.52   -9203.4132 
  145600    296.00782   -22279.865    112.93992   -22392.805     26148.72 
  145800    285.98109   -22286.038    109.11428   -22395.152    -7275.237 
  146000    303.06712   -22289.464    115.63334   -22405.097    15966.722 
  146200    325.72057   -22265.435    124.27663   -22389.712   -6330.3627 
  146400    294.85353   -22292.868     112.4995   -22405.367   -484.53822 
  146600    288.28131    -22285.86    109.99192   -22395.852    6030.8495 
  146800    292.98328   -22269.844    111.78592    -22381.63      -531.86 
  147000    303.89983    -22282.45    115.95106   -22398.401   -864.37635 
  147200    274.31203   -22302.093    104.66202   -22406.755    6584.9516 
  147400    311.69725   -22276.719    118.92612   -22395.645   -11046.335 
  147600    321.42371   -22264.344    122.63719   -22386.981   -5287.4509 
  147800     306.3316    -22287.57    116.87889   -22404.449    30076.909 
  148000    300.15148   -22284.502     114.5209   -22399.023    7036.4841 
  148200    287.48475   -22267.449    109.68799   -22377.137    12316.205 
  148400    286.18776   -22281.595    109.19313   -22390.788   -3004.4643 
  148600    296.90982   -22284.979    113.28407   -22398.263    290.51664 
  148800    328.38051   -22263.424    125.29151   -22388.716    1745.5345 
  149000    283.17377    -22292.64    108.04316   -22400.683   -5085.0546 
  149200    301.95979   -22287.399    115.21085    -22402.61    13745.695 
  149400    294.42817   -22274.662    112.33721   -22386.999    19400.535 
  149600    237.52869   -22305.855     90.62757   -22396.482    3555.4014 
  149800    287.96487   -22289.555    109.87118   -22399.427    5784.2573 
  150000    286.09488   -22274.838    109.15769   -22383.996   -8470.1248 
  150200    297.85687   -22291.097    113.64541   -22404.743    6760.3234 
  150400    269.47913   -22291.103    102.81806   -22393.921    9045.7427 
  150600    312.04349   -22274.406    119.05822   -22393.464   -22356.725 
  150800    289.48577   -22279.568    110.45147   -22390.019    22522.685 
  151000    279.10665   -22303.361    106.49138   -22409.852   -14243.643 
  151200    320.62645   -22272.746      122.333   -22395.079   -2710.6459 
  151400     319.7585   -22272.809    122.00184   -22394.811   -14225.728 
  151600    296.28533   -22293.207     113.0458   -22406.253    4742.8389 
  151800    311.70418   -22273.278    118.92876   -22392.207   -21620.311 
  152000    319.47812   -22269.208    121.89486   -22391.102     7572.745 
  152200    245.76813   -22295.892    93.771278   -22389.663    15918.553 
  152400    312.60878   -22271.705    119.27391   -22390.979   -29941.193 
  152600    304.57432   -22270.939    116.20841   -22387.147   -9816.0061 
  152800    277.01596   -22289.604    105.69369   -22395.298     21700.46 
  153000     291.2985   -22260.658     111.1431   -22371.801   -8031.3382 
  153200    335.40111   -22278.598    127.97017   -22406.568   -9107.7728 
  153400    284.75036    -22286.93     108.6447   -22395.575   -9064.2284 
  153600    316.35429   -22270.283    120.70298   -22390.986    11273.185 
  153800    305.62707   -22249.816    116.61008   -22366.426   -9987.6914 
  154000    278.81449   -22280.002    106.37991   -22386.382   -4333.2122 
  154200    283.75594   -22282.625    108.26529   -22390.891   -4196.9428 
  154400    347.78369   -22255.287    132.69467   -22387.981    1902.2958 
  154600    297.61664   -22288.792    113.55375   -22402.346    29942.798 
  154800     298.1796   -22283.816    113.76854   -22397.584    1349.6872 
  155000    331.56531   -22263.213    126.50665   -22389.719    28677.276 
  155200    304.98129   -22279.595    116.36368   -22395.958   -19341.771 
  155400     301.4153   -22287.358    115.00311   -22402.361    24437.541 
  155600    286.30964   -22291.665    109.23963   -22400.904    12522.523 
  155800    302.56194   -22263.984     115.4406   -22379.425   -3880.7484 
  156000    311.64108   -22282.924    118.90469   -22401.829    2306.2475 
  156200    269.67802   -22290.803    102.89394   -22393.697    10888.271 
  156400    331.12653   -22271.025    126.33924   -22397.364    9926.3357 
  156600    273.80311   -22279.794    104.46785   -22384.262    47927.585 
  156800    267.60776    -22303.09    102.10405   -22405.194   -24266.099 
  157000    300.68671   -22277.267    114.72512   -22391.992   -11983.165 
  157200    320.17563   -22263.452    122.16099   -22385.613   -6806.0948 
  157400    293.12417   -22285.581    111.83968   -22397.421   -1848.7489 
  157600    285.65559    -22283.89    108.99009    -22392.88    23950.505 
  157800    291.21956   -22268.707    111.11299    -22379.82   -3587.4465 
  158000    287.79306   -22281.878    109.80562   -22391.683    2089.7312 
  158200    283.38668    -22302.89     108.1244   -22411.014   -8986.8962 
  158400    305.81651   -22275.492    116.68236   -22392.175   -7152.8184 
  158600    277.78951   -22274.346    105.98883   -22380.335    24009.782 
  158800    286.20809   -22298.099    109.20089     -22407.3   -24874.351 
  159000    312.58265   -22269.392    119.26394   -22388.656    5254.7478 
  159200    306.94213   -22280.722    117.11183   -22397.834   -31234.836 
  159400    311.55592   -22294.502    118.87219   -22413.374   -6884.9487 
  159600    296.12518   -22266.228    112.98469   -22379.212    4659.5549 
  159800     272.0944   -22287.061     103.8159   -22390.877   -13994.004 
  160000    304.17748   -22286.811      116.057   -22402.868   -9673.1604 
  160200    326.58114   -22278.582    124.60497   -22403.187   -14950.608 
  160400    292.03677   -22277.817    111.42479   -22389.241     -25285.1 
  160600     313.0823   -22269.613    119.45457   -22389.067   -707.11513 
  160800    294.08068    -22287.54    112.20463   -22399.745    14767.428 
  161000    292.93219   -22277.675    111.76643   -22389.441   -660.05213 
  161200    340.57667   -22267.209    129.94488   -22397.154   -23506.237 
  161400     270.1864   -22287.357    103.08792   -22390.445    25093.148 
  161600    307.91844   -22271.346    117.48434    -22388.83       -17490 
  161800    310.48324   -22270.486    118.46292   -22388.949   -3755.1208 
  162000    275.66741    -22290.22    105.17916   -22395.399   -1182.4483 
  162200    359.75076   -22255.688    137.26063   -22392.949   -5209.5238 
  162400    292.35287   -22273.821    111.54539   -22385.366   -16061.201 
  162600    282.57202   -22286.297    107.81357    -22394.11    4690.7399 
  162800    377.55512   -22254.808    144.05377   -22398.861    25097.996 
  163000    287.34631   -22271.107    109.63517   -22380.742   -4349.3553 
  163200    304.32746   -22279.893    116.11422   -22396.007    18215.195 
  163400    308.60458    -22270.74    117.74613   -22388.486    14569.572 
  163600    290.46897   -22266.591     110.8266   -22377.418    29752.806 
  163800    305.86874   -22291.912    116.70229   -22408.614   -13756.516 
  164000    290.09595   -22281.002    110.68428   -22391.687    10944.298 
  164200    326.80537   -22246.543    124.69052   -22371.234   -1576.8256 
  164400    303.82057   -22271.448    115.92082   -22387.369    10488.745 
  164600    306.48569   -22286.708    116.93768   -22403.645    5064.2659 
  164800    320.86028   -22267.647    122.42221   -22390.069     12614.21 
  165000    307.09376   -22274.653    117.16969   -22391.822    18989.955 
  165200    286.80589   -22284.538    109.42898   -22393.967    3085.3832 
  165400    276.53491   -22269.319    105.51015   -22374.829   -7181.5264 
  165600    311.17531   -22260.674    118.72697   -22379.401    35856.521 
  165800    297.92396   -22280.219    113.67101    -22393.89    17621.609 
  166000    305.39062   -22289.407    116.51986   -22405.927   -6249.3022 
  166200    287.71676   -22265.872    109.77651   -22375.648   -2816.9406 
  166400    298.15068   -22280.716    113.75751   -22394.474     23722.66 
  166600    278.48437   -22306.806    106.25395    -22413.06    2430.0855 
  166800     287.5479   -22288.551    109.71209   -22398.263   -4147.8284 
  167000    308.94574    -22272.78     117.8763   -22390.657   -19880.617 
  167200    309.47122   -22272.406    118.07679   -22390.483   -17792.876 
  167400    303.08493   -22291.467    115.64014   -22407.107    12026.021 
  167600    293.95599   -22265.167    112.15705   -22377.324   -7778.3323 
  167800    294.75895   -22279.054    112.46342   -22391.517   -12069.212 
  168000    288.18343   -22277.454    109.95457   -22387.409   -5053.1493 
  168200    326.73495   -22259.062    124.66366   -22383.725   -23754.063 
  168400    285.22157   -22284.581    108.82449   -22393.405    4804.6877 
  168600     313.0083   -22275.939    119.42634   -22395.366   -6030.1388 
  168800     309.1026   -22262.367    117.93614   -22380.303    30657.498 
  169000    304.73628   -22279.625     116.2702   -22395.896     -2950.56 
  169200    282.31494   -22286.529    107.71548   -22394.244   -3897.9989 
  169400    331.53847   -22258.809    126.49641   -22385.305    1949.4225 
  169600    281.14172   -22283.608    107.26785   -22390.876   -3692.0847 
  169800    278.62237   -22284.457    106.30661   -22390.764    19426.275 
  170000    326.87964   -22254.293    124.71886   -22379.012    9629.1055 
  170200    309.84543   -22276.877    118.21957   -22395.097    15187.497 
  170400    299.68445   -22286.815    114.34271   -22401.158    1362.8974 
  170600    314.34312    -22259.48    119.93563   -22379.416   -23312.372 
  170800    304.62357   -22269.418     116.2272   -22385.646    24808.047 
  171000    292.31402   -22282.839    111.53057    -22394.37    40.074531 
  171200    299.59557   -22262.504     114.3088   -22376.813   -26764.479 
  171400    309.23246   -22264.478    117.98569   -22382.464   -1574.6407 
  171600    301.04248   -22288.115    114.86086   -22402.976   -776.86794 
  171800     320.5562   -22265.039     122.3062   -22387.345   -7382.8752 
  172000    285.20514   -22276.118    108.81822   -22384.936   -27.050589 
  172200    305.28814   -22286.039    116.48076    -22402.52   -26718.803 
  172400    308.04488   -22264.541    117.53258   -22382.074   -2650.9176 
  172600    279.03439   -22286.783    106.46381   -22393.247    24059.192 
  172800    271.40101    -22282.21    103.55134   -22385.762   -20668.201 
  173000    303.43249   -22272.713    115.77275   -22388.486    1120.7292 
  173200    251.46088   -22309.511    95.943312   -22405.455   -23110.093 
  173400     284.2074   -22289.952    108.43754    -22398.39   -21055.228 
  173600     304.8243   -22273.453    116.30379   -22389.757     27395.72 
  173800    252.32104   -22296.409      96.2715   -22392.681    14603.931 
  174000    263.85555   -22288.319    100.67242   -22388.991   -10024.263 
  174200     297.7658   -22277.796    113.61066   -22391.407    16800.921 
  174400    293.78892   -22287.812    112.09331   -22399.905   -15318.257 
  174600    273.98171   -22294.944    104.53599    -22399.48   -11477.345 
  174800     322.6628   -22265.664    123.10995   -22388.774   -22584.394 
  175000     321.7867   -22278.861    122.77569   -22401.636   -11743.114 
  175200    301.50899   -22285.795    115.03885   -22400.833      1063.04 
  175400    271.55416   -22268.164    103.60978   -22371.774    4142.6608 
  175600    257.56133   -22282.602    98.270898   -22380.873     960.7812 
  175800    277.62645   -22284.472    105.92662   -22390.398    31407.703 
  176000    334.57832   -22268.266    127.65624   -22395.922   -20651.769 
  176200    278.55149   -22284.213    106.27956   -22390.493    21999.314 
  176400    278.14208   -22305.746    106.12335   -22411.869    12935.534 
  176600    297.16738   -22274.126    113.38234   -22387.509    17024.666 
  176800    303.82455   -22265.372    115.92234   -22381.294    12338.114 
  177000    301.56134   -22282.271    115.05882    -22397.33   -15429.319 
  177200    273.93496   -22285.735    104.51815   -22390.253    24504.327 
  177400    327.80372   -22261.828    125.07144   -22386.899   -6046.7122 
  177600    294.04802   -22282.594    112.19217   -22394.786    -10472.57 
  177800    311.85195   -22267.175    118.98514    -22386.16    13179.133 
  178000    299.23004   -22255.122    114.16933   -22369.291    41485.434 
  178200    306.85496   -22279.683    117.07857   -22396.761   -8579.3293 
  178400    323.28232    -22278.03    123.34633   -22401.376    9156.4816 
  178600    323.76682   -22255.303    123.53119   -22378.834   -23063.958 
  178800    294.95421   -22283.664    112.53792   -22396.202    -11858.32 
  179000     293.2546   -22282.225    111.88944   -22394.114   -2865.2507 
  179200    342.69997   -22254.588    130.75501   -22385.343   -4367.2542 
  179400     306.3753   -22276.217    116.89556   -22393.112    14642.207 
[...]
  950000    312.05503   -22407.537    119.06263     -22526.6   -12170.907 
  950200    269.34011   -22423.697    102.76502   -22526.462    18153.312 
  950400    314.82736   -22399.724    120.12039   -22519.844    -11595.98 
  950600     303.5262   -22399.107     115.8085   -22514.916    18002.156 
  950800    289.79753   -22418.538    110.57042   -22529.108     15528.37 
  951000    325.00807   -22395.198    124.00478   -22519.202   -5410.5703 
  951200    296.36659     -22419.1     113.0768   -22532.176   -6615.9016 
  951400    267.68217   -22424.503    102.13244   -22526.635    -12706.27 
  951600    297.17522   -22398.065    113.38533    -22511.45   -14077.747 
  951800    294.35008   -22404.435    112.30742   -22516.742   -1626.2053 
  952000    254.01624   -22426.983    96.918294   -22523.901    41419.712 
  952200    296.40457   -22408.692    113.09129   -22521.783    8892.3008 
  952400    316.16124   -22391.265    120.62932   -22511.894   -17528.397 
  952600    328.24808   -22386.889    125.24098    -22512.13   -1165.7667 
  952800    297.12266    -22407.36    113.36527   -22520.726   -22222.175 
  953000    304.47872   -22401.513    116.17193   -22517.685   -19374.956 
  953200    317.82895   -22383.616    121.26563   -22504.882   -2286.0432 
  953400    287.83689   -22414.205    109.82235   -22524.027    -19345.63 
  953600     294.9713   -22401.136    112.54444    -22513.68       921.75 
  953800    320.60241   -22393.796    122.32383    -22516.12    8714.5082 
  954000    312.84017   -22412.664    119.36219   -22532.026    18022.623 
  954200     305.1524   -22406.995    116.42897   -22523.424   -30826.232 
  954400    311.93928    -22401.16    119.01846   -22520.178    10856.279 
  954600    283.45798   -22404.124     108.1516   -22512.276    31014.025 
  954800    288.12248   -22414.366    109.93131   -22524.298    21366.541 
  955000    313.71711   -22387.367    119.69678   -22507.063   -146.88374 
  955200    290.11431   -22406.909    110.69128   -22517.601    30986.094 
  955400    301.90466   -22411.238    115.18982   -22526.428    18117.314 
  955600    290.02125   -22405.446    110.65578   -22516.102    -18457.95 
  955800    324.03749   -22388.093    123.63446   -22511.727    11387.172 
  956000    291.48789   -22416.862    111.21536   -22528.077   -7048.9594 
  956200    307.05092   -22403.375    117.15334   -22520.528   -13165.405 
  956400    308.08962    -22380.14    117.54965    -22497.69    10427.247 
  956600    299.45927   -22409.221    114.25679   -22523.478     8026.957 
  956800    299.92677   -22410.919    114.43517   -22525.354    1922.9828 
  957000    311.62264   -22383.422    118.89765   -22502.319   -1649.4853 
  957200    276.97437   -22415.231    105.67782   -22520.909   -10083.163 
  957400    310.10828   -22410.912    118.31986   -22529.232   -5319.6759 
  957600    315.28345   -22392.298    120.29441   -22512.592   -11481.493 
  957800    296.03975   -22423.294     112.9521   -22536.246   -2978.8728 
  958000    309.08148   -22411.261    117.92809   -22529.189   -5620.4635 
  958200    291.28785   -22403.633    111.13904   -22514.772   -8913.6079 
  958400    310.37448   -22412.878    118.42142   -22531.299   -933.99376 
  958600    291.55844   -22418.206    111.24228   -22529.448    3571.0382 
  958800    321.04441   -22396.021    122.49247   -22518.513   -377.69065 
  959000     265.8016   -22407.674    101.41492   -22509.089    -2787.995 
  959200    279.65831   -22438.102    106.70186   -22544.803    43394.237 
  959400      287.972   -22411.648     109.8739   -22521.522    26821.801 
  959600    282.92912     -22399.7    107.94982    -22507.65   -8403.8223 
  959800    298.28661   -22395.537    113.80937   -22509.346    17176.051 
  960000    282.91495   -22416.317    107.94441   -22524.261    7654.1306 
  960200    306.92786   -22413.661    117.10639   -22530.768    18466.288 
  960400    324.71822   -22395.509    123.89419   -22519.403   -10072.897 
  960600    297.44587   -22414.245     113.4886   -22527.734    2426.9797 
  960800    298.72251   -22406.037    113.97569   -22520.013   -1596.5311 
  961000    296.47909   -22388.187    113.11972   -22501.306    13514.765 
  961200    300.83113   -22406.945    114.78022   -22521.725     12024.76 
  961400    282.48852   -22418.865    107.78171   -22526.646        12174 
  961600    308.81813   -22393.317    117.82761   -22511.144    22394.047 
  961800    343.59419   -22357.999    131.09619   -22489.095    1590.0844 
  962000    297.40731   -22396.133    113.47388   -22509.607    3073.2796 
  962200    294.58998   -22419.763    112.39895   -22532.162   -10019.317 
  962400    314.70029   -22407.387    120.07191   -22527.459    8317.5426 
  962600    346.76487   -22397.188    132.30595   -22529.494   -1116.7185 
  962800     308.1296   -22412.002    117.56491   -22529.567    15868.776 
  963000    387.90878   -22380.366    148.00415    -22528.37   -2052.2179 
  963200    321.96445   -22392.406     122.8435   -22515.249   -3364.9658 
  963400    289.74151   -22411.262    110.54904   -22521.811   -14987.283 
  963600    300.65792   -22402.673    114.71413   -22517.387   -1330.9844 
  963800    326.15202   -22388.232    124.44124   -22512.673    1165.9186 
  964000    285.88365   -22413.704     109.0771   -22522.781    7757.2844 
  964200    311.51983   -22402.257    118.85842   -22521.115   -16446.049 
  964400    287.59845   -22425.865    109.73137   -22535.597    27074.356 
  964600    264.37961   -22424.462    100.87237   -22525.334    6159.8774 
  964800    299.46832   -22405.633    114.26025   -22519.893    7899.4635 
  965000    298.32915   -22415.903     113.8256   -22529.728    12603.336 
  965200    300.49196    -22420.42    114.65081   -22535.071   -3250.4634 
  965400    292.32663    -22430.07    111.53538   -22541.606    19154.432 
  965600    255.11312   -22431.207    97.336801   -22528.544    -16553.15 
  965800    281.18708   -22410.554    107.28515   -22517.839    1214.0424 
  966000     267.1558   -22434.277    101.93161   -22536.208   -9850.3723 
  966200    282.73408   -22429.947     107.8754   -22537.823    9360.1837 
  966400    269.56299   -22418.396    102.85006   -22521.246   -7804.8404 
  966600    305.31565   -22425.391    116.49126   -22541.882    24303.851 
  966800    273.88448   -22439.248    104.49889   -22543.747    8573.0393 
  967000    304.12584   -22414.779     116.0373   -22530.816   -120.67735 
  967200    306.65372   -22420.168    117.00179    -22537.17    11246.985 
  967400    273.96073   -22446.123    104.52799   -22550.651   -10737.828 
  967600    301.62494    -22419.49    115.08309   -22534.574   -1409.0303 
  967800    283.84172   -22419.664    108.29802   -22527.962    15527.169 
  968000    310.88132   -22413.554     118.6148   -22532.169   -6768.8123 
  968200    288.68817   -22428.588    110.14715   -22538.735   -11577.079 
  968400    300.12708   -22429.897    114.51159   -22544.409    28862.926 
  968600    317.14735   -22405.025    121.00557    -22526.03   -6705.2554 
  968800    305.06358   -22420.888    116.39508   -22537.283   -27917.867 
  969000    294.90152   -22419.602    112.51781    -22532.12   -6090.7318 
  969200    310.95717   -22415.166    118.64375    -22533.81     2184.482 
  969400    300.46805   -22401.531    114.64169   -22516.173     21795.13 
  969600    273.80837   -22429.925    104.46986   -22534.395   -8673.0826 
  969800    307.23993   -22418.768    117.22546   -22535.993   -22619.709 
  970000    317.95823   -22391.617    121.31495   -22512.932    12796.483 
  970200    324.73649   -22401.935    123.90116   -22525.836    17501.349 
  970400     295.0638    -22421.43    112.57973   -22534.009   -14957.529 
  970600    299.74375   -22426.184    114.36533   -22540.549   -1720.6097 
  970800    327.79941   -22408.015     125.0698   -22533.084    17911.378 
  971000    296.51976   -22413.216    113.13524   -22526.351    14106.131 
  971200    291.72673   -22431.931    111.30649   -22543.237   -10037.991 
  971400    319.99361   -22412.063    122.09154   -22534.155   -8273.3116 
  971600    312.08506   -22416.893    119.07408   -22535.968   -25630.637 
  971800    289.98915   -22419.451    110.64353   -22530.094    17244.175 
  972000    292.90388   -22409.829    111.75563   -22521.584   -26714.033 
  972200    343.83348   -22396.972    131.18749   -22528.159   -329.20808 
  972400    298.02023   -22424.974    113.70774   -22538.681    18193.819 
  972600    279.86149   -22427.226    106.77939   -22534.006    23395.028 
  972800    336.76802   -22400.773    128.49171   -22529.265    21782.529 
  973000      276.193   -22425.058    105.37969   -22530.438   -7301.9179 
  973200     297.8101   -22417.924    113.62756   -22531.552   -5152.3275 
  973400    308.82812   -22415.405    117.83142   -22533.236   -6352.1639 
  973600    283.11285   -22441.104    108.01992   -22549.124    1452.2312 
  973800     306.9995   -22416.606    117.13372    -22533.74   -27391.915 
  974000    311.74808   -22424.474    118.94551   -22543.419    -17809.49 
  974200     294.6398    -22442.15    112.41796   -22554.568   -10755.189 
  974400    304.92365    -22448.79    116.34169   -22565.132   -2615.2834 
  974600    259.99151   -22451.265    99.198118   -22550.463   -4688.3101 
  974800    351.07244   -22434.849    133.94947   -22568.799   -13174.899 
  975000    270.60289   -22450.555    103.24683   -22553.802   -24883.641 
  975200    291.44544   -22454.664    111.19917   -22565.863    7615.1838 
  975400    313.86585     -22437.3    119.75353   -22557.054   -11815.043 
  975600    309.60035   -22435.695    118.12606   -22553.821    20124.181 
  975800    335.82364   -22407.895    128.13139   -22536.027    14742.477 
  976000    290.77245   -22440.336    110.94239   -22551.279   -13128.628 
  976200     325.5002   -22434.218    124.19255   -22558.411   -25056.161 
  976400    341.09953   -22399.509    130.14437   -22529.653    4662.9828 
  976600    325.12227   -22428.318    124.04835   -22552.366    17354.662 
  976800    275.79714    -22440.74    105.22866   -22545.969    1218.2359 
  977000    319.81784   -22412.513    122.02448   -22534.537   -35572.525 
  977200    299.28955   -22444.544    114.19204   -22558.736   -22621.534 
  977400    312.40657   -22435.796    119.19676   -22554.993    401.91472 
  977600    310.87592   -22430.369    118.61275   -22548.982   -60009.999 
  977800     268.8739   -22450.233    102.58714    -22552.82    522.03241 
  978000    285.17574   -22428.788      108.807   -22537.595   -32418.649 
  978200    301.82709   -22420.106    115.16022   -22535.267   -13203.087 
  978400    325.97801   -22435.457    124.37485   -22559.832    12787.479 
  978600    296.13152   -22430.415    112.98711   -22543.403    6934.0604 
  978800    295.74815    -22449.96    112.84084   -22562.801    8994.4482 
  979000    304.51265    -22439.59    116.18488   -22555.775    3451.2831 
  979200    332.08825   -22426.204    126.70618   -22552.911    -6987.293 
  979400    275.76923   -22448.246    105.21801   -22553.464   -5305.7675 
  979600    274.41017   -22464.905    104.69947   -22569.605   -1796.6678 
  979800    304.37023   -22434.144    116.13054   -22550.274   -55450.048 
  980000    290.40832   -22431.114    110.80346   -22541.918     16992.76 
  980200    278.57387   -22452.794     106.2881   -22559.082   -19139.225 
  980400    284.26735   -22436.611    108.46041   -22545.071    606.86648 
  980600    306.57196   -22432.917     116.9706   -22549.887    15200.649 
  980800    299.34536    -22454.12    114.21333   -22568.333   -2276.1809 
  981000    300.45403   -22441.746    114.63634   -22556.382   -7026.0891 
  981200     320.3433   -22425.606    122.22496   -22547.831    26136.143 
  981400    294.83274   -22444.937    112.49157   -22557.429    3282.9334 
  981600    291.45811   -22436.829      111.204   -22548.033    28205.854 
  981800    334.92477   -22430.855    127.78843   -22558.643    19943.442 
  982000    282.80556   -22441.435    107.90268   -22549.338    -10303.21 
  982200    300.95209   -22463.865    114.82637   -22578.691   -28227.268 
  982400     303.4022   -22436.718    115.76119    -22552.48    10540.039 
  982600    260.69172    -22433.48    99.465279   -22532.945   -6779.4819 
  982800    265.32843   -22440.847    101.23439   -22542.081    1846.3082 
  983000    283.37365   -22451.591    108.11943    -22559.71   -4418.1114 
  983200     340.6994   -22423.971     129.9917   -22553.963    38783.334 
  983400       302.86   -22441.853    115.55432   -22557.408    11274.185 
  983600    282.07002   -22450.436    107.62204   -22558.058     5357.333 
  983800     321.6326   -22426.809    122.71689   -22549.526    5606.7726 
  984000    305.04587   -22438.705    116.38833   -22555.093    -1740.746 
  984200    289.43382   -22448.299    110.43165   -22558.731   -6679.9008 
  984400    306.79164   -22435.504    117.05441   -22552.559   -15798.852 
  984600    308.11263   -22437.536    117.55843   -22555.094    31734.258 
  984800    281.80133   -22454.917    107.51952   -22562.436    6644.3659 
  985000    302.60373   -22426.981    115.45654   -22542.438    18390.129 
  985200    320.66804   -22432.512    122.34887   -22554.861    13022.444 
  985400    270.39906   -22438.946    103.16905   -22542.115   -19933.536 
  985600    315.80918    -22432.17      120.495   -22552.665    40924.192 
  985800    301.26243   -22449.235    114.94478    -22564.18    6926.2977 
  986000    287.08935   -22446.027    109.53713   -22555.564   -16501.725 
  986200    315.84613   -22428.083     120.5091   -22548.592   -360.52648 
  986400    277.23067   -22451.887    105.77561   -22557.662   -23257.272 
  986600    271.34089   -22466.067     103.5284   -22569.595    4174.6494 
  986800    303.78431   -22436.245    115.90698   -22552.152   -3714.6877 
  987000    310.66555   -22430.199    118.53248   -22548.732   -13700.025 
  987200    294.03823   -22454.298    112.18843   -22566.486   -11821.021 
  987400    307.56257   -22430.489    117.34856   -22547.838    -17433.33 
  987600    288.22384   -22435.237    109.96999   -22545.207   -3081.3652 
  987800    270.43812   -22454.472    103.18396   -22557.656    13432.287 
  988000    311.36825   -22448.423    118.80059   -22567.224    32404.688 
  988200     310.8195   -22427.756    118.59122   -22546.347   -8792.3198 
  988400    319.01124   -22447.131    121.71673   -22568.847    1893.5753 
  988600    285.33509   -22445.728     108.8678   -22554.596    17353.478 
  988800    318.24485    -22427.97    121.42431   -22549.394    9170.6099 
  989000    276.64044   -22451.102    105.55041   -22556.652   -2551.4992 
  989200    279.23848   -22438.678    106.54168    -22545.22   -14558.375 
  989400    287.42802   -22434.112    109.66635   -22543.778    13234.983 
  989600    280.14764   -22446.819    106.88856   -22553.708   -10099.073 
  989800    283.37958   -22439.659    108.12169    -22547.78   -13261.822 
  990000    324.43998   -22427.017    123.78802   -22550.805   -17531.197 
  990200    282.50426     -22450.2    107.78772   -22557.987    7204.7397 
  990400    274.47385   -22442.548    104.72376   -22547.272    1447.6821 
  990600    302.51553   -22428.937    115.42289    -22544.36    8820.3144 
  990800    279.96815    -22448.69    106.82008   -22555.511    18500.224 
  991000    261.56424   -22445.104    99.798184   -22544.902   -30474.125 
  991200    317.93319   -22430.554     121.3054   -22551.859   -6414.3727 
  991400    299.72039   -22446.596    114.35642   -22560.953     16667.17 
  991600    233.05563   -22471.773    88.920903   -22560.694    38266.041 
  991800    275.04183   -22445.467    104.94047   -22550.408    12918.197 
  992000     326.8113   -22426.616    124.69279   -22551.308    3730.4712 
  992200    342.63167   -22441.462    130.72895   -22572.191   -19072.404 
  992400     299.5433   -22452.936    114.28885   -22567.225   -7244.2891 
  992600    320.38582   -22432.549    122.24119   -22554.791    38740.703 
  992800    292.41063   -22438.394    111.56743   -22549.961    897.29474 
  993000    281.45973   -22456.606    107.38918   -22563.995   -17551.891 
  993200    306.79133   -22435.574    117.05429   -22552.629    24113.986 
  993400    291.48462   -22426.473    111.21412   -22537.687   -11300.385 
  993600    294.48187   -22448.316     112.3577   -22560.674   -17566.934 
  993800    300.48612   -22440.317    114.64858   -22554.965   -10382.778 
  994000    311.48883   -22436.654     118.8466   -22555.501   -3146.3267 
  994200    255.24596   -22463.297    97.387483   -22560.685   -8333.4312 
  994400    311.94183   -22435.828    119.01943   -22554.847   -2955.4082 
  994600    305.67931   -22429.341    116.63001   -22545.971      5565.87 
  994800     303.2254   -22457.893    115.69374   -22573.587     10526.39 
  995000    295.12368   -22440.189    112.60258   -22552.792    192.46208 
  995200     296.1612   -22434.694    112.99844   -22547.693   -11545.468 
  995400    303.64217   -22438.339    115.85275   -22554.192    3175.4132 
  995600    282.05114   -22442.863    107.61483   -22550.478    1444.6837 
  995800    301.52416   -22429.878    115.04464   -22544.922   -25439.528 
  996000    306.33037   -22433.105    116.87842   -22549.984    24646.822 
  996200    294.72595   -22450.946    112.45083   -22563.397    5765.5373 
  996400     336.5252   -22428.452    128.39907   -22556.851   -10793.792 
  996600    322.78526   -22432.706    123.15668   -22555.863    15508.454 
  996800    310.26192   -22439.305    118.37848   -22557.684    4476.8002 
  997000    299.80687   -22455.376    114.38942   -22569.765   -1721.7556 
  997200    315.86179   -22430.122    120.51507   -22550.637   -17874.419 
  997400    306.38248   -22432.772     116.8983   -22549.671   -5758.0638 
  997600    308.67615   -22448.254    117.77343   -22566.028   -3860.5717 
  997800    292.66994   -22432.841    111.66637   -22544.507   -3156.9059 
  998000    313.61141   -22421.161    119.65645   -22540.817    12624.352 
  998200    303.94169   -22448.345    115.96703   -22564.312    22192.308 
  998400    308.12838   -22439.871    117.56444   -22557.435   -371.39618 
  998600    326.28991   -22425.137    124.49385   -22549.631    20340.543 
  998800     305.4527   -22436.281    116.54355   -22552.825   -1750.2109 
  999000    298.10337   -22444.141    113.73946   -22557.881    43016.465 
  999200    274.52979   -22456.169    104.74511   -22560.914     6896.931 
  999400     294.7696   -22436.608    112.46748   -22549.076    19797.236 
  999600    291.85311   -22423.529    111.35471   -22534.883    12703.747 
  999800    325.62828   -22446.307    124.24142   -22570.549    4175.5621 
 1000000    309.86871   -22434.891    118.22845    -22553.12   -13612.593 
Loop time of 3598.88 on 8 procs for 1000000 steps with 129 atoms

Performance: 6.002 ns/day, 3.999 hours/ns, 277.865 timesteps/s
99.4% CPU use with 8 MPI tasks x no OpenMP threads

MPI task timing breakdown:
Section |  min time  |  avg time  |  max time  |%varavg| %total
---------------------------------------------------------------
Pair    | 2673.8     | 2986.7     | 3131.4     | 259.8 | 82.99
Neigh   | 0.34622    | 0.36296    | 0.38723    |   2.4 |  0.01
Comm    | 23.621     | 168.97     | 481.08     |1089.6 |  4.70
Output  | 0.12491    | 0.13861    | 0.22979    |   9.3 |  0.00
Modify  | 438.74     | 440.12     | 441.26     |   4.4 | 12.23
Other   |            | 2.548      |            |       |  0.07

Nlocal:    16.125 ave 38 max 2 min
Histogram: 1 1 2 2 0 0 0 0 1 1
Nghost:    542.375 ave 564 max 508 min
Histogram: 1 0 0 1 0 1 2 1 0 2
Neighs:    1055.25 ave 2415 max 159 min
Histogram: 1 1 2 2 0 0 0 0 1 1

Total # of neighbors = 8442
Ave neighs/atom = 65.4419
Neighbor list builds = 673
Dangerous builds = 0

Please see the log.cite file for references relevant to this simulation

Total wall time: 1:00:16
