ITEM: TIMESTEP
0
ITEM: NUMBER OF ATOMS
49
ITEM: BOX BOUNDS pp pp pp
0.0000000000000000e+00 1.1000000000000000e+01
0.0000000000000000e+00 1.1002000000000001e+01
0.0000000000000000e+00 1.1000000000000000e+01
ITEM: ATOMS id type x y z 
10 1 4.603 4.603 4.603 
11 1 3.085 3.085 3.085 
12 1 3.796 3.796 3.796 
46 1 0.726 0.725 0.725 
47 1 2.26 2.259 2.26 
48 1 1.551 1.55 1.55 
19 1 4.546 4.545 6.226 
20 1 3.013 3.013 7.764 
21 1 3.721 3.721 7.053 
31 1 0.668 0.667 10.103 
32 1 2.187 2.187 8.589 
33 1 1.476 1.475 9.298 
16 1 4.546 6.225 4.546 
17 1 3.013 7.765 3.013 
18 1 3.721 7.053 3.722 
25 1 0.668 10.103 0.668 
26 1 2.188 8.589 2.188 
27 1 1.476 9.298 1.476 
4 1 4.608 6.169 6.169 
5 1 3.086 7.684 7.684 
6 1 3.799 6.974 6.974 
37 1 0.729 10.046 10.046 
38 1 2.259 8.509 8.508 
39 1 1.552 9.219 9.219 
13 1 6.225 4.546 4.546 
14 1 7.764 3.013 3.013 
15 1 7.053 3.721 3.722 
28 1 10.102 0.667 0.668 
29 1 8.589 2.187 2.188 
30 1 9.298 1.475 1.476 
1 1 6.168 4.608 6.169 
2 1 7.684 3.086 7.684 
3 1 6.974 3.799 6.974 
40 1 10.045 0.728 10.046 
41 1 8.508 2.259 8.508 
42 1 9.218 1.551 9.218 
7 1 6.169 6.169 4.608 
8 1 7.684 7.684 3.086 
9 1 6.974 6.974 3.799 
43 1 10.046 10.047 0.729 
44 1 8.508 8.509 2.259 
45 1 9.219 9.219 1.552 
22 1 6.229 6.229 6.229 
23 1 7.764 7.765 7.765 
24 1 7.055 7.056 7.055 
34 1 10.108 10.108 10.107 
35 1 8.59 8.59 8.59 
36 1 9.301 9.301 9.3 
49 2 6.457 6.974 8.272 
ITEM: TIMESTEP
10
ITEM: NUMBER OF ATOMS
49
ITEM: BOX BOUNDS pp pp pp
0.0000000000000000e+00 1.1000000000000000e+01
0.0000000000000000e+00 1.1002000000000001e+01
0.0000000000000000e+00 1.1000000000000000e+01
ITEM: ATOMS id type x y z 
10 1 4.60271 4.60276 4.60286 
11 1 3.08554 3.08527 3.08556 
12 1 3.79626 3.79663 3.79634 
46 1 0.726267 0.725524 0.725152 
47 1 2.26101 2.2601 2.26081 
48 1 1.55204 1.55105 1.55124 
19 1 4.53898 4.5386 6.22588 
20 1 3.01129 3.01082 7.76653 
21 1 3.71812 3.71888 7.05368 
31 1 0.665899 0.665963 10.1039 
32 1 2.18668 2.18595 8.59014 
33 1 1.47401 1.47444 9.2985 
16 1 4.53628 6.22514 4.53884 
17 1 3.01181 7.76744 3.01183 
18 1 3.71776 7.05278 3.71875 
25 1 0.667103 10.1035 0.667072 
26 1 2.18701 8.59012 2.18706 
27 1 1.47482 9.29918 1.47478 
4 1 4.59493 6.16509 6.16692 
5 1 3.08675 7.68597 7.68574 
6 1 3.79469 6.97251 6.97286 
37 1 0.730192 10.0459 10.0457 
38 1 2.26037 8.50783 8.50722 
39 1 1.55165 9.21989 9.21943 
13 1 6.22511 4.5361 4.53778 
14 1 7.76719 3.01133 3.01166 
15 1 7.05255 3.71762 3.7182 
28 1 10.1027 0.666166 0.66538 
29 1 8.58986 2.18638 2.18728 
30 1 9.29887 1.47377 1.4748 
1 1 6.1648 4.59488 6.16709 
2 1 7.68624 3.08666 7.68612 
3 1 6.97211 3.79428 6.97278 
40 1 10.0453 0.728836 10.0461 
41 1 8.50681 2.2604 8.50674 
42 1 9.22119 1.54866 9.22129 
7 1 6.16806 6.16655 4.59598 
8 1 7.68631 7.68659 3.08601 
9 1 6.97372 6.97333 3.79369 
43 1 10.0457 10.0465 0.730491 
44 1 8.50745 8.50788 2.26001 
45 1 9.21956 9.22051 1.55154 
22 1 6.19615 6.19295 6.17801 
23 1 7.73277 7.77091 7.87185 
24 1 7.09434 7.07733 7.01659 
34 1 10.1067 10.109 10.1076 
35 1 8.60524 8.60042 8.58711 
36 1 9.30517 9.30254 9.29612 
49 2 6.50294 7.01395 8.3009 
ITEM: TIMESTEP
20
ITEM: NUMBER OF ATOMS
49
ITEM: BOX BOUNDS pp pp pp
0.0000000000000000e+00 1.1000000000000000e+01
0.0000000000000000e+00 1.1002000000000001e+01
0.0000000000000000e+00 1.1000000000000000e+01
ITEM: ATOMS id type x y z 
10 1 4.60312 4.60349 4.60213 
11 1 3.08555 3.08508 3.08574 
12 1 3.79618 3.79691 3.79594 
46 1 0.726991 0.725949 0.725814 
47 1 2.26114 2.26023 2.26081 
48 1 1.55185 1.55092 1.55128 
19 1 4.53647 4.53704 6.22558 
20 1 3.00996 3.01029 7.76807 
21 1 3.71721 3.71654 7.05335 
31 1 0.667714 0.666347 10.1044 
32 1 2.18576 2.18552 8.59038 
33 1 1.4741 1.47352 9.29997 
16 1 4.53268 6.2234 4.53695 
17 1 3.01106 7.76877 3.01103 
18 1 3.71646 7.05175 3.71777 
25 1 0.667849 10.1043 0.66735 
26 1 2.18641 8.59076 2.1866 
27 1 1.47457 9.29983 1.47413 
4 1 4.58919 6.16373 6.16496 
5 1 3.08746 7.68642 7.68617 
6 1 3.79265 6.97177 6.97226 
37 1 0.732327 10.0453 10.0453 
38 1 2.25982 8.50833 8.50768 
39 1 1.55346 9.21931 9.21897 
13 1 6.22305 4.53239 4.53505 
14 1 7.76836 3.01044 3.01033 
15 1 7.05248 3.71595 3.71758 
28 1 10.1034 0.666786 0.667501 
29 1 8.59046 2.18557 2.18664 
30 1 9.29971 1.47377 1.4743 
1 1 6.16353 4.58883 6.16543 
2 1 7.68652 3.08724 7.68643 
3 1 6.97173 3.79224 6.97256 
40 1 10.0442 0.731724 10.045 
41 1 8.50813 2.25951 8.50799 
42 1 9.21795 1.5523 9.21818 
7 1 6.16687 6.1652 4.58975 
8 1 7.68692 7.68752 3.08613 
9 1 6.97377 6.97273 3.79131 
43 1 10.0451 10.0457 0.732791 
44 1 8.50801 8.5085 2.25936 
45 1 9.2191 9.21997 1.55319 
22 1 6.20521 6.20205 6.18283 
23 1 7.71642 7.76253 7.88427 
24 1 7.08935 7.07291 7.01178 
34 1 10.1122 10.1124 10.1121 
35 1 8.60798 8.60132 8.58448 
36 1 9.31705 9.31357 9.3039 
49 2 6.51157 7.01833 8.29653 
ITEM: TIMESTEP
30
ITEM: NUMBER OF ATOMS
49
ITEM: BOX BOUNDS pp pp pp
0.0000000000000000e+00 1.1000000000000000e+01
0.0000000000000000e+00 1.1002000000000001e+01
0.0000000000000000e+00 1.1000000000000000e+01
ITEM: ATOMS id type x y z 
10 1 4.6031 4.60395 4.60152 
11 1 3.08519 3.08529 3.08569 
12 1 3.7967 3.79636 3.79582 
46 1 0.727389 0.726516 0.726437 
47 1 2.26132 2.26058 2.26106 
48 1 1.55217 1.55096 1.55149 
19 1 4.5366 4.53692 6.2252 
20 1 3.00918 3.00917 7.76866 
21 1 3.71628 3.71624 7.05366 
31 1 0.668003 0.667188 10.105 
32 1 2.18537 2.18516 8.59093 
33 1 1.47362 1.47299 9.30056 
16 1 4.53106 6.22175 4.53652 
17 1 3.01029 7.76937 3.0099 
18 1 3.71505 7.05196 3.71734 
25 1 0.668278 10.1046 0.667828 
26 1 2.18605 8.59091 2.186 
27 1 1.47437 9.30111 1.47422 
4 1 4.58961 6.16159 6.16321 
5 1 3.08783 7.68613 7.68581 
6 1 3.79235 6.971 6.97174 
37 1 0.735013 10.0452 10.0451 
38 1 2.26055 8.50782 8.50717 
39 1 1.55466 9.219 9.2187 
13 1 6.22151 4.53074 4.53484 
14 1 7.7694 3.0095 3.00951 
15 1 7.052 3.71476 3.71649 
28 1 10.104 0.667432 0.667647 
29 1 8.59102 2.1854 2.18615 
30 1 9.30024 1.47311 1.474 
1 1 6.16146 4.58924 6.16342 
2 1 7.68619 3.0876 7.6861 
3 1 6.97098 3.79198 6.97201 
40 1 10.0443 0.734155 10.0452 
41 1 8.50765 2.2603 8.50749 
42 1 9.218 1.55289 9.21828 
7 1 6.16607 6.16331 4.59037 
8 1 7.6867 7.68722 3.08569 
9 1 6.97375 6.97276 3.79135 
43 1 10.045 10.0457 0.735236 
44 1 8.50778 8.50841 2.25965 
45 1 9.21937 9.22003 1.55397 
22 1 6.20868 6.20538 6.18118 
23 1 7.70541 7.75557 7.88796 
24 1 7.08988 7.07181 7.00504 
34 1 10.1179 10.1183 10.1165 
35 1 8.61246 8.60469 8.5853 
36 1 9.31926 9.31492 9.30346 
49 2 6.50997 7.01804 8.30158 
ITEM: TIMESTEP
40
ITEM: NUMBER OF ATOMS
49
ITEM: BOX BOUNDS pp pp pp
0.0000000000000000e+00 1.1000000000000000e+01
0.0000000000000000e+00 1.1002000000000001e+01
0.0000000000000000e+00 1.1000000000000000e+01
ITEM: ATOMS id type x y z 
10 1 4.60292 4.6039 4.60035 
11 1 3.08524 3.08488 3.08569 
12 1 3.79635 3.79685 3.79545 
46 1 0.728099 0.726942 0.727093 
47 1 2.26183 2.26086 2.26145 
48 1 1.55223 1.5515 1.55188 
19 1 4.53685 4.53713 6.22591 
20 1 3.0085 3.00836 7.76857 
21 1 3.71584 3.71609 7.05459 
31 1 0.668475 0.667652 10.1055 
32 1 2.18508 2.18479 8.59096 
33 1 1.47363 1.47313 9.30152 
16 1 4.52974 6.22087 4.53661 
17 1 3.0097 7.76929 3.00936 
18 1 3.71443 7.0522 3.71704 
25 1 0.66862 10.1054 0.668622 
26 1 2.18591 8.59141 2.18596 
27 1 1.47429 9.30128 1.47372 
4 1 4.58954 6.16005 6.16193 
5 1 3.08861 7.68509 7.68503 
6 1 3.7926 6.97007 6.9704 
37 1 0.736963 10.0453 10.0453 
38 1 2.26135 8.50715 8.50652 
39 1 1.55612 9.21859 9.21834 
13 1 6.22084 4.52934 4.53465 
14 1 7.76967 3.00879 3.00886 
15 1 7.05211 3.71386 3.71582 
28 1 10.1044 0.667633 0.66818 
29 1 8.5912 2.18505 2.18584 
30 1 9.30118 1.47322 1.47386 
1 1 6.16007 4.58917 6.16221 
2 1 7.68525 3.08838 7.68523 
3 1 6.96981 3.79226 6.97093 
40 1 10.0444 0.735794 10.0452 
41 1 8.50688 2.2608 8.50672 
42 1 9.21786 1.55473 9.21817 
7 1 6.16571 6.1625 4.59088 
8 1 7.68598 7.68654 3.08582 
9 1 6.97328 6.97205 3.79155 
43 1 10.0455 10.0461 0.736928 
44 1 8.50754 8.50804 2.2601 
45 1 9.21908 9.2201 1.55487 
22 1 6.21061 6.20736 6.17839 
23 1 7.70183 7.75375 7.89116 
24 1 7.08913 7.0715 7.00437 
34 1 10.1225 10.1224 10.1192 
35 1 8.61445 8.60589 8.58506 
36 1 9.32046 9.31576 9.30309 
49 2 6.50633 7.01531 8.30309 
ITEM: TIMESTEP
50
ITEM: NUMBER OF ATOMS
49
ITEM: BOX BOUNDS pp pp pp
0.0000000000000000e+00 1.1000000000000000e+01
0.0000000000000000e+00 1.1002000000000001e+01
0.0000000000000000e+00 1.1000000000000000e+01
ITEM: ATOMS id type x y z 
10 1 4.60291 4.60384 4.59934 
11 1 3.08527 3.08458 3.08582 
12 1 3.79622 3.79738 3.79504 
46 1 0.728637 0.727515 0.727854 
47 1 2.26206 2.26123 2.26203 
48 1 1.5528 1.55188 1.55193 
19 1 4.53707 4.53721 6.22689 
20 1 3.00808 3.00779 7.76848 
21 1 3.71552 3.71601 7.05519 
31 1 0.668467 0.667994 10.106 
32 1 2.18481 2.18464 8.59114 
33 1 1.47367 1.47299 9.30203 
16 1 4.52831 6.22041 4.53641 
17 1 3.00947 7.7696 3.00889 
18 1 3.71323 7.05164 3.71674 
25 1 0.668793 10.1057 0.668712 
26 1 2.18607 8.59167 2.18552 
27 1 1.47378 9.30175 1.47418 
4 1 4.58947 6.15862 6.16094 
5 1 3.08923 7.68412 7.68435 
6 1 3.79278 6.96928 6.96923 
37 1 0.73848 10.0455 10.0455 
38 1 2.26203 8.50663 8.50603 
39 1 1.55744 9.2183 9.21802 
13 1 6.22017 4.52766 4.53432 
14 1 7.76981 3.0082 3.00838 
15 1 7.05205 3.71311 3.71533 
28 1 10.1048 0.667642 0.668184 
29 1 8.59151 2.185 2.18552 
30 1 9.30169 1.47299 1.47388 
1 1 6.15892 4.5891 6.16088 
2 1 7.6846 3.08893 7.68423 
3 1 6.96847 3.7925 6.97043 
40 1 10.0446 0.737018 10.0454 
41 1 8.50637 2.26122 8.50622 
42 1 9.2178 1.55623 9.2181 
7 1 6.16593 6.16184 4.59146 
8 1 7.68559 7.68597 3.08582 
9 1 6.97274 6.97168 3.79147 
43 1 10.0461 10.0466 0.738136 
44 1 8.5074 8.50787 2.26033 
45 1 9.21908 9.22022 1.55567 
22 1 6.21189 6.20863 6.17572 
23 1 7.69809 7.75188 7.89462 
24 1 7.08894 7.07204 7.00516 
34 1 10.1255 10.1251 10.1204 
35 1 8.61617 8.60716 8.58546 
36 1 9.32215 9.3169 9.30295 
49 2 6.50406 7.01329 8.3036 
ITEM: TIMESTEP
60
ITEM: NUMBER OF ATOMS
49
ITEM: BOX BOUNDS pp pp pp
0.0000000000000000e+00 1.1000000000000000e+01
0.0000000000000000e+00 1.1002000000000001e+01
0.0000000000000000e+00 1.1000000000000000e+01
ITEM: ATOMS id type x y z 
10 1 4.60272 4.60453 4.59836 
11 1 3.08493 3.08495 3.0857 
12 1 3.79684 3.79671 3.79513 
46 1 0.729227 0.728005 0.728115 
47 1 2.26244 2.26159 2.26216 
48 1 1.55276 1.55187 1.55244 
19 1 4.53711 4.5376 6.22777 
20 1 3.00749 3.00763 7.7685 
21 1 3.71586 3.71555 7.05544 
31 1 0.668574 0.668096 10.1066 
32 1 2.18469 2.18451 8.5913 
33 1 1.47356 1.47291 9.30235 
16 1 4.52698 6.21978 4.53634 
17 1 3.00911 7.76975 3.00861 
18 1 3.71264 7.0512 3.71646 
25 1 0.668304 10.1059 0.669017 
26 1 2.18572 8.59178 2.18561 
27 1 1.47436 9.30229 1.47375 
4 1 4.58951 6.15787 6.15961 
5 1 3.08965 7.68387 7.6833 
6 1 3.79296 6.96773 6.96926 
37 1 0.739626 10.0457 10.0459 
38 1 2.26267 8.50616 8.5058 
39 1 1.5582 9.21834 9.21766 
13 1 6.21957 4.52659 4.5338 
14 1 7.76998 3.00814 3.00771 
15 1 7.05173 3.71182 3.71557 
28 1 10.1051 0.667464 0.668289 
29 1 8.59184 2.18495 2.18533 
30 1 9.30197 1.47283 1.47378 
1 1 6.15762 4.5892 6.16019 
2 1 7.68372 3.08936 7.6839 
3 1 6.9681 3.79255 6.96921 
40 1 10.0449 0.738124 10.0457 
41 1 8.50601 2.2618 8.50596 
42 1 9.21766 1.55708 9.21778 
7 1 6.16575 6.16163 4.59191 
8 1 7.68486 7.68581 3.08549 
9 1 6.97328 6.97096 3.79183 
43 1 10.0465 10.0471 0.73891 
44 1 8.50714 8.5079 2.2604 
45 1 9.21958 9.22028 1.55626 
22 1 6.21282 6.20955 6.17361 
23 1 7.69563 7.75079 7.89752 
24 1 7.08874 7.07249 7.00584 
34 1 10.1278 10.1269 10.1212 
35 1 8.61728 8.60805 8.58602 
36 1 9.3236 9.31781 9.30265 
49 2 6.50194 7.01143 8.30405 
ITEM: TIMESTEP
70
ITEM: NUMBER OF ATOMS
49
ITEM: BOX BOUNDS pp pp pp
0.0000000000000000e+00 1.1000000000000000e+01
0.0000000000000000e+00 1.1002000000000001e+01
0.0000000000000000e+00 1.1000000000000000e+01
ITEM: ATOMS id type x y z 
10 1 4.60309 4.60484 4.59655 
11 1 3.08498 3.08452 3.08596 
12 1 3.79675 3.79767 3.79432 
46 1 0.730183 0.728898 0.7291 
47 1 2.26271 2.26193 2.2629 
48 1 1.55342 1.55239 1.55254 
19 1 4.53773 4.5378 6.22986 
20 1 3.00712 3.00696 7.76848 
21 1 3.71521 3.71544 7.05605 
31 1 0.668871 0.668378 10.1076 
32 1 2.18462 2.18409 8.59175 
33 1 1.47299 1.47309 9.30273 
16 1 4.52422 6.21817 4.53566 
17 1 3.00833 7.76988 3.00755 
18 1 3.71122 7.05076 3.71664 
25 1 0.668443 10.1066 0.669134 
26 1 2.18605 8.5923 2.18514 
27 1 1.47362 9.30279 1.47422 
4 1 4.5897 6.1558 6.15814 
5 1 3.09047 7.68237 7.68227 
6 1 3.79317 6.96663 6.9675 
37 1 0.74176 10.0463 10.046 
38 1 2.26362 8.50582 8.50513 
39 1 1.56024 9.2175 9.21746 
13 1 6.2183 4.52364 4.53337 
14 1 7.77015 3.00737 3.00742 
15 1 7.05112 3.71045 3.71432 
28 1 10.1058 0.667174 0.668562 
29 1 8.59259 2.18471 2.18524 
30 1 9.30235 1.47285 1.47307 
1 1 6.15562 4.58923 6.15841 
2 1 7.68231 3.08995 7.68252 
3 1 6.96676 3.79311 6.96819 
40 1 10.0456 0.74009 10.0459 
41 1 8.50546 2.26289 8.50521 
42 1 9.21729 1.55877 9.21779 
7 1 6.16662 6.16094 4.59323 
8 1 7.68431 7.68483 3.08485 
9 1 6.97293 6.97103 3.79223 
43 1 10.0476 10.0481 0.740845 
44 1 8.50718 8.50804 2.2609 
45 1 9.21953 9.22021 1.55674 
22 1 6.21464 6.2113 6.16958 
23 1 7.69103 7.7489 7.90344 
24 1 7.08845 7.07365 7.00748 
34 1 10.1317 10.1302 10.1219 
35 1 8.61888 8.60955 8.58743 
36 1 9.32662 9.31947 9.30179 
49 2 6.49772 7.00764 8.30491 
ITEM: TIMESTEP
80
ITEM: NUMBER OF ATOMS
49
ITEM: BOX BOUNDS pp pp pp
0.0000000000000000e+00 1.1000000000000000e+01
0.0000000000000000e+00 1.1002000000000001e+01
0.0000000000000000e+00 1.1000000000000000e+01
ITEM: ATOMS id type x y z 
10 1 4.60336 4.60518 4.59559 
11 1 3.08501 3.08442 3.08604 
12 1 3.79673 3.79799 3.79401 
46 1 0.73068 0.729374 0.729273 
47 1 2.26293 2.26221 2.26305 
48 1 1.55352 1.55239 1.55294 
19 1 4.53784 4.53801 6.23068 
20 1 3.00666 3.00669 7.76834 
21 1 3.71552 3.71538 7.05669 
31 1 0.668715 0.668569 10.1079 
32 1 2.18437 2.18413 8.59179 
33 1 1.47325 1.47283 9.30306 
16 1 4.52307 6.21758 4.53563 
17 1 3.00827 7.76981 3.00771 
18 1 3.71043 7.05032 3.71599 
25 1 0.668183 10.1066 0.669219 
26 1 2.18593 8.59244 2.18505 
27 1 1.47378 9.30318 1.47421 
4 1 4.58993 6.15504 6.15737 
5 1 3.09062 7.68177 7.68176 
6 1 3.79348 6.96619 6.96703 
37 1 0.742481 10.0464 10.0462 
38 1 2.26419 8.50538 8.50494 
39 1 1.56081 9.21774 9.21726 
13 1 6.21766 4.52268 4.53303 
14 1 7.77037 3.0071 3.00695 
15 1 7.05059 3.70963 3.71437 
28 1 10.1059 0.667088 0.668349 
29 1 8.59284 2.18484 2.18496 
30 1 9.3026 1.47246 1.4733 
1 1 6.15493 4.58955 6.15779 
2 1 7.68184 3.0902 7.68209 
3 1 6.96611 3.79315 6.96762 
40 1 10.0458 0.740782 10.0461 
41 1 8.5053 2.26325 8.50516 
42 1 9.21723 1.55948 9.21752 
7 1 6.16699 6.1609 4.59421 
8 1 7.684 7.68459 3.08449 
9 1 6.97313 6.97089 3.79247 
43 1 10.048 10.0484 0.741165 
44 1 8.50708 8.50798 2.26066 
45 1 9.21994 9.22063 1.55747 
22 1 6.21529 6.21196 6.16783 
23 1 7.68924 7.74823 7.90599 
24 1 7.08807 7.07401 7.00815 
34 1 10.1332 10.1315 10.1219 
35 1 8.61929 8.61004 8.58824 
36 1 9.32792 9.32012 9.30128 
49 2 6.49594 7.00596 8.30513 
ITEM: TIMESTEP
90
ITEM: NUMBER OF ATOMS
49
ITEM: BOX BOUNDS pp pp pp
0.0000000000000000e+00 1.1000000000000000e+01
0.0000000000000000e+00 1.1002000000000001e+01
0.0000000000000000e+00 1.1000000000000000e+01
ITEM: ATOMS id type x y z 
10 1 4.60343 4.60557 4.59497 
11 1 3.08482 3.08455 3.08609 
12 1 3.79711 3.79783 3.79377 
46 1 0.730989 0.729648 0.729464 
47 1 2.26302 2.26232 2.26322 
48 1 1.55369 1.55251 1.55309 
19 1 4.53806 4.53814 6.23133 
20 1 3.00654 3.00656 7.76829 
21 1 3.71551 3.71538 7.05694 
31 1 0.668717 0.668642 10.1081 
32 1 2.1843 2.18407 8.59183 
33 1 1.47325 1.47283 9.30322 
16 1 4.52227 6.21705 4.53546 
17 1 3.00811 7.76978 3.00756 
18 1 3.70996 7.05011 3.71589 
25 1 0.668096 10.1068 0.669366 
26 1 2.18595 8.59271 2.18513 
27 1 1.47374 9.30308 1.47398 
4 1 4.58993 6.15455 6.1569 
5 1 3.09079 7.68146 7.68139 
6 1 3.79354 6.96573 6.96676 
37 1 0.742966 10.0465 10.0463 
38 1 2.26451 8.50528 8.50479 
39 1 1.56125 9.21764 9.21723 
13 1 6.21715 4.5219 4.53286 
14 1 7.77035 3.0069 3.00681 
15 1 7.05036 3.70923 3.71423 
28 1 10.1059 0.66692 0.668289 
29 1 8.59295 2.18475 2.18486 
30 1 9.30289 1.4725 1.47327 
1 1 6.15437 4.5895 6.15731 
2 1 7.68147 3.09032 7.68175 
3 1 6.96575 3.79327 6.96733 
40 1 10.0459 0.741235 10.0462 
41 1 8.50516 2.26355 8.50508 
42 1 9.21724 1.55991 9.21742 
7 1 6.16741 6.16096 4.59487 
8 1 7.68392 7.68456 3.08446 
9 1 6.97307 6.97058 3.79217 
43 1 10.0482 10.0487 0.741554 
44 1 8.5071 8.50806 2.26067 
45 1 9.22005 9.2207 1.55764 
22 1 6.21588 6.21253 6.16684 
23 1 7.6879 7.74765 7.90755 
24 1 7.08806 7.07456 7.00903 
34 1 10.1343 10.1323 10.1218 
35 1 8.61948 8.61032 8.58882 
36 1 9.32879 9.32055 9.30091 
49 2 6.4948 7.00483 8.30524 
ITEM: TIMESTEP
100
ITEM: NUMBER OF ATOMS
49
ITEM: BOX BOUNDS pp pp pp
0.0000000000000000e+00 1.1000000000000000e+01
0.0000000000000000e+00 1.1002000000000001e+01
0.0000000000000000e+00 1.1000000000000000e+01
ITEM: ATOMS id type x y z 
10 1 4.6042 4.61028 4.58735 
11 1 3.08267 3.08548 3.08709 
12 1 3.80153 3.7971 3.78977 
46 1 0.734216 0.733157 0.73081 
47 1 2.26378 2.2642 2.26503 
48 1 1.55543 1.55234 1.55497 
19 1 4.54062 4.54068 6.23975 
20 1 3.00464 3.00544 7.76819 
21 1 3.71665 3.71447 7.05941 
31 1 0.668576 0.670671 10.1112 
32 1 2.18306 2.18481 8.59289 
33 1 1.47423 1.47094 9.30376 
16 1 4.51348 6.21011 4.53281 
17 1 3.00645 7.76871 3.00483 
18 1 3.70387 7.0484 3.71692 
25 1 0.668086 10.1089 0.670014 
26 1 2.18761 8.59602 2.18498 
27 1 1.47073 9.30141 1.47364 
4 1 4.59083 6.15001 6.15118 
5 1 3.0928 7.67871 7.67681 
6 1 3.79363 6.95921 6.96458 
37 1 0.748161 10.0482 10.0463 
38 1 2.2682 8.50474 8.50318 
39 1 1.56613 9.21575 9.21725 
13 1 6.20993 4.51256 4.52979 
14 1 7.76861 3.00375 3.00407 
15 1 7.05066 3.70533 3.71441 
28 1 10.1057 0.663745 0.668762 
29 1 8.59436 2.18273 2.18501 
30 1 9.30584 1.47513 1.47046 
1 1 6.14764 4.58814 6.15181 
2 1 7.67707 3.08993 7.6772 
3 1 6.96278 3.79727 6.9662 
40 1 10.0474 0.746139 10.0466 
41 1 8.50392 2.26707 8.50386 
42 1 9.21657 1.56462 9.21645 
7 1 6.17425 6.16119 4.60364 
8 1 7.68459 7.68249 3.08332 
9 1 6.97035 6.97112 3.78981 
43 1 10.0528 10.0524 0.747124 
44 1 8.50859 8.5096 2.26239 
45 1 9.21945 9.22063 1.55595 
22 1 6.22196 6.21874 6.15502 
23 1 7.67409 7.74293 7.92846 
24 1 7.08636 7.07907 7.01563 
34 1 10.1463 10.1412 10.1194 
35 1 8.62099 8.61307 8.59629 
36 1 9.33866 9.3254 9.29618 
49 2 6.4806 6.99108 8.30738 
ITEM: TIMESTEP
110
ITEM: NUMBER OF ATOMS
49
ITEM: BOX BOUNDS pp pp pp
0.0000000000000000e+00 1.1000000000000000e+01
0.0000000000000000e+00 1.1002000000000001e+01
0.0000000000000000e+00 1.1000000000000000e+01
ITEM: ATOMS id type x y z 
10 1 4.60649 4.61029 4.58422 
11 1 3.08426 3.08374 3.08661 
12 1 3.79845 3.80037 3.78918 
46 1 0.735046 0.732634 0.73077 
47 1 2.26355 2.26312 2.26591 
48 1 1.555 1.55366 1.55354 
19 1 4.54193 4.54113 6.24196 
20 1 3.00458 3.00508 7.7676 
21 1 3.71723 3.7157 7.06149 
31 1 0.669674 0.670472 10.1116 
32 1 2.18378 2.18325 8.59202 
33 1 1.47281 1.47378 9.30525 
16 1 4.51175 6.20963 4.5343 
17 1 3.00555 7.76924 3.00651 
18 1 3.7041 7.04582 3.71426 
25 1 0.666361 10.1077 0.670525 
26 1 2.18623 8.59452 2.18469 
27 1 1.47321 9.30445 1.47394 
4 1 4.59046 6.14805 6.15105 
5 1 3.09231 7.67667 7.67724 
6 1 3.79464 6.96144 6.96243 
37 1 0.748526 10.0475 10.0463 
38 1 2.26903 8.50401 8.50342 
39 1 1.5671 9.21646 9.21597 
13 1 6.21083 4.5121 4.53077 
14 1 7.7703 3.00379 3.00513 
15 1 7.04656 3.70292 3.71229 
28 1 10.1063 0.664713 0.667914 
29 1 8.59524 2.1846 2.18385 
30 1 9.30441 1.47179 1.47208 
1 1 6.14721 4.5896 6.1525 
2 1 7.67732 3.09206 7.67803 
3 1 6.96083 3.79379 6.9638 
40 1 10.0477 0.746558 10.0462 
41 1 8.50392 2.26766 8.5036 
42 1 9.21639 1.56494 9.21631 
7 1 6.17396 6.16238 4.6038 
8 1 7.68244 7.68303 3.08075 
9 1 6.97497 6.971 3.79347 
43 1 10.0526 10.0525 0.746006 
44 1 8.50825 8.50927 2.26035 
45 1 9.22157 9.22212 1.55841 
22 1 6.22308 6.22027 6.15392 
23 1 7.67106 7.74172 7.93199 
24 1 7.08593 7.08037 7.01771 
34 1 10.148 10.1423 10.1172 
35 1 8.61975 8.61271 8.59856 
36 1 9.34007 9.32581 9.29491 
49 2 6.47823 6.98828 8.30764 
ITEM: TIMESTEP
120
ITEM: NUMBER OF ATOMS
49
ITEM: BOX BOUNDS pp pp pp
0.0000000000000000e+00 1.1000000000000000e+01
0.0000000000000000e+00 1.1002000000000001e+01
0.0000000000000000e+00 1.1000000000000000e+01
ITEM: ATOMS id type x y z 
10 1 4.60711 4.61085 4.58284 
11 1 3.08409 3.08382 3.08659 
12 1 3.79873 3.80046 3.78863 
46 1 0.735321 0.73279 0.730397 
47 1 2.2635 2.26296 2.26593 
48 1 1.55498 1.55369 1.55365 
19 1 4.54292 4.54156 6.24326 
20 1 3.00485 3.005 7.76763 
21 1 3.71729 3.71625 7.06191 
31 1 0.669694 0.671154 10.1121 
32 1 2.18361 2.18348 8.5919 
33 1 1.47319 1.4736 9.30526 
16 1 4.51128 6.20885 4.53382 
17 1 3.0053 7.76886 3.0062 
18 1 3.70338 7.0457 3.71456 
25 1 0.666 10.1076 0.670795 
26 1 2.18615 8.59463 2.18471 
27 1 1.47327 9.30465 1.47396 
4 1 4.59049 6.14761 6.15093 
5 1 3.09246 7.67657 7.67697 
6 1 3.79449 6.96092 6.96227 
37 1 0.748827 10.0474 10.0461 
38 1 2.26954 8.50375 8.5033 
39 1 1.56736 9.21656 9.21576 
13 1 6.21005 4.51165 4.53054 
14 1 7.76987 3.00342 3.00505 
15 1 7.04642 3.70266 3.71228 
28 1 10.1061 0.664579 0.667562 
29 1 8.59548 2.1848 2.18362 
30 1 9.30434 1.47121 1.47243 
1 1 6.14662 4.58949 6.15249 
2 1 7.67714 3.09225 7.67787 
3 1 6.96032 3.79338 6.96348 
40 1 10.0477 0.746705 10.0461 
41 1 8.50394 2.26788 8.50372 
42 1 9.21651 1.56537 9.21612 
7 1 6.1749 6.16291 4.60463 
8 1 7.68214 7.68302 3.08012 
9 1 6.97601 6.97104 3.79418 
43 1 10.0528 10.0527 0.745749 
44 1 8.50801 8.50914 2.25952 
45 1 9.22236 9.2229 1.55939 
22 1 6.22374 6.22106 6.15323 
23 1 7.66957 7.74127 7.93427 
24 1 7.08546 7.08081 7.01841 
34 1 10.149 10.1429 10.1159 
35 1 8.61902 8.61244 8.59973 
36 1 9.34072 9.32599 9.29425 
49 2 6.47687 6.9867 8.3079 
ITEM: TIMESTEP
130
ITEM: NUMBER OF ATOMS
49
ITEM: BOX BOUNDS pp pp pp
0.0000000000000000e+00 1.1000000000000000e+01
0.0000000000000000e+00 1.1002000000000001e+01
0.0000000000000000e+00 1.1000000000000000e+01
ITEM: ATOMS id type x y z 
10 1 4.60744 4.6112 4.58208 
11 1 3.08403 3.08383 3.08658 
12 1 3.79884 3.80058 3.78833 
46 1 0.735437 0.732921 0.730196 
47 1 2.26346 2.26296 2.26595 
48 1 1.55502 1.55357 1.55373 
19 1 4.54339 4.54178 6.24395 
20 1 3.00499 3.00497 7.76767 
21 1 3.71729 3.71649 7.06213 
31 1 0.669857 0.671363 10.1123 
32 1 2.18362 2.18345 8.59178 
33 1 1.47321 1.4738 9.30538 
16 1 4.51097 6.20854 4.53379 
17 1 3.00505 7.7688 3.00623 
18 1 3.70327 7.04535 3.7144 
25 1 0.665876 10.1076 0.670861 
26 1 2.18628 8.59478 2.18469 
27 1 1.473 9.30454 1.47407 
4 1 4.59057 6.14752 6.15083 
5 1 3.09265 7.6766 7.67687 
6 1 3.79418 6.96052 6.96213 
37 1 0.748961 10.0473 10.046 
38 1 2.26977 8.5037 8.50323 
39 1 1.56752 9.2165 9.21571 
13 1 6.20971 4.51143 4.53041 
14 1 7.76964 3.00326 3.00503 
15 1 7.04636 3.70252 3.71223 
28 1 10.106 0.664286 0.667573 
29 1 8.59556 2.18473 2.18367 
30 1 9.30432 1.47121 1.47229 
1 1 6.14629 4.58933 6.15246 
2 1 7.67703 3.09225 7.67779 
3 1 6.96018 3.79332 6.96338 
40 1 10.0476 0.746794 10.046 
41 1 8.50386 2.26804 8.50377 
42 1 9.21664 1.56559 9.21595 
7 1 6.17539 6.16318 4.60509 
8 1 7.68212 7.68304 3.07985 
9 1 6.9764 6.97105 3.79435 
43 1 10.0531 10.053 0.745884 
44 1 8.50805 8.50928 2.25937 
45 1 9.22254 9.22302 1.55934 
22 1 6.2241 6.2215 6.15293 
23 1 7.66877 7.741 7.93535 
24 1 7.08527 7.08109 7.01886 
34 1 10.1496 10.1432 10.1152 
35 1 8.61866 8.61231 8.60033 
36 1 9.34102 9.32606 9.29392 
49 2 6.47617 6.98589 8.30804 
ITEM: TIMESTEP
140
ITEM: NUMBER OF ATOMS
49
ITEM: BOX BOUNDS pp pp pp
0.0000000000000000e+00 1.1000000000000000e+01
0.0000000000000000e+00 1.1002000000000001e+01
0.0000000000000000e+00 1.1000000000000000e+01
ITEM: ATOMS id type x y z 
10 1 4.61061 4.61483 4.57405 
11 1 3.08349 3.08366 3.08653 
12 1 3.79982 3.80221 3.78488 
46 1 0.736939 0.733964 0.728508 
47 1 2.26305 2.26245 2.26681 
48 1 1.55542 1.55346 1.5534 
19 1 4.54743 4.54461 6.25072 
20 1 3.00529 3.00509 7.76781 
21 1 3.71936 3.71809 7.06545 
31 1 0.671274 0.673725 10.1145 
32 1 2.18385 2.18356 8.59096 
33 1 1.47329 1.47513 9.30567 
16 1 4.5083 6.20483 4.53251 
17 1 3.00359 7.76693 3.00547 
18 1 3.70047 7.0436 3.71519 
25 1 0.664059 10.1067 0.671422 
26 1 2.18633 8.59513 2.18466 
27 1 1.47252 9.30524 1.47496 
4 1 4.59029 6.14541 6.14966 
5 1 3.09302 7.67545 7.67577 
6 1 3.79405 6.95906 6.96094 
37 1 0.749981 10.047 10.0448 
38 1 2.27189 8.5034 8.50289 
39 1 1.56894 9.21593 9.21482 
13 1 6.20724 4.50941 4.52926 
14 1 7.76843 3.0016 3.00478 
15 1 7.04438 3.70028 3.71125 
28 1 10.1045 0.66229 0.666778 
29 1 8.59639 2.18449 2.18365 
30 1 9.30401 1.47025 1.47197 
1 1 6.14298 4.58749 6.15202 
2 1 7.67591 3.09158 7.67651 
3 1 6.95863 3.79373 6.96367 
40 1 10.0476 0.747506 10.0452 
41 1 8.50389 2.26983 8.50375 
42 1 9.21691 1.56706 9.21529 
7 1 6.18104 6.16588 4.61049 
8 1 7.68272 7.68284 3.07727 
9 1 6.97938 6.9724 3.79559 
43 1 10.0555 10.0549 0.747234 
44 1 8.50839 8.51015 2.25781 
45 1 9.22389 9.22461 1.55925 
22 1 6.22732 6.22596 6.14963 
23 1 7.66047 7.73815 7.94663 
24 1 7.08289 7.08362 7.02308 
34 1 10.1554 10.1463 10.1077 
35 1 8.6148 8.61095 8.60655 
36 1 9.34402 9.32683 9.2907 
49 2 6.469 6.97746 8.30962 
ITEM: TIMESTEP
150
ITEM: NUMBER OF ATOMS
49
ITEM: BOX BOUNDS pp pp pp
0.0000000000000000e+00 1.1000000000000000e+01
0.0000000000000000e+00 1.1002000000000001e+01
0.0000000000000000e+00 1.1000000000000000e+01
ITEM: ATOMS id type x y z 
10 1 4.61117 4.61531 4.573 
11 1 3.08328 3.08366 3.08665 
12 1 3.80025 3.80237 3.78416 
46 1 0.73729 0.73409 0.728168 
47 1 2.26306 2.26238 2.267 
48 1 1.5554 1.55355 1.55328 
19 1 4.54795 4.54495 6.25148 
20 1 3.00538 3.00526 7.76797 
21 1 3.71971 3.71817 7.06571 
31 1 0.671364 0.674147 10.1147 
32 1 2.1836 2.18367 8.59072 
33 1 1.4738 1.47514 9.3061 
16 1 4.50767 6.20483 4.53302 
17 1 3.00312 7.76705 3.00611 
18 1 3.70062 7.0428 3.71395 
25 1 0.663929 10.1067 0.671608 
26 1 2.18646 8.59539 2.18479 
27 1 1.47211 9.30468 1.47483 
4 1 4.59006 6.14526 6.14947 
5 1 3.09306 7.67545 7.67556 
6 1 3.79404 6.95874 6.96106 
37 1 0.749823 10.0468 10.0446 
38 1 2.27202 8.50333 8.50285 
39 1 1.56915 9.21599 9.21474 
13 1 6.20692 4.5092 4.52928 
14 1 7.76824 3.00133 3.00467 
15 1 7.04414 3.70028 3.7114 
28 1 10.1041 0.661982 0.666756 
29 1 8.59641 2.18444 2.18368 
30 1 9.30384 1.47005 1.47192 
1 1 6.14272 4.5876 6.15218 
2 1 7.67605 3.09222 7.67686 
3 1 6.95802 3.79247 6.96291 
40 1 10.0477 0.747532 10.045 
41 1 8.50398 2.27009 8.50363 
42 1 9.21674 1.56704 9.2153 
7 1 6.18187 6.16612 4.61081 
8 1 7.68293 7.68304 3.07707 
9 1 6.97983 6.97249 3.79553 
43 1 10.0559 10.0552 0.747458 
44 1 8.50858 8.51039 2.25752 
45 1 9.224 9.2247 1.55912 
22 1 6.22771 6.22655 6.14942 
23 1 7.65954 7.73793 7.94822 
24 1 7.08262 7.08396 7.02358 
34 1 10.1563 10.1466 10.1066 
35 1 8.61425 8.61075 8.60734 
36 1 9.34423 9.32685 9.29038 
49 2 6.46811 6.97638 8.30996 
ITEM: TIMESTEP
160
ITEM: NUMBER OF ATOMS
49
ITEM: BOX BOUNDS pp pp pp
0.0000000000000000e+00 1.1000000000000000e+01
0.0000000000000000e+00 1.1002000000000001e+01
0.0000000000000000e+00 1.1000000000000000e+01
ITEM: ATOMS id type x y z 
10 1 4.61478 4.61869 4.56463 
11 1 3.08294 3.08332 3.0866 
12 1 3.80124 3.80434 3.78037 
46 1 0.739176 0.73512 0.725787 
47 1 2.26213 2.26162 2.26851 
48 1 1.55665 1.55402 1.55166 
19 1 4.55211 4.54702 6.25707 
20 1 3.00656 3.00626 7.76853 
21 1 3.72162 3.7194 7.06857 
31 1 0.6736 0.677734 10.1185 
32 1 2.18422 2.18458 8.59097 
33 1 1.47361 1.47561 9.30508 
16 1 4.50519 6.20279 4.53269 
17 1 3.00145 7.76591 3.00565 
18 1 3.6985 7.04076 3.71364 
25 1 0.66224 10.1057 0.672771 
26 1 2.18599 8.59549 2.18527 
27 1 1.47109 9.30426 1.47524 
4 1 4.58998 6.145 6.14791 
5 1 3.09359 7.6762 7.6738 
6 1 3.79327 6.95514 6.96262 
37 1 0.749402 10.0459 10.0428 
38 1 2.27352 8.50335 8.50233 
39 1 1.57006 9.21522 9.21406 
13 1 6.20511 4.50782 4.52856 
14 1 7.76657 2.99942 3.00367 
15 1 7.04409 3.69899 3.71173 
28 1 10.1013 0.659634 0.665968 
29 1 8.596 2.1836 2.18364 
30 1 9.30354 1.46925 1.47192 
1 1 6.13953 4.58565 6.1525 
2 1 7.67547 3.09221 7.67623 
3 1 6.95627 3.7917 6.96294 
40 1 10.0474 0.747251 10.0437 
41 1 8.50439 2.27142 8.50345 
42 1 9.21668 1.56778 9.21498 
7 1 6.18715 6.16868 4.61438 
8 1 7.68343 7.68378 3.07431 
9 1 6.98493 6.97414 3.79814 
43 1 10.0588 10.0579 0.750279 
44 1 8.50984 8.51174 2.25718 
45 1 9.224 9.22502 1.55571 
22 1 6.23028 6.23053 6.14666 
23 1 7.65193 7.73546 7.95881 
24 1 7.07966 7.08576 7.02723 
34 1 10.1623 10.1494 10.0976 
35 1 8.61001 8.60914 8.61311 
36 1 9.3457 9.327 9.28809 
49 2 6.4617 6.96837 8.31217 
ITEM: TIMESTEP
170
ITEM: NUMBER OF ATOMS
49
ITEM: BOX BOUNDS pp pp pp
0.0000000000000000e+00 1.1000000000000000e+01
0.0000000000000000e+00 1.1002000000000001e+01
0.0000000000000000e+00 1.1000000000000000e+01
ITEM: ATOMS id type x y z 
10 1 4.61517 4.61989 4.56325 
11 1 3.08244 3.0837 3.08654 
12 1 3.80222 3.80379 3.77966 
46 1 0.739991 0.735475 0.724707 
47 1 2.26245 2.2617 2.26817 
48 1 1.55598 1.55376 1.55232 
19 1 4.55252 4.54742 6.25774 
20 1 3.00633 3.00619 7.76884 
21 1 3.72248 3.71971 7.06918 
31 1 0.673555 0.677869 10.1183 
32 1 2.18384 2.18422 8.58976 
33 1 1.47472 1.47695 9.30712 
16 1 4.50488 6.20238 4.5328 
17 1 3.00129 7.76542 3.00575 
18 1 3.69838 7.04072 3.71372 
25 1 0.66187 10.1056 0.672972 
26 1 2.18592 8.59546 2.18533 
27 1 1.47082 9.30404 1.47536 
4 1 4.58967 6.14365 6.14858 
5 1 3.09332 7.67459 7.67493 
6 1 3.79387 6.9576 6.96039 
37 1 0.749354 10.0454 10.0427 
38 1 2.27393 8.50324 8.5023 
39 1 1.56985 9.21539 9.21352 
13 1 6.20561 4.50795 4.52882 
14 1 7.76686 2.99953 3.00434 
15 1 7.04273 3.69849 3.71081 
28 1 10.1012 0.659362 0.666003 
29 1 8.59628 2.18365 2.18371 
30 1 9.30264 1.46856 1.47159 
1 1 6.13906 4.58522 6.15251 
2 1 7.67541 3.09209 7.67636 
3 1 6.95625 3.79158 6.96291 
40 1 10.0472 0.747249 10.0438 
41 1 8.50427 2.27174 8.50357 
42 1 9.21683 1.5677 9.21438 
7 1 6.1889 6.16892 4.61577 
8 1 7.68492 7.68405 3.07536 
9 1 6.98345 6.97433 3.79631 
43 1 10.0588 10.058 0.749773 
44 1 8.50946 8.51154 2.25576 
45 1 9.22497 9.22577 1.55726 
22 1 6.23054 6.2313 6.14644 