
     Program PWSCF v.7.1 starts on 24May2025 at 17:28:32 

     This program is part of the open-source Quantum ESPRESSO suite
     for quantum simulation of materials; please cite
         "P. Giannozzi et al., J. Phys.:Condens. Matter 21 395502 (2009);
         "P. Giannozzi et al., J. Phys.:Condens. Matter 29 465901 (2017);
         "P. Giannozzi et al., J. Chem. Phys. 152 154105 (2020);
          URL http://www.quantum-espresso.org", 
     in publications or presentations arising from this work. More details at
     http://www.quantum-espresso.org/quote

     Parallel version (MPI), running on    16 processors

     MPI processes distributed on     1 nodes
     247859 MiB available memory on the printing compute node when the environment starts

     Reading input from input.pwi
Warning: card &CELL ignored
Warning: card / ignored
Warning: card &FCP ignored
Warning: card / ignored
Warning: card &RISM ignored
Warning: card / ignored

     Current dimensions of program PWSCF are:
     Max number of different atomic species (ntypx) = 10
     Max number of k-points (npk) =  40000
     Max angular momentum in pseudopotentials (lmaxx) =  4
     file C.pbe-n-kjpaw_psl.1.0.0.UPF: wavefunction(s)  2S 2P renormalized
     file O.pbe-n-kjpaw_psl.0.1.UPF: wavefunction(s)  2P renormalized

     IMPORTANT: XC functional enforced from input :
     Exchange-correlation= PBE
                           (   1   4   3   4   0   0   0)
     Any further DFT definition will be discarded
     Please, verify this is what you really want


     gamma-point specific algorithms are used
     Message from routine  set_nelup_neldw :
     BEWARE: non-integer number of up and down electrons!

     R & G space division:  proc/nbgrp/npool/nimage =      16
     Subspace diagonalization in iterative solution of the eigenvalue problem:
     a serial algorithm will be used


     Parallelization info
     --------------------
     sticks:   dense  smooth     PW     G-vecs:    dense   smooth      PW
     Min         356     177     43                70548    24945    3112
     Max         358     180     46                70590    24972    3130
     Sum        5721    2869    717              1129231   399349   49901

     Using Slab Decomposition



     bravais-lattice index     =            0
     lattice parameter (alat)  =      13.4114  a.u.
     unit-cell volume          =    8357.3659 (a.u.)^3
     number of atoms/cell      =           34
     number of atomic types    =            3
     number of electrons       =       135.00 (up:  67.50, down:  67.50)
     number of Kohn-Sham states=           81
     kinetic-energy cutoff     =      50.0000  Ry
     charge density cutoff     =     400.0000  Ry
     scf convergence threshold =      1.0E-06
     mixing beta               =       0.3000
     number of iterations used =            8  plain     mixing
     energy convergence thresh.=      1.0E-04
     force convergence thresh. =      1.0E-03
     Exchange-correlation= PBE
                           (   1   4   3   4   0   0   0)
     nstep                     =         1000


     celldm(1)=  13.411386  celldm(2)=   0.000000  celldm(3)=   0.000000
     celldm(4)=   0.000000  celldm(5)=   0.000000  celldm(6)=   0.000000

     crystal axes: (cart. coord. in units of alat)
               a(1) = (   1.000000   0.000000   0.000000 )  
               a(2) = (   0.000000   1.000000   0.000000 )  
               a(3) = (   0.000000   0.000000   3.464562 )  

     reciprocal axes: (cart. coord. in units 2 pi/alat)
               b(1) = (  1.000000  0.000000  0.000000 )  
               b(2) = (  0.000000  1.000000  0.000000 )  
               b(3) = (  0.000000  0.000000  0.288637 )  


     PseudoPot. # 1 for C  read from file:
     /home/ana.bisette/espresso/pseudo/C.pbe-n-kjpaw_psl.1.0.0.UPF
     MD5 check sum: 5d2aebdfa2cae82b50a7e79e9516da0f
     Pseudo is Projector augmented-wave + core cor, Zval =  4.0
     Generated using "atomic" code by A. Dal Corso  v.5.1
     Shape of augmentation charge: PSQ
     Using radial grid of 1073 points,  4 beta functions with: 
                l(1) =   0
                l(2) =   0
                l(3) =   1
                l(4) =   1
     Q(r) pseudized with 0 coefficients 


     PseudoPot. # 2 for O  read from file:
     /home/ana.bisette/espresso/pseudo/O.pbe-n-kjpaw_psl.0.1.UPF
     MD5 check sum: 0234752ac141de4415c5fc33072bef88
     Pseudo is Projector augmented-wave + core cor, Zval =  6.0
     Generated using "atomic" code by A. Dal Corso  v.5.0.99 svn rev. 10869
     Shape of augmentation charge: BESSEL
     Using radial grid of 1095 points,  4 beta functions with: 
                l(1) =   0
                l(2) =   0
                l(3) =   1
                l(4) =   1
     Q(r) pseudized with 0 coefficients 


     PseudoPot. # 3 for H  read from file:
     /home/ana.bisette/espresso/pseudo/H.pbe-rrkjus_psl.1.0.0.UPF
     MD5 check sum: f52b6d4d1c606e5624b1dc7b2218f220
     Pseudo is Ultrasoft, Zval =  1.0
     Generated using "atomic" code by A. Dal Corso  v.5.1
     Using radial grid of  929 points,  2 beta functions with: 
                l(1) =   0
                l(2) =   0
     Q(r) pseudized with 0 coefficients 


     atomic species   valence    mass     pseudopotential
        C              4.00    12.01100     C ( 1.00)
        O              6.00    15.99900     O ( 1.00)
        H              1.00     1.00800     H ( 1.00)

     Starting magnetic structure 
     atomic species   magnetization
        C            0.000
        O            0.000
        H            0.000

     No symmetry found



   Cartesian axes

     site n.     atom                  positions (alat units)
         1           C   tau(   1) = (   0.6547837   0.7372129   0.9093983  )
         2           C   tau(   2) = (   0.4704805   0.2299563   1.8767085  )
         3           C   tau(   3) = (   0.4773848   0.7342539   1.2126251  )
         4           C   tau(   4) = (   0.3047767   0.7372129   0.9093983  )
         5           C   tau(   5) = (   0.6553473   0.2227702   2.5550232  )
         6           C   tau(   6) = (   0.4703396   0.7301677   1.5878540  )
         7           C   tau(   7) = (   0.4778075   0.2257292   2.2517965  )
         8           C   tau(   8) = (   0.3051994   0.2227702   2.5551642  )
         9           C   tau(   9) = (   0.4703396   0.5550232   1.6888826  )
        10           C   tau(  10) = (   0.9798506   0.7372129   0.7217134  )
        11           C   tau(  11) = (   0.4741440   0.7318585   1.3856559  )
        12           C   tau(  12) = (   0.4703396   0.9050303   1.6890235  )
        13           C   tau(  13) = (  -0.0104269   0.5548823   0.0432577  )
        14           C   tau(  14) = (   0.4796393   0.7372129   1.0104269  )
        15           C   tau(  15) = (  -0.0145132   0.7318585   0.3464844  )
        16           C   tau(  16) = (  -0.0104269   0.9050303   0.0432577  )
        17           C   tau(  17) = (  -0.0104269   0.4051007   3.4211639  )
        18           C   tau(  18) = (   0.4802029   0.2227702   2.4539946  )
        19           C   tau(  19) = (  -0.0140905   0.2281246   3.1180781  )
        20           C   tau(  20) = (  -0.0104269   0.0549528   3.4213048  )
        21           C   tau(  21) = (   0.4703396   0.4051007   1.7756799  )
        22           C   tau(  22) = (  -0.0197266   0.2227702   2.7428491  )
        23           C   tau(  23) = (   0.4744258   0.2281246   2.0787657  )
        24           C   tau(  24) = (   0.4703396   0.0549528   1.7755390  )
        25           C   tau(  25) = (   0.8051289   0.2227702   2.6416796  )
        26           C   tau(  26) = (  -0.0105678   0.7300268   0.1444272  )
        27           C   tau(  27) = (  -0.0173313   0.2257292   2.9449063  )
        28           C   tau(  28) = (   0.1552769   0.2227702   2.6416796  )
        29           C   tau(  29) = (   0.8047062   0.7372129   0.8227420  )
        30           C   tau(  30) = (  -0.0102860   0.2298154   3.3201353  )
        31           C   tau(  31) = (  -0.0178949   0.7342539   0.5196562  )
        32           C   tau(  32) = (   0.1547133   0.7372129   0.8228829  )
        33           O   tau(  33) = (   0.4741440   0.9220798   1.3856559  )
        34           H   tau(  34) = (   0.4741440   1.0608708   1.3856559  )

     number of k points=     1  Gaussian smearing, width (Ry)=  0.0001
                       cart. coord. in units 2pi/alat
        k(    1) = (   0.0000000   0.0000000   0.0000000), wk =   1.0000000

     Dense  grid:   564616 G-vectors     FFT dimensions: (  90,  90, 300)

     Smooth grid:   199675 G-vectors     FFT dimensions: (  64,  64, 216)

     Estimated max dynamical RAM per process >     131.72 MB

     Estimated total dynamical RAM >       2.06 GB

     Check: negative core charge=   -0.000003
     Generating pointlists ...
     new r_m :   0.0714 (alat units)  0.9573 (a.u.) for type    1
     new r_m :   0.0573 (alat units)  0.7678 (a.u.) for type    2
     new r_m :   0.0573 (alat units)  0.7678 (a.u.) for type    3

     Initial potential from superposition of free atoms

     starting charge     134.9987, renormalised to     135.0000

     negative rho (up, down):  4.116E-08 4.116E-08
     Starting wfcs are  133 randomized atomic wfcs
     Checking if some PAW data can be deallocated... 

     total cpu time spent up to now is        2.7 secs

     Self-consistent Calculation

     iteration #  1     ecut=    50.00 Ry     beta= 0.30
     Davidson diagonalization with overlap
     ethr =  1.00E-02,  avg # of iterations =  2.0

     negative rho (up, down):  2.380E-07 2.481E-07

     total cpu time spent up to now is        4.3 secs

     total energy              =    -630.89462810 Ry
     estimated scf accuracy    <       4.01755272 Ry

     total magnetization       =     0.00 Bohr mag/cell
     absolute magnetization    =     0.04 Bohr mag/cell

     iteration #  2     ecut=    50.00 Ry     beta= 0.30
     Davidson diagonalization with overlap
     ethr =  2.98E-03,  avg # of iterations =  1.0

     negative rho (up, down):  9.693E-06 9.701E-06

     total cpu time spent up to now is        5.6 secs

     total energy              =    -630.27058785 Ry
     estimated scf accuracy    <       1.27862657 Ry

     total magnetization       =     0.00 Bohr mag/cell
     absolute magnetization    =     0.03 Bohr mag/cell

     iteration #  3     ecut=    50.00 Ry     beta= 0.30
     Davidson diagonalization with overlap
     ethr =  9.47E-04,  avg # of iterations =  2.0

     negative rho (up, down):  9.441E-06 9.454E-06

     total cpu time spent up to now is        7.2 secs

     total energy              =    -630.53141101 Ry
     estimated scf accuracy    <       0.07577776 Ry

     total magnetization       =     0.00 Bohr mag/cell
     absolute magnetization    =     0.02 Bohr mag/cell

     iteration #  4     ecut=    50.00 Ry     beta= 0.30
     Davidson diagonalization with overlap
     ethr =  5.61E-05,  avg # of iterations = 18.0

     negative rho (up, down):  1.248E-05 1.247E-05

     total cpu time spent up to now is        9.1 secs

     total energy              =    -630.53103542 Ry
     estimated scf accuracy    <       0.03018319 Ry

     total magnetization       =    -0.00 Bohr mag/cell
     absolute magnetization    =     0.02 Bohr mag/cell

     iteration #  5     ecut=    50.00 Ry     beta= 0.30
     Davidson diagonalization with overlap
     ethr =  2.24E-05,  avg # of iterations = 17.0

     negative rho (up, down):  2.179E-05 2.178E-05

     total cpu time spent up to now is       11.0 secs

     total energy              =    -630.53433359 Ry
     estimated scf accuracy    <       0.00937868 Ry

     total magnetization       =    -0.00 Bohr mag/cell
     absolute magnetization    =     0.01 Bohr mag/cell

     iteration #  6     ecut=    50.00 Ry     beta= 0.30
     Davidson diagonalization with overlap
     ethr =  6.95E-06,  avg # of iterations =  2.0

     negative rho (up, down):  3.224E-05 3.226E-05

     total cpu time spent up to now is       12.4 secs

     total energy              =    -630.53474340 Ry
     estimated scf accuracy    <       0.00185247 Ry

     total magnetization       =    -0.00 Bohr mag/cell
     absolute magnetization    =     0.01 Bohr mag/cell

     iteration #  7     ecut=    50.00 Ry     beta= 0.30
     Davidson diagonalization with overlap
     ethr =  1.37E-06,  avg # of iterations =  7.5

     negative rho (up, down):  4.682E-05 4.685E-05

     total cpu time spent up to now is       14.0 secs

     total energy              =    -630.53478291 Ry
     estimated scf accuracy    <       0.00059643 Ry

     total magnetization       =     0.00 Bohr mag/cell
     absolute magnetization    =     0.01 Bohr mag/cell

     iteration #  8     ecut=    50.00 Ry     beta= 0.30
     Davidson diagonalization with overlap
     ethr =  4.42E-07,  avg # of iterations =  2.0

     negative rho (up, down):  4.908E-05 4.910E-05

     total cpu time spent up to now is       15.4 secs

     total energy              =    -630.53485771 Ry
     estimated scf accuracy    <       0.00004045 Ry

     total magnetization       =     0.00 Bohr mag/cell
     absolute magnetization    =     0.01 Bohr mag/cell

     iteration #  9     ecut=    50.00 Ry     beta= 0.30
     Davidson diagonalization with overlap
     ethr =  3.00E-08,  avg # of iterations =  2.0

     negative rho (up, down):  5.081E-05 5.082E-05

     total cpu time spent up to now is       16.9 secs

     total energy              =    -630.53486192 Ry
     estimated scf accuracy    <       0.00000809 Ry

     total magnetization       =     0.00 Bohr mag/cell
     absolute magnetization    =     0.01 Bohr mag/cell

     iteration # 10     ecut=    50.00 Ry     beta= 0.30
     Davidson diagonalization with overlap
     ethr =  5.99E-09,  avg # of iterations =  4.0

     negative rho (up, down):  5.112E-05 5.113E-05

     total cpu time spent up to now is       18.5 secs

     total energy              =    -630.53486249 Ry
     estimated scf accuracy    <       0.00000411 Ry

     total magnetization       =    -0.00 Bohr mag/cell
     absolute magnetization    =     0.00 Bohr mag/cell

     iteration # 11     ecut=    50.00 Ry     beta= 0.30
     Davidson diagonalization with overlap
     ethr =  3.04E-09,  avg # of iterations =  2.0

     negative rho (up, down):  5.143E-05 5.143E-05

     Magnetic moment per site  (integrated on atomic sphere of radius R)
     atom   1 (R=0.071)  charge=  1.1851  magn=  0.0000
     atom   2 (R=0.071)  charge=  1.1296  magn=  0.0000
     atom   3 (R=0.071)  charge=  1.1987  magn= -0.0000
     atom   4 (R=0.071)  charge=  1.1846  magn=  0.0001
     atom   5 (R=0.071)  charge=  1.1839  magn=  0.0000
     atom   6 (R=0.071)  charge=  1.1440  magn= -0.0000
     atom   7 (R=0.071)  charge=  1.1826  magn=  0.0000
     atom   8 (R=0.071)  charge=  1.1820  magn= -0.0000
     atom   9 (R=0.071)  charge=  1.1852  magn=  0.0001
     atom  10 (R=0.071)  charge=  1.1367  magn=  0.0000
     atom  11 (R=0.071)  charge=  1.2109  magn=  0.0000
     atom  12 (R=0.071)  charge=  1.1807  magn=  0.0001
     atom  13 (R=0.071)  charge=  1.1836  magn=  0.0001
     atom  14 (R=0.071)  charge=  1.1325  magn= -0.0000
     atom  15 (R=0.071)  charge=  1.1864  magn=  0.0001
     atom  16 (R=0.071)  charge=  1.1819  magn=  0.0000
     atom  17 (R=0.071)  charge=  1.1817  magn= -0.0001
     atom  18 (R=0.071)  charge=  1.1326  magn=  0.0000
     atom  19 (R=0.071)  charge=  1.1814  magn=  0.0000
     atom  20 (R=0.071)  charge=  1.1841  magn= -0.0000
     atom  21 (R=0.071)  charge=  1.1832  magn= -0.0001
     atom  22 (R=0.071)  charge=  1.1311  magn=  0.0000
     atom  23 (R=0.071)  charge=  1.1851  magn= -0.0000
     atom  24 (R=0.071)  charge=  1.1877  magn= -0.0001
     atom  25 (R=0.071)  charge=  1.1817  magn= -0.0000
     atom  26 (R=0.071)  charge=  1.1302  magn= -0.0000
     atom  27 (R=0.071)  charge=  1.1844  magn= -0.0000
     atom  28 (R=0.071)  charge=  1.1839  magn= -0.0000
     atom  29 (R=0.071)  charge=  1.1805  magn= -0.0000
     atom  30 (R=0.071)  charge=  1.1322  magn=  0.0000
     atom  31 (R=0.071)  charge=  1.1811  magn= -0.0001
     atom  32 (R=0.071)  charge=  1.1819  magn= -0.0001
     atom  33 (R=0.057)  charge=  2.0177  magn= -0.0000
     atom  34 (R=0.057)  charge=  0.3561  magn= -0.0000

     total cpu time spent up to now is       20.0 secs

     End of self-consistent calculation

 ------ SPIN UP ------------


          k = 0.0000 0.0000 0.0000 ( 24951 PWs)   bands (ev):

   -25.7585 -19.3355 -19.1122 -18.8635 -18.8042 -18.6245 -18.3392 -18.2664
   -17.9472 -17.5210 -17.1835 -16.9374 -16.6557 -16.6390 -16.4478 -16.3118
   -15.8106 -15.4537 -14.7783 -14.6050 -14.1200 -13.5054 -12.5514 -12.2859
   -12.1587 -11.9831 -11.8958 -11.8743 -11.5438 -11.4123 -11.0379 -10.7688
   -10.4874 -10.4541 -10.3644 -10.1570 -10.0877 -10.0676  -9.2401  -7.8112
    -7.7445  -7.5133  -7.3745  -6.6202  -6.5430  -6.3032  -6.1402  -5.9938
    -5.6278  -5.5839  -5.5242  -5.2853  -5.2509  -5.2332  -5.1097  -5.0842
    -4.9874  -4.8280  -4.8018  -4.7412  -4.5962  -4.5230  -4.3520  -3.8717
    -3.8475  -3.8186  -3.5334  -1.5768  -1.3415  -0.9872  -0.6918   0.2078
     0.3376   0.7835   1.0357   1.0708   1.2044   1.3347   1.5033   1.6614
     1.7461

 ------ SPIN DOWN ----------


          k = 0.0000 0.0000 0.0000 ( 24951 PWs)   bands (ev):

   -25.7585 -19.3356 -19.1122 -18.8635 -18.8042 -18.6245 -18.3391 -18.2665
   -17.9472 -17.5209 -17.1835 -16.9374 -16.6557 -16.6390 -16.4479 -16.3118
   -15.8106 -15.4537 -14.7783 -14.6049 -14.1201 -13.5055 -12.5514 -12.2859
   -12.1587 -11.9831 -11.8958 -11.8744 -11.5438 -11.4123 -11.0379 -10.7688
   -10.4874 -10.4541 -10.3644 -10.1570 -10.0877 -10.0676  -9.2400  -7.8112
    -7.7445  -7.5132  -7.3745  -6.6201  -6.5430  -6.3031  -6.1401  -5.9938
    -5.6278  -5.5839  -5.5242  -5.2853  -5.2509  -5.2331  -5.1097  -5.0843
    -4.9874  -4.8280  -4.8018  -4.7412  -4.5962  -4.5230  -4.3520  -3.8717
    -3.8475  -3.8186  -3.5335  -1.5767  -1.3415  -0.9872  -0.6919   0.2078
     0.3376   0.7835   1.0356   1.0708   1.2043   1.3347   1.5033   1.6615
     1.7461

     the spin up/dw Fermi energies are    -1.5768   -1.5767 ev

!    total energy              =    -630.53486325 Ry
     estimated scf accuracy    <       0.00000022 Ry
     smearing contrib. (-TS)   =      -0.00005642 Ry
     internal energy E=F+TS    =    -630.53480683 Ry

     The total energy is F=E-TS. E is the sum of the following terms:
     one-electron contribution =    -798.80353931 Ry
     hartree contribution      =     426.32892590 Ry
     xc contribution           =    -153.37225779 Ry
     ewald contribution        =     102.20072698 Ry
     one-center paw contrib.   =    -206.88866262 Ry

     total magnetization       =    -0.00 Bohr mag/cell
     absolute magnetization    =     0.00 Bohr mag/cell

     convergence has been achieved in  11 iterations

     negative rho (up, down):  5.143E-05 5.143E-05

     Forces acting on atoms (cartesian axes, Ry/au):

     atom    1 type  1   force =    -0.04605672    0.00179750    0.03196793
     atom    2 type  1   force =     0.00296383   -0.00257209   -0.06888463
     atom    3 type  1   force =     0.00808833   -0.16910133   -0.37447772
     atom    4 type  1   force =     0.04371856    0.00186986    0.02817854
     atom    5 type  1   force =    -0.08612033   -0.00029216   -0.05415692
     atom    6 type  1   force =     0.00020492   -0.16810339    0.19559831
     atom    7 type  1   force =     0.00121708   -0.00126091   -0.00487382
     atom    8 type  1   force =     0.08495271   -0.00032981   -0.05103680
     atom    9 type  1   force =    -0.00108599    0.07882340   -0.03619782
     atom   10 type  1   force =     0.00059223   -0.00234604    0.04406602
     atom   11 type  1   force =    -0.00391429    0.05204609    0.18923282
     atom   12 type  1   force =    -0.00020210   -0.10296031   -0.04790666
     atom   13 type  1   force =     0.00025635    0.08743200    0.05142039
     atom   14 type  1   force =    -0.00091027   -0.01704019    0.02332618
     atom   15 type  1   force =     0.00153377   -0.00140666   -0.00110830
     atom   16 type  1   force =     0.00032072   -0.08626397    0.04874867
     atom   17 type  1   force =     0.00055013   -0.08698289   -0.05415039
     atom   18 type  1   force =    -0.00138106    0.00219433    0.07223751
     atom   19 type  1   force =     0.00138365    0.00080631   -0.01046212
     atom   20 type  1   force =     0.00059006    0.08460114   -0.05121484
     atom   21 type  1   force =    -0.00049888   -0.08462242    0.05294070
     atom   22 type  1   force =     0.00129563    0.00245713   -0.06776570
     atom   23 type  1   force =    -0.00096234    0.00177762    0.00562981
     atom   24 type  1   force =    -0.00070721    0.09082476    0.06823460
     atom   25 type  1   force =     0.08737824   -0.00034675    0.05225520
     atom   26 type  1   force =    -0.00294463    0.00094030   -0.06642245
     atom   27 type  1   force =    -0.00145894   -0.00114012    0.00888927
     atom   28 type  1   force =    -0.08596636   -0.00033754    0.04858134
     atom   29 type  1   force =     0.05860540    0.00025347   -0.03704649
     atom   30 type  1   force =    -0.00325947    0.00065854    0.07354446
     atom   31 type  1   force =    -0.00121530    0.00171306    0.00876519
     atom   32 type  1   force =    -0.05699220    0.00079065   -0.03383845
     atom   33 type  2   force =    -0.00032516    0.35705949   -0.03215948
     atom   34 type  3   force =     0.00034962   -0.04093908   -0.01191437

     Total force =     0.755554     Total SCF correction =     0.000826

     BFGS Geometry Optimization
     Energy error            =      0.0E+00 Ry
     Gradient error          =      3.7E-01 Ry/Bohr

     number of scf cycles    =   1
     number of bfgs steps    =   0

     energy             new  =    -630.5348632481 Ry

     new trust radius        =       0.4109674461 bohr
     new conv_thr            =       0.0000010000 Ry


ATOMIC_POSITIONS (angstrom)
C             4.6226278309        5.2329511984        6.4709166980
C             3.3405683915        1.6306389097       13.2825478217
C             3.3922801602        5.1215154305        8.4078349256
C             2.1861348682        5.2329894896        6.4689114396
C             4.6054270835        1.5808453969       18.1043413936
C             3.3381084378        5.0930435144       11.3725061678
C             3.3916440486        1.6013327538       15.9784208872
C             2.2109550401        1.5808254728       18.1069924906
C             3.3374253196        3.9807115478       11.9668449392
C             6.9543133967        5.2307585285        5.1453187343
C             3.3629286479        5.2215416022        9.9341376978
C             3.3378930531        6.3685157529       11.9616488897
C            -0.0738643471        3.9842670244        0.3342105009
C             3.4035183082        5.2229827194        7.1833436852
C            -0.1021883626        5.1932556259        2.4584135105
C            -0.0738302818        6.3773510716        0.3327966839
C            -0.0737088852        2.8289706385       24.2513448460
C             3.4072691746        1.5821611901       17.4542264464
C            -0.0992678031        1.6194266809       22.1234636847
C            -0.0736877557        0.4347689933       24.2538982724
C             3.3377360046        2.8302197457       12.6300150145
C            -0.1393143801        1.5823002565       19.4301399358
C             3.3664907493        1.6199406735       14.7559791673
C             3.3376257623        0.4380623919       12.6371081932
C             5.7602385744        1.5808165094       18.7756522606
C            -0.0765582325        5.1814975852        0.9898507542
C            -0.1237720385        1.6013966758       20.9047040014
C             1.0565085617        1.5808213813       18.7737081396
C             5.7420126412        5.2321341323        5.8193958416
C            -0.0747248358        1.6313484856       23.6019180537
C            -0.1276431070        5.2119065097        3.6926383374
C             1.0678410291        5.2324183916        5.8220934648
O             3.3648279350        6.7329477459        9.8169819341
H             3.3651850108        7.5073359740        9.8276951868



     Writing config-only to output data dir ./pwscf.save/
     NEW-OLD atomic charge density approx. for the potential

     Check: negative core charge=   -0.000003

     negative rho (up, down):  5.269E-05 5.269E-05
     Generating pointlists ...
     new r_m :   0.0450 (alat units)  0.6037 (a.u.) for type    2
     new r_m :   0.0450 (alat units)  0.6037 (a.u.) for type    3

     total cpu time spent up to now is       24.0 secs

     Self-consistent Calculation

     iteration #  1     ecut=    50.00 Ry     beta= 0.30
     Davidson diagonalization with overlap
     ethr =  1.00E-06,  avg # of iterations = 19.0

     negative rho (up, down):  4.745E-05 4.745E-05

     total cpu time spent up to now is       27.8 secs

     total energy              =    -630.24531646 Ry
     estimated scf accuracy    <       0.50555966 Ry

     total magnetization       =    -0.00 Bohr mag/cell
     absolute magnetization    =     0.00 Bohr mag/cell

     iteration #  2     ecut=    50.00 Ry     beta= 0.30
     Davidson diagonalization with overlap
     ethr =  3.74E-04,  avg # of iterations =  2.0

     negative rho (up, down):  4.570E-05 4.570E-05

     total cpu time spent up to now is       29.2 secs

     total energy              =    -630.27186975 Ry
     estimated scf accuracy    <       0.07369642 Ry

     total magnetization       =     0.00 Bohr mag/cell
     absolute magnetization    =     0.00 Bohr mag/cell

     iteration #  3     ecut=    50.00 Ry     beta= 0.30
     Davidson diagonalization with overlap
     ethr =  5.46E-05,  avg # of iterations =  7.0

     negative rho (up, down):  4.497E-05 4.497E-05

     total cpu time spent up to now is       30.7 secs

     total energy              =    -630.27556087 Ry
     estimated scf accuracy    <       0.02386856 Ry

     total magnetization       =    -0.00 Bohr mag/cell
     absolute magnetization    =     0.00 Bohr mag/cell

     iteration #  4     ecut=    50.00 Ry     beta= 0.30
     Davidson diagonalization with overlap
     ethr =  1.77E-05,  avg # of iterations =  6.0

     negative rho (up, down):  4.851E-05 4.850E-05

     total cpu time spent up to now is       32.3 secs

     total energy              =    -630.27407063 Ry
     estimated scf accuracy    <       0.00957396 Ry

     total magnetization       =     0.00 Bohr mag/cell
     absolute magnetization    =     0.00 Bohr mag/cell

     iteration #  5     ecut=    50.00 Ry     beta= 0.30
     Davidson diagonalization with overlap
     ethr =  7.09E-06,  avg # of iterations =  2.0

     negative rho (up, down):  4.806E-05 4.806E-05

     total cpu time spent up to now is       33.7 secs

     total energy              =    -630.27466708 Ry
     estimated scf accuracy    <       0.00110562 Ry

     total magnetization       =     0.00 Bohr mag/cell
     absolute magnetization    =     0.00 Bohr mag/cell

     iteration #  6     ecut=    50.00 Ry     beta= 0.30
     Davidson diagonalization with overlap
     c_bands:  1 eigenvalues not converged
     ethr =  8.19E-07,  avg # of iterations = 16.0

     negative rho (up, down):  4.808E-05 4.808E-05

     total cpu time spent up to now is       35.5 secs

     total energy              =    -630.27473707 Ry
     estimated scf accuracy    <       0.00023433 Ry

     total magnetization       =     0.00 Bohr mag/cell
     absolute magnetization    =     0.00 Bohr mag/cell

     iteration #  7     ecut=    50.00 Ry     beta= 0.30
     Davidson diagonalization with overlap
     c_bands:  1 eigenvalues not converged
     ethr =  1.74E-07,  avg # of iterations = 11.0

     negative rho (up, down):  4.771E-05 4.770E-05

     total cpu time spent up to now is       37.3 secs

     total energy              =    -630.27474555 Ry
     estimated scf accuracy    <       0.00006747 Ry

     total magnetization       =     0.00 Bohr mag/cell
     absolute magnetization    =     0.00 Bohr mag/cell

     iteration #  8     ecut=    50.00 Ry     beta= 0.30
     Davidson diagonalization with overlap
     ethr =  5.00E-08,  avg # of iterations =  4.0

     negative rho (up, down):  4.728E-05 4.728E-05

     total cpu time spent up to now is       38.7 secs

     total energy              =    -630.27475214 Ry
     estimated scf accuracy    <       0.00001423 Ry

     total magnetization       =    -0.00 Bohr mag/cell
     absolute magnetization    =     0.00 Bohr mag/cell

     iteration #  9     ecut=    50.00 Ry     beta= 0.30
     Davidson diagonalization with overlap
     ethr =  1.05E-08,  avg # of iterations =  3.0

     negative rho (up, down):  4.695E-05 4.695E-05

     total cpu time spent up to now is       40.2 secs

     total energy              =    -630.27475444 Ry
     estimated scf accuracy    <       0.00000170 Ry

     total magnetization       =     0.00 Bohr mag/cell
     absolute magnetization    =     0.00 Bohr mag/cell

     iteration # 10     ecut=    50.00 Ry     beta= 0.30
     Davidson diagonalization with overlap
     ethr =  1.26E-09,  avg # of iterations =  4.0

     negative rho (up, down):  4.652E-05 4.652E-05

     Magnetic moment per site  (integrated on atomic sphere of radius R)
     atom   1 (R=0.071)  charge=  1.1541  magn=  0.0000
     atom   2 (R=0.071)  charge=  1.1696  magn=  0.0000
     atom   3 (R=0.071)  charge=  1.1645  magn= -0.0000
     atom   4 (R=0.071)  charge=  1.1564  magn=  0.0000
     atom   5 (R=0.071)  charge=  1.1475  magn=  0.0000
     atom   6 (R=0.071)  charge=  1.2182  magn= -0.0000
     atom   7 (R=0.071)  charge=  1.1777  magn= -0.0000
     atom   8 (R=0.071)  charge=  1.1508  magn=  0.0000
     atom   9 (R=0.071)  charge=  1.2014  magn=  0.0000
     atom  10 (R=0.071)  charge=  1.1615  magn=  0.0000
     atom  11 (R=0.071)  charge=  1.0493  magn=  0.0000
     atom  12 (R=0.071)  charge=  1.1249  magn=  0.0000
     atom  13 (R=0.071)  charge=  1.1465  magn=  0.0000
     atom  14 (R=0.071)  charge=  1.2355  magn= -0.0000
     atom  15 (R=0.071)  charge=  1.1733  magn=  0.0000
     atom  16 (R=0.071)  charge=  1.1495  magn=  0.0000
     atom  17 (R=0.071)  charge=  1.1490  magn= -0.0000
     atom  18 (R=0.071)  charge=  1.1694  magn= -0.0000
     atom  19 (R=0.071)  charge=  1.1784  magn= -0.0000
     atom  20 (R=0.071)  charge=  1.1489  magn= -0.0000
     atom  21 (R=0.071)  charge=  1.1513  magn= -0.0000
     atom  22 (R=0.071)  charge=  1.1682  magn=  0.0000
     atom  23 (R=0.071)  charge=  1.1780  magn=  0.0000
     atom  24 (R=0.071)  charge=  1.1491  magn= -0.0000
     atom  25 (R=0.071)  charge=  1.1486  magn= -0.0000
     atom  26 (R=0.071)  charge=  1.1687  magn= -0.0000
     atom  27 (R=0.071)  charge=  1.1802  magn=  0.0000
     atom  28 (R=0.071)  charge=  1.1484  magn= -0.0000
     atom  29 (R=0.071)  charge=  1.1572  magn= -0.0000
     atom  30 (R=0.071)  charge=  1.1686  magn=  0.0000
     atom  31 (R=0.071)  charge=  1.1733  magn= -0.0000
     atom  32 (R=0.071)  charge=  1.1580  magn= -0.0000
     atom  33 (R=0.045)  charge=  1.1285  magn=  0.0000
     atom  34 (R=0.045)  charge=  0.3653  magn=  0.0000

     total cpu time spent up to now is       41.8 secs

     End of self-consistent calculation

 ------ SPIN UP ------------


          k = 0.0000 0.0000 0.0000 ( 24951 PWs)   bands (ev):

   -24.2809 -19.9277 -19.7296 -19.4335 -19.2932 -19.1312 -18.8227 -18.7166
   -18.5452 -16.9300 -16.6142 -16.4938 -16.4377 -16.3965 -16.3835 -16.3450
   -16.0874 -15.0680 -14.4267 -14.2339 -13.9320 -13.6350 -13.0719 -12.9610
   -12.7929 -12.6910 -12.1880 -11.9884 -11.5445 -11.4423 -11.2751 -10.7745
   -10.7677 -10.6639 -10.5831 -10.5151 -10.3433 -10.2026  -8.5203  -7.9474
    -7.9367  -7.8360  -7.3172  -6.8030  -6.7599  -6.6441  -6.0443  -5.9644
    -5.2640  -5.1489  -5.1332  -5.1079  -5.0927  -4.9856  -4.9752  -4.8949
    -4.8015  -4.7951  -4.7842  -4.6822  -4.5218  -4.4654  -4.1577  -3.9056
    -3.9035  -3.7260  -3.3288  -2.0832  -1.1065  -0.4655  -0.3744  -0.3492
    -0.0012   0.1711   0.4530   0.6509   0.7172   1.1470   1.2393   1.2689
     1.5874

 ------ SPIN DOWN ----------


          k = 0.0000 0.0000 0.0000 ( 24951 PWs)   bands (ev):

   -24.2809 -19.9277 -19.7297 -19.4335 -19.2932 -19.1312 -18.8227 -18.7166
   -18.5452 -16.9300 -16.6142 -16.4939 -16.4377 -16.3965 -16.3835 -16.3450
   -16.0874 -15.0680 -14.4267 -14.2339 -13.9320 -13.6350 -13.0719 -12.9610
   -12.7929 -12.6910 -12.1880 -11.9884 -11.5444 -11.4423 -11.2751 -10.7745
   -10.7677 -10.6640 -10.5831 -10.5151 -10.3433 -10.2026  -8.5203  -7.9474
    -7.9367  -7.8360  -7.3172  -6.8030  -6.7599  -6.6441  -6.0443  -5.9644
    -5.2640  -5.1489  -5.1332  -5.1079  -5.0927  -4.9856  -4.9752  -4.8949
    -4.8015  -4.7951  -4.7842  -4.6822  -4.5218  -4.4654  -4.1577  -3.9056
    -3.9035  -3.7260  -3.3288  -2.0832  -1.1065  -0.4655  -0.3744  -0.3492
    -0.0012   0.1710   0.4530   0.6509   0.7172   1.1470   1.2392   1.2685
     1.3421

     the spin up/dw Fermi energies are    -2.0832   -2.0832 ev

!    total energy              =    -630.27475485 Ry
     estimated scf accuracy    <       0.00000044 Ry
     smearing contrib. (-TS)   =      -0.00005642 Ry
     internal energy E=F+TS    =    -630.27469843 Ry

     The total energy is F=E-TS. E is the sum of the following terms:
     one-electron contribution =    -791.33506604 Ry
     hartree contribution      =     422.21706490 Ry
     xc contribution           =    -153.07501984 Ry
     ewald contribution        =      98.77574504 Ry
     one-center paw contrib.   =    -206.85742249 Ry

     total magnetization       =    -0.00 Bohr mag/cell
     absolute magnetization    =     0.00 Bohr mag/cell

     convergence has been achieved in  10 iterations

     negative rho (up, down):  4.652E-05 4.652E-05

     Forces acting on atoms (cartesian axes, Ry/au):

     atom    1 type  1   force =     0.17981373    0.00424910   -0.11014803
     atom    2 type  1   force =     0.00264702    0.02405068    0.05819061
     atom    3 type  1   force =    -0.00769235   -0.09221023    0.65106844
     atom    4 type  1   force =    -0.17424170    0.00448602   -0.10792638
     atom    5 type  1   force =     0.24285958   -0.00015578    0.13829137
     atom    6 type  1   force =     0.00246417    0.17916543   -0.08285981
     atom    7 type  1   force =     0.00092959   -0.00116931    0.02028831
     atom    8 type  1   force =    -0.24004771   -0.00017153    0.13780823
     atom    9 type  1   force =    -0.00090617   -0.43605296    0.25175412
     atom   10 type  1   force =     0.00051629   -0.00177844   -0.03655884
     atom   11 type  1   force =     0.00498484    0.20396360   -0.34727287
     atom   12 type  1   force =    -0.00055345    0.21809747    0.15728907
     atom   13 type  1   force =     0.00015225   -0.24061412   -0.13700878
     atom   14 type  1   force =     0.00326294    0.00569671   -0.34824201
     atom   15 type  1   force =     0.00075432   -0.00041440    0.01209336
     atom   16 type  1   force =     0.00017443    0.23787481   -0.13632156
     atom   17 type  1   force =     0.00021242    0.24345832    0.13877101
     atom   18 type  1   force =    -0.00047725    0.00184419   -0.05514722
     atom   19 type  1   force =     0.00168157    0.00096344    0.03417907
     atom   20 type  1   force =     0.00022827   -0.23955991    0.13731244
     atom   21 type  1   force =    -0.00017303    0.21453696   -0.11814133
     atom   22 type  1   force =     0.00053760    0.00210878    0.05229050
     atom   23 type  1   force =    -0.00130968    0.00350746   -0.01693790
     atom   24 type  1   force =    -0.00049397   -0.28595456   -0.14620790
     atom   25 type  1   force =    -0.24053120   -0.00010350   -0.13692384
     atom   26 type  1   force =    -0.00259470   -0.00015349    0.04786424
     atom   27 type  1   force =    -0.00128172   -0.00126281   -0.03151145
     atom   28 type  1   force =     0.23806349   -0.00013053   -0.13666241
     atom   29 type  1   force =    -0.16919506    0.00028633    0.09821238
     atom   30 type  1   force =    -0.00284580   -0.00119233   -0.05765924
     atom   31 type  1   force =    -0.00022090    0.00133514   -0.01079197
     atom   32 type  1   force =     0.16347947    0.00017225    0.09625413
     atom   33 type  2   force =    -0.00061477   -0.81075445   -0.03055549
     atom   34 type  3   force =     0.00041748    0.76588167    0.01520975

     Total force =     1.811883     Total SCF correction =     0.001121
     Energy error            =      2.6E-01 Ry
     Gradient error          =      8.1E-01 Ry/Bohr

     number of scf cycles    =   2
     number of bfgs steps    =   1

     energy             old  =    -630.5348632481 Ry
     energy             new  =    -630.2747548475 Ry

     CASE: energy            _new > energy            _old

     new trust radius        =       0.1411636923 bohr
     new conv_thr            =       0.0000010000 Ry


ATOMIC_POSITIONS (angstrom)
C             4.6386283749        5.2323267282        6.4598107365
C             3.3395387287        1.6315324775       13.3064789983
C             3.3894701973        5.1802628398        8.5379320451
C             2.1709466232        5.2323398809        6.4591219479
C             4.6353461052        1.5809468952       18.1231560215
C             3.3380372474        5.1514442320       11.3045534555
C             3.3912212250        1.6017708068       15.9801140975
C             2.1814416597        1.5809400514       18.1247231588
C             3.3378026024        3.9533275487       11.9794204056
C             6.9541076490        5.2315735655        5.1300097795
C             3.3642885088        5.2034602974        9.8683964158
C             3.3379632647        6.4042851417       11.9782921173
C            -0.0739534044        3.9538923147        0.3163465670
C             3.4038345431        5.2289026437        7.1752399470
C            -0.1027212097        5.1937443141        2.4587985460
C            -0.0739417033        6.4073199958        0.3158609334
C            -0.0739000046        2.8591893204       24.2701572074
C             3.4077489679        1.5813988586       17.4291304471
C            -0.0997484968        1.6191465611       22.1270983245
C            -0.0738927468        0.4053777543       24.2716907956
C             3.3379093199        2.8596183777       12.6116229103
C            -0.1397644956        1.5814466266       19.4536823843
C             3.3668250769        1.6193231131       14.7540233177
C             3.3378714526        0.4065090076       12.6134028458
C             5.7298825424        1.5809369726       18.7574983076
C            -0.0755352391        5.1811709161        1.0129265441
C            -0.1232651884        1.6017927635       20.9016157830
C             1.0863740923        1.5809386461       18.7568305192
C             5.7216525687        5.2320460733        5.8322661445
C            -0.0735924659        1.6311197017       23.5763680081
C            -0.1272209016        5.2113113781        3.6895932280
C             1.0876406596        5.2321437138        5.8338492631
O             3.3649408972        6.6089018839        9.8281544445
H             3.3650635496        7.5215585982        9.8318343523



     Writing config-only to output data dir ./pwscf.save/
     NEW-OLD atomic charge density approx. for the potential

     Check: negative core charge=   -0.000003

     negative rho (up, down):  4.650E-05 4.650E-05
     Generating pointlists ...

     total cpu time spent up to now is       45.9 secs

     Self-consistent Calculation

     iteration #  1     ecut=    50.00 Ry     beta= 0.30
     Davidson diagonalization with overlap
     c_bands:  1 eigenvalues not converged
     c_bands:  2 eigenvalues not converged
     ethr =  1.00E-06,  avg # of iterations = 20.0

     negative rho (up, down):  4.811E-05 4.812E-05

     total cpu time spent up to now is       49.6 secs

     total energy              =    -630.62410721 Ry
     estimated scf accuracy    <       0.18717890 Ry

     total magnetization       =     0.00 Bohr mag/cell
     absolute magnetization    =     0.00 Bohr mag/cell

     iteration #  2     ecut=    50.00 Ry     beta= 0.30
     Davidson diagonalization with overlap
     ethr =  1.39E-04,  avg # of iterations =  6.0

     negative rho (up, down):  5.086E-05 5.089E-05

     total cpu time spent up to now is       51.1 secs

     total energy              =    -630.62713984 Ry
     estimated scf accuracy    <       0.02965746 Ry

     total magnetization       =    -0.00 Bohr mag/cell
     absolute magnetization    =     0.01 Bohr mag/cell

     iteration #  3     ecut=    50.00 Ry     beta= 0.30
     Davidson diagonalization with overlap
     ethr =  2.20E-05,  avg # of iterations =  4.0

     negative rho (up, down):  5.187E-05 5.191E-05

     total cpu time spent up to now is       52.6 secs

     total energy              =    -630.62875631 Ry
     estimated scf accuracy    <       0.00583675 Ry

     total magnetization       =    -0.00 Bohr mag/cell
     absolute magnetization    =     0.01 Bohr mag/cell

     iteration #  4     ecut=    50.00 Ry     beta= 0.30
     Davidson diagonalization with overlap
     ethr =  4.32E-06,  avg # of iterations =  8.0

     negative rho (up, down):  5.345E-05 5.344E-05

     total cpu time spent up to now is       54.3 secs

     total energy              =    -630.62869722 Ry
     estimated scf accuracy    <       0.00181134 Ry

     total magnetization       =     0.00 Bohr mag/cell
     absolute magnetization    =     0.01 Bohr mag/cell

     iteration #  5     ecut=    50.00 Ry     beta= 0.30
     Davidson diagonalization with overlap
     ethr =  1.34E-06,  avg # of iterations =  2.0

     negative rho (up, down):  5.216E-05 5.215E-05

     total cpu time spent up to now is       55.7 secs

     total energy              =    -630.62888082 Ry
     estimated scf accuracy    <       0.00018852 Ry

     total magnetization       =    -0.00 Bohr mag/cell
     absolute magnetization    =     0.00 Bohr mag/cell

     iteration #  6     ecut=    50.00 Ry     beta= 0.30
     Davidson diagonalization with overlap
     ethr =  1.40E-07,  avg # of iterations =  3.0

     negative rho (up, down):  5.092E-05 5.092E-05

     total cpu time spent up to now is       57.1 secs

     total energy              =    -630.62889205 Ry
     estimated scf accuracy    <       0.00006100 Ry

     total magnetization       =    -0.00 Bohr mag/cell
     absolute magnetization    =     0.00 Bohr mag/cell

     iteration #  7     ecut=    50.00 Ry     beta= 0.30
     Davidson diagonalization with overlap
     ethr =  4.52E-08,  avg # of iterations =  3.0

     negative rho (up, down):  5.040E-05 5.040E-05

     total cpu time spent up to now is       58.5 secs

     total energy              =    -630.62889416 Ry
     estimated scf accuracy    <       0.00001703 Ry

     total magnetization       =     0.00 Bohr mag/cell
     absolute magnetization    =     0.00 Bohr mag/cell

     iteration #  8     ecut=    50.00 Ry     beta= 0.30
     Davidson diagonalization with overlap
     ethr =  1.26E-08,  avg # of iterations =  2.0

     negative rho (up, down):  4.991E-05 4.991E-05

     total cpu time spent up to now is       59.9 secs

     total energy              =    -630.62889648 Ry
     estimated scf accuracy    <       0.00000195 Ry

     total magnetization       =     0.00 Bohr mag/cell
     absolute magnetization    =     0.00 Bohr mag/cell

     iteration #  9     ecut=    50.00 Ry     beta= 0.30
     Davidson diagonalization with overlap
     ethr =  1.44E-09,  avg # of iterations =  4.0

     negative rho (up, down):  4.939E-05 4.938E-05

     Magnetic moment per site  (integrated on atomic sphere of radius R)
     atom   1 (R=0.071)  charge=  1.1735  magn= -0.0000
     atom   2 (R=0.071)  charge=  1.1418  magn= -0.0000
     atom   3 (R=0.071)  charge=  1.1638  magn= -0.0000
     atom   4 (R=0.071)  charge=  1.1735  magn= -0.0000
     atom   5 (R=0.071)  charge=  1.1679  magn=  0.0000
     atom   6 (R=0.071)  charge=  1.1657  magn=  0.0000
     atom   7 (R=0.071)  charge=  1.1809  magn=  0.0000
     atom   8 (R=0.071)  charge=  1.1680  magn=  0.0000
     atom   9 (R=0.071)  charge=  1.1838  magn= -0.0000
     atom  10 (R=0.071)  charge=  1.1444  magn=  0.0000
     atom  11 (R=0.071)  charge=  1.1370  magn= -0.0000
     atom  12 (R=0.071)  charge=  1.1592  magn=  0.0000
     atom  13 (R=0.071)  charge=  1.1679  magn=  0.0000
     atom  14 (R=0.071)  charge=  1.1603  magn=  0.0000
     atom  15 (R=0.071)  charge=  1.1817  magn=  0.0001
     atom  16 (R=0.071)  charge=  1.1680  magn=  0.0000
     atom  17 (R=0.071)  charge=  1.1676  magn=  0.0000
     atom  18 (R=0.071)  charge=  1.1433  magn= -0.0000
     atom  19 (R=0.071)  charge=  1.1802  magn=  0.0000
     atom  20 (R=0.071)  charge=  1.1693  magn= -0.0000
     atom  21 (R=0.071)  charge=  1.1694  magn=  0.0000
     atom  22 (R=0.071)  charge=  1.1421  magn=  0.0000
     atom  23 (R=0.071)  charge=  1.1824  magn= -0.0000
     atom  24 (R=0.071)  charge=  1.1710  magn= -0.0000
     atom  25 (R=0.071)  charge=  1.1669  magn= -0.0000
     atom  26 (R=0.071)  charge=  1.1419  magn= -0.0000
     atom  27 (R=0.071)  charge=  1.1827  magn= -0.0000
     atom  28 (R=0.071)  charge=  1.1683  magn= -0.0000
     atom  29 (R=0.071)  charge=  1.1705  magn= -0.0000
     atom  30 (R=0.071)  charge=  1.1429  magn= -0.0000
     atom  31 (R=0.071)  charge=  1.1784  magn= -0.0001
     atom  32 (R=0.071)  charge=  1.1728  magn= -0.0000
     atom  33 (R=0.045)  charge=  1.1177  magn= -0.0000
     atom  34 (R=0.045)  charge=  0.2432  magn=  0.0000

     total cpu time spent up to now is       61.4 secs

     End of self-consistent calculation

 ------ SPIN UP ------------


          k = 0.0000 0.0000 0.0000 ( 24951 PWs)   bands (ev):

   -24.9178 -19.4497 -19.2166 -19.0726 -18.9628 -18.8215 -18.4925 -18.3662
   -18.1095 -17.3581 -17.0287 -16.7760 -16.5742 -16.5447 -16.4263 -16.3101
   -15.9171 -15.2118 -14.6207 -14.6090 -14.0960 -13.4972 -12.6516 -12.5559
   -12.3225 -12.1690 -12.1465 -11.9496 -11.5540 -11.4528 -11.1722 -10.7659
   -10.5828 -10.4989 -10.3722 -10.3480 -10.2283 -10.1568  -8.8065  -7.8480
    -7.6170  -7.6119  -7.5426  -6.6507  -6.6000  -6.4079  -6.1303  -5.9993
    -5.4892  -5.4175  -5.3842  -5.2003  -5.1715  -5.1448  -5.0910  -5.0613
    -4.9149  -4.8186  -4.7991  -4.6171  -4.5440  -4.5102  -4.2963  -3.9249
    -3.8777  -3.7786  -3.5683  -1.7813  -1.1977  -0.8109  -0.5807   0.0591
     0.4477   0.5083   0.7484   0.9971   1.0625   1.1139   1.5360   1.5813
     1.6340

 ------ SPIN DOWN ----------


          k = 0.0000 0.0000 0.0000 ( 24951 PWs)   bands (ev):

   -24.9179 -19.4497 -19.2166 -19.0726 -18.9628 -18.8215 -18.4925 -18.3663
   -18.1095 -17.3581 -17.0287 -16.7760 -16.5742 -16.5446 -16.4264 -16.3101
   -15.9171 -15.2118 -14.6207 -14.6090 -14.0960 -13.4972 -12.6516 -12.5559
   -12.3225 -12.1690 -12.1465 -11.9496 -11.5540 -11.4528 -11.1722 -10.7659
   -10.5828 -10.4989 -10.3722 -10.3480 -10.2284 -10.1568  -8.8065  -7.8480
    -7.6170  -7.6120  -7.5426  -6.6507  -6.6000  -6.4079  -6.1303  -5.9993
    -5.4892  -5.4174  -5.3841  -5.2003  -5.1714  -5.1448  -5.0910  -5.0613
    -4.9148  -4.8186  -4.7990  -4.6171  -4.5440  -4.5102  -4.2963  -3.9249
    -3.8777  -3.7787  -3.5684  -1.7813  -1.1977  -0.8109  -0.5808   0.0591
     0.4478   0.5083   0.7485   0.9970   1.0625   1.1139   1.5363   1.5814
     1.6342

     the spin up/dw Fermi energies are    -1.7813   -1.7813 ev

!    total energy              =    -630.62889683 Ry
     estimated scf accuracy    <       0.00000056 Ry
     smearing contrib. (-TS)   =      -0.00005642 Ry
     internal energy E=F+TS    =    -630.62884042 Ry

     The total energy is F=E-TS. E is the sum of the following terms:
     one-electron contribution =    -795.20243491 Ry
     hartree contribution      =     424.38173317 Ry
     xc contribution           =    -153.17180166 Ry
     ewald contribution        =     100.22891348 Ry
     one-center paw contrib.   =    -206.86525049 Ry

     total magnetization       =    -0.00 Bohr mag/cell
     absolute magnetization    =     0.00 Bohr mag/cell

     convergence has been achieved in   9 iterations

     negative rho (up, down):  4.939E-05 4.938E-05

     Forces acting on atoms (cartesian axes, Ry/au):

     atom    1 type  1   force =     0.03702223    0.00203225   -0.01981892
     atom    2 type  1   force =     0.00282282    0.00436197   -0.02802780
     atom    3 type  1   force =     0.00093769   -0.13699995    0.03690867
     atom    4 type  1   force =    -0.03599088    0.00212414   -0.02116446
     atom    5 type  1   force =     0.03933429   -0.00026078    0.02052212
     atom    6 type  1   force =     0.00134559   -0.07731834    0.10928308
     atom    7 type  1   force =     0.00112820   -0.00125470    0.00340281
     atom    8 type  1   force =    -0.03836567   -0.00029670    0.02184881
     atom    9 type  1   force =    -0.00086539   -0.08071995    0.05573953
     atom   10 type  1   force =     0.00051884   -0.00219733    0.01820052
     atom   11 type  1   force =     0.00073848    0.14073946   -0.10140658
     atom   12 type  1   force =    -0.00041012    0.02711749    0.03499527
     atom   13 type  1   force =     0.00021256   -0.03804313   -0.02192218
     atom   14 type  1   force =     0.00027600   -0.01743915   -0.05184912
     atom   15 type  1   force =     0.00128803   -0.00109223    0.00376286
     atom   16 type  1   force =     0.00024596    0.03702975   -0.02286044
     atom   17 type  1   force =     0.00043553    0.03906049    0.02065886
     atom   18 type  1   force =    -0.00106521    0.00206233    0.03120599
     atom   19 type  1   force =     0.00151240    0.00082021    0.00454763
     atom   20 type  1   force =     0.00046639   -0.03846935    0.02164927
     atom   21 type  1   force =    -0.00021865    0.03017025   -0.01401176
     atom   22 type  1   force =     0.00100708    0.00229313   -0.02953154
     atom   23 type  1   force =    -0.00123402    0.00227998   -0.00172165
     atom   24 type  1   force =    -0.00053698   -0.05385343   -0.01630325
     atom   25 type  1   force =    -0.03799663   -0.00026860   -0.02122753
     atom   26 type  1   force =    -0.00278746    0.00051548   -0.03033067
     atom   27 type  1   force =    -0.00136069   -0.00122440   -0.00437400
     atom   28 type  1   force =     0.03705787   -0.00028722   -0.02302245
     atom   29 type  1   force =    -0.02516726    0.00035380    0.01272112
     atom   30 type  1   force =    -0.00311673    0.00022147    0.03105385
     atom   31 type  1   force =    -0.00084866    0.00159385    0.00111334
     atom   32 type  1   force =     0.02350128    0.00053291    0.01374777
     atom   33 type  2   force =    -0.00012107    0.04257254   -0.02565994
     atom   34 type  3   force =     0.00023420    0.11384374   -0.00812920

     Total force =     0.357749     Total SCF correction =     0.001248
     Energy error            =      9.4E-02 Ry
     Gradient error          =      1.4E-01 Ry/Bohr

     number of scf cycles    =   3
     number of bfgs steps    =   1

     energy             old  =    -630.5348632481 Ry
     energy             new  =    -630.6288968346 Ry

     CASE: energy            _new < energy            _old

     new trust radius        =       0.1897799218 bohr
     new conv_thr            =       0.0000010000 Ry


ATOMIC_POSITIONS (angstrom)
C             4.6522558217        5.2335970255        6.4533984920
C             3.3413595771        1.6334826772       13.2836360987
C             3.3909327053        5.0888422201        8.5118496846
C             2.1575714158        5.2336665383        6.4515548335
C             4.6453348884        1.5807764645       18.1272538000
C             3.3387593813        5.0910760256       11.3848079422
C             3.3919528889        1.6009682865       15.9812892877
C             2.1718139279        1.5807464597       18.1298852340
C             3.3372229708        3.9210083332       12.0039389833
C             6.9544480579        5.2301514871        5.1447629688
C             3.3641986686        5.2826867163        9.8386856401
C             3.3377263054        6.4059090493       11.9906456817
C            -0.0738122900        3.9447310775        0.3111927779
C             3.4038676915        5.2178069413        7.1511836797
C            -0.1018684723        5.1930084006        2.4606149620
C            -0.0737755060        6.4160970346        0.3098982958
C            -0.0736078576        2.8689320625       24.2743266403
C             3.4070301495        1.5827326546       17.4540253475
C            -0.0987975972        1.6196690104       22.1281921690
C            -0.0735797882        0.3956538407       24.2767279590
C             3.3377357664        2.8650384443       12.6107525038
C            -0.1390861174        1.5829317673       19.4301952136
C             3.3660693220        1.6207194005       14.7538107155
C             3.3375077626        0.3895631863       12.6131912618
C             5.7207389158        1.5807559002       18.7528053326
C            -0.0773354423        5.1815516053        0.9891873694
C            -0.1241465522        1.6010205311       20.9004220346
C             1.0952016383        1.5807490313       18.7507637143
C             5.7156843716        5.2322600458        5.8343865768
C            -0.0756013350        1.6313139922       23.6013418476
C            -0.1278074745        5.2123442627        3.6912284943
C             1.0929401726        5.2325153699        5.8368891054
O             3.3648388911        6.6740750142        9.8109726680
H             3.3652271425        7.5756191434        9.8261826843



     Writing config-only to output data dir ./pwscf.save/
     NEW-OLD atomic charge density approx. for the potential

     Check: negative core charge=   -0.000003

     negative rho (up, down):  4.986E-05 4.986E-05
     Generating pointlists ...

     total cpu time spent up to now is       65.5 secs

     Self-consistent Calculation

     iteration #  1     ecut=    50.00 Ry     beta= 0.30
     Davidson diagonalization with overlap
     ethr =  1.00E-06,  avg # of iterations = 16.0

     negative rho (up, down):  5.081E-05 5.080E-05

     total cpu time spent up to now is       68.7 secs

     total energy              =    -630.69132380 Ry
     estimated scf accuracy    <       0.03520533 Ry

     total magnetization       =     0.00 Bohr mag/cell
     absolute magnetization    =     0.00 Bohr mag/cell

     iteration #  2     ecut=    50.00 Ry     beta= 0.30
     Davidson diagonalization with overlap
     ethr =  2.61E-05,  avg # of iterations =  3.0

     negative rho (up, down):  5.150E-05 5.149E-05

     total cpu time spent up to now is       70.1 secs

     total energy              =    -630.69448573 Ry
     estimated scf accuracy    <       0.00736103 Ry

     total magnetization       =     0.00 Bohr mag/cell
     absolute magnetization    =     0.00 Bohr mag/cell

     iteration #  3     ecut=    50.00 Ry     beta= 0.30
     Davidson diagonalization with overlap
     ethr =  5.45E-06,  avg # of iterations =  2.0

     negative rho (up, down):  5.203E-05 5.201E-05

     total cpu time spent up to now is       71.5 secs

     total energy              =    -630.69504217 Ry
     estimated scf accuracy    <       0.00259664 Ry

     total magnetization       =     0.00 Bohr mag/cell
     absolute magnetization    =     0.00 Bohr mag/cell

     iteration #  4     ecut=    50.00 Ry     beta= 0.30
     Davidson diagonalization with overlap
     ethr =  1.92E-06,  avg # of iterations = 19.0

     negative rho (up, down):  5.397E-05 5.396E-05

     total cpu time spent up to now is       73.3 secs

     total energy              =    -630.69513384 Ry
     estimated scf accuracy    <       0.00071337 Ry

     total magnetization       =    -0.00 Bohr mag/cell
     absolute magnetization    =     0.00 Bohr mag/cell

     iteration #  5     ecut=    50.00 Ry     beta= 0.30
     Davidson diagonalization with overlap
     ethr =  5.28E-07,  avg # of iterations =  2.0

     negative rho (up, down):  5.396E-05 5.395E-05

     total cpu time spent up to now is       74.7 secs

     total energy              =    -630.69519681 Ry
     estimated scf accuracy    <       0.00008288 Ry

     total magnetization       =    -0.00 Bohr mag/cell
     absolute magnetization    =     0.00 Bohr mag/cell

     iteration #  6     ecut=    50.00 Ry     beta= 0.30
     Davidson diagonalization with overlap
     ethr =  6.14E-08,  avg # of iterations =  2.0

     negative rho (up, down):  5.347E-05 5.346E-05

     total cpu time spent up to now is       76.1 secs

     total energy              =    -630.69520529 Ry
     estimated scf accuracy    <       0.00001705 Ry

     total magnetization       =     0.00 Bohr mag/cell
     absolute magnetization    =     0.00 Bohr mag/cell

     iteration #  7     ecut=    50.00 Ry     beta= 0.30
     Davidson diagonalization with overlap
     ethr =  1.26E-08,  avg # of iterations =  4.0

     negative rho (up, down):  5.309E-05 5.309E-05

     total cpu time spent up to now is       77.6 secs

     total energy              =    -630.69520759 Ry
     estimated scf accuracy    <       0.00000413 Ry

     total magnetization       =     0.00 Bohr mag/cell
     absolute magnetization    =     0.00 Bohr mag/cell

     iteration #  8     ecut=    50.00 Ry     beta= 0.30
     Davidson diagonalization with overlap
     ethr =  3.06E-09,  avg # of iterations =  2.0

     negative rho (up, down):  5.251E-05 5.251E-05

     Magnetic moment per site  (integrated on atomic sphere of radius R)
     atom   1 (R=0.071)  charge=  1.1859  magn= -0.0000
     atom   2 (R=0.071)  charge=  1.1373  magn= -0.0000
     atom   3 (R=0.071)  charge=  1.1618  magn=  0.0000
     atom   4 (R=0.071)  charge=  1.1864  magn=  0.0000
     atom   5 (R=0.071)  charge=  1.1814  magn=  0.0000
     atom   6 (R=0.071)  charge=  1.1506  magn=  0.0000
     atom   7 (R=0.071)  charge=  1.1741  magn= -0.0000
     atom   8 (R=0.071)  charge=  1.1808  magn=  0.0000
     atom   9 (R=0.071)  charge=  1.2312  magn= -0.0000
     atom  10 (R=0.071)  charge=  1.1412  magn=  0.0000
     atom  11 (R=0.071)  charge=  1.1056  magn= -0.0000
     atom  12 (R=0.071)  charge=  1.1638  magn= -0.0000
     atom  13 (R=0.071)  charge=  1.1811  magn=  0.0000
     atom  14 (R=0.071)  charge=  1.1565  magn=  0.0000
     atom  15 (R=0.071)  charge=  1.1746  magn=  0.0000
     atom  16 (R=0.071)  charge=  1.1807  magn=  0.0000
     atom  17 (R=0.071)  charge=  1.1800  magn= -0.0000
     atom  18 (R=0.071)  charge=  1.1384  magn=  0.0000
     atom  19 (R=0.071)  charge=  1.1728  magn=  0.0000
     atom  20 (R=0.071)  charge=  1.1828  magn= -0.0000
     atom  21 (R=0.071)  charge=  1.1997  magn=  0.0000
     atom  22 (R=0.071)  charge=  1.1376  magn=  0.0000
     atom  23 (R=0.071)  charge=  1.1751  magn=  0.0000
     atom  24 (R=0.071)  charge=  1.1824  magn= -0.0000
     atom  25 (R=0.071)  charge=  1.1790  magn= -0.0000
     atom  26 (R=0.071)  charge=  1.1366  magn= -0.0000
     atom  27 (R=0.071)  charge=  1.1749  magn= -0.0000
     atom  28 (R=0.071)  charge=  1.1822  magn= -0.0000
     atom  29 (R=0.071)  charge=  1.1847  magn=  0.0000
     atom  30 (R=0.071)  charge=  1.1379  magn=  0.0000
     atom  31 (R=0.071)  charge=  1.1753  magn= -0.0000
     atom  32 (R=0.071)  charge=  1.1873  magn= -0.0000
     atom  33 (R=0.045)  charge=  1.1145  magn= -0.0000
     atom  34 (R=0.045)  charge=  0.2515  magn= -0.0000

     total cpu time spent up to now is       79.0 secs

     End of self-consistent calculation

 ------ SPIN UP ------------


          k = 0.0000 0.0000 0.0000 ( 24951 PWs)   bands (ev):

   -24.5276 -19.3464 -19.1743 -19.0575 -18.9849 -18.5956 -18.3678 -18.3308
   -18.0735 -17.1966 -17.1300 -16.9194 -16.7655 -16.6199 -16.5215 -16.3165
   -15.9410 -15.1397 -14.6831 -14.6095 -14.1992 -13.4898 -12.5616 -12.4599
   -12.4051 -12.1894 -12.0316 -11.7509 -11.4822 -11.0791 -11.0626 -10.6941
   -10.6460 -10.4899 -10.3754 -10.3558 -10.3254 -10.0975  -8.4630  -7.8548
    -7.6984  -7.5903  -7.5143  -6.5500  -6.4804  -6.3835  -6.1444  -5.9919
    -5.6272  -5.4611  -5.4301  -5.2808  -5.2603  -5.2067  -5.1813  -5.1351
    -5.1055  -4.9897  -4.8684  -4.7417  -4.5857  -4.5779  -4.3300  -4.0228
    -3.9009  -3.8098  -3.5219  -2.0155  -0.9483  -0.7814  -0.6166   0.1008
     0.4823   0.5930   0.7832   1.0963   1.1570   1.1934   1.5436   1.6485
     1.7181

 ------ SPIN DOWN ----------


          k = 0.0000 0.0000 0.0000 ( 24951 PWs)   bands (ev):

   -24.5276 -19.3464 -19.1743 -19.0575 -18.9849 -18.5956 -18.3678 -18.3308
   -18.0735 -17.1966 -17.1300 -16.9194 -16.7655 -16.6199 -16.5215 -16.3165
   -15.9410 -15.1397 -14.6831 -14.6095 -14.1992 -13.4898 -12.5616 -12.4599
   -12.4051 -12.1894 -12.0316 -11.7509 -11.4822 -11.0791 -11.0626 -10.6941
   -10.6460 -10.4899 -10.3754 -10.3558 -10.3254 -10.0975  -8.4629  -7.8548
    -7.6984  -7.5903  -7.5143  -6.5500  -6.4804  -6.3835  -6.1444  -5.9919
    -5.6272  -5.4611  -5.4301  -5.2808  -5.2603  -5.2067  -5.1813  -5.1351
    -5.1055  -4.9897  -4.8684  -4.7417  -4.5856  -4.5779  -4.3300  -4.0228
    -3.9009  -3.8098  -3.5219  -2.0155  -0.9483  -0.7813  -0.6166   0.1008
     0.4823   0.5930   0.7832   1.0963   1.1570   1.1934   1.5436   1.6485
     1.7181

     the spin up/dw Fermi energies are    -2.0155   -2.0155 ev

!    total energy              =    -630.69520823 Ry
     estimated scf accuracy    <       0.00000065 Ry
     smearing contrib. (-TS)   =      -0.00005642 Ry
     internal energy E=F+TS    =    -630.69515182 Ry

     The total energy is F=E-TS. E is the sum of the following terms:
     one-electron contribution =    -791.52463160 Ry
     hartree contribution      =     422.62080281 Ry
     xc contribution           =    -153.27136932 Ry
     ewald contribution        =      98.35164751 Ry
     one-center paw contrib.   =    -206.87160121 Ry

     total magnetization       =     0.00 Bohr mag/cell
     absolute magnetization    =     0.00 Bohr mag/cell

     convergence has been achieved in   8 iterations

     negative rho (up, down):  5.251E-05 5.251E-05

     Forces acting on atoms (cartesian axes, Ry/au):

     atom    1 type  1   force =    -0.03263191    0.00195356    0.00936620
     atom    2 type  1   force =     0.00192002   -0.00295569    0.00091990
     atom    3 type  1   force =    -0.00013085   -0.09348842    0.07371683
     atom    4 type  1   force =     0.03519405    0.00218915    0.00939395
     atom    5 type  1   force =    -0.02291083    0.00004111   -0.00654600
     atom    6 type  1   force =     0.00271186    0.09906405   -0.06022902
     atom    7 type  1   force =     0.00064488   -0.00079936    0.01936398
     atom    8 type  1   force =     0.02474638    0.00001437   -0.00651774
     atom    9 type  1   force =    -0.00045162   -0.00086822    0.00995932
     atom   10 type  1   force =    -0.00044694   -0.00128400   -0.00104903
     atom   11 type  1   force =     0.00010926    0.11095138   -0.03624751
     atom   12 type  1   force =    -0.00027673   -0.06549792    0.01360696
     atom   13 type  1   force =    -0.00017418    0.02417011    0.00722819
     atom   14 type  1   force =     0.00002327   -0.01929373   -0.03752897
     atom   15 type  1   force =     0.00102270   -0.00067791   -0.02133666
     atom   16 type  1   force =    -0.00015914   -0.02575453    0.00721950
     atom   17 type  1   force =    -0.00002096   -0.02244072   -0.00625875
     atom   18 type  1   force =     0.00026489    0.00142044   -0.00203626
     atom   19 type  1   force =     0.00095246    0.00057179    0.01832405
     atom   20 type  1   force =     0.00000308    0.02520848   -0.00686540
     atom   21 type  1   force =     0.00018979   -0.11462968    0.05993563
     atom   22 type  1   force =    -0.00007243    0.00156174   -0.00004442
     atom   23 type  1   force =    -0.00092118    0.00186048   -0.01582684
     atom   24 type  1   force =    -0.00001115    0.01157727    0.01361548
     atom   25 type  1   force =     0.02365437    0.00008980    0.00704237
     atom   26 type  1   force =    -0.00196876   -0.00048111    0.00189440
     atom   27 type  1   force =    -0.00071356   -0.00078365   -0.01674629
     atom   28 type  1   force =    -0.02571039    0.00006891    0.00681677
     atom   29 type  1   force =     0.03742084    0.00009594   -0.01895557
     atom   30 type  1   force =    -0.00215699   -0.00053619   -0.00249990
     atom   31 type  1   force =    -0.00053555    0.00155422    0.01389781
     atom   32 type  1   force =    -0.03917100    0.00005151   -0.01854433
     atom   33 type  2   force =    -0.00065169   -0.07081634   -0.01247387
     atom   34 type  3   force =     0.00025802    0.13786316   -0.00259481

     Total force =     0.319417     Total SCF correction =     0.001107
     Energy error            =      6.6E-02 Ry
     Gradient error          =      1.4E-01 Ry/Bohr

     number of scf cycles    =   4
     number of bfgs steps    =   2

     energy             old  =    -630.6288968346 Ry
     energy             new  =    -630.6952082343 Ry

     CASE: energy            _new < energy            _old

     new trust radius        =       0.2746342611 bohr
     new conv_thr            =       0.0000010000 Ry


ATOMIC_POSITIONS (angstrom)
C             4.6445136661        5.2359568364        6.4539006594
C             3.3442450679        1.6334927923       13.2609078733
C             3.3924618689        4.9450146677        8.5186386429
C             2.1669553033        5.2362169672        6.4508874340
C             4.6385970364        1.5806336759       18.1255483099
C             3.3410016144        5.0873551637       11.4302252569
C             3.3930399150        1.5997250786       15.9934241516
C             2.1799104347        1.5805656279       18.1292770308
C             3.3363922738        3.8931380708       12.0312051570
C             6.9545224643        5.2280216327        5.1591656010
C             3.3640558570        5.4216762885        9.7962269164
C             3.3373410247        6.3662787204       12.0084199790
C            -0.0737746836        3.9530029293        0.3122317135
C             3.4038831501        5.1958624516        7.1079896539
C            -0.1004411017        5.1918923814        2.4499134370
C            -0.0737040104        6.4065904577        0.3101012622
C            -0.0733328978        2.8622118565       24.2728537121
C             3.4064761710        1.5848551495       17.4781080947
C            -0.0973249315        1.6205076307       22.1394745895
C            -0.0732704479        0.4039178149       24.2757976704
C             3.3376696093        2.8010656192       12.6462881635
C            -0.1384608256        1.5852840319       19.4063493002
C             3.3648082069        1.6231410836       14.7446349208
C             3.3371432226        0.3834673728       12.6230181024
C             5.7287269602        1.5806297344       18.7541885606
C            -0.0802294650        5.1816543794        0.9662726473
C            -0.1254191580        1.5998181812       20.8899107064
C             1.0857765951        1.5806031836       18.7506322297
C             5.7336647434        5.2325211158        5.8242135422
C            -0.0788068477        1.6312039118       23.6252703466
C            -0.1286972042        5.2142511382        3.7010546107
C             1.0733804665        5.2329132429        5.8279038946
O             3.3643574403        6.7045158640        9.7868780791
H             3.3655384817        7.7040149473        9.8190877505



     Writing config-only to output data dir ./pwscf.save/
     NEW-OLD atomic charge density approx. for the potential

     Check: negative core charge=   -0.000003

     negative rho (up, down):  5.050E-05 5.050E-05
     Generating pointlists ...

     total cpu time spent up to now is       83.1 secs

     Self-consistent Calculation

     iteration #  1     ecut=    50.00 Ry     beta= 0.30
     Davidson diagonalization with overlap
     ethr =  1.00E-06,  avg # of iterations = 17.0

     negative rho (up, down):  4.872E-05 4.872E-05

     total cpu time spent up to now is       86.3 secs

     total energy              =    -630.70870094 Ry
     estimated scf accuracy    <       0.07230116 Ry

     total magnetization       =    -0.00 Bohr mag/cell
     absolute magnetization    =     0.00 Bohr mag/cell

     iteration #  2     ecut=    50.00 Ry     beta= 0.30
     Davidson diagonalization with overlap
     ethr =  5.36E-05,  avg # of iterations =  3.0

     negative rho (up, down):  4.819E-05 4.819E-05

     total cpu time spent up to now is       87.7 secs

     total energy              =    -630.71634278 Ry
     estimated scf accuracy    <       0.01343150 Ry

     total magnetization       =    -0.00 Bohr mag/cell
     absolute magnetization    =     0.00 Bohr mag/cell

     iteration #  3     ecut=    50.00 Ry     beta= 0.30
     Davidson diagonalization with overlap
     ethr =  9.95E-06,  avg # of iterations =  2.0

     negative rho (up, down):  4.808E-05 4.808E-05

     total cpu time spent up to now is       89.1 secs

     total energy              =    -630.71725778 Ry
     estimated scf accuracy    <       0.00437385 Ry

     total magnetization       =     0.00 Bohr mag/cell
     absolute magnetization    =     0.00 Bohr mag/cell

     iteration #  4     ecut=    50.00 Ry     beta= 0.30
     Davidson diagonalization with overlap
     ethr =  3.24E-06,  avg # of iterations =  7.0

     negative rho (up, down):  4.912E-05 4.911E-05

     total cpu time spent up to now is       90.6 secs

     total energy              =    -630.71753114 Ry
     estimated scf accuracy    <       0.00123293 Ry

     total magnetization       =    -0.00 Bohr mag/cell
     absolute magnetization    =     0.00 Bohr mag/cell

     iteration #  5     ecut=    50.00 Ry     beta= 0.30
     Davidson diagonalization with overlap
     ethr =  9.13E-07,  avg # of iterations =  2.0

     negative rho (up, down):  4.966E-05 4.966E-05

     total cpu time spent up to now is       92.1 secs

     total energy              =    -630.71767201 Ry
     estimated scf accuracy    <       0.00021635 Ry

     total magnetization       =    -0.00 Bohr mag/cell
     absolute magnetization    =     0.00 Bohr mag/cell

     iteration #  6     ecut=    50.00 Ry     beta= 0.30
     Davidson diagonalization with overlap
     ethr =  1.60E-07,  avg # of iterations =  4.0

     negative rho (up, down):  4.957E-05 4.957E-05

     total cpu time spent up to now is       93.5 secs

     total energy              =    -630.71769807 Ry
     estimated scf accuracy    <       0.00004259 Ry

     total magnetization       =     0.00 Bohr mag/cell
     absolute magnetization    =     0.00 Bohr mag/cell

     iteration #  7     ecut=    50.00 Ry     beta= 0.30
     Davidson diagonalization with overlap
     ethr =  3.15E-08,  avg # of iterations =  2.0

     negative rho (up, down):  4.925E-05 4.925E-05

     total cpu time spent up to now is       94.9 secs

     total energy              =    -630.71770398 Ry
     estimated scf accuracy    <       0.00000640 Ry

     total magnetization       =    -0.00 Bohr mag/cell
     absolute magnetization    =     0.00 Bohr mag/cell

     iteration #  8     ecut=    50.00 Ry     beta= 0.30
     Davidson diagonalization with overlap
     ethr =  4.74E-09,  avg # of iterations =  4.0

     negative rho (up, down):  4.893E-05 4.893E-05

     total cpu time spent up to now is       96.4 secs

     total energy              =    -630.71770508 Ry
     estimated scf accuracy    <       0.00000115 Ry

     total magnetization       =    -0.00 Bohr mag/cell
     absolute magnetization    =     0.00 Bohr mag/cell

     iteration #  9     ecut=    50.00 Ry     beta= 0.30
     Davidson diagonalization with overlap
     ethr =  8.50E-10,  avg # of iterations =  4.0

     negative rho (up, down):  4.850E-05 4.850E-05

     Magnetic moment per site  (integrated on atomic sphere of radius R)
     atom   1 (R=0.071)  charge=  1.1756  magn= -0.0000
     atom   2 (R=0.071)  charge=  1.1707  magn= -0.0000
     atom   3 (R=0.071)  charge=  1.1366  magn= -0.0000
     atom   4 (R=0.071)  charge=  1.1753  magn=  0.0000
     atom   5 (R=0.071)  charge=  1.1780  magn=  0.0000
     atom   6 (R=0.071)  charge=  1.1440  magn=  0.0000
     atom   7 (R=0.071)  charge=  1.1574  magn= -0.0000
     atom   8 (R=0.071)  charge=  1.1784  magn=  0.0000
     atom   9 (R=0.071)  charge=  1.1993  magn= -0.0000
     atom  10 (R=0.071)  charge=  1.1572  magn=  0.0000
     atom  11 (R=0.071)  charge=  1.1153  magn=  0.0000
     atom  12 (R=0.071)  charge=  1.1641  magn= -0.0000
     atom  13 (R=0.071)  charge=  1.1782  magn=  0.0000
     atom  14 (R=0.071)  charge=  1.1513  magn=  0.0000
     atom  15 (R=0.071)  charge=  1.1575  magn=  0.0000
     atom  16 (R=0.071)  charge=  1.1780  magn=  0.0000
     atom  17 (R=0.071)  charge=  1.1777  magn= -0.0000
     atom  18 (R=0.071)  charge=  1.1470  magn= -0.0000
     atom  19 (R=0.071)  charge=  1.1561  magn=  0.0000
     atom  20 (R=0.071)  charge=  1.1790  magn= -0.0000
     atom  21 (R=0.071)  charge=  1.2101  magn=  0.0000
     atom  22 (R=0.071)  charge=  1.1467  magn=  0.0000
     atom  23 (R=0.071)  charge=  1.1582  magn=  0.0000
     atom  24 (R=0.071)  charge=  1.1702  magn=  0.0000
     atom  25 (R=0.071)  charge=  1.1770  magn= -0.0000
     atom  26 (R=0.071)  charge=  1.1461  magn= -0.0000
     atom  27 (R=0.071)  charge=  1.1571  magn= -0.0000
     atom  28 (R=0.071)  charge=  1.1790  magn= -0.0000
     atom  29 (R=0.071)  charge=  1.1782  magn=  0.0000
     atom  30 (R=0.071)  charge=  1.1465  magn= -0.0000
     atom  31 (R=0.071)  charge=  1.1615  magn= -0.0000
     atom  32 (R=0.071)  charge=  1.1786  magn= -0.0000
     atom  33 (R=0.045)  charge=  1.1121  magn=  0.0000
     atom  34 (R=0.045)  charge=  0.1931  magn=  0.0000

     total cpu time spent up to now is       98.0 secs

     End of self-consistent calculation

 ------ SPIN UP ------------


          k = 0.0000 0.0000 0.0000 ( 24951 PWs)   bands (ev):

   -25.1294 -19.4118 -19.2363 -19.1525 -19.0355 -18.5380 -18.3945 -18.3181
   -18.2109 -17.0211 -16.8602 -16.7895 -16.7471 -16.5830 -16.3764 -16.2083
   -15.8909 -14.9289 -14.5536 -14.4480 -14.1059 -13.5515 -12.8184 -12.7521
   -12.6804 -12.4947 -12.0512 -11.7661 -11.4926 -11.0497 -10.8552 -10.7516
   -10.6819 -10.6792 -10.4946 -10.3177 -10.1861  -9.9432  -8.5735  -7.8821
    -7.8094  -7.7779  -7.6407  -6.5159  -6.4382  -6.3774  -6.0669  -5.9209
    -5.4207  -5.3143  -5.3114  -5.2367  -5.1960  -5.1544  -5.1261  -5.1202
    -5.0281  -4.9571  -4.8455  -4.7508  -4.5452  -4.5431  -4.2410  -4.0942
    -3.8641  -3.8335  -3.2225  -2.2460  -0.6605  -0.6314  -0.4547  -0.1278
     0.2519   0.4413   0.6122   0.8786   0.9970   1.3149   1.5199   1.5769
     1.6777

 ------ SPIN DOWN ----------


          k = 0.0000 0.0000 0.0000 ( 24951 PWs)   bands (ev):

   -25.1294 -19.4118 -19.2363 -19.1525 -19.0355 -18.5380 -18.3945 -18.3181
   -18.2109 -17.0211 -16.8602 -16.7895 -16.7471 -16.5830 -16.3764 -16.2083
   -15.8909 -14.9289 -14.5536 -14.4480 -14.1059 -13.5515 -12.8184 -12.7521
   -12.6804 -12.4947 -12.0512 -11.7661 -11.4926 -11.0497 -10.8552 -10.7516
   -10.6819 -10.6792 -10.4946 -10.3177 -10.1861  -9.9432  -8.5735  -7.8821
    -7.8094  -7.7779  -7.6407  -6.5159  -6.4382  -6.3774  -6.0669  -5.9209
    -5.4207  -5.3143  -5.3114  -5.2367  -5.1960  -5.1544  -5.1261  -5.1202
    -5.0281  -4.9571  -4.8455  -4.7508  -4.5452  -4.5431  -4.2410  -4.0942
    -3.8641  -3.8335  -3.2225  -2.2460  -0.6605  -0.6314  -0.4547  -0.1278
     0.2519   0.4413   0.6122   0.8786   0.9970   1.3149   1.5199   1.5769
     1.6777

     the spin up/dw Fermi energies are    -2.2460   -2.2460 ev

!    total energy              =    -630.71770537 Ry
     estimated scf accuracy    <       0.00000019 Ry
     smearing contrib. (-TS)   =      -0.00005642 Ry
     internal energy E=F+TS    =    -630.71764895 Ry

     The total energy is F=E-TS. E is the sum of the following terms:
     one-electron contribution =    -787.78750427 Ry
     hartree contribution      =     420.63619497 Ry
     xc contribution           =    -153.06190226 Ry
     ewald contribution        =      96.35387596 Ry
     one-center paw contrib.   =    -206.85831334 Ry

     total magnetization       =     0.00 Bohr mag/cell
     absolute magnetization    =     0.00 Bohr mag/cell

     convergence has been achieved in   9 iterations

     negative rho (up, down):  4.850E-05 4.850E-05

     Forces acting on atoms (cartesian axes, Ry/au):

     atom    1 type  1   force =     0.05282111    0.00066313   -0.04811276
     atom    2 type  1   force =     0.00083069   -0.11550833    0.08570855
     atom    3 type  1   force =    -0.00048101   -0.02286585    0.04762184
     atom    4 type  1   force =    -0.05607506    0.00113510   -0.04981906
     atom    5 type  1   force =     0.03479761    0.00042130    0.03050539
     atom    6 type  1   force =     0.00159218    0.06510557   -0.09411670
     atom    7 type  1   force =    -0.00149726    0.00148639   -0.04939492
     atom    8 type  1   force =    -0.03800441    0.00040077    0.03206958
     atom    9 type  1   force =     0.00040650   -0.05318878    0.03438436
     atom   10 type  1   force =    -0.00180121    0.00035601   -0.02997512
     atom   11 type  1   force =     0.00082914   -0.07910190   -0.02152978
     atom   12 type  1   force =     0.00002158    0.03771990    0.08671902
     atom   13 type  1   force =    -0.00059397   -0.03538562   -0.02885009
     atom   14 type  1   force =     0.00070938   -0.02767428    0.05148279
     atom   15 type  1   force =    -0.00134407    0.00126860    0.04481010
     atom   16 type  1   force =    -0.00057726    0.03929361   -0.03092781
     atom   17 type  1   force =    -0.00062515    0.03557074    0.03053560
     atom   18 type  1   force =     0.00245663    0.00051205   -0.03933841
     atom   19 type  1   force =    -0.00154558   -0.00095251   -0.04936988
     atom   20 type  1   force =    -0.00060197   -0.03864730    0.03243498
     atom   21 type  1   force =    -0.00009547    0.11720853   -0.07263011
     atom   22 type  1   force =    -0.00235251    0.00029234    0.03767481
     atom   23 type  1   force =     0.00152358   -0.00484710    0.06004681
     atom   24 type  1   force =     0.00069767   -0.07048170   -0.03401359
     atom   25 type  1   force =    -0.03575666    0.00050138   -0.02954857
     atom   26 type  1   force =    -0.00044823   -0.00170144    0.03743727
     atom   27 type  1   force =     0.00157434    0.00106853    0.05045598
     atom   28 type  1   force =     0.03868859    0.00047064   -0.03116001
     atom   29 type  1   force =    -0.06421998   -0.00019515    0.03916707
     atom   30 type  1   force =    -0.00042782    0.00094490   -0.04041355
     atom   31 type  1   force =     0.00152599    0.00075440   -0.06408310
     atom   32 type  1   force =     0.06840398   -0.00036410    0.04177993
     atom   33 type  2   force =    -0.00059611    0.23474401   -0.02659388
     atom   34 type  3   force =     0.00016476   -0.08900385   -0.00295674

     Total force =     0.462644     Total SCF correction =     0.000535
     Energy error            =      2.2E-02 Ry
[...]
C            -0.1329982419        5.0257839738        3.7009992631
C             1.1024384580        4.9220662870        5.8545120540
O             3.3133889150        7.0141594502        9.4953085391
H             3.3297099465        7.4921859968       10.3522824989
End final coordinates



     Writing config-only to output data dir ./pwscf.save/

     lsda relaxation :  a final configuration with zero
                        absolute magnetization has been found

     the program is checking if it is really the minimum energy structure
     by performing a new scf iteration without any "electronic" history

     Initial potential from superposition of free atoms

     starting charge     134.9987, renormalised to     135.0000

     negative rho (up, down):  9.016E-08 9.016E-08

     total cpu time spent up to now is      970.7 secs

     Self-consistent Calculation

     iteration #  1     ecut=    50.00 Ry     beta= 0.30
     Davidson diagonalization with overlap
     c_bands:  3 eigenvalues not converged
     c_bands:  3 eigenvalues not converged
     ethr =  1.00E-06,  avg # of iterations = 20.0

     negative rho (up, down):  4.731E-07 4.731E-07

     total cpu time spent up to now is      974.2 secs

     total energy              =    -631.13136598 Ry
     estimated scf accuracy    <       4.01424461 Ry

     total magnetization       =    -0.00 Bohr mag/cell
     absolute magnetization    =     0.03 Bohr mag/cell

     iteration #  2     ecut=    50.00 Ry     beta= 0.30
     Davidson diagonalization with overlap
     ethr =  2.97E-03,  avg # of iterations =  1.0

     negative rho (up, down):  8.737E-06 8.735E-06

     total cpu time spent up to now is      975.4 secs

     total energy              =    -630.70729843 Ry
     estimated scf accuracy    <       1.07713090 Ry

     total magnetization       =    -0.00 Bohr mag/cell
     absolute magnetization    =     0.02 Bohr mag/cell

     iteration #  3     ecut=    50.00 Ry     beta= 0.30
     Davidson diagonalization with overlap
     ethr =  7.98E-04,  avg # of iterations =  2.0

     negative rho (up, down):  1.413E-05 1.413E-05

     total cpu time spent up to now is      976.9 secs

     total energy              =    -630.88574051 Ry
     estimated scf accuracy    <       0.05579489 Ry

     total magnetization       =     0.00 Bohr mag/cell
     absolute magnetization    =     0.02 Bohr mag/cell

     iteration #  4     ecut=    50.00 Ry     beta= 0.30
     Davidson diagonalization with overlap
     c_bands:  1 eigenvalues not converged
     c_bands:  1 eigenvalues not converged
     ethr =  4.13E-05,  avg # of iterations = 20.0

     negative rho (up, down):  1.941E-05 1.940E-05

     total cpu time spent up to now is      978.9 secs

     total energy              =    -630.89064493 Ry
     estimated scf accuracy    <       0.01669343 Ry

     total magnetization       =     0.00 Bohr mag/cell
     absolute magnetization    =     0.01 Bohr mag/cell

     iteration #  5     ecut=    50.00 Ry     beta= 0.30
     Davidson diagonalization with overlap
     ethr =  1.24E-05,  avg # of iterations =  7.0

     negative rho (up, down):  2.413E-05 2.412E-05

     total cpu time spent up to now is      980.4 secs

     total energy              =    -630.89211180 Ry
     estimated scf accuracy    <       0.00440926 Ry

     total magnetization       =    -0.00 Bohr mag/cell
     absolute magnetization    =     0.01 Bohr mag/cell

     iteration #  6     ecut=    50.00 Ry     beta= 0.30
     Davidson diagonalization with overlap
     ethr =  3.27E-06,  avg # of iterations =  2.0

     negative rho (up, down):  4.644E-05 4.643E-05

     total cpu time spent up to now is      981.8 secs

     total energy              =    -630.89241428 Ry
     estimated scf accuracy    <       0.00130094 Ry

     total magnetization       =     0.00 Bohr mag/cell
     absolute magnetization    =     0.01 Bohr mag/cell

     iteration #  7     ecut=    50.00 Ry     beta= 0.30
     Davidson diagonalization with overlap
     ethr =  9.64E-07,  avg # of iterations =  2.0

     negative rho (up, down):  4.952E-05 4.950E-05

     total cpu time spent up to now is      983.3 secs

     total energy              =    -630.89256408 Ry
     estimated scf accuracy    <       0.00013507 Ry

     total magnetization       =    -0.00 Bohr mag/cell
     absolute magnetization    =     0.01 Bohr mag/cell

     iteration #  8     ecut=    50.00 Ry     beta= 0.30
     Davidson diagonalization with overlap
     ethr =  1.00E-07,  avg # of iterations =  4.0

     negative rho (up, down):  5.081E-05 5.081E-05

     total cpu time spent up to now is      984.7 secs

     total energy              =    -630.89259227 Ry
     estimated scf accuracy    <       0.00001918 Ry

     total magnetization       =    -0.00 Bohr mag/cell
     absolute magnetization    =     0.00 Bohr mag/cell

     iteration #  9     ecut=    50.00 Ry     beta= 0.30
     Davidson diagonalization with overlap
     ethr =  1.42E-08,  avg # of iterations =  4.0

     negative rho (up, down):  5.182E-05 5.182E-05

     total cpu time spent up to now is      986.4 secs

     total energy              =    -630.89260318 Ry
     estimated scf accuracy    <       0.00001225 Ry

     total magnetization       =    -0.00 Bohr mag/cell
     absolute magnetization    =     0.00 Bohr mag/cell

     iteration # 10     ecut=    50.00 Ry     beta= 0.30
     Davidson diagonalization with overlap
     ethr =  9.07E-09,  avg # of iterations =  3.0

     negative rho (up, down):  5.182E-05 5.182E-05

     total cpu time spent up to now is      987.9 secs

     total energy              =    -630.89260739 Ry
     estimated scf accuracy    <       0.00000063 Ry

     total magnetization       =    -0.00 Bohr mag/cell
     absolute magnetization    =     0.00 Bohr mag/cell

     iteration # 11     ecut=    50.00 Ry     beta= 0.30
     Davidson diagonalization with overlap
     ethr =  4.68E-10,  avg # of iterations =  4.0

     negative rho (up, down):  5.193E-05 5.193E-05

     total cpu time spent up to now is      989.5 secs

     total energy              =    -630.89260892 Ry
     estimated scf accuracy    <       0.00000017 Ry

     total magnetization       =    -0.00 Bohr mag/cell
     absolute magnetization    =     0.00 Bohr mag/cell

     iteration # 12     ecut=    50.00 Ry     beta= 0.30
     Davidson diagonalization with overlap
     ethr =  1.28E-10,  avg # of iterations =  3.0

     negative rho (up, down):  5.197E-05 5.197E-05

     total cpu time spent up to now is      991.0 secs

     total energy              =    -630.89260957 Ry
     estimated scf accuracy    <       0.00000005 Ry

     total magnetization       =    -0.00 Bohr mag/cell
     absolute magnetization    =     0.00 Bohr mag/cell

     iteration # 13     ecut=    50.00 Ry     beta= 0.30
     Davidson diagonalization with overlap
     ethr =  3.43E-11,  avg # of iterations =  3.5

     negative rho (up, down):  5.197E-05 5.197E-05

     total cpu time spent up to now is      992.5 secs

     total energy              =    -630.89260988 Ry
     estimated scf accuracy    <       0.00000001 Ry

     total magnetization       =    -0.00 Bohr mag/cell
     absolute magnetization    =     0.00 Bohr mag/cell

     iteration # 14     ecut=    50.00 Ry     beta= 0.30
     Davidson diagonalization with overlap
     ethr =  8.73E-12,  avg # of iterations =  4.0

     negative rho (up, down):  5.189E-05 5.189E-05

     Magnetic moment per site  (integrated on atomic sphere of radius R)
     atom   1 (R=0.071)  charge=  1.1408  magn= -0.0000
     atom   2 (R=0.071)  charge=  1.1015  magn= -0.0000
     atom   3 (R=0.071)  charge=  1.1120  magn= -0.0000
     atom   4 (R=0.071)  charge=  1.1395  magn= -0.0000
     atom   5 (R=0.071)  charge=  1.1427  magn= -0.0000
     atom   6 (R=0.071)  charge=  1.0965  magn=  0.0000
     atom   7 (R=0.071)  charge=  1.1341  magn= -0.0000
     atom   8 (R=0.071)  charge=  1.1422  magn=  0.0000
     atom   9 (R=0.071)  charge=  1.1394  magn= -0.0000
     atom  10 (R=0.071)  charge=  1.1029  magn=  0.0000
     atom  11 (R=0.071)  charge=  1.0894  magn=  0.0000
     atom  12 (R=0.071)  charge=  1.1428  magn= -0.0000
     atom  13 (R=0.071)  charge=  1.1429  magn= -0.0000
     atom  14 (R=0.071)  charge=  1.1021  magn=  0.0000
     atom  15 (R=0.071)  charge=  1.1345  magn=  0.0000
     atom  16 (R=0.071)  charge=  1.1421  magn= -0.0000
     atom  17 (R=0.071)  charge=  1.1436  magn=  0.0000
     atom  18 (R=0.071)  charge=  1.1044  magn= -0.0000
     atom  19 (R=0.071)  charge=  1.1346  magn=  0.0000
     atom  20 (R=0.071)  charge=  1.1414  magn=  0.0000
     atom  21 (R=0.071)  charge=  1.1402  magn=  0.0000
     atom  22 (R=0.071)  charge=  1.1038  magn=  0.0000
     atom  23 (R=0.071)  charge=  1.1352  magn=  0.0000
     atom  24 (R=0.071)  charge=  1.1396  magn=  0.0000
     atom  25 (R=0.071)  charge=  1.1417  magn=  0.0000
     atom  26 (R=0.071)  charge=  1.1046  magn=  0.0000
     atom  27 (R=0.071)  charge=  1.1358  magn= -0.0000
     atom  28 (R=0.071)  charge=  1.1425  magn= -0.0000
     atom  29 (R=0.071)  charge=  1.1427  magn=  0.0000
     atom  30 (R=0.071)  charge=  1.1047  magn= -0.0000
     atom  31 (R=0.071)  charge=  1.1343  magn= -0.0000
     atom  32 (R=0.071)  charge=  1.1430  magn= -0.0000
     atom  33 (R=0.045)  charge=  1.1022  magn=  0.0000
     atom  34 (R=0.045)  charge=  0.2322  magn=  0.0000

     total cpu time spent up to now is      994.0 secs

     End of self-consistent calculation

 ------ SPIN UP ------------


          k = 0.0000 0.0000 0.0000 ( 24951 PWs)   bands (ev):

   -24.2508 -19.3676 -19.2603 -19.1602 -18.9262 -18.6016 -18.3802 -18.3345
   -18.1255 -17.2219 -16.9816 -16.8701 -16.7259 -16.6038 -16.3984 -16.3630
   -15.9254 -15.0765 -14.6216 -14.5520 -14.1605 -12.8217 -12.6578 -12.5465
   -12.2698 -12.2015 -11.9966 -11.8649 -11.4600 -11.2654 -10.8814 -10.7571
   -10.7122 -10.5970 -10.5070 -10.3260 -10.2965  -9.7369  -8.2149  -7.9527
    -7.8408  -7.5432  -7.3483  -6.9078  -6.6459  -6.5324  -6.2327  -6.0513
    -5.7914  -5.5269  -5.5107  -5.3995  -5.3444  -5.3274  -5.2395  -5.2106
    -5.2004  -4.9977  -4.9756  -4.9278  -4.8120  -4.5979  -4.3872  -4.3512
    -4.0367  -3.9293  -3.3341  -2.4539  -0.9314  -0.8982  -0.7476   0.0751
     0.1135   0.4259   0.6016   0.9503   1.2497   1.3182   1.4649   1.5547
     1.6780

 ------ SPIN DOWN ----------


          k = 0.0000 0.0000 0.0000 ( 24951 PWs)   bands (ev):

   -24.2507 -19.3676 -19.2603 -19.1602 -18.9262 -18.6016 -18.3802 -18.3345
   -18.1255 -17.2219 -16.9816 -16.8701 -16.7259 -16.6038 -16.3984 -16.3630
   -15.9254 -15.0765 -14.6216 -14.5520 -14.1604 -12.8217 -12.6578 -12.5465
   -12.2698 -12.2015 -11.9966 -11.8649 -11.4600 -11.2654 -10.8814 -10.7571
   -10.7122 -10.5970 -10.5070 -10.3260 -10.2965  -9.7369  -8.2149  -7.9527
    -7.8408  -7.5432  -7.3483  -6.9078  -6.6460  -6.5324  -6.2327  -6.0513
    -5.7914  -5.5270  -5.5107  -5.3995  -5.3444  -5.3274  -5.2395  -5.2106
    -5.2004  -4.9976  -4.9756  -4.9278  -4.8120  -4.5979  -4.3872  -4.3512
    -4.0367  -3.9294  -3.3341  -2.4539  -0.9315  -0.8982  -0.7476   0.0751
     0.1135   0.4259   0.6016   0.9503   1.2497   1.3182   1.4649   1.5547
     1.6780

     the spin up/dw Fermi energies are    -2.4539   -2.4539 ev

!    total energy              =    -630.89260997 Ry
     estimated scf accuracy    <          3.0E-09 Ry
     smearing contrib. (-TS)   =      -0.00005642 Ry
     internal energy E=F+TS    =    -630.89255355 Ry

     The total energy is F=E-TS. E is the sum of the following terms:
     one-electron contribution =    -779.79448144 Ry
     hartree contribution      =     416.41180818 Ry
     xc contribution           =    -152.87187522 Ry
     ewald contribution        =      92.24343980 Ry
     one-center paw contrib.   =    -206.88144487 Ry

     total magnetization       =    -0.00 Bohr mag/cell
     absolute magnetization    =     0.00 Bohr mag/cell

     convergence has been achieved in  14 iterations

     negative rho (up, down):  5.189E-05 5.189E-05

     Forces acting on atoms (cartesian axes, Ry/au):

     atom    1 type  1   force =     0.00002602    0.00043950   -0.00005224
     atom    2 type  1   force =    -0.00004627    0.00018303   -0.00013459
     atom    3 type  1   force =    -0.00006968   -0.00015295    0.00013408
     atom    4 type  1   force =     0.00018557    0.00051950    0.00009959
     atom    5 type  1   force =     0.00036569    0.00012659    0.00021814
     atom    6 type  1   force =    -0.00013987    0.00007777    0.00047481
     atom    7 type  1   force =     0.00002238    0.00007913   -0.00050287
     atom    8 type  1   force =     0.00024961    0.00010507   -0.00012533
     atom    9 type  1   force =    -0.00002461    0.00017724    0.00009815
     atom   10 type  1   force =    -0.00005969    0.00014947   -0.00008768
     atom   11 type  1   force =     0.00003343   -0.00008437    0.00038004
     atom   12 type  1   force =    -0.00006322    0.00014202    0.00037960
     atom   13 type  1   force =     0.00004329   -0.00042132    0.00060355
     atom   14 type  1   force =    -0.00012024   -0.00004153    0.00013735
     atom   15 type  1   force =     0.00001442   -0.00060474   -0.00022785
     atom   16 type  1   force =     0.00004758    0.00038346    0.00057928
     atom   17 type  1   force =     0.00002122   -0.00038317   -0.00041047
     atom   18 type  1   force =    -0.00014593    0.00002735   -0.00016868
     atom   19 type  1   force =    -0.00004086    0.00012311   -0.00000484
     atom   20 type  1   force =     0.00002554   -0.00074685   -0.00071176
     atom   21 type  1   force =    -0.00005045   -0.00016360   -0.00046011
     atom   22 type  1   force =     0.00000307   -0.00015139    0.00010878
     atom   23 type  1   force =     0.00003772    0.00059058    0.00001411
     atom   24 type  1   force =    -0.00003870    0.00026765    0.00020418
     atom   25 type  1   force =    -0.00012313   -0.00018246   -0.00053823
     atom   26 type  1   force =     0.00006167   -0.00040685   -0.00004613
     atom   27 type  1   force =    -0.00003976    0.00013510    0.00020472
     atom   28 type  1   force =    -0.00034787   -0.00014724   -0.00023421
     atom   29 type  1   force =     0.00010767    0.00025914    0.00026307
     atom   30 type  1   force =     0.00000610   -0.00029941   -0.00022043
     atom   31 type  1   force =    -0.00003635   -0.00033062   -0.00021149
     atom   32 type  1   force =    -0.00027367    0.00020234    0.00010888
     atom   33 type  2   force =     0.00008680    0.00001102   -0.00003450
     atom   34 type  3   force =     0.00028250    0.00011742    0.00016312

     Total force =     0.002635     Total SCF correction =     0.000051
     Energy error            =      1.3E-05 Ry
     Gradient error          =      7.5E-04 Ry/Bohr

     bfgs converged in  59 scf cycles and  55 bfgs steps
     (criteria: energy <  1.0E-04 Ry, force <  1.0E-03 Ry/Bohr)

     End of BFGS Geometry Optimization

     Final energy             =    -630.8926099719 Ry

     File ./pwscf.bfgs deleted, as requested
Begin final coordinates

ATOMIC_POSITIONS (angstrom)
C             4.6535387399        4.9026569562        6.4802138090
C             3.4067591334        1.7807033078       13.2539650145
C             3.4187304753        4.9164332005        8.6177129747
C             2.1774317187        4.8972061514        6.4814097806
C             4.6383195056        1.7133440279       18.1210134637
C             3.3975362623        5.3278684866       11.2710234152
C             3.4094667840        1.7674545440       15.9621252990
C             2.1780689605        1.7134168119       18.1198469645
C             3.4032700555        4.0619105624       11.8751502985
C             6.9643851441        4.9538156393        5.1613127333
C             3.3781873721        5.6563323072        9.7392315717
C             3.4020614137        6.4923671227       12.0647876230
C            -0.1375204518        3.9110791838        0.2988993989
C             3.4158732120        4.8996584728        7.2002329719
C            -0.1349399448        5.0960068940        2.4659596826
C            -0.1376126788        6.3676995275        0.3162384302
C            -0.1378075344        2.8169669708       24.2836151218
C             3.4086606750        1.7319487051       17.4364000335
C            -0.1384018043        1.6021564427       22.1264865358
C            -0.1378805700        0.3582890377       24.2869620957
C             3.4052653463        2.9916917280       12.5281747920
C            -0.1398524596        1.6770533424       19.4199576053
C             3.4099772532        1.7940302363       14.7281634784
C             3.4034624693        0.5222891515       12.6173758505
C             5.7272804837        1.6968376384       18.7351789407
C            -0.1368774667        5.1336746299        0.9940526494
C            -0.1388784132        1.6352317112       20.8928652063
C             1.0892667122        1.6967701074       18.7338926189
C             5.7287124022        4.9252456013        5.8536251498
C            -0.1380218731        1.5876657934       23.6010241356
C            -0.1329982419        5.0257839738        3.7009992631
C             1.1024384580        4.9220662870        5.8545120540
O             3.3133889150        7.0141594502        9.4953085391
H             3.3297099465        7.4921859968       10.3522824989
End final coordinates



     Writing all to output data dir ./pwscf.save/

     init_run     :      2.46s CPU      2.54s WALL (       1 calls)
     electrons    :    725.22s CPU    767.48s WALL (      60 calls)
     update_pot   :     99.70s CPU    100.71s WALL (      58 calls)
     forces       :     82.88s CPU     85.59s WALL (      60 calls)

     Called by init_run:
     wfcinit      :      0.39s CPU      0.42s WALL (       1 calls)
     potinit      :      2.12s CPU      2.16s WALL (       2 calls)
     hinit0       :      0.76s CPU      0.77s WALL (       1 calls)

     Called by electrons:
     c_bands      :    347.64s CPU    359.72s WALL (     492 calls)
     sum_band     :    105.44s CPU    109.51s WALL (     492 calls)
     v_of_rho     :    112.79s CPU    116.84s WALL (     542 calls)
     newd         :     44.15s CPU     45.57s WALL (     542 calls)
     PAW_pot      :    139.89s CPU    140.59s WALL (     600 calls)
     mix_rho      :     10.05s CPU     11.02s WALL (     492 calls)

     Called by c_bands:
     init_us_2    :      5.37s CPU      5.50s WALL (    2206 calls)
     init_us_2:cp :      5.35s CPU      5.50s WALL (    2206 calls)
     regterg      :    338.98s CPU    350.80s WALL (     984 calls)

     Called by *egterg:
     rdiaghg      :     19.42s CPU     19.54s WALL (    4234 calls)
     h_psi        :    220.02s CPU    230.48s WALL (    4374 calls)
     s_psi        :     27.30s CPU     27.50s WALL (    4374 calls)
     g_psi        :      0.79s CPU      0.79s WALL (    3388 calls)

     Called by h_psi:
     h_psi:calbec :     26.15s CPU     26.60s WALL (    4374 calls)
     vloc_psi     :    164.45s CPU    174.27s WALL (    4374 calls)
     add_vuspsi   :     27.79s CPU     27.97s WALL (    4374 calls)

     General routines
     calbec       :     40.08s CPU     40.76s WALL (    5954 calls)
     fft          :     45.64s CPU     51.46s WALL (   11938 calls)
     ffts         :      3.17s CPU      3.54s WALL (    2068 calls)
     fftw         :    170.26s CPU    180.91s WALL (  249456 calls)
     interpolate  :      5.98s CPU      6.76s WALL (    1084 calls)

     Parallel routines

     PWSCF        :  15m40.36s CPU  16m36.93s WALL


   This run was terminated on:  17:45: 9  24May2025            

=------------------------------------------------------------------------------=
   JOB DONE.
=------------------------------------------------------------------------------=
