LAMMPS (3 Mar 2020)
Reading data file ...
  orthogonal box = (0 0 0) to (16.525 16.526 16.526)
  2 by 2 by 2 MPI processor grid
  reading atoms ...
  97 atoms
  read_data CPU = 0.0037629 secs
WARNING: Changed valency_val to valency_boc for X (../reaxc_ffield.cpp:315)
WARNING: Using 'neigh_modify every 1 delay 0 check yes' setting during minimization (../min.cpp:190)
Neighbor list info ...
  update every 1 steps, delay 0 steps, check yes
  max neighbors/atom: 2000, page size: 100000
  master list distance cutoff = 12
  ghost atom cutoff = 12
  binsize = 6, bins = 3 3 3
  2 neighbor lists, perpetual/occasional/extra = 2 0 0
  (1) pair reax/c, perpetual
      attributes: half, newton off, ghost
      pair build: half/bin/newtoff/ghost
      stencil: half/ghost/bin/3d/newtoff
      bin: standard
  (2) fix qeq/reax, perpetual, copy from (1)
      attributes: half, newton off, ghost
      pair build: copy
      stencil: none
      bin: none
Setting up cg style minimization ...
  Unit style    : real
  Current step  : 0
Per MPI rank memory allocation (min/avg/max) = 21.03 | 21.06 | 21.15 Mbytes
Step Temp E_pair E_mol TotEng Press 
       0            0   -17141.936            0   -17141.936   -30446.506 
      30            0   -17234.255            0   -17234.255   -4747.0444 
Loop time of 0.774471 on 8 procs for 30 steps with 97 atoms

98.8% CPU use with 8 MPI tasks x no OpenMP threads

Minimization stats:
  Stopping criterion = linesearch alpha is zero
  Energy initial, next-to-last, final = 
        -17141.9360289      -17234.255245     -17234.2552451
  Force two-norm initial, final = 1114.12 209.224
  Force max component initial, final = 189.809 60.5135
  Final line search alpha, max atom move = 1.92313e-13 1.16375e-11
  Iterations, force evaluations = 30 239

MPI task timing breakdown:
Section |  min time  |  avg time  |  max time  |%varavg| %total
---------------------------------------------------------------
Pair    | 0.62728    | 0.63176    | 0.63957    |   0.5 | 81.57
Neigh   | 0          | 0          | 0          |   0.0 |  0.00
Comm    | 0.0085328  | 0.016444   | 0.020776   |   3.4 |  2.12
Output  | 6.5011e-05 | 8.4443e-05 | 0.00016015 |   0.0 |  0.01
Modify  | 0.12397    | 0.12408    | 0.12422    |   0.0 | 16.02
Other   |            | 0.002103   |            |       |  0.27

Nlocal:    12.125 ave 13 max 12 min
Histogram: 7 0 0 0 0 0 0 0 0 1
Nghost:    721.625 ave 727 max 720 min
Histogram: 6 0 0 0 0 0 0 0 1 1
Neighs:    1599.25 ave 1717 max 1572 min
Histogram: 7 0 0 0 0 0 0 0 0 1

Total # of neighbors = 12794
Ave neighs/atom = 131.897
Neighbor list builds = 0
Dangerous builds = 0
WARNING: Using 'neigh_modify every 1 delay 0 check yes' setting during minimization (../min.cpp:190)
Setting up cg style minimization ...
  Unit style    : real
  Current step  : 30
Per MPI rank memory allocation (min/avg/max) = 21.03 | 21.06 | 21.15 Mbytes
Step Temp E_pair E_mol TotEng Press 
      30            0   -17234.255            0   -17234.255    -4747.044 
      31            0   -17234.255            0   -17234.255   -4747.0438 
Loop time of 0.178947 on 8 procs for 1 steps with 97 atoms

98.8% CPU use with 8 MPI tasks x no OpenMP threads

Minimization stats:
  Stopping criterion = linesearch alpha is zero
  Energy initial, next-to-last, final = 
        -17234.2552451     -17234.2552451     -17234.2552448
  Force two-norm initial, final = 209.224 209.224
  Force max component initial, final = 60.5135 60.5135
  Final line search alpha, max atom move = 1.92379e-13 1.16415e-11
  Iterations, force evaluations = 1 59

MPI task timing breakdown:
Section |  min time  |  avg time  |  max time  |%varavg| %total
---------------------------------------------------------------
Pair    | 0.15183    | 0.15321    | 0.1555     |   0.3 | 85.62
Neigh   | 0          | 0          | 0          |   0.0 |  0.00
Comm    | 0.0028942  | 0.0052152  | 0.0065614  |   1.7 |  2.91
Output  | 0          | 0          | 0          |   0.0 |  0.00
Modify  | 0.019901   | 0.019925   | 0.01996    |   0.0 | 11.13
Other   |            | 0.0005918  |            |       |  0.33

Nlocal:    12.125 ave 13 max 12 min
Histogram: 7 0 0 0 0 0 0 0 0 1
Nghost:    719.625 ave 727 max 716 min
Histogram: 3 0 0 3 0 1 0 0 0 1
Neighs:    1597.5 ave 1711 max 1570 min
Histogram: 6 1 0 0 0 0 0 0 0 1

Total # of neighbors = 12780
Ave neighs/atom = 131.753
Neighbor list builds = 0
Dangerous builds = 0
WARNING: Using 'neigh_modify every 1 delay 0 check yes' setting during minimization (../min.cpp:190)
Setting up cg style minimization ...
  Unit style    : real
  Current step  : 31
WARNING: Energy due to 3 extra global DOFs will be included in minimizer energies
Per MPI rank memory allocation (min/avg/max) = 21.03 | 21.06 | 21.15 Mbytes
Step Temp E_pair E_mol TotEng Press Volume 
      31            0   -17234.255            0   -17234.255   -4747.0444    4513.1209 
      32            0   -17234.255            0   -17234.255   -4741.8015    4513.1199 
Loop time of 0.0639161 on 8 procs for 1 steps with 97 atoms

99.4% CPU use with 8 MPI tasks x no OpenMP threads

Minimization stats:
  Stopping criterion = energy tolerance
  Energy initial, next-to-last, final = 
        -17234.2552453     -17234.2552453     -17234.2553321
  Force two-norm initial, final = 597.085 596.521
  Force max component initial, final = 405.434 405.119
  Final line search alpha, max atom move = 2.40869e-10 9.75805e-08
  Iterations, force evaluations = 1 21

MPI task timing breakdown:
Section |  min time  |  avg time  |  max time  |%varavg| %total
---------------------------------------------------------------
Pair    | 0.055468   | 0.056074   | 0.056964   |   0.2 | 87.73
Neigh   | 0          | 0          | 0          |   0.0 |  0.00
Comm    | 0.00059976 | 0.0014997  | 0.0020941  |   1.2 |  2.35
Output  | 0          | 0          | 0          |   0.0 |  0.00
Modify  | 0.0058472  | 0.0058538  | 0.0058632  |   0.0 |  9.16
Other   |            | 0.0004882  |            |       |  0.76

Nlocal:    12.125 ave 13 max 12 min
Histogram: 7 0 0 0 0 0 0 0 0 1
Nghost:    719.625 ave 727 max 716 min
Histogram: 3 0 0 3 0 1 0 0 0 1
Neighs:    1597.5 ave 1711 max 1570 min
Histogram: 6 1 0 0 0 0 0 0 0 1

Total # of neighbors = 12780
Ave neighs/atom = 131.753
Neighbor list builds = 0
Dangerous builds = 0
WARNING: Using 'neigh_modify every 1 delay 0 check yes' setting during minimization (../min.cpp:190)
Setting up cg style minimization ...
  Unit style    : real
  Current step  : 32
Per MPI rank memory allocation (min/avg/max) = 21.03 | 21.06 | 21.15 Mbytes
Step Temp E_pair E_mol TotEng Press 
      32            0   -17234.255            0   -17234.255   -4741.7982 
      33            0   -17234.255            0   -17234.255   -4741.8003 
Loop time of 0.17647 on 8 procs for 1 steps with 97 atoms

99.3% CPU use with 8 MPI tasks x no OpenMP threads

Minimization stats:
  Stopping criterion = linesearch alpha is zero
  Energy initial, next-to-last, final = 
        -17234.2553295     -17234.2553295     -17234.2553314
  Force two-norm initial, final = 209.135 209.135
  Force max component initial, final = 60.5033 60.5033
  Final line search alpha, max atom move = 1.92411e-13 1.16415e-11
  Iterations, force evaluations = 1 59

MPI task timing breakdown:
Section |  min time  |  avg time  |  max time  |%varavg| %total
---------------------------------------------------------------
Pair    | 0.15093    | 0.15251    | 0.15466    |   0.3 | 86.42
Neigh   | 0          | 0          | 0          |   0.0 |  0.00
Comm    | 0.0017575  | 0.0039384  | 0.005485   |   1.8 |  2.23
Output  | 0          | 0          | 0          |   0.0 |  0.00
Modify  | 0.019478   | 0.019501   | 0.019528   |   0.0 | 11.05
Other   |            | 0.0005238  |            |       |  0.30

Nlocal:    12.125 ave 13 max 12 min
Histogram: 7 0 0 0 0 0 0 0 0 1
Nghost:    719.625 ave 727 max 716 min
Histogram: 3 0 0 3 0 1 0 0 0 1
Neighs:    1597.5 ave 1711 max 1570 min
Histogram: 6 1 0 0 0 0 0 0 0 1

Total # of neighbors = 12780
Ave neighs/atom = 131.753
Neighbor list builds = 0
Dangerous builds = 0
WARNING: Using 'neigh_modify every 1 delay 0 check yes' setting during minimization (../min.cpp:190)
Setting up cg style minimization ...
  Unit style    : real
  Current step  : 33
WARNING: Energy due to 3 extra global DOFs will be included in minimizer energies
Per MPI rank memory allocation (min/avg/max) = 21.03 | 21.06 | 21.15 Mbytes
Step Temp E_pair E_mol TotEng Press Volume 
      33            0   -17234.255            0   -17234.255   -4741.7988    4513.1199 
      34            0   -17234.255            0   -17234.255   -4736.4826    4513.1188 
Loop time of 0.0637117 on 8 procs for 1 steps with 97 atoms

99.0% CPU use with 8 MPI tasks x no OpenMP threads

Minimization stats:
  Stopping criterion = energy tolerance
  Energy initial, next-to-last, final = 
        -17234.2553305     -17234.2553305     -17234.2554172
  Force two-norm initial, final = 596.521 595.95
  Force max component initial, final = 405.119 404.802
  Final line search alpha, max atom move = 2.41056e-10 9.75798e-08
  Iterations, force evaluations = 1 21

MPI task timing breakdown:
Section |  min time  |  avg time  |  max time  |%varavg| %total
---------------------------------------------------------------
Pair    | 0.055393   | 0.05603    | 0.056995   |   0.2 | 87.94
Neigh   | 0          | 0          | 0          |   0.0 |  0.00
Comm    | 0.00058424 | 0.0015533  | 0.0021825  |   1.3 |  2.44
Output  | 0          | 0          | 0          |   0.0 |  0.00
Modify  | 0.0056545  | 0.0056608  | 0.0056652  |   0.0 |  8.89
Other   |            | 0.0004677  |            |       |  0.73

Nlocal:    12.125 ave 13 max 12 min
Histogram: 7 0 0 0 0 0 0 0 0 1
Nghost:    719.625 ave 727 max 716 min
Histogram: 3 0 0 3 0 1 0 0 0 1
Neighs:    1597.5 ave 1711 max 1570 min
Histogram: 6 1 0 0 0 0 0 0 0 1

Total # of neighbors = 12780
Ave neighs/atom = 131.753
Neighbor list builds = 0
Dangerous builds = 0
WARNING: Using 'neigh_modify every 1 delay 0 check yes' setting during minimization (../min.cpp:190)
Setting up cg style minimization ...
  Unit style    : real
  Current step  : 34
Per MPI rank memory allocation (min/avg/max) = 21.03 | 21.06 | 21.15 Mbytes
Step Temp E_pair E_mol TotEng Press 
      34            0   -17234.255            0   -17234.255   -4736.4818 
      35            0   -17234.255            0   -17234.255   -4736.4826 
Loop time of 0.177362 on 8 procs for 1 steps with 97 atoms

99.3% CPU use with 8 MPI tasks x no OpenMP threads

Minimization stats:
  Stopping criterion = linesearch alpha is zero
  Energy initial, next-to-last, final = 
        -17234.2554166     -17234.2554166     -17234.2554173
  Force two-norm initial, final = 209.044 209.044
  Force max component initial, final = 60.4932 60.4932
  Final line search alpha, max atom move = 1.92444e-13 1.16415e-11
  Iterations, force evaluations = 1 59

MPI task timing breakdown:
Section |  min time  |  avg time  |  max time  |%varavg| %total
---------------------------------------------------------------
Pair    | 0.15109    | 0.15274    | 0.15562    |   0.3 | 86.12
Neigh   | 0          | 0          | 0          |   0.0 |  0.00
Comm    | 0.0017205  | 0.0045924  | 0.0062055  |   2.0 |  2.59
Output  | 0          | 0          | 0          |   0.0 |  0.00
Modify  | 0.019479   | 0.019495   | 0.019509   |   0.0 | 10.99
Other   |            | 0.0005314  |            |       |  0.30

Nlocal:    12.125 ave 13 max 12 min
Histogram: 7 0 0 0 0 0 0 0 0 1
Nghost:    719.625 ave 727 max 716 min
Histogram: 3 0 0 3 0 1 0 0 0 1
Neighs:    1597.5 ave 1711 max 1570 min
Histogram: 6 1 0 0 0 0 0 0 0 1

Total # of neighbors = 12780
Ave neighs/atom = 131.753
Neighbor list builds = 0
Dangerous builds = 0
Setting up Verlet run ...
  Unit style    : real
  Current step  : 0
  Time step     : 0.25
Per MPI rank memory allocation (min/avg/max) = 19.9 | 19.93 | 20.02 Mbytes
Step Temp TotEng KinEng PotEng Press 
       0          300   -17148.408    85.847329   -17234.255   -3866.9548 
     200    223.65574    -17117.17    64.000828   -17181.171     8375.288 
     400    318.95684    -17075.99    91.271977   -17167.262    2928.9718 
     600    271.16572   -17068.621    77.596176   -17146.217   -8439.9395 
     800    301.83325   -17081.466    86.371927   -17167.838    4639.3418 
    1000    292.72462   -17097.661    83.765423   -17181.426    4079.1933 
    1200    313.48036   -17072.745    89.704839    -17162.45    6137.4713 
    1400     337.4293   -17077.353    96.558016   -17173.911    5939.8295 
    1600    269.96006   -17094.931    77.251168   -17172.182    -6925.344 
    1800    303.98576   -17066.035    86.987886   -17153.023    -1624.614 
    2000    291.70868   -17080.881    83.474705   -17164.355    4206.3592 
    2200    286.56812   -17084.682    82.003692   -17166.685    4602.6291 
    2400    305.67775   -17085.419    87.472063   -17172.891   -10728.041 
    2600    331.82382   -17074.137    94.953962   -17169.091    3697.0926 
    2800    276.14702   -17081.251    79.021615   -17160.273   -675.52142 
    3000    251.59672   -17097.838    71.996354   -17169.834   -707.94274 
    3200    269.47072   -17081.919    77.111138    -17159.03    5282.8006 
    3400    291.00815   -17080.354    83.274243   -17163.628    -3232.149 
    3600    274.59219   -17098.146    78.576687   -17176.722     4518.587 
    3800    301.15329   -17076.412    86.177353    -17162.59   -142.86626 
    4000    289.54342   -17078.228    82.855098   -17161.083   -407.94595 
    4200     237.3331   -17091.661    67.914709   -17159.576   -14173.187 
    4400    315.23026   -17073.215    90.205587    -17163.42    11163.156 
    4600    295.39559   -17095.538    84.529742   -17180.068    2811.1118 
    4800    283.79828   -17080.752    81.211082   -17161.963    4919.7196 
    5000     288.4195   -17071.084    82.533479   -17153.618   -15475.838 
    5200    342.97171   -17070.896    98.144018    -17169.04    9033.4324 
    5400    290.95453   -17094.839    83.258899   -17178.098    13685.141 
    5600    314.34331   -17081.937    89.951779   -17171.889   -2476.9843 
    5800    305.69852   -17069.808    87.478004   -17157.286   -5225.7784 
    6000    277.91801    -17098.15    79.528397   -17177.678    405.95422 
    6200    307.57621   -17081.763     88.01532   -17169.779   -4327.3665 
    6400    303.02079   -17075.914    86.711751   -17162.626    6232.2412 
    6600    291.97622    -17083.71    83.551262   -17167.261   -10929.285 
    6800      320.499   -17078.871    91.713277   -17170.584    5119.5109 
    7000    287.19254   -17076.057    82.182375   -17158.239   -8305.4654 
    7200    288.66876    -17088.14    82.604808   -17170.745    3883.2626 
    7400    262.39448   -17088.323    75.086218   -17163.409    1210.0357 
    7600    287.59393   -17089.304    82.297237   -17171.601    1122.3544 
    7800    318.93353   -17072.034    91.265306     -17163.3    14216.039 
    8000    269.39213   -17092.515     77.08865   -17169.604     1360.946 
    8200    299.10462   -17093.648     85.59111   -17179.239    7045.0506 
    8400    314.53167   -17083.732     90.00568   -17173.737     1536.362 
    8600    302.81921   -17074.213    86.654067   -17160.867    -9052.362 
    8800    281.52153   -17078.985    80.559571   -17159.544    7195.3304 
    9000    313.47935   -17090.263    89.704551   -17179.967   -1131.1837 
    9200    279.48908   -17085.941    79.977971   -17165.919    5110.9217 
    9400    319.43344   -17072.904    91.408359   -17164.313    2944.4607 
    9600    344.39874   -17054.281    98.552373   -17152.834    1308.2464 
    9800    333.15261   -17082.974    95.334206   -17178.308     4884.067 
   10000    281.65511    -17094.65    80.597796   -17175.247    2082.6752 
   10200    321.29896   -17075.627    91.942193   -17167.569    10666.342 
   10400    299.78342   -17071.125    85.785352    -17156.91    6693.0976 
   10600    283.75788   -17093.513    81.199521   -17174.713   -13073.488 
   10800    303.67571    -17088.16    86.899164   -17175.059    1847.6479 
   11000    300.87487   -17079.539    86.097681   -17165.637    9277.0666 
   11200     305.7397   -17071.669    87.489788   -17159.159   -5619.3547 
   11400    313.93811   -17083.842    89.835829   -17173.677    6289.0783 
   11600    329.14064    -17077.45     94.18615   -17171.636    9162.0628 
   11800    296.16257   -17093.694     84.74922   -17178.443   -3639.4792 
   12000     248.8826   -17108.489    71.219688   -17179.709   -15306.169 
   12200     307.4046   -17079.491    87.966212   -17167.457   -10497.633 
   12400     307.7309   -17071.716    88.059585   -17159.775    3574.1559 
   12600    273.82599   -17090.833    78.357434    -17169.19   -21770.588 
   12800    263.48575   -17085.487    75.398494   -17160.886    5069.8197 
   13000    347.99129   -17058.951    99.580411   -17158.532   -2055.4976 
   13200    297.34131   -17083.794    85.086526   -17168.881    1172.4738 
   13400    280.99717   -17083.631    80.409522   -17164.041   -6522.4472 
   13600    358.94628   -17075.954    102.71527   -17178.669    2760.8508 
   13800    299.06135   -17090.828    85.578727   -17176.407     3260.552 
   14000    309.36337   -17073.154    88.526731   -17161.681   -9690.0062 
   14200     332.2408   -17077.131    95.073283   -17172.204   -2680.1555 
   14400    304.54953   -17088.257    87.149213   -17175.406     3192.039 
   14600    276.73941   -17087.603    79.191132   -17166.794   -9829.9599 
   14800    334.57731   -17064.778    95.741896    -17160.52   -2933.3395 
   15000    255.03594   -17087.589    72.980514   -17160.569   -5702.2372 
   15200    348.76798   -17081.325    99.802664   -17181.128   -1201.2178 
   15400    254.93025   -17090.913    72.950272   -17163.864    4936.1654 
   15600    308.58639   -17080.961    88.304391   -17169.265    5375.9559 
   15800    313.01167   -17063.959    89.570719   -17153.529     6793.903 
   16000    281.31672   -17067.195    80.500963   -17147.696    10301.229 
   16200    295.50433   -17089.779    84.560857    -17174.34     1848.422 
   16400    326.58077   -17074.129    93.453623   -17167.582    7098.3157 
   16600    305.76097   -17078.142    87.495877   -17165.638    1978.0292 
   16800    270.60612   -17085.602    77.436043   -17163.038    9328.2169 
   17000     309.8519   -17067.794    88.666527   -17156.461    5020.8325 
   17200    288.63586   -17080.285    82.595393    -17162.88   -3630.3427 
   17400    280.80378    -17091.35    80.354182   -17171.705   -9201.3901 
   17600    270.43433   -17068.622    77.386884   -17146.009   -5233.9737 
   17800    339.38115   -17071.229    97.116552   -17168.346    7005.2838 
   18000    278.22983   -17087.747    79.617627   -17167.365     4785.314 
   18200     270.9296   -17094.022    77.528609   -17171.551    7263.0611 
   18400    304.06063    -17080.29    87.009311   -17167.299    10339.454 
   18600    295.21108   -17074.919    84.476944   -17159.396   -2570.4027 
   18800    252.54579   -17099.364    72.267939   -17171.632   -12635.528 
   19000    274.99478   -17089.146    78.691893   -17167.838    2890.1462 
   19200      299.194   -17073.744    85.616687   -17159.361   -11733.325 
   19400    345.02979   -17056.011    98.732953   -17154.744   -1289.8806 
   19600    292.28843    -17082.35    83.640604    -17165.99    2526.7904 
   19800    323.83583   -17082.672    92.668137    -17175.34    2653.9118 
   20000    323.81807   -17071.326    92.663056   -17163.989   -8520.1746 
   20200    272.03119   -17090.497    77.843838   -17168.341    229.22958 
   20400    328.87158   -17078.767    94.109157   -17172.877    5380.2975 
   20600    283.29465   -17078.225    81.066963   -17159.292     6565.268 
   20800    310.55811   -17089.466    88.868614   -17178.335   -4177.8542 
   21000    281.33629   -17097.203    80.506565   -17177.709    4484.6006 
   21200    304.11431   -17076.372     87.02467   -17163.397    5141.2141 
   21400    293.96458   -17077.614    84.120247   -17161.734   -413.31741 
   21600    297.38368   -17063.287    85.098649   -17148.385    2269.4623 
   21800    300.81615   -17090.683    86.080876   -17176.764    5045.8637 
   22000    247.80286   -17095.235    70.910711   -17166.146   -2575.4195 
   22200    319.09987   -17071.639    91.312906   -17162.952   -5633.8442 
   22400    330.86494   -17088.035    94.679571   -17182.714   -7869.5211 
   22600    250.20354   -17093.453    71.597684    -17165.05    5528.8843 
   22800    310.79557   -17081.716    88.936564   -17170.652    10835.358 
   23000    321.29864   -17073.045    91.942101   -17164.987   -1387.6886 
   23200    320.09545   -17074.627    91.597799   -17166.225    9627.8987 
   23400    264.38728   -17089.522    75.656472   -17165.178    5197.7736 
   23600     293.4354   -17072.742    83.968819    -17156.71    1435.0629 
   23800    305.04676   -17083.333      87.2915   -17170.625     5281.662 
   24000     314.4357     -17083.4    89.978218   -17173.378    7765.3054 
   24200    323.52994   -17059.296    92.580603   -17151.877   -2306.1613 
   24400    304.16368   -17087.745    87.038798   -17174.784    3755.9894 
   24600    320.54148   -17082.965    91.725432   -17174.691   -11717.086 
   24800    333.40787   -17059.166    95.407251   -17154.573    17208.289 
   25000    307.40615   -17076.507    87.966658   -17164.474    -8452.516 
   25200    276.00606   -17092.052    78.981278   -17171.034    7394.2225 
   25400    309.83358   -17079.541    88.661285   -17168.202    6151.1086 
   25600    340.80491   -17070.669    97.523972   -17168.193    7377.9095 
   25800    292.85403    -17083.62    83.802455   -17167.423   -10037.598 
   26000     299.8141    -17082.68    85.794132   -17168.474    -23943.42 
   26200    326.50872   -17075.919    93.433006   -17169.352   -7277.7548 
   26400    289.21794   -17091.849     82.76196   -17174.611   -4322.6943 
   26600    314.60544   -17087.837    90.026789   -17177.863   -935.84799 
   26800    341.45019   -17066.263    97.708622   -17163.971   -3282.0481 
   27000    278.09542   -17090.066    79.579164   -17169.645    3629.8145 
   27200    321.34692    -17091.63    91.955916   -17183.585    6466.3598 
   27400    317.44166   -17068.285    90.838395   -17159.124   -5068.8857 
   27600    309.99212   -17074.323    88.706653    -17163.03    -6181.912 
   27800    280.79461   -17083.222    80.351557   -17163.573   -2691.6354 
   28000    309.28175   -17083.398    88.503376   -17171.902   -1650.4031 
   28200    287.79788   -17074.227    82.355597   -17156.583    13136.906 
   28400    340.92088   -17066.805    97.557156   -17164.362      7625.99 
   28600    292.89027   -17080.008    83.812824   -17163.821   -8674.8384 
   28800    313.75617   -17084.322    89.783764   -17174.106    4860.9179 
   29000    297.31999   -17093.498    85.080424   -17178.578   -2855.5898 
   29200    338.26618   -17069.873    96.797493   -17166.671    4325.4741 
   29400    309.20784   -17084.594    88.482225   -17173.076    -11425.49 
   29600    292.24587   -17084.672    83.628426     -17168.3    3344.5711 
   29800    368.70079   -17055.018    105.50659   -17160.525   -4395.4048 
   30000    286.21012   -17088.957    81.901249   -17170.858   -3117.9451 
   30200    319.30738   -17080.693    91.372287   -17172.065   -3354.1253 
   30400    290.04846   -17076.998     82.99962   -17159.998   -1714.8601 
   30600    247.92987   -17101.463    70.947057    -17172.41    2761.3922 
   30800      301.961   -17087.669    86.408484   -17174.078    -7990.971 
   31000    312.15174   -17075.019    89.324645   -17164.344   -13425.683 
   31200    274.90397   -17082.326    78.665905   -17160.992    5787.0659 
   31400    316.53345   -17093.609    90.578503   -17184.187   -6471.5874 
   31600    270.00528   -17071.051    77.264108   -17148.315    4680.4715 
   31800    285.25281   -17074.957    81.627305   -17156.585   -11794.701 
   32000    284.65035   -17084.849    81.454908   -17166.304   -5938.2417 
   32200     233.3756   -17106.663     66.78224   -17173.446    2401.6261 
   32400    297.04961   -17082.156    85.003053   -17167.159    8788.1368 
   32600    324.71609   -17079.026     92.92003   -17171.946    12070.208 
   32800     272.8324   -17088.782    78.073109   -17166.855   -6946.5705 
   33000    322.31437   -17065.436    92.232758   -17157.669    9271.6714 
   33200    301.85331   -17081.892    86.377669   -17168.269    69.404009 
   33400    301.52745   -17083.129    86.284421   -17169.414    1687.1841 
   33600    352.66573   -17061.772    100.91804    -17162.69     886.3996 
   33800    284.45989   -17083.524    81.400407   -17164.924   -2561.8018 
   34000    334.70271   -17083.931    95.777778   -17179.709   -6717.8319 
   34200    293.74297   -17087.431    84.056831   -17171.488    10201.508 
   34400    317.55065   -17076.292    90.869583   -17167.161    1988.0009 
   34600    284.47144   -17099.868    81.403713   -17181.272   -10280.905 
   34800    340.12962   -17079.206    97.330731   -17176.537   -20164.557 
   35000    280.42104   -17087.964    80.244658   -17168.209   -5173.8502 
   35200    355.37694   -17070.785    101.69387   -17172.479    5149.1041 
   35400     320.8051   -17073.601    91.800871   -17165.402    1434.0101 
   35600    289.10251   -17082.166    82.728927   -17164.895   -3601.5637 
   35800    307.53664   -17083.927    88.003997   -17171.931   -1455.9284 
   36000    262.66795   -17095.422    75.164474   -17170.587   -8083.7985 
   36200    304.91966   -17081.602    87.255128   -17168.857   -10352.692 
   36400    275.85488    -17086.67    78.938016   -17165.608    1139.3363 
   36600    290.47889   -17074.113    83.122791   -17157.235     10074.04 
   36800    299.58775   -17072.031     85.72936   -17157.761   -2603.2744 
   37000    288.00331   -17085.762    82.414383   -17168.177    1202.8786 
   37200    239.21343   -17104.769    68.452782   -17173.222   -286.66559 
   37400    312.62581   -17078.597    89.460304   -17168.058    3364.6906 
   37600    295.86799    -17082.52    84.664923   -17167.184   -6976.4928 
   37800    291.17593   -17092.625    83.322252   -17175.948    5543.7303 
   38000    310.55496   -17068.345    88.867712   -17157.213    1451.7398 
   38200    284.33172   -17087.254     81.36373   -17168.618   -6722.7462 
   38400    345.96413   -17075.008    99.000322   -17174.009   -2188.0985 
   38600    289.19236   -17087.909    82.754639   -17170.663   -3458.7496 
   38800    299.31691    -17085.86    85.651858   -17171.512    12222.118 
   39000    295.22141   -17077.145    84.479899   -17161.625   -10544.902 
   39200    348.04996   -17079.686    99.597199   -17179.283    1078.9511 
   39400     335.1301   -17061.017    95.900081   -17156.917    1148.1824 
   39600     313.6866   -17083.835    89.763857   -17173.599   -57.631984 
   39800    278.15464   -17086.504    79.596109     -17166.1   -4661.6115 
   40000    341.34512   -17064.048    97.678555   -17161.726   -3340.1426 
   40200    287.31677   -17080.358    82.217924   -17162.576    1018.0308 
   40400    273.24072   -17093.893    78.189954   -17172.083    6026.2097 
   40600    286.43678   -17080.746     81.96611   -17162.712    -9565.943 
   40800    331.16052   -17065.286    94.764153   -17160.051    1466.6915 
   41000      294.565    -17090.25    84.292062   -17174.542    1835.1571 
   41200    284.46633   -17085.581    81.402249   -17166.983   -1110.8972 
   41400     336.5171   -17082.284     96.29698   -17178.581   -4016.2616 
   41600    237.04789   -17101.415    67.833094   -17169.248   -1189.6163 
   41800     304.6986   -17076.436    87.191871   -17163.628   -5727.2783 
   42000    300.49973   -17075.235     85.99033   -17161.226   -1019.9418 
   42200    330.34116   -17062.466    94.529688   -17156.996    4055.3461 
   42400    258.94734   -17088.823    74.099791   -17162.923    9874.3788 
   42600    329.88984   -17080.152     94.40054   -17174.552   -5794.0644 
   42800     300.7546   -17097.541    86.063265   -17183.604   -10135.763 
   43000    304.69002   -17079.404    87.189414   -17166.594     1976.005 
   43200    292.91257   -17081.736    83.819206   -17165.556    3629.6035 
   43400    265.36386   -17093.511    75.935929   -17169.447    5189.9915 
   43600    311.56028   -17071.643    89.155393   -17160.798   -2676.7295 
   43800    322.67821    -17077.52    92.336876   -17169.857    2100.0537 
   44000    300.60785   -17090.538     86.02127   -17176.559    1195.9729 
   44200    315.13741   -17069.944    90.179017   -17160.123    4507.4074 
   44400     328.1259   -17071.058    93.895775   -17164.954    4179.2133 
   44600    314.95241   -17085.654    90.126078    -17175.78    4748.9154 
   44800    266.45621    -17089.26    76.248512   -17165.509   -15346.621 
   45000    306.18439   -17079.832     87.61704   -17167.449    4311.9739 
   45200    316.73316   -17080.094    90.635653    -17170.73   -10044.273 
   45400    288.57765   -17103.452    82.578735   -17186.031   -1010.6287 
   45600     279.6498   -17091.401    80.023962   -17171.425    621.62002 
   45800    291.29639   -17075.554    83.356723   -17158.911   -3724.8207 
   46000    305.30862   -17075.629    87.366432   -17162.996     4487.013 
   46200    254.48036   -17094.767     72.82153   -17167.588    4221.5033 
   46400    309.76567   -17076.831    88.641852   -17165.473    8377.5674 
   46600    263.32621     -17093.3    75.352839   -17168.653   -7586.4631 
   46800    294.02763   -17070.986     84.13829   -17155.124   -4406.6089 
   47000    285.69287   -17094.893    81.753234   -17176.646   -7125.5872 
   47200    328.66565   -17080.352    94.050226   -17174.402    5653.7229 
   47400     274.8749   -17091.328    78.657587   -17169.986     4062.162 
   47600    324.53278   -17066.704    92.867574   -17159.571   -10876.417 
   47800     336.4993       -17079    96.291886   -17175.292    6515.8963 
   48000    271.60116   -17087.986    77.720782   -17165.707    -2830.449 
   48200     361.6039   -17065.439    103.47576   -17168.915    4070.7654 
   48400    320.83174   -17081.118    91.808494   -17172.927    4643.0851 
   48600    294.90268   -17081.812    84.388693   -17166.201   -267.72026 
   48800    301.42334   -17080.611     86.25463   -17166.865    4888.0034 
   49000    255.94492    -17101.31    73.240627    -17174.55    9620.4651 
   49200     328.4823   -17076.468     93.99776   -17170.466   -425.64139 
   49400    237.87834   -17091.857    68.070734   -17159.927    612.65328 
   49600     309.3134   -17067.556    88.512431   -17156.068    7588.9193 
   49800    294.05248   -17079.538      84.1454   -17163.683    19072.186 
   50000    321.08204   -17083.015    91.880118   -17174.895   -3152.7973 
   50200    254.15287   -17102.249    72.727816   -17174.977    15403.227 
   50400    303.68506   -17091.134    86.901837   -17178.036   -3838.3599 
   50600    291.01165   -17078.564    83.275243    -17161.84   -1651.2158 
   50800    343.45938   -17070.866    98.283568    -17169.15   -9465.0245 
   51000     275.0784   -17089.802     78.71582   -17168.518    -12271.75 
   51200    313.88244   -17083.094    89.819896   -17172.914     780.4055 
   51400    304.79723   -17074.509    87.220095   -17161.729     6497.956 
   51600    284.44552   -17084.266    81.396294   -17165.662    7913.2296 
   51800    328.24735   -17079.521    93.930529   -17173.452    7190.2428 
   52000     278.5389   -17085.651     79.70607   -17165.357    14328.818 
   52200    312.52777    -17069.39    89.432249   -17158.822    819.49652 
   52400    268.35103   -17090.434    76.790732   -17167.225    6786.4242 
   52600    280.64752   -17095.854    80.309467   -17176.164   -12199.432 
   52800    292.52664   -17067.119    83.708771   -17150.828    5722.0875 
   53000    317.95584   -17078.463    90.985534   -17169.449   -15609.162 
   53200    280.54445   -17089.686    80.279973   -17169.966   -7951.5906 
   53400    287.92595    -17067.96    82.392247   -17150.352   -2558.8064 
   53600    319.65393   -17077.562    91.471454   -17169.034    11779.903 
   53800    332.08956   -17084.022    95.030007   -17179.052   -1107.1586 
   54000    239.65634   -17100.272    68.579524   -17168.852    11205.627 
   54200    326.59947   -17072.965    93.458975   -17166.424   -3945.6549 
   54400     309.7799   -17087.113    88.645924   -17175.759   -2103.7334 
   54600    301.87674   -17084.943    86.384374   -17171.327    2079.5051 
   54800    331.74777   -17071.803      94.9322   -17166.736    8819.5001 
   55000    292.76664   -17087.711    83.777448   -17171.488    1270.9278 
   55200    318.74297   -17080.757    91.210777   -17171.968    5037.5642 
   55400    297.00896   -17060.203    84.991419   -17145.194   -6744.2709 
   55600    303.56028   -17084.644    86.866132    -17171.51    986.41478 
   55800    298.57543   -17081.386    85.439679   -17166.825   -7691.7715 
   56000    382.87123   -17061.179    109.56157    -17170.74   -3927.3893 
   56200    324.88086   -17086.877    92.967182   -17179.844   -3180.8541 
   56400     311.5265   -17080.489    89.145727   -17169.635   -19263.451 
   56600    283.05211   -17069.394    80.997559   -17150.392    7501.7967 
   56800    280.13414   -17096.641    80.162559   -17176.803   -9360.0911 
   57000    295.32915    -17084.42    84.510731   -17168.931   -8227.2531 
   57200    317.99641   -17074.524    90.997142   -17165.521   -1929.3129 
   57400    303.38415   -17089.354     86.81573    -17176.17    7716.2996 
   57600    237.78417   -17111.742    68.043786   -17179.786    8100.1663 
   57800    286.89579   -17087.656    82.097459   -17169.754   -3620.7264 
   58000    330.04067   -17072.749    94.443699   -17167.192    2167.3232 
   58200    298.30467   -17091.279    85.362198   -17176.641   -157.71075 
   58400    271.75164   -17091.006    77.763843   -17168.769    4509.7703 
   58600    315.54404   -17082.101    90.295377   -17172.396   -2041.5148 
   58800     252.1245   -17097.225    72.147384   -17169.372    6643.2757 
   59000     337.4887    -17070.12    96.575013   -17166.695   -4105.6691 
   59200    276.56177   -17089.276    79.140297   -17168.417    11764.232 
   59400    295.50646   -17077.695    84.561468   -17162.256   -8674.0695 
   59600    360.88985   -17070.178    103.27143    -17173.45     -6443.02 
   59800    279.61053   -17082.544    80.012724   -17162.557    -1363.859 
   60000    288.74888   -17075.435    82.627733   -17158.062    4216.5771 
   60200    344.52487   -17066.733    98.588466   -17165.322   -3372.7266 
   60400    280.49468   -17090.682    80.265731   -17170.948     3481.362 
   60600    311.32471    -17073.62    89.087983   -17162.708    1551.8039 
   60800    278.16556   -17097.424    79.599235   -17177.023    6687.4316 
   61000    299.74403   -17082.618    85.774081   -17168.392   -1632.0494 
   61200    326.01829   -17071.546    93.292665   -17164.838    17971.537 
   61400    290.75551   -17097.517    83.201948   -17180.719    3330.2689 
   61600    301.02686   -17086.541    86.141175   -17172.682   -7674.0541 
   61800    314.90945   -17071.577    90.113783   -17161.691   -9696.5483 
   62000    276.18413   -17087.425    79.032233   -17166.457    1040.0708 
   62200    305.87769    -17080.55    87.529275   -17168.079   -8115.6205 
   62400    321.59829   -17072.906    92.027848   -17164.934   -3816.8937 
   62600    258.26774   -17095.721    73.905319   -17169.627    4688.2823 
   62800    304.25226   -17083.328    87.064148   -17170.393   -8657.4206 
   63000    341.59486   -17070.435    97.750022   -17168.185    763.18199 
   63200    301.89991   -17087.542    86.391002   -17173.933    10268.522 
   63400    290.74004   -17083.735    83.197521   -17166.933   -2457.0388 
   63600    312.78281   -17071.979     89.50523   -17161.485   -389.91157 
   63800    296.06639   -17093.479    84.721695   -17178.201   -7090.8123 
   64000    296.18514   -17085.086    84.755679   -17169.842    18285.061 
   64200    304.01929   -17068.552    86.997481   -17155.549   -1499.1507 
   64400    314.29681   -17066.609    89.938474   -17156.547   -8109.9061 
   64600    290.76685   -17088.095    83.205193     -17171.3    2210.0746 
   64800    323.73556   -17085.106    92.639445   -17177.746     6250.131 
   65000    324.56973   -17076.513    92.878148   -17169.392   -937.90662 
   65200    314.86221    -17072.32    90.100267   -17162.421    1262.5548 
   65400    275.24383   -17091.258    78.763159   -17170.021   -493.17105 
   65600    339.54227   -17073.518    97.162657   -17170.681    3599.0457 
   65800    304.21609   -17078.772    87.053798   -17165.826   -3317.5644 
   66000    303.31564    -17097.17    86.796126   -17183.966   -7609.8741 
   66200    318.53237   -17076.334    91.150512   -17167.484    -3135.567 
   66400    324.03561   -17058.086    92.725305   -17150.812    7479.4271 
   66600    312.71739   -17069.964    89.486508    -17159.45   -90.582013 
   66800    297.51722   -17087.672    85.136863   -17172.809    5265.4515 
   67000    252.70463    -17098.13    72.313391   -17170.443    3712.6781 
   67200    310.57933    -17081.56    88.874686   -17170.435   -4922.6354 
   67400    327.46594   -17073.874    93.706922   -17167.581   -3426.4137 
   67600    275.18261   -17090.468    78.745641   -17169.214    9217.9969 
   67800    326.21001   -17081.466    93.347527   -17174.814   -1966.7158 
   68000    340.35734   -17051.297    97.395895   -17148.693    2524.3235 
   68200    319.00873   -17069.043    91.286824    -17160.33    11101.523 
   68400     302.7287   -17089.839    86.628167   -17176.467    8776.5376 
   68600    297.39242   -17086.716    85.101151   -17171.817   -8873.9291 
   68800    306.30166   -17065.665    87.650599   -17153.316    -7719.721 
   69000    271.65231   -17088.835    77.735416    -17166.57    948.65046 
   69200    306.24491   -17075.442    87.634359   -17163.077    2971.3535 
   69400    259.05907   -17088.982    74.131765   -17163.114    2320.0663 
   69600    297.51893   -17093.321    85.137352   -17178.458   -4642.2376 
   69800    319.94474   -17068.982    91.554672   -17160.537    122.43791 
   70000    299.75893   -17081.789    85.778344   -17167.567    7529.6835 
   70200    246.65898   -17103.471    70.583382   -17174.055    1411.8721 
   70400    303.45034   -17081.742     86.83467   -17168.576   -5751.2006 
   70600    286.75818   -17082.023    82.058078   -17164.081     899.3803 
   70800    259.06405    -17105.84    74.133191   -17179.973    13546.319 
   71000    242.78531    -17087.71    69.474902   -17157.185   -148.96182 
   71200    316.50557   -17074.765    90.570527   -17165.336    2392.3086 
   71400    291.18256   -17086.466     83.32415   -17169.791    5232.5792 
   71600    258.02425    -17100.27    73.835643   -17174.106   -1700.9737 
   71800    312.50938   -17081.398    89.426985   -17170.825   -2461.2395 
   72000    305.76311   -17079.362    87.496489   -17166.859    4674.6115 
   72200    331.30484   -17089.489    94.805454   -17184.295   -2025.0757 
   72400    287.80195   -17093.092    82.356763   -17175.449   -3421.2087 
   72600    283.53576   -17072.963    81.135958   -17154.099    5661.6072 
   72800    307.33672   -17084.717     87.94679   -17172.664   -15915.981 
   73000    281.53272   -17101.611    80.562775   -17182.174    3868.2877 
   73200    311.37984   -17079.373    89.103758   -17168.477    5316.3866 
   73400    291.42063   -17076.672    83.392276   -17160.064    9252.4047 
   73600    250.67251   -17097.095    71.731885   -17168.827    7554.6835 
   73800    295.32944   -17076.367    84.510813   -17160.878    786.84275 
   74000    282.55604   -17079.639    80.855605   -17160.495    5541.0788 
   74200    280.26268   -17089.883    80.199341   -17170.082   -13796.117 
   74400    320.66541    -17064.21    91.760896    -17155.97    -5088.827 
   74600    310.25562   -17075.966    88.782055   -17164.748   -4858.7311 
   74800    286.53499   -17089.977    81.994213   -17171.971    1867.2479 
   75000    276.38742   -17076.376    79.090407   -17155.466    7146.5419 
   75200    325.92684   -17077.515    93.266496   -17170.782   -3876.1273 
   75400    317.86287   -17083.037     90.95893   -17173.996    4001.7119 
   75600    320.05839   -17069.352    91.587194   -17160.939    2780.5689 
   75800    278.98599   -17070.792    79.834006   -17150.626    4584.2884 
   76000    272.09291   -17086.489      77.8615    -17164.35   -1496.5884 
   76200    289.58696   -17071.503    82.867557   -17154.371   -8746.5221 
   76400    339.91464   -17071.532    97.269215   -17168.801     13467.44 
   76600    294.79368    -17082.26      84.3575   -17166.618   -5379.1736 
   76800     306.3824   -17082.216    87.673703   -17169.889     -820.881 
   77000    320.30039   -17066.385    91.656443   -17158.041   -2504.8445 
   77200    250.83324    -17088.62     71.77788   -17160.398     7127.105 
   77400    288.74073   -17085.251    82.625401   -17167.877     4518.219 
   77600    324.63468   -17066.304    92.896733   -17159.201    8669.6129 
   77800    319.19789    -17082.29    91.340956   -17173.631    1780.4605 
   78000    297.29622   -17074.045    85.073621   -17159.118   -6106.6593 
   78200    276.21661   -17087.179    79.041527    -17166.22    2217.9695 
   78400    257.77386   -17091.734    73.763992   -17165.498    -2986.703 
   78600    309.99507   -17070.522    88.707496    -17159.23   -1663.5771 
   78800     253.6805   -17089.673    72.592644   -17162.266     250.8342 
   79000     292.3125   -17096.171    83.647491   -17179.818    2736.8583 
   79200    304.23257   -17070.171    87.058512    -17157.23    2967.6105 
   79400    298.90536    -17083.86    85.534091   -17169.394    2203.1927 
   79600    297.34308   -17085.639     85.08703   -17170.726   -10291.858 
   79800    329.08111   -17065.052    94.169116   -17159.222   -409.00178 
   80000    302.62762   -17079.787    86.599244   -17166.387    -5944.498 
   80200    328.97157   -17086.467    94.137768   -17180.605   -9405.0538 
   80400    223.42944   -17113.897     63.93607   -17177.833   -879.43437 
   80600    293.23646   -17090.929     83.91189   -17174.841    5355.7188 
   80800    277.79615   -17073.869    79.493525   -17153.362    5415.2392 
   81000    297.11882   -17080.698    85.022858   -17165.721    5453.0338 
   81200     286.1651   -17088.606    81.888364   -17170.494   -489.24139 
   81400    307.03528   -17077.045     87.86053   -17164.905    5452.5377 
   81600      313.906    -17055.03     89.82664   -17144.856   -4713.1608 
   81800    293.92881   -17085.945    84.110011   -17170.055   -7953.4632 
   82000    284.22391   -17086.866     81.33288   -17168.198    2087.3982 
   82200    333.81149   -17066.124    95.522749   -17161.646   -15658.136 
   82400    282.74246   -17091.272    80.908949   -17172.181    9895.3921 
   82600    273.13014   -17088.482     78.15831    -17166.64     6124.722 
   82800    314.34801    -17066.21    89.953123   -17156.163   -2457.0916 
   83000    294.18898   -17085.911     84.18446   -17170.095    1772.7429 
   83200    292.91667   -17083.693    83.820379   -17167.514    897.32853 
   83400    317.71519   -17064.757    90.916668   -17155.673    7275.8496 
   83600    267.83175   -17091.206    76.642135   -17167.848   -6701.0422 
   83800    314.40154   -17080.075    89.968441   -17170.043    830.35829 
   84000    286.21387   -17074.502    81.902322   -17156.405    2289.2328 
   84200    325.43531    -17076.72    93.125841   -17169.845   -5689.7125 
   84400    293.38607   -17095.826    83.954701    -17179.78    3887.9757 
   84600    278.72057   -17077.193    79.758057   -17156.951    1522.1663 
   84800    317.89343   -17072.256    90.967673   -17163.224    3465.2174 
   85000     293.6637   -17086.543    84.034148   -17170.578    1643.3036 
   85200    287.01667   -17086.432    82.132048   -17168.565     5611.687 
   85400    334.66341   -17070.367    95.766534   -17166.133    -3621.874 
   85600     290.8917   -17088.556     83.24092   -17171.797    15018.831 
   85800    302.76429   -17077.348    86.638352   -17163.986    -4836.039 
   86000    251.62336   -17095.719     72.00398   -17167.723    6067.5335 
   86200    300.67705   -17093.644    86.041073   -17179.685    5920.9926 
   86400    314.63078   -17073.348     90.03404   -17163.382    1998.0791 
   86600    280.13738   -17084.301    80.163486   -17164.465    -13469.11 
   86800    290.78146   -17087.908    83.209373   -17171.117   -2747.9278 
   87000    333.67389   -17074.878    95.483375   -17170.361    3746.4097 
   87200    273.22683   -17086.678    78.185978   -17164.864   -6287.6822 
   87400     277.7395   -17093.802    79.477316   -17173.279      8013.18 
   87600    331.60099   -17072.306    94.890198   -17167.197   -1413.4618 
   87800    280.53725   -17084.823    80.277911   -17165.101    3078.1173 
   88000    220.10662   -17109.731    62.985217   -17172.717   -783.46694 
   88200    265.40498   -17096.166    75.947696   -17172.113    2872.9533 
   88400    294.39198   -17074.725     84.24255   -17158.968    6732.9186 
   88600    278.70037   -17074.513    79.752275   -17154.265    10724.407 
   88800     276.2682   -17099.061    79.056289   -17178.118    1233.5045 
   89000    295.14496   -17083.597    84.458021   -17168.055    706.54075 
   89200    285.74944   -17082.412     81.76942   -17164.181    6748.8359 
   89400    278.21405   -17092.444    79.613111   -17172.057   -2418.7348 
   89600    329.98896   -17077.004    94.428903   -17171.433    -3000.303 
   89800    289.32991   -17082.046    82.793999    -17164.84    422.19155 
   90000    294.07878   -17096.605    84.152928   -17180.758   -14255.046 
   90200    308.57809   -17076.942    88.302017   -17165.244   -2544.9463 
   90400    262.02057   -17080.581    74.979221    -17155.56   -6000.1935 
   90600    279.25755    -17086.55    79.911718   -17166.461    1248.3915 
   90800    270.74255   -17092.994    77.475083   -17170.469    3372.6427 
   91000    311.12595   -17070.898    89.031105   -17159.929   -6340.6152 
   91200      285.529   -17084.518     81.70634   -17166.224    2789.6698 
   91400     282.2575   -17096.431    80.770175   -17177.201   -248.22849 
   91600    310.12142   -17078.379    88.743653   -17167.123    4953.3585 
   91800    291.24567   -17066.627    83.342209   -17149.969    5391.9971 
   92000     274.2259   -17092.518    78.471871    -17170.99    4497.5104 
   92200    293.13006   -17077.831    83.881443   -17161.713    -4646.671 
   92400    343.82337    -17074.24    98.387728   -17172.628    14670.812 
   92600    307.70361   -17087.372    88.051777   -17175.423    2229.7985 
   92800    317.67461   -17077.649    90.905056   -17168.554    8217.2714 
   93000     360.6011   -17062.007     103.1888   -17165.196    6645.1378 
   93200    324.00822   -17087.738    92.717469   -17180.455    7643.6791 
   93400    315.13564   -17081.109     90.17851   -17171.287   -4783.6404 
   93600    331.15519   -17068.716    94.762629   -17163.479    6160.5166 
   93800     293.1307   -17082.227    83.881626   -17166.109    3329.4683 
   94000    327.65393   -17079.959    93.760715   -17173.719   -8046.3452 
   94200    368.28288   -17054.104    105.38701   -17159.491    6442.4599 
   94400    317.87979   -17078.422     90.96377   -17169.385   -9835.8657 
   94600    255.66541     -17084.7    73.160643    -17157.86    -20.01692 
   94800    344.85623   -17063.324    98.683289   -17162.007   -13577.691 
   95000    252.76047   -17091.252    72.329371   -17163.582   -7669.1983 
   95200     321.7573   -17077.261     92.07335   -17169.335    3504.6118 
   95400    302.53727    -17077.28    86.573389   -17163.853    2574.4395 
   95600    270.28848   -17084.378    77.345146   -17161.723   -9760.9995 
   95800    291.74333   -17080.568    83.484618   -17164.053   -293.99283 
   96000    275.28824   -17093.518    78.775866   -17172.294    5957.3865 
   96200    317.31057   -17080.959    90.800882   -17171.759   -6259.1452 
   96400    326.27604   -17071.555    93.366423   -17164.922   -10253.578 
   96600    272.83496   -17095.028    78.073841   -17173.102    1340.6901 
   96800    285.61303   -17086.884    81.730387   -17168.614    5353.0734 
   97000    340.42787   -17060.659    97.416078   -17158.075    8435.8539 
   97200    308.92365     -17080.4    88.400903   -17168.801   -7259.5871 
   97400    288.96311   -17086.042    82.689038   -17168.731     4241.182 
   97600    286.83871   -17088.326    82.081124   -17170.407   -12026.469 
   97800    291.10728   -17076.723     83.30261   -17160.026   -72.008751 
   98000    289.58534   -17070.576    82.867095   -17153.443    1347.7161 
   98200    305.02099   -17093.759    87.284124   -17181.043   -964.66357 
   98400    362.67532    -17076.08    103.78236   -17179.862    2793.8518 
   98600      336.667   -17070.024    96.339877   -17166.364   -2692.4687 
   98800    281.37381   -17089.442    80.517301   -17169.959    2092.5732 
   99000    296.25214   -17087.429    84.774851   -17172.204   -2083.3556 
   99200    324.11569   -17069.196    92.748223   -17161.945    1904.8464 
   99400    306.35523   -17071.574    87.665929    -17159.24     2783.126 
   99600    279.92641   -17096.273    80.103115   -17176.376    -7574.722 
   99800     280.4281   -17078.447     80.24668   -17158.693    2625.1337 
  100000    309.16905   -17076.571    88.471125   -17165.042   -6720.2028 
  100200    297.89368   -17097.782     85.24459   -17183.027    6752.8779 
  100400    274.24102   -17096.127    78.476198   -17174.603   -3427.5689 
  100600    294.34014   -17080.035    84.227716   -17164.262   -5403.3668 
  100800    297.49808   -17070.854    85.131386   -17155.985    16864.668 
  101000    291.35071   -17090.009    83.372269   -17173.381    3494.8414 
  101200    289.23287   -17084.777    82.766232   -17167.543   -396.77209 
  101400    340.93616    -17062.93     97.56153   -17160.491   -1927.0066 
  101600    297.76809   -17089.732     85.20865   -17174.941    5886.9099 
  101800    308.24067   -17083.166    88.205461   -17171.371    -19036.35 
  102000    325.69269   -17066.634    93.199493   -17159.834   -64.733323 
  102200    308.68753   -17073.199    88.333335   -17161.532    4360.1184 
  102400    270.69688   -17091.191    77.462013   -17168.653   -5047.0082 
  102600    312.38247   -17071.321     89.39067   -17160.712   -9038.9672 
  102800    342.30766   -17073.126    97.953996    -17171.08   -1295.7515 
  103000    321.57551   -17086.856     92.02133   -17178.877    6021.3854 
  103200    266.41852   -17084.411    76.237728   -17160.649   -6016.1831 
  103400     293.3447   -17065.574    83.942864   -17149.517     6650.058 
  103600    289.21907   -17089.398    82.762281   -17172.161     6657.439 
  103800    310.67937   -17080.968    88.903313   -17169.871    8705.9598 
  104000    340.34311   -17056.333    97.391823   -17153.725    532.28109 
  104200    296.93607   -17081.754    84.970563   -17166.724   -1792.4346 
  104400    283.05271   -17082.287     80.99773   -17163.284   -3025.4905 
  104600    326.75205   -17062.415    93.502637   -17155.918   -7418.8906 
  104800    282.89298   -17085.365    80.952023   -17166.317   -5857.6989 
  105000    312.50349    -17075.81      89.4253   -17165.236   -5235.5038 
  105200    299.02858   -17089.422     85.56935   -17174.992   -4946.1851 
  105400    290.52405   -17091.229    83.135712   -17174.365    9104.7799 
  105600    319.74597   -17073.391    91.497792   -17164.889   -685.77581 
  105800    253.32717   -17090.863    72.491536   -17163.354   -7795.3726 
  106000    267.00568   -17099.669    76.405749   -17176.075    3527.0694 
  106200    309.54364   -17078.681    88.578316    -17167.26   -2122.8073 
  106400    287.34947   -17091.441    82.227281   -17173.668   -12980.101 
  106600    258.35534   -17085.466    73.930386   -17159.396    -587.0693 
  106800    319.13183   -17073.458    91.322052    -17164.78    1982.0256 
  107000    293.91947   -17084.771    84.107338   -17168.878    9355.9665 
  107200    245.59349   -17099.965    70.278484   -17170.244    8161.5941 
  107400    322.74825   -17079.897    92.356917   -17172.254    10893.226 
  107600    308.86478   -17076.143    88.384056   -17164.527   -1442.4195 
  107800    282.80969   -17100.732    80.928188    -17181.66    2009.6818 
  108000    325.55703   -17078.023    93.160673   -17171.184   -12071.031 
  108200    307.47619   -17081.017    87.986698   -17169.004    -1130.684 
  108400    280.57775   -17096.555    80.289501   -17176.845   -6868.9028 
  108600    316.57157   -17078.166    90.589413   -17168.755    7954.0072 
  108800    306.12988   -17071.706    87.601443   -17159.307   -8366.7467 
  109000    262.45868    -17094.77     75.10459   -17169.875   -6350.0683 
  109200    290.04383   -17085.547    82.998294   -17168.545    9838.4174 
  109400    333.03314   -17055.102     95.30002   -17150.402     6698.389 
  109600    311.87368   -17072.976    89.245075   -17162.221    3429.0625 
  109800    287.56859   -17087.372    82.289986   -17169.662   -1665.8615 
  110000    336.82857   -17078.229     96.38611   -17174.615   -701.68633 
  110200      317.861   -17073.273    90.958394   -17164.231    1509.2966 
  110400     313.4009   -17080.851    89.682101   -17170.533    -2645.309 
  110600    326.41016   -17062.005    93.404801    -17155.41    5758.7083 
  110800    307.95057   -17091.768    88.122447    -17179.89   -6439.9667 
  111000    292.52637   -17083.562    83.708693    -17167.27   -13067.611 
  111200     300.4913   -17073.385     85.98792   -17159.373    3625.6059 
  111400    325.23086   -17080.375    93.067337   -17173.442   -1697.0682 
  111600    272.80503   -17082.833    78.065277   -17160.898   -7007.5735 
  111800    353.05522   -17061.109    101.02949   -17162.138   -14961.263 
  112000    303.58589   -17085.782     86.87346   -17172.656   -2988.7454 
  112200    300.35177   -17084.587     85.94799   -17170.535   -5574.6584 
  112400    298.03908   -17079.259    85.286197   -17164.545   -4240.9016 
  112600     357.5973   -17071.303    102.32925   -17173.632   -10377.053 
  112800    261.30186   -17090.664    74.773556   -17165.438    236.17083 
  113000    315.71676    -17072.45    90.344802   -17162.795    8185.9979 
  113200    268.63107   -17092.342    76.870867   -17169.212    799.89222 
  113400    283.19897   -17090.592    81.039583   -17171.631    2880.7057 
  113600    271.99654   -17076.397    77.833923   -17154.231    11077.304 
  113800    271.30526   -17084.236    77.636107   -17161.873   -3131.4531 
  114000    304.18276   -17083.184     87.04426   -17170.228    10387.869 
  114200     330.2997   -17063.045    94.517825   -17157.563    6456.2067 
  114400    303.24503   -17083.333     86.77592   -17170.109    5662.1645 
  114600    294.65224   -17086.281    84.317027   -17170.598   -1084.5392 
  114800    294.80282   -17082.523    84.360117   -17166.883    6372.4237 
  115000    292.90974   -17073.365    83.818397   -17157.184    1353.1722 
  115200    300.16229   -17091.563    85.893769   -17177.457    1292.1627 
  115400    303.71475   -17091.844    86.910333   -17178.754    1823.3587 
  115600    311.96976   -17075.169     89.27257   -17164.441   -6061.7738 
  115800    281.35355   -17080.877    80.511504   -17161.389    8222.5973 
  116000    296.57541   -17102.641    84.867356   -17187.508     -3876.13 
  116200    282.20823   -17086.622    80.756076   -17167.378    5882.6387 
  116400    267.10617   -17081.123    76.434505   -17157.558    2210.2953 
  116600    320.99445   -17058.675    91.855053    -17150.53    3176.3256 
  116800    266.55464   -17090.123    76.276681   -17166.399    11390.362 
  117000    314.38043   -17071.873    89.962402   -17161.835    3108.9897 
  117200    305.11146   -17088.045    87.310014   -17175.355   -3217.5411 
  117400    257.28518   -17087.326    73.624151    -17160.95   -10961.541 
  117600     259.6665   -17083.616    74.305586   -17157.922   -1984.8639 
  117800    293.14055   -17073.107    83.884444   -17156.992   -3111.1212 
  118000    340.56066   -17067.414    97.454077   -17164.868    8378.7952 
  118200    311.74523   -17086.932    89.208319    -17176.14    6877.9926 
  118400    293.26004   -17074.315    83.918637   -17158.234   -15360.898 
  118600    318.62846   -17059.352    91.178007    -17150.53    3828.9434 
  118800    277.44867   -17089.304    79.394091   -17168.699    10176.772 
  119000    289.28807   -17083.912    82.782028   -17166.694    2056.9362 
  119200    311.33401   -17063.608    89.090643   -17152.698    264.78237 
  119400    294.78498   -17063.311     84.35501   -17147.666   -520.60951 
  119600    305.17395   -17087.591    87.327896   -17174.919   -18485.233 
  119800    279.07611   -17080.415    79.859795   -17160.275    18527.936 
  120000    318.84887   -17072.469     91.24108    -17163.71    8582.3734 
  120200    299.77138   -17087.036    85.781907   -17172.818    6677.4968 
  120400     350.6054   -17064.394    100.32846   -17164.722    4433.6439 
  120600    288.89647   -17074.541    82.669969   -17157.211   -8607.6612 
  120800    304.12592   -17079.353    87.027993   -17166.381   -638.13147 
  121000    290.48931   -17100.227    83.125771   -17183.353    4843.9492 
  121200     265.8167    -17080.81    76.065514   -17156.875   -9615.3384 
  121400    287.14542   -17078.073    82.168891   -17160.241   -2630.8728 
  121600     299.0479    -17083.51    85.574879   -17169.085    5853.9546 
  121800    294.81787   -17091.906    84.364423    -17176.27    1497.8982 
  122000    285.25853   -17091.254    81.628943   -17172.883     -19140.3 
  122200    322.65683   -17071.107    92.330757   -17163.438   -5447.7745 
  122400    298.69482    -17090.23    85.473841   -17175.704    8296.8584 
  122600      270.825   -17085.259    77.498676   -17162.758   -7799.7144 
  122800    340.55433   -17064.751    97.452265   -17162.203    10188.781 
  123000    283.56069   -17086.755    81.143092   -17167.898     -140.373 
  123200    298.80853    -17088.27     85.50638   -17173.776   -8943.6068 
  123400    294.56088   -17086.903    84.290884   -17171.194    2294.3095 
  123600    331.28498   -17072.959     94.79977   -17167.758   -14551.716 
  123800    273.16821   -17094.723    78.169205   -17172.892    4507.8495 
  124000    290.15915   -17086.674    83.031294   -17169.705    74.965117 
  124200    297.95829   -17068.177    85.263079    -17153.44   -3401.2857 
  124400    275.75265   -17089.683    78.908763   -17168.591    2031.5598 
  124600    286.35175   -17080.824    81.941777   -17162.765    1680.9697 
  124800    354.81198   -17055.024     101.5322   -17156.556    -4753.668 
  125000    261.04522   -17089.746    74.700117   -17164.446    8346.4382 
  125200    308.34588    -17081.89    88.235569   -17170.126   -9457.2758 
  125400     301.4801   -17070.443    86.270872   -17156.714    82.070887 
  125600    285.60448   -17086.833    81.727938   -17168.561   -14117.737 
  125800    282.80027   -17088.188    80.925493   -17169.113    6075.2456 
  126000    325.32387   -17066.158    93.093953   -17159.252    3514.9814 
  126200    308.09664   -17075.665    88.164246   -17163.829     -3244.53 
  126400    279.58258   -17084.428    80.004725   -17164.433   -3813.2023 
  126600    259.27986   -17102.305    74.194945     -17176.5    -9106.787 
  126800     310.0718   -17075.846    88.729454   -17164.575      6689.41 
  127000    287.63608   -17084.823    82.309298   -17167.132   -9612.4454 
  127200    320.48808   -17087.333    91.710153   -17179.043     2987.844 
  127400    273.22642    -17067.33    78.185861   -17145.516    8232.5082 
  127600    261.81796   -17090.032    74.921243   -17164.953   -3871.2435 
  127800    320.13217   -17091.139    91.608306   -17182.748   -8075.4207 
  128000    325.56865   -17080.885    93.163996   -17174.049    5973.8802 
  128200    346.18734    -17063.23    99.064196   -17162.295    5290.4438 
  128400    285.52696   -17074.865    81.705758   -17156.571      7324.34 
  128600    277.95586    -17085.99    79.539228    -17165.53   -3957.2107 
  128800    331.63039   -17067.018    94.898612   -17161.917    791.33526 
  129000    294.27579   -17078.043    84.209302   -17162.252    5765.0887 
  129200    267.56487   -17088.627    76.565765   -17165.193    6730.0085 
  129400    281.67688   -17077.124    80.604026   -17157.728    15792.667 
  129600    303.05993   -17063.647    86.722953    -17150.37    4902.6722 
  129800    277.73959   -17087.725     79.47734   -17167.203   -917.22562 
  130000    276.60724   -17081.822    79.153311   -17160.976    -1932.518 
  130200    340.10428   -17073.983    97.323479   -17171.307    9476.6234 
  130400    281.10713   -17091.057    80.440988   -17171.498    6716.8692 
  130600    315.55597   -17074.994    90.298791   -17165.293    229.53989 
  130800    306.49413   -17075.479    87.705676   -17163.185    9885.1419 
  131000    266.74313   -17095.397    76.330619   -17171.727   -1450.5028 
  131200    304.70417   -17080.915    87.193465   -17168.109   -4715.7399 
  131400    338.13642   -17068.977    96.760362   -17165.737    10872.681 
  131600    266.42496   -17090.047    76.239571   -17166.287    1947.6677 
  131800    303.30832   -17070.607     86.79403   -17157.401   -14844.076 
  132000    346.94808   -17072.877    99.281886   -17172.159   -15099.758 
  132200    279.24925   -17086.827    79.909342   -17166.737   -3227.8491 
  132400    347.68157   -17068.661    99.491781   -17168.153    -11855.63 
  132600    294.37338   -17081.636    84.237228   -17165.873    2667.7702 
  132800    294.32568   -17081.583    84.223578   -17165.806     14796.08 
  133000    284.05681   -17083.639    81.285062   -17164.924    5213.2044 
  133200    269.22602   -17098.994    77.041117   -17176.035    12958.084 
  133400    301.09913   -17078.871    86.161854   -17165.033   -2943.9233 
  133600    271.32134   -17084.178    77.640708   -17161.818   -5073.9363 
  133800    348.36693   -17067.926    99.687901   -17167.614    304.57273 
  134000    289.90922   -17077.062    82.959775   -17160.022   -6056.8075 
  134200      287.419   -17099.398    82.247178   -17181.645    3288.4772 
  134400    295.59012   -17094.745    84.585408   -17179.331   -227.09484 
  134600    312.93759   -17078.897     89.54952   -17168.447   -7211.1606 
  134800     336.4429   -17071.354    96.275747    -17167.63    6202.3248 
  135000    275.23943   -17095.851      78.7619   -17174.612   -1021.6746 
  135200    306.23754   -17076.944    87.632249   -17164.576   -703.87895 
  135400    320.66827   -17079.272    91.761714   -17171.034    4.7507795 
  135600    299.02849   -17080.086    85.569324   -17165.655     1605.872 
  135800    295.82787   -17082.136    84.653443    -17166.79    1701.2952 
  136000    289.66609   -17093.026      82.8902   -17175.916   -5020.7017 
  136200    301.87718   -17085.047    86.384499   -17171.432    5409.4482 
  136400    279.15194   -17068.143    79.881494   -17148.024   -1148.4347 
  136600    332.64728   -17064.836    95.189602   -17160.026    979.30674 
  136800     273.6589   -17085.111    78.309618   -17163.421    3487.6293 
  137000    319.00853   -17073.286    91.286767   -17164.573    -14460.16 
  137200    322.85238   -17073.844    92.386714    -17166.23    9427.0417 
  137400    296.48375   -17086.068    84.841126   -17170.909    5872.1865 
  137600    312.70007   -17070.979    89.481554    -17160.46    2176.6754 
  137800    276.99888   -17079.574     79.26538   -17158.839   -10033.169 
  138000    279.44029   -17094.624    79.964008   -17174.588    1186.8725 
  138200    284.29495   -17096.002    81.353209   -17177.355   -2163.7935 
  138400    331.38111   -17068.681    94.827277   -17163.509    9378.2002 
  138600    275.70298   -17087.757    78.894548   -17166.651    6190.2705 
  138800    292.16498   -17086.344    83.605278   -17169.949    5678.9169 
  139000    314.24456   -17080.673    89.923521   -17170.596   -10013.638 
  139200    309.63375   -17083.553    88.604101   -17172.157    4906.3378 
  139400    261.66307   -17101.763     74.87692    -17176.64   -5033.9569 
  139600    344.08277   -17071.222    98.461957   -17169.684    6949.9719 
  139800    284.39898   -17085.798    81.382977   -17167.181   -7807.7212 
  140000    268.70719   -17094.224    76.892648   -17171.117    4911.4017 
  140200    314.11533   -17071.366    89.886542   -17161.253   -3331.1932 
  140400    276.14742     -17079.9    79.021728   -17158.921   -16120.451 
  140600    272.72787   -17094.952    78.043197   -17172.995   -8035.9829 
  140800    324.10812   -17062.276    92.746056   -17155.022    3823.1507 
  141000    277.42293   -17080.684    79.386725   -17160.071   -5161.3291 
  141200    316.67113   -17076.155    90.617904   -17166.773   -6638.7838 
  141400    280.00744   -17091.043    80.126303    -17171.17   -7448.4732 
  141600    282.58429   -17084.152    80.863688   -17165.016    524.81357 
  141800    316.40153   -17076.566    90.540754   -17167.106   -13429.593 
  142000    285.81368   -17087.848    81.787804   -17169.636    3600.4623 
  142200    336.34365   -17061.998    96.247348   -17158.246   -10270.745 
  142400    273.41513   -17078.285    78.239863   -17156.525    7499.7399 
  142600     317.8173   -17081.828    90.945889   -17172.774    6048.5226 
  142800    301.69234   -17078.499    86.331605    -17164.83   -4107.6645 
  143000    343.26225   -17068.064    98.227159   -17166.291    -16641.34 
  143200     303.7662   -17085.886    86.925057   -17172.811     9304.551 
  143400    286.35159   -17078.515    81.941731   -17160.456    5173.5158 
  143600    300.63815   -17066.014    86.029941   -17152.044    2116.6872 
  143800    298.18242   -17079.992    85.327214   -17165.319   -1014.7914 
  144000    310.53052   -17082.029    88.860719   -17170.889   -6129.9624 
  144200    307.62827   -17087.657    88.030218   -17175.688   -7688.6004 
  144400    280.08318   -17089.512    80.147976    -17169.66    2862.3791 
  144600    281.86409   -17071.121    80.657598   -17151.779   -11337.865 
  144800    282.29941   -17092.012    80.782169   -17172.794   -4930.4344 
  145000    300.66216   -17087.395    86.036812   -17173.432    -26.61495 
  145200     279.4229   -17076.349    79.959032   -17156.309    5010.9052 
  145400    306.68378   -17086.065    87.759945   -17173.825    13766.782 
  145600     291.5419   -17084.227    83.426978   -17167.654     4759.381 
  145800    329.50417   -17067.873    94.290177   -17162.163     2437.264 
  146000    257.98255   -17089.346    73.823709   -17163.169   -960.45553 
  146200    310.84216   -17087.728    88.949898   -17176.678   -1366.4238 
  146400    282.74389   -17081.804    80.909359   -17162.714   -4916.8205 
  146600    275.90353   -17072.463    78.951938   -17151.415    6527.3671 
  146800    354.65644   -17060.256    101.48769   -17161.743    1641.6068 
  147000    295.10125   -17081.314    84.445515    -17165.76   -4096.8069 
  147200    292.05413   -17074.412    83.573558   -17157.985    87.784367 
  147400    232.46253   -17101.872    66.520959   -17168.393   -2914.8643 
  147600     290.3599   -17081.938    83.088741   -17165.027    3476.0115 
  147800    334.94102   -17078.643    95.845973   -17174.489   -3064.6369 
  148000    270.02435   -17104.203    77.269564   -17181.472    2769.1048 
  148200     267.5209   -17097.056    76.553183   -17173.609    -7012.731 
  148400    321.24009   -17072.471    91.925347   -17164.397    3651.9934 
  148600    275.64152   -17085.096     78.87696   -17163.973   -5487.4829 
  148800    304.78687   -17086.464    87.217131   -17173.681   -1961.3772 
  149000    315.84874   -17061.907    90.382568    -17152.29    119.35056 
  149200     259.0446   -17081.776    74.127623   -17155.903    6427.0003 
  149400    291.21929   -17081.063    83.334661   -17164.398   -2132.1932 
  149600    284.82009   -17093.596     81.50348     -17175.1   -5491.2135 
  149800    268.25453   -17091.111    76.763117   -17167.874    5061.0874 
  150000    312.94989   -17069.006     89.55304   -17158.559    5662.9027 
  150200    286.54374    -17085.74    81.996717   -17167.736   -1378.5504 
  150400     286.2365   -17091.768    81.908798   -17173.677    6276.8194 
  150600    336.91252   -17084.721    96.410134   -17181.131    1860.4673 
  150800    312.34539   -17085.195     89.38006   -17174.575     -6514.73 
  151000    317.82382   -17061.429    90.947754   -17152.377   -7836.0551 
  151200    308.31708     -17074.9    88.227326   -17163.127    187.70388 
  151400    308.56715   -17084.222    88.298887   -17172.521   -84.945142 
  151600    305.65124   -17085.179    87.464477   -17172.643   -2290.6721 
  151800    299.26817   -17078.563    85.637912   -17164.201    -9549.329 
  152000    286.91942   -17079.026    82.104221    -17161.13   -6067.9238 
  152200    274.27353   -17096.253    78.485499   -17174.739   -17690.729 
  152400    308.67159   -17071.835    88.328773   -17160.164    21036.611 
  152600    320.85854    -17076.26    91.816163   -17168.076    1982.9871 
  152800    316.91294   -17084.774    90.687098   -17175.461    1119.0622 
  153000    309.28632   -17082.272    88.504683   -17170.776   -1771.6376 
  153200    276.75763   -17080.574    79.196345   -17159.771    6749.8017 
  153400    266.95344   -17080.166      76.3908   -17156.557   -3397.5284 
  153600    242.48957   -17096.707    69.390274   -17166.098     11578.62 
  153800    303.14474   -17072.615    86.747222   -17159.362   -7120.2932 
  154000    313.56528   -17078.993    89.729138   -17168.722    581.82726 
  154200     301.4347   -17091.426    86.257879   -17177.684   -12664.186 
  154400    303.41933   -17082.854    86.825797    -17169.68   -2329.2722 
  154600    354.92432   -17064.999    101.56435   -17166.563   -6667.2287 
  154800    338.87106   -17078.381    96.970586   -17175.351   -8611.9181 
  155000    286.42779   -17086.508    81.963536   -17168.472    3188.8567 
  155200    325.34996    -17079.39    93.101417   -17172.491   -1819.4624 
  155400    329.06439   -17068.267    94.164329   -17162.431   -2851.8483 
  155600     273.7283    -17095.53    78.329478   -17173.859   -10872.002 
  155800    313.22192   -17077.393    89.630884   -17167.024    2526.5735 
  156000    292.90422   -17082.539    83.816817   -17166.356    6100.5661 
  156200    261.96984    -17098.67    74.964702   -17173.635   -5888.6631 
  156400     308.5273   -17075.511    88.287481   -17163.798    2459.5224 
  156600    287.23519   -17083.127    82.194579   -17165.321    8927.2777 
  156800    230.65759    -17107.85    66.004459   -17173.854   -9838.8967 
  157000    270.30466   -17095.594    77.349776   -17172.944   -1103.9936 
  157200    336.49168   -17078.324    96.289707   -17174.613    4546.0582 
  157400     286.2596   -17088.885    81.915406     -17170.8   -1369.5566 
  157600    290.79262   -17086.029    83.212566   -17169.242    -269.3641 
  157800    319.55464   -17079.136    91.443041   -17170.579    1425.3271 
  158000    315.69519   -17067.547    90.338629   -17157.886   -1931.8157 
  158200    292.17955   -17082.145    83.609447   -17165.754    11051.626 
  158400    284.79891   -17084.628    81.497419   -17166.125   -7243.3321 
  158600    292.61153   -17082.642    83.733061   -17166.375    3896.5157 
  158800    260.78711   -17094.603    74.626255   -17169.229   -2988.3362 
  159000    314.39231   -17077.511      89.9658   -17167.477    9762.7034 
  159200    309.85219   -17072.276     88.66661   -17160.942   -7152.7765 
  159400    275.06495   -17075.437     78.71197   -17154.149    -13495.31 
  159600    260.56221   -17088.514    74.561899   -17163.076    4987.1801 
  159800     321.6512   -17071.121    92.042989   -17163.164   -6418.0901 
  160000    317.16864   -17078.149     90.76027   -17168.909   -7751.4783 
  160200    302.66079   -17082.816    86.608734   -17169.425    6877.8403 
  160400    293.52466   -17089.034    83.994359   -17173.028   -931.89751 
  160600    307.41143   -17082.987    87.968168   -17170.956   -3289.4641 
  160800    294.88179   -17078.456    84.382715   -17162.839    -3686.649 
  161000    341.54758   -17075.202    97.736491   -17172.938    7994.0445 
  161200    273.33932   -17089.307     78.21817   -17167.525   -10557.112 
  161400    299.58444   -17074.045    85.728414   -17159.773    865.25569 
  161600    265.54894   -17094.341    75.988892    -17170.33    4383.2795 
  161800    282.76933   -17088.289    80.916639   -17169.206    5196.8862 
  162000    330.30122   -17060.039     94.51826   -17154.558   -7848.1819 
  162200    280.84184    -17073.59    80.365073   -17153.955   -936.49031 
  162400    318.66307   -17083.554    91.187911   -17174.741    12608.813 
  162600     321.6645   -17077.074    92.046795    -17169.12    6148.0641 
  162800    293.47496   -17074.086    83.980137   -17158.066    12095.506 
  163000    267.96545   -17096.607    76.680395   -17173.288    3360.1042 
  163200    305.31248   -17081.043    87.367537   -17168.411    3458.0628 
  163400    306.67451   -17074.452    87.757291    -17162.21   -4813.8641 
  163600    288.21605   -17086.133    82.475259   -17168.608   -6033.2941 
  163800    260.15967   -17106.171    74.446709   -17180.618    16302.155 
  164000    309.84497   -17085.433    88.664544   -17174.097     6904.397 
  164200     302.9297   -17072.354    86.685685    -17159.04    7849.6866 
  164400    265.22162   -17087.811    75.895225   -17163.706   -2925.3618 
  164600    314.09334   -17086.191    89.880249   -17176.071   -10630.068 
  164800    340.70326   -17067.468    97.494882   -17164.963    2082.8272 
  165000    293.90546   -17086.337    84.103331    -17170.44    3398.1007 
  165200    273.55322   -17110.424    78.279377   -17188.704    1013.4094 
  165400    282.45149   -17084.679    80.825687   -17165.505     7917.862 
  165600    272.12043   -17074.597    77.869373   -17152.467    -3828.506 
  165800    274.89821   -17093.358    78.664258   -17172.023    5453.2143 
  166000    311.27393   -17084.336    89.073452    -17173.41    8415.8503 
  166200    309.15962   -17065.482    88.468427   -17153.951     11357.09 
  166400    276.13603   -17092.446    79.018469   -17171.465   -6793.7411 
  166600    328.63015   -17086.494    94.040068   -17180.534    3319.1086 
  166800    346.18353   -17062.006    99.063104   -17161.069   -1128.2081 
  167000    321.65366   -17069.924    92.043691   -17161.968   -1224.7499 
  167200    324.57592   -17082.349     92.87992   -17175.229    1429.2322 
  167400     278.0501   -17093.693    79.566195   -17173.259    7925.9972 
  167600    307.16048   -17059.575    87.896357   -17147.471    151.71442 
  167800     293.6481   -17077.132    84.029685   -17161.162   -9924.2681 
  168000    290.83711   -17091.405    83.225297    -17174.63    1716.1607 
  168200    280.93724   -17102.289    80.392374   -17182.681     6906.459 
  168400    309.28488   -17073.644     88.50427   -17162.148   -9769.3778 
  168600    323.16037   -17079.311     92.47485   -17171.786   -279.40416 
  168800    286.17837    -17091.46    81.892162   -17173.353   -1398.9305 
  169000    270.59567   -17078.238    77.433051   -17155.672    814.74465 
  169200    295.63833    -17082.01    84.599204   -17166.609    2653.6646 
  169400    241.91616   -17103.132    69.226187   -17172.358    8520.0451 
  169600     271.3333   -17086.789    77.644131   -17164.433   -834.08298 
  169800    302.75376    -17072.71    86.635339   -17159.346    3300.4613 
  170000    261.48385   -17092.025    74.825634   -17166.851    8246.7317 
  170200    275.70809   -17085.117    78.896012   -17164.013   -2949.4303 
  170400    326.13421   -17072.759    93.325838   -17166.085   -5989.9727 
  170600    324.03074   -17077.799    92.723911   -17170.523    4941.9715 
  170800    291.53382   -17088.228    83.424665   -17171.652   -3537.0703 
  171000    324.78148   -17074.733    92.938741   -17167.672   -8724.2598 
  171200    310.82201   -17072.185    88.944132   -17161.129    13414.254 
  171400    310.61563    -17085.53    88.885074   -17174.415   -5908.0875 
  171600    285.81593   -17073.749    81.788448   -17155.538    1162.0715 
  171800     339.8034   -17059.463    97.237381   -17156.701    13562.329 
  172000    280.53515   -17080.798    80.277313   -17161.075    3553.9982 
  172200    287.84827   -17084.873    82.370017   -17167.243   -5338.4356 
  172400    276.99588   -17081.435    79.264522     -17160.7   -3485.8982 
  172600    340.98101   -17074.701    97.574364   -17172.275    1367.1453 
  172800    294.21573   -17095.277    84.192115   -17179.469    12043.119 
  173000    303.95184   -17077.773     86.97818   -17164.752    5206.7481 
  173200    318.67069   -17072.467    91.190093   -17163.657    876.41699 
  173400    285.95287   -17093.178    81.827634   -17175.006    10757.162 
  173600    317.43958    -17084.68    90.837801   -17175.518    7487.4546 
  173800    346.87387   -17076.956    99.260652   -17176.217    5450.2571 
  174000    290.11137   -17093.118    83.017621   -17176.136    8992.7541 
  174200    319.26019   -17077.147    91.358784   -17168.505   -4021.7534 
  174400    320.20076   -17076.631    91.627934   -17168.259   -3348.8009 
  174600    253.28176     -17102.2    72.478544   -17174.679    7880.4292 
  174800    264.09455   -17090.647    75.572707    -17166.22    3261.4131 
  175000    336.24028   -17073.341    96.217767   -17169.559   -1235.8932 
  175200    297.01003   -17084.764    84.991727   -17169.755   -7449.9951 
  175400    305.17493   -17078.217    87.328177   -17165.545    5228.5178 
  175600    316.39687   -17068.374    90.539421   -17158.914   -3605.9524 
  175800    308.06972   -17088.305    88.156543   -17176.462    5409.6579 
  176000     265.3821   -17093.967    75.941149   -17169.908    788.24428 
  176200    330.40344   -17073.219    94.547511   -17167.767    7456.0879 
  176400    301.97747   -17084.662    86.413198   -17171.075    18389.318 
  176600    274.93514   -17085.002    78.674825   -17163.677     7743.435 
  176800    314.83641   -17071.331    90.092884   -17161.424    12769.506 
  177000    287.45319    -17085.34    82.256963   -17167.597    6813.5479 
  177200    328.46935   -17073.156    93.994056    -17167.15    3192.4092 
  177400    285.19047   -17065.964    81.609468   -17147.574    2614.9534 
  177600    306.48506   -17087.311    87.703079   -17175.014    2371.2053 
  177800    302.54969   -17077.721    86.576942   -17164.298    13512.957 
  178000    340.73718   -17070.411    97.504589   -17167.915   -2817.9437 
  178200    314.27996   -17079.706    89.933651    -17169.64    3965.3913 
  178400      273.917    -17093.73    78.383476   -17172.113    3331.4157 
  178600    295.72931   -17069.917    84.625237   -17154.542   -7275.2788 
  178800    318.12529   -17070.993    91.034021   -17162.027    5082.8465 
  179000    275.11534   -17088.091    78.726391   -17166.817    7121.2158 
  179200    291.11746   -17078.146    83.305521   -17161.452   -18797.242 
  179400     322.4825   -17062.007    92.280871   -17154.287    9875.5878 
  179600    282.66782   -17091.576     80.88759   -17172.463    7496.1345 
  179800    295.51647   -17079.851    84.564333   -17164.416   -1259.0303 
  180000    343.67956   -17061.089    98.346576   -17159.436   -7529.5734 
  180200    305.30228   -17078.946    87.364618   -17166.311    1576.9791 
  180400     312.6356   -17084.289    89.463105   -17173.752   -3634.0392 
  180600    358.91829   -17064.015    102.70726   -17166.722   -12293.355 
  180800    279.10665   -17087.127    79.868534   -17166.996    6851.2819 
  181000    289.34899    -17087.58     82.79946    -17170.38    707.27981 
  181200    294.60211    -17077.24    84.302683   -17161.543   -4675.6663 
[...]
  950000    304.76099   -17072.218    87.209723   -17159.428   -9494.3491 
  950200    310.40325   -17075.696    88.824299    -17164.52    3144.3185 
  950400    289.88936   -17094.559     82.95409   -17177.513    8491.8434 
  950600    308.89656   -17082.064    88.393148   -17170.457    4187.9768 
  950800    298.16231   -17081.204    85.321461   -17166.525    5852.2458 
  951000    337.87811    -17052.86    96.686446   -17149.547    11121.144 
  951200      332.159    -17078.52    95.049877    -17173.57   -9228.3487 
  951400    320.91931   -17083.228    91.833553   -17175.062    7868.8999 
  951600    274.08399   -17092.447    78.431261   -17170.878    5200.9951 
  951800    285.41115   -17082.918    81.672617    -17164.59   -5052.7838 
  952000    300.50945   -17077.248    85.993111   -17163.241    3451.1384 
  952200    361.71569   -17071.469    103.50775   -17174.977    8423.8946 
  952400    316.49094   -17071.136     90.56634   -17161.703   -6785.9375 
  952600    301.62164    -17089.03    86.311373   -17175.342   -8550.2267 
  952800    322.52359   -17073.627    92.292629    -17165.92    -5250.187 
  953000    300.22416   -17063.339    85.911473    -17149.25   -2336.7162 
  953200    295.91602   -17087.123    84.678667   -17171.801   -4932.9448 
  953400    318.92844   -17074.945    91.263851   -17166.209   -1777.7161 
  953600    310.10123   -17060.385    88.737874   -17149.122   -363.30625 
  953800    298.07958   -17087.247    85.297785   -17172.545   -2884.0028 
  954000    254.25406   -17090.788    72.756773   -17163.545    7718.1881 
  954200    308.03582   -17074.975    88.146841   -17163.122    8843.2246 
  954400    267.07791   -17091.834    76.426419    -17168.26     12543.54 
  954600    276.32963   -17092.366     79.07387    -17171.44   -7506.7141 
  954800    297.46445    -17064.06    85.121761   -17149.182     11340.57 
  955000    354.57057   -17071.464    101.46312   -17172.927    6080.5866 
  955200     284.2501   -17089.295    81.340374   -17170.635    2944.8771 
  955400    299.33985   -17071.132    85.658424    -17156.79    1675.6879 
  955600    284.01476   -17096.695    81.273028   -17177.968    971.71953 
  955800    333.70358   -17083.677    95.491871   -17179.169   -4917.1799 
  956000    275.59797   -17081.541      78.8645   -17160.406    14899.829 
  956200    333.82762   -17064.889    95.527366   -17160.416    4543.5573 
  956400    253.16437   -17089.336    72.444951   -17161.781    2200.0116 
  956600    349.55243   -17074.826    100.02714   -17174.853    12251.627 
  956800    270.58154   -17098.989    77.429009   -17176.418    8656.5715 
  957000     313.5443   -17085.844    89.723135   -17175.567    7400.4992 
  957200    312.85111   -17082.428    89.524774   -17171.953   -1857.3832 
  957400    321.76439   -17068.895    92.075379   -17160.971    60.098706 
  957600    276.57205   -17087.136    79.143239   -17166.279    14706.513 
  957800    340.62661   -17075.988    97.472951   -17173.461    7309.7164 
  958000    269.79632   -17087.306    77.204311   -17164.511    -5539.668 
  958200    326.81222   -17082.482    93.519855   -17176.002   -1521.9075 
  958400    282.20602   -17085.555    80.755445   -17166.311    9019.3175 
  958600     307.7684   -17070.896    88.070319   -17158.967    -58.66767 
  958800    283.27343   -17082.438    81.060891   -17163.499    6879.1272 
  959000    295.76155   -17076.782    84.634463   -17161.416    8991.3933 
  959200    304.93109   -17081.332    87.258399   -17168.591   -6459.2725 
  959400    266.06358   -17092.959    76.136159   -17169.095    3795.5776 
  959600    296.47136   -17075.867    84.837583   -17160.704    7922.0402 
  959800    314.61516   -17075.027    90.029571   -17165.057   -15450.085 
  960000    276.92081   -17099.549     79.24304   -17178.792     4156.286 
  960200    299.25353   -17087.464    85.633722   -17173.098     4974.195 
  960400    310.19636   -17077.818    88.765097   -17166.583    2722.2009 
  960600    302.52215   -17083.016    86.569063   -17169.585   -2182.2725 
  960800    254.12509   -17102.422    72.719868   -17175.142    4864.9696 
  961000    286.96619   -17083.899    82.117603   -17166.016   -4577.2899 
  961200    298.83351   -17079.231    85.513529   -17164.745     7432.967 
  961400    256.22054   -17103.021    73.319498   -17176.341    11596.397 
  961600    286.44659   -17088.861    81.968916    -17170.83   -1351.4948 
  961800    318.27318   -17077.176    91.076342   -17168.252    4137.2484 
  962000    275.82313   -17091.498    78.928932   -17170.427    633.05374 
  962200    281.54968    -17095.49    80.567626   -17176.058   -4357.5358 
  962400    294.80708   -17082.359    84.361335   -17166.721    -246.7326 
  962600    316.05117   -17073.206    90.440497   -17163.647   -1420.7652 
  962800    325.61674   -17062.243    93.177759   -17155.421    10734.788 
  963000    293.20722   -17085.374    83.903523   -17169.278    -5719.608 
  963200     348.3964   -17071.509    99.696336   -17171.205    11645.099 
  963400    359.54807   -17057.929    102.88747   -17160.816    13746.043 
  963600    290.52754   -17092.835    83.136712   -17175.972   -3039.6437 
  963800    287.02162   -17081.933    82.133465   -17164.067    8591.7079 
  964000    321.55877   -17065.718     92.01654   -17157.735   -7583.0937 
  964200    286.32265    -17088.46    81.933449   -17170.394    1707.4919 
  964400    293.76982    -17096.79    84.064514   -17180.854    1125.0989 
  964600    322.88671     -17075.9    92.396538   -17168.296   -2496.3551 
  964800    302.67646   -17083.833     86.61322   -17170.446    2220.7951 
  965000    293.42145   -17098.683    83.964827   -17182.648    5692.8133 
  965200    319.02301    -17077.46    91.290912   -17168.751    5217.5093 
  965400    272.50108   -17080.782      77.9783    -17158.76   -6370.9702 
  965600    265.45691   -17090.224    75.962557   -17166.186    5384.8755 
  965800    302.88978    -17088.32    86.674263   -17174.995     1217.951 
  966000    321.89283   -17070.883    92.112132   -17162.995    5195.4896 
  966200    279.05476   -17097.727    79.853685   -17177.581    1518.8168 
  966400    295.92885   -17088.168    84.682339   -17172.851    3255.0999 
  966600     326.8281   -17075.266    93.524398    -17168.79    3589.6515 
  966800    385.93614   -17052.489    110.43862   -17162.927     1430.299 
  967000    291.50623   -17084.777    83.416771   -17168.194    -5747.147 
  967200    323.01381   -17079.423    92.432908   -17171.856    755.93041 
  967400    266.21825   -17088.876    76.180419   -17165.056   -1429.3283 
  967600    318.36416   -17079.575    91.102376   -17170.677    2511.3792 
  967800    354.84883   -17071.066    101.54275   -17172.609   -10164.841 
  968000    291.60377   -17084.194    83.444682   -17167.639   -2147.4778 
  968200     324.7657   -17083.706    92.934227    -17176.64   -2524.6708 
  968400    323.62288   -17083.108    92.607199   -17175.715    3319.4071 
  968600    275.61575   -17073.322    78.869588   -17152.191    728.27679 
  968800    360.60638   -17063.102    103.19032   -17166.292   -7283.3195 
  969000    298.50361   -17088.577    85.419126   -17173.996    1681.3161 
  969200    294.62751    -17075.75    84.309949   -17160.059   -15357.783 
  969400     338.1624   -17065.397    96.767797   -17162.165    3352.7825 
  969600    283.48431   -17088.776    81.121238   -17169.898   -7029.0917 
  969800    302.53025    -17092.29    86.571381   -17178.861    13915.401 
  970000    336.95096   -17065.887    96.421133   -17162.308   -7024.3413 
  970200    290.76764   -17081.498    83.205419   -17164.703   -8107.6286 
  970400    292.77732   -17084.557    83.780504   -17168.337   -6932.2184 
  970600    240.77283   -17102.223    68.899014   -17171.122    5506.6625 
  970800    298.08794   -17078.025    85.300179   -17163.325   -8340.4056 
  971000    298.88986   -17084.257    85.529653   -17169.787   -4861.3168 
  971200    252.22605   -17109.113    72.176442    -17181.29   -7543.9179 
  971400    278.64701   -17087.412    79.737005   -17167.149    7597.1546 
  971600    314.00677   -17074.008    89.855476   -17163.864   -133.60848 
  971800    288.56874   -17082.114    82.576186    -17164.69   -2935.9073 
  972000    301.44109   -17092.939    86.259709   -17179.199    4301.0519 
  972200     318.5964   -17069.735    91.168834   -17160.904   -1821.8066 
  972400    301.37909   -17080.399    86.241966   -17166.641    10476.812 
  972600    270.35162   -17094.507    77.363215    -17171.87    12690.815 
  972800    307.35015   -17097.445    87.950631   -17185.395    13799.126 
  973000    281.79218   -17081.404     80.63702   -17162.041    5758.7968 
  973200    299.42483    -17075.55    85.682741   -17161.232   -5427.0153 
  973400    261.29079   -17096.877     74.77039   -17171.647     3350.551 
  973600    327.18513   -17078.923    93.626564   -17172.549   -6944.7025 
  973800    325.77375   -17053.911    93.222688   -17147.134    12552.454 
  974000    272.25481     -17086.5    77.907829   -17164.407    1748.1303 
  974200    312.02084   -17080.725    89.287185   -17170.013     2938.211 
  974400    296.23565   -17082.159    84.770131   -17166.929    8266.1682 
  974600    283.73023    -17083.59    81.191608   -17164.782    6969.7807 
  974800    309.49813   -17079.469    88.565294   -17168.035   -5672.7259 
  975000    291.56878   -17082.551    83.434672   -17165.986   -6554.8047 
  975200    314.11222   -17072.907     89.88565   -17162.792    12573.728 
  975400    276.39118   -17093.609    79.091483     -17172.7   -9389.1432 
  975600    318.53095   -17078.903    91.150106   -17170.053   -4912.2599 
  975800    310.95636   -17088.311    88.982577   -17177.293    4865.3588 
  976000    244.99237   -17103.146    70.106468   -17173.252   -1059.4936 
  976200    317.87329   -17079.184    90.961909   -17170.146   -1018.6392 
  976400    307.78158   -17078.658     88.07409   -17166.732   -3595.1549 
  976600    270.08314   -17085.122    77.286388   -17162.409    3972.0149 
  976800    272.06014   -17091.383    77.852123   -17169.235   -6330.5044 
  977000    327.67102   -17070.859    93.765608   -17164.625    4433.8075 
  977200    298.63422   -17085.175      85.4565   -17170.631     5949.524 
  977400    259.92518   -17097.263    74.379608   -17171.643    2736.4775 
  977600    337.65687   -17076.599    96.623136   -17173.222   -415.49469 
  977800    274.72014   -17081.453    78.613301   -17160.066   -818.46294 
  978000    287.36429   -17099.497    82.231522   -17181.729   -2130.4435 
  978200    387.45377   -17068.372    110.87291   -17179.245    1717.4131 
  978400     236.8069       -17086    67.764132   -17153.764     3520.059 
  978600    281.98945   -17080.266    80.693472   -17160.959   -4506.8092 
  978800    348.55559   -17064.172    99.741889   -17163.914   -4544.9965 
  979000     288.2701   -17089.028    82.490727   -17171.519    5036.9756 
  979200     285.4136   -17087.456    81.673319   -17169.129    876.02334 
  979400    330.74307   -17060.378    94.644699   -17155.023   -218.60655 
  979600    292.21635   -17086.352    83.619977   -17169.972    4724.0964 
  979800    287.95408   -17091.536    82.400296   -17173.936    7013.7489 
  980000    305.03996   -17068.171    87.289552   -17155.461    5974.0834 
  980200     297.7061   -17079.887    85.190911   -17165.078    2899.9557 
  980400    289.22346    -17091.91    82.763538   -17174.674    3663.5819 
  980600     305.0174   -17077.231    87.283097   -17164.514   -6932.0947 
  980800    337.59027   -17063.733    96.604076   -17160.337    6399.9975 
  981000    306.26326   -17090.479    87.639609   -17178.118     -3800.15 
  981200      279.547   -17084.301    79.994545   -17164.295   -104.44973 
  981400    284.19065   -17068.921    81.323362   -17150.244   -4326.2436 
  981600    272.41774   -17094.472    77.954451   -17172.426    6770.4432 
  981800    273.84527   -17088.077    78.362951    -17166.44    1033.2643 
  982000    298.80438   -17073.126    85.505194   -17158.632    3107.0266 
  982200    308.94848   -17071.894    88.408008   -17160.302   -3334.5157 
  982400     307.6222   -17089.608    88.028481   -17177.636    2703.5976 
  982600    284.34588   -17088.523    81.367781   -17169.891   -5922.1389 
  982800    338.33241   -17066.752    96.816447   -17163.569    1130.8582 
  983000    297.95409   -17087.801    85.261877   -17173.063    10692.239 
  983200    299.41572   -17100.792    85.680135   -17186.472    1116.7331 
  983400    276.61298   -17085.866    79.154952   -17165.021   -4798.9243 
  983600    284.96027   -17071.526    81.543594   -17153.069   -10558.109 
  983800    291.00407   -17090.698    83.273074   -17173.971    2015.6028 
  984000     314.4417   -17074.767    89.979933   -17164.747   -11532.699 
  984200    332.74016   -17067.787    95.216181   -17163.003   -15849.123 
  984400    315.94431   -17081.149    90.409917   -17171.558   -3931.0544 
  984600    268.05849   -17104.953    76.707019    -17181.66    14388.784 
  984800    293.03561   -17092.479    83.854414   -17176.333    650.76312 
  985000    250.22101   -17083.965    71.602686   -17155.568   -470.65999 
  985200      349.944   -17066.445    100.13919   -17166.584    647.30383 
  985400    322.69472    -17083.68    92.341599   -17176.021    6449.5055 
  985600    300.32176   -17081.868    85.939404   -17167.807     1243.692 
  985800    297.17099   -17072.556    85.037787   -17157.594    3355.4999 
  986000    318.08013   -17079.373    91.021098   -17170.394    4735.7988 
  986200    282.20285   -17094.958    80.754537   -17175.713    8871.6819 
  986400    320.72564    -17073.28    91.778131   -17165.058   -12027.522 
  986600    295.86442   -17080.157    84.663901   -17164.821    -15648.14 
  986800    263.76133    -17093.42    75.477354   -17168.898      7133.24 
  987000    258.30556   -17104.693    73.916141    -17178.61     3515.013 
  987200    325.28652   -17076.884    93.083264   -17169.967    3815.1758 
  987400    278.48872   -17082.125    79.691709   -17161.817    -1445.514 
  987600    254.45971   -17101.629    72.815621   -17174.444   -8597.8092 
  987800    319.08119    -17081.76     91.30756   -17173.068   -1645.3744 
  988000    326.43491    -17077.18    93.411885   -17170.592    7005.0953 
  988200    286.30649   -17099.987    81.928826   -17181.915    10102.855 
  988400    283.25954   -17082.679    81.056918   -17163.736   -7056.4445 
  988600    308.04943   -17081.039    88.150735    -17169.19    4898.3762 
  988800    333.39128   -17070.808    95.402503   -17166.211   -4453.3838 
  989000    276.32458    -17080.16    79.072424   -17159.232   -621.05345 
  989200     300.8932   -17088.248    86.102926   -17174.351    10059.236 
  989400     334.6326    -17067.99    95.757717   -17163.748    859.62565 
  989600      298.946   -17085.083    85.545718   -17170.629   -5340.6756 
  989800    348.42243   -17086.178    99.703782   -17185.882   -5050.6659 
  990000    344.68839   -17062.339    98.635259   -17160.975   -23.389469 
  990200     261.2408   -17091.375    74.756084   -17166.131    3924.2523 
  990400    321.46473   -17075.249     91.98963   -17167.239    968.83232 
  990600    277.16836   -17084.121    79.313877   -17163.435      242.927 
  990800    291.44365   -17090.425    83.398862   -17173.823    8433.5989 
  991000     313.8848   -17070.039    89.820574    -17159.86    6224.3688 
  991200    248.67353   -17097.576    71.159862   -17168.736   -8881.1246 
  991400    286.99434   -17080.693     82.12566   -17162.819    9492.0893 
  991600    356.63636   -17067.717    102.05426   -17169.772    1624.1475 
  991800    303.50349   -17092.537     86.84988   -17179.387    4382.3703 
  992000    324.97372   -17073.529    92.993754   -17166.522   -25.867595 
  992200    322.43636   -17074.205    92.267668   -17166.473    -696.1399 
  992400    308.61781   -17079.012    88.313382   -17167.326   -9530.5172 
  992600    311.46185   -17089.295    89.127227   -17178.422    1982.8286 
  992800    311.48442   -17070.532    89.133685   -17159.666   -1541.2603 
  993000    348.37166   -17065.459    99.689257   -17165.149   -9252.2223 
  993200    287.62573   -17092.281    82.306336   -17174.588    3309.2577 
  993400    303.66805   -17081.607    86.896972   -17168.504    5750.2509 
  993600    345.72422   -17072.639     98.93167   -17171.571    242.88484 
  993800    296.78238   -17084.019    84.926582   -17168.946   -20631.285 
  994000    246.23426    -17083.67    70.461845   -17154.132   -11138.658 
  994200    305.13654    -17081.58    87.317191   -17168.898    10876.662 
  994400    324.63894   -17077.273    92.897953   -17170.171   -7767.4902 
  994600    282.23127   -17084.674     80.76267   -17165.437   -7580.2039 
  994800     259.6874    -17100.04    74.311566   -17174.351   -2395.9629 
  995000     314.1607   -17081.404    89.899523   -17171.304   -391.85988 
  995200    315.52298   -17072.038     90.28935   -17162.327   -1931.3471 
  995400    284.90164   -17096.947    81.526817   -17178.474   -6683.3352 
  995600    290.05901   -17088.268    83.002639   -17171.271   -3983.3338 
  995800    275.65037   -17073.861    78.879493    -17152.74   -1470.8313 
  996000    281.74039   -17089.966    80.622201   -17170.588    7763.5503 
  996200    281.49287   -17092.068    80.551371    -17172.62    1727.7704 
  996400    304.84082   -17078.228    87.232566   -17165.461    3346.6839 
  996600      300.539   -17082.565    86.001568   -17168.567    -5593.405 
  996800    271.00236   -17095.495    77.549429   -17173.044   -5149.0637 
  997000    344.94935   -17076.562    98.709934   -17175.272     4359.744 
  997200     279.6566   -17079.553    80.025908   -17159.579    1992.6476 
  997400    289.94515   -17085.729    82.970057   -17168.699   -1838.5021 
  997600     287.5638   -17087.486    82.288614   -17169.775   -9743.8405 
  997800    305.13183   -17070.985    87.315844   -17158.301    3601.9676 
  998000    272.57061   -17075.508    77.998196   -17153.506    5322.2344 
  998200    263.52492   -17088.284    75.409703   -17163.694   -353.35111 
  998400     286.4819   -17089.688     81.97902   -17171.667   -11829.883 
  998600    308.66393   -17078.714    88.326579    -17167.04    840.92127 
  998800    285.53682    -17080.45    81.708577   -17162.159    4393.4947 
  999000    280.49079    -17086.19    80.264618   -17166.454   -10290.264 
  999200    350.61621   -17065.824    100.33155   -17166.156    3226.7456 
  999400    279.84694   -17086.551    80.080376   -17166.631    2720.8178 
  999600    316.66613   -17073.497    90.616471   -17164.113    1344.7266 
  999800     264.8285   -17099.389     75.78273   -17175.171    3787.0284 
 1000000    276.25095   -17078.972    79.051353   -17158.023   -1955.6668 
Loop time of 2968.43 on 8 procs for 1000000 steps with 97 atoms

Performance: 7.277 ns/day, 3.298 hours/ns, 336.879 timesteps/s
99.2% CPU use with 8 MPI tasks x no OpenMP threads

MPI task timing breakdown:
Section |  min time  |  avg time  |  max time  |%varavg| %total
---------------------------------------------------------------
Pair    | 2619.4     | 2635.5     | 2655       |  24.2 | 88.78
Neigh   | 1.2812     | 1.2867     | 1.3001     |   0.6 |  0.04
Comm    | 38.667     | 58.386     | 74.044     | 162.1 |  1.97
Output  | 0.12273    | 0.14078    | 0.2581     |  11.8 |  0.00
Modify  | 269.64     | 270.02     | 270.61     |   1.7 |  9.10
Other   |            | 3.121      |            |       |  0.11

Nlocal:    12.125 ave 13 max 12 min
Histogram: 7 0 0 0 0 0 0 0 0 1
Nghost:    725.75 ave 734 max 720 min
Histogram: 1 1 2 0 2 0 0 1 0 1
Neighs:    1642.5 ave 1752 max 1614 min
Histogram: 4 2 1 0 0 0 0 0 0 1

Total # of neighbors = 13140
Ave neighs/atom = 135.464
Neighbor list builds = 1268
Dangerous builds = 0

Please see the log.cite file for references relevant to this simulation

Total wall time: 0:49:29
