ITEM: TIMESTEP
0
ITEM: NUMBER OF ATOMS
34
ITEM: BOX BOUNDS pp pp pp
0.0000000000000000e+00 7.0970000000000004e+00
0.0000000000000000e+00 7.0970000000000004e+00
0.0000000000000000e+00 2.4588000000000001e+01
ITEM: ATOMS id type x y z 
2 1 3.339 1.632 13.319 
5 1 4.651 1.581 18.133 
7 1 3.391 1.602 15.981 
8 1 2.166 1.581 18.134 
18 1 3.408 1.581 17.416 
21 1 3.338 2.875 12.602 
23 1 3.367 1.619 14.753 
24 1 3.338 0.39 12.601 
17 1 7.023 2.875 24.28 
19 1 6.997 1.619 22.129 
20 1 7.023 0.39 24.281 
22 1 6.957 1.581 19.466 
25 1 5.714 1.581 18.748 
27 1 6.974 1.602 20.9 
28 1 1.102 1.581 18.748 
30 1 7.024 1.631 23.563 
10 1 6.954 5.232 5.122 
13 1 7.023 3.938 0.307 
15 1 6.994 5.194 2.459 
16 1 7.023 6.423 0.307 
26 1 7.022 5.181 1.025 
29 1 5.711 5.232 5.839 
31 1 6.97 5.211 3.688 
32 1 1.098 5.232 5.84 
1 1 4.647 5.232 6.454 
3 1 3.388 5.211 8.606 
4 1 2.163 5.232 6.454 
6 1 3.338 5.182 11.269 
9 1 3.338 3.939 11.986 
11 1 3.365 5.194 9.834 
12 1 3.338 6.423 11.987 
14 1 3.404 5.232 7.171 
33 2 1.784 4.862 7.712 
34 3 0.808 4.62 7.712 
ITEM: TIMESTEP
10
ITEM: NUMBER OF ATOMS
34
ITEM: BOX BOUNDS pp pp pp
0.0000000000000000e+00 7.0970000000000004e+00
0.0000000000000000e+00 7.0970000000000004e+00
0.0000000000000000e+00 2.4588000000000001e+01
ITEM: ATOMS id type x y z 
2 1 3.34154 1.63137 13.3219 
5 1 4.65136 1.58137 18.1331 
7 1 3.39071 1.60209 15.9814 
8 1 2.16642 1.58131 18.1338 
18 1 3.40712 1.58153 17.4157 
21 1 3.33988 2.87523 12.6039 
23 1 3.36782 1.61895 14.7528 
24 1 3.33811 0.391056 12.6006 
17 1 7.01393 2.87664 24.2776 
19 1 6.99737 1.61881 22.1286 
20 1 7.01145 0.392073 24.285 
22 1 6.95807 1.58155 19.465 
25 1 5.71369 1.58131 18.7482 
27 1 6.97298 1.60186 20.8997 
28 1 1.10179 1.58152 18.7479 
30 1 7.02797 1.63172 23.5652 
10 1 6.93521 5.2297 5.12698 
13 1 7.03257 3.93722 0.309963 
15 1 6.9931 5.19672 2.44592 
16 1 7.03546 6.42009 0.302564 
26 1 7.01258 5.18006 1.00435 
29 1 5.75538 5.22828 5.8073 
31 1 6.9774 5.21629 3.67304 
32 1 0.991428 5.15972 6.02673 
1 1 4.68909 5.23468 6.45486 
3 1 3.44175 5.21968 8.6357 
4 1 2.16906 5.26642 6.28975 
6 1 3.33495 5.18273 11.253 
9 1 3.33249 3.93543 11.9838 
11 1 3.3794 5.19228 9.87594 
12 1 3.33628 6.42614 11.9874 
14 1 3.54706 5.248 7.24435 
33 2 1.64884 4.81493 7.78273 
34 3 0.76772 4.67424 7.56125 
ITEM: TIMESTEP
20
ITEM: NUMBER OF ATOMS
34
ITEM: BOX BOUNDS pp pp pp
0.0000000000000000e+00 7.0970000000000004e+00
0.0000000000000000e+00 7.0970000000000004e+00
0.0000000000000000e+00 2.4588000000000001e+01
ITEM: ATOMS id type x y z 
2 1 3.34253 1.63196 13.3222 
5 1 4.65164 1.58158 18.1333 
7 1 3.39079 1.60195 15.9841 
8 1 2.1666 1.58151 18.1345 
18 1 3.40757 1.5818 17.4168 
21 1 3.33873 2.87427 12.6051 
23 1 3.36846 1.61897 14.7557 
24 1 3.33805 0.391083 12.6012 
17 1 7.0216 2.87552 24.2762 
19 1 6.99524 1.61903 22.1278 
20 1 7.02271 0.393094 24.2831 
22 1 6.95748 1.58156 19.4651 
25 1 5.71379 1.58153 18.748 
27 1 6.97429 1.60205 20.898 
28 1 1.1011 1.58139 18.7471 
30 1 7.0229 1.63166 23.5601 
10 1 6.94237 5.22931 5.10631 
13 1 7.02375 3.93532 0.307758 
15 1 6.99746 5.19815 2.45953 
16 1 7.02326 6.42184 0.300838 
26 1 7.01882 5.18121 1.02758 
29 1 5.73025 5.23371 5.80892 
31 1 6.97938 5.21383 3.6898 
32 1 1.05139 5.13982 6.09342 
1 1 4.68548 5.23822 6.46786 
3 1 3.44855 5.22063 8.60818 
4 1 2.23334 5.26062 6.37091 
6 1 3.33012 5.18173 11.2727 
9 1 3.33332 3.93735 11.9845 
11 1 3.39672 5.1949 9.82756 
12 1 3.33431 6.42532 11.9876 
14 1 3.4297 5.25194 7.13702 
33 2 1.65401 4.79727 7.84796 
34 3 0.754302 4.70088 7.46917 
ITEM: TIMESTEP
30
ITEM: NUMBER OF ATOMS
34
ITEM: BOX BOUNDS pp pp pp
0.0000000000000000e+00 7.0970000000000004e+00
0.0000000000000000e+00 7.0970000000000004e+00
0.0000000000000000e+00 2.4588000000000001e+01
ITEM: ATOMS id type x y z 
2 1 3.34133 1.63229 13.3173 
5 1 4.65037 1.58178 18.1331 
7 1 3.39101 1.60204 15.9815 
8 1 2.16609 1.58195 18.1345 
18 1 3.40751 1.58179 17.4173 
21 1 3.33769 2.87907 12.6005 
23 1 3.36882 1.61914 14.7538 
24 1 3.33858 0.3888 12.6001 
17 1 7.02269 2.87838 24.2788 
19 1 6.99613 1.61903 22.1279 
20 1 7.02325 0.38766 24.281 
22 1 6.95732 1.58174 19.4652 
25 1 5.71512 1.58179 18.7485 
27 1 6.97353 1.60193 20.9 
28 1 1.10172 1.58144 18.7474 
30 1 7.02263 1.63245 23.5623 
10 1 6.95281 5.22855 5.10612 
13 1 7.02018 3.93803 0.310402 
15 1 7.00271 5.1987 2.4743 
16 1 7.02092 6.42203 0.306992 
26 1 7.02018 5.1817 1.0406 
29 1 5.74389 5.23562 5.80595 
31 1 6.98847 5.21283 3.71145 
32 1 1.06401 5.1368 6.09402 
1 1 4.67901 5.24445 6.43787 
3 1 3.44435 5.22274 8.59249 
4 1 2.2357 5.24715 6.39925 
6 1 3.33357 5.18121 11.2709 
9 1 3.33509 3.93994 11.986 
11 1 3.39893 5.19658 9.82065 
12 1 3.33637 6.4202 11.9853 
14 1 3.43059 5.26003 7.1218 
33 2 1.63446 4.79001 7.85152 
34 3 0.72499 4.70315 7.4611 
ITEM: TIMESTEP
40
ITEM: NUMBER OF ATOMS
34
ITEM: BOX BOUNDS pp pp pp
0.0000000000000000e+00 7.0970000000000004e+00
0.0000000000000000e+00 7.0970000000000004e+00
0.0000000000000000e+00 2.4588000000000001e+01
ITEM: ATOMS id type x y z 
2 1 3.34035 1.63187 13.3135 
5 1 4.65061 1.58194 18.1334 
7 1 3.3917 1.60227 15.9792 
8 1 2.16635 1.58184 18.1342 
18 1 3.40764 1.58203 17.4159 
21 1 3.33806 2.87863 12.5993 
23 1 3.36805 1.61932 14.7513 
24 1 3.33882 0.387141 12.5987 
17 1 7.02125 2.88109 24.2818 
19 1 6.99632 1.61911 22.1304 
20 1 7.02175 0.38428 24.2808 
22 1 6.95739 1.58191 19.4662 
25 1 5.71426 1.58189 18.7483 
27 1 6.97327 1.60204 20.9018 
28 1 1.10183 1.58186 18.7478 
30 1 7.02315 1.63221 23.5643 
10 1 6.96369 5.22719 5.1133 
13 1 7.02065 3.94026 0.314153 
15 1 7.00741 5.19861 2.47773 
16 1 7.02138 6.42156 0.312685 
26 1 7.01904 5.18227 1.05142 
29 1 5.75044 5.23947 5.80087 
31 1 6.99774 5.21258 3.71393 
32 1 1.06578 5.13203 6.09401 
1 1 4.6783 5.2503 6.41618 
3 1 3.44423 5.22561 8.59215 
4 1 2.23875 5.23939 6.41036 
6 1 3.33742 5.18179 11.2644 
9 1 3.33698 3.94329 11.9853 
11 1 3.39906 5.19717 9.81432 
12 1 3.33763 6.41891 11.9846 
14 1 3.43659 5.26499 7.1151 
33 2 1.61017 4.78139 7.85874 
34 3 0.703962 4.70477 7.45988 
ITEM: TIMESTEP
50
ITEM: NUMBER OF ATOMS
34
ITEM: BOX BOUNDS pp pp pp
0.0000000000000000e+00 7.0970000000000004e+00
0.0000000000000000e+00 7.0970000000000004e+00
0.0000000000000000e+00 2.4588000000000001e+01
ITEM: ATOMS id type x y z 
2 1 3.33919 1.63188 13.3126 
5 1 4.65122 1.5816 18.1327 
7 1 3.39169 1.60247 15.9765 
8 1 2.16611 1.5822 18.1336 
18 1 3.40743 1.58258 17.4127 
21 1 3.33929 2.8788 12.5981 
23 1 3.36781 1.61947 14.7484 
24 1 3.33844 0.387487 12.5962 
17 1 7.02209 2.88028 24.2842 
19 1 6.99531 1.61947 22.1338 
20 1 7.02218 0.386127 24.2845 
22 1 6.95749 1.58213 19.4698 
25 1 5.71369 1.58283 18.749 
27 1 6.97381 1.6024 20.9052 
28 1 1.10227 1.58186 18.7483 
30 1 7.02143 1.63202 23.5679 
10 1 6.97517 5.22887 5.11092 
13 1 7.02024 3.93747 0.32015 
15 1 7.01465 5.20034 2.47516 
16 1 7.02045 6.42333 0.316857 
26 1 7.0179 5.18264 1.04616 
29 1 5.74888 5.24329 5.78604 
31 1 7.01185 5.21221 3.71128 
32 1 1.06414 5.12101 6.10128 
1 1 4.68134 5.25648 6.40872 
3 1 3.45089 5.22949 8.59151 
4 1 2.23771 5.23192 6.42121 
6 1 3.34067 5.1816 11.2619 
9 1 3.33982 3.94245 11.9816 
11 1 3.40138 5.19914 9.81262 
12 1 3.33938 6.41916 11.9828 
14 1 3.44215 5.26886 7.11832 
33 2 1.58197 4.7727 7.86087 
34 3 0.681979 4.70643 7.4652 
ITEM: TIMESTEP
60
ITEM: NUMBER OF ATOMS
34
ITEM: BOX BOUNDS pp pp pp
0.0000000000000000e+00 7.0970000000000004e+00
0.0000000000000000e+00 7.0970000000000004e+00
0.0000000000000000e+00 2.4588000000000001e+01
ITEM: ATOMS id type x y z 
2 1 3.33887 1.63289 13.3073 
5 1 4.65438 1.58236 18.1281 
7 1 3.39115 1.60275 15.9763 
8 1 2.16502 1.5828 18.1323 
18 1 3.40793 1.58315 17.4148 
21 1 3.33936 2.87865 12.5932 
23 1 3.36743 1.61973 14.7485 
24 1 3.34034 0.385497 12.596 
17 1 7.01972 2.87586 24.2935 
19 1 6.99641 1.62004 22.1328 
20 1 7.01841 0.390486 24.2908 
22 1 6.95778 1.58254 19.4677 
25 1 5.71109 1.58211 18.7547 
27 1 6.97279 1.60299 20.9043 
28 1 1.10279 1.58381 18.7499 
30 1 7.02293 1.63289 23.5673 
10 1 6.97813 5.23192 5.10782 
13 1 7.0187 3.93835 0.319753 
15 1 7.03058 5.19331 2.47696 
16 1 7.01751 6.42552 0.318585 
26 1 7.02149 5.18325 1.05705 
29 1 5.75233 5.24975 5.76969 
31 1 7.03704 5.21967 3.71308 
32 1 1.06347 5.10426 6.10599 
1 1 4.68288 5.26171 6.39017 
3 1 3.45761 5.23561 8.5856 
4 1 2.23025 5.2162 6.45145 
6 1 3.3463 5.18208 11.2576 
9 1 3.34185 3.94135 11.9759 
11 1 3.41499 5.20445 9.80884 
12 1 3.34145 6.42042 11.9769 
14 1 3.45003 5.27653 7.1111 
33 2 1.54622 4.75634 7.88128 
34 3 0.642799 4.71174 7.46062 
ITEM: TIMESTEP
70
ITEM: NUMBER OF ATOMS
34
ITEM: BOX BOUNDS pp pp pp
0.0000000000000000e+00 7.0970000000000004e+00
0.0000000000000000e+00 7.0970000000000004e+00
0.0000000000000000e+00 2.4588000000000001e+01
ITEM: ATOMS id type x y z 
2 1 3.33757 1.63181 13.3101 
5 1 4.65201 1.58245 18.1309 
7 1 3.39134 1.60333 15.9748 
8 1 2.16637 1.58298 18.1333 
18 1 3.408 1.58344 17.4113 
21 1 3.34063 2.87858 12.5923 
23 1 3.36676 1.61977 14.7466 
24 1 3.34047 0.387135 12.5938 
17 1 7.02063 2.87749 24.2915 
19 1 6.99477 1.62016 22.1342 
20 1 7.01987 0.389471 24.2909 
22 1 6.95728 1.58318 19.4703 
25 1 5.71237 1.58244 18.7512 
27 1 6.97393 1.60331 20.9055 
28 1 1.10281 1.58294 18.7483 
30 1 7.01951 1.63296 23.5696 
10 1 6.98629 5.23495 5.10898 
13 1 7.02056 3.93716 0.323445 
15 1 7.03209 5.19828 2.47527 
16 1 7.0202 6.42558 0.321171 
26 1 7.01949 5.18272 1.04925 
29 1 5.74987 5.25113 5.76729 
31 1 7.04135 5.21414 3.71187 
32 1 1.06163 5.101 6.10813 
1 1 4.68166 5.26327 6.38794 
3 1 3.46394 5.23781 8.58607 
4 1 2.22799 5.2134 6.45342 
6 1 3.34796 5.18292 11.2565 
9 1 3.34369 3.94103 11.9748 
11 1 3.41274 5.2038 9.80834 
12 1 3.34351 6.42028 11.9777 
14 1 3.45032 5.27693 7.11519 
33 2 1.53556 4.75381 7.88049 
34 3 0.636839 4.71135 7.46553 
ITEM: TIMESTEP
80
ITEM: NUMBER OF ATOMS
34
ITEM: BOX BOUNDS pp pp pp
0.0000000000000000e+00 7.0970000000000004e+00
0.0000000000000000e+00 7.0970000000000004e+00
0.0000000000000000e+00 2.4588000000000001e+01
ITEM: ATOMS id type x y z 
2 1 3.33724 1.63279 13.3078 
5 1 4.65181 1.58327 18.1318 
7 1 3.39121 1.60308 15.9743 
8 1 2.16567 1.58325 18.1328 
18 1 3.40782 1.58331 17.4117 
21 1 3.34103 2.87806 12.5911 
23 1 3.36658 1.62009 14.7464 
24 1 3.34113 0.38777 12.5921 
17 1 7.01876 2.87687 24.2908 
19 1 6.99503 1.62054 22.135 
20 1 7.0194 0.390846 24.291 
22 1 6.95782 1.58306 19.4687 
25 1 5.71327 1.58316 18.7503 
27 1 6.97341 1.60314 20.9067 
28 1 1.10272 1.58315 18.7492 
30 1 7.02026 1.63267 23.5695 
10 1 6.98604 5.23483 5.10854 
13 1 7.01971 3.93536 0.324176 
15 1 7.03346 5.19703 2.47514 
16 1 7.0193 6.42686 0.321022 
26 1 7.02469 5.1837 1.05139 
29 1 5.75134 5.25337 5.76269 
31 1 7.04807 5.21641 3.71118 
32 1 1.06028 5.09577 6.11298 
1 1 4.68268 5.26589 6.38363 
3 1 3.46641 5.23832 8.58623 
4 1 2.22554 5.20962 6.46031 
6 1 3.34982 5.18214 11.2557 
9 1 3.34486 3.94088 11.9736 
11 1 3.41715 5.20653 9.80848 
12 1 3.34466 6.42009 11.9776 
14 1 3.45066 5.27695 7.11484 
33 2 1.52489 4.75026 7.88268 
34 3 0.627299 4.71196 7.46672 
ITEM: TIMESTEP
90
ITEM: NUMBER OF ATOMS
34
ITEM: BOX BOUNDS pp pp pp
0.0000000000000000e+00 7.0970000000000004e+00
0.0000000000000000e+00 7.0970000000000004e+00
0.0000000000000000e+00 2.4588000000000001e+01
ITEM: ATOMS id type x y z 
2 1 3.33693 1.63228 13.3083 
5 1 4.65128 1.58322 18.1318 
7 1 3.39114 1.60357 15.9738 
8 1 2.16554 1.58397 18.1315 
18 1 3.40777 1.58323 17.4114 
21 1 3.34156 2.87795 12.5899 
23 1 3.36635 1.62006 14.7459 
24 1 3.34142 0.388432 12.591 
17 1 7.02035 2.87786 24.2916 
19 1 6.99344 1.62054 22.1339 
20 1 7.0202 0.390133 24.2919 
22 1 6.95741 1.58332 19.4696 
25 1 5.71315 1.58292 18.7496 
27 1 6.97392 1.60316 20.9054 
28 1 1.10413 1.58378 18.7503 
30 1 7.01677 1.63323 23.5698 
10 1 6.98964 5.23611 5.10832 
13 1 7.02094 3.93638 0.325474 
15 1 7.04227 5.19914 2.47526 
16 1 7.02257 6.42597 0.321452 
26 1 7.0205 5.18265 1.05006 
29 1 5.74967 5.25527 5.76038 
31 1 7.04927 5.21521 3.71177 
32 1 1.05871 5.0925 6.11382 
1 1 4.68111 5.26655 6.38125 
3 1 3.47007 5.24003 8.58553 
4 1 2.22325 5.20627 6.46506 
6 1 3.35236 5.18309 11.2555 
9 1 3.34632 3.94088 11.9725 
11 1 3.41826 5.2068 9.80686 
12 1 3.34589 6.42007 11.9772 
14 1 3.45234 5.27755 7.11472 
33 2 1.51631 4.74691 7.88678 
34 3 0.619161 4.71199 7.46856 
ITEM: TIMESTEP
100
ITEM: NUMBER OF ATOMS
34
ITEM: BOX BOUNDS pp pp pp
0.0000000000000000e+00 7.0970000000000004e+00
0.0000000000000000e+00 7.0970000000000004e+00
0.0000000000000000e+00 2.4588000000000001e+01
ITEM: ATOMS id type x y z 
2 1 3.33687 1.63261 13.3076 
5 1 4.65148 1.58352 18.1316 
7 1 3.39108 1.6036 15.9735 
8 1 2.16609 1.58359 18.1325 
18 1 3.40756 1.58368 17.4109 
21 1 3.34194 2.87793 12.5893 
23 1 3.36623 1.62014 14.7456 
24 1 3.34153 0.388643 12.5903 
17 1 7.01936 2.87737 24.292 
19 1 6.99377 1.6205 22.1344 
20 1 7.01953 0.390553 24.2917 
22 1 6.95787 1.5835 19.4696 
25 1 5.71317 1.58346 18.7495 
27 1 6.97334 1.60352 20.9058 
28 1 1.10335 1.5835 18.7492 
30 1 7.01699 1.63314 23.5695 
10 1 6.98975 5.23654 5.10829 
13 1 7.02165 3.93611 0.325136 
15 1 7.04018 5.19845 2.47581 
16 1 7.02182 6.42655 0.321544 
26 1 7.02469 5.18312 1.05049 
29 1 5.74939 5.25613 5.75867 
31 1 7.05452 5.21622 3.71156 
32 1 1.05743 5.08992 6.11565 
1 1 4.68135 5.26753 6.37897 
3 1 3.47151 5.24053 8.58506 
4 1 2.22191 5.20401 6.46919 
6 1 3.3537 5.183 11.2549 
9 1 3.34718 3.94073 11.9719 
11 1 3.42041 5.20778 9.80702 
12 1 3.34671 6.42023 11.9768 
14 1 3.45231 5.27763 7.11452 
33 2 1.51107 4.74505 7.88849 
34 3 0.614257 4.71219 7.46904 
ITEM: TIMESTEP
110
ITEM: NUMBER OF ATOMS
34
ITEM: BOX BOUNDS pp pp pp
0.0000000000000000e+00 7.0970000000000004e+00
0.0000000000000000e+00 7.0970000000000004e+00
0.0000000000000000e+00 2.4588000000000001e+01
ITEM: ATOMS id type x y z 
2 1 3.33655 1.63289 13.3068 
5 1 4.65161 1.58393 18.1313 
7 1 3.39081 1.60373 15.9729 
8 1 2.16668 1.58357 18.1332 
18 1 3.40758 1.58409 17.4107 
21 1 3.34286 2.878 12.5883 
23 1 3.36621 1.6203 14.745 
24 1 3.34215 0.388905 12.5894 
17 1 7.01948 2.8769 24.2928 
19 1 6.99264 1.62073 22.1344 
20 1 7.01941 0.390739 24.2919 
22 1 6.95794 1.58384 19.4695 
25 1 5.7132 1.58386 18.7494 
27 1 6.97346 1.60371 20.9058 
28 1 1.10279 1.58352 18.7479 
30 1 7.01566 1.63314 23.5694 
10 1 6.99127 5.23745 5.10818 
13 1 7.02265 3.93621 0.324961 
15 1 7.04424 5.19842 2.47574 
16 1 7.02261 6.42716 0.32249 
26 1 7.02635 5.18336 1.05064 
29 1 5.74898 5.25777 5.75555 
31 1 7.05859 5.21699 3.71178 
32 1 1.05596 5.08582 6.11839 
1 1 4.68062 5.26888 6.37568 
3 1 3.47437 5.24162 8.58442 
4 1 2.21917 5.20038 6.47493 
6 1 3.3567 5.18321 11.2542 
9 1 3.34864 3.94065 11.9707 
11 1 3.42336 5.209 9.80648 
12 1 3.34735 6.4205 11.976 
14 1 3.45258 5.27777 7.11433 
33 2 1.50172 4.74165 7.89229 
34 3 0.605797 4.71232 7.47046 
ITEM: TIMESTEP
120
ITEM: NUMBER OF ATOMS
34
ITEM: BOX BOUNDS pp pp pp
0.0000000000000000e+00 7.0970000000000004e+00
0.0000000000000000e+00 7.0970000000000004e+00
0.0000000000000000e+00 2.4588000000000001e+01
ITEM: ATOMS id type x y z 
2 1 3.33619 1.6333 13.306 
5 1 4.65152 1.584 18.131 
7 1 3.39041 1.60398 15.9724 
8 1 2.16604 1.58423 18.1315 
18 1 3.40776 1.58442 17.4102 
21 1 3.34359 2.87802 12.5869 
23 1 3.36621 1.62055 14.7445 
24 1 3.34318 0.389008 12.5892 
17 1 7.01934 2.87688 24.2929 
19 1 6.9911 1.62121 22.1341 
20 1 7.01976 0.390944 24.2924 
22 1 6.95757 1.58443 19.4686 
25 1 5.71327 1.58394 18.749 
27 1 6.97357 1.60353 20.9056 
28 1 1.10397 1.58394 18.7494 
30 1 7.01386 1.63321 23.5697 
10 1 6.99251 5.2383 5.10807 
13 1 7.02392 3.93608 0.325396 
15 1 7.04717 5.19924 2.47572 
16 1 7.02436 6.42726 0.323055 
26 1 7.02917 5.18369 1.05082 
29 1 5.74825 5.25961 5.75217 
31 1 7.06402 5.2175 3.71247 
32 1 1.05354 5.08116 6.12128 
1 1 4.6792 5.27025 6.37221 
3 1 3.47771 5.24281 8.58357 
4 1 2.21592 5.19618 6.4817 
6 1 3.36043 5.18365 11.2534 
9 1 3.34975 3.94074 11.9694 
11 1 3.42641 5.21002 9.80562 
12 1 3.34965 6.42103 11.975 
14 1 3.45283 5.27765 7.1139 
33 2 1.4915 4.73802 7.89652 
34 3 0.596329 4.71221 7.47214 
ITEM: TIMESTEP
130
ITEM: NUMBER OF ATOMS
34
ITEM: BOX BOUNDS pp pp pp
0.0000000000000000e+00 7.0970000000000004e+00
0.0000000000000000e+00 7.0970000000000004e+00
0.0000000000000000e+00 2.4588000000000001e+01
ITEM: ATOMS id type x y z 
2 1 3.33726 1.63367 13.3043 
5 1 4.65142 1.58495 18.1299 
7 1 3.39036 1.60482 15.9707 
8 1 2.16563 1.58517 18.13 
18 1 3.40722 1.58477 17.4085 
21 1 3.34467 2.87879 12.5848 
23 1 3.36535 1.62177 14.7427 
24 1 3.34359 0.388338 12.5904 
17 1 7.01918 2.8774 24.2932 
19 1 6.98888 1.62122 22.1337 
20 1 7.01975 0.392347 24.2941 
22 1 6.95828 1.58392 19.4688 
25 1 5.713 1.58496 18.7478 
27 1 6.97263 1.60632 20.905 
28 1 1.10529 1.58438 18.7509 
30 1 7.0099 1.63269 23.5695 
10 1 6.99467 5.24013 5.10886 
13 1 7.02671 3.93578 0.326655 
15 1 7.05817 5.20005 2.47675 
16 1 7.02766 6.42736 0.32248 
26 1 7.03542 5.18401 1.05196 
29 1 5.7458 5.26347 5.74484 
31 1 7.07349 5.21953 3.71246 
32 1 1.04794 5.07051 6.1281 
1 1 4.677 5.27333 6.36353 
3 1 3.48412 5.24484 8.58181 
4 1 2.20805 5.18659 6.49687 
6 1 3.36903 5.18461 11.2516 
9 1 3.35417 3.94035 11.9655 
11 1 3.43504 5.21275 9.80402 
12 1 3.35455 6.42344 11.9709 
14 1 3.45248 5.2771 7.11305 
33 2 1.46831 4.72997 7.90608 
34 3 0.574964 4.71163 7.4762 
ITEM: TIMESTEP
140
ITEM: NUMBER OF ATOMS
34
ITEM: BOX BOUNDS pp pp pp
0.0000000000000000e+00 7.0970000000000004e+00
0.0000000000000000e+00 7.0970000000000004e+00
0.0000000000000000e+00 2.4588000000000001e+01
ITEM: ATOMS id type x y z 
2 1 3.3341 1.63409 13.3046 
5 1 4.65179 1.58509 18.1296 
7 1 3.39048 1.60539 15.9705 
8 1 2.16678 1.5847 18.1317 
18 1 3.40745 1.58518 17.4083 
21 1 3.34641 2.87881 12.5838 
23 1 3.36476 1.62191 14.7425 
24 1 3.34692 0.389185 12.5887 
17 1 7.01906 2.87712 24.2936 
19 1 6.98916 1.62194 22.134 
20 1 7.01876 0.391065 24.2926 
22 1 6.95783 1.58494 19.4686 
25 1 5.71334 1.58502 18.7476 
27 1 6.97148 1.60467 20.9055 
28 1 1.10401 1.58545 18.7484 
30 1 7.00963 1.63439 23.57 
10 1 6.99477 5.24089 5.10868 
13 1 7.02782 3.93615 0.326505 
15 1 7.0597 5.20106 2.47693 
16 1 7.02775 6.42826 0.324324 
26 1 7.03917 5.18347 1.05132 
29 1 5.74469 5.26427 5.74347 
31 1 7.07604 5.21903 3.71315 
32 1 1.0461 5.06801 6.12977 
1 1 4.67535 5.27368 6.36197 
3 1 3.48628 5.24541 8.58103 
4 1 2.20575 5.18442 6.50008 
6 1 3.369 5.18553 11.2499 
9 1 3.35704 3.94069 11.9653 
11 1 3.43612 5.21245 9.80336 
12 1 3.35714 6.42275 11.9719 
14 1 3.45209 5.27658 7.11288 
33 2 1.46294 4.72837 7.90817 
34 3 0.570279 4.71105 7.47731 
ITEM: TIMESTEP
150
ITEM: NUMBER OF ATOMS
34
ITEM: BOX BOUNDS pp pp pp
0.0000000000000000e+00 7.0970000000000004e+00
0.0000000000000000e+00 7.0970000000000004e+00
0.0000000000000000e+00 2.4588000000000001e+01
ITEM: ATOMS id type x y z 
2 1 3.33525 1.63413 13.3042 
5 1 4.65176 1.58514 18.1293 
7 1 3.39019 1.60526 15.9705 
8 1 2.16658 1.5851 18.1315 
18 1 3.40781 1.58548 17.4085 
21 1 3.34662 2.87877 12.5832 
23 1 3.36489 1.62215 14.7425 
24 1 3.34628 0.389729 12.588 
17 1 7.01931 2.87736 24.2937 
19 1 6.98844 1.62172 22.1339 
20 1 7.01971 0.391354 24.2926 
22 1 6.95792 1.58514 19.4686 
25 1 5.7133 1.58502 18.7475 
27 1 6.97159 1.60526 20.9054 
28 1 1.10395 1.58509 18.7484 
30 1 7.00828 1.63372 23.5699 
10 1 6.9946 5.24094 5.10898 
13 1 7.02861 3.93625 0.326607 
15 1 7.06036 5.20077 2.477 
16 1 7.02896 6.42837 0.324183 
26 1 7.03938 5.18394 1.05195 
29 1 5.74429 5.26458 5.74276 
31 1 7.07706 5.21947 3.71299 
32 1 1.04526 5.06697 6.13045 
1 1 4.67502 5.27386 6.36108 
3 1 3.48677 5.24529 8.58071 
4 1 2.2047 5.18346 6.50139 
6 1 3.37143 5.18522 11.2501 
9 1 3.35693 3.94105 11.9652 
11 1 3.43706 5.21283 9.80301 
12 1 3.35716 6.42278 11.9721 
14 1 3.45168 5.27639 7.11273 
33 2 1.46067 4.72767 7.90915 
34 3 0.568168 4.71074 7.47779 
ITEM: TIMESTEP
160
ITEM: NUMBER OF ATOMS
34
ITEM: BOX BOUNDS pp pp pp
0.0000000000000000e+00 7.0970000000000004e+00
0.0000000000000000e+00 7.0970000000000004e+00
0.0000000000000000e+00 2.4588000000000001e+01
ITEM: ATOMS id type x y z 
2 1 3.33474 1.63444 13.3038 
5 1 4.65193 1.58528 18.1292 
7 1 3.39012 1.60548 15.9703 
8 1 2.1666 1.58531 18.1314 
18 1 3.40772 1.58554 17.4084 
21 1 3.34724 2.87886 12.5829 
23 1 3.36471 1.62227 14.7424 
24 1 3.34722 0.390036 12.5875 
17 1 7.01927 2.87747 24.2939 
19 1 6.98824 1.62184 22.1339 
20 1 7.01946 0.391555 24.293 
22 1 6.95789 1.58532 19.4685 
25 1 5.71342 1.58524 18.7474 
27 1 6.97126 1.60517 20.9054 
28 1 1.10384 1.58528 18.748 
30 1 7.00802 1.63388 23.5699 
10 1 6.99459 5.24111 5.10895 
13 1 7.0292 3.93636 0.326727 
15 1 7.0619 5.20105 2.47729 
16 1 7.02931 6.42796 0.323534 
26 1 7.04109 5.18424 1.05213 
29 1 5.7436 5.26495 5.74194 
31 1 7.07794 5.21959 3.71335 
32 1 1.04413 5.0656 6.1314 
1 1 4.67425 5.27408 6.36009 
3 1 3.48743 5.24532 8.58049 
4 1 2.20339 5.18223 6.50312 
6 1 3.3724 5.18555 11.2499 
9 1 3.3582 3.94108 11.9649 
11 1 3.43826 5.21305 9.80281 
12 1 3.3581 6.42266 11.9723 
14 1 3.45128 5.27605 7.11244 
33 2 1.45777 4.72681 7.91034 
34 3 0.565494 4.71034 7.47839 
ITEM: TIMESTEP
170
ITEM: NUMBER OF ATOMS
34
ITEM: BOX BOUNDS pp pp pp
0.0000000000000000e+00 7.0970000000000004e+00
0.0000000000000000e+00 7.0970000000000004e+00
0.0000000000000000e+00 2.4588000000000001e+01
ITEM: ATOMS id type x y z 
2 1 3.33468 1.63457 13.3037 
5 1 4.65196 1.58536 18.129 
7 1 3.38999 1.60559 15.9702 
8 1 2.16653 1.58543 18.1312 
18 1 3.40775 1.58563 17.4083 
21 1 3.3476 2.87891 12.5826 
23 1 3.36471 1.62236 14.7423 
24 1 3.34759 0.390229 12.5873 
17 1 7.0193 2.87751 24.2939 
19 1 6.98794 1.62188 22.1339 
20 1 7.01954 0.391607 24.2929 
22 1 6.95786 1.58543 19.4684 
25 1 5.71345 1.58536 18.7473 
27 1 6.97117 1.60519 20.9054 
28 1 1.10386 1.5854 18.748 
30 1 7.00763 1.63392 23.5699 
10 1 6.99451 5.24122 5.10907 
13 1 7.02967 3.93642 0.326789 
15 1 7.06269 5.20116 2.47737 
16 1 7.02979 6.42813 0.323719 
26 1 7.04202 5.18422 1.05206 
29 1 5.74315 5.26519 5.74141 
31 1 7.07863 5.21972 3.71343 
32 1 1.04342 5.06472 6.13202 
1 1 4.67373 5.2742 6.35943 
3 1 3.48788 5.24536 8.58033 
4 1 2.20252 5.18143 6.50421 
6 1 3.37341 5.18565 11.2498 
9 1 3.35881 3.94118 11.9647 
11 1 3.43896 5.21316 9.80266 
12 1 3.35863 6.42274 11.9723 
14 1 3.45098 5.27583 7.11233 
33 2 1.45588 4.72626 7.91114 
34 3 0.563765 4.71005 7.47879 
ITEM: TIMESTEP
180
ITEM: NUMBER OF ATOMS
34
ITEM: BOX BOUNDS pp pp pp
0.0000000000000000e+00 7.0970000000000004e+00
0.0000000000000000e+00 7.0970000000000004e+00
0.0000000000000000e+00 2.4588000000000001e+01
ITEM: ATOMS id type x y z 
2 1 3.33889 1.6406 13.296 
5 1 4.65418 1.59046 18.1226 
7 1 3.38536 1.61059 15.9642 
8 1 2.16616 1.59115 18.1267 
18 1 3.40752 1.59048 17.4036 
21 1 3.36424 2.88336 12.5728 
23 1 3.36426 1.6276 14.7363 
24 1 3.35585 0.398929 12.5751 
17 1 7.02216 2.88039 24.2953 
19 1 6.97552 1.62356 22.1335 
20 1 7.0227 0.394252 24.2945 
22 1 6.95895 1.5905 19.4675 
25 1 5.71375 1.59059 18.7439 
27 1 6.96513 1.60795 20.9048 
28 1 1.10026 1.59118 18.7381 
30 1 6.98836 1.63615 23.571 
10 1 6.98941 5.24589 5.11296 
13 1 7.05193 3.93751 0.330568 
15 1 7.10275 5.20561 2.48178 
16 1 7.05331 6.43379 0.330151 
26 1 7.08912 5.18755 1.05407 
29 1 5.72005 5.276 5.71563 
31 1 7.11009 5.22577 3.71766 
32 1 1.00844 5.02208 6.16259 
1 1 4.64788 5.27931 6.3278 
3 1 3.50845 5.24641 8.57225 
4 1 2.15845 5.14296 6.55599 
6 1 3.42492 5.19157 11.2434 
9 1 3.38993 3.94532 11.9546 
11 1 3.47443 5.21851 9.79527 
12 1 3.3886 6.42605 11.9703 
14 1 3.43493 5.26395 7.10707 
33 2 1.36376 4.69948 7.95003 
34 3 0.480265 4.69549 7.49785 
ITEM: TIMESTEP
190
ITEM: NUMBER OF ATOMS
34
ITEM: BOX BOUNDS pp pp pp
0.0000000000000000e+00 7.0970000000000004e+00
0.0000000000000000e+00 7.0970000000000004e+00
0.0000000000000000e+00 2.4588000000000001e+01
ITEM: ATOMS id type x y z 
2 1 3.33618 1.64084 13.2962 
5 1 4.65378 1.5905 18.1223 
7 1 3.38661 1.61098 15.9641 
8 1 2.16526 1.59093 18.1255 
18 1 3.40757 1.59121 17.4032 
21 1 3.36617 2.88378 12.5735 
23 1 3.36339 1.62771 14.7362 
24 1 3.36161 0.398161 12.5767 
17 1 7.02291 2.88076 24.296 
19 1 6.97567 1.62396 22.1335 
20 1 7.02325 0.394086 24.2948 
22 1 6.95751 1.59087 19.4659 
25 1 5.71327 1.59046 18.7442 
27 1 6.96513 1.60873 20.905 
28 1 1.10178 1.59078 18.741 
30 1 6.98837 1.63634 23.5711 
10 1 6.98765 5.24533 5.11277 
13 1 7.05312 3.93844 0.330137 
15 1 7.1038 5.20522 2.48256 
16 1 7.05348 6.43307 0.329357 
26 1 7.08962 5.18774 1.05571 
29 1 5.71922 5.2754 5.71572 
31 1 7.10824 5.22542 3.71871 
32 1 1.00815 5.02244 6.16039 
1 1 4.64713 5.27837 6.32805 
3 1 3.50662 5.24576 8.57203 
4 1 2.16121 5.14476 6.55345 
6 1 3.42409 5.1915 11.243 
9 1 3.39209 3.94527 11.9544 
11 1 3.47587 5.21867 9.79492 
12 1 3.38695 6.42729 11.968 
14 1 3.43376 5.26359 7.10561 
33 2 1.35907 4.69841 7.95273 
34 3 0.481444 4.6942 7.49924 
ITEM: TIMESTEP
200
ITEM: NUMBER OF ATOMS
34
ITEM: BOX BOUNDS pp pp pp
0.0000000000000000e+00 7.0970000000000004e+00
0.0000000000000000e+00 7.0970000000000004e+00
0.0000000000000000e+00 2.4588000000000001e+01
ITEM: ATOMS id type x y z 
2 1 3.33609 1.64093 13.2963 
5 1 4.65211 1.5912 18.1235 
7 1 3.38742 1.61145 15.9637 
8 1 2.16442 1.59122 18.1253 
18 1 3.40694 1.59143 17.4024 
21 1 3.36684 2.88403 12.5731 
23 1 3.36364 1.62834 14.7358 
24 1 3.36579 0.397149 12.5789 
17 1 7.02433 2.88133 24.2966 
19 1 6.97564 1.62452 22.1337 
20 1 7.02434 0.395187 24.2964 
22 1 6.95671 1.59098 19.4667 
25 1 5.71346 1.59102 18.7421 
27 1 6.96465 1.60913 20.9051 
28 1 1.10286 1.59107 18.7439 
30 1 6.98894 1.63698 23.5714 
10 1 6.98589 5.24463 5.11348 
13 1 7.05503 3.93942 0.329984 
15 1 7.10416 5.2043 2.48344 
16 1 7.05513 6.43193 0.327042 
26 1 7.09137 5.18812 1.05633 
29 1 5.71746 5.2736 5.71589 
31 1 7.1059 5.22458 3.71952 
32 1 1.00706 5.02248 6.15969 
1 1 4.64527 5.27671 6.32801 
3 1 3.50453 5.24486 8.5713 
4 1 2.15944 5.1447 6.55422 
6 1 3.42428 5.19192 11.2424 
9 1 3.39333 3.94624 11.9555 
11 1 3.477 5.21853 9.79426 
12 1 3.39172 6.42905 11.9653 
14 1 3.43205 5.26379 7.1048 
33 2 1.35571 4.69853 7.95179 
34 3 0.480508 4.69167 7.49799 
ITEM: TIMESTEP
210
ITEM: NUMBER OF ATOMS
34
ITEM: BOX BOUNDS pp pp pp
0.0000000000000000e+00 7.0970000000000004e+00
0.0000000000000000e+00 7.0970000000000004e+00
0.0000000000000000e+00 2.4588000000000001e+01
ITEM: ATOMS id type x y z 
2 1 3.33823 1.64153 13.2965 
5 1 4.65193 1.59157 18.1229 
7 1 3.38746 1.61256 15.9636 
8 1 2.16464 1.59148 18.1274 
18 1 3.40632 1.59257 17.4031 
21 1 3.36934 2.88438 12.5727 
23 1 3.36434 1.62919 14.7362 
24 1 3.37006 0.397667 12.5794 
17 1 7.02615 2.88184 24.2968 
19 1 6.97569 1.62552 22.1341 
20 1 7.02635 0.395154 24.296 
22 1 6.95571 1.59186 19.4672 
25 1 5.71257 1.59164 18.7423 
27 1 6.96334 1.60968 20.9057 
28 1 1.10221 1.59158 18.7447 
30 1 6.99061 1.63758 23.5718 
10 1 6.98282 5.24314 5.11303 
13 1 7.05738 3.94015 0.330145 
15 1 7.10376 5.20362 2.48308 
16 1 7.0577 6.43291 0.327693 
26 1 7.09513 5.18876 1.0563 
29 1 5.71466 5.27119 5.71591 
31 1 7.10364 5.22334 3.71898 
32 1 1.00414 5.0217 6.15933 
1 1 4.642 5.27476 6.32797 
3 1 3.50319 5.24426 8.57134 
4 1 2.15597 5.14414 6.55391 
6 1 3.42763 5.19281 11.2424 
9 1 3.39589 3.947 11.9555 
11 1 3.47676 5.21764 9.79388 
12 1 3.39647 6.43037 11.9642 
14 1 3.42908 5.26342 7.10482 
33 2 1.35218 4.69858 7.95117 
34 3 0.476639 4.68744 7.4961 
ITEM: TIMESTEP
220
ITEM: NUMBER OF ATOMS
34
ITEM: BOX BOUNDS pp pp pp
0.0000000000000000e+00 7.0970000000000004e+00
0.0000000000000000e+00 7.0970000000000004e+00
0.0000000000000000e+00 2.4588000000000001e+01
ITEM: ATOMS id type x y z 
2 1 3.33939 1.64167 13.2964 
5 1 4.65174 1.59182 18.1229 
7 1 3.38714 1.61257 15.964 
8 1 2.16434 1.59193 18.1275 
18 1 3.40588 1.59269 17.403 
21 1 3.3703 2.88486 12.573 
23 1 3.36506 1.62958 14.7361 
24 1 3.37026 0.397803 12.5791 
17 1 7.02689 2.88198 24.2967 
19 1 6.97555 1.62571 22.1342 
20 1 7.02689 0.395545 24.2959 
22 1 6.95575 1.59193 19.467 
25 1 5.71255 1.59191 18.7424 
27 1 6.96313 1.60987 20.9057 
28 1 1.10228 1.59167 18.7454 
30 1 6.99093 1.63787 23.5719 
10 1 6.98181 5.2426 5.11303 
13 1 7.05824 3.94018 0.330105 
15 1 7.10387 5.2037 2.48307 
16 1 7.05857 6.43295 0.327539 
26 1 7.09571 5.18868 1.05616 
29 1 5.71359 5.27065 5.71588 
31 1 7.10294 5.22298 3.71922 
32 1 1.0032 5.02137 6.15899 
1 1 4.64125 5.27434 6.32786 
3 1 3.50255 5.24405 8.57108 
4 1 2.15553 5.14409 6.55376 
6 1 3.42918 5.19291 11.2422 
9 1 3.39685 3.94715 11.9555 
11 1 3.47689 5.21749 9.79412 
12 1 3.39688 6.43055 11.9641 
14 1 3.42825 5.26318 7.10486 
33 2 1.35084 4.69839 7.95132 
34 3 0.475777 4.68633 7.49589 
ITEM: TIMESTEP
230
ITEM: NUMBER OF ATOMS
34
ITEM: BOX BOUNDS pp pp pp
0.0000000000000000e+00 7.0970000000000004e+00
0.0000000000000000e+00 7.0970000000000004e+00
0.0000000000000000e+00 2.4588000000000001e+01
ITEM: ATOMS id type x y z 
2 1 3.36358 1.64749 13.2973 
5 1 4.64643 1.59843 18.1236 
7 1 3.38666 1.61774 15.9646 
8 1 2.15999 1.59795 18.1316 
18 1 3.39904 1.60044 17.4034 
21 1 3.39811 2.89421 12.5804 
23 1 3.37459 1.63774 14.7363 
24 1 3.39404 0.40352 12.5766 
17 1 7.04501 2.88683 24.297 
19 1 6.97739 1.63237 22.136 
20 1 7.04306 0.400646 24.2973 
22 1 6.95068 1.59716 19.4698 
25 1 5.70694 1.59735 18.7433 
27 1 6.95546 1.6162 20.9074 
28 1 1.10143 1.59651 18.7555 
30 1 7.00416 1.64331 23.5734 
10 1 6.95399 5.22627 5.11126 
13 1 7.08258 3.94476 0.330715 
15 1 7.10503 5.20296 2.48228 
16 1 7.07688 6.43465 0.322963 
26 1 7.12163 5.1924 1.05504 
29 1 5.68501 5.25477 5.71303 
31 1 7.08416 5.21482 3.71837 
32 1 0.97793 5.01047 6.15565 
1 1 4.61371 5.26174 6.32595 
3 1 3.48549 5.23796 8.56937 
4 1 2.12889 5.13624 6.55435 
6 1 3.45856 5.1969 11.2406 
9 1 3.4279 3.95346 11.9579 
11 1 3.47982 5.21391 9.79316 
12 1 3.42544 6.4362 11.9626 
14 1 3.4015 5.25738 7.10455 
33 2 1.31706 4.69435 7.94928 
34 3 0.447849 4.65384 7.4854 
ITEM: TIMESTEP
240
ITEM: NUMBER OF ATOMS
34
ITEM: BOX BOUNDS pp pp pp
0.0000000000000000e+00 7.0970000000000004e+00
0.0000000000000000e+00 7.0970000000000004e+00
0.0000000000000000e+00 2.4588000000000001e+01
ITEM: ATOMS id type x y z 
2 1 3.3645 1.64757 13.2969 
5 1 4.64629 1.59859 18.1235 
7 1 3.38618 1.61967 15.9652 
8 1 2.16078 1.59825 18.1333 
18 1 3.40033 1.59972 17.4043 