LAMMPS (3 Mar 2020)
# Alpha
clear
units		real
dimension 3
boundary        p p p
atom_style	charge
newton on
read_data       H_29.lmp
  triclinic box = (0 0 0) to (15.77 13.6581 25.747) with tilt (7.8845 0 0)
  2 by 2 by 2 MPI processor grid
  reading atoms ...
  129 atoms
  read_data CPU = 0.208998 secs

timestep 0.25

# ---------- Define Interatomic Potential ---------------------
pair_style      reax/c NULL checkqeq no
pair_coeff      * * ffield.reax C H
fix             2 all qeq/reax 1 0.0 10.0 1.0e-6 reax/c

#------------ Equilibration of the system -------------------------
reset_timestep 0

dump 1 all custom 10 min.lammpstrj id type x y z

minimize 1.0e-8 1.0e-8 100000 100000
WARNING: Using 'neigh_modify every 1 delay 0 check yes' setting during minimization (../min.cpp:190)
WARNING: Total cutoff < 2*bond cutoff. May need to use an increased neighbor list skin. (../pair_reaxc.cpp:413)
Neighbor list info ...
  update every 1 steps, delay 0 steps, check yes
  max neighbors/atom: 2000, page size: 100000
  master list distance cutoff = 9.5
  ghost atom cutoff = 9.5
  binsize = 4.75, bins = 5 3 6
  2 neighbor lists, perpetual/occasional/extra = 2 0 0
  (1) pair reax/c, perpetual
      attributes: half, newton off, ghost
      pair build: half/bin/newtoff/ghost
      stencil: half/ghost/bin/3d/newtoff
      bin: standard
  (2) fix qeq/reax, perpetual, copy from (1)
      attributes: half, newton off, ghost
      pair build: copy
      stencil: none
      bin: none
Per MPI rank memory allocation (min/avg/max) = 16.24 | 16.8 | 17.41 Mbytes
Step Temp E_pair E_mol TotEng Press 
       0            0   -19497.535            0   -19497.535    60872.566 
     491            0   -21948.699            0   -21948.699    4976.8962 
Loop time of 18.5356 on 8 procs for 491 steps with 129 atoms

99.6% CPU use with 8 MPI tasks x no OpenMP threads

Minimization stats:
  Stopping criterion = energy tolerance
  Energy initial, next-to-last, final = 
        -19497.5351942     -21948.6991424     -21948.6992583
  Force two-norm initial, final = 5049.99 23.3176
  Force max component initial, final = 1201.25 9.10336
  Final line search alpha, max atom move = 3.67414e-05 0.000334471
  Iterations, force evaluations = 491 4659

MPI task timing breakdown:
Section |  min time  |  avg time  |  max time  |%varavg| %total
---------------------------------------------------------------
Pair    | 11.195     | 12.716     | 13.713     |  26.7 | 68.60
Neigh   | 0.00044205 | 0.00049172 | 0.00054512 |   0.0 |  0.00
Comm    | 0.14189    | 1.1399     | 2.663      |  89.4 |  6.15
Output  | 0.0018086  | 0.0020958  | 0.0025968  |   0.5 |  0.01
Modify  | 4.6494     | 4.6499     | 4.6505     |   0.0 | 25.09
Other   |            | 0.02732    |            |       |  0.15

Nlocal:    16.125 ave 42 max 0 min
Histogram: 2 2 0 1 1 0 0 0 1 1
Nghost:    470 ave 518 max 410 min
Histogram: 1 2 0 1 0 0 0 0 1 3
Neighs:    1121 ave 2709 max 0 min
Histogram: 2 1 1 0 1 1 0 0 1 1

Total # of neighbors = 8968
Ave neighs/atom = 69.5194
Neighbor list builds = 1
Dangerous builds = 0

###
min_style cg
minimize 1.0e-8 1.0e-8 100000 100000
WARNING: Using 'neigh_modify every 1 delay 0 check yes' setting during minimization (../min.cpp:190)
WARNING: Total cutoff < 2*bond cutoff. May need to use an increased neighbor list skin. (../pair_reaxc.cpp:413)
Per MPI rank memory allocation (min/avg/max) = 16.24 | 16.8 | 17.41 Mbytes
Step Temp E_pair E_mol TotEng Press 
     491            0   -21948.699            0   -21948.699    4976.8962 
     496            0   -21948.731            0   -21948.731     5547.661 
Loop time of 0.249692 on 8 procs for 5 steps with 129 atoms

99.6% CPU use with 8 MPI tasks x no OpenMP threads

Minimization stats:
  Stopping criterion = energy tolerance
  Energy initial, next-to-last, final = 
        -21948.6992583     -21948.7307713     -21948.7308572
  Force two-norm initial, final = 23.3176 68.0034
  Force max component initial, final = 9.10336 39.0802
  Final line search alpha, max atom move = 9.83349e-06 0.000384295
  Iterations, force evaluations = 5 60

MPI task timing breakdown:
Section |  min time  |  avg time  |  max time  |%varavg| %total
---------------------------------------------------------------
Pair    | 0.14969    | 0.16772    | 0.18065    |   2.7 | 67.17
Neigh   | 0          | 0          | 0          |   0.0 |  0.00
Comm    | 0.001678   | 0.014545   | 0.032694   |   9.2 |  5.83
Output  | 0          | 0          | 0          |   0.0 |  0.00
Modify  | 0.066881   | 0.066926   | 0.067041   |   0.0 | 26.80
Other   |            | 0.0004972  |            |       |  0.20

Nlocal:    16.125 ave 41 max 0 min
Histogram: 2 2 0 1 1 0 0 0 1 1
Nghost:    469 ave 516 max 411 min
Histogram: 1 2 1 0 0 0 0 0 0 4
Neighs:    1125.62 ave 2662 max 0 min
Histogram: 1 2 1 0 1 1 0 0 1 1

Total # of neighbors = 9005
Ave neighs/atom = 69.8062
Neighbor list builds = 0
Dangerous builds = 0

###
fix 1 all box/relax aniso 0.0
min_style cg
minimize 1.0e-8 1.0e-8 100000 100000
WARNING: Using 'neigh_modify every 1 delay 0 check yes' setting during minimization (../min.cpp:190)
WARNING: Total cutoff < 2*bond cutoff. May need to use an increased neighbor list skin. (../pair_reaxc.cpp:413)
Per MPI rank memory allocation (min/avg/max) = 16.24 | 16.8 | 17.41 Mbytes
Step Temp E_pair E_mol TotEng Press Volume 
     496            0   -21948.731            0   -21948.731     5547.661    5545.5955 
     527            0   -21949.738            0   -21949.738    218.65485    5548.7896 
Loop time of 0.304599 on 8 procs for 31 steps with 129 atoms

99.6% CPU use with 8 MPI tasks x no OpenMP threads

Minimization stats:
  Stopping criterion = linesearch alpha is zero
  Energy initial, next-to-last, final = 
        -21948.7308572     -21949.7375169     -21949.7375169
  Force two-norm initial, final = 938.729 181.778
  Force max component initial, final = 688.159 112.221
  Final line search alpha, max atom move = 2.12454e-13 2.38419e-11
  Iterations, force evaluations = 31 83

MPI task timing breakdown:
Section |  min time  |  avg time  |  max time  |%varavg| %total
---------------------------------------------------------------
Pair    | 0.20523    | 0.23048    | 0.24916    |   3.2 | 75.67
Neigh   | 0          | 0          | 0          |   0.0 |  0.00
Comm    | 0.0022562  | 0.020902   | 0.046241   |  10.8 |  6.86
Output  | 0.000111   | 0.00012871 | 0.00015219 |   0.0 |  0.04
Modify  | 0.051483   | 0.051493   | 0.051505   |   0.0 | 16.91
Other   |            | 0.001595   |            |       |  0.52

Nlocal:    16.125 ave 41 max 0 min
Histogram: 2 2 0 1 1 0 0 0 1 1
Nghost:    469 ave 516 max 411 min
Histogram: 1 2 1 0 0 0 0 0 0 4
Neighs:    1125.62 ave 2662 max 0 min
Histogram: 1 2 1 0 1 1 0 0 1 1

Total # of neighbors = 9005
Ave neighs/atom = 69.8062
Neighbor list builds = 0
Dangerous builds = 0

unfix 1
###
min_style cg
minimize 1.0e-8 1.0e-8 100000 100000
WARNING: Using 'neigh_modify every 1 delay 0 check yes' setting during minimization (../min.cpp:190)
WARNING: Total cutoff < 2*bond cutoff. May need to use an increased neighbor list skin. (../pair_reaxc.cpp:413)
Per MPI rank memory allocation (min/avg/max) = 16.24 | 16.8 | 17.41 Mbytes
Step Temp E_pair E_mol TotEng Press 
     527            0   -21949.738            0   -21949.738    218.65485 
     547            0   -21950.404            0   -21950.404    5413.4073 
Loop time of 0.86053 on 8 procs for 20 steps with 129 atoms

99.5% CPU use with 8 MPI tasks x no OpenMP threads

Minimization stats:
  Stopping criterion = energy tolerance
  Energy initial, next-to-last, final = 
        -21949.7375169     -21950.4036424     -21950.4038136
  Force two-norm initial, final = 136.347 52.7035
  Force max component initial, final = 53.6251 14.8408
  Final line search alpha, max atom move = 2.48659e-05 0.000369029
  Iterations, force evaluations = 20 210

MPI task timing breakdown:
Section |  min time  |  avg time  |  max time  |%varavg| %total
---------------------------------------------------------------
Pair    | 0.51812    | 0.57977    | 0.62317    |   4.9 | 67.37
Neigh   | 0          | 0          | 0          |   0.0 |  0.00
Comm    | 0.004642   | 0.047987   | 0.10986    |  17.0 |  5.58
Output  | 7.6122e-05 | 8.7824e-05 | 0.0001093  |   0.0 |  0.01
Modify  | 0.23119    | 0.23122    | 0.23124    |   0.0 | 26.87
Other   |            | 0.001459   |            |       |  0.17

Nlocal:    16.125 ave 41 max 0 min
Histogram: 2 2 0 1 1 0 0 0 1 1
Nghost:    471.875 ave 516 max 418 min
Histogram: 1 2 1 0 0 0 0 0 0 4
Neighs:    1122.62 ave 2654 max 0 min
Histogram: 1 2 1 0 1 1 0 0 1 1

Total # of neighbors = 8981
Ave neighs/atom = 69.6202
Neighbor list builds = 0
Dangerous builds = 0

###
fix 1 all box/relax aniso 0.0
min_style cg
minimize 1.0e-8 1.0e-8 100000 100000
WARNING: Using 'neigh_modify every 1 delay 0 check yes' setting during minimization (../min.cpp:190)
WARNING: Total cutoff < 2*bond cutoff. May need to use an increased neighbor list skin. (../pair_reaxc.cpp:413)
Per MPI rank memory allocation (min/avg/max) = 16.24 | 16.8 | 17.41 Mbytes
Step Temp E_pair E_mol TotEng Press Volume 
     547            0   -21950.404            0   -21950.404    5413.4073    5548.7896 
     574            0    -21951.01            0    -21951.01     272.0302     5551.246 
Loop time of 0.308301 on 8 procs for 27 steps with 129 atoms

99.5% CPU use with 8 MPI tasks x no OpenMP threads

Minimization stats:
  Stopping criterion = linesearch alpha is zero
  Energy initial, next-to-last, final = 
        -21950.4038136     -21951.0097782     -21951.0097782
  Force two-norm initial, final = 878.981 119.972
  Force max component initial, final = 642.761 51.7207
  Final line search alpha, max atom move = 4.60974e-13 2.38419e-11
  Iterations, force evaluations = 27 85

MPI task timing breakdown:
Section |  min time  |  avg time  |  max time  |%varavg| %total
---------------------------------------------------------------
Pair    | 0.2109     | 0.2359     | 0.25314    |   3.1 | 76.52
Neigh   | 0          | 0          | 0          |   0.0 |  0.00
Comm    | 0.0019154  | 0.019129   | 0.044225   |  10.9 |  6.20
Output  | 0.00011029 | 0.00012561 | 0.00014827 |   0.0 |  0.04
Modify  | 0.051583   | 0.051589   | 0.051598   |   0.0 | 16.73
Other   |            | 0.001556   |            |       |  0.50

Nlocal:    16.125 ave 42 max 0 min
Histogram: 2 2 0 1 1 0 0 0 1 1
Nghost:    471.875 ave 516 max 417 min
Histogram: 1 2 0 1 0 0 0 0 0 4
Neighs:    1120 ave 2709 max 0 min
Histogram: 1 2 1 0 1 1 0 0 1 1

Total # of neighbors = 8960
Ave neighs/atom = 69.4574
Neighbor list builds = 0
Dangerous builds = 0

unfix 1
###
min_style cg
minimize 1.0e-8 1.0e-8 100000 100000
WARNING: Using 'neigh_modify every 1 delay 0 check yes' setting during minimization (../min.cpp:190)
WARNING: Total cutoff < 2*bond cutoff. May need to use an increased neighbor list skin. (../pair_reaxc.cpp:413)
Per MPI rank memory allocation (min/avg/max) = 16.24 | 16.8 | 17.41 Mbytes
Step Temp E_pair E_mol TotEng Press 
     574            0    -21951.01            0    -21951.01     272.0302 
     624            0   -21952.662            0   -21952.662    4086.2248 
Loop time of 2.09667 on 8 procs for 50 steps with 129 atoms

99.5% CPU use with 8 MPI tasks x no OpenMP threads

Minimization stats:
  Stopping criterion = energy tolerance
  Energy initial, next-to-last, final = 
        -21951.0097782     -21952.6618652     -21952.6620771
  Force two-norm initial, final = 106.605 53.6487
  Force max component initial, final = 19.0855 25.9583
  Final line search alpha, max atom move = 1.41048e-05 0.000366137
  Iterations, force evaluations = 50 520

MPI task timing breakdown:
Section |  min time  |  avg time  |  max time  |%varavg| %total
---------------------------------------------------------------
Pair    | 1.308      | 1.4388     | 1.5277     |   6.6 | 68.62
Neigh   | 0          | 0          | 0          |   0.0 |  0.00
Comm    | 0.011261   | 0.10013    | 0.23139    |  25.2 |  4.78
Output  | 0.00019942 | 0.00022589 | 0.0002752  |   0.0 |  0.01
Modify  | 0.55404    | 0.5541     | 0.55418    |   0.0 | 26.43
Other   |            | 0.003425   |            |       |  0.16

Nlocal:    16.125 ave 42 max 0 min
Histogram: 2 2 0 1 1 0 0 0 1 1
Nghost:    474.375 ave 514 max 424 min
Histogram: 1 1 1 1 0 0 0 0 0 4
Neighs:    1117.75 ave 2703 max 0 min
Histogram: 1 2 1 0 1 1 0 0 1 1

Total # of neighbors = 8942
Ave neighs/atom = 69.3178
Neighbor list builds = 0
Dangerous builds = 0

undump 1
#############
#----------- Thermo ------------
reset_timestep 0
thermo  200

thermo_style    custom step temp etotal ke pe press
velocity all create 300 12345 mom yes rot yes
fix 1 all npt temp 300 300 25.0 iso 0.0 0.0 250.0

variable vpe equal pe
variable vtemp equal temp
variable vstep equal step

fix output all print 2500 "${vstep} ${vtemp} ${vpe}" file temp-tpdh-Pt.dat screen no

dump 1 all custom 2500 thermo-tpdh-Pt.lammpstrj id type x y z

run 1000000
WARNING: Total cutoff < 2*bond cutoff. May need to use an increased neighbor list skin. (../pair_reaxc.cpp:413)
Per MPI rank memory allocation (min/avg/max) = 15.13 | 15.57 | 16.3 Mbytes
Step Temp TotEng KinEng PotEng Press 
       0          300   -21838.199    114.46311   -21952.662    5028.7824 
     200    222.15061   -21796.812    84.760161   -21881.572    8054.1374 
     400    319.83671   -21738.278    122.03168   -21860.309   -9166.4642 
     600    353.95741   -21714.775    135.05022   -21849.825   -17487.754 
     800    300.23629    -21745.36    114.55326   -21859.913   -13432.549 
    1000    291.41001   -21723.758    111.18565   -21834.944    13254.334 
    1200    343.47619   -21717.228    131.05117   -21848.279   -9684.7979 
    1400    296.76271   -21741.895    113.22794   -21855.123   -5648.2898 
    1600    288.83554    -21733.91    110.20338   -21844.114    11166.154 
    1800    339.43018   -21698.946    129.50744   -21828.453   -20277.403 
    2000    311.37142   -21719.576     118.8018   -21838.378   -7552.6204 
    2200    303.61609   -21726.525     115.8428   -21842.367    22037.427 
    2400    286.42335   -21756.545    109.28302   -21865.828    38384.533 
    2600    308.00857   -21735.577    117.51873   -21853.096    17757.514 
    2800    304.39147   -21726.655    116.13864   -21842.793    4077.5814 
    3000    271.07072    -21733.58    103.42532   -21837.005    2057.6272 
    3200    273.95644   -21746.602    104.52635   -21851.129    1227.9414 
    3400    327.46116   -21729.083    124.94074   -21854.023   -19633.001 
    3600    282.80624     -21756.3    107.90294   -21864.203    15741.961 
    3800    285.48086   -21743.075    108.92342   -21851.998    21130.496 
    4000    331.98705   -21727.819    126.66756   -21854.486    509.05179 
    4200    302.31431   -21744.243    115.34612   -21859.589   -6824.2271 
    4400    277.47902    -21745.59    105.87037    -21851.46    1359.8217 
    4600    306.43897   -21737.663    116.91986   -21854.583    -7492.838 
    4800    333.31045   -21709.493     127.1725   -21836.666    1571.3859 
    5000    295.21238   -21730.889    112.63642   -21843.526   -5261.8629 
    5200    293.48125   -21738.512    111.97592   -21850.487    -3635.425 
    5400    284.25776   -21742.545    108.45675   -21851.002   -10698.084 
    5600    297.62047   -21746.202    113.55521   -21859.758    11207.619 
    5800    309.25484   -21721.904    117.99423   -21839.898    1591.5569 
    6000    293.34323   -21744.445    111.92326   -21856.369   -8104.5388 
    6200    301.28282   -21748.019    114.95256   -21862.972      3903.73 
    6400    342.53388   -21719.969    130.69164   -21850.661    6917.4936 
    6600    291.77459   -21746.391    111.32475   -21857.716   -10013.853 
    6800    316.47875   -21735.948    120.75047   -21856.699    1314.9417 
    7000    332.77135    -21718.79    126.96681   -21845.757   -5851.8271 
    7200    270.63333   -21751.055    103.25844   -21854.313   -3160.5878 
    7400    297.00341   -21727.605    113.31978   -21840.925   -4177.3988 
    7600    291.69118   -21737.108    111.29293     -21848.4   -13773.226 
    7800    288.49012   -21756.064    110.07158   -21866.135   -599.44351 
    8000    295.47731   -21742.353     112.7375   -21855.091    28039.392 
    8200    307.06575   -21735.702      117.159   -21852.861   -15344.818 
    8400    288.30076   -21731.893    109.99933   -21841.892   -1519.1544 
    8600    287.88905   -21726.319    109.84225   -21836.161    6609.4438 
    8800    309.57901   -21740.679    118.11792   -21858.797   -9714.2662 
    9000    284.30691   -21753.817    108.47551   -21862.293    1446.1261 
    9200    299.86013   -21727.656    114.40974   -21842.066    47800.136 
    9400    323.06722   -21738.204    123.26426   -21861.468    14003.601 
    9600     302.2497   -21748.957    115.32147   -21864.279    28110.667 
    9800    344.48992   -21724.365    131.43795   -21855.803    17480.929 
   10000    262.84748   -21753.701     100.2878   -21853.989   -13717.552 
   10200    320.85823   -21735.534    122.42143   -21857.955   -2941.3377 
   10400    275.70472   -21731.202     105.1934   -21836.396   -3707.7747 
   10600    254.34988   -21762.135     97.04559    -21859.18    12782.857 
   10800    319.12676    -21733.66     121.7608   -21855.421    5887.0121 
   11000    304.41157   -21738.399    116.14631   -21854.545    12358.532 
   11200    255.33028   -21765.944    97.419657   -21863.363    5695.4835 
   11400    282.68136   -21743.564    107.85529    -21851.42   -9049.7617 
   11600     277.6946   -21736.965    105.95262   -21842.917   -20907.427 
   11800    312.12407   -21732.805    119.08897   -21851.894    17147.307 
   12000     277.0007   -21751.209    105.68787   -21856.897    10587.862 
   12200    307.64584   -21734.397    117.38033   -21851.777    -26869.27 
   12400    300.55269    -21732.67    114.67398   -21847.344   -3303.8033 
   12600    257.47973    -21743.56    98.239764   -21841.799    21181.068 
   12800    285.27374   -21737.778     108.8444   -21846.622   -17997.942 
   13000    281.47246   -21749.356    107.39404    -21856.75    14775.333 
   13200    276.39137   -21751.181    105.45538   -21856.637   -9461.7692 
   13400     304.5702   -21729.574    116.20684    -21845.78    11810.052 
   13600    275.91158   -21758.255    105.27232   -21863.527    14764.839 
   13800    274.44136   -21747.319    104.71137    -21852.03   -9814.1719 
   14000    308.11678   -21732.381    117.56001   -21849.941    6876.6296 
   14200    292.48925   -21759.021    111.59743   -21870.618   -5621.9124 
   14400    366.12152   -21755.882    139.69135   -21895.574    9658.0268 
   14600     397.3296   -21864.751     151.5986    -22016.35    2341.1106 
   14800    371.30522    -21989.04    141.66916    -22130.71    332.97382 
   15000    253.91269   -22054.463    96.878784   -22151.342   -10724.172 
   15200    304.87966    -22028.31    116.32491   -22144.635   -18920.972 
   15400    351.10101   -22021.242    133.96038   -22155.202    34012.495 
   15600      279.089   -22054.217    106.48465   -22160.702    12559.827 
   15800    286.89758   -22022.369    109.46396   -22131.833   -9266.0255 
   16000    313.33364   -22034.332    119.55047   -22153.883   -14307.079 
   16200    263.28751   -22047.608    100.45569   -22148.064    19563.824 
   16400    280.54547    -22023.97    107.04035    -22131.01     17219.08 
   16600    304.35445   -22036.625    116.12452   -22152.749    27517.022 
   16800    302.00815   -22044.694     115.2293   -22159.923    3343.7445 
   17000    279.77934   -22019.996    106.74804   -22126.744   -9093.2373 
   17200    288.76394   -22035.934    110.17606    -22146.11   -1961.8668 
   17400    298.81551   -22040.676    114.01117   -22154.687   -6460.8596 
   17600    307.70562   -22023.041    117.40314   -22140.444    24734.077 
   17800    314.22376   -22022.047    119.89009   -22141.937   -4927.9257 
   18000    287.88121   -22031.381    109.83926    -22141.22   -1405.1773 
   18200    304.68542   -22029.355     116.2508   -22145.606    4948.3202 
   18400    257.85361   -22046.453    98.382415   -22144.836   -23242.129 
   18600    295.85162   -22034.348    112.88032   -22147.228   -13114.222 
   18800    330.19912    -22019.07    125.98539   -22145.055   -14976.412 
   19000    302.89983   -22051.665    115.56952   -22167.235    1663.3729 
   19200    310.46405    -22039.36     118.4556   -22157.815    14083.795 
   19400    311.54805    -22023.24    118.86919   -22142.109    4131.2112 
   19600    295.81848   -22023.635    112.86767   -22136.502   -10184.437 
   19800    287.80564   -22047.291    109.81042   -22157.101    12139.978 
   20000    339.73957   -22022.888    129.62549   -22152.514   -19104.149 
   20200     294.3864   -22032.088    112.32127   -22144.409    4242.3943 
   20400    283.60378   -22040.592    108.20723   -22148.799    3589.9414 
   20600    314.42618    -22011.21    119.96732   -22131.177   -10639.887 
   20800    334.95179   -22036.667    127.79874   -22164.466   -2518.1812 
   21000    281.19099    -22043.64    107.28665   -22150.927   -6863.9973 
   21200     312.2737   -22014.506    119.14606   -22133.652   -5208.8118 
   21400    310.15772   -22036.453    118.33872   -22154.791    -36128.06 
   21600    272.96157   -22051.663    104.14676    -22155.81     5856.597 
   21800    309.45105   -22019.919    118.06909   -22137.989    4618.1769 
   22000    305.61149   -22035.628    116.60413   -22152.232    1112.6296 
   22200    327.29948    -22042.84    124.87905   -22167.719    12827.826 
   22400    309.07685    -22040.02    117.92632   -22157.946    3817.7182 
   22600      336.382   -22015.538    128.34443   -22143.883    15768.268 
   22800    268.13942   -22043.548     102.3069   -22145.855    4198.0084 
   23000    306.30065   -22026.826    116.86708   -22143.693    5175.4001 
   23200    297.23079    -22028.53    113.40653   -22141.936   -16260.845 
   23400    275.86829   -22043.011    105.25581   -22148.267    -14867.87 
   23600    310.33512   -22038.317    118.40641   -22156.724   -8460.3828 
   23800    277.90599   -22021.726    106.03328    -22127.76    -4990.098 
   24000    280.83189   -22054.667    107.14963   -22161.816     2547.107 
   24200     303.4896   -22041.305    115.79454   -22157.099     6284.386 
   24400    319.73948   -22019.434    121.99458   -22141.429    6955.8225 
   24600    282.53844    -22056.07    107.80076   -22163.871    5987.1457 
   24800    286.29744   -22037.318    109.23498   -22146.553   -3374.8513 
   25000    321.46404   -22036.642    122.65257   -22159.295    9659.2639 
   25200    273.54156   -22051.902    104.36806    -22156.27    22907.959 
   25400    333.14112   -22032.145    127.10789   -22159.253   -1571.6021 
   25600     292.8656   -22044.234    111.74102   -22155.975    3266.8582 
   25800    255.89939   -22078.209    97.636795   -22175.846   -4494.9951 
   26000    258.59198   -22056.352    98.664136   -22155.016    17068.643 
   26200    275.22047   -22026.275    105.00863   -22131.283   -15169.106 
   26400    317.74293   -22023.193    121.23281   -22144.426    31858.348 
   26600    292.60859   -22044.329    111.64296   -22155.972     23261.37 
   26800    331.50302   -22029.174    126.48288   -22155.657    6881.1018 
   27000    302.07025    -22007.99      115.253   -22123.243   -6803.4827 
   27200    316.88575   -22027.783    120.90576   -22148.689   -3590.4154 
   27400    296.74954   -22042.598    113.22291   -22155.821    17010.379 
   27600    319.05952   -22019.668    121.73514   -22141.403   -17526.371 
   27800    301.51788   -22036.412    115.04224   -22151.454   -10680.628 
   28000    280.92862   -22044.729    107.18654   -22151.915   -22779.085 
   28200    272.06234   -22022.665    103.80367   -22126.469    10957.611 
   28400    262.21035    -22046.09     100.0447   -22146.135    10359.836 
   28600    306.58859   -22042.866    116.97694   -22159.843    14583.215 
   28800    291.67412   -22033.324    111.28642   -22144.611    6038.3583 
   29000    260.99104   -22059.473    99.579485   -22159.052   -2485.1197 
   29200    255.50148   -22065.544    97.484975   -22163.029    12253.947 
   29400    295.08237   -22039.313    112.58681     -22151.9    4860.1967 
   29600     320.9454    -22031.21    122.45469   -22153.665    11329.313 
   29800    271.32708   -22058.797    103.52314    -22162.32    6535.4961 
   30000    296.33841   -22038.803    113.06605   -22151.869    5580.6787 
   30200      319.035   -22030.794    121.72579    -22152.52    9087.8155 
   30400    278.94078   -22036.539    106.42809   -22142.967    9178.8783 
   30600     296.3708   -22034.069    113.07841   -22147.148    4731.6136 
   30800    281.80252   -22066.193    107.51997   -22173.713   -1317.1865 
   31000     288.6742   -22044.712    110.14182   -22154.854   -613.22407 
   31200    307.05061    -22032.42    117.15322   -22149.574    18442.924 
   31400    298.22149   -22051.155    113.78453   -22164.939    5783.4875 
   31600    244.38649   -22061.201    93.244123   -22154.445   -3771.8381 
   31800    313.03538   -22034.779    119.43667   -22154.215   -30428.205 
   32000    296.27399   -22045.502    113.04147   -22158.544    19329.557 
   32200    275.38157   -22058.542     105.0701   -22163.613   -8667.8477 
   32400    322.19098    -22030.64    122.92994    -22153.57    17656.228 
   32600     290.4521   -22035.846    110.82016   -22146.667   -2519.1823 
   32800    304.64353   -22048.207    116.23482   -22164.442   -26794.564 
   33000    305.91723   -22058.104    116.72079   -22174.825    18697.932 
   33200    344.52037   -22030.093    131.44957   -22161.542    11088.925 
   33400    272.62216   -22051.508    104.01726   -22155.525   -2393.4123 
   33600    333.98178   -22025.401    127.42864    -22152.83   -5523.5447 
   33800    311.11832   -22030.286    118.70523   -22148.991     11990.49 
   34000    256.27423   -22048.998    97.779814   -22146.778   -8979.1129 
   34200    349.56356   -22018.398    133.37377   -22151.772   -6769.6135 
   34400    257.39883   -22048.125    98.208898   -22146.334   -8284.5415 
   34600    289.92076   -22049.775    110.61744   -22160.393   -15350.722 
   34800    317.45519    -22027.82    121.12302   -22148.943   -13564.698 
   35000    290.66497    -22059.07    110.90138   -22169.972   -16564.948 
   35200    325.88476   -22047.479    124.33927   -22171.818    13243.328 
   35400    339.37666   -22029.948    129.48702   -22159.435    13969.899 
   35600    286.96501   -22053.624    109.48969   -22163.114     18881.82 
   35800    302.57301   -22040.368    115.44482   -22155.813   -6018.3094 
   36000    299.38842   -22030.741    114.22976   -22144.971    22386.991 
   36200    316.61661   -22050.665    120.80307   -22171.468   -9095.7513 
   36400    276.40538     -22055.3    105.46073   -22160.761   -9867.5772 
   36600    314.10567   -22047.046    119.84504   -22166.891    18630.082 
   36800    303.41868   -22038.054    115.76748   -22153.821   -16250.327 
   37000    312.82208   -22026.971    119.35529   -22146.326   -11036.029 
   37200    311.16181    -22056.07    118.72182   -22174.792   -3134.4797 
   37400    323.16047   -22048.818    123.29984   -22172.118    18159.755 
   37600    283.25592    -22046.49    108.07451   -22154.564     4254.192 
   37800    316.64338   -22041.458    120.81328   -22162.271     1107.431 
   38000    311.16959   -22038.757    118.72479   -22157.482   -6547.0704 
   38200    316.44404   -22039.133    120.73722    -22159.87   -8365.2375 
   38400    292.67413   -22044.215    111.66796   -22155.883   -16564.467 
   38600    309.85792   -22053.473    118.22433   -22171.697   -19689.877 
   38800    302.87485   -22035.285    115.55999   -22150.845      9105.38 
   39000    320.97926   -22042.533    122.46761   -22165.001   -8695.7125 
   39200    291.44692   -22051.109    111.19973   -22162.308    10723.363 
   39400    302.26002   -22040.841     115.3254   -22156.167   -11468.566 
   39600    321.53487   -22041.999     122.6796   -22164.678    28515.885 
   39800    289.67004   -22060.161    110.52177   -22170.682   -31975.403 
   40000    291.05348   -22046.516    111.04962   -22157.565   -3353.5353 
   40200    314.61571   -22031.603    120.03964   -22151.643   -5659.7827 
   40400    287.63853   -22054.981    109.74666   -22164.728     16490.25 
   40600    284.84225    -22052.97    108.67976    -22161.65   -16712.925 
   40800    306.34439   -22040.694    116.88377   -22157.577    2700.8917 
   41000    318.00115   -22053.701    121.33133   -22175.032   -6572.9081 
   41200    278.84774   -22067.577     106.3926    -22173.97    1169.8874 
   41400    324.08837    -22038.26    123.65387   -22161.914    6864.2522 
   41600    288.55918   -22043.317    110.09793   -22153.415   -6047.1395 
   41800    263.98507   -22071.705    100.72184   -22172.427   -13038.176 
   42000    385.05115   -22045.745    146.91384   -22192.658    680.54269 
   42200    377.18044   -22172.217    143.91082   -22316.128    7472.4317 
   42400    300.70716   -22247.155    114.73292   -22361.888   -20448.556 
   42600      265.369   -22268.969    101.24987   -22370.219    35193.991 
   42800    290.11152   -22231.834    110.69022   -22342.524   -27422.124 
   43000    318.18709   -22252.773    121.40228   -22374.175   -7971.0665 
   43200    268.90755    -22278.46    102.59998    -22381.06   -16846.855 
   43400    276.27795   -22272.199    105.41211   -22377.611   -362.70831 
   43600    344.02144    -22248.51    131.25921   -22379.769    9489.2071 
   43800    311.52278   -22269.923    118.85955   -22388.782   -24641.499 
   44000    305.09996   -22265.883    116.40896   -22382.291    14054.862 
   44200    310.33222   -22257.122     118.4053   -22375.527    3297.6118 
   44400    263.55159   -22279.715    100.55645   -22380.272    180.92119 
   44600    335.22678   -22251.696    127.90366     -22379.6   -4283.5305 
   44800    314.82541   -22266.247    120.11965   -22386.366     3958.894 
   45000    289.90998   -22280.382    110.61332   -22390.995    27101.207 
   45200    326.10516   -22260.054    124.42337   -22384.477   -14831.267 
   45400    281.01212   -22264.847     107.2184   -22372.066   -3513.7291 
   45600    294.12906   -22273.344    112.22308   -22385.567    6763.9035 
   45800    279.30867   -22266.672    106.56846   -22373.241   -26912.809 
   46000    279.96379   -22255.598    106.81842   -22362.416   -1720.5031 
   46200    307.59715   -22256.654    117.36175   -22374.016    -7109.231 
   46400    287.67204   -22276.161    109.75945   -22385.921   -7998.8829 
   46600    320.95941   -22261.214    122.46003   -22383.674    9644.4932 
   46800    282.88301   -22276.345    107.93223   -22384.278   -5468.6679 
   47000    264.07953   -22281.611    100.75788   -22382.369   -7893.0129 
   47200    312.19973   -22260.383    119.11784   -22379.501    14905.851 
   47400    324.89341   -22273.856    123.96103   -22397.817   -14298.171 
   47600     290.1974   -22280.313    110.72299   -22391.036    1638.0211 
   47800     317.1539   -22267.847    121.00807   -22388.855    26008.906 
   48000    273.60112   -22286.869    104.39078    -22391.26    21887.591 
   48200    321.53597   -22268.452    122.68002   -22391.132    6365.7818 
   48400    301.96418   -22266.642    115.21253   -22381.855    6145.2903 
   48600    282.83315   -22285.623     107.9132   -22393.537    10152.989 
   48800    316.97004    -22274.18    120.93792   -22395.118   -6350.2281 
   49000    346.36125   -22270.185    132.15195   -22402.337   -2678.9945 
   49200    292.56973   -22257.416    111.62813   -22369.044    23758.868 
   49400    320.02713   -22251.004    122.10433   -22373.108   -7005.0792 
   49600    286.91284   -22280.916    109.46978   -22390.386   -8790.8368 
   49800    305.61558   -22270.595     116.6057     -22387.2   -2039.1392 
   50000    355.46595   -22244.637    135.62579   -22380.263   -15839.456 
   50200    305.48718    -22270.96    116.55671   -22387.517   -20983.109 
   50400    310.68027   -22281.905     118.5381   -22400.443    12863.104 
   50600    305.09234   -22258.387    116.40606   -22374.793    14291.812 
   50800    286.07355   -22288.304    109.14956   -22397.454   -28594.568 
   51000    270.06148   -22279.934    103.04025   -22382.974    16295.478 
   51200    299.88026   -22262.738    114.41742   -22377.156   -11364.334 
   51400    275.29958   -22286.969    105.03882   -22392.008    23691.178 
   51600    298.99982   -22286.175    114.08149   -22400.256   -5758.6878 
   51800    300.41801   -22270.523    114.62259   -22385.146   -19841.112 
   52000    309.57564   -22281.456    118.11663   -22399.573   -3728.5996 
   52200    238.14005   -22310.487    90.860833   -22401.348   -16176.964 
   52400    284.76755   -22281.715    108.65126   -22390.366   -14071.762 
   52600    305.61325   -22258.696    116.60481   -22375.301   -11411.536 
   52800    284.20056   -22279.934    108.43493   -22388.369    3588.9013 
   53000    284.55296   -22279.779    108.56939   -22388.349   -14533.909 
   53200    310.06169   -22262.888    118.30208    -22381.19    17300.879 
   53400    305.50158   -22267.655     116.5622   -22384.217   -37831.474 
   53600    260.39456   -22294.143    99.351901   -22393.495    9294.1681 
   53800     273.9543    -22285.34    104.52553   -22389.866    11065.458 
   54000    285.05153   -22269.747    108.75961   -22378.506    10263.984 
   54200     313.3688   -22262.785    119.56389   -22382.349   -9996.5402 
   54400    326.61913   -22266.067    124.61947   -22390.686    1039.7039 
   54600    273.11234   -22285.437    104.20429   -22389.641    19203.324 
   54800    330.74001   -22255.812    126.19176   -22382.004   -7468.6973 
   55000      304.266   -22272.843    116.09077   -22388.934    25523.099 
   55200    279.79564    -22275.78    106.75426   -22382.534    29306.562 
   55400    321.89036   -22265.029    122.81523   -22387.844   -16347.223 
   55600    297.08457   -22263.395    113.35074   -22376.745   -3935.7569 
   55800     315.9248   -22285.381    120.53911    -22405.92    3964.9914 
   56000    295.49818   -22263.466    112.74546   -22376.211    12982.915 
   56200    318.96192   -22259.808    121.69791   -22381.506    4260.0798 
   56400     300.8633   -22272.322    114.79249   -22387.115    5378.4906 
   56600    299.43752   -22266.122     114.2485   -22380.371    14931.856 
   56800    319.06662   -22254.308    121.73785   -22376.046   -18227.848 
   57000    274.20717   -22281.496    104.62201   -22386.118    7649.8011 
   57200     325.9944   -22270.492     124.3811   -22394.873   -1543.9911 
   57400    323.61709   -22259.873    123.47406   -22383.347    -30154.31 
   57600    290.92041   -22269.316    110.99885   -22380.315    9819.8636 
   57800    252.49848   -22292.232      96.3392   -22388.571    22464.305 
   58000    297.14539   -22264.876    113.37395   -22378.249    22552.603 
   58200     307.0475   -22270.399    117.15204   -22387.551    48864.494 
   58400    251.82333   -22287.077    96.081601   -22383.159   -27793.142 
   58600    333.29022   -22255.969    127.16478   -22383.134   -4482.9125 
   58800    274.70122   -22281.328    104.81052   -22386.138   -12919.961 
   59000    267.46489   -22274.374    102.04954   -22376.424    2797.6969 
   59200    350.92573   -22243.913     133.8935   -22377.807    3094.6436 
   59400    303.04316   -22268.989     115.6242   -22384.613   -4491.2038 
   59600    284.06202   -22279.947    108.38207    -22388.33   -1335.4659 
   59800    329.86337   -22263.834    125.85729   -22389.691    5755.4205 
   60000    303.78586   -22261.693    115.90758   -22377.601     11413.41 
   60200    282.50847   -22285.514    107.78932   -22393.303   -7634.1262 
   60400    275.63321   -22270.678    105.16611   -22375.844    6119.1994 
   60600    310.50079   -22267.402    118.46961   -22385.872    15478.767 
   60800    267.65922   -22293.749    102.12368   -22395.873   -11529.897 
   61000    286.53418   -22278.294    109.32531   -22387.619    7755.0453 
   61200    300.93363   -22264.676    114.81933   -22379.496    4446.6927 
   61400    268.95685   -22285.961    102.61879    -22388.58   -20605.461 
   61600    260.37407   -22280.894    99.344083   -22380.238   -15715.715 
   61800    314.10472   -22266.003    119.84467   -22385.847    240.56222 
   62000     304.5046   -22287.528    116.18181    -22403.71    24544.626 
   62200    300.68775   -22261.329    114.72551   -22376.054   -6532.1607 
   62400    331.67989   -22263.008    126.55037   -22389.559    9545.9594 
   62600    296.96391   -22280.949     113.3047   -22394.253   -6024.8627 
   62800    310.76821   -22276.837    118.57165   -22395.409    8022.9135 
   63000    303.33139    -22270.94    115.73418   -22386.674    -11283.82 
   63200    325.43595    -22259.86    124.16803   -22384.028   -15365.134 
   63400    292.33327   -22250.688    111.53791   -22362.226    14113.536 
   63600    291.04951   -22279.843     111.0481   -22390.891    5921.1115 
   63800    307.54256   -22261.448    117.34092   -22378.789    6332.4712 
   64000    320.92107   -22258.233    122.44541   -22380.679   -33445.758 
   64200    277.03692   -22285.514    105.70169   -22391.216    2283.4172 
   64400    339.39167   -22259.668    129.49275   -22389.161   -699.90422 
   64600    280.12125   -22269.179     106.8785   -22376.058   -3709.5912 
   64800    277.16624    -22286.58    105.75103   -22392.331   -1929.1796 
   65000    317.13378   -22266.974    121.00039   -22387.974    4931.1759 
   65200    283.24487    -22267.22    108.07029   -22375.291   -1722.7329 
   65400    279.29893   -22273.738    106.56474   -22380.303   -12215.825 
   65600    293.69744   -22274.369     112.0584   -22386.427   -6331.8435 
   65800    318.00262   -22263.414    121.33189   -22384.745    7199.7997 
   66000    316.91482   -22271.602    120.91685   -22392.519   -9198.1739 
   66200     277.6389   -22285.519    105.93137    -22391.45   -2400.6182 
   66400    279.81347   -22272.261    106.76106   -22379.022   -6644.2895 
   66600    282.27501   -22270.544    107.70025   -22378.244     18315.27 
   66800     294.7468   -22281.236    112.45878   -22393.695   -26015.053 
   67000    298.87705   -22278.667    114.03465   -22392.702    13945.299 
   67200     300.3399   -22258.177    114.59279    -22372.77   -882.40346 
   67400    311.95087   -22278.013    119.02288   -22397.035    18323.635 
   67600    258.28837   -22307.034    98.548295   -22405.582   -12996.356 
   67800    271.17509   -22281.783    103.46515   -22385.248   -5971.5454 
   68000     313.3563   -22266.965    119.55912   -22386.524    -13199.62 
   68200     307.0077   -22277.907    117.13685   -22395.044   -20622.736 
   68400    304.46735   -22277.759    116.16759   -22393.927    8908.4961 
   68600    337.45749   -22261.628    128.75477   -22390.383    28023.469 
   68800    300.06687   -22276.619    114.48862   -22391.108   -6626.7907 
   69000    335.36894    -22274.13     127.9579   -22402.088   -5396.7947 
   69200    322.53057    -22241.63     123.0595    -22364.69     23038.45 
   69400    317.14508   -22271.675     121.0047    -22392.68   -2000.3346 
   69600    300.14654   -22283.483    114.51902   -22398.002   -4310.0902 
   69800    298.07464   -22257.448     113.7285   -22371.176   -22211.668 
   70000       295.65   -22270.249    112.80339   -22383.053    -15266.26 
   70200    285.02619   -22283.941    108.74994   -22392.691   -11873.609 
   70400    313.86234   -22263.853    119.75219   -22383.605   -7491.2709 
   70600    324.22868   -22258.046    123.70741   -22381.753   -21609.871 
   70800    282.47745   -22278.722    107.77749   -22386.499   -12846.311 
   71000    328.81063   -22252.805    125.45562   -22378.261    28841.746 
   71200    282.39519   -22264.049     107.7461   -22371.795    6046.5516 
   71400     304.3677   -22275.343    116.12958   -22391.473   -10871.494 
   71600    350.31023   -22250.137    133.65866   -22383.796   -6102.5279 
   71800    321.14999   -22261.596    122.53275   -22384.128   -773.39894 
   72000    285.25489   -22272.005     108.8372   -22380.842   -5612.5487 
   72200    317.06508    -22268.72    120.97418   -22389.694   -17921.722 
   72400    339.71505   -22258.869    129.61613   -22388.486   -1611.2887 
   72600    282.39678   -22284.926    107.74671   -22392.672    7218.7709 
   72800    303.40635   -22264.406    115.76278   -22380.169    15869.432 
   73000    314.62276   -22268.575    120.04233   -22388.618   -2597.4521 
   73200    316.91578   -22294.545    120.91721   -22415.463    17851.487 
   73400    315.66636   -22279.902    120.44051   -22400.343     -26901.8 
   73600    316.12217    -22276.21    120.61442   -22396.825    17470.521 
   73800    312.65255   -22295.722    119.29061   -22415.013    9129.9819 
   74000    313.57897   -22275.374    119.64408   -22395.018   -1018.0399 
   74200    270.19181   -22287.764    103.08998   -22390.854    26479.903 
   74400    279.90268   -22298.819     106.7951   -22405.614   -170.46186 
   74600    309.20119   -22281.618    117.97376   -22399.592    2016.1805 
   74800    302.84715   -22294.346    115.54942   -22409.895    2015.8214 
   75000    281.02383   -22290.441    107.22287   -22397.664    4075.6494 
   75200    321.55959   -22270.194    122.68903   -22392.883    18825.496 
   75400    293.21441   -22296.701    111.87411   -22408.575   -5319.4791 
   75600    297.13637   -22289.756    113.37051   -22403.126   -7509.3515 
   75800    302.60011   -22274.943    115.45516   -22390.398    13167.199 
   76000    289.92158   -22286.341    110.61775   -22396.959    -11334.94 
   76200    275.22511    -22295.88     105.0104    -22400.89   -11801.766 
   76400    304.01559   -22272.586    115.99523   -22388.581   -13882.121 
   76600    296.54347   -22281.431    113.14429   -22394.575   -1870.5116 
   76800    284.81629   -22292.368    108.66986   -22401.038   -1876.3968 
   77000    281.22473   -22285.403    107.29952   -22392.702   -18210.201 
   77200    274.51199    -22302.59    104.73832   -22407.329   -5895.0739 
   77400    314.44383   -22290.321    119.97406   -22410.295     12473.34 
   77600    298.48225   -22279.389    113.88402   -22393.273    -8789.326 
   77800    299.42178   -22294.923    114.24249   -22409.165    5003.5783 
   78000     259.8686   -22292.669    99.151222   -22391.821   -17455.114 
   78200    347.93076   -22251.732    132.75079   -22384.483   -18164.473 
   78400    311.38718   -22277.549    118.80781   -22396.357   -8130.9597 
   78600    277.94876   -22298.912    106.04959   -22404.962   -15247.339 
   78800    304.38627   -22275.582    116.13666   -22391.719    13035.609 
   79000    334.66819   -22273.012    127.69053   -22400.703    13673.867 
   79200     265.7503   -22287.001    101.39535   -22388.396    14450.538 
   79400    296.36487   -22286.328    113.07614   -22399.404   -3014.6782 
   79600    316.32839   -22290.027     120.6931    -22410.72     7334.585 
   79800    282.86541   -22302.072    107.92551   -22409.998   -36654.672 
   80000    298.46833   -22295.713    113.87871   -22409.592    7708.2723 
   80200    290.25478   -22278.819    110.74488   -22389.564    21486.492 
   80400    307.87884   -22296.088    117.46923   -22413.557    30636.576 
   80600     320.0879   -22281.007    122.12752   -22403.134    18604.247 
   80800    293.99086   -22277.358    112.17036   -22389.529   -14627.944 
   81000    261.92405   -22299.622    99.935469   -22399.558   -17297.552 
   81200    350.56909   -22269.486    133.75742   -22403.243   -6975.0426 
   81400    286.66885   -22292.916    109.37669   -22402.293   -23036.895 
   81600    259.99803   -22297.809    99.200605    -22397.01    866.41578 
   81800    347.34673   -22273.388    132.52795   -22405.916    6882.7253 
   82000    270.69442   -22295.295    103.28175   -22398.577   -5579.4204 
   82200    261.35525   -22289.553    99.718444   -22389.271    -25747.47 
   82400    305.30872   -22272.352    116.48861   -22388.841    -16905.97 
   82600    280.94104   -22294.265    107.19128   -22401.457   -14768.093 
   82800    288.59146   -22279.894    110.11025   -22390.004    20079.951 
   83000    316.59844   -22270.176    120.79613   -22390.972    1245.1512 
   83200    317.06696   -22291.076     120.9749   -22412.051   -3758.8527 
   83400    303.90479   -22284.778    115.95295   -22400.731   -2403.4215 
   83600    331.64212    -22264.77    126.53596   -22391.306    8472.9667 
   83800    317.45339   -22275.402    121.12234   -22396.524   -8298.4542 
   84000    282.46248   -22294.179    107.77177   -22401.951    1900.9418 
   84200    324.58813   -22280.841    123.84455   -22404.685   -11002.266 
   84400    338.29571   -22278.183    129.07459   -22407.257   -12768.067 
   84600    311.60034   -22296.728    118.88914   -22415.617    -11477.41 
   84800    320.94302   -22275.936    122.45378    -22398.39   -6642.2277 
   85000    306.86341   -22285.018     117.0818     -22402.1   -2647.2369 
   85200    263.71525   -22303.651    100.61889    -22404.27    4912.3867 
   85400    312.08656   -22278.702    119.07466   -22397.776     1561.796 
   85600     292.8106   -22291.259    111.72004   -22402.979    23434.178 
   85800    268.47065   -22319.329    102.43328   -22421.762   -15343.018 
   86000    301.17836   -22292.878     114.9127   -22407.791    -236.8556 
   86200    327.98686   -22277.776    125.14132   -22402.917   -14112.569 
   86400    268.14091   -22300.118    102.30747   -22402.425   -17179.404 
   86600    270.28855   -22298.227    103.12689   -22401.354    15292.385 
   86800     334.1786    -22276.85    127.50373   -22404.354    -3093.074 
   87000    290.30683   -22297.743    110.76474   -22408.508   -2189.2672 
   87200    299.41196   -22288.249    114.23874   -22402.488   -20633.756 
   87400    327.73943   -22279.196    125.04691   -22404.243    23752.091 
   87600    287.69599   -22295.484    109.76859   -22405.252    3407.6962 
   87800    329.02161   -22269.549    125.53612   -22395.085   -7545.9928 
   88000    325.99709   -22280.873    124.38213   -22405.255    2834.9181 
   88200    280.86721   -22292.622    107.16311   -22399.785   -251.16852 
   88400    310.96425   -22271.186    118.64644   -22389.832   -2090.8547 
   88600    306.61262   -22302.267    116.98611   -22419.253    6956.6317 
   88800    335.81432   -22293.832    128.12783    -22421.96   -14352.035 
   89000    309.54452   -22287.074    118.10476   -22405.178   -11204.659 
   89200    285.86215    -22311.37     109.0689   -22420.439   -6904.4373 
   89400     294.8641    -22282.36    112.50353   -22394.864   -7874.5208 
   89600    288.00916   -22290.013    109.88808   -22399.901    12480.821 
   89800    294.19237   -22306.068    112.24724   -22418.315   -455.50957 
   90000    307.87256   -22280.238    117.46683   -22397.705    3627.0779 
   90200    323.85369   -22275.987    123.56433   -22399.552    23328.062 
   90400    254.10417   -22302.246    96.951843   -22399.198   -32128.306 
   90600    305.60645   -22285.425    116.60221   -22402.027   -22688.986 
   90800    335.42805   -22284.242    127.98045   -22412.222   -13352.231 
   91000    269.70833   -22305.188    102.90551   -22408.094    11740.363 
   91200    288.30917   -22307.384    110.00254   -22417.387    20870.443 
   91400    293.63006   -22280.523    112.03269   -22392.555   -3045.7188 
   91600    299.30075   -22286.358    114.19631   -22400.554   -1022.7315 
   91800    289.33167   -22305.787    110.39267    -22416.18    4260.9984 
   92000    339.44169   -22271.819    129.51183   -22401.331   -10342.469 
   92200     320.6574    -22293.59    122.34481   -22415.935   -17392.506 
   92400    275.91173   -22290.975    105.27238   -22396.247   -1158.0487 
   92600    312.16973   -22271.563    119.10639   -22390.669    1131.2246 
   92800    290.84581   -22289.971    110.97038   -22400.941   -8074.8759 
   93000    334.05295   -22261.774    127.45579    -22389.23   -18509.965 
   93200    298.02028   -22276.964    113.70776   -22390.671   -4206.8906 
   93400    294.31399   -22292.653    112.29364   -22404.947    2756.8142 
   93600    314.75397   -22283.987    120.09239   -22404.079     4174.451 
   93800    334.09593   -22269.828    127.47219     -22397.3    11668.234 
   94000    285.54413   -22292.215    108.94756   -22401.163    26853.645 
   94200       269.17   -22292.377    102.70011   -22395.077    24951.726 
   94400    348.26992   -22264.929    132.88019   -22397.809    1463.2326 
   94600    287.85105   -22290.813    109.82775   -22400.641    4415.4171 
   94800    296.66571   -22288.559    113.19093    -22401.75    5144.7209 
   95000    335.34969    -22257.56    127.95056   -22385.511   -10295.655 
   95200    283.05352   -22286.717    107.99728   -22394.714    -12109.78 
   95400    287.33026   -22285.738    109.62905   -22395.367    19796.609 
   95600    292.30472   -22282.626    111.52702   -22394.153   -3295.0066 
   95800    290.07069   -22303.252    110.67464   -22413.927   -10887.173 
   96000    310.50952   -22287.688    118.47295   -22406.161   -1321.8511 
   96200    310.59734    -22283.13    118.50645   -22401.637   -8562.3401 
   96400    301.87291   -22279.491     115.1777   -22394.668   -4544.0597 
   96600    324.37246   -22303.207    123.76226    -22426.97   -17690.407 
   96800    279.76104   -22320.063    106.74106   -22426.804   -18564.819 
   97000    354.12309   -22299.141    135.11343   -22434.255    3298.0872 
   97200    285.11364   -22292.876    108.78331   -22401.659   -15820.802 
   97400    309.28141   -22315.007    118.00437   -22433.012    9139.1337 
   97600    279.62317   -22307.822    106.68845    -22414.51   -16187.192 
   97800    334.96116   -22291.142    127.80231   -22418.945    6943.0254 
   98000    273.79026   -22311.709    104.46295   -22416.172   -17204.229 
   98200    297.05518   -22304.839    113.33953   -22418.178   -13230.662 
   98400     345.2857   -22282.319    131.74158   -22414.061    5350.3497 
   98600    287.96799   -22315.556    109.87237   -22425.429    22331.933 
   98800    295.82088   -22312.853    112.86859   -22425.721    5099.5368 
   99000    311.11155   -22290.414    118.70265   -22409.116   -9066.0396 
   99200    270.59456   -22320.821    103.24365   -22424.065     15340.23 
   99400    311.08879   -22306.252    118.69396   -22424.946    20998.303 
   99600    316.89967   -22294.226    120.91107   -22415.137   -3883.8826 
   99800    270.51505   -22318.105    103.21331   -22421.319    2348.4089 
  100000    294.72539   -22316.611    112.45061   -22429.062    11439.662 
  100200    334.68389   -22291.335    127.69653   -22419.032   -6996.1709 
  100400    303.23565   -22309.085    115.69765   -22424.783    134.48519 
  100600    312.54485   -22312.566    119.24951   -22431.815   -7508.2638 
  100800    308.07925   -22309.783    117.54569   -22427.329   -13881.127 
  101000    338.64492   -22294.791    129.20783   -22423.999    5192.9611 
  101200    268.93985   -22314.869     102.6123   -22417.482    30099.663 
  101400    286.82211   -22315.994    109.43516   -22425.429   -27075.576 
  101600    330.22583   -22299.793    125.99558   -22425.789    1743.6878 
  101800     315.3107   -22308.703    120.30481   -22429.008    7594.3609 
  102000    262.26243   -22328.225    100.06457    -22428.29   -217.97409 
  102200      305.043   -22296.894    116.38723   -22413.281    5939.9505 
  102400    280.65429   -22309.947    107.08187   -22417.029   -8997.4987 
  102600    293.15507   -22322.235    111.85147   -22434.086    301.57558 
  102800    339.41185   -22292.702    129.50045   -22422.202    5039.2751 
  103000    278.11125   -22319.123    106.11159   -22425.235   -6562.1444 
  103200    272.24908   -22313.588    103.87492   -22417.463    6748.5032 
  103400    323.50077    -22289.95    123.42968    -22413.38    3765.4293 
  103600    280.25921   -22314.206    106.93113   -22421.137    6878.5265 
  103800    287.30218   -22315.307    109.61833   -22424.925   -13479.556 
  104000    301.14712   -22309.167    114.90078   -22424.068     2546.047 
  104200    311.29355   -22316.787    118.77209   -22435.559    10779.441 
  104400    265.47281   -22328.888    101.28947   -22430.177   -24018.873 
  104600     282.7002   -22304.652    107.86248   -22412.515   -15532.146 
  104800    280.44836   -22322.075     107.0033   -22429.078   -5742.4333 
  105000    291.83368   -22312.341     111.3473   -22423.689   -1365.4059 
  105200    289.58699   -22298.344    110.49009   -22408.834    10848.649 
  105400     252.8854   -22327.453    96.486829    -22423.94    16472.615 
  105600    319.94119   -22311.857    122.07154   -22433.929    13090.168 
  105800    309.99264   -22306.115    118.27574   -22424.391   -24962.618 
  106000     318.2291    -22295.82    121.41831   -22417.238    11455.452 
  106200    285.50276    -22316.51    108.93177   -22425.442    14295.809 
  106400    287.42774   -22309.809    109.66624   -22419.476    7445.0751 
  106600    326.54967   -22298.261    124.59296   -22422.854    7141.3202 
  106800    298.10453   -22315.626     113.7399   -22429.366    10726.031 
  107000     301.2412    -22310.48    114.93668   -22425.417   -11673.131 
  107200    312.85492    -22296.47    119.36782   -22415.838   -14237.235 
  107400    295.57995   -22323.666    112.77666   -22436.443    3820.7159 
  107600    308.72304   -22314.114    117.79133   -22431.905   -5759.4634 
  107800    296.62393   -22312.179    113.17499   -22425.354   -28290.435 
  108000    294.90672   -22313.172     112.5198   -22425.691    10162.592 
  108200    353.10744    -22297.02    134.72591   -22431.746    11966.795 
  108400    265.52757   -22318.262    101.31037   -22419.573    12151.842 
  108600    310.31878   -22319.345    118.40017   -22437.746    1168.5203 
  108800    324.59602   -22290.199    123.84756   -22414.047   -797.02372 
  109000    285.50075   -22310.798    108.93101   -22419.729   -7771.7293 
  109200    317.54596   -22291.628    121.15766   -22412.786   -22961.669 
  109400    298.96914   -22293.314    114.06979   -22407.384    5051.4672 
  109600    302.18396   -22313.362    115.29638   -22428.658    2675.3222 
  109800     292.3617   -22319.128    111.54876   -22430.677   -4770.9699 
  110000    294.47375   -22326.136     112.3546   -22438.491   -11361.083 
  110200    313.11538   -22296.356     119.4672   -22415.823    8217.2245 
  110400    318.62677   -22306.435    121.57003   -22428.005    13945.529 
  110600    259.66542   -22327.089    99.073703   -22426.163    29345.647 
  110800    302.12938   -22313.276    115.27556   -22428.551   -14683.293 
  111000    309.04102   -22305.966    117.91265   -22423.879    21041.715 
  111200     332.6909   -22294.628    126.93611   -22421.564   -20907.294 
  111400    289.71663   -22310.968    110.53955   -22421.508    16136.068 
  111600    280.40514   -22318.703    106.98681    -22425.69   -12303.977 
  111800    300.42649    -22283.12    114.62583   -22397.746   -7053.9746 
  112000    279.68187   -22308.851    106.71085   -22415.562   -26461.585 
  112200    297.58139    -22305.95     113.5403    -22419.49   -2924.0167 
  112400    384.57217   -22275.986    146.73108   -22422.717     3902.795 
  112600    312.24359   -22299.757    119.13457   -22418.892    28808.795 
  112800    312.61229   -22316.794    119.27524   -22436.069    3358.1027 
  113000    322.96812   -22290.212    123.22645   -22413.438    14891.646 
  113200    293.16714   -22303.275    111.85607   -22415.131   -5741.2538 
  113400    277.28548   -22308.635    105.79653   -22414.431   -4985.0104 
  113600    304.42167   -22308.379    116.15016   -22424.529   -20688.676 
  113800    270.06885   -22323.482    103.04306   -22426.525    12608.243 
  114000    337.79405    -22297.37    128.88319   -22426.253   -1051.0661 
  114200    299.88435   -22302.906    114.41898   -22417.325   -2328.1357 
  114400    264.57693   -22316.402    100.94766   -22417.349    14821.595 
  114600    321.06125   -22285.147    122.49889   -22407.646   -13112.287 
  114800    319.49742   -22316.077    121.90222   -22437.979   -10411.582 
  115000    295.94028   -22306.444    112.91415   -22419.358   -1115.6448 
  115200    298.80708   -22293.704    114.00796   -22407.712    -1279.502 
  115400    297.93126   -22306.921    113.67379   -22420.595    8121.5931 
  115600    300.74364   -22323.158    114.74684   -22437.905    22035.756 
  115800    297.82728   -22294.118    113.63412   -22407.752    210.32701 
  116000    283.35429   -22304.578    108.11204    -22412.69    3400.9487 
  116200    285.20382    -22305.83    108.81772   -22414.648    11605.175 
  116400     301.1055   -22311.242     114.8849   -22426.127    5498.9742 
  116600    269.90035   -22330.294    102.97878   -22433.273    10475.469 
  116800    321.13903   -22301.644    122.52857   -22424.172   -14209.168 
  117000    276.43585   -22314.592    105.47235   -22420.064    15917.023 
  117200    334.96166   -22294.855     127.8025   -22422.658    -18559.89 
  117400     323.4248   -22293.271    123.40069   -22416.672   -965.28916 
  117600    312.84259   -22309.402    119.36312   -22428.765    21075.115 
  117800    288.71471   -22310.234    110.15727   -22420.392   -3690.0139 
  118000    350.22573   -22286.892    133.62642   -22420.518   -6225.5194 
  118200     284.7998    -22315.86    108.66357   -22424.523    2143.2031 
  118400    264.01011   -22316.424    100.73139   -22417.156   -19722.348 
  118600    320.59096   -22306.147    122.31946   -22428.466   -5514.2749 
  118800    281.56234    -22314.07    107.42833   -22421.498   -20251.923 
  119000     286.8613   -22312.423    109.45012   -22421.873    568.57345 
  119200    306.05268    -22296.52    116.77247   -22413.292   -6569.1777 
  119400    348.68696   -22299.409    133.03931   -22432.448   -7440.5041 
  119600    305.76113   -22324.249    116.66123    -22440.91   -9322.4358 
  119800    320.67343   -22299.677    122.35092   -22422.028    -3308.817 
  120000    338.17617   -22295.008    129.02898   -22424.037    20327.767 
  120200    313.49849   -22308.569    119.61337   -22428.182   -9322.8159 
  120400     287.9762    -22314.49     109.8755   -22424.366    18330.037 
  120600    318.60724   -22308.039    121.56258   -22429.601    5678.3851 
  120800    287.16108   -22313.193     109.5645   -22422.758   -5356.1932 
  121000    283.23342   -22326.894    108.06592    -22434.96    7714.7606 
  121200    305.95219   -22298.095    116.73412   -22414.829   -11349.708 
  121400    300.23266   -22312.857    114.55187   -22427.409    877.35089 
  121600    271.14132   -22325.338    103.45226    -22428.79    10924.797 
  121800    279.29194   -22312.746    106.56208   -22419.308    827.36976 
  122000    341.74628   -22295.121    130.39114   -22425.512   -12905.294 
  122200    383.13043   -22284.791      146.181   -22430.972    9353.8645 
  122400    294.06538   -22320.062    112.19879   -22432.261     11093.23 
  122600    326.95578   -22308.658    124.74791   -22433.406   -8545.4505 
  122800    330.56045   -22298.251    126.12325   -22424.375   -23019.316 
  123000    260.39654   -22325.737    99.352657    -22425.09   -6789.2894 
  123200    320.08548   -22299.365    122.12659   -22421.492   -983.31594 
  123400    284.56948   -22306.483    108.57569   -22415.059   -3029.2548 
  123600    300.51974   -22311.058    114.66141   -22425.719   -11261.972 
  123800    302.19484   -22311.834    115.30053   -22427.135    16442.843 
  124000    329.83867   -22295.627    125.84786   -22421.474    23056.123 
  124200    285.79783   -22299.757    109.04436   -22408.802    16468.511 
  124400    281.16308   -22315.168      107.276   -22422.444   -6318.8508 
  124600    306.85998   -22295.363    117.08049   -22412.444   -10296.308 
  124800     317.5078    -22304.06     121.1431   -22425.203    5090.5836 
  125000    287.51047   -22311.332    109.69781    -22421.03   -24195.731 
  125200    295.57217   -22297.749     112.7737   -22410.523   -13144.322 
  125400     289.6564   -22291.861    110.51657   -22402.378    9055.8779 
  125600    303.30624   -22311.959    115.72458   -22427.684    584.83704 
  125800    314.37285   -22305.082    119.94698   -22425.029   -19874.647 
  126000     326.4839    -22282.75    124.56787   -22407.317   -16562.736 
  126200    301.36779   -22316.975    114.98498    -22431.96    6429.1764 
  126400    309.57422   -22300.919    118.11609   -22419.035    1670.8795 
  126600    294.41979   -22304.173    112.33401   -22416.507   -9359.7962 
  126800    282.52017   -22323.343    107.79379   -22431.137   -3437.2175 
  127000    332.65995    -22303.94     126.9243   -22430.864    9413.6274 
  127200    302.46865   -22304.401      115.405   -22419.806    12113.493 
  127400    272.98691   -22331.595    104.15643   -22435.752     -2954.09 
  127600    282.66186   -22314.386    107.84785   -22422.234   -4310.7086 
  127800    294.02049   -22308.114    112.18166   -22420.295    3895.6504 
  128000    258.17818   -22326.141    98.506254   -22424.647    11902.748 
  128200    290.45977    -22322.87    110.82309   -22433.693    3702.9074 
  128400    314.06375   -22303.161    119.82904    -22422.99   -9608.5523 
  128600    284.05907   -22312.353    108.38095   -22420.734    -25619.36 
  128800    278.96742   -22330.728    106.43826   -22437.166   -18082.503 
  129000    292.55037    -22300.38    111.62075       -22412   -9393.6621 
  129200    285.33648   -22309.871    108.86833   -22418.739    2178.2834 
  129400    263.14748   -22330.743    100.40226   -22431.146     18001.42 
  129600    298.62319   -22299.638    113.93779   -22413.576    9336.4662 
  129800    280.19219    -22309.08    106.90556   -22415.985    16956.797 
  130000    272.08434   -22329.272    103.81206   -22433.084   -19001.728 
  130200    328.20472   -22295.935    125.22444    -22421.16   -7536.4018 
  130400    318.74929   -22311.545    121.61678   -22433.162     4488.844 
  130600    286.27614   -22323.443    109.22685    -22432.67   -6597.0308 
  130800    329.94305   -22293.034    125.88769   -22418.922     4939.588 
  131000    284.27082   -22310.485    108.46174   -22418.946    5508.4369 
  131200    280.44696   -22331.236    107.00277   -22438.238   -4632.1539 
  131400     334.4388   -22297.582    127.60301   -22425.185    14157.137 
  131600    291.93451   -22314.791    111.38577   -22426.177   -7612.6184 
  131800    280.60413   -22329.023    107.06274   -22436.086   -9307.2275 
  132000    295.66622   -22300.323    112.80958   -22413.132   -4181.5317 
  132200    293.30968   -22298.381    111.91046   -22410.291   -10396.181 
  132400    278.52114    -22322.92    106.26798   -22429.188    4763.5651 
  132600    327.12704     -22303.2    124.81326   -22428.014    1361.0722 
  132800    331.55392   -22280.075     126.5023   -22406.578    18806.013 
  133000    312.77163   -22305.941    119.33604   -22425.277    5630.4007 
  133200    293.39419   -22322.216     111.9427   -22434.159     18569.23 
  133400    308.66645   -22288.099    117.76974   -22405.869   -7861.6319 
  133600    329.13324    -22309.56    125.57871   -22435.139   -7091.1883 
  133800    266.38399   -22319.283    101.63713    -22420.92    1419.3186 
  134000    301.36568   -22303.967    114.98417   -22418.951    508.16087 
  134200    288.43224   -22306.936     110.0495   -22416.985   -16911.184 
  134400    289.11918   -22314.553     110.3116   -22424.865    1941.3603 
  134600    282.86817   -22315.051    107.92656   -22422.977   -10795.365 
  134800    321.84939   -22292.362     122.7996   -22415.161     5357.143 
  135000    298.90266   -22310.577    114.04442   -22424.621   -7424.3976 
  135200    288.67519   -22309.701     110.1422   -22419.843    6517.8038 
  135400    346.42163   -22295.006    132.17498   -22427.181    33269.916 
  135600    315.30803   -22305.461    120.30379   -22425.765   -9430.7056 
  135800    256.67075   -22321.568    97.931105     -22419.5    27106.652 
  136000    282.35608   -22297.679    107.73118    -22405.41   -13794.167 
  136200    347.70972   -22273.824    132.66645    -22406.49    17704.711 
  136400    293.60971   -22307.153    112.02493   -22419.178   -793.69304 
  136600    280.23017   -22319.358    106.92005   -22426.278    12254.029 
  136800    303.35841   -22292.192    115.74448   -22407.937    8562.0964 
  137000    297.29233   -22312.514    113.43001   -22425.944   -24836.752 
  137200    272.05276   -22314.248    103.80001   -22418.048    6455.1251 
  137400    323.23374    -22291.98    123.32779   -22415.308    4453.8958 
  137600    300.14263   -22316.277    114.51753   -22430.794    30633.952 
  137800    267.33046    -22314.73    101.99825   -22416.728   -7860.8409 
  138000     316.9336   -22294.234    120.92401   -22415.158    2435.5925 
  138200    306.73929   -22307.993    117.03444   -22425.027   -11736.152 
  138400    272.65478   -22307.941    104.02971   -22411.971   -3416.6601 
  138600    338.68599   -22286.496     129.2235   -22415.719   -17915.552 
  138800    282.09997   -22317.448    107.63346   -22425.082   -23178.659 
  139000    320.61582   -22307.167    122.32894   -22429.496    -3047.791 
  139200    325.36111   -22294.448    124.13948   -22418.588    24414.533 
  139400     293.4138   -22327.896    111.95018   -22439.846   -3211.9348 
  139600    287.53036   -22307.493    109.70539   -22417.198    8122.5229 
  139800    303.92137   -22304.171    115.95928    -22420.13   -11644.715 
  140000    278.34683   -22331.429    106.20148   -22437.631   -23212.429 
  140200    285.02419   -22331.448    108.74918   -22440.197    2994.1542 
  140400    322.49475   -22306.691    123.04584   -22429.737   -6276.5918 
  140600    315.23159   -22304.163    120.27462   -22424.438   -10791.897 
  140800    304.39786   -22330.115    116.14108   -22446.256    3532.1009 
  141000    297.74601   -22303.351    113.60311   -22416.954   -12755.654 
  141200    287.81999   -22310.037     109.8159   -22419.853   -21252.639 
  141400    278.11588   -22330.376    106.11336   -22436.489    24441.597 
  141600    290.80078   -22314.119     110.9532   -22425.072   -12258.157 
  141800     294.4193   -22301.004    112.33383   -22413.338   -19891.762 
  142000    277.85972   -22326.115    106.01562   -22432.131    11999.173 
  142200    312.41165   -22305.448    119.19869   -22424.646    4728.0895 
  142400    287.46184   -22304.497    109.67925   -22414.176   -500.89973 
  142600    265.44276    -22322.06    101.27801   -22423.338   -7672.1128 
  142800    313.85685   -22298.363     119.7501   -22418.113   -13641.859 
  143000    314.64085   -22299.669    120.04923   -22419.718   -11901.405 
  143200    286.51784   -22317.722    109.31907   -22427.041    20836.699 
  143400    320.26085   -22309.361     122.1935   -22431.555    12870.527 
  143600    303.54089   -22316.117    115.81411   -22431.931    15883.258 
  143800    270.58815   -22330.672     103.2412   -22433.913    -571.6742 
  144000    296.47211   -22301.078    113.11706   -22414.195    227.07888 
  144200    301.17061   -22314.105    114.90975   -22429.014   -1518.9655 
  144400    254.45217   -22332.903    97.084619   -22429.987    -19524.82 
  144600    302.84071   -22299.472    115.54696   -22415.019   -3816.6156 
  144800    289.01144   -22315.931    110.27049   -22426.201    5828.1577 
  145000     292.4749    -22317.12    111.59195   -22428.712    13608.818 
  145200    296.10261   -22294.333    112.97608   -22407.309    -16567.49 
  145400    307.55955   -22310.926    117.34741   -22428.273   -8624.4549 
  145600    300.81147   -22324.118    114.77272    -22438.89     6011.891 
  145800    314.56419   -22312.268    120.01998   -22432.288   -8136.4092 
  146000    297.75848    -22305.29    113.60787   -22418.898   -5449.8309 
  146200    282.89707   -22299.961    107.93759   -22407.899   -3232.8308 
  146400     274.2363   -22317.767    104.63313     -22422.4    1924.8544 
  146600    288.94206   -22301.198    110.24402   -22411.442    17729.115 
  146800    316.49087    -22301.36    120.75509   -22422.115    13368.534 
  147000    276.47101   -22318.971    105.48577   -22424.457   -3298.6693 
  147200    327.37382   -22292.847    124.90741   -22417.754    27175.988 
  147400    301.55207   -22281.596    115.05529   -22396.651   -18893.985 
  147600    289.22039   -22305.657    110.35021   -22416.008    -13053.99 
  147800    280.84622   -22320.261     107.1551   -22427.417    9784.9362 
  148000    300.97031   -22300.305    114.83332   -22415.138   -6099.1695 
  148200    303.89132   -22302.775    115.94781   -22418.722    21256.769 
  148400    259.75579   -22322.588    99.108181   -22421.696   -26791.601 
  148600    297.46781   -22304.311    113.49696   -22417.808    6842.7282 
  148800    310.56855   -22304.976    118.49547   -22423.472    13967.849 
  149000    240.17987   -22331.799    91.639111   -22423.438    8217.9739 
  149200    313.99491   -22323.299    119.80278   -22443.102    12419.758 
  149400    302.12261   -22307.774    115.27297   -22423.047    16738.584 
  149600    304.94848   -22316.625    116.35117   -22432.976    8813.4107 
  149800     290.4146   -22333.897    110.80586   -22444.703    4325.0419 
  150000    319.80472   -22310.288    122.01947   -22432.307   -1270.8144 
  150200    287.87682   -22306.384    109.83758   -22416.222   -4592.7668 
  150400    263.68037   -22334.237    100.60558   -22434.843     2867.477 
  150600    269.57557   -22310.874    102.85486   -22413.729   -20805.416 
  150800    321.33492   -22305.208    122.60331   -22427.811   -4758.4962 
  151000    314.75875   -22295.469    120.09421   -22415.564   -4557.0809 
  151200    296.64104    -22316.34    113.18152   -22429.521   -12184.514 
  151400    326.91769   -22313.245    124.73338   -22437.978   -9993.0047 
  151600    343.64937   -22293.951    131.11725   -22425.069    6067.5357 
  151800    292.31193   -22308.943    111.52977   -22420.473    6256.4007 
  152000    269.05996   -22314.624    102.65813   -22417.283   -3549.6126 
  152200    294.00072   -22286.437    112.17412   -22398.611    22133.701 
  152400    284.01056   -22314.666    108.36243   -22423.028    -18644.17 
  152600    298.80328    -22316.87    114.00651   -22430.876   -3542.2722 
  152800    343.10254   -22283.559    130.90861   -22414.468   -4196.5693 
  153000    301.32684   -22309.006    114.96935   -22423.976     17480.47 
  153200    311.12644   -22307.704    118.70833   -22426.413   -14918.287 
  153400    315.81461   -22294.461    120.49707   -22414.958   -9912.3827 
  153600    256.91238   -22316.293    98.023296   -22414.316    2807.2354 
  153800    308.22128    -22318.86    117.59988    -22436.46    19333.702 
  154000    324.50194    -22287.94    123.81167   -22411.752   -6064.0875 
  154200    321.65772   -22307.521    122.72647   -22430.247   -6693.0996 
  154400    277.46743   -22319.215    105.86595   -22425.081    1094.1319 
  154600     324.7935   -22288.701    123.92291   -22412.624   -2213.8818 
  154800    303.05002   -22313.826    115.62682   -22429.452   -21341.009 
  155000    303.32504   -22315.707    115.73176   -22431.439    11155.813 
  155200    306.29329   -22295.289    116.86427   -22412.154    8257.2094 
  155400    301.34273   -22308.272    114.97541   -22423.248   -3498.2734 
  155600    291.05611   -22310.158    111.05062   -22421.208    18044.159 
  155800    277.88066   -22316.083    106.02361   -22422.107    12577.788 
  156000    289.50933   -22317.773    110.46046   -22428.233    18623.418 
  156200    322.22936   -22291.293    122.94458   -22414.237    9390.9508 
  156400    278.05745   -22322.865    106.09106   -22428.956   -6368.8402 
  156600    297.21771   -22310.466    113.40154   -22423.867    6218.4316 
  156800    285.09519   -22301.637    108.77627   -22410.414   -3239.6815 
  157000    254.44967    -22329.02    97.083666   -22426.103    7966.0086 
  157200    319.35144   -22310.314    121.84653   -22432.161    8705.7621 
  157400    269.25783   -22301.836    102.73363    -22404.57    -4724.623 
  157600     275.3005   -22333.789    105.03917   -22438.828    2014.2061 
  157800    322.00858   -22304.526    122.86034   -22427.387    4435.3241 
  158000    254.91972    -22316.87     97.26301   -22414.133    6720.2637 
  158200    268.75419   -22340.288    102.54146    -22442.83   -1735.1159 
  158400     271.6652   -22320.738    103.65214    -22424.39    16913.721 
  158600    320.33765    -22303.95    122.22281   -22426.173    4518.5816 
  158800    295.90847   -22318.355    112.90201   -22431.257   -12101.753 
  159000    266.58975   -22331.863    101.71564   -22433.578   -1773.3164 
  159200    274.45611   -22301.545      104.717   -22406.262    15759.492 
  159400    308.93831   -22314.012    117.87346   -22431.886   -9476.1706 
  159600    291.35505   -22324.964    111.16468   -22436.129     17266.49 
  159800    273.56179   -22309.419    104.37577   -22413.795     11186.97 
  160000    309.75817   -22296.008    118.18627   -22414.195   -3579.7994 
  160200     288.0374   -22323.806    109.89885   -22433.704   -15737.502 
  160400    307.27077   -22312.591    117.23722   -22429.828    -29800.88 
  160600     304.2947   -22302.113    116.10172   -22418.214   -10061.755 
  160800    307.81397   -22316.314    117.44448   -22433.759   -6088.8991 
  161000    262.03695   -22337.575    99.978545   -22437.553   -11288.274 
  161200    276.54495   -22314.405    105.51398   -22419.919    14273.408 
  161400    335.29938   -22300.634    127.93136   -22428.565    10832.515 
  161600    266.72644   -22333.324    101.76779   -22435.092    5201.3339 
  161800    278.67718   -22319.234    106.32752   -22425.561   -8438.6587 
  162000    315.59412   -22303.744    120.41294   -22424.157    19398.248 
  162200     276.9983   -22320.059    105.68695   -22425.746    3353.8495 
  162400    289.99785    -22329.84    110.64685   -22440.486   -7277.0253 
  162600    308.46033   -22308.291    117.69109   -22425.982   -6763.7077 
  162800    302.60007    -22299.84    115.45515   -22415.295   -15038.355 
  163000    279.45532   -22317.571    106.62441   -22424.196    2895.2522 
  163200    290.05933   -22312.899    110.67031   -22423.569    4465.9676 
  163400    298.64855   -22298.385    113.94747   -22412.333    439.25174 
  163600    325.42488   -22314.237    124.16381     -22438.4   -6029.9069 
  163800    312.79527   -22312.191    119.34506   -22431.536   -2340.3907 
  164000    367.39391   -22288.803    140.17683    -22428.98    38933.637 
  164200    313.82649   -22293.056    119.73852   -22412.795    6956.8179 
  164400    290.25703   -22313.771    110.74574   -22424.516   -20691.727 
  164600    289.63921   -22317.378    110.51001   -22427.888   -2500.2789 
  164800    323.33641   -22300.771    123.36697   -22424.138    12767.546 
  165000    335.62486   -22299.057    128.05555   -22427.112   -13705.836 
  165200     288.7583   -22318.137    110.17391   -22428.311    2076.0092 
  165400    307.06734   -22300.225    117.15961   -22417.384    24873.814 
  165600    302.81738   -22317.127    115.53806   -22432.665   -23819.692 
  165800    293.05795   -22321.962    111.81441   -22433.776    12224.941 
  166000    336.88359   -22300.632    128.53581   -22429.167   -14166.941 
  166200    333.52826   -22309.338     127.2556   -22436.594    6581.0099 
  166400    272.36591    -22327.52    103.91949   -22431.439    10664.966 
  166600    278.32166   -22324.909    106.19187     -22431.1    20234.195 
  166800    311.13491   -22304.358    118.71156    -22423.07   -10688.868 
  167000     288.6131   -22320.569     110.1185   -22430.688    672.48859 
  167200    286.40227   -22320.726    109.27498   -22430.001   -16521.549 
  167400    300.61808   -22299.812    114.69893   -22414.511   -19841.792 
  167600    284.79482   -22321.017    108.66167   -22429.679   -4308.5419 
  167800    306.22772   -22294.591    116.83925    -22411.43   -29194.177 
  168000     291.4789   -22299.869    111.21193    -22411.08    26806.138 
  168200     318.6167   -22313.044    121.56619    -22434.61   -7136.8121 
  168400    277.18352   -22317.955    105.75762   -22423.713    2709.2804 
  168600    327.22184   -22296.995    124.84943   -22421.844   -8019.1422 
  168800    326.90616   -22323.672    124.72898   -22448.401   -861.93505 
  169000     285.6127   -22331.188    108.97372   -22440.162    -27947.28 
  169200    316.94112   -22306.242    120.92688   -22427.169    139.78854 
  169400    307.75525   -22326.836    117.42207   -22444.258   -11877.868 
  169600    288.60753   -22331.785    110.11638   -22441.901    4123.7139 
  169800     314.0386   -22313.195    119.81944   -22433.015    848.60812 
  170000    290.03487   -22341.953    110.66097   -22452.614   -18410.941 
  170200    303.56746    -22324.13    115.82425   -22439.955   -7643.9974 
  170400    295.09814   -22321.865    112.59283   -22434.457    19723.511 
  170600    283.96967    -22339.87    108.34684   -22448.217   -24742.987 
  170800    288.58614   -22346.633    110.10822   -22456.741    15023.133 
  171000     316.8427   -22322.586    120.88933   -22443.475    4959.7084 
  171200    314.04428   -22317.599    119.82161   -22437.421    15418.466 
  171400    282.52166   -22343.463    107.79436   -22451.257   -5056.6758 
  171600    306.45239   -22323.569    116.92498   -22440.494   -4110.2604 
  171800    291.33866   -22321.962    111.15843   -22433.121   -6183.3318 
  172000    321.57394   -22332.758    122.69451   -22455.453    9026.5219 
  172200    320.68251   -22333.406    122.35439   -22455.761    9203.3591 
  172400    300.71231   -22316.625    114.73488    -22431.36   -5098.5455 
  172600    271.08336     -22345.4    103.43014    -22448.83   -26223.259 
  172800     315.6764   -22325.676    120.44434    -22446.12    -12734.42 
  173000    324.15639   -22321.711    123.67983   -22445.391   -17.268907 
  173200    302.23859   -22333.491    115.31723   -22448.808    12467.165 
  173400    290.28013    -22339.42    110.75455   -22450.174   -30317.761 
  173600    340.07612   -22316.146     129.7539     -22445.9    11601.493 
  173800    309.73228   -22332.751     118.1764   -22450.927    3721.7388 
  174000    292.82915   -22335.573    111.72711     -22447.3    26863.948 
  174200    308.86569   -22310.098    117.84575   -22427.943    14473.958 
  174400    279.41315   -22335.075    106.60833   -22441.684    20051.836 
  174600    287.72404   -22332.911    109.77929    -22442.69   -10042.353 
  174800    290.05516   -22309.399    110.66871   -22420.068    16681.419 
  175000    367.79711   -22290.091    140.33067   -22430.422    7081.2079 
  175200    314.07062    -22326.68    119.83166   -22446.512   -34703.111 
  175400    264.97238   -22329.001    101.09854   -22430.099    23872.724 
  175600    328.24474   -22303.938    125.23971   -22429.177   -2019.6836 
  175800    324.20839   -22335.432    123.69967   -22459.131    2875.0123 
  176000    284.27939   -22327.121      108.465   -22435.586    3384.5104 
  176200    331.22955   -22309.833    126.37854   -22436.211   -24262.987 
  176400    279.65296   -22342.983    106.69982   -22449.683   -9543.5758 
  176600    289.77438   -22330.465    110.56158   -22441.027   -24080.564 
  176800    304.19356   -22321.116    116.06313   -22437.179    12763.637 
  177000    266.99672   -22350.333    101.87091   -22452.204   -17928.017 
  177200    319.51958   -22334.348    121.91068   -22456.258    4059.5273 
  177400     332.6426   -22321.271    126.91768   -22448.189    2898.7251 
  177600    297.59669   -22308.782    113.54614   -22422.328    -1310.768 
  177800    286.50319   -22335.078    109.31349   -22444.391    5747.9327 
[...]
  950000    290.39668   -22436.489    110.79902   -22547.288    48802.053 
  950200    317.27548   -22433.446    121.05446     -22554.5    12923.544 
  950400    332.26138   -22414.106    126.77223   -22540.878    6553.0241 
  950600    274.41657   -22443.238    104.70191    -22547.94    8807.4954 
  950800    318.94179   -22433.457    121.69023   -22555.148     17193.43 
  951000    334.69233   -22425.267    127.69975   -22552.967   -2750.6269 
  951200    354.18135   -22417.597    135.13566   -22552.732   -5497.9588 
  951400    283.13892    -22440.77    108.02987     -22548.8   -4370.3076 
  951600    301.72084   -22416.457    115.11968   -22531.577    10218.542 
  951800    337.89448   -22419.524    128.92151   -22548.445    13351.395 
  952000     306.1766   -22438.005    116.81975   -22554.825    1937.6865 
  952200    286.51334   -22429.451    109.31736   -22538.768    1660.7452 
  952400    319.91791   -22406.574    122.06266   -22528.636    5181.7559 
  952600    268.87549   -22433.342    102.58775    -22535.93    15587.394 
  952800    280.38848   -22433.009    106.98045   -22539.989   -43667.773 
  953000    314.18306    -22422.28    119.87456   -22542.155    12141.954 
  953200    273.16324   -22442.108    104.22371   -22546.332   -9437.2979 
  953400    289.31871   -22432.106    110.38773   -22542.494   -19463.999 
  953600    298.48845   -22424.101    113.88638   -22537.987     2711.608 
  953800    329.23315   -22432.232    125.61683   -22557.849    8249.3536 
  954000    294.30337   -22445.465    112.28959   -22557.754    149.41053 
  954200    326.20783   -22414.125    124.46254   -22538.587   -33090.941 
  954400     307.1758   -22439.046    117.20099   -22556.247    15390.435 
  954600    291.50003   -22438.418       111.22   -22549.638    28813.973 
  954800    369.76683   -22407.689     141.0822   -22548.772   -8187.0338 
  955000    291.91386   -22436.396    111.37789   -22547.774    14308.643 
  955200    314.24272   -22426.961    119.89732   -22546.858    19970.849 
  955400    306.92154   -22418.877    117.10397   -22535.981    12963.603 
  955600    307.18102   -22444.385    117.20298   -22561.588   -4414.5415 
  955800    343.30831   -22434.382    130.98712   -22565.369   -3762.0159 
  956000    293.46553   -22416.974    111.96992   -22528.944    2347.1749 
  956200    277.35074   -22430.145    105.82142   -22535.967    -8988.592 
  956400    324.06825   -22429.403    123.64619   -22553.049    27099.136 
  956600    297.24233   -22442.406    113.41093   -22555.817   -7256.0623 
  956800    309.29765    -22422.81    118.01057   -22540.821   -1199.2004 
  957000     275.2712   -22453.249    105.02799   -22558.277   -8015.1175 
  957200    309.86669   -22434.553    118.22768    -22552.78   -1044.9461 
  957400      343.186   -22419.348    130.94045   -22550.288   -13812.857 
  957600    283.76202    -22449.81    108.26761   -22558.077   -11242.668 
  957800    324.44709   -22436.405    123.79074   -22560.196    10884.576 
  958000    289.42896   -22431.425    110.42979   -22541.854    1540.0888 
  958200    347.26689   -22411.245    132.49749   -22543.742   -10945.038 
  958400     283.1519   -22435.559    108.03482   -22543.594    16101.501 
  958600    323.36635   -22444.864    123.37839   -22568.243    13381.023 
  958800    346.15204   -22406.732    132.07213   -22538.804   -14518.908 
  959000    278.98733   -22437.216    106.44586   -22543.662    -29718.89 
  959200    297.90198    -22437.65    113.66262   -22551.313     1961.837 
  959400    285.51877   -22419.267    108.93788   -22528.205    4184.1437 
  959600    368.10215   -22398.693    140.44705    -22539.14    1004.5226 
  959800    310.15427   -22437.505     118.3374   -22555.843    8163.1629 
  960000    277.47598   -22441.646    105.86921   -22547.515    5343.0798 
  960200    318.31805   -22414.382    121.45224   -22535.834    10872.545 
  960400    326.81921   -22431.286    124.69581   -22555.982    27587.836 
  960600    280.75841   -22430.446     107.1216   -22537.568   -26188.998 
  960800    311.97166   -22431.759    119.03082    -22550.79    7768.4291 
  961000    294.08911   -22448.623    112.20784    -22560.83    2669.8099 
  961200    309.45423    -22432.26    118.07031    -22550.33   -12239.901 
  961400    316.30214   -22427.615    120.68308   -22548.298   -4291.7355 
  961600    283.21679   -22460.468    108.05958   -22568.528    7985.3547 
  961800    291.41946   -22438.683    111.18926   -22549.873     8733.394 
  962000    307.73281   -22424.674    117.41351   -22542.087   -10398.637 
  962200    300.61616   -22440.587     114.6982   -22555.285   -3157.8752 
  962400    292.54706   -22439.257    111.61948   -22550.877    17800.965 
  962600    308.15766   -22426.496    117.57561   -22544.072    14858.501 
  962800      273.628   -22438.421    104.40104   -22542.822    4629.7694 
  963000    254.82903   -22462.107    97.228407   -22559.335    30657.831 
  963200    298.33597   -22434.883    113.82821   -22548.712    5728.9512 
  963400    290.31642   -22431.582     110.7684   -22542.351   -7559.0351 
  963600    298.99314   -22445.498    114.07895   -22559.576    13579.258 
  963800    311.17987   -22432.319    118.72871   -22551.048   -24755.467 
  964000     289.2545   -22423.405    110.36323   -22533.768   -33948.686 
  964200    276.28083   -22444.552    105.41321   -22549.966    24594.935 
  964400    277.91723    -22460.07    106.03756   -22566.108   -6122.9005 
  964600    307.10571   -22433.958    117.17424   -22551.132    254.65053 
  964800     285.2085   -22420.574     108.8195   -22529.394   -741.82564 
  965000    278.07601    -22448.46    106.09815   -22554.558    2303.3661 
  965200    268.41658   -22427.901    102.41265   -22530.314   -1477.9582 
  965400    316.13857   -22422.047    120.62068   -22542.668   -41415.606 
  965600    271.32017   -22449.047     103.5205   -22552.568    18400.115 
  965800    272.88131    -22448.74    104.11614   -22552.856   -18986.866 
  966000    322.97334   -22429.797    123.22844   -22553.026    11694.429 
  966200    334.45179   -22413.765    127.60797   -22541.373   -8310.3015 
  966400    312.26444   -22444.615    119.14252   -22563.757     1654.058 
  966600    293.19818   -22431.743    111.86791   -22543.611   -743.14865 
  966800    324.89613   -22420.912    123.96207   -22544.874    3334.1666 
  967000    309.76434   -22429.906    118.18863   -22548.094   -13484.555 
  967200    267.68645   -22428.785    102.13407   -22530.919    4793.4839 
  967400    313.67426   -22406.993    119.68043   -22526.673    1337.4034 
  967600     286.4596   -22434.138    109.29685   -22543.435   -2294.3811 
  967800    310.47836   -22431.859    118.46106    -22550.32   -6638.0299 
  968000    322.29355   -22406.449    122.96907   -22529.418   -23563.991 
  968200    284.66667   -22431.228    108.61277   -22539.841   -14613.673 
  968400    320.83912   -22426.114    122.41414   -22548.528    12424.337 
  968600    316.20759   -22410.456    120.64701   -22531.103   -21374.332 
  968800    307.17494   -22428.596    117.20066   -22545.797    -10581.86 
  969000    269.21795   -22434.462    102.71841    -22537.18   -18171.552 
  969200    315.62817   -22414.837    120.42593   -22535.263    7636.1008 
  969400    320.24881   -22426.668    122.18891   -22548.857   -16238.118 
  969600    280.80083   -22441.611    107.13778   -22548.748    5433.8112 
  969800    291.22944   -22453.991    111.11676   -22565.108     14817.79 
  970000    291.95711    -22426.15    111.39439   -22537.544    10290.499 
  970200    293.17037   -22421.669     111.8573   -22533.526    5920.0722 
  970400    270.86428   -22446.373    103.34656    -22549.72    -18301.05 
  970600    325.52697   -22419.534    124.20276   -22543.736    32497.472 
  970800    319.51351   -22426.131    121.90836   -22548.039    2949.3687 
  971000    272.95717   -22444.057    104.14508   -22548.202   -29612.926 
  971200    260.94815   -22457.631     99.56312   -22557.194    1589.4017 
  971400    306.78085   -22427.617     117.0503   -22544.668   -11516.638 
  971600      298.718   -22427.818    113.97397   -22541.792   -1204.2792 
  971800    278.65909   -22451.697    106.32062   -22558.018    -852.0499 
  972000    313.97002   -22422.843    119.79328   -22542.637   -6649.8607 
  972200    323.96441   -22426.159    123.60658   -22549.765    -17499.14 
  972400    285.77974   -22446.645    109.03745   -22555.683   -19112.201 
  972600     265.2316   -22452.358    101.19744   -22553.555    -5363.881 
  972800    293.87857    -22424.95    112.12751   -22537.077   -28968.166 
  973000    295.97435   -22429.237    112.92714   -22542.165    10115.881 
  973200    272.33173     -22451.6    103.90645   -22555.507    10398.854 
  973400    308.12719   -22423.501    117.56398   -22541.065   -2968.0509 
  973600    300.76454   -22432.429    114.75481   -22547.184     10880.53 
  973800    277.57522   -22444.456    105.90707   -22550.363   -5186.2206 
  974000    311.12611   -22415.974     118.7082   -22534.682    -2944.766 
  974200    292.68394    -22436.85    111.67171   -22548.522   -12930.403 
  974400    273.34276   -22442.463     104.2922   -22546.755    16053.398 
  974600    333.50299   -22426.571    127.24596   -22553.817    8243.8947 
  974800    310.02515   -22417.459    118.28814   -22535.747   -1014.3761 
  975000    250.51079   -22438.647     95.58081   -22534.228   -13403.432 
  975200    262.62888   -22434.705    100.20439   -22534.909   -17291.435 
  975400    295.43375   -22420.202    112.72088   -22532.923    4739.0179 
  975600    286.70911   -22440.558    109.39205    -22549.95   -1878.4726 
  975800    296.23305   -22428.596    113.02585   -22541.622    8916.4666 
  976000    313.18315   -22419.119    119.49305   -22538.612   -15722.095 
  976200    278.05256   -22439.768     106.0892   -22545.857   -951.77988 
  976400    272.82484   -22455.521    104.09459   -22559.615   -1941.9573 
  976600    263.12919   -22426.804    100.39528   -22527.199    8221.4199 
  976800    298.31335   -22423.256    113.81957   -22537.076    6837.6346 
  977000    303.70412   -22449.872    115.87639   -22565.748   -4203.6701 
  977200    304.47293   -22428.435    116.16972   -22544.604   -3868.3239 
  977400    312.27523   -22429.974    119.14664   -22549.121   -7642.0161 
  977600    315.50498   -22438.071    120.37893    -22558.45    4712.0471 
  977800    332.01751   -22418.304    126.67918   -22544.984    -20791.89 
  978000    327.41693   -22429.641    124.92386   -22554.565    19726.502 
  978200    308.49668   -22440.256    117.70496   -22557.961    23016.564 
  978400    302.72854   -22423.386    115.50416    -22538.89   -1283.5056 
  978600    347.19052   -22407.591    132.46835   -22540.059    16284.544 
  978800    302.78636    -22437.72    115.52623   -22553.246   -10786.099 
  979000    294.08728   -22435.957    112.20715   -22548.164   -3727.3371 
  979200    337.92138   -22400.668    128.93177     -22529.6    3005.6082 
  979400     271.6604   -22439.243    103.65031   -22542.893   -12530.625 
  979600    299.66691    -22431.95    114.33602   -22546.286   -33463.235 
  979800    303.42755   -22424.911    115.77087   -22540.682    11750.404 
  980000    275.71725   -22446.113    105.19818   -22551.311    -26872.14 
  980200    302.13935   -22434.133    115.27936   -22549.412    4073.5559 
  980400    313.45438   -22424.216    119.59654   -22543.812   -14331.808 
  980600    291.21536   -22445.305    111.11138   -22556.416    8579.2129 
  980800    303.01799   -22444.366     115.6146    -22559.98   -6972.2275 
  981000    325.42737   -22418.949    124.16476   -22543.114    -1084.295 
  981200    299.26375   -22443.205    114.18219   -22557.387     18939.32 
  981400    295.82435   -22444.654    112.86991   -22557.524    8228.5477 
  981600    296.06355   -22431.152    112.96118   -22544.113    1704.2268 
  981800     279.4803   -22428.969    106.63394   -22535.603    5147.5422 
  982000    277.35822   -22440.096    105.82428    -22545.92    1069.6332 
  982200     292.3991   -22429.045    111.56303   -22540.608   -13799.309 
  982400    323.35896   -22420.965    123.37557   -22544.341    -19485.96 
  982600     283.2566   -22447.128    108.07477   -22555.202   -14256.498 
  982800    282.89632   -22426.921     107.9373   -22534.859   -20151.805 
  983000    289.36025    -22432.81    110.40358   -22543.214   -3861.1209 
  983200    238.37204   -22448.123    90.949347   -22539.073   -1549.8085 
  983400    283.89694   -22425.577    108.31909   -22533.896    5195.1173 
  983600     292.4202   -22430.894    111.57108   -22542.465    11682.429 
  983800    286.50484    -22448.36    109.31411   -22557.674    7894.6556 
  984000     310.4711   -22418.745    118.45829   -22537.203   -6660.1653 
  984200    307.11246   -22431.673    117.17682    -22548.85    10597.952 
  984400    286.59485   -22432.067    109.34846   -22541.415    712.59201 
  984600     309.7425   -22433.822    118.18029   -22552.002    16674.722 
  984800    272.33299   -22430.914    103.90693   -22534.821    1738.2987 
  985000    328.15188   -22405.383    125.20428   -22530.587    -14520.16 
  985200    321.29021   -22428.483    122.58625   -22551.069     20948.09 
  985400    301.90104   -22437.774    115.18844   -22552.963    2261.8448 
  985600    346.84673    -22413.68    132.33718   -22546.018   -1256.7962 
  985800    298.70903   -22440.628    113.97054   -22554.599    361.23059 
  986000    281.75807   -22439.021    107.50301   -22546.524    24403.926 
  986200    341.26366   -22418.597    130.20699   -22548.804   -8184.3564 
  986400    276.70216   -22446.516    105.57396    -22552.09    4765.8015 
  986600    293.44019   -22437.242    111.96025   -22549.203   -17989.777 
  986800    334.52773    -22426.62    127.63694   -22554.257   -6315.7068 
  987000    281.85612   -22428.062    107.54042   -22535.602    5303.6542 
  987200    290.36294   -22440.359    110.78615   -22551.145    3842.8965 
  987400    341.16912   -22416.771    130.17092   -22546.942   -2567.8368 
  987600    295.05474   -22435.965    112.57627   -22548.541    12416.353 
  987800    272.95964   -22444.208    104.14603   -22548.354    -612.9587 
  988000    330.80111   -22422.852    126.21507   -22549.067    -8542.384 
  988200    282.20709   -22437.308    107.67433   -22544.982    38930.258 
  988400    314.04711   -22442.552    119.82269   -22562.375    6155.5199 
  988600    301.71202   -22420.749    115.11632   -22535.865    13103.435 
  988800    298.09739    -22424.51    113.73718   -22538.247   -16075.909 
  989000    270.45992    -22445.88    103.19228   -22549.073     8904.866 
  989200    302.44908   -22417.211    115.39754   -22532.609   -3013.1428 
  989400    296.87386   -22429.781    113.27035   -22543.052   -31638.472 
  989600    287.94306   -22440.698    109.86286   -22550.561   -126.62962 
  989800      329.483    -22406.78    125.71216   -22532.492    2095.4357 
  990000    307.41404   -22436.918    117.29189   -22554.209   -11362.713 
  990200    284.12189   -22433.093    108.40491   -22541.498    3531.3695 
  990400    310.70955   -22407.368    118.54927   -22525.917   -7788.5289 
  990600    300.25774   -22439.323    114.56145   -22553.884    6226.1989 
  990800     301.6305   -22433.495    115.08521    -22548.58    11952.641 
  991000    326.41807   -22416.069    124.54275   -22540.612    9664.6082 
  991200    279.70945   -22441.325    106.72137   -22548.046   -22443.409 
  991400     308.5971   -22433.585    117.74327   -22551.328   -19260.734 
  991600    331.51298   -22415.334    126.48669   -22541.821    270.33272 
  991800    278.62912   -22437.925    106.30918   -22544.234   -7898.7214 
  992000    310.93766   -22432.493     118.6363   -22551.129   -4218.3248 
  992200    354.95796   -22391.468    135.43197     -22526.9   -4963.1914 
  992400    346.35399   -22413.999    132.14918   -22546.149     27720.71 
  992600    294.55707   -22435.766    112.38639   -22548.152    3152.7258 
  992800    304.73765   -22417.844    116.27073   -22534.115   -2784.7266 
  993000    344.60777   -22422.568    131.48292   -22554.051    621.50361 
  993200    306.79755   -22432.908    117.05667   -22549.965    4940.6252 
  993400    333.70103   -22422.832    127.32152   -22550.153   -13153.632 
  993600    288.22803   -22444.879    109.97159   -22554.851     35524.84 
  993800    307.63806   -22437.409    117.37736   -22554.786   -2844.2636 
  994000     309.5712   -22427.085    118.11494     -22545.2   -373.52338 
  994200    316.25618   -22440.553    120.66555   -22561.218    21829.527 
  994400     282.9881   -22445.407    107.97232   -22553.379    23953.574 
  994600    317.73236   -22422.355    121.22878   -22543.583     6881.368 
  994800    291.07586   -22445.902    111.05815    -22556.96    29035.734 
  995000    256.41539   -22455.875    97.833673   -22553.709   -19891.522 
  995200    316.38798   -22422.879    120.71584   -22543.595   -27315.735 
  995400    335.77305   -22416.245    128.11209   -22544.357    6246.4009 
  995600    277.20676   -22443.972    105.76649   -22549.738   -22333.723 
  995800     292.7173    -22435.57    111.68444   -22547.255    1341.9453 
  996000    305.38708   -22431.678    116.51851   -22548.196    -10013.43 
  996200    313.74686   -22421.774    119.70813   -22541.482    8047.6962 
  996400    316.95306   -22420.062    120.93144   -22540.993    4491.7435 
  996600     280.4885   -22444.619    107.01861   -22551.638    1890.2214 
  996800    305.71123    -22421.47    116.64219   -22538.112    15768.334 
  997000    296.46474    -22430.38    113.11425   -22543.494    15732.765 
  997200    277.75895   -22447.954    105.97717   -22553.931    1662.5186 
  997400    254.70393   -22446.241    97.180675   -22543.422    9848.1286 
  997600    307.61117    -22425.12     117.3671   -22542.487   -17725.478 
  997800    279.52311   -22448.478    106.65028   -22555.129   -13672.181 
  998000     313.1674   -22423.012    119.48704   -22542.499   -5415.2323 
  998200    294.03101    -22426.89    112.18568   -22539.075   -6394.0524 
  998400    308.21227   -22440.281    117.59644   -22557.877    2937.5564 
  998600    324.05866   -22405.086    123.64254   -22528.729   -17245.897 
  998800    282.75553   -22427.507    107.88359   -22535.391   -1834.2081 
  999000    296.09829   -22438.423    112.97443   -22551.397    8502.3497 
  999200    303.67227   -22416.506    115.86424   -22532.371    12185.467 
  999400    331.56768   -22417.866    126.50756   -22544.373    8466.6669 
  999600    322.28431   -22431.248    122.96554   -22554.214    132.34716 
  999800    265.84283   -22432.949    101.43065    -22534.38    536.49961 
 1000000    346.91804   -22402.139    132.36439   -22534.503     8939.064 
Loop time of 3551.61 on 8 procs for 1000000 steps with 129 atoms

Performance: 6.082 ns/day, 3.946 hours/ns, 281.562 timesteps/s
99.6% CPU use with 8 MPI tasks x no OpenMP threads

MPI task timing breakdown:
Section |  min time  |  avg time  |  max time  |%varavg| %total
---------------------------------------------------------------
Pair    | 2403.7     | 2764.8     | 2938.7     | 354.7 | 77.84
Neigh   | 0.27546    | 0.29812    | 0.32476    |   3.7 |  0.01
Comm    | 23.848     | 197.86     | 559.29     |1327.9 |  5.57
Output  | 0.078346   | 0.084436   | 0.11233    |   3.6 |  0.00
Modify  | 586.03     | 586.45     | 586.89     |   1.2 | 16.51
Other   |            | 2.171      |            |       |  0.06

Nlocal:    16.125 ave 40 max 3 min
Histogram: 3 1 0 2 0 0 0 0 0 2
Nghost:    476 ave 519 max 423 min
Histogram: 1 1 1 1 0 0 0 0 2 2
Neighs:    1117.5 ave 2668 max 231 min
Histogram: 3 0 1 2 0 0 0 0 0 2

Total # of neighbors = 8940
Ave neighs/atom = 69.3023
Neighbor list builds = 633
Dangerous builds = 0

unfix 1
unfix output
undump 1

Please see the log.cite file for references relevant to this simulation

Total wall time: 0:59:34
