ITEM: TIMESTEP
0
ITEM: NUMBER OF ATOMS
51
ITEM: BOX BOUNDS pp pp pp
0.0000000000000000e+00 1.1000000000000000e+01
0.0000000000000000e+00 1.1002000000000001e+01
0.0000000000000000e+00 1.1000000000000000e+01
ITEM: ATOMS id type x y z 
10 1 4.603 4.603 4.603 
11 1 3.085 3.085 3.085 
12 1 3.796 3.796 3.796 
46 1 0.726 0.725 0.725 
47 1 2.26 2.259 2.26 
48 1 1.551 1.55 1.55 
19 1 4.546 4.545 6.226 
20 1 3.013 3.013 7.764 
21 1 3.721 3.721 7.053 
31 1 0.668 0.667 10.103 
32 1 2.187 2.187 8.589 
33 1 1.476 1.475 9.298 
16 1 4.546 6.225 4.546 
17 1 3.013 7.765 3.013 
18 1 3.721 7.053 3.722 
25 1 0.668 10.103 0.668 
26 1 2.188 8.589 2.188 
27 1 1.476 9.298 1.476 
4 1 4.608 6.169 6.169 
5 1 3.086 7.684 7.684 
6 1 3.799 6.974 6.974 
37 1 0.729 10.046 10.046 
38 1 2.259 8.509 8.508 
39 1 1.552 9.219 9.219 
13 1 6.225 4.546 4.546 
14 1 7.764 3.013 3.013 
15 1 7.053 3.721 3.722 
28 1 10.102 0.667 0.668 
29 1 8.589 2.187 2.188 
30 1 9.298 1.475 1.476 
1 1 6.168 4.608 6.169 
2 1 7.684 3.086 7.684 
3 1 6.974 3.799 6.974 
40 1 10.045 0.728 10.046 
41 1 8.508 2.259 8.508 
42 1 9.218 1.551 9.218 
7 1 6.169 6.169 4.608 
8 1 7.684 7.684 3.086 
9 1 6.974 6.974 3.799 
43 1 10.046 10.047 0.729 
44 1 8.508 8.509 2.259 
45 1 9.219 9.219 1.552 
22 1 6.229 6.229 6.229 
23 1 7.764 7.765 7.765 
24 1 7.055 7.056 7.055 
34 1 10.108 10.108 10.107 
35 1 8.59 8.59 8.59 
36 1 9.301 9.301 9.3 
49 2 6.457 6.974 8.272 
50 2 7.571 6.981 9.276 
51 3 6.965 6.591 9.933 
ITEM: TIMESTEP
10
ITEM: NUMBER OF ATOMS
51
ITEM: BOX BOUNDS pp pp pp
0.0000000000000000e+00 1.1000000000000000e+01
0.0000000000000000e+00 1.1002000000000001e+01
0.0000000000000000e+00 1.1000000000000000e+01
ITEM: ATOMS id type x y z 
10 1 4.59725 4.59875 4.59675 
11 1 3.08159 3.08225 3.08114 
12 1 3.78984 3.78854 3.79072 
46 1 0.735158 0.733965 0.734255 
47 1 2.27032 2.26947 2.27003 
48 1 1.56337 1.56225 1.5629 
19 1 4.53477 4.53451 6.23503 
20 1 3.00341 3.00346 7.7736 
21 1 3.70941 3.70937 7.06481 
31 1 0.672865 0.672576 10.0962 
32 1 2.19082 2.1905 8.5858 
33 1 1.48206 1.48163 9.29069 
16 1 4.53294 6.23398 4.5348 
17 1 3.00505 7.77286 3.00524 
18 1 3.7098 7.06455 3.71039 
25 1 0.673038 10.0972 0.672949 
26 1 2.19138 8.58546 2.19126 
27 1 1.48273 9.29153 1.48306 
4 1 4.60502 6.17643 6.17761 
5 1 3.08276 7.68703 7.6871 
6 1 3.79366 6.98049 6.98034 
37 1 0.74049 10.0374 10.0372 
38 1 2.26822 8.49934 8.49877 
39 1 1.56415 9.20793 9.2073 
13 1 6.23402 4.53286 4.53436 
14 1 7.77332 3.0037 3.00407 
15 1 7.06451 3.70951 3.70998 
28 1 10.0959 0.672391 0.672786 
29 1 8.58571 2.19084 2.19188 
30 1 9.29067 1.48149 1.48211 
1 1 6.17517 4.60436 6.17775 
2 1 7.68705 3.08197 7.68731 
3 1 6.9817 3.79442 6.98075 
40 1 10.0371 0.739197 10.0373 
41 1 8.49918 2.26775 8.49907 
42 1 9.20646 1.56252 9.2072 
7 1 6.17804 6.17743 4.60257 
8 1 7.6875 7.68756 3.08217 
9 1 6.98099 6.98119 3.79235 
43 1 10.0372 10.038 0.740298 
44 1 8.49905 8.49955 2.26774 
45 1 9.20742 9.20813 1.56411 
22 1 6.22892 6.22704 6.20638 
23 1 7.87446 7.85639 7.67925 
24 1 7.0438 7.0683 7.12693 
34 1 10.0979 10.0986 10.0982 
35 1 8.58456 8.58843 8.57483 
36 1 9.29736 9.29696 9.29654 
49 2 6.38856 6.92891 8.27072 
50 2 7.55594 6.95123 9.33372 
51 3 6.97237 6.58692 9.9487 
ITEM: TIMESTEP
20
ITEM: NUMBER OF ATOMS
51
ITEM: BOX BOUNDS pp pp pp
0.0000000000000000e+00 1.1000000000000000e+01
0.0000000000000000e+00 1.1002000000000001e+01
0.0000000000000000e+00 1.1000000000000000e+01
ITEM: ATOMS id type x y z 
10 1 4.59827 4.59815 4.59791 
11 1 3.08318 3.0824 3.08346 
12 1 3.78998 3.79121 3.78963 
46 1 0.734967 0.734073 0.734126 
47 1 2.27054 2.26963 2.27028 
48 1 1.56374 1.56288 1.5631 
19 1 4.53375 4.53409 6.23404 
20 1 3.00222 3.00205 7.77488 
21 1 3.7079 3.70806 7.06577 
31 1 0.672841 0.672053 10.0962 
32 1 2.18944 2.1894 8.58719 
33 1 1.4807 1.48002 9.29216 
16 1 4.52503 6.23114 4.53376 
17 1 3.00335 7.77672 3.00242 
18 1 3.70569 7.06377 3.70913 
25 1 0.676062 10.0966 0.672643 
26 1 2.18961 8.58675 2.18992 
27 1 1.48206 9.29351 1.48101 
4 1 4.6205 6.17379 6.17455 
5 1 3.08256 7.68474 7.68535 
6 1 3.79798 6.98288 6.9822 
37 1 0.742698 10.0391 10.0388 
38 1 2.26776 8.4992 8.49888 
39 1 1.56531 9.2083 9.20729 
13 1 6.23114 4.52453 4.53258 
14 1 7.77675 3.00279 3.00185 
15 1 7.06342 3.70468 3.70819 
28 1 10.0965 0.675038 0.673057 
29 1 8.58734 2.18909 2.1905 
30 1 9.29204 1.48107 1.48033 
1 1 6.17513 4.61945 6.17453 
2 1 7.6863 3.08309 7.68532 
3 1 6.98081 3.79618 6.98355 
40 1 10.0381 0.740658 10.0384 
41 1 8.49847 2.26652 8.49877 
42 1 9.20824 1.56522 9.20777 
7 1 6.17858 6.17692 4.60957 
8 1 7.68798 7.689 3.07896 
9 1 6.98573 6.98413 3.7925 
43 1 10.0383 10.0386 0.743283 
44 1 8.49943 8.49963 2.26649 
45 1 9.20832 9.20959 1.56485 
22 1 6.22411 6.22146 6.18929 
23 1 7.89554 7.85627 7.62716 
24 1 6.99224 7.07053 7.22522 
34 1 10.0982 10.0987 10.1036 
35 1 8.59802 8.6018 8.55813 
36 1 9.30193 9.3048 9.29018 
49 2 6.39936 6.91676 8.22576 
50 2 7.54638 6.94168 9.35515 
51 3 6.97056 6.57829 9.96726 
ITEM: TIMESTEP
30
ITEM: NUMBER OF ATOMS
51
ITEM: BOX BOUNDS pp pp pp
0.0000000000000000e+00 1.1000000000000000e+01
0.0000000000000000e+00 1.1002000000000001e+01
0.0000000000000000e+00 1.1000000000000000e+01
ITEM: ATOMS id type x y z 
10 1 4.59511 4.59833 4.60548 
11 1 3.08324 3.0864 3.08625 
12 1 3.79588 3.79123 3.78835 
46 1 0.734287 0.729347 0.735354 
47 1 2.26872 2.26729 2.27029 
48 1 1.56632 1.56538 1.56489 
19 1 4.54405 4.54539 6.23823 
20 1 3.00677 3.0068 7.76847 
21 1 3.71235 3.7126 7.06601 
31 1 0.672767 0.663907 10.0976 
32 1 2.19376 2.18972 8.58854 
33 1 1.47617 1.48261 9.28476 
16 1 4.53043 6.22961 4.53863 
17 1 3.00272 7.77275 3.00512 
18 1 3.70684 7.06045 3.71082 
25 1 0.676424 10.1048 0.6647 
26 1 2.19235 8.59289 2.1913 
27 1 1.48105 9.28717 1.47596 
4 1 4.63864 6.1777 6.17505 
5 1 3.08794 7.68098 7.68152 
6 1 3.81012 6.98207 6.98255 
37 1 0.73303 10.0373 10.0373 
38 1 2.26976 8.50001 8.49854 
39 1 1.56298 9.20303 9.20476 
13 1 6.23015 4.52873 4.53814 
14 1 7.77124 3.00179 3.00444 
15 1 7.06354 3.70907 3.7115 
28 1 10.1017 0.672976 0.666878 
29 1 8.58732 2.18965 2.19076 
30 1 9.29272 1.4845 1.47931 
1 1 6.18229 4.63928 6.17302 
2 1 7.68494 3.08898 7.68188 
3 1 6.98154 3.81052 6.98519 
40 1 10.0337 0.728012 10.0355 
41 1 8.49343 2.2671 8.49722 
42 1 9.20587 1.56457 9.20589 
7 1 6.18357 6.17946 4.61834 
8 1 7.68498 7.68692 3.07772 
9 1 6.98818 6.98503 3.79973 
43 1 10.0389 10.041 0.733542 
44 1 8.50128 8.50349 2.26621 
45 1 9.20944 9.20649 1.5601 
22 1 6.2547 6.25003 6.2082 
23 1 7.9306 7.87217 7.57571 
24 1 6.92279 7.06097 7.28752 
34 1 10.0823 10.0875 10.0925 
35 1 8.64283 8.62309 8.46459 
36 1 9.3128 9.3053 9.24877 
49 2 6.30585 6.8637 8.22021 
50 2 7.54004 6.92496 9.41552 
51 3 6.97656 6.55399 10.0382 
ITEM: TIMESTEP
40
ITEM: NUMBER OF ATOMS
51
ITEM: BOX BOUNDS pp pp pp
0.0000000000000000e+00 1.1000000000000000e+01
0.0000000000000000e+00 1.1002000000000001e+01
0.0000000000000000e+00 1.1000000000000000e+01
ITEM: ATOMS id type x y z 
10 1 4.59923 4.60045 4.60331 
11 1 3.08497 3.08504 3.08394 
12 1 3.79158 3.7924 3.79227 
46 1 0.735303 0.732476 0.733236 
47 1 2.2709 2.27005 2.27191 
48 1 1.56436 1.56263 1.56376 
19 1 4.54446 4.54538 6.24031 
20 1 3.00476 3.00478 7.77055 
21 1 3.71342 3.71367 7.06665 
31 1 0.668789 0.666163 10.093 
32 1 2.18988 2.19024 8.58633 
33 1 1.48142 1.47949 9.28945 
16 1 4.53239 6.22957 4.53884 
17 1 3.00294 7.77144 3.00486 
18 1 3.70723 7.06243 3.71254 
25 1 0.676535 10.0982 0.664838 
26 1 2.19096 8.58863 2.19003 
27 1 1.48461 9.29356 1.47882 
4 1 4.63908 6.17973 6.1754 
5 1 3.08942 7.6806 7.68383 
6 1 3.80889 6.98399 6.97905 
37 1 0.734158 10.0364 10.0348 
38 1 2.27045 8.49755 8.49764 
39 1 1.56374 9.20469 9.204 
13 1 6.23112 4.53141 4.53873 
14 1 7.77227 3.00249 3.00431 
15 1 7.06241 3.7068 3.71131 
28 1 10.099 0.675558 0.666568 
29 1 8.58805 2.18991 2.18996 
30 1 9.29244 1.4828 1.47902 
1 1 6.18396 4.63834 6.17534 
2 1 7.68326 3.08971 7.68361 
3 1 6.98483 3.81093 6.98278 
40 1 10.0357 0.732321 10.0349 
41 1 8.49644 2.26792 8.49909 
42 1 9.20246 1.56118 9.20403 
7 1 6.18491 6.18085 4.61866 
8 1 7.68699 7.68794 3.0791 
9 1 6.98598 6.98463 3.79615 
43 1 10.037 10.0387 0.734106 
44 1 8.50074 8.50158 2.26676 
45 1 9.20867 9.20824 1.56014 
22 1 6.25583 6.2513 6.20669 
23 1 7.92525 7.86901 7.57335 
24 1 6.91393 7.0589 7.2966 
34 1 10.0839 10.0897 10.0952 
35 1 8.64982 8.62245 8.45484 
36 1 9.31483 9.3075 9.23817 
49 2 6.29401 6.86106 8.21832 
50 2 7.54476 6.9253 9.42149 
51 3 6.97698 6.55085 10.0485 
ITEM: TIMESTEP
50
ITEM: NUMBER OF ATOMS
51
ITEM: BOX BOUNDS pp pp pp
0.0000000000000000e+00 1.1000000000000000e+01
0.0000000000000000e+00 1.1002000000000001e+01
0.0000000000000000e+00 1.1000000000000000e+01
ITEM: ATOMS id type x y z 
10 1 4.60439 4.60069 4.60911 
11 1 3.0848 3.08553 3.0856 
12 1 3.79149 3.79095 3.79522 
46 1 0.733907 0.732989 0.724318 
47 1 2.26844 2.26717 2.26906 
48 1 1.56394 1.56272 1.56005 
19 1 4.55244 4.5494 6.24605 
20 1 3.00677 3.00807 7.77033 
21 1 3.71748 3.71649 7.0698 
31 1 0.670059 0.666823 10.089 
32 1 2.19023 2.18959 8.58327 
33 1 1.48168 1.48003 9.28705 
16 1 4.53727 6.23872 4.54377 
17 1 3.00104 7.77713 3.00986 
18 1 3.70739 7.05561 3.70259 
25 1 0.679107 10.0967 0.66412 
26 1 2.19148 8.58776 2.18975 
27 1 1.48462 9.29156 1.47777 
4 1 4.63978 6.18635 6.16382 
5 1 3.08846 7.68961 7.67383 
6 1 3.82175 6.97521 7.003 
37 1 0.732347 10.0366 10.0315 
38 1 2.26972 8.49583 8.49714 
39 1 1.56436 9.20358 9.20317 
13 1 6.23242 4.53441 4.54111 
14 1 7.77165 3.00152 3.00534 
15 1 7.06313 3.70668 3.71189 
28 1 10.0991 0.676312 0.665124 
29 1 8.58767 2.18999 2.18866 
30 1 9.29275 1.48315 1.47798 
1 1 6.18648 4.64247 6.17732 
2 1 7.68453 3.09276 7.68679 
3 1 6.9879 3.81434 6.98468 
40 1 10.0332 0.729977 10.0324 
41 1 8.4919 2.264 8.49629 
42 1 9.20933 1.57076 9.206 
7 1 6.19293 6.18565 4.61892 
8 1 7.69065 7.69144 3.07647 
9 1 6.99016 6.98738 3.79338 
43 1 10.038 10.0363 0.724944 
44 1 8.50426 8.50138 2.26265 
45 1 9.20698 9.2148 1.55781 
22 1 6.25867 6.25406 6.2071 
23 1 7.89962 7.84997 7.57435 
24 1 6.86114 7.04698 7.34075 
34 1 10.0849 10.089 10.0897 
35 1 8.69206 8.63722 8.38236 
36 1 9.34373 9.31552 9.18166 
49 2 6.2018 6.83914 8.222 
50 2 7.56519 6.91944 9.47558 
51 3 6.99194 6.53727 10.1064 
ITEM: TIMESTEP
60
ITEM: NUMBER OF ATOMS
51
ITEM: BOX BOUNDS pp pp pp
0.0000000000000000e+00 1.1000000000000000e+01
0.0000000000000000e+00 1.1002000000000001e+01
0.0000000000000000e+00 1.1000000000000000e+01
ITEM: ATOMS id type x y z 
10 1 4.60311 4.60199 4.60741 
11 1 3.08491 3.08549 3.08695 
12 1 3.79221 3.79133 3.79496 
46 1 0.735089 0.733019 0.726308 
47 1 2.26969 2.26883 2.26983 
48 1 1.5647 1.56338 1.56093 
19 1 4.55078 4.54878 6.24408 
20 1 3.00789 3.00867 7.77119 
21 1 3.71723 3.71695 7.06896 
31 1 0.669559 0.666999 10.0901 
32 1 2.19118 2.19056 8.58283 
33 1 1.48157 1.4801 9.28459 
16 1 4.53899 6.23113 4.53788 
17 1 3.0026 7.7713 3.00689 
18 1 3.70945 7.06185 3.71128 
25 1 0.676147 10.0986 0.66266 
26 1 2.19044 8.58816 2.1896 
27 1 1.48457 9.29239 1.4776 
4 1 4.64501 6.18268 6.1722 
5 1 3.09347 7.68422 7.68354 
6 1 3.81655 6.98429 6.98649 
37 1 0.730886 10.0353 10.0321 
38 1 2.2696 8.49702 8.49706 
39 1 1.5624 9.20383 9.20194 
13 1 6.23196 4.53554 4.5393 
14 1 7.77135 3.00139 3.00594 
15 1 7.06282 3.7076 3.71182 
28 1 10.1001 0.674634 0.664379 
29 1 8.58751 2.19013 2.18864 
30 1 9.29228 1.4832 1.47814 
1 1 6.1885 4.64433 6.17789 
2 1 7.68401 3.0928 7.68685 
3 1 6.98872 3.81563 6.98434 
40 1 10.0355 0.730433 10.0329 
41 1 8.49572 2.26859 8.49836 
42 1 9.20391 1.56266 9.20387 
7 1 6.19128 6.18556 4.62141 
8 1 7.69052 7.69079 3.0754 
9 1 6.99179 6.98864 3.79567 
43 1 10.037 10.0381 0.721691 
44 1 8.5042 8.50555 2.26242 
45 1 9.21008 9.21105 1.55315 
22 1 6.25846 6.25523 6.21101 
23 1 7.89567 7.8502 7.58414 
24 1 6.86037 7.04903 7.34643 
34 1 10.0824 10.0847 10.0784 
35 1 8.69675 8.63787 8.37207 
36 1 9.34585 9.31649 9.17375 
49 2 6.18937 6.83667 8.22614 
50 2 7.56453 6.91586 9.48524 
51 3 6.99634 6.53746 10.1103 
ITEM: TIMESTEP
70
ITEM: NUMBER OF ATOMS
51
ITEM: BOX BOUNDS pp pp pp
0.0000000000000000e+00 1.1000000000000000e+01
0.0000000000000000e+00 1.1002000000000001e+01
0.0000000000000000e+00 1.1000000000000000e+01
ITEM: ATOMS id type x y z 
10 1 4.60307 4.60224 4.60674 
11 1 3.08491 3.08499 3.08714 
12 1 3.79186 3.7918 3.79471 
46 1 0.735152 0.732798 0.7265 
47 1 2.26966 2.26892 2.26972 
48 1 1.56475 1.56328 1.56087 
19 1 4.551 4.54909 6.24402 
20 1 3.00814 3.00896 7.77122 
21 1 3.71769 3.7172 7.06896 
31 1 0.669754 0.667392 10.0899 
32 1 2.19088 2.19029 8.58233 
33 1 1.48178 1.48034 9.28534 
16 1 4.54 6.23127 4.53836 
17 1 3.00279 7.77065 3.00712 
18 1 3.71023 7.06223 3.71185 
25 1 0.675702 10.099 0.662965 
26 1 2.19058 8.58787 2.18953 
27 1 1.48442 9.29226 1.47794 
4 1 4.64551 6.18281 6.17377 
5 1 3.09561 7.68257 7.68586 
6 1 3.81487 6.98652 6.98091 
37 1 0.730109 10.0351 10.0315 
38 1 2.26999 8.49678 8.49674 
39 1 1.56252 9.20346 9.20178 
13 1 6.23273 4.53655 4.5396 
14 1 7.77105 3.00153 3.00606 
15 1 7.06292 3.70791 3.71209 
28 1 10.1 0.674239 0.664647 
29 1 8.58752 2.1898 2.1885 
30 1 9.29254 1.48316 1.4779 
1 1 6.18908 4.64503 6.17721 
2 1 7.68438 3.09331 7.68696 
3 1 6.98858 3.81576 6.98453 
40 1 10.035 0.729603 10.032 
41 1 8.49613 2.26909 8.49877 
42 1 9.20356 1.56155 9.2036 
7 1 6.19144 6.186 4.62182 
8 1 7.69084 7.69077 3.07528 
9 1 6.99193 6.98936 3.79611 
43 1 10.0367 10.0375 0.719403 
44 1 8.50455 8.5058 2.26215 
45 1 9.20996 9.21109 1.55208 
22 1 6.25817 6.25548 6.21278 
23 1 7.89308 7.84918 7.58651 
24 1 6.85732 7.04866 7.3504 
34 1 10.0827 10.0847 10.076 
35 1 8.69897 8.63859 8.36784 
36 1 9.34786 9.31726 9.16952 
49 2 6.18421 6.83572 8.2269 
50 2 7.56568 6.91497 9.48872 
51 3 6.99708 6.53662 10.1138 
ITEM: TIMESTEP
80
ITEM: NUMBER OF ATOMS
51
ITEM: BOX BOUNDS pp pp pp
0.0000000000000000e+00 1.1000000000000000e+01
0.0000000000000000e+00 1.1002000000000001e+01
0.0000000000000000e+00 1.1000000000000000e+01
ITEM: ATOMS id type x y z 
10 1 4.60311 4.60213 4.60665 
11 1 3.08473 3.0852 3.08708 
12 1 3.79206 3.7912 3.79512 
46 1 0.734968 0.732457 0.726566 
47 1 2.26966 2.26895 2.26973 
48 1 1.56485 1.56333 1.56072 
19 1 4.55136 4.54924 6.24369 
20 1 3.00866 3.00944 7.77114 
21 1 3.71801 3.71746 7.06876 
31 1 0.669969 0.667639 10.0903 
32 1 2.19093 2.19051 8.58226 
33 1 1.48186 1.48016 9.28485 
16 1 4.54064 6.23182 4.53829 
17 1 3.00248 7.77075 3.00701 
18 1 3.71059 7.06263 3.71161 
25 1 0.675205 10.0989 0.663107 
26 1 2.19065 8.58774 2.18941 
27 1 1.48409 9.29214 1.47812 
4 1 4.64505 6.18353 6.17272 
5 1 3.09537 7.68315 7.6847 
6 1 3.81629 6.98581 6.98279 
37 1 0.729915 10.0349 10.031 
38 1 2.27032 8.49649 8.49675 
39 1 1.56272 9.20328 9.20146 
13 1 6.23332 4.53756 4.53978 
14 1 7.77089 3.00165 3.00602 
15 1 7.06311 3.70797 3.71229 
28 1 10.0997 0.673485 0.664498 
29 1 8.58727 2.18964 2.18825 
30 1 9.29296 1.48306 1.47823 
1 1 6.18902 4.64556 6.17693 
2 1 7.68448 3.09359 7.68711 
3 1 6.98899 3.81632 6.98464 
40 1 10.0348 0.728916 10.0315 
41 1 8.4962 2.26939 8.499 
42 1 9.20338 1.56123 9.20328 
7 1 6.19232 6.18673 4.62289 
8 1 7.69085 7.6911 3.07513 
9 1 6.99276 6.98956 3.7966 
43 1 10.0363 10.037 0.717361 
44 1 8.50486 8.50588 2.2615 
45 1 9.21009 9.21155 1.55145 
22 1 6.25791 6.25552 6.21408 
23 1 7.89065 7.84826 7.58874 
24 1 6.85415 7.04799 7.35359 
34 1 10.0835 10.0848 10.0732 
35 1 8.70148 8.63963 8.36299 
36 1 9.34896 9.31713 9.16667 
49 2 6.17884 6.83474 8.22803 
50 2 7.56684 6.91403 9.49235 
51 3 6.99785 6.53581 10.1171 
ITEM: TIMESTEP
90
ITEM: NUMBER OF ATOMS
51
ITEM: BOX BOUNDS pp pp pp
0.0000000000000000e+00 1.1000000000000000e+01
0.0000000000000000e+00 1.1002000000000001e+01
0.0000000000000000e+00 1.1000000000000000e+01
ITEM: ATOMS id type x y z 
10 1 4.60318 4.60215 4.60667 
11 1 3.08479 3.08498 3.08723 
12 1 3.79195 3.79158 3.79489 
46 1 0.734957 0.73244 0.726494 
47 1 2.26968 2.26899 2.26963 
48 1 1.56478 1.56325 1.56085 
19 1 4.55131 4.54922 6.2436 
20 1 3.00859 3.00936 7.77121 
21 1 3.71809 3.71754 7.0688 
31 1 0.670001 0.66752 10.0902 
32 1 2.19094 2.1904 8.58207 
33 1 1.48188 1.48042 9.28512 
16 1 4.54086 6.23187 4.53828 
17 1 3.00266 7.77068 3.00709 
18 1 3.71055 7.06253 3.71173 
25 1 0.675052 10.0989 0.663177 
26 1 2.19055 8.58774 2.18945 
27 1 1.48419 9.29212 1.478 
4 1 4.64516 6.18358 6.17281 
5 1 3.09564 7.68305 7.68506 
6 1 3.81593 6.98604 6.98208 
37 1 0.729936 10.0349 10.0309 
38 1 2.27041 8.49645 8.49668 
39 1 1.56268 9.20327 9.20154 
13 1 6.23335 4.53753 4.53988 
14 1 7.77088 3.00139 3.00613 
15 1 7.06322 3.70842 3.71204 
28 1 10.0999 0.67344 0.664608 
29 1 8.58749 2.1897 2.18834 
30 1 9.29256 1.48285 1.47801 
1 1 6.18926 4.64572 6.17704 
2 1 7.6846 3.09389 7.6872 
3 1 6.98882 3.81597 6.98448 
40 1 10.0347 0.728807 10.0314 
41 1 8.49618 2.26941 8.49895 
42 1 9.20339 1.56127 9.20334 
7 1 6.19242 6.18675 4.62298 
8 1 7.69106 7.69102 3.07514 
9 1 6.99256 6.98989 3.79658 
43 1 10.0363 10.0371 0.717281 
44 1 8.50498 8.50617 2.26157 
45 1 9.20999 9.21113 1.55097 
22 1 6.25793 6.25561 6.21425 
23 1 7.89026 7.84812 7.58907 
24 1 6.8537 7.04796 7.3542 
34 1 10.0834 10.0847 10.0731 
35 1 8.70161 8.63962 8.36252 
36 1 9.34956 9.3174 9.16563 
49 2 6.17799 6.8346 8.22826 
50 2 7.56702 6.91388 9.49294 
51 3 6.99797 6.53569 10.1176 
ITEM: TIMESTEP
100
ITEM: NUMBER OF ATOMS
51
ITEM: BOX BOUNDS pp pp pp
0.0000000000000000e+00 1.1000000000000000e+01
0.0000000000000000e+00 1.1002000000000001e+01
0.0000000000000000e+00 1.1000000000000000e+01
ITEM: ATOMS id type x y z 
10 1 4.60777 4.60406 4.60601 
11 1 3.08394 3.08498 3.08999 
12 1 3.79377 3.79062 3.79578 
46 1 0.731439 0.727715 0.726212 
47 1 2.26865 2.26823 2.26725 
48 1 1.56408 1.56213 1.5598 
19 1 4.55379 4.55024 6.23698 
20 1 3.01409 3.01392 7.77202 
21 1 3.72142 3.72007 7.06682 
31 1 0.672527 0.671507 10.0931 
32 1 2.19185 2.19192 8.5785 
33 1 1.48393 1.48268 9.28293 
16 1 4.55191 6.2381 4.53623 
17 1 3.00177 7.77156 3.00806 
18 1 3.7161 7.06419 3.70932 
25 1 0.665105 10.097 0.665199 
26 1 2.18932 8.58509 2.18723 
27 1 1.4807 9.29236 1.48028 
4 1 4.6456 6.1869 6.16985 
5 1 3.10086 7.6824 7.68623 
6 1 3.81992 6.99098 6.9756 
37 1 0.732997 10.0342 10.0242 
38 1 2.27737 8.49216 8.49469 
39 1 1.56427 9.20062 9.19867 
13 1 6.24149 4.54857 4.54259 
14 1 7.76963 2.99993 3.00973 
15 1 7.06492 3.71643 3.7078 
28 1 10.0976 0.661704 0.663254 
29 1 8.5866 2.18704 2.18638 
30 1 9.29343 1.48012 1.47824 
1 1 6.19257 4.65216 6.17671 
2 1 7.68665 3.10152 7.69113 
3 1 6.99303 3.82003 6.9829 
40 1 10.0335 0.721612 10.0243 
41 1 8.4956 2.2727 8.49991 
42 1 9.20273 1.55951 9.20085 
7 1 6.202 6.19478 4.63385 
8 1 7.69292 7.69369 3.06915 
9 1 7.00628 7.00161 3.80956 
43 1 10.0321 10.0303 0.690302 
44 1 8.50995 8.50979 2.25106 
45 1 9.21042 9.21287 1.54054 
22 1 6.25502 6.25799 6.23069 
23 1 7.85363 7.83443 7.6202 
24 1 6.8056 7.03878 7.40246 
34 1 10.0923 10.0838 10.0359 
35 1 8.73645 8.65123 8.29336 
36 1 9.36537 9.31919 9.11831 
49 2 6.0976 6.82092 8.24915 
50 2 7.58513 6.89917 9.54989 
51 3 7.00921 6.52345 10.1679 
ITEM: TIMESTEP
110
ITEM: NUMBER OF ATOMS
51
ITEM: BOX BOUNDS pp pp pp
0.0000000000000000e+00 1.1000000000000000e+01
0.0000000000000000e+00 1.1002000000000001e+01
0.0000000000000000e+00 1.1000000000000000e+01
ITEM: ATOMS id type x y z 
10 1 4.60909 4.60515 4.6053 
11 1 3.08433 3.08454 3.09033 
12 1 3.79348 3.79163 3.79505 
46 1 0.731047 0.727822 0.72581 
47 1 2.269 2.26849 2.26739 
48 1 1.56376 1.56199 1.56047 
19 1 4.5532 4.54974 6.23622 
20 1 3.01399 3.01413 7.77234 
21 1 3.72184 3.71976 7.06611 
31 1 0.672367 0.670153 10.0921 
32 1 2.19192 2.19188 8.57849 
33 1 1.48393 1.48298 9.28364 
16 1 4.55328 6.23743 4.53488 
17 1 3.00284 7.77076 3.00843 
18 1 3.71649 7.06477 3.70936 
25 1 0.666889 10.0967 0.663511 
26 1 2.18871 8.58642 2.18802 
27 1 1.47986 9.29003 1.47842 
4 1 4.64572 6.18748 6.16644 
5 1 3.10128 7.68458 7.68447 
6 1 3.81921 6.98777 6.97889 
37 1 0.732739 10.0355 10.0246 
38 1 2.27492 8.49339 8.49671 
39 1 1.56606 9.2022 9.19899 
13 1 6.24088 4.55114 4.53976 
14 1 7.76966 3.00136 3.00679 
15 1 7.0668 3.71381 3.71164 
28 1 10.0974 0.663633 0.662225 
29 1 8.58784 2.18712 2.1871 
30 1 9.29065 1.47821 1.47692 
1 1 6.19312 4.65068 6.17563 
2 1 7.68753 3.10098 7.68994 
3 1 6.99239 3.82224 6.98589 
40 1 10.035 0.7222 10.024 
41 1 8.49605 2.27215 8.50073 
42 1 9.20336 1.55973 9.2008 
7 1 6.20447 6.19745 4.6382 
8 1 7.69623 7.696 3.07337 
9 1 7.00241 6.99904 3.8032 
43 1 10.0318 10.0306 0.690742 
44 1 8.50819 8.50942 2.25367 
45 1 9.20971 9.21007 1.53556 
22 1 6.25571 6.25883 6.23113 
23 1 7.85125 7.83465 7.62301 
24 1 6.80203 7.03887 7.40461 
34 1 10.0917 10.0825 10.0349 
35 1 8.73294 8.64858 8.2937 
36 1 9.37141 9.32126 9.10738 
49 2 6.09342 6.82126 8.25199 
50 2 7.58755 6.89778 9.55604 
51 3 7.0095 6.52224 10.1722 
ITEM: TIMESTEP
120
ITEM: NUMBER OF ATOMS
51
ITEM: BOX BOUNDS pp pp pp
0.0000000000000000e+00 1.1000000000000000e+01
0.0000000000000000e+00 1.1002000000000001e+01
0.0000000000000000e+00 1.1000000000000000e+01
ITEM: ATOMS id type x y z 
10 1 4.60937 4.6054 4.60487 
11 1 3.08433 3.0845 3.09042 
12 1 3.7936 3.79175 3.79478 
46 1 0.730904 0.727831 0.725893 
47 1 2.26893 2.26838 2.26734 
48 1 1.56358 1.5619 1.56046 
19 1 4.55332 4.54955 6.23606 
20 1 3.01394 3.01388 7.7724 
21 1 3.72166 3.71993 7.06615 
31 1 0.672516 0.670445 10.0921 
32 1 2.19196 2.19193 8.57849 
33 1 1.484 1.48308 9.28377 
16 1 4.55365 6.23714 4.53438 
17 1 3.0032 7.7704 3.00809 
18 1 3.71631 7.06529 3.71009 
25 1 0.666685 10.0967 0.663598 
26 1 2.18855 8.58649 2.18818 
27 1 1.47986 9.28978 1.47817 
4 1 4.64557 6.18714 6.16622 
5 1 3.10126 7.68436 7.68459 
6 1 3.8193 6.98813 6.97851 
37 1 0.732855 10.0356 10.0246 
38 1 2.27498 8.49344 8.49674 
39 1 1.56629 9.20213 9.1989 
13 1 6.24104 4.5512 4.53978 
14 1 7.7697 3.00146 3.00683 
15 1 7.06684 3.71394 3.71161 
28 1 10.0973 0.663558 0.661985 
29 1 8.58776 2.18714 2.18698 
30 1 9.29058 1.4779 1.47716 
1 1 6.19318 4.65072 6.1756 
2 1 7.68759 3.10125 7.69014 
3 1 6.99238 3.82198 6.9856 
40 1 10.0351 0.722338 10.0239 
41 1 8.496 2.27221 8.50075 
42 1 9.20343 1.55986 9.20067 
7 1 6.20478 6.19788 4.63834 
8 1 7.69657 7.69636 3.0741 
9 1 7.00199 6.99858 3.8024 
43 1 10.0319 10.0307 0.69083 
44 1 8.50837 8.50969 2.25381 
45 1 9.20954 9.2097 1.53439 
22 1 6.25576 6.25877 6.23123 
23 1 7.85063 7.83456 7.62331 
24 1 6.80141 7.03898 7.4048 
34 1 10.0922 10.0826 10.0338 
35 1 8.73351 8.64878 8.29283 
36 1 9.37019 9.32063 9.10857 
49 2 6.09313 6.82152 8.25251 
50 2 7.58805 6.89752 9.55724 
51 3 7.00947 6.52201 10.173 
ITEM: TIMESTEP
130
ITEM: NUMBER OF ATOMS
51
ITEM: BOX BOUNDS pp pp pp
0.0000000000000000e+00 1.1000000000000000e+01
0.0000000000000000e+00 1.1002000000000001e+01
0.0000000000000000e+00 1.1000000000000000e+01
ITEM: ATOMS id type x y z 
10 1 4.6094 4.6054 4.60483 
11 1 3.08434 3.08447 3.09043 
12 1 3.79359 3.7918 3.79472 
46 1 0.730878 0.72784 0.725913 
47 1 2.26891 2.26837 2.26734 
48 1 1.56358 1.56189 1.56046 
19 1 4.55334 4.54955 6.23606 
20 1 3.01395 3.0139 7.77241 
21 1 3.72165 3.71989 7.06611 
31 1 0.672533 0.670497 10.0921 
32 1 2.19197 2.19195 8.57851 
33 1 1.48401 1.48306 9.28375 
16 1 4.55368 6.23716 4.53438 
17 1 3.00322 7.77043 3.00809 
18 1 3.7163 7.06525 3.71005 
25 1 0.666665 10.0967 0.66358 
26 1 2.18854 8.58648 2.18817 
27 1 1.47983 9.28978 1.4782 
4 1 4.64556 6.1871 6.16618 
5 1 3.10124 7.68435 7.68457 
6 1 3.81934 6.98814 6.97853 
37 1 0.73287 10.0356 10.0246 
38 1 2.275 8.49343 8.49674 
39 1 1.5663 9.20215 9.1989 
13 1 6.24106 4.55119 4.53977 
14 1 7.76969 3.00146 3.00682 
15 1 7.06689 3.71396 3.71161 
28 1 10.0973 0.663534 0.661995 
29 1 8.58779 2.18713 2.18702 
30 1 9.29049 1.47788 1.4771 
1 1 6.19315 4.65071 6.17559 
2 1 7.68758 3.10124 7.69014 
3 1 6.99241 3.82202 6.9856 
40 1 10.0351 0.722341 10.0239 
41 1 8.49603 2.2722 8.50071 
42 1 9.20338 1.5599 9.20075 
7 1 6.20482 6.19789 4.63831 
8 1 7.6966 7.69635 3.07411 
9 1 7.00199 6.99863 3.80244 
43 1 10.0319 10.0307 0.690765 
44 1 8.50838 8.50969 2.25373 
45 1 9.20956 9.20972 1.53438 
22 1 6.25574 6.25875 6.23124 
23 1 7.85055 7.83455 7.62335 
24 1 6.80131 7.03898 7.40481 
34 1 10.0922 10.0826 10.0337 
35 1 8.7335 8.64877 8.29281 
36 1 9.37017 9.32062 9.10855 
49 2 6.09309 6.82156 8.25258 
50 2 7.58813 6.89748 9.55741 
51 3 7.00947 6.52197 10.1731 
ITEM: TIMESTEP
131
ITEM: NUMBER OF ATOMS
51
ITEM: BOX BOUNDS pp pp pp
0.0000000000000000e+00 1.1000000000000000e+01
0.0000000000000000e+00 1.1002000000000001e+01
0.0000000000000000e+00 1.1000000000000000e+01
ITEM: ATOMS id type x y z 
10 1 4.6094 4.6054 4.60483 
11 1 3.08434 3.08447 3.09043 
12 1 3.79359 3.7918 3.79472 
46 1 0.730878 0.72784 0.725913 
47 1 2.26891 2.26837 2.26734 
48 1 1.56358 1.56189 1.56046 
19 1 4.55334 4.54955 6.23606 
20 1 3.01395 3.0139 7.77241 
21 1 3.72165 3.71989 7.06611 
31 1 0.672533 0.670497 10.0921 
32 1 2.19197 2.19195 8.57851 
33 1 1.48401 1.48306 9.28375 
16 1 4.55368 6.23716 4.53438 
17 1 3.00322 7.77043 3.00809 
18 1 3.7163 7.06525 3.71005 
25 1 0.666665 10.0967 0.66358 
26 1 2.18854 8.58648 2.18817 
27 1 1.47983 9.28978 1.4782 
4 1 4.64556 6.1871 6.16618 
5 1 3.10124 7.68435 7.68457 
6 1 3.81934 6.98814 6.97853 
37 1 0.732869 10.0356 10.0246 
38 1 2.275 8.49343 8.49674 
39 1 1.5663 9.20215 9.1989 
13 1 6.24106 4.55119 4.53977 
14 1 7.76969 3.00146 3.00682 
15 1 7.06689 3.71396 3.71161 
28 1 10.0973 0.663534 0.661995 
29 1 8.58779 2.18713 2.18702 
30 1 9.29049 1.47788 1.4771 
1 1 6.19315 4.65071 6.17559 
2 1 7.68758 3.10124 7.69014 
3 1 6.99241 3.82202 6.9856 
40 1 10.0351 0.722341 10.0239 
41 1 8.49603 2.2722 8.50071 
42 1 9.20338 1.5599 9.20075 
7 1 6.20482 6.19789 4.63831 
8 1 7.6966 7.69635 3.07411 
9 1 7.00199 6.99864 3.80244 
43 1 10.0319 10.0307 0.690765 
44 1 8.50838 8.50969 2.25373 
45 1 9.20956 9.20972 1.53438 
22 1 6.25574 6.25875 6.23124 
23 1 7.85055 7.83455 7.62335 
24 1 6.8013 7.03898 7.40481 
34 1 10.0922 10.0826 10.0337 
35 1 8.7335 8.64877 8.29281 
36 1 9.37017 9.32062 9.10855 
49 2 6.09309 6.82156 8.25258 
50 2 7.58813 6.89748 9.55741 
51 3 7.00947 6.52197 10.1731 
ITEM: TIMESTEP
132
ITEM: NUMBER OF ATOMS
51
ITEM: BOX BOUNDS pp pp pp
0.0000000000000000e+00 1.1000000000000000e+01
0.0000000000000000e+00 1.1002000000000001e+01
0.0000000000000000e+00 1.1000000000000000e+01
ITEM: ATOMS id type x y z 
10 1 4.6094 4.6054 4.60483 
11 1 3.08434 3.08447 3.09043 
12 1 3.79359 3.7918 3.79472 
46 1 0.730878 0.72784 0.725913 
47 1 2.26891 2.26837 2.26734 
48 1 1.56358 1.56189 1.56046 
19 1 4.55334 4.54955 6.23606 
20 1 3.01395 3.0139 7.77241 
21 1 3.72165 3.71989 7.06611 
31 1 0.672533 0.670497 10.0921 
32 1 2.19197 2.19195 8.57851 
33 1 1.48401 1.48306 9.28375 
16 1 4.55368 6.23716 4.53437 
17 1 3.00322 7.77043 3.00809 
18 1 3.7163 7.06525 3.71005 
25 1 0.666665 10.0967 0.66358 
26 1 2.18854 8.58648 2.18817 
27 1 1.47983 9.28978 1.4782 
4 1 4.64556 6.1871 6.16618 
5 1 3.10124 7.68435 7.68457 
6 1 3.81934 6.98814 6.97853 
37 1 0.732869 10.0356 10.0246 
38 1 2.275 8.49343 8.49674 
39 1 1.5663 9.20215 9.1989 
13 1 6.24106 4.55119 4.53977 
14 1 7.76969 3.00146 3.00682 
15 1 7.06689 3.71396 3.71161 
28 1 10.0973 0.663534 0.661995 
29 1 8.58779 2.18713 2.18702 
30 1 9.29049 1.47788 1.4771 
1 1 6.19316 4.65071 6.17559 
2 1 7.68758 3.10124 7.69014 
3 1 6.99241 3.82202 6.9856 
40 1 10.0351 0.722341 10.0239 
41 1 8.49603 2.2722 8.50071 
42 1 9.20338 1.5599 9.20075 
7 1 6.20482 6.19789 4.63831 
8 1 7.6966 7.69635 3.07411 
9 1 7.00199 6.99864 3.80244 
43 1 10.0319 10.0307 0.690765 
44 1 8.50838 8.50969 2.25373 
45 1 9.20956 9.20972 1.53438 
22 1 6.25574 6.25875 6.23124 
23 1 7.85055 7.83455 7.62335 
24 1 6.8013 7.03898 7.40481 
34 1 10.0922 10.0826 10.0337 
35 1 8.7335 8.64877 8.29281 
36 1 9.37017 9.32062 9.10855 
49 2 6.09309 6.82156 8.25258 
50 2 7.58813 6.89748 9.55741 
51 3 7.00947 6.52197 10.1731 
ITEM: TIMESTEP
140
ITEM: NUMBER OF ATOMS
51
ITEM: BOX BOUNDS pp pp pp
-3.8009073458049577e-03 1.1003800907345807e+01
-1.9917769680611133e-03 1.1003991776968061e+01
-1.5949857961119033e-03 1.1001594985796114e+01
ITEM: ATOMS id type x y z 
10 1 4.60905 4.60533 4.60477 
11 1 3.08274 3.08366 3.0898 
12 1 3.79235 3.79111 3.79413 
46 1 0.727362 0.725912 0.724335 
47 1 2.26657 2.26709 2.26631 
48 1 1.56071 1.56032 1.55917 
19 1 4.55288 4.54939 6.23605 
20 1 3.01233 3.0131 7.77298 
21 1 3.72056 3.71938 7.06641 
31 1 0.66896 0.668524 10.0937 
32 1 2.18962 2.1907 8.57947 
33 1 1.48132 1.48168 9.28478 
16 1 4.55324 6.23723 4.53429 
17 1 3.0016 7.77118 3.00746 
18 1 3.71522 7.06566 3.70965 
25 1 0.663061 10.0986 0.661931 
26 1 2.18618 8.58768 2.18717 
27 1 1.47711 9.29103 1.47706 
4 1 4.64523 6.18708 6.16612 
5 1 3.09966 7.68507 7.68512 
6 1 3.8181 6.98874 6.97902 
37 1 0.72937 10.0375 10.0262 
38 1 2.27272 8.49461 8.49769 
39 1 1.56341 9.20364 9.20013 
13 1 6.24139 4.55104 4.5397 
14 1 7.77118 3.00065 3.00618 
15 1 7.06785 3.71347 3.71122 
28 1 10.1007 0.661516 0.660319 
29 1 8.58998 2.18585 2.18599 
30 1 9.29302 1.47648 1.476 
1 1 6.19338 4.65067 6.17556 
2 1 7.68901 3.10046 7.69073 
3 1 6.99355 3.82133 6.98607 
40 1 10.0385 0.720407 10.0254 
41 1 8.49819 2.27095 8.50166 
42 1 9.2061 1.55832 9.20198 
7 1 6.20512 6.19796 4.63833 
8 1 7.69807 7.6971 3.0735 
9 1 7.00312 6.99927 3.80188 
43 1 10.0352 10.0325 0.689139 
44 1 8.51055 8.51087 2.25265 
45 1 9.21227 9.21121 1.53305 
22 1 6.25593 6.25876 6.23134 
23 1 7.85209 7.83539 7.62402 
24 1 6.80196 7.03932 7.40503 
34 1 10.0956 10.0845 10.0352 
35 1 8.73576 8.65001 8.29371 
36 1 9.37284 9.32185 9.10948 
49 2 6.09348 6.82207 8.25339 
50 2 7.58964 6.89795 9.55876 
51 3 7.01051 6.52231 10.1745 
ITEM: TIMESTEP
150
ITEM: NUMBER OF ATOMS
51
ITEM: BOX BOUNDS pp pp pp
-7.1967913059782845e-03 1.1007196791305983e+01
-2.0063072312872083e-03 1.1004006307231286e+01
-2.5448329536600302e-03 1.1002544832953662e+01
ITEM: ATOMS id type x y z 
10 1 4.60929 4.60597 4.60511 
11 1 3.08145 3.08378 3.08955 
12 1 3.79106 3.79097 3.79355 
46 1 0.723798 0.72536 0.722992 
47 1 2.26405 2.26655 2.26525 
48 1 1.5581 1.56014 1.55836 
19 1 4.55282 4.54986 6.23554 
20 1 3.01127 3.01358 7.77287 
21 1 3.71963 3.7195 7.06651 
31 1 0.66538 0.667958 10.0952 