ITEM: TIMESTEP
0
ITEM: NUMBER OF ATOMS
59
ITEM: BOX BOUNDS pp pp pp
0.0000000000000000e+00 3.2808000000000000e+01
0.0000000000000000e+00 1.7780000000000001e+01
0.0000000000000000e+00 2.4729999999999999e+00
ITEM: ATOMS id type x y z 
13 1 7.043 0.849 2.464 
29 1 7.397 1.432 1.228 
37 1 8.035 2.733 1.228 
57 2 1.083 0.968 1.228 
58 2 2.196 1.919 0.902 
59 3 1.526 2.652 0.862 
1 1 6.173 17.398 2.464 
5 1 5.371 17.398 1.228 
9 1 3.973 17.398 1.228 
16 1 7.043 16.167 2.464 
32 1 7.397 15.584 1.228 
40 1 8.035 14.283 1.228 
45 1 3.236 17.398 2.464 
49 1 1.81 17.398 2.464 
53 1 1.083 17.398 1.228 
4 1 10.968 8.508 2.464 
8 1 11.771 8.508 1.228 
12 1 13.168 8.508 1.228 
18 1 10.098 7.277 2.464 
21 1 8.308 3.392 2.464 
26 1 8.833 4.734 2.464 
34 1 9.745 6.694 1.228 
42 1 9.106 5.393 1.228 
48 1 13.906 8.508 2.464 
52 1 15.331 8.508 2.464 
56 1 16.058 8.508 1.228 
19 1 10.098 9.739 2.464 
24 1 8.308 13.624 2.464 
27 1 8.833 12.282 2.464 
35 1 9.745 10.322 1.228 
43 1 9.106 11.623 1.228 
3 1 22.577 8.508 2.464 
7 1 21.775 8.508 1.228 
11 1 20.377 8.508 1.228 
20 1 23.447 7.277 2.464 
36 1 23.801 6.694 1.228 
44 1 24.439 5.393 1.228 
47 1 19.64 8.508 2.464 
51 1 18.214 8.508 2.464 
55 1 17.487 8.508 1.228 
17 1 23.447 9.739 2.464 
33 1 23.801 10.322 1.228 
41 1 24.439 11.623 1.228 
15 1 26.502 0.849 2.464 
23 1 25.237 3.392 2.464 
28 1 24.712 4.734 2.464 
31 1 26.149 1.432 1.228 
39 1 25.511 2.733 1.228 
2 1 27.373 17.398 2.464 
6 1 28.175 17.398 1.228 
10 1 29.572 17.398 1.228 
14 1 26.502 16.167 2.464 
22 1 25.237 13.624 2.464 
25 1 24.712 12.282 2.464 
30 1 26.149 15.584 1.228 
38 1 25.511 14.283 1.228 
46 1 30.31 17.398 2.464 
50 1 31.735 17.398 2.464 
54 1 32.462 17.398 1.228 
ITEM: TIMESTEP
10
ITEM: NUMBER OF ATOMS
59
ITEM: BOX BOUNDS pp pp pp
0.0000000000000000e+00 3.2808000000000000e+01
0.0000000000000000e+00 1.7780000000000001e+01
0.0000000000000000e+00 2.4729999999999999e+00
ITEM: ATOMS id type x y z 
13 1 7.08385 0.832076 2.46433 
29 1 7.44028 1.44838 1.22774 
37 1 8.0492 2.69509 1.22768 
57 2 1.06048 1.02084 1.21807 
58 2 2.19898 1.97839 0.89296 
59 3 1.5423 2.60459 0.872346 
1 1 6.1606 17.3979 2.46429 
5 1 5.34182 17.3989 1.22756 
9 1 3.95613 17.4032 1.22768 
16 1 7.08381 16.184 2.46433 
32 1 7.44027 15.5677 1.22774 
40 1 8.04919 14.3209 1.22768 
45 1 3.17937 17.3945 2.46435 
49 1 1.76585 17.2088 2.46666 
53 1 1.06914 17.5906 1.23344 
4 1 10.9712 8.508 2.46428 
8 1 11.8065 8.508 1.22762 
12 1 13.2088 8.508 1.22768 
18 1 10.0517 7.29138 2.46433 
21 1 8.3101 3.37064 2.4643 
26 1 8.82947 4.7521 2.4643 
34 1 9.69465 6.66541 1.22773 
42 1 9.09146 5.43058 1.22768 
48 1 13.91 8.508 2.46434 
52 1 15.3304 8.508 2.46434 
56 1 16.0557 8.508 1.22766 
19 1 10.0517 9.72462 2.46433 
24 1 8.3101 13.6454 2.4643 
27 1 8.82948 12.2639 2.4643 
35 1 9.69465 10.3506 1.22773 
43 1 9.09146 11.5854 1.22768 
3 1 22.5798 8.508 2.46428 
7 1 21.74 8.508 1.22761 
11 1 20.336 8.508 1.22768 
20 1 23.4931 7.29135 2.46433 
36 1 23.8489 6.6697 1.22774 
44 1 24.4523 5.43329 1.22768 
47 1 19.6382 8.508 2.46434 
51 1 18.2179 8.508 2.46434 
55 1 17.4847 8.508 1.22766 
17 1 23.4931 9.72465 2.46433 
33 1 23.8489 10.3463 1.22774 
41 1 24.4523 11.5827 1.22768 
15 1 26.4574 0.833329 2.46433 
23 1 25.2352 3.3694 2.4643 
28 1 24.7141 4.75529 2.4643 
31 1 26.1038 1.45197 1.22774 
39 1 25.4978 2.69303 1.22768 
2 1 27.3748 17.398 2.46429 
6 1 28.2074 17.398 1.22761 
10 1 29.6023 17.3981 1.22769 
14 1 26.4574 16.1827 2.46433 
22 1 25.2352 13.6466 2.4643 
25 1 24.7141 12.2607 2.4643 
30 1 26.1038 15.564 1.22774 
38 1 25.4978 14.323 1.22768 
46 1 30.3099 17.3983 2.46431 
50 1 31.8009 17.3927 2.46453 
54 1 32.5199 17.332 1.228 
ITEM: TIMESTEP
20
ITEM: NUMBER OF ATOMS
59
ITEM: BOX BOUNDS pp pp pp
0.0000000000000000e+00 3.2808000000000000e+01
0.0000000000000000e+00 1.7780000000000001e+01
0.0000000000000000e+00 2.4729999999999999e+00
ITEM: ATOMS id type x y z 
13 1 7.08956 0.833214 2.46426 
29 1 7.44771 1.44214 1.22778 
37 1 8.05494 2.68987 1.22775 
57 2 1.05656 1.01431 1.21903 
58 2 2.21771 1.9873 0.889535 
59 3 1.53834 2.62242 0.871565 
1 1 6.16135 17.3978 2.46418 
5 1 5.34159 17.4007 1.22771 
9 1 3.94336 17.4089 1.22785 
16 1 7.08923 16.1829 2.46426 
32 1 7.44766 15.574 1.22778 
40 1 8.05492 14.3262 1.22775 
45 1 3.16568 17.3838 2.46441 
49 1 1.76024 17.1753 2.46852 
53 1 1.09528 17.6296 1.23388 
4 1 10.9676 8.508 2.4642 
8 1 11.7866 8.508 1.22773 
12 1 13.1976 8.508 1.22776 
18 1 10.047 7.29132 2.46426 
21 1 8.31299 3.36704 2.46423 
26 1 8.82693 4.75666 2.46423 
34 1 9.69063 6.678 1.22778 
42 1 9.08546 5.43457 1.22775 
48 1 13.9027 8.508 2.46424 
52 1 15.2989 8.508 2.46424 
56 1 16.0457 8.508 1.22776 
19 1 10.047 9.72468 2.46426 
24 1 8.31299 13.649 2.46423 
27 1 8.82692 12.2594 2.46423 
35 1 9.69063 10.338 1.22778 
43 1 9.08546 11.5814 1.22775 
3 1 22.5777 8.508 2.4642 
7 1 21.7569 8.508 1.22773 
11 1 20.3464 8.508 1.22776 
20 1 23.4983 7.29142 2.46426 
36 1 23.855 6.67856 1.22778 
44 1 24.4593 5.43519 1.22775 
47 1 19.6496 8.508 2.46424 
51 1 18.2429 8.508 2.46424 
55 1 17.5007 8.508 1.22776 
17 1 23.4983 9.72458 2.46426 
33 1 23.855 10.3374 1.22778 
41 1 24.4593 11.5808 1.22775 
15 1 26.4508 0.833993 2.46427 
23 1 25.2316 3.36789 2.46423 
28 1 24.7174 4.75763 2.46423 
31 1 26.0956 1.44687 1.22778 
39 1 25.4909 2.69098 1.22775 
2 1 27.3725 17.398 2.46421 
6 1 28.2001 17.3981 1.22774 
10 1 29.5974 17.3984 1.22776 
14 1 26.4508 16.182 2.46427 
22 1 25.2316 13.6481 2.46423 
25 1 24.7174 12.2584 2.46423 
30 1 26.0956 15.5691 1.22778 
38 1 25.4909 14.325 1.22775 
46 1 30.321 17.3985 2.46425 
50 1 31.8005 17.383 2.46478 
54 1 32.5235 17.3187 1.22844 
ITEM: TIMESTEP
30
ITEM: NUMBER OF ATOMS
59
ITEM: BOX BOUNDS pp pp pp
0.0000000000000000e+00 3.2808000000000000e+01
0.0000000000000000e+00 1.7780000000000001e+01
0.0000000000000000e+00 2.4729999999999999e+00
ITEM: ATOMS id type x y z 
13 1 7.08845 0.81988 2.46424 
29 1 7.47741 1.41152 1.22777 
37 1 8.08622 2.6711 1.22777 
57 2 1.08547 1.04809 1.22664 
58 2 2.25827 2.05554 0.874855 
59 3 1.55861 2.67239 0.866713 
1 1 6.13768 17.3976 2.46424 
5 1 5.33847 17.4122 1.22779 
9 1 3.91394 17.4325 1.22871 
16 1 7.08423 16.1958 2.46424 
32 1 7.47633 15.6053 1.22777 
40 1 8.086 14.3454 1.22777 
45 1 3.1472 17.3246 2.46508 
49 1 1.74978 17.1145 2.47221 
53 1 1.15783 17.6652 1.2371 
4 1 10.9579 8.5081 2.46422 
8 1 11.7507 8.50802 1.22776 
12 1 13.1826 8.508 1.22776 
18 1 10.0252 7.2969 2.46424 
21 1 8.32849 3.35529 2.46423 
26 1 8.80667 4.75576 2.46423 
34 1 9.65029 6.69512 1.22777 
42 1 9.04861 5.43934 1.22777 
48 1 13.9499 8.508 2.46424 
52 1 15.302 8.508 2.46424 
56 1 16.0342 8.508 1.22776 
19 1 10.0252 9.71916 2.46424 
24 1 8.32839 13.661 2.46423 
27 1 8.80647 12.2609 2.46423 
35 1 9.65027 10.321 1.22777 
43 1 9.04849 11.577 1.22777 
3 1 22.5846 8.508 2.46422 
7 1 21.7935 8.508 1.22776 
11 1 20.3602 8.508 1.22776 
20 1 23.5205 7.29697 2.46424 
36 1 23.8955 6.6969 1.22777 
44 1 24.4949 5.44528 1.22777 
47 1 19.5963 8.508 2.46423 
51 1 18.2421 8.508 2.46424 
55 1 17.51 8.508 1.22776 
17 1 23.5205 9.71903 2.46424 
33 1 23.8955 10.3191 1.22777 
41 1 24.4949 11.5707 1.22777 
15 1 26.4377 0.824386 2.46424 
23 1 25.2146 3.35958 2.46423 
28 1 24.736 4.76156 2.46423 
31 1 26.0588 1.42359 1.22777 
39 1 25.4574 2.67656 1.22777 
2 1 27.3708 17.3979 2.46423 
6 1 28.2031 17.3991 1.22778 
10 1 29.5931 17.4023 1.22787 
14 1 26.4379 16.1916 2.46424 
22 1 25.2146 13.6564 2.46423 
25 1 24.736 12.2545 2.46423 
30 1 26.0588 15.5924 1.22777 
38 1 25.4574 14.3395 1.22777 
46 1 30.3483 17.3991 2.4644 
50 1 31.7947 17.3367 2.46623 
54 1 32.5072 17.2546 1.23012 
ITEM: TIMESTEP
40
ITEM: NUMBER OF ATOMS
59
ITEM: BOX BOUNDS pp pp pp
0.0000000000000000e+00 3.2808000000000000e+01
0.0000000000000000e+00 1.7780000000000001e+01
0.0000000000000000e+00 2.4729999999999999e+00
ITEM: ATOMS id type x y z 
13 1 7.07576 0.79532 2.46437 
29 1 7.5877 1.31529 1.22768 
37 1 8.24021 2.60356 1.22768 
57 2 1.25563 1.01188 1.24718 
58 2 2.40154 2.31002 0.818463 
59 3 1.63358 2.85022 0.85138 
1 1 6.0616 17.403 2.46483 
5 1 5.27299 17.4751 1.22822 
9 1 3.88517 17.4558 1.23248 
16 1 7.03151 16.2103 2.46437 
32 1 7.57329 15.7028 1.22768 
40 1 8.23639 14.4157 1.22768 
45 1 3.15951 17.1368 2.46955 
49 1 1.75339 17.1234 2.48536 
53 1 1.07143 17.6062 1.25152 
4 1 10.8896 8.50928 2.46436 
8 1 11.697 8.5086 1.22765 
12 1 13.1059 8.50793 1.22767 
18 1 9.93909 7.30146 2.46432 
21 1 8.4063 3.31798 2.46434 
26 1 8.70995 4.7253 2.46435 
34 1 9.50767 6.76571 1.22767 
42 1 8.88174 5.45499 1.22767 
48 1 13.8779 8.50797 2.46432 
52 1 15.2991 8.508 2.46433 
56 1 16.0488 8.508 1.22767 
19 1 9.93888 9.7159 2.46432 
24 1 8.40337 13.7094 2.46433 
27 1 8.70695 12.3025 2.46435 
35 1 9.5082 10.2504 1.22767 
43 1 8.87949 11.5669 1.22767 
3 1 22.6396 8.50807 2.46439 
7 1 21.8283 8.50802 1.22762 
11 1 20.4304 8.508 1.22766 
20 1 23.5979 7.31071 2.46432 
36 1 24.045 6.77384 1.22767 
44 1 24.6642 5.47899 1.22767 
47 1 19.6444 8.508 2.46433 
51 1 18.2454 8.508 2.46433 
55 1 17.4852 8.508 1.22767 
17 1 23.5979 9.70534 2.46432 
33 1 24.0449 10.2422 1.22767 
41 1 24.6644 11.5373 1.22767 
15 1 26.4289 0.794604 2.46432 
23 1 25.1327 3.3298 2.46434 
28 1 24.8293 4.75491 2.46434 
31 1 25.9483 1.30615 1.22768 
39 1 25.3018 2.61038 1.22767 
2 1 27.4076 17.3979 2.46447 
6 1 28.2063 17.4094 1.22783 
10 1 29.6223 17.4354 1.22907 
14 1 26.4329 16.2207 2.46432 
22 1 25.1327 13.6862 2.46434 
25 1 24.8294 12.2618 2.46434 
30 1 25.9494 15.7104 1.22768 
38 1 25.3019 14.406 1.22767 
46 1 30.3437 17.4025 2.46596 
50 1 31.7801 17.1465 2.47184 
54 1 32.5015 17.122 1.2357 
ITEM: TIMESTEP
50
ITEM: NUMBER OF ATOMS
59
ITEM: BOX BOUNDS pp pp pp
0.0000000000000000e+00 3.2808000000000000e+01
0.0000000000000000e+00 1.7780000000000001e+01
0.0000000000000000e+00 2.4729999999999999e+00
ITEM: ATOMS id type x y z 
13 1 7.08276 0.788877 2.46431 
29 1 7.57653 1.29794 1.22777 
37 1 8.2491 2.59233 1.22775 
57 2 1.24302 1.01345 1.24398 
58 2 2.40348 2.32016 0.816776 
59 3 1.63719 2.84423 0.853395 
1 1 6.09707 17.3996 2.46479 
5 1 5.28466 17.4801 1.22842 
9 1 3.87942 17.4442 1.23308 
16 1 7.04091 16.2118 2.46431 
32 1 7.55328 15.7179 1.22778 
40 1 8.23955 14.4315 1.22775 
45 1 3.16051 17.1365 2.46978 
49 1 1.74284 17.1079 2.48594 
53 1 1.11723 17.6279 1.25139 
4 1 10.8811 8.51254 2.46427 
8 1 11.7043 8.50936 1.22774 
12 1 13.1016 8.5079 1.22773 
18 1 9.93888 7.31117 2.46425 
21 1 8.41349 3.3138 2.46427 
26 1 8.7039 4.72857 2.46427 
34 1 9.49938 6.7637 1.22773 
42 1 8.86738 5.45448 1.22775 
48 1 13.8585 8.50793 2.46426 
52 1 15.301 8.50799 2.46426 
56 1 16.0388 8.508 1.22774 
19 1 9.93698 9.70982 2.46425 
24 1 8.41063 13.7116 2.46426 
27 1 8.70258 12.295 2.46427 
35 1 9.49814 10.2592 1.22773 
43 1 8.86763 11.572 1.22775 
3 1 22.644 8.50825 2.46428 
7 1 21.8234 8.50806 1.22774 
11 1 20.4269 8.508 1.22773 
20 1 23.5978 7.31576 2.46425 
36 1 24.0535 6.78008 1.22774 
44 1 24.6851 5.47752 1.22775 
47 1 19.6646 8.508 2.46426 
51 1 18.2293 8.508 2.46426 
55 1 17.49 8.508 1.22774 
17 1 23.5979 9.70049 2.46425 
33 1 24.0536 10.2363 1.22774 
41 1 24.6852 11.5393 1.22775 
15 1 26.4264 0.798707 2.46426 
23 1 25.1233 3.33548 2.46427 
28 1 24.8395 4.74349 2.46427 
31 1 25.9343 1.30747 1.22775 
39 1 25.2828 2.60782 1.22775 
2 1 27.391 17.3971 2.46442 
6 1 28.2145 17.4113 1.22795 
10 1 29.6114 17.4424 1.2293 
14 1 26.4317 16.2161 2.46426 
22 1 25.1234 13.6812 2.46427 
25 1 24.8396 12.273 2.46427 
30 1 25.9356 15.7085 1.22775 
38 1 25.2835 14.4088 1.22775 
46 1 30.3572 17.4046 2.46597 
50 1 31.7885 17.1313 2.47226 
54 1 32.5101 17.1147 1.23628 
ITEM: TIMESTEP
60
ITEM: NUMBER OF ATOMS
59
ITEM: BOX BOUNDS pp pp pp
0.0000000000000000e+00 3.2808000000000000e+01
0.0000000000000000e+00 1.7780000000000001e+01
0.0000000000000000e+00 2.4729999999999999e+00
ITEM: ATOMS id type x y z 
13 1 7.10322 0.787934 2.46439 
29 1 7.58538 1.30343 1.22786 
37 1 8.27934 2.58596 1.22776 
57 2 1.2091 1.02472 1.23395 
58 2 2.41322 2.33239 0.813676 
59 3 1.63273 2.82233 0.861713 
1 1 6.10286 17.407 2.46508 
5 1 5.29324 17.4867 1.2288 
9 1 3.89082 17.3986 1.23428 
16 1 7.04624 16.2101 2.46438 
32 1 7.54401 15.7081 1.22785 
40 1 8.26266 14.441 1.22776 
45 1 3.1522 17.1459 2.47111 
49 1 1.73511 17.0849 2.48464 
53 1 1.13033 17.6316 1.24939 
4 1 10.8767 8.5146 2.46425 
8 1 11.6957 8.51171 1.22776 
12 1 13.0964 8.50786 1.22775 
18 1 9.92641 7.31769 2.46425 
21 1 8.43598 3.3101 2.46426 
26 1 8.68678 4.73481 2.46426 
34 1 9.49305 6.7643 1.22774 
42 1 8.84315 5.46084 1.22775 
48 1 13.8584 8.50766 2.46425 
52 1 15.2956 8.50793 2.46425 
56 1 16.0337 8.50801 1.22775 
19 1 9.9236 9.70776 2.46425 
24 1 8.43141 13.7179 2.46426 
27 1 8.68693 12.2936 2.46426 
35 1 9.49154 10.2622 1.22774 
43 1 8.84526 11.5697 1.22775 
3 1 22.6457 8.50861 2.46425 
7 1 21.8285 8.50828 1.22776 
11 1 20.4272 8.50799 1.22774 
20 1 23.6068 7.32152 2.46425 
36 1 24.0611 6.78163 1.22774 
44 1 24.7171 5.47899 1.22775 
47 1 19.6562 8.50798 2.46425 
51 1 18.2305 8.508 2.46425 
55 1 17.4924 8.50801 1.22775 
17 1 23.6071 9.69529 2.46425 
33 1 24.0612 10.2353 1.22774 
41 1 24.7169 11.5384 1.22775 
15 1 26.4168 0.793201 2.46429 
23 1 25.1014 3.32334 2.46426 
28 1 24.8606 4.75312 2.46426 
31 1 25.9326 1.30846 1.22778 
39 1 25.2493 2.5996 1.22776 
2 1 27.3936 17.3975 2.46453 
6 1 28.2128 17.4196 1.22813 
10 1 29.6133 17.4494 1.2298 
14 1 26.4249 16.2198 2.46429 
22 1 25.1018 13.6938 2.46426 
25 1 24.8606 12.2641 2.46426 
30 1 25.9364 15.7072 1.22778 
38 1 25.2511 14.4176 1.22776 
46 1 30.3617 17.3866 2.4666 
50 1 31.7906 17.1231 2.47376 
54 1 32.517 17.1431 1.23784 
ITEM: TIMESTEP
70
ITEM: NUMBER OF ATOMS
59
ITEM: BOX BOUNDS pp pp pp
0.0000000000000000e+00 3.2808000000000000e+01
0.0000000000000000e+00 1.7780000000000001e+01
0.0000000000000000e+00 2.4729999999999999e+00
ITEM: ATOMS id type x y z 
13 1 7.13054 0.790323 2.46458 
29 1 7.60081 1.3148 1.22802 
37 1 8.3144 2.58426 1.22779 
57 2 1.19469 1.02537 1.22428 
58 2 2.43256 2.35037 0.808162 
59 3 1.62029 2.79295 0.875125 
1 1 6.12129 17.4182 2.46566 
5 1 5.30913 17.4846 1.22948 
9 1 3.9145 17.3384 1.23558 
16 1 7.05447 16.206 2.46455 
32 1 7.52902 15.6893 1.22799 
40 1 8.28248 14.4473 1.22778 
45 1 3.15616 17.1439 2.47253 
49 1 1.74166 17.1006 2.48036 
53 1 1.12458 17.6284 1.24498 
4 1 10.8672 8.51782 2.46425 
8 1 11.689 8.51494 1.22775 
12 1 13.0886 8.50825 1.22775 
18 1 9.9159 7.32364 2.46425 
21 1 8.46898 3.31024 2.46429 
26 1 8.66523 4.74581 2.46426 
34 1 9.48605 6.76586 1.22775 
42 1 8.82206 5.47296 1.22775 
48 1 13.853 8.50703 2.46425 
52 1 15.2909 8.50768 2.46425 
56 1 16.0382 8.50801 1.22775 
19 1 9.9127 9.70709 2.46425 
24 1 8.46011 13.7243 2.46428 
27 1 8.66921 12.2902 2.46426 
35 1 9.48441 10.266 1.22775 
43 1 8.82546 11.5685 1.22775 
3 1 22.6573 8.50935 2.46425 
7 1 21.8409 8.50875 1.22775 
11 1 20.437 8.50801 1.22775 
20 1 23.6197 7.32463 2.46425 
36 1 24.0612 6.77453 1.22775 
44 1 24.7315 5.48808 1.22775 
47 1 19.6727 8.50792 2.46425 
51 1 18.2358 8.50798 2.46425 
55 1 17.4901 8.50804 1.22775 
17 1 23.6203 9.69323 2.46425 
33 1 24.0615 10.2437 1.22775 
41 1 24.7307 11.5312 1.22775 
15 1 26.3965 0.796405 2.46436 
23 1 25.0699 3.32294 2.46427 
28 1 24.8864 4.76171 2.46426 
31 1 25.9317 1.32276 1.22784 
39 1 25.224 2.59877 1.22776 
2 1 27.3802 17.3992 2.46478 
6 1 28.1977 17.4323 1.22842 
10 1 29.6 17.4447 1.23081 
14 1 26.4121 16.2155 2.46436 
22 1 25.0712 13.696 2.46427 
25 1 24.8859 12.2572 2.46426 
30 1 25.9424 15.6919 1.22783 
38 1 25.2286 14.4199 1.22776 
46 1 30.3448 17.3592 2.46762 
50 1 31.7813 17.1245 2.47539 
54 1 32.5008 17.1651 1.23908 
ITEM: TIMESTEP
80
ITEM: NUMBER OF ATOMS
59
ITEM: BOX BOUNDS pp pp pp
0.0000000000000000e+00 3.2808000000000000e+01
0.0000000000000000e+00 1.7780000000000001e+01
0.0000000000000000e+00 2.4729999999999999e+00
ITEM: ATOMS id type x y z 
13 1 7.14546 0.794665 2.46479 
29 1 7.61523 1.32203 1.22822 
37 1 8.33683 2.59088 1.22784 
57 2 1.18957 1.03037 1.21721 
58 2 2.44366 2.36995 0.803336 
59 3 1.615 2.76842 0.886534 
1 1 6.13559 17.4293 2.4662 
5 1 5.32095 17.4743 1.23005 
9 1 3.92984 17.2979 1.23595 
16 1 7.0555 16.2053 2.46476 
32 1 7.5218 15.6821 1.22818 
40 1 8.29403 14.441 1.22783 
45 1 3.16484 17.1331 2.47273 
49 1 1.74922 17.1203 2.47802 
53 1 1.11825 17.6253 1.24228 
4 1 10.8755 8.51988 2.46425 
8 1 11.6968 8.51717 1.22775 
12 1 13.0957 8.50889 1.22775 
18 1 9.91471 7.32808 2.46425 
21 1 8.48906 3.31519 2.46432 
26 1 8.65737 4.75559 2.46426 
34 1 9.48592 6.77419 1.22775 
42 1 8.81231 5.47954 1.22776 
48 1 13.8515 8.50679 2.46425 
52 1 15.2961 8.50728 2.46425 
56 1 16.0372 8.5079 1.22775 
19 1 9.91126 9.70716 2.46425 
24 1 8.47567 13.7243 2.46431 
27 1 8.66476 12.2863 2.46426 
35 1 9.48375 10.2631 1.22775 
43 1 8.82003 11.5619 1.22776 
3 1 22.6494 8.51057 2.46425 
7 1 21.8244 8.50948 1.22775 
11 1 20.4297 8.50807 1.22775 
20 1 23.6188 7.32575 2.46425 
36 1 24.0614 6.78104 1.22775 
44 1 24.7486 5.4892 1.22776 
47 1 19.6712 8.50785 2.46425 
51 1 18.2281 8.50796 2.46425 
55 1 17.4858 8.50808 1.22775 
17 1 23.6198 9.69387 2.46425 
33 1 24.0619 10.2393 1.22775 
41 1 24.7466 11.5324 1.22776 
15 1 26.3874 0.797939 2.46445 
23 1 25.0538 3.32447 2.46427 
28 1 24.8962 4.76634 2.46425 
31 1 25.9239 1.32995 1.22792 
39 1 25.2041 2.5985 1.22778 
2 1 27.3667 17.4029 2.46506 
6 1 28.1855 17.4384 1.22876 
10 1 29.5874 17.4291 1.23163 
14 1 26.411 16.2121 2.46444 
22 1 25.0568 13.6969 2.46427 
25 1 24.8948 12.2551 2.46425 
30 1 25.9437 15.6843 1.22792 
38 1 25.2136 14.4216 1.22778 
46 1 30.336 17.3378 2.4685 
50 1 31.7727 17.1342 2.47532 
54 1 32.4932 17.1756 1.23928 
ITEM: TIMESTEP
90
ITEM: NUMBER OF ATOMS
59
ITEM: BOX BOUNDS pp pp pp
0.0000000000000000e+00 3.2808000000000000e+01
0.0000000000000000e+00 1.7780000000000001e+01
0.0000000000000000e+00 2.4729999999999999e+00
ITEM: ATOMS id type x y z 
13 1 7.15302 0.797732 2.46495 
29 1 7.62186 1.32485 1.22838 
37 1 8.34594 2.59141 1.22789 
57 2 1.18617 1.03213 1.21301 
58 2 2.4521 2.38264 0.799734 
59 3 1.61028 2.75608 0.894358 
1 1 6.1419 17.4343 2.4665 
5 1 5.32631 17.4683 1.2303 
9 1 3.93564 17.2756 1.23587 
16 1 7.05904 16.2056 2.46492 
32 1 7.51961 15.6795 1.22834 
40 1 8.29621 14.4404 1.22788 
45 1 3.16838 17.1253 2.47259 
49 1 1.75355 17.1319 2.47679 
53 1 1.11541 17.6242 1.24106 
4 1 10.8749 8.52013 2.46425 
8 1 11.6927 8.51825 1.22775 
12 1 13.0954 8.50926 1.22775 
18 1 9.91306 7.32735 2.46425 
21 1 8.49761 3.31594 2.46436 
26 1 8.6551 4.7578 2.46426 
34 1 9.48307 6.77656 1.22775 
42 1 8.80629 5.48301 1.22777 
48 1 13.8518 8.50668 2.46425 
52 1 15.2947 8.507 2.46425 
56 1 16.0398 8.50775 1.22775 
19 1 9.90996 9.70938 2.46425 
24 1 8.48073 13.7253 2.46435 
27 1 8.66427 12.2871 2.46426 
35 1 9.48128 10.2627 1.22775 
43 1 8.81596 11.5604 1.22777 
3 1 22.6514 8.5112 2.46425 
7 1 21.8292 8.51014 1.22775 
11 1 20.4308 8.50815 1.22775 
20 1 23.6208 7.32299 2.46425 
36 1 24.0626 6.78126 1.22775 
44 1 24.7527 5.49134 1.22776 
47 1 19.6718 8.50778 2.46425 
51 1 18.2297 8.50795 2.46425 
55 1 17.4849 8.50809 1.22775 
17 1 23.622 9.69782 2.46425 
33 1 24.0633 10.2405 1.22775 
41 1 24.7499 11.5322 1.22776 
15 1 26.3786 0.799693 2.46454 
23 1 25.0465 3.32766 2.46429 
28 1 24.8992 4.76759 2.46425 
31 1 25.9194 1.33318 1.228 
39 1 25.199 2.59783 1.2278 
2 1 27.361 17.4054 2.46528 
6 1 28.1791 17.4391 1.22898 
10 1 29.5829 17.4148 1.23206 
14 1 26.4076 16.2108 2.46453 
22 1 25.0512 13.6955 2.46428 
25 1 24.8969 12.2556 2.46425 
30 1 25.9461 15.6806 1.22799 
38 1 25.2124 14.4234 1.2278 
46 1 30.3296 17.3247 2.46892 
50 1 31.7681 17.1431 2.4751 
54 1 32.4871 17.184 1.23908 
ITEM: TIMESTEP
100
ITEM: NUMBER OF ATOMS
59
ITEM: BOX BOUNDS pp pp pp
0.0000000000000000e+00 3.2808000000000000e+01
0.0000000000000000e+00 1.7780000000000001e+01
0.0000000000000000e+00 2.4729999999999999e+00
ITEM: ATOMS id type x y z 
13 1 7.15986 0.800414 2.46515 
29 1 7.62796 1.32776 1.22855 
37 1 8.35296 2.58993 1.22795 
57 2 1.18339 1.0356 1.2087 
58 2 2.45989 2.39851 0.795541 
59 3 1.60684 2.74343 0.903242 
1 1 6.14663 17.4386 2.46676 
5 1 5.33115 17.4604 1.23059 
9 1 3.94555 17.253 1.23559 
16 1 7.0642 16.2065 2.46512 
32 1 7.51831 15.677 1.22853 
40 1 8.29424 14.4436 1.22793 
45 1 3.17422 17.1162 2.4724 
49 1 1.76179 17.1418 2.47525 
53 1 1.1149 17.6246 1.23979 
4 1 10.8718 8.52091 2.46425 
8 1 11.6912 8.51913 1.22775 
12 1 13.0931 8.5097 1.22775 
18 1 9.91315 7.33015 2.46425 
21 1 8.50649 3.31861 2.46442 
26 1 8.653 4.75821 2.46428 
34 1 9.47891 6.77662 1.22775 
42 1 8.80108 5.48603 1.22778 
48 1 13.854 8.50665 2.46425 
52 1 15.2932 8.50667 2.46425 
56 1 16.0411 8.50753 1.22775 
19 1 9.9106 9.70787 2.46425 
24 1 8.48526 13.7247 2.46441 
27 1 8.66416 12.2878 2.46428 
35 1 9.47839 10.264 1.22775 
43 1 8.81283 11.5604 1.22777 
3 1 22.6532 8.51192 2.46425 
7 1 21.8362 8.51089 1.22775 
11 1 20.4323 8.50829 1.22775 
20 1 23.6194 7.32632 2.46425 
36 1 24.064 6.78075 1.22775 
44 1 24.7557 5.49791 1.22776 
47 1 19.6734 8.50772 2.46425 
51 1 18.2324 8.50791 2.46425 
55 1 17.4847 8.50807 1.22775 
17 1 23.6207 9.69582 2.46425 
33 1 24.0645 10.2424 1.22775 
41 1 24.7519 11.528 1.22776 
15 1 26.3702 0.801729 2.46465 
23 1 25.0395 3.32827 2.46432 
28 1 24.9021 4.76975 2.46426 
31 1 25.9133 1.33544 1.2281 
39 1 25.1916 2.59991 1.22783 
2 1 27.3548 17.4091 2.46551 
6 1 28.1722 17.4395 1.22926 
10 1 29.5751 17.3989 1.23246 
14 1 26.4045 16.2092 2.46464 
22 1 25.0462 13.6963 2.46432 
25 1 24.8988 12.2558 2.46426 
30 1 25.9474 15.6778 1.22809 
38 1 25.2095 14.4224 1.22782 
46 1 30.3232 17.3097 2.46931 
50 1 31.7665 17.1514 2.47496 
54 1 32.4824 17.1936 1.23865 
ITEM: TIMESTEP
110
ITEM: NUMBER OF ATOMS
59
ITEM: BOX BOUNDS pp pp pp
0.0000000000000000e+00 3.2808000000000000e+01
0.0000000000000000e+00 1.7780000000000001e+01
0.0000000000000000e+00 2.4729999999999999e+00
ITEM: ATOMS id type x y z 
13 1 7.16363 0.802422 2.46532 
29 1 7.63248 1.32904 1.22873 
37 1 8.36092 2.59203 1.22802 
57 2 1.18253 1.03806 1.20508 
58 2 2.46583 2.41452 0.791174 
59 3 1.60497 2.73389 0.91189 
1 1 6.15036 17.442 2.46695 
5 1 5.33416 17.4544 1.23077 
9 1 3.95061 17.2343 1.2353 
16 1 7.06723 16.209 2.46531 
32 1 7.51873 15.677 1.22871 
40 1 8.29536 14.4424 1.22801 
45 1 3.17721 17.1066 2.47204 
49 1 1.76686 17.1499 2.47405 
53 1 1.11397 17.6249 1.23847 
4 1 10.8725 8.52059 2.46425 
8 1 11.6922 8.51946 1.22775 
12 1 13.0938 8.51009 1.22775 
18 1 9.91148 7.33037 2.46426 
21 1 8.51312 3.31898 2.46449 
26 1 8.65208 4.76058 2.4643 
34 1 9.47672 6.77846 1.22776 
42 1 8.79774 5.48843 1.22779 
48 1 13.8529 8.50675 2.46425 
52 1 15.2942 8.5064 2.46425 
56 1 16.0406 8.50727 1.22775 
19 1 9.90967 9.70822 2.46426 
24 1 8.48772 13.7249 2.46448 
27 1 8.66448 12.2869 2.4643 
35 1 9.47761 10.2627 1.22776 
43 1 8.81113 11.5603 1.22779 
3 1 22.6531 8.51255 2.46425 
7 1 21.8343 8.51155 1.22775 
11 1 20.4328 8.50846 1.22775 
20 1 23.6203 7.32645 2.46425 
36 1 24.0648 6.78234 1.22775 
44 1 24.7594 5.50056 1.22777 
47 1 19.6733 8.50769 2.46425 
51 1 18.2321 8.50785 2.46425 
55 1 17.4857 8.50799 1.22775 
17 1 23.6215 9.69691 2.46425 
33 1 24.0652 10.2424 1.22775 
41 1 24.7543 11.5272 1.22777 
15 1 26.3643 0.802226 2.46477 
23 1 25.0341 3.32964 2.46435 
28 1 24.9041 4.77226 2.46427 
31 1 25.9074 1.33616 1.22821 
39 1 25.1841 2.60224 1.22786 
2 1 27.3505 17.4122 2.46574 
6 1 28.1685 17.4389 1.22949 
10 1 29.5708 17.3834 1.23276 
14 1 26.4032 16.2097 2.46475 
22 1 25.0429 13.6966 2.46435 
25 1 24.8998 12.2549 2.46427 
30 1 25.9481 15.6769 1.2282 
38 1 25.2066 14.4209 1.22786 
46 1 30.3193 17.2957 2.46959 
50 1 31.7644 17.159 2.47465 
54 1 32.4783 17.2035 1.23835 
ITEM: TIMESTEP
120
ITEM: NUMBER OF ATOMS
59
ITEM: BOX BOUNDS pp pp pp
0.0000000000000000e+00 3.2808000000000000e+01
0.0000000000000000e+00 1.7780000000000001e+01
0.0000000000000000e+00 2.4729999999999999e+00
ITEM: ATOMS id type x y z 
13 1 7.16536 0.803733 2.46541 
29 1 7.63451 1.33022 1.22882 
37 1 8.36341 2.59135 1.22806 
57 2 1.18278 1.0394 1.20337 
58 2 2.46865 2.42327 0.788158 
59 3 1.60428 2.72993 0.917105 
1 1 6.15208 17.4436 2.46703 
5 1 5.33557 17.4512 1.23083 
9 1 3.95295 17.2253 1.2351 
16 1 7.0696 16.2101 2.4654 
32 1 7.51934 15.677 1.2288 
40 1 8.29487 14.4423 1.22805 
45 1 3.17915 17.1016 2.47182 
49 1 1.76903 17.1535 2.47337 
53 1 1.11402 17.6249 1.23784 
4 1 10.8722 8.52065 2.46425 
8 1 11.6915 8.51953 1.22775 
12 1 13.0935 8.51027 1.22775 
18 1 9.91099 7.331 2.46426 
21 1 8.51624 3.3194 2.46453 
26 1 8.65176 4.76088 2.46431 
34 1 9.47556 6.77929 1.22776 
42 1 8.79616 5.4891 1.2278 
48 1 13.8532 8.50683 2.46425 
52 1 15.2937 8.50626 2.46425 
56 1 16.0412 8.50713 1.22775 
19 1 9.90959 9.70788 2.46426 
24 1 8.48836 13.7249 2.46452 
27 1 8.66467 12.2872 2.46431 
35 1 9.47706 10.2626 1.22776 
43 1 8.8109 11.5602 1.2278 
3 1 22.6534 8.51279 2.46425 
7 1 21.8354 8.51186 1.22775 
11 1 20.4325 8.50856 1.22775 
20 1 23.6205 7.3268 2.46425 
36 1 24.0656 6.78277 1.22775 
44 1 24.761 5.50145 1.22777 
47 1 19.6731 8.50769 2.46425 
51 1 18.2324 8.50781 2.46425 
55 1 17.485 8.50793 1.22775 
17 1 23.6217 9.6971 2.46425 
33 1 24.0656 10.2425 1.22775 
41 1 24.7553 11.5272 1.22777 
15 1 26.361 0.802889 2.46484 
23 1 25.0316 3.33054 2.46437 
28 1 24.905 4.7728 2.46428 
31 1 25.9042 1.33702 1.22828 
39 1 25.1817 2.6022 1.22789 
2 1 27.3487 17.4138 2.46586 
6 1 28.1662 17.4384 1.22961 
10 1 29.5683 17.3752 1.23288 
14 1 26.4019 16.2096 2.46482 
22 1 25.0416 13.6965 2.46437 
25 1 24.9003 12.2553 2.46427 
30 1 25.9482 15.6761 1.22826 
38 1 25.2067 14.4216 1.22788 
46 1 30.317 17.2884 2.4697 
50 1 31.7633 17.1627 2.47449 
54 1 32.4766 17.2089 1.23817 
ITEM: TIMESTEP
130
ITEM: NUMBER OF ATOMS
59
ITEM: BOX BOUNDS pp pp pp
0.0000000000000000e+00 3.2808000000000000e+01
0.0000000000000000e+00 1.7780000000000001e+01
0.0000000000000000e+00 2.4729999999999999e+00
ITEM: ATOMS id type x y z 
13 1 7.16813 0.807023 2.46567 
29 1 7.63836 1.33186 1.22908 
37 1 8.37223 2.59331 1.22821 
57 2 1.18557 1.04293 1.19863 
58 2 2.47595 2.45121 0.778085 
59 3 1.60344 2.72032 0.933854 
1 1 6.15476 17.4479 2.46721 
5 1 5.33848 17.4417 1.23097 
9 1 3.95867 17.1997 1.2344 
16 1 7.07539 16.215 2.46568 
32 1 7.52172 15.6795 1.22908 
40 1 8.29475 14.4414 1.2282 
45 1 3.18266 17.0868 2.47105 
49 1 1.77613 17.1625 2.4714 
53 1 1.11322 17.6253 1.23578 
4 1 10.872 8.51941 2.46425 
8 1 11.6918 8.51926 1.22775 
12 1 13.0932 8.51075 1.22775 
18 1 9.90865 7.33169 2.46427 
21 1 8.52433 3.31857 2.46467 
26 1 8.65151 4.76202 2.46436 
34 1 9.47166 6.78045 1.22777 
42 1 8.793 5.4916 1.22785 
48 1 13.8537 8.50715 2.46425 
52 1 15.2941 8.50591 2.46425 
56 1 16.0396 8.50665 1.22775 
19 1 9.90895 9.70728 2.46427 
24 1 8.48925 13.7253 2.46466 
27 1 8.66531 12.2872 2.46436 
35 1 9.4759 10.2619 1.22777 
43 1 8.81066 11.5592 1.22784 
3 1 22.6536 8.51374 2.46425 
7 1 21.8348 8.51269 1.22775 
11 1 20.4333 8.5089 1.22775 
20 1 23.6215 7.32781 2.46426 
36 1 24.0677 6.78425 1.22776 
44 1 24.7649 5.50535 1.22779 
47 1 19.6724 8.50774 2.46425 
51 1 18.2321 8.50766 2.46425 
55 1 17.4866 8.50768 1.22775 
17 1 23.6224 9.69781 2.46426 
33 1 24.067 10.2432 1.22776 
41 1 24.757 11.5264 1.22779 
15 1 26.3531 0.803631 2.46506 
23 1 25.0251 3.33165 2.46445 
28 1 24.9072 4.77508 2.4643 
31 1 25.896 1.33701 1.22849 
39 1 25.1728 2.60438 1.22797 
2 1 27.344 17.4184 2.46619 
6 1 28.1613 17.4361 1.22995 
10 1 29.5629 17.3502 1.23318 
14 1 26.3993 16.2115 2.46504 
22 1 25.0393 13.6976 2.46444 
25 1 24.901 12.2555 2.4643 
30 1 25.9489 15.6765 1.22847 
38 1 25.2051 14.4199 1.22797 
46 1 30.3119 17.2662 2.46997 
50 1 31.7605 17.1737 2.47392 
54 1 32.4711 17.2256 1.23757 
ITEM: TIMESTEP
140
ITEM: NUMBER OF ATOMS
59
ITEM: BOX BOUNDS pp pp pp
0.0000000000000000e+00 3.2808000000000000e+01
0.0000000000000000e+00 1.7780000000000001e+01
0.0000000000000000e+00 2.4729999999999999e+00
ITEM: ATOMS id type x y z 
13 1 7.16789 0.808144 2.46575 
29 1 7.6387 1.3324 1.22916 
59 3 1.60376 2.71882 0.940294 
57 2 1.18781 1.04396 1.1974 
58 2 2.47774 2.46143 0.773894 
1 1 6.15503 17.4487 2.46722 
5 1 5.33882 17.4386 1.23097 
9 1 3.95952 17.1922 1.23409 
16 1 7.07753 16.2168 2.46576 
32 1 7.52312 15.6807 1.22917 
53 1 1.11352 17.6254 1.23506 
45 1 3.18288 17.082 2.47072 
49 1 1.77774 17.1646 2.47071 
4 1 10.8719 8.51886 2.46426 
8 1 11.6915 8.51893 1.22776 
12 1 13.093 8.51085 1.22775 
18 1 9.90779 7.33182 2.46427 
21 1 8.52654 3.31838 2.46473 
26 1 8.65186 4.76204 2.46438 
34 1 9.47067 6.78087 1.22778 
42 1 8.79249 5.49176 1.22787 
48 1 13.8532 8.5073 2.46425 
52 1 15.294 8.50583 2.46425 
56 1 16.0398 8.50649 1.22775 
37 1 8.37431 2.59344 1.22827 
19 1 9.90883 9.70704 2.46427 
24 1 8.48877 13.7255 2.46472 
27 1 8.66565 12.287 2.46438 
35 1 9.47598 10.2616 1.22778 
43 1 8.81122 11.559 1.22787 
40 1 8.29425 14.4413 1.22826 
3 1 22.6538 8.51393 2.46425 
7 1 21.8349 8.51287 1.22775 
11 1 20.4334 8.50903 1.22775 
20 1 23.6219 7.32816 2.46426 
36 1 24.0682 6.78484 1.22776 
55 1 17.4863 8.50755 1.22775 
47 1 19.6729 8.50779 2.46425 
51 1 18.2323 8.50759 2.46425 
17 1 23.6226 9.69795 2.46426 
33 1 24.0671 10.2433 1.22776 
15 1 26.3512 0.803916 2.46514 
23 1 25.0235 3.33189 2.46449 
28 1 24.9076 4.77586 2.46431 
31 1 25.8934 1.3371 1.22857 
39 1 25.1705 2.6047 1.22801 
44 1 24.7657 5.5063 1.2278 
2 1 27.3436 17.4199 2.4663 
6 1 28.1602 17.4349 1.23005 
10 1 29.5615 17.3419 1.23322 
14 1 26.3985 16.2124 2.46513 
22 1 25.0393 13.6979 2.46448 
25 1 24.9009 12.2553 2.46431 
30 1 25.9487 15.6769 1.22855 
38 1 25.2053 14.4198 1.228 
46 1 30.3105 17.2589 2.47001 
50 1 31.7596 17.177 0.000687213 
54 1 32.4697 17.2313 1.23732 
41 1 24.757 11.5263 1.2278 
ITEM: TIMESTEP
150
ITEM: NUMBER OF ATOMS
59
ITEM: BOX BOUNDS pp pp pp
0.0000000000000000e+00 3.2808000000000000e+01
0.0000000000000000e+00 1.7780000000000001e+01
0.0000000000000000e+00 2.4729999999999999e+00
ITEM: ATOMS id type x y z 
13 1 7.16719 0.809515 2.46583 
29 1 7.63884 1.33335 1.22924 
59 3 1.60439 2.71763 0.948325 
57 2 1.19087 1.04527 1.19615 
58 2 2.47953 2.4737 0.768511 
1 1 6.15547 17.4493 2.46722 
5 1 5.33912 17.4351 1.23095 
9 1 3.96063 17.1838 1.23371 
16 1 7.08004 16.2189 2.46585 
32 1 7.52493 15.6821 1.22926 
53 1 1.11411 17.6262 1.23421 
45 1 3.18324 17.0761 2.47031 
49 1 1.77876 17.1662 2.46989 