ITEM: TIMESTEP
0
ITEM: NUMBER OF ATOMS
57
ITEM: BOX BOUNDS pp pp pp
0.0000000000000000e+00 3.2808000000000000e+01
0.0000000000000000e+00 1.7780000000000001e+01
0.0000000000000000e+00 2.4729999999999999e+00
ITEM: ATOMS id type x y z 
13 1 7.043 0.849 2.464 
29 1 7.397 1.432 1.228 
37 1 8.035 2.733 1.228 
1 1 6.173 17.398 2.464 
5 1 5.371 17.398 1.228 
9 1 3.973 17.398 1.228 
16 1 7.043 16.167 2.464 
32 1 7.397 15.584 1.228 
40 1 8.035 14.283 1.228 
45 1 3.236 17.398 2.464 
49 1 1.81 17.398 2.464 
53 1 1.083 17.398 1.228 
57 2 7.224 17.339 1.616 
4 1 10.968 8.508 2.464 
8 1 11.771 8.508 1.228 
12 1 13.168 8.508 1.228 
18 1 10.098 7.277 2.464 
21 1 8.308 3.392 2.464 
26 1 8.833 4.734 2.464 
34 1 9.745 6.694 1.228 
42 1 9.106 5.393 1.228 
48 1 13.906 8.508 2.464 
52 1 15.331 8.508 2.464 
56 1 16.058 8.508 1.228 
19 1 10.098 9.739 2.464 
24 1 8.308 13.624 2.464 
27 1 8.833 12.282 2.464 
35 1 9.745 10.322 1.228 
43 1 9.106 11.623 1.228 
3 1 22.577 8.508 2.464 
7 1 21.775 8.508 1.228 
11 1 20.377 8.508 1.228 
20 1 23.447 7.277 2.464 
36 1 23.801 6.694 1.228 
44 1 24.439 5.393 1.228 
47 1 19.64 8.508 2.464 
51 1 18.214 8.508 2.464 
55 1 17.487 8.508 1.228 
17 1 23.447 9.739 2.464 
33 1 23.801 10.322 1.228 
41 1 24.439 11.623 1.228 
15 1 26.502 0.849 2.464 
23 1 25.237 3.392 2.464 
28 1 24.712 4.734 2.464 
31 1 26.149 1.432 1.228 
39 1 25.511 2.733 1.228 
2 1 27.373 17.398 2.464 
6 1 28.175 17.398 1.228 
10 1 29.572 17.398 1.228 
14 1 26.502 16.167 2.464 
22 1 25.237 13.624 2.464 
25 1 24.712 12.282 2.464 
30 1 26.149 15.584 1.228 
38 1 25.511 14.283 1.228 
46 1 30.31 17.398 2.464 
50 1 31.735 17.398 2.464 
54 1 32.462 17.398 1.228 
ITEM: TIMESTEP
10
ITEM: NUMBER OF ATOMS
57
ITEM: BOX BOUNDS pp pp pp
0.0000000000000000e+00 3.2808000000000000e+01
0.0000000000000000e+00 1.7780000000000001e+01
0.0000000000000000e+00 2.4729999999999999e+00
ITEM: ATOMS id type x y z 
13 1 6.984 0.975389 2.42389 
29 1 7.29321 1.54583 1.19752 
37 1 8.04599 2.7987 1.22404 
1 1 6.0941 17.4187 2.55386 
5 1 5.324 17.426 1.34021 
9 1 3.88023 17.4035 1.24228 
16 1 6.97692 16.2489 2.35277 
32 1 7.34761 15.4995 1.12681 
40 1 8.04159 14.2389 1.22763 
45 1 3.17744 17.3978 2.47314 
49 1 1.7362 17.3977 2.46459 
53 1 1.03694 17.398 1.22792 
57 2 7.90209 17.0621 1.67338 
4 1 11.0011 8.49575 2.46425 
8 1 11.8055 8.50466 1.22778 
12 1 13.199 8.50825 1.2278 
18 1 10.0927 7.29171 2.46418 
21 1 8.33706 3.42851 2.46344 
26 1 8.85428 4.79238 2.46429 
34 1 9.73558 6.71404 1.22781 
42 1 9.10918 5.43513 1.22789 
48 1 13.9249 8.5081 2.4642 
52 1 15.3517 8.50801 2.46419 
56 1 16.0724 8.508 1.22781 
19 1 10.0991 9.70629 2.46417 
24 1 8.33461 13.582 2.46768 
27 1 8.84105 12.2504 2.46466 
35 1 9.74482 10.2788 1.22781 
43 1 9.1049 11.5798 1.22801 
3 1 22.5834 8.508 2.46424 
7 1 21.7768 8.508 1.22777 
11 1 20.3854 8.508 1.2278 
20 1 23.4503 7.27706 2.46418 
36 1 23.8022 6.69409 1.22781 
44 1 24.4359 5.39927 1.22781 
47 1 19.6541 8.508 2.4642 
51 1 18.227 8.508 2.46419 
55 1 17.5064 8.508 1.22781 
17 1 23.4503 9.73894 2.46418 
33 1 23.8022 10.3219 1.22781 
41 1 24.4359 11.6167 1.22781 
15 1 26.4855 0.8549 2.46418 
23 1 25.2344 3.40063 2.46419 
28 1 24.7105 4.73609 2.46419 
31 1 26.1364 1.44665 1.22781 
39 1 25.5064 2.74006 1.22781 
2 1 27.3391 17.398 2.46425 
6 1 28.1491 17.398 1.22778 
10 1 29.53 17.398 1.2278 
14 1 26.4855 16.1611 2.46418 
22 1 25.2344 13.6154 2.46419 
25 1 24.7105 12.2799 2.46419 
30 1 26.1364 15.5694 1.22781 
38 1 25.5064 14.2759 1.22781 
46 1 30.2646 17.398 2.4642 
50 1 31.6939 17.398 2.46419 
54 1 32.4137 17.398 1.22781 
ITEM: TIMESTEP
20
ITEM: NUMBER OF ATOMS
57
ITEM: BOX BOUNDS pp pp pp
0.0000000000000000e+00 3.2808000000000000e+01
0.0000000000000000e+00 1.7780000000000001e+01
0.0000000000000000e+00 2.4729999999999999e+00
ITEM: ATOMS id type x y z 
13 1 6.91035 0.978596 2.47108 
29 1 7.30052 1.54587 1.23556 
37 1 8.02683 2.76189 1.22136 
1 1 6.10279 17.4823 2.50807 
5 1 5.32847 17.4189 1.27782 
9 1 3.91147 17.4022 1.25143 
16 1 7.02459 16.2106 2.3887 
32 1 7.38279 15.5637 1.15487 
40 1 8.03493 14.2361 1.21397 
45 1 3.17979 17.3966 2.48909 
49 1 1.7531 17.3969 2.46739 
53 1 1.03488 17.3979 1.22964 
57 2 7.99719 16.8875 1.63972 
4 1 10.9958 8.52111 2.46427 
8 1 11.8005 8.50837 1.22774 
12 1 13.1914 8.50806 1.22775 
18 1 10.0993 7.30953 2.46426 
21 1 8.34178 3.42796 2.45872 
26 1 8.84213 4.76205 2.46372 
34 1 9.72887 6.73754 1.22775 
42 1 9.09246 5.42902 1.22752 
48 1 13.9262 8.50833 2.46426 
52 1 15.3521 8.50807 2.46425 
56 1 16.0711 8.50799 1.22775 
19 1 10.0917 9.72374 2.46428 
24 1 8.3176 13.6119 2.45296 
27 1 8.83547 12.2625 2.46396 
35 1 9.72391 10.2979 1.22783 
43 1 9.09266 11.5998 1.22812 
3 1 22.5828 8.508 2.46427 
7 1 21.7779 8.508 1.22773 
11 1 20.388 8.508 1.22775 
20 1 23.4628 7.28453 2.46424 
36 1 23.8125 6.7001 1.22776 
44 1 24.4435 5.405 1.22775 
47 1 19.655 8.508 2.46425 
51 1 18.2254 8.508 2.46425 
55 1 17.5065 8.50799 1.22775 
17 1 23.4628 9.73147 2.46424 
33 1 23.8125 10.3159 1.22776 
41 1 24.4435 11.611 1.22775 
15 1 26.4649 0.850056 2.46424 
23 1 25.2311 3.40146 2.46425 
28 1 24.7132 4.73734 2.46425 
31 1 26.1269 1.43694 1.22775 
39 1 25.4988 2.73661 1.22775 
2 1 27.3338 17.398 2.46427 
6 1 28.1392 17.398 1.22774 
10 1 29.5287 17.398 1.22775 
14 1 26.4649 16.1659 2.46424 
22 1 25.2311 13.6145 2.46425 
25 1 24.7132 12.2787 2.46425 
30 1 26.1269 15.5791 1.22775 
38 1 25.4988 14.2794 1.22775 
46 1 30.264 17.398 2.46426 
50 1 31.6908 17.398 2.4643 
54 1 32.4053 17.398 1.22787 
ITEM: TIMESTEP
30
ITEM: NUMBER OF ATOMS
57
ITEM: BOX BOUNDS pp pp pp
0.0000000000000000e+00 3.2808000000000000e+01
0.0000000000000000e+00 1.7780000000000001e+01
0.0000000000000000e+00 2.4729999999999999e+00
ITEM: ATOMS id type x y z 
13 1 6.9116 0.969756 0.00830581 
29 1 7.29753 1.53689 1.24175 
37 1 8.03562 2.76864 1.22464 
1 1 6.11428 17.4753 0.0235445 
5 1 5.31222 17.4084 1.25901 
9 1 3.91659 17.3989 1.25274 
16 1 7.01739 16.2599 2.39564 
32 1 7.39052 15.5691 1.15135 
40 1 8.04182 14.2322 1.21087 
45 1 3.18069 17.3961 0.0149579 
49 1 1.7563 17.3966 2.46979 
53 1 1.03637 17.3977 1.23206 
57 2 8.04458 16.8506 1.65027 
4 1 10.9944 8.52198 2.46426 
8 1 11.7955 8.51367 1.22776 
12 1 13.1876 8.50785 1.22775 
18 1 10.0955 7.30893 2.46422 
21 1 8.34132 3.42344 2.46052 
26 1 8.84317 4.76592 2.46311 
34 1 9.7248 6.73967 1.22769 
42 1 9.09091 5.43447 1.2269 
48 1 13.9227 8.50811 2.46425 
52 1 15.3494 8.50806 2.46425 
56 1 16.0699 8.508 1.22775 
19 1 10.0906 9.72781 2.4643 
24 1 8.31322 13.6125 2.4499 
27 1 8.83186 12.2663 2.4622 
35 1 9.71937 10.2987 1.22776 
43 1 9.09031 11.5973 1.22661 
3 1 22.5814 8.508 2.46425 
7 1 21.7781 8.508 1.22775 
11 1 20.3861 8.508 1.22775 
20 1 23.467 7.28787 2.46425 
36 1 23.8195 6.70522 1.22775 
44 1 24.4485 5.40741 1.22775 
47 1 19.6519 8.508 2.46425 
51 1 18.2239 8.508 2.46425 
55 1 17.5039 8.50799 1.22775 
17 1 23.467 9.72813 2.46425 
33 1 23.8195 10.3108 1.22775 
41 1 24.4485 11.6086 1.22775 
15 1 26.4582 0.844759 2.46425 
23 1 25.2287 3.40106 2.46425 
28 1 24.7149 4.73993 2.46425 
31 1 26.1175 1.43298 1.22775 
39 1 25.4937 2.73557 1.22775 
2 1 27.3321 17.398 2.46425 
6 1 28.1365 17.398 1.22775 
10 1 29.5276 17.398 1.22776 
14 1 26.4582 16.1712 2.46425 
22 1 25.2287 13.6149 2.46425 
25 1 24.7149 12.2761 2.46425 
30 1 26.1175 15.583 1.22775 
38 1 25.4937 14.2804 1.22775 
46 1 30.2629 17.398 2.46427 
50 1 31.6893 17.398 2.46454 
54 1 32.4092 17.3981 1.22826 
ITEM: TIMESTEP
40
ITEM: NUMBER OF ATOMS
57
ITEM: BOX BOUNDS pp pp pp
0.0000000000000000e+00 3.2808000000000000e+01
0.0000000000000000e+00 1.7780000000000001e+01
0.0000000000000000e+00 2.4729999999999999e+00
ITEM: ATOMS id type x y z 
13 1 6.91368 0.966724 0.0107778 
29 1 7.29777 1.53244 1.24422 
37 1 8.04041 2.77249 1.22719 
1 1 6.11279 17.4733 0.0167763 
5 1 5.30955 17.4069 1.25198 
9 1 3.91527 17.3965 1.25125 
16 1 7.0275 16.2755 2.39628 
32 1 7.39295 15.5736 1.15349 
40 1 8.0424 14.2353 1.2084 
45 1 3.18148 17.3955 0.0135099 
49 1 1.75525 17.3965 2.47132 
53 1 1.03257 17.3976 1.23356 
57 2 8.08204 16.8306 1.65917 
4 1 10.991 8.52055 2.46425 
8 1 11.7936 8.51605 1.22775 
12 1 13.1865 8.508 1.22775 
18 1 10.0931 7.30892 2.46414 
21 1 8.34141 3.42146 2.46255 
26 1 8.84275 4.767 2.46306 
34 1 9.72082 6.73876 1.22758 
42 1 9.09071 5.43915 1.2267 
48 1 13.9196 8.50777 2.46425 
52 1 15.3483 8.50797 2.46425 
56 1 16.0711 8.508 1.22775 
19 1 10.0895 9.72874 2.46415 
24 1 8.31085 13.6138 2.44735 
27 1 8.82898 12.2671 2.46079 
35 1 9.71658 10.2987 1.22754 
43 1 9.08695 11.5979 1.22536 
3 1 22.5816 8.508 2.46425 
7 1 21.7791 8.508 1.22775 
11 1 20.3868 8.508 1.22775 
20 1 23.4688 7.28957 2.46425 
36 1 23.8238 6.70925 1.22775 
44 1 24.4523 5.40843 1.22775 
47 1 19.6528 8.508 2.46425 
51 1 18.2246 8.508 2.46425 
55 1 17.5018 8.50799 1.22775 
17 1 23.4688 9.72643 2.46425 
33 1 23.8238 10.3068 1.22775 
41 1 24.4523 11.6076 1.22775 
15 1 26.4535 0.843156 2.46425 
23 1 25.2264 3.40203 2.46425 
28 1 24.7161 4.74281 2.46425 
31 1 26.1099 1.43131 1.22775 
39 1 25.4902 2.73444 1.22775 
2 1 27.3303 17.398 2.46425 
6 1 28.1352 17.398 1.22776 
10 1 29.5267 17.398 1.22779 
14 1 26.4535 16.1728 2.46425 
22 1 25.2264 13.614 2.46425 
25 1 24.7161 12.2732 2.46425 
30 1 26.1099 15.5847 1.22775 
38 1 25.4902 14.2816 1.22775 
46 1 30.2596 17.398 2.46433 
50 1 31.6888 17.3981 2.46494 
54 1 32.4103 17.3981 1.22877 
ITEM: TIMESTEP
50
ITEM: NUMBER OF ATOMS
57
ITEM: BOX BOUNDS pp pp pp
0.0000000000000000e+00 3.2808000000000000e+01
0.0000000000000000e+00 1.7780000000000001e+01
0.0000000000000000e+00 2.4729999999999999e+00
ITEM: ATOMS id type x y z 
13 1 6.92014 0.963608 0.0122835 
29 1 7.3032 1.52899 1.24741 
37 1 8.04235 2.76888 1.23232 
1 1 6.1076 17.4762 0.0044547 
5 1 5.30734 17.4046 1.24041 
9 1 3.91482 17.3913 1.2464 
16 1 7.06037 16.3022 2.39777 
32 1 7.3999 15.5825 1.15674 
40 1 8.04165 14.2403 1.20253 
45 1 3.17842 17.3935 0.00960445 
49 1 1.75233 17.3962 2.47391 
53 1 1.02991 17.3975 1.2364 
57 2 8.16128 16.7876 1.68346 
4 1 10.9888 8.52308 2.46415 
8 1 11.7888 8.52038 1.22769 
12 1 13.1828 8.50871 1.22775 
18 1 10.0892 7.31092 2.46392 
21 1 8.34231 3.42065 2.46746 
26 1 8.84054 4.76742 2.46356 
34 1 9.71549 6.74202 1.22737 
42 1 9.08591 5.4382 1.22685 
48 1 13.9183 8.50699 2.46425 
52 1 15.3452 8.50764 2.46425 
56 1 16.0681 8.50799 1.22775 
19 1 10.0869 9.73132 2.46352 
24 1 8.30566 13.6166 2.44162 
27 1 8.82225 12.267 2.45734 
35 1 9.71195 10.3002 1.22673 
43 1 9.08001 11.6002 1.22225 
3 1 22.5807 8.508 2.46425 
7 1 21.7787 8.508 1.22775 
11 1 20.3849 8.508 1.22775 
20 1 23.473 7.29257 2.46425 
36 1 23.8346 6.71535 1.22775 
44 1 24.4605 5.41301 1.22775 
47 1 19.6497 8.508 2.46425 
51 1 18.2223 8.508 2.46425 
55 1 17.4994 8.50801 1.22775 
17 1 23.473 9.72343 2.46425 
33 1 23.8346 10.3006 1.22775 
41 1 24.4605 11.603 1.22775 
15 1 26.4442 0.839976 2.46425 
23 1 25.2225 3.40039 2.46425 
28 1 24.7208 4.74559 2.46425 
31 1 26.0952 1.42485 1.22775 
39 1 25.4813 2.73277 1.22775 
2 1 27.3258 17.398 2.46426 
6 1 28.1291 17.398 1.22778 
10 1 29.5218 17.398 1.22797 
14 1 26.4442 16.176 2.46425 
22 1 25.2225 13.6156 2.46425 
25 1 24.7208 12.2704 2.46425 
30 1 26.0952 15.5911 1.22775 
38 1 25.4813 14.2832 1.22775 
46 1 30.2569 17.398 2.46458 
50 1 31.684 17.3981 2.46612 
54 1 32.4058 17.3982 1.23013 
ITEM: TIMESTEP
60
ITEM: NUMBER OF ATOMS
57
ITEM: BOX BOUNDS pp pp pp
0.0000000000000000e+00 3.2808000000000000e+01
0.0000000000000000e+00 1.7780000000000001e+01
0.0000000000000000e+00 2.4729999999999999e+00
ITEM: ATOMS id type x y z 
13 1 6.92508 0.960083 0.00721189 
29 1 7.31295 1.52278 1.24362 
37 1 8.04441 2.76778 1.23735 
1 1 6.09862 17.4813 -0.00445341 
5 1 5.30572 17.4 1.23227 
9 1 3.91176 17.3843 1.23808 
16 1 7.11169 16.3293 2.40143 
32 1 7.41461 15.5978 1.16297 
40 1 8.03343 14.2445 1.19427 
45 1 3.17546 17.3882 0.0019116 
49 1 1.74983 17.3957 2.47451 
53 1 1.02504 17.3975 1.23759 
57 2 8.25939 16.7392 1.72524 
4 1 10.984 8.52483 2.46365 
8 1 11.7844 8.52272 1.22729 
12 1 13.1794 8.51016 1.22768 
18 1 10.0852 7.3138 2.46381 
21 1 8.34049 3.41916 2.47291 
26 1 8.83707 4.77037 2.46621 
34 1 9.71235 6.74413 1.2274 
42 1 9.08406 5.44026 1.22915 
48 1 13.9149 8.50635 2.46421 
52 1 15.3416 8.50672 2.46425 
56 1 16.0663 8.50774 1.22775 
19 1 10.083 9.73465 2.46147 
24 1 8.29671 13.6185 2.43322 
27 1 8.80995 12.2675 2.45142 
35 1 9.7089 10.3043 1.22437 
43 1 9.07137 11.6025 1.21675 
3 1 22.5787 8.508 2.46425 
7 1 21.7782 8.508 1.22775 
11 1 20.3835 8.508 1.22775 
20 1 23.4755 7.29541 2.46425 
36 1 23.8446 6.7226 1.22775 
44 1 24.4727 5.41948 1.22775 
47 1 19.6478 8.508 2.46425 
51 1 18.2208 8.50803 2.46425 
55 1 17.4965 8.5081 1.22775 
17 1 23.4755 9.72059 2.46425 
33 1 23.8446 10.2934 1.22775 
41 1 24.4727 11.5965 1.22775 
15 1 26.4334 0.837339 2.46427 
23 1 25.2155 3.39941 2.46425 
28 1 24.7283 4.7519 2.46425 
31 1 26.0771 1.4185 1.22776 
39 1 25.4678 2.72947 1.22775 
2 1 27.3199 17.398 2.46435 
6 1 28.1217 17.398 1.22794 
10 1 29.5165 17.398 1.22867 
14 1 26.4334 16.1787 2.46427 
22 1 25.2155 13.6166 2.46425 
25 1 24.7283 12.2641 2.46425 
30 1 26.0771 15.5975 1.22776 
38 1 25.4678 14.2865 1.22775 
46 1 30.252 17.3981 2.46545 
50 1 31.6788 17.3983 2.46845 
54 1 32.4033 17.3984 1.23254 
ITEM: TIMESTEP
70
ITEM: NUMBER OF ATOMS
57
ITEM: BOX BOUNDS pp pp pp
0.0000000000000000e+00 3.2808000000000000e+01
0.0000000000000000e+00 1.7780000000000001e+01
0.0000000000000000e+00 2.4729999999999999e+00
ITEM: ATOMS id type x y z 
13 1 6.93557 0.943997 -0.00316277 
29 1 7.31759 1.51423 1.2345 
37 1 8.04551 2.76892 1.23632 
1 1 6.09679 17.4728 -0.0139004 
5 1 5.30346 17.3901 1.2228 
9 1 3.91157 17.375 1.23172 
16 1 7.14028 16.3519 2.42057 
32 1 7.45325 15.6232 1.17712 
40 1 8.02038 14.2459 1.18902 
45 1 3.17423 17.3799 -0.00390407 
49 1 1.74749 17.3933 2.47054 
53 1 1.02181 17.398 1.23414 
57 2 8.32081 16.7204 1.77218 
4 1 10.9803 8.52998 2.46236 
8 1 11.7823 8.52728 1.22614 
12 1 13.1762 8.51088 1.22731 
18 1 10.0832 7.31581 2.46502 
21 1 8.33427 3.42015 2.47274 
26 1 8.83297 4.77134 2.47015 
34 1 9.71315 6.74414 1.22892 
42 1 9.08459 5.44229 1.23307 
48 1 13.9118 8.50728 2.46391 
52 1 15.3399 8.50561 2.4642 
56 1 16.0649 8.50664 1.22772 
19 1 10.0842 9.74178 2.4571 
24 1 8.27411 13.6163 2.42686 
27 1 8.79488 12.2682 2.44353 
35 1 9.70805 10.3111 1.21957 
43 1 9.0627 11.6046 1.209 
3 1 22.581 8.508 2.46425 
7 1 21.7804 8.50799 1.22775 
11 1 20.3851 8.50799 1.22775 
20 1 23.4762 7.29485 2.46425 
36 1 23.8474 6.72347 1.22775 
44 1 24.4849 5.42422 1.22775 
47 1 19.6492 8.50803 2.46425 
51 1 18.2217 8.50822 2.46425 
55 1 17.4957 8.50813 1.22775 
17 1 23.4762 9.72114 2.46425 
33 1 23.8474 10.2925 1.22775 
41 1 24.4849 11.5918 1.22775 
15 1 26.426 0.835532 2.46436 
23 1 25.2076 3.39716 2.46426 
28 1 24.7388 4.75661 2.46425 
31 1 26.0668 1.41578 1.22783 
39 1 25.4543 2.72577 1.22776 
2 1 27.3139 17.398 2.4648 
6 1 28.1174 17.398 1.22855 
10 1 29.5111 17.398 1.23042 
14 1 26.426 16.1805 2.46436 
22 1 25.2076 13.6188 2.46426 
25 1 24.7388 12.2594 2.46425 
30 1 26.0667 15.6002 1.22783 
38 1 25.4543 14.2902 1.22776 
46 1 30.2453 17.3982 2.46728 
50 1 31.6754 17.3986 2.47013 
54 1 32.399 17.399 1.23387 
ITEM: TIMESTEP
80
ITEM: NUMBER OF ATOMS
57
ITEM: BOX BOUNDS pp pp pp
0.0000000000000000e+00 3.2808000000000000e+01
0.0000000000000000e+00 1.7780000000000001e+01
0.0000000000000000e+00 2.4729999999999999e+00
ITEM: ATOMS id type x y z 
13 1 6.93053 0.95343 -0.00388008 
29 1 7.32138 1.51451 1.23301 
37 1 8.03971 2.77069 1.23492 
1 1 6.09443 17.4804 -0.0130604 
5 1 5.3049 17.3927 1.22369 
9 1 3.91132 17.3724 1.22955 
16 1 7.15219 16.3472 2.41625 
32 1 7.45504 15.6217 1.17981 
40 1 8.01849 14.246 1.19139 
45 1 3.17462 17.3775 -0.00633204 
49 1 1.74789 17.3923 2.46984 
53 1 1.02335 17.3973 1.23354 
57 2 8.33136 16.727 1.78543 
4 1 10.9805 8.52772 2.46198 
8 1 11.781 8.52577 1.22578 
12 1 13.1757 8.51208 1.22702 
18 1 10.0846 7.31364 2.46548 
21 1 8.33159 3.42344 2.47147 
26 1 8.83195 4.77006 2.46964 
34 1 9.71541 6.74054 1.2294 
42 1 9.08721 5.4406 1.23276 
48 1 13.9115 8.50715 2.46364 
52 1 15.3395 8.5055 2.46411 
56 1 16.0638 8.50631 1.22764 
19 1 10.0856 9.74135 2.45552 
24 1 8.26836 13.6129 2.42903 
27 1 8.78944 12.2643 2.44231 
35 1 9.71205 10.3117 1.21792 
43 1 9.06171 11.6041 1.20752 
3 1 22.5792 8.508 2.46425 
7 1 21.7777 8.50799 1.22775 
11 1 20.3826 8.508 1.22775 
20 1 23.4747 7.29504 2.46425 
36 1 23.8474 6.72386 1.22775 
44 1 24.4866 5.42481 1.22775 
47 1 19.6461 8.50811 2.46425 
51 1 18.2195 8.50826 2.46424 
55 1 17.4944 8.50791 1.22774 
17 1 23.4747 9.72095 2.46425 
33 1 23.8474 10.2921 1.22775 
41 1 24.4866 11.5912 1.22775 
15 1 26.4268 0.835507 2.46449 
23 1 25.2068 3.39582 2.46427 
28 1 24.7401 4.75743 2.46425 
31 1 26.0658 1.41412 1.22794 
39 1 25.4524 2.72554 1.22779 
2 1 27.3156 17.398 2.46511 
6 1 28.1175 17.398 1.22888 
10 1 29.5125 17.398 1.23066 
14 1 26.4268 16.1805 2.46449 
22 1 25.2068 13.6202 2.46427 
25 1 24.7401 12.2586 2.46425 
30 1 26.0657 15.6019 1.22794 
38 1 25.4524 14.2905 1.22779 
46 1 30.2481 17.3982 2.46745 
50 1 31.6759 17.3989 2.46945 
54 1 32.3999 17.3994 1.23313 
ITEM: TIMESTEP
90
ITEM: NUMBER OF ATOMS
57
ITEM: BOX BOUNDS pp pp pp
0.0000000000000000e+00 3.2808000000000000e+01
0.0000000000000000e+00 1.7780000000000001e+01
0.0000000000000000e+00 2.4729999999999999e+00
ITEM: ATOMS id type x y z 
13 1 6.9283 0.952543 -0.00445801 
29 1 7.31974 1.51443 1.23241 
37 1 8.03895 2.7711 1.2341 
1 1 6.09394 17.4783 -0.0132141 
5 1 5.30487 17.3909 1.22335 
9 1 3.912 17.3705 1.22862 
16 1 7.1544 16.3498 2.4196 
32 1 7.46232 15.6257 1.18151 
40 1 8.01614 14.2455 1.19264 
45 1 3.17427 17.3755 -0.00724843 
49 1 1.74753 17.3914 2.46907 
53 1 1.02273 17.397 1.2328 
57 2 8.33627 16.7262 1.78925 
4 1 10.9807 8.52871 2.46164 
8 1 11.7813 8.5261 1.22546 
12 1 13.1764 8.51231 1.22681 
18 1 10.0856 7.31467 2.46556 
21 1 8.32927 3.42305 2.47065 
26 1 8.83201 4.77075 2.46928 
34 1 9.71658 6.741 1.2295 
42 1 9.08712 5.43996 1.23247 
48 1 13.9124 8.50741 2.46345 
52 1 15.34 8.50532 2.46402 
56 1 16.0646 8.5061 1.22757 
19 1 10.0858 9.74278 2.45454 
24 1 8.26409 13.6121 2.43018 
27 1 8.78529 12.2635 2.44187 
35 1 9.71262 10.3129 1.21692 
43 1 9.05943 11.6043 1.20693 
3 1 22.5797 8.50799 2.46425 
7 1 21.7785 8.50798 1.22775 
11 1 20.3835 8.50803 1.22775 
20 1 23.4744 7.2942 2.46425 
36 1 23.847 6.72314 1.22775 
44 1 24.4871 5.42502 1.22776 
47 1 19.6469 8.50816 2.46425 
51 1 18.2202 8.50823 2.46423 
55 1 17.4952 8.50779 1.22771 
17 1 23.4744 9.72179 2.46425 
33 1 23.847 10.2928 1.22775 
41 1 24.4871 11.591 1.22776 
15 1 26.4268 0.835997 2.4646 
23 1 25.2062 3.3958 2.4643 
28 1 24.7409 4.75739 2.46426 
31 1 26.0657 1.41429 1.22803 
39 1 25.4517 2.72516 1.22782 
2 1 27.3152 17.398 2.46527 
6 1 28.1167 17.398 1.22904 
10 1 29.512 17.398 1.2307 
14 1 26.4268 16.18 2.4646 
22 1 25.2062 13.6202 2.4643 
25 1 24.7409 12.2586 2.46426 
30 1 26.0656 15.6017 1.22803 
38 1 25.4517 14.2908 1.22782 
46 1 30.2479 17.3983 2.46745 
50 1 31.6753 17.3992 2.46909 
54 1 32.3998 17.3996 1.23272 
ITEM: TIMESTEP
93
ITEM: NUMBER OF ATOMS
57
ITEM: BOX BOUNDS pp pp pp
0.0000000000000000e+00 3.2808000000000000e+01
0.0000000000000000e+00 1.7780000000000001e+01
0.0000000000000000e+00 2.4729999999999999e+00
ITEM: ATOMS id type x y z 
13 1 6.92829 0.952538 -0.00455654 
29 1 7.3194 1.51489 1.23232 
37 1 8.03819 2.77051 1.234 
1 1 6.09346 17.479 -0.0132596 
5 1 5.30535 17.3908 1.2233 
9 1 3.91116 17.3702 1.2285 
16 1 7.15476 16.3506 2.41982 
32 1 7.46346 15.6258 1.18193 
40 1 8.01574 14.2457 1.1928 
45 1 3.17352 17.3752 -0.0073368 
49 1 1.74801 17.3913 2.46894 
53 1 1.02242 17.3969 1.23268 
57 2 8.3368 16.7261 1.78991 
4 1 10.9809 8.52894 2.46158 
8 1 11.7815 8.52624 1.22541 
12 1 13.1774 8.51233 1.22678 
18 1 10.0857 7.31476 2.46555 
21 1 8.32892 3.42312 2.47053 
26 1 8.83207 4.771 2.46923 
34 1 9.71703 6.74165 1.22949 
42 1 9.08612 5.43749 1.23242 
48 1 13.9137 8.50746 2.46342 
52 1 15.3395 8.5053 2.464 
56 1 16.0647 8.50607 1.22755 
19 1 10.086 9.74301 2.45441 
24 1 8.26327 13.6124 2.43033 
27 1 8.78472 12.2633 2.44184 
35 1 9.71254 10.3133 1.21679 
43 1 9.05924 11.6039 1.20688 
3 1 22.5787 8.50799 2.46425 
7 1 21.7786 8.50798 1.22775 
11 1 20.3827 8.50804 1.22775 
20 1 23.4744 7.2942 2.46425 
36 1 23.8469 6.72332 1.22775 
44 1 24.4871 5.42534 1.22776 
47 1 19.6467 8.50816 2.46425 
51 1 18.2204 8.50822 2.46422 
55 1 17.4949 8.50778 1.22771 
17 1 23.4744 9.72179 2.46425 
33 1 23.8469 10.2927 1.22775 
41 1 24.4871 11.5907 1.22776 
15 1 26.4267 0.835979 2.46461 
23 1 25.206 3.39604 2.46431 
28 1 24.7411 4.75701 2.46426 
31 1 26.0655 1.41434 1.22805 
39 1 25.4517 2.7247 1.22782 
2 1 27.3156 17.398 2.46529 
6 1 28.1167 17.398 1.22905 
10 1 29.5126 17.398 1.2307 
14 1 26.4267 16.18 2.46461 
22 1 25.206 13.6199 2.46431 
25 1 24.7411 12.259 2.46426 
30 1 26.0655 15.6017 1.22805 
38 1 25.4517 14.2913 1.22782 
46 1 30.2491 17.3983 2.46745 
50 1 31.6753 17.3992 2.46903 
54 1 32.4008 17.3997 1.23266 
ITEM: TIMESTEP
100
ITEM: NUMBER OF ATOMS
57
ITEM: BOX BOUNDS pp pp pp
0.0000000000000000e+00 3.2808000000000000e+01
0.0000000000000000e+00 1.7780000000000001e+01
0.0000000000000000e+00 2.4729999999999999e+00
ITEM: ATOMS id type x y z 
13 1 6.92789 0.952582 2.46825 
29 1 7.31843 1.51486 1.2321 
37 1 8.03795 2.7713 1.23375 
1 1 6.09403 17.4783 2.45963 
5 1 5.30509 17.39 1.22316 
9 1 3.91126 17.3695 1.22827 
16 1 7.15588 16.3514 2.42056 
32 1 7.4652 15.627 1.18257 
40 1 8.01502 14.2455 1.19323 
45 1 3.17401 17.3745 2.46541 
49 1 1.74794 17.3909 2.46866 
53 1 1.02266 17.3968 1.2324 
4 1 10.9807 8.52898 2.46145 
8 1 11.7814 8.5264 1.22529 
12 1 13.1768 8.51241 1.2267 
18 1 10.0859 7.31459 2.46551 
21 1 8.32824 3.42324 2.47029 
26 1 8.83198 4.77104 2.46909 
34 1 9.71732 6.74109 1.22945 
42 1 9.08705 5.43887 1.2323 
48 1 13.913 8.50756 2.46335 
52 1 15.3398 8.50525 2.46396 
56 1 16.0648 8.50599 1.22752 
19 1 10.0864 9.74331 2.45413 
24 1 8.26192 13.6115 2.4307 
27 1 8.78334 12.2629 2.44177 
35 1 9.7129 10.3134 1.21651 
43 1 9.05834 11.604 1.20677 
57 2 8.33859 16.7265 1.79152 
3 1 22.5795 8.50799 2.46425 
7 1 21.7787 8.50798 1.22775 
11 1 20.3833 8.50805 1.22775 
20 1 23.4743 7.29407 2.46425 
36 1 23.8469 6.72305 1.22775 
44 1 24.4874 5.42521 1.22776 
47 1 19.6469 8.50818 2.46424 
51 1 18.2203 8.50821 2.46421 
55 1 17.4951 8.50773 1.2277 
17 1 23.4743 9.72192 2.46425 
33 1 23.8469 10.2929 1.22775 
41 1 24.4874 11.5908 1.22776 
15 1 26.4268 0.83591 2.46465 
23 1 25.2059 3.39574 2.46432 
28 1 24.7412 4.75732 2.46426 
31 1 26.0656 1.41422 1.22808 
39 1 25.4513 2.72483 1.22784 
2 1 27.3155 17.398 2.46533 
6 1 28.1168 17.398 1.22909 
10 1 29.5123 17.398 1.23069 
14 1 26.4267 16.1801 2.46465 
22 1 25.2059 13.6203 2.46432 
25 1 24.7412 12.2587 2.46426 
30 1 26.0656 15.6018 1.22808 
38 1 25.4513 14.2912 1.22784 
46 1 30.2487 17.3983 2.46743 
50 1 31.6752 17.3993 2.46891 
54 1 32.4004 17.3998 1.23252 
ITEM: TIMESTEP
110
ITEM: NUMBER OF ATOMS
57
ITEM: BOX BOUNDS pp pp pp
0.0000000000000000e+00 3.2808000000000000e+01
0.0000000000000000e+00 1.7780000000000001e+01
0.0000000000000000e+00 2.4729999999999999e+00
ITEM: ATOMS id type x y z 
13 1 6.92659 0.952948 2.46771 
29 1 7.31649 1.51592 1.23155 
37 1 8.03578 2.77161 1.23313 
1 1 6.0938 17.4779 2.45941 
5 1 5.30552 17.3884 1.22289 
9 1 3.91167 17.3677 1.22768 
16 1 7.15903 16.3531 2.42222 
32 1 7.4698 15.6291 1.18438 
40 1 8.0131 14.2453 1.19433 
45 1 3.174 17.3727 2.46479 
49 1 1.74831 17.3899 2.46795 
53 1 1.02279 17.3963 1.23172 
4 1 10.9809 8.52954 2.46109 
8 1 11.7814 8.52686 1.22495 
12 1 13.1771 8.51266 1.22649 
18 1 10.0866 7.31463 2.46537 
21 1 8.32655 3.42386 2.46968 
26 1 8.83183 4.77123 2.46872 
34 1 9.71858 6.74103 1.2293 
42 1 9.0874 5.4379 1.23196 
48 1 13.9135 8.50777 2.46315 
52 1 15.3398 8.50513 2.46385 
56 1 16.065 8.50578 1.22742 
19 1 10.0871 9.74434 2.45347 
24 1 8.25806 13.6104 2.43168 
27 1 8.77967 12.2618 2.44168 
35 1 9.71343 10.3143 1.21586 
43 1 9.05622 11.6035 1.20657 
57 2 8.34296 16.7275 1.79548 
3 1 22.5793 8.50799 2.46425 
7 1 21.7789 8.50798 1.22775 
11 1 20.3831 8.50809 1.22774 
20 1 23.4742 7.29386 2.46425 
36 1 23.8467 6.72287 1.22775 
44 1 24.4879 5.42536 1.22777 
47 1 19.6468 8.50822 2.46423 
51 1 18.2203 8.50816 2.46418 
55 1 17.4952 8.50761 1.22766 
17 1 23.4742 9.72213 2.46425 
33 1 23.8467 10.2931 1.22775 
41 1 24.4879 11.5906 1.22777 
15 1 26.4268 0.83586 2.46475 
23 1 25.2055 3.39555 2.46436 
28 1 24.7418 4.75733 2.46428 
31 1 26.0654 1.4141 1.22818 
39 1 25.4508 2.72423 1.22788 
2 1 27.3158 17.398 2.46542 
6 1 28.1169 17.3979 1.22917 
10 1 29.5126 17.3981 1.23064 
14 1 26.4267 16.1801 2.46475 
22 1 25.2055 13.6204 2.46436 
25 1 24.7418 12.2586 2.46428 
30 1 26.0654 15.6019 1.22818 
38 1 25.4508 14.2918 1.22788 
46 1 30.249 17.3984 2.46735 
50 1 31.6755 17.3996 2.46856 
54 1 32.4008 17.3999 1.23213 
ITEM: TIMESTEP
120
ITEM: NUMBER OF ATOMS
57
ITEM: BOX BOUNDS pp pp pp
0.0000000000000000e+00 3.2808000000000000e+01
0.0000000000000000e+00 1.7780000000000001e+01
0.0000000000000000e+00 2.4729999999999999e+00
ITEM: ATOMS id type x y z 
13 1 6.92409 0.953743 2.46692 
29 1 7.31333 1.51712 1.23073 
37 1 8.03263 2.77326 1.23225 
1 1 6.09397 17.477 2.45919 
5 1 5.30603 17.3858 1.22259 
9 1 3.91199 17.3647 1.22685 
16 1 7.16408 16.3551 2.42453 
32 1 7.47622 15.6321 1.18691 
40 1 8.01026 14.2449 1.19604 
45 1 3.17447 17.3699 2.46392 
49 1 1.74881 17.3884 2.46697 
53 1 1.02323 17.3956 1.23075 
4 1 10.9808 8.53022 2.46055 
8 1 11.7814 8.52751 1.22443 
12 1 13.177 8.51309 1.22613 
18 1 10.0876 7.31459 2.46502 
21 1 8.32395 3.42495 2.46881 
26 1 8.83173 4.77151 2.46813 
34 1 9.72038 6.74047 1.22896 
42 1 9.08871 5.43787 1.2314 
48 1 13.9134 8.50804 2.46282 
52 1 15.3399 8.50497 2.46367 
56 1 16.0651 8.50549 1.22726 
19 1 10.0881 9.74577 2.45266 
24 1 8.25236 13.6087 2.43323 
27 1 8.77408 12.26 2.44171 
35 1 9.71417 10.3155 1.21507 
43 1 9.05288 11.6027 1.20644 
57 2 8.3493 16.7295 1.80105 
3 1 22.5797 8.50798 2.46425 
7 1 21.7791 8.50799 1.22775 
11 1 20.3834 8.50816 1.22772 
20 1 23.474 7.29354 2.46426 
36 1 23.8464 6.72251 1.22776 
44 1 24.4885 5.42535 1.22779 
47 1 19.647 8.50827 2.46421 
51 1 18.2205 8.50807 2.46412 
55 1 17.4953 8.50741 1.22759 
17 1 23.474 9.72244 2.46426 
33 1 23.8464 10.2935 1.22776 
41 1 24.4885 11.5906 1.22779 
15 1 26.427 0.835806 2.46488 
23 1 25.205 3.39516 2.46443 
28 1 24.7424 4.75738 2.4643 
31 1 26.0654 1.41385 1.22831 
39 1 25.4501 2.72386 1.22796 
2 1 27.3161 17.398 2.46553 
6 1 28.1172 17.3979 1.22925 
10 1 29.513 17.3981 1.23052 
14 1 26.4269 16.1802 2.46488 
22 1 25.205 13.6208 2.46443 
25 1 24.7423 12.2586 2.4643 
30 1 26.0653 15.6021 1.22831 
38 1 25.45 14.2921 1.22796 
46 1 30.2494 17.3986 2.46718 
50 1 31.6758 17.4 2.46801 
54 1 32.4012 17.4002 1.23151 
ITEM: TIMESTEP
130
ITEM: NUMBER OF ATOMS
57
ITEM: BOX BOUNDS pp pp pp
0.0000000000000000e+00 3.2808000000000000e+01
0.0000000000000000e+00 1.7780000000000001e+01
0.0000000000000000e+00 2.4729999999999999e+00
ITEM: ATOMS id type x y z 
13 1 6.89761 0.963258 2.46017 
29 1 7.28033 1.53202 1.22362 
37 1 7.9977 2.78992 1.22445 
1 1 6.09627 17.4688 2.4581 
5 1 5.31233 17.3593 1.2208 
9 1 3.91787 17.3345 1.22021 
16 1 7.21051 16.3742 2.44502 
32 1 7.53426 15.6561 1.20913 
40 1 7.98403 14.2402 1.21283 
45 1 3.17957 17.3422 2.45682 
49 1 1.75416 17.3727 2.45862 
53 1 1.02814 17.3872 1.2225 
4 1 10.9809 8.53848 2.45548 
8 1 11.782 8.5351 1.21952 
12 1 13.178 8.51751 1.22248 
18 1 10.098 7.31519 2.46031 
21 1 8.29706 3.43728 2.46108 
26 1 8.83242 4.77454 2.46195 
34 1 9.7379 6.73627 1.22422 
42 1 9.10137 5.43545 1.22543 
48 1 13.9149 8.51049 2.45938 
52 1 15.3413 8.50342 2.46164 
56 1 16.0668 8.50282 1.2254 
19 1 10.0954 9.75869 2.44737 
24 1 8.20024 13.5925 2.44862 
27 1 8.72023 12.2424 2.4445 
35 1 9.71791 10.3264 1.21012 
43 1 9.0184 11.5946 1.20786 
57 2 8.40449 16.7498 1.84557 
3 1 22.582 8.5079 2.46423 
7 1 21.7815 8.50807 1.2277 
11 1 20.3854 8.50878 1.22747 
20 1 23.4727 7.29081 2.46434 
36 1 23.8443 6.71916 1.22786 
44 1 24.4914 5.42389 1.22811 
47 1 19.6485 8.50872 2.4639 
51 1 18.2224 8.507 2.46332 
55 1 17.4968 8.50531 1.22668 
17 1 23.4727 9.72504 2.46434 
33 1 23.8442 10.2967 1.22786 
41 1 24.4913 11.592 1.22811 
15 1 26.4308 0.835597 2.46591 
23 1 25.202 3.39164 2.46516 
28 1 24.7456 4.75649 2.46466 
31 1 26.0665 1.41218 1.22936 
39 1 25.4462 2.72025 1.22874 
2 1 27.3205 17.3979 2.46606 
6 1 28.1212 17.3977 1.22949 
10 1 29.5175 17.3992 1.22869 
14 1 26.4305 16.1804 2.46591 
22 1 25.2019 13.6242 2.46516 
25 1 24.7456 12.2594 2.46466 
30 1 26.0662 15.6038 1.22936 
38 1 25.4461 14.2957 1.22874 
46 1 30.2543 17.4012 2.46493 
50 1 31.6804 17.4042 2.46249 
54 1 32.4062 17.4025 1.22556 
ITEM: TIMESTEP
140
ITEM: NUMBER OF ATOMS
57
ITEM: BOX BOUNDS pp pp pp
0.0000000000000000e+00 3.2808000000000000e+01
0.0000000000000000e+00 1.7780000000000001e+01
0.0000000000000000e+00 2.4729999999999999e+00
ITEM: ATOMS id type x y z 
13 1 6.8925 0.966745 2.46148 
29 1 7.26884 1.54065 1.22487 
37 1 7.98534 2.79764 1.22456 
1 1 6.09975 17.4694 2.45908 
5 1 5.31703 17.3594 1.22176 
9 1 3.92107 17.3286 1.22224 
16 1 7.21416 16.3666 2.44378 
32 1 7.52931 15.6505 1.20685 
40 1 7.98483 14.2387 1.21552 
45 1 3.18387 17.3365 2.45883 
49 1 1.75872 17.3686 2.45974 
53 1 1.03265 17.384 1.22345 
4 1 10.9797 8.54113 2.45565 
8 1 11.7797 8.53988 1.21952 
12 1 13.1768 8.5186 1.22173 
18 1 10.1013 7.31457 2.45806 
21 1 8.28903 3.44367 2.46099 
26 1 8.83415 4.77499 2.46032 
34 1 9.74205 6.73647 1.22183 
42 1 9.10678 5.43598 1.22364 
48 1 13.9133 8.51083 2.45858 
52 1 15.3396 8.50337 2.46077 
56 1 16.0653 8.50274 1.22456 
19 1 10.0909 9.76035 2.45131 
24 1 8.20106 13.5905 2.45155 
27 1 8.71606 12.2423 2.44951 
35 1 9.71126 10.3248 1.21444 
43 1 9.01264 11.5901 1.21298 
57 2 8.39794 16.7532 1.83307 
3 1 22.5811 8.50789 2.46421 
7 1 21.7811 8.50813 1.22763 
11 1 20.3841 8.50878 1.22719 
20 1 23.4731 7.2913 2.46444 
36 1 23.8435 6.71896 1.22798 
44 1 24.4864 5.42111 1.22832 
47 1 19.6468 8.50851 2.46358 
51 1 18.2211 8.50639 2.46275 
55 1 17.4948 8.50483 1.22606 
17 1 23.4732 9.72445 2.46444 
33 1 23.8436 10.2968 1.22798 
41 1 24.4864 11.5947 1.22832 
15 1 26.4349 0.835397 2.46548 