LAMMPS (3 Mar 2020)
Reading data file ...
  orthogonal box = (0 0 0) to (11 11.002 11)
  2 by 2 by 2 MPI processor grid
  reading atoms ...
  51 atoms
  read_data CPU = 0.0390075 secs
WARNING: Using 'neigh_modify every 1 delay 0 check yes' setting during minimization (../min.cpp:190)
WARNING: Total cutoff < 2*bond cutoff. May need to use an increased neighbor list skin. (../pair_reaxc.cpp:413)
Neighbor list info ...
  update every 1 steps, delay 0 steps, check yes
  max neighbors/atom: 2000, page size: 100000
  master list distance cutoff = 9.5
  ghost atom cutoff = 9.5
  binsize = 4.75, bins = 3 3 3
  2 neighbor lists, perpetual/occasional/extra = 2 0 0
  (1) pair reax/c, perpetual
      attributes: half, newton off, ghost
      pair build: half/bin/newtoff/ghost
      stencil: half/ghost/bin/3d/newtoff
      bin: standard
  (2) fix qeq/reax, perpetual, copy from (1)
      attributes: half, newton off, ghost
      pair build: copy
      stencil: none
      bin: none
Setting up cg style minimization ...
  Unit style    : real
  Current step  : 0
Per MPI rank memory allocation (min/avg/max) = 19.03 | 19.12 | 19.25 Mbytes
Step Temp E_pair E_mol TotEng Press 
       0            0   -8769.3763            0   -8769.3763    18056.831 
     174            0   -8858.8814            0   -8858.8814    50318.656 
Loop time of 3.17081 on 8 procs for 174 steps with 51 atoms

99.4% CPU use with 8 MPI tasks x no OpenMP threads

Minimization stats:
  Stopping criterion = energy tolerance
  Energy initial, next-to-last, final = 
        -8769.37629104     -8858.88136106     -8858.88143038
  Force two-norm initial, final = 309.548 136.237
  Force max component initial, final = 120.288 44.4574
  Final line search alpha, max atom move = 7.02754e-05 0.00312426
  Iterations, force evaluations = 174 1164

MPI task timing breakdown:
Section |  min time  |  avg time  |  max time  |%varavg| %total
---------------------------------------------------------------
Pair    | 2.38       | 2.4002     | 2.4199     |   0.8 | 75.70
Neigh   | 0          | 0          | 0          |   0.0 |  0.00
Comm    | 0.024773   | 0.044201   | 0.064357   |   6.0 |  1.39
Output  | 0.00033139 | 0.00046029 | 0.00070006 |   0.0 |  0.01
Modify  | 0.71876    | 0.71909    | 0.71939    |   0.0 | 22.68
Other   |            | 0.006875   |            |       |  0.22

Nlocal:    6.375 ave 8 max 6 min
Histogram: 6 0 0 0 0 1 0 0 0 1
Nghost:    615.875 ave 623 max 611 min
Histogram: 3 0 0 0 1 1 2 0 0 1
Neighs:    836.875 ave 1039 max 785 min
Histogram: 6 0 0 0 1 0 0 0 0 1

Total # of neighbors = 6695
Ave neighs/atom = 131.275
Neighbor list builds = 0
Dangerous builds = 0
WARNING: Using 'neigh_modify every 1 delay 0 check yes' setting during minimization (../min.cpp:190)
WARNING: Total cutoff < 2*bond cutoff. May need to use an increased neighbor list skin. (../pair_reaxc.cpp:413)
Setting up cg style minimization ...
  Unit style    : real
  Current step  : 174
Per MPI rank memory allocation (min/avg/max) = 19.03 | 19.12 | 19.25 Mbytes
Step Temp E_pair E_mol TotEng Press 
     174            0   -8858.8814            0   -8858.8814    50318.656 
     175            0   -8858.8815            0   -8858.8815    50318.133 
Loop time of 0.0244268 on 8 procs for 1 steps with 51 atoms

99.3% CPU use with 8 MPI tasks x no OpenMP threads

Minimization stats:
  Stopping criterion = energy tolerance
  Energy initial, next-to-last, final = 
        -8858.88143038     -8858.88143038     -8858.88147965
  Force two-norm initial, final = 136.237 136.223
  Force max component initial, final = 44.4574 44.45
  Final line search alpha, max atom move = 7.0292e-05 0.00312448
  Iterations, force evaluations = 1 8

MPI task timing breakdown:
Section |  min time  |  avg time  |  max time  |%varavg| %total
---------------------------------------------------------------
Pair    | 0.018613   | 0.0188     | 0.018937   |   0.1 | 76.96
Neigh   | 0          | 0          | 0          |   0.0 |  0.00
Comm    | 0.00022568 | 0.0003587  | 0.00054238 |   0.0 |  1.47
Output  | 0          | 0          | 0          |   0.0 |  0.00
Modify  | 0.0051698  | 0.0051734  | 0.0051772  |   0.0 | 21.18
Other   |            | 9.51e-05   |            |       |  0.39

Nlocal:    6.375 ave 8 max 6 min
Histogram: 6 0 0 0 0 1 0 0 0 1
Nghost:    623.375 ave 629 max 617 min
Histogram: 1 0 0 2 0 2 1 0 0 2
Neighs:    855.875 ave 1058 max 798 min
Histogram: 6 0 0 0 0 1 0 0 0 1

Total # of neighbors = 6847
Ave neighs/atom = 134.255
Neighbor list builds = 0
Dangerous builds = 0
WARNING: Using 'neigh_modify every 1 delay 0 check yes' setting during minimization (../min.cpp:190)
WARNING: Total cutoff < 2*bond cutoff. May need to use an increased neighbor list skin. (../pair_reaxc.cpp:413)
Setting up cg style minimization ...
  Unit style    : real
  Current step  : 175
WARNING: Energy due to 3 extra global DOFs will be included in minimizer energies
Per MPI rank memory allocation (min/avg/max) = 19.03 | 19.12 | 19.25 Mbytes
Step Temp E_pair E_mol TotEng Press Volume 
     175            0   -8858.8815            0   -8858.8815    50318.133     1331.242 
    1414            0   -8892.1109            0   -8892.1109    -641.0427     1360.366 
Loop time of 4.26771 on 8 procs for 1239 steps with 51 atoms

99.5% CPU use with 8 MPI tasks x no OpenMP threads

Minimization stats:
  Stopping criterion = energy tolerance
  Energy initial, next-to-last, final = 
        -8858.88147965     -8892.11091898     -8892.11093101
  Force two-norm initial, final = 1698.09 39.7991
  Force max component initial, final = 1002.24 17.9741
  Final line search alpha, max atom move = 6.50515e-05 0.00116924
  Iterations, force evaluations = 1239 1732

MPI task timing breakdown:
Section |  min time  |  avg time  |  max time  |%varavg| %total
---------------------------------------------------------------
Pair    | 3.5429     | 3.5651     | 3.5837     |   0.8 | 83.54
Neigh   | 0          | 0          | 0          |   0.0 |  0.00
Comm    | 0.032147   | 0.050802   | 0.072874   |   6.3 |  1.19
Output  | 0.0020812  | 0.0025224  | 0.0035902  |   0.9 |  0.06
Modify  | 0.61687    | 0.61693    | 0.61704    |   0.0 | 14.46
Other   |            | 0.0324     |            |       |  0.76

Nlocal:    6.375 ave 8 max 6 min
Histogram: 6 0 0 0 0 1 0 0 0 1
Nghost:    623.375 ave 629 max 617 min
Histogram: 1 0 0 2 0 2 1 0 0 2
Neighs:    855.875 ave 1058 max 798 min
Histogram: 6 0 0 0 0 1 0 0 0 1

Total # of neighbors = 6847
Ave neighs/atom = 134.255
Neighbor list builds = 0
Dangerous builds = 0
WARNING: Using 'neigh_modify every 1 delay 0 check yes' setting during minimization (../min.cpp:190)
WARNING: Total cutoff < 2*bond cutoff. May need to use an increased neighbor list skin. (../pair_reaxc.cpp:413)
Setting up cg style minimization ...
  Unit style    : real
  Current step  : 1414
Per MPI rank memory allocation (min/avg/max) = 19.03 | 19.12 | 19.25 Mbytes
Step Temp E_pair E_mol TotEng Press 
    1414            0   -8892.1109            0   -8892.1109    -641.0427 
    1427            0   -8892.4644            0   -8892.4644    1469.0456 
Loop time of 0.303165 on 8 procs for 13 steps with 51 atoms

99.5% CPU use with 8 MPI tasks x no OpenMP threads

Minimization stats:
  Stopping criterion = energy tolerance
  Energy initial, next-to-last, final = 
        -8892.11093101     -8892.46433834      -8892.4643627
  Force two-norm initial, final = 32.5818 22.9843
  Force max component initial, final = 7.72758 6.50865
  Final line search alpha, max atom move = 0.000120032 0.000781248
  Iterations, force evaluations = 13 115

MPI task timing breakdown:
Section |  min time  |  avg time  |  max time  |%varavg| %total
---------------------------------------------------------------
Pair    | 0.23129    | 0.23309    | 0.23456    |   0.2 | 76.89
Neigh   | 0          | 0          | 0          |   0.0 |  0.00
Comm    | 0.002277   | 0.0037048  | 0.0054824  |   1.8 |  1.22
Output  | 2.0869e-05 | 2.5016e-05 | 3.3964e-05 |   0.0 |  0.01
Modify  | 0.065674   | 0.065686   | 0.06571    |   0.0 | 21.67
Other   |            | 0.0006568  |            |       |  0.22

Nlocal:    6.375 ave 8 max 6 min
Histogram: 6 0 0 0 0 1 0 0 0 1
Nghost:    595.875 ave 602 max 590 min
Histogram: 1 2 0 1 0 1 0 0 1 2
Neighs:    831.875 ave 1024 max 777 min
Histogram: 6 0 0 0 0 1 0 0 0 1

Total # of neighbors = 6655
Ave neighs/atom = 130.49
Neighbor list builds = 0
Dangerous builds = 0
WARNING: Using 'neigh_modify every 1 delay 0 check yes' setting during minimization (../min.cpp:190)
WARNING: Total cutoff < 2*bond cutoff. May need to use an increased neighbor list skin. (../pair_reaxc.cpp:413)
Setting up cg style minimization ...
  Unit style    : real
  Current step  : 1427
WARNING: Energy due to 3 extra global DOFs will be included in minimizer energies
Per MPI rank memory allocation (min/avg/max) = 19.03 | 19.12 | 19.25 Mbytes
Step Temp E_pair E_mol TotEng Press Volume 
    1427            0   -8892.4644            0   -8892.4644    1469.0456     1360.366 
    1691            0   -8893.6618            0   -8893.6618   -708.28305    1361.3186 
Loop time of 1.15871 on 8 procs for 264 steps with 51 atoms

99.5% CPU use with 8 MPI tasks x no OpenMP threads

Minimization stats:
  Stopping criterion = energy tolerance
  Energy initial, next-to-last, final = 
         -8892.4643627      -8893.6617871     -8893.66182668
  Force two-norm initial, final = 61.1024 31.7741
  Force max component initial, final = 45.4592 14.1011
  Final line search alpha, max atom move = 1.28159e-05 0.000180719
  Iterations, force evaluations = 264 479

MPI task timing breakdown:
Section |  min time  |  avg time  |  max time  |%varavg| %total
---------------------------------------------------------------
Pair    | 0.95666    | 0.96432    | 0.97077    |   0.5 | 83.22
Neigh   | 0          | 0          | 0          |   0.0 |  0.00
Comm    | 0.010394   | 0.016766   | 0.024379   |   3.6 |  1.45
Output  | 0.00045992 | 0.00055904 | 0.00079881 |   0.0 |  0.05
Modify  | 0.16873    | 0.16884    | 0.169      |   0.0 | 14.57
Other   |            | 0.008228   |            |       |  0.71

Nlocal:    6.375 ave 8 max 6 min
Histogram: 6 0 0 0 0 1 0 0 0 1
Nghost:    595.875 ave 602 max 590 min
Histogram: 1 2 0 1 0 1 0 0 1 2
Neighs:    831.625 ave 1024 max 775 min
Histogram: 6 0 0 0 0 1 0 0 0 1

Total # of neighbors = 6653
Ave neighs/atom = 130.451
Neighbor list builds = 0
Dangerous builds = 0
WARNING: Using 'neigh_modify every 1 delay 0 check yes' setting during minimization (../min.cpp:190)
WARNING: Total cutoff < 2*bond cutoff. May need to use an increased neighbor list skin. (../pair_reaxc.cpp:413)
Setting up cg style minimization ...
  Unit style    : real
  Current step  : 1691
Per MPI rank memory allocation (min/avg/max) = 19.03 | 19.12 | 19.25 Mbytes
Step Temp E_pair E_mol TotEng Press 
    1691            0   -8893.6618            0   -8893.6618   -708.28305 
    1735            0   -8910.1256            0   -8910.1256    4001.5804 
Loop time of 0.685039 on 8 procs for 44 steps with 51 atoms

99.5% CPU use with 8 MPI tasks x no OpenMP threads

Minimization stats:
  Stopping criterion = energy tolerance
  Energy initial, next-to-last, final = 
        -8893.66182668     -8910.12558312     -8910.12560748
  Force two-norm initial, final = 20.4121 82.5854
  Force max component initial, final = 9.52249 19.5704
  Final line search alpha, max atom move = 0.000159658 0.00312457
  Iterations, force evaluations = 44 257

MPI task timing breakdown:
Section |  min time  |  avg time  |  max time  |%varavg| %total
---------------------------------------------------------------
Pair    | 0.51045    | 0.51725    | 0.52207    |   0.5 | 75.51
Neigh   | 0          | 0          | 0          |   0.0 |  0.00
Comm    | 0.0048807  | 0.0097224  | 0.016528   |   3.8 |  1.42
Output  | 7.1904e-05 | 8.897e-05  | 0.00013274 |   0.0 |  0.01
Modify  | 0.15648    | 0.1565     | 0.15654    |   0.0 | 22.85
Other   |            | 0.001478   |            |       |  0.22

Nlocal:    6.375 ave 8 max 6 min
Histogram: 6 0 0 0 0 1 0 0 0 1
Nghost:    594 ave 602 max 584 min
Histogram: 1 0 1 0 0 2 1 2 0 1
Neighs:    830.375 ave 1024 max 776 min
Histogram: 6 0 0 0 0 1 0 0 0 1

Total # of neighbors = 6643
Ave neighs/atom = 130.255
Neighbor list builds = 0
Dangerous builds = 0
WARNING: Total cutoff < 2*bond cutoff. May need to use an increased neighbor list skin. (../pair_reaxc.cpp:413)
Setting up Verlet run ...
  Unit style    : real
  Current step  : 0
  Time step     : 0.25
Per MPI rank memory allocation (min/avg/max) = 17.9 | 17.99 | 18.13 Mbytes
Step Temp TotEng KinEng PotEng Press 
       0          300   -8865.4135    44.712151   -8910.1256    5502.9881 
     200    253.06719   -8846.5893    37.717261   -8884.3066    4933.6963 
     400    345.42179    -8819.991    51.481837   -8871.4729   -2077.6328 
     600    302.28718   -8819.0096    45.053034   -8864.0627    -7719.694 
     800    297.81409   -8834.3084    44.386362   -8878.6947   -8114.2823 
    1000    345.03634   -8820.5973    51.424389   -8872.0217   -5120.8899 
    1200    286.20206   -8822.9046    42.655699   -8865.5603   -11683.579 
    1400    288.53177   -8824.4753     43.00292   -8867.4782     3275.955 
    1600     292.4296   -8827.7945    43.583855   -8871.3784   -14281.449 
    1800    249.57234   -8829.8209    37.196386   -8867.0172   -1718.6845 
    2000    354.27705   -8813.1114     52.80163   -8865.9131   -8629.1178 
    2200    313.95172   -8830.9956    46.791522   -8877.7871    22172.581 
    2400     306.2957   -8822.5655    45.650464   -8868.2159     8807.113 
    2600    361.81381   -8817.4544    53.924913   -8871.3793   -20818.747 
    2800    284.30974   -8824.1469    42.373667   -8866.5206    -9992.842 
    3000    338.10096   -8822.7202    50.390736    -8873.111     -36246.8 
    3200    224.50153   -8835.1943    33.459821   -8868.6541    14386.151 
    3400    338.97037   -8817.7946    50.520314   -8868.3149    20519.181 
    3600     301.1974   -8821.7786    44.890612   -8866.6692    11937.045 
    3800    309.45578   -8824.4075    46.121445    -8870.529   -21666.515 
    4000    303.78183   -8825.5355    45.275796   -8870.8113   -25552.343 
    4200    339.51096   -8819.0807    50.600884   -8869.6816   -10005.536 
    4400    377.51108   -8810.1509    56.264441   -8866.4153    32578.501 
    4600    266.99049    -8828.355    39.792397   -8868.1474     12562.64 
    4800    296.69259   -8828.2878    44.219213    -8872.507    -8366.407 
    5000     300.5849   -8811.5476    44.799325   -8856.3469     17150.99 
    5200     289.4879   -8829.0629    43.145422   -8872.2083    23603.384 
    5400    286.21676   -8826.0973    42.657889   -8868.7552    9898.8053 
    5600    385.47502   -8807.6064    57.451391   -8865.0578   -3223.7544 
    5800    325.90678   -8824.8302    48.573311   -8873.4035     8017.512 
    6000    256.99337   -8826.9953    38.302422   -8865.2978    14328.488 
    6200    294.53161    -8822.905     43.89714   -8866.8021    -6738.083 
    6400    315.79601    -8815.369    47.066397   -8862.4354   -35744.503 
    6600    266.00279   -8832.0374    39.645189   -8871.6826    23665.602 
    6800    281.57032   -8828.7737    41.965381   -8870.7391   -20563.178 
    7000    408.07034   -8808.4123    60.819009   -8869.2314   -21220.318 
    7200    295.21268   -8826.4794    43.998646   -8870.4781    -24810.13 
    7400    291.73843   -8824.8355    43.480842   -8868.3163    28243.954 
    7600    350.96746    -8814.636    52.308366   -8866.9444   -2869.5607 
    7800    280.34276   -8832.5433    41.782426   -8874.3257   -6452.1626 
    8000    280.36981    -8825.718    41.786457   -8867.5044    35470.621 
    8200     347.3095   -8811.6987    51.763182   -8863.4619   -3947.2933 
    8400    300.66859   -8829.2814    44.811797   -8874.0932   -3416.2064 
    8600    279.13817   -8829.4274    41.602893   -8871.0303   -17626.726 
    8800    307.81926   -8811.5213    45.877537   -8857.3989    2037.5206 
    9000    313.32658   -8822.0364    46.698351   -8868.7347   -11650.347 
    9200    306.13333   -8829.3882    45.626265   -8875.0145   -12448.104 
    9400     300.3708   -8821.9846    44.767416    -8866.752   -4851.6232 
    9600     300.2813   -8825.1996    44.754076   -8869.9537     5735.336 
    9800    236.18931   -8835.3863    35.201773   -8870.5881    15271.447 
   10000    353.27321   -8820.1254    52.652017   -8872.7774    26742.483 
   10200    310.28323   -8826.1741    46.244768   -8872.4189   -30460.678 
   10400    264.20029   -8841.0084    39.376544   -8880.3849   -13449.744 
   10600    307.36819   -8827.7653     45.81031   -8873.5756    139.78823 
   10800    290.28303   -8824.4913    43.263929   -8867.7552   -21079.029 
   11000    239.84111   -8839.4787     35.74604   -8875.2247   -7236.2767 
   11200    269.80138   -8828.7942    40.211333   -8869.0055    38951.801 
   11400    247.27305   -8828.2792      36.8537   -8865.1329   -7087.3721 
   11600    296.93077   -8812.2139    44.254712   -8856.4686     16526.64 
   11800    271.42555   -8827.0282      40.4534   -8867.4816   -26808.329 
   12000    269.35276    -8832.658     40.14447   -8872.8025     5835.932 
   12200    310.48145   -8814.3153    46.274311   -8860.5896   -11298.433 
   12400    322.23186   -8823.8666    48.025599   -8871.8922   -10796.275 
   12600    291.99417   -8831.8799    43.518958   -8875.3988   -22765.838 
   12800    247.87108   -8836.4991     36.94283   -8873.4419    36825.352 
   13000    382.40975    -8819.546    56.994541   -8876.5406   -3950.1736 
   13200    259.09487   -8832.2884     38.61563    -8870.904    521.62901 
   13400    278.22514   -8831.1982    41.466814    -8872.665   -19927.528 
   13600    325.94358   -8820.8812    48.578795     -8869.46    11215.252 
   13800      229.584   -8834.1598    34.217314   -8868.3771   -19250.195 
   14000    358.02194    -8820.717     53.35977   -8874.0767    -8946.127 
   14200    370.70955   -8807.7526    55.250737   -8863.0033   -11987.343 
   14400    317.14239   -8823.8612    47.267061   -8871.1283   -11874.289 
   14600    305.76965   -8835.2432    45.572062   -8880.8152   -37472.653 
   14800    241.92842   -8841.1903    36.057133   -8877.2474   -23864.959 
   15000    310.80869   -8827.0226    46.323084   -8873.3457   -8186.1187 
   15200    290.31814   -8836.9708    43.269161   -8880.2399   -15549.582 
   15400    276.11903   -8830.0308    41.152918   -8871.1837    3678.3881 
   15600    294.02796   -8823.5527    43.822075   -8867.3748    8369.5221 
   15800    265.81819   -8835.3424    39.617677   -8874.9601     32808.09 
   16000    368.19765   -8810.4602    54.876363   -8865.3365   -9069.6528 
   16200    342.54041   -8824.4287    51.052395   -8875.4811    730.36469 
   16400     284.0802   -8831.8908    42.339455   -8874.2303   -48798.292 
   16600    363.50429   -8812.4987    54.176862   -8866.6756   -1321.6884 
   16800    263.72769   -8823.7589    39.306108    -8863.065    3565.4481 
   17000    287.29173   -8828.4609    42.818104    -8871.279   -13436.243 
   17200    281.99329   -8826.0303    42.028421   -8868.0587   -5547.9247 
   17400    363.19397   -8813.9615    54.130612   -8868.0921   -35726.108 
   17600      292.448   -8829.1741    43.586597   -8872.7607   -1373.9451 
   17800    269.07945   -8825.8369    40.103737   -8865.9406   -16577.717 
   18000    336.74843    -8808.336    50.189156   -8858.5252    49272.195 
   18200    277.08873   -8828.3387    41.297444   -8869.6361    14932.916 
   18400    322.08415   -8827.9787    48.003584   -8875.9823    5520.1218 
   18600    259.70277   -8835.4998    38.706232   -8874.2061   -29716.124 
   18800    310.68146   -8827.1301    46.304122   -8873.4342   -51654.673 
   19000    290.08847   -8827.0518    43.234931   -8870.2867    6582.3909 
   19200    267.40192   -8828.2932    39.853717   -8868.1469   -58697.944 
   19400    222.71857   -8839.9592    33.194087   -8873.1533    20676.183 
   19600     291.4539   -8824.0475    43.438436   -8867.4859   -12818.669 
   19800    357.99959   -8814.8722    53.356439   -8868.2286   -24160.729 
   20000    283.63502   -8836.8245    42.273106   -8879.0976     8198.176 
   20200    319.08211   -8826.2065    47.556159   -8873.7626    23271.692 
   20400    319.29986   -8813.7647    47.588611   -8861.3533    15644.263 
   20600    320.14679   -8825.4994    47.714839   -8873.2142    27281.858 
   20800    327.50476   -8830.4003    48.811474   -8879.2118   -24918.553 
   21000    339.32362   -8819.2968    50.572963   -8869.8698   -26767.516 
   21200    266.44317   -8837.6489    39.710823   -8877.3598    1033.1421 
   21400     225.6253   -8835.2296    33.627309   -8868.8569    31326.157 
   21600    304.45078   -8819.1405    45.375498    -8864.516    33108.555 
   21800    329.95987   -8825.6125    49.177385   -8874.7899     2197.147 
   22000    283.21359   -8832.7083    42.210296   -8874.9186    7630.8941 
   22200    309.14682   -8826.8851    46.075397   -8872.9605    7450.7811 
   22400    320.65871   -8818.9732    47.791135   -8866.7644   -22165.109 
   22600    296.46768   -8836.5345    44.185692   -8880.7202    16402.503 
   22800    299.85077   -8824.2272     44.68991   -8868.9171   -1694.3003 
   23000    317.87999   -8818.2351    47.376993   -8865.6121   -6907.4193 
   23200    273.80205   -8828.9417    40.807595   -8869.7493    15091.796 
   23400    271.57205   -8842.3148    40.475235   -8882.7901    23613.708 
   23600    281.37957   -8834.1666    41.936952   -8876.1035   -2629.3527 
   23800    246.21566   -8831.2782    36.696105   -8867.9744   -6267.5857 
   24000    349.08691   -8820.8163    52.028089   -8872.8444    16637.746 
   24200    234.70703   -8832.6053    34.980853   -8867.5862    13688.216 
   24400    291.02973   -8832.0701    43.375217   -8875.4454   -10090.264 
   24600    262.65229   -8837.3462     39.14583    -8876.492   -325.92625 
   24800    320.63487   -8825.0404    47.787582    -8872.828   -10132.566 
   25000    352.85538   -8823.1458    52.589743   -8875.7356    11308.957 
   25200    285.90858   -8838.2648    42.611959   -8880.8767    5585.0443 
   25400    305.76386   -8826.5668      45.5712    -8872.138   -32968.408 
   25600     289.1233   -8823.3739    43.091082    -8866.465   -6689.4813 
   25800    243.26051    -8838.927    36.255669   -8875.1827     12262.07 
   26000    286.82122   -8828.5924    42.747979   -8871.3404    22959.097 
   26200    364.58092   -8812.3662    54.337323   -8866.7035   -1663.9003 
   26400    363.75599   -8812.7586    54.214375    -8866.973    7644.5345 
   26600    276.84688   -8828.6637    41.261398   -8869.9251   -5716.1335 
   26800    293.85446   -8829.4459    43.796216   -8873.2422   -7418.4338 
   27000    302.57595   -8817.2909    45.096071    -8862.387    7194.9719 
   27200    250.44457   -8837.0033    37.326384   -8874.3296     11081.05 
   27400    332.09403   -8830.2061    49.495461   -8879.7015   -6718.4415 
   27600    311.18925   -8822.4841    46.379802   -8868.8639   -14533.751 
   27800    278.70226   -8829.5315    41.537925   -8871.0694    14772.141 
   28000    296.34162   -8822.3631    44.166904     -8866.53   -13635.999 
   28200    327.47636   -8837.2093    48.807241   -8886.0165   -22015.915 
   28400    309.07433   -8852.6339    46.064594   -8898.6985    17764.577 
   28600    256.05525    -8853.836    38.162603   -8891.9986    8976.6857 
   28800     350.9494   -8842.8844    52.305675   -8895.1901   -9024.1245 
   29000    322.66606    -8850.096    48.090312   -8898.1863   -13594.613 
   29200    259.37046   -8859.1232    38.656704   -8897.7799   -12951.926 
   29400    287.13317   -8841.7528    42.794473   -8884.5473    28035.712 
   29600    255.78901    -8852.564    38.122923   -8890.6869   -20786.817 
   29800    289.66336   -8857.9137    43.171573   -8901.0853     35792.19 
   30000    319.78726   -8851.7025    47.661254   -8899.3638     13568.55 
   30200    278.44469   -8852.8422    41.499537   -8894.3417   -21889.336 
   30400    308.53998   -8840.6772    45.984954   -8886.6621    9085.8611 
   30600    274.44706   -8854.5964    40.903728   -8895.5001    14075.075 
   30800    291.03931   -8850.6833    43.376645     -8894.06    20186.715 
   31000    368.27241   -8839.1666    54.887505   -8894.0541    2690.0215 
   31200    263.83403   -8857.3655    39.321956   -8896.6874   -17924.031 
   31400    316.15574     -8850.05     47.12001   -8897.1701   -34807.843 
   31600    284.63833   -8847.3297     42.42264   -8889.7523   -4542.8548 
   31800    381.42692   -8833.0894    56.848059   -8889.9375    11538.265 
   32000    360.36871    -8848.198    53.709534   -8901.9075   -40337.925 
   32200    300.93584   -8852.2018    44.851629   -8897.0535   -25280.378 
   32400    329.40415   -8836.2876     49.09456   -8885.3822   -3860.4748 
   32600    296.85788   -8836.5476    44.243847   -8880.7915   -41.727341 
   32800    282.72849   -8852.1377    42.137996   -8894.2757    30134.656 
   33000       311.72   -8856.4393    46.458905   -8902.8982    -13098.62 
   33200    366.59588   -8841.4778    54.637634   -8896.1154    -47073.37 
   33400    300.73205   -8841.9606    44.821256   -8886.7818   -16117.025 
   33600    252.61645   -8860.9752    37.650082   -8898.6253    15590.538 
   33800    311.94453   -8846.3372     46.49237   -8892.8296   -1314.1414 
   34000    297.11134   -8847.9099    44.281624   -8892.1915    8110.0901 
   34200    257.64358    -8853.402    38.399328   -8891.8013   -22112.549 
   34400    298.03786   -8851.5411    44.419713   -8895.9608   -27342.672 
   34600    338.00064    -8840.006    50.375785   -8890.3818    15575.075 
   34800    275.78929    -8861.119    41.103775   -8902.2228   -7270.7555 
   35000    333.73415   -8857.9617    49.739906   -8907.7016   -8686.7955 
   35200    373.23521   -8849.2612    55.627163   -8904.8883   -17425.191 
   35400    296.45229   -8854.0722    44.183398   -8898.2556   -21074.064 
   35600    254.52274   -8870.4464    37.934197   -8908.3806    43668.748 
   35800     249.6367   -8865.4323     37.20598   -8902.6383   -20713.832 
   36000    288.57238    -8857.508    43.008973    -8900.517   -24532.656 
   36200    362.37549   -8847.8643    54.008625   -8901.8729   -25965.783 
   36400    261.08515   -8852.6358    38.912262    -8891.548    256.84538 
   36600    294.66312   -8857.5719    43.916739   -8901.4886    10719.505 
   36800    318.82062   -8851.7498    47.517185    -8899.267   -34324.987 
   37000    285.79487   -8857.5093    42.595011   -8900.1044   -12526.396 
   37200    329.73417   -8861.4462    49.143747     -8910.59   -5581.2263 
   37400    336.44061   -8841.9019    50.143278   -8892.0452    38900.068 
   37600    292.59678   -8857.5337    43.608771   -8901.1425    14413.374 
   37800    284.45123   -8860.6671    42.394754   -8903.0618   -54730.318 
   38000    311.42693   -8852.0218    46.415226    -8898.437    5354.6157 
   38200    330.51871   -8835.6595    49.260675   -8884.9202    26233.333 
   38400    327.95617   -8859.2465    48.878752   -8908.1253   -4074.9187 
   38600    313.24557   -8859.6084    46.686276   -8906.2947    15245.329 
   38800    277.53872   -8847.2296     41.36451   -8888.5941   -2835.5582 
   39000    299.52668   -8859.9942    44.641607   -8904.6358   -18325.065 
   39200    274.40575   -8859.8079     40.89757   -8900.7055    7056.2346 
   39400    304.62334   -8842.2072    45.401216   -8887.6084    1551.3859 
   39600    357.47898   -8853.4805    53.278846   -8906.7593   -17500.884 
   39800    265.74299   -8858.3365    39.606469    -8897.943    21934.644 
   40000     347.7659   -8849.3782    51.831204   -8901.2094   -32801.309 
   40200     295.4578   -8862.9307    44.035178   -8906.9658    9247.4053 
   40400     254.9599   -8859.6921    37.999351   -8897.6914    -33118.25 
   40600    293.16221   -8854.3078    43.693044   -8898.0008    4442.9174 
   40800     298.3129   -8859.8771    44.460704   -8904.3378   -19602.202 
   41000    301.89415   -8869.7879    44.994457   -8914.7824   -23583.358 
   41200    356.99876   -8852.1032    53.207274   -8905.3105   -35001.585 
   41400    307.02012   -8857.8442    45.758433   -8903.6026   -6105.0277 
   41600    264.92014   -8874.0297     39.48383   -8913.5135    5551.1497 
   41800    311.57384   -8857.5153    46.437121   -8903.9525    31550.933 
   42000    306.23754   -8855.8316    45.641797   -8901.4734    11251.736 
   42200    295.08781   -8855.0889    43.980036    -8899.069     9790.873 
   42400    277.87571   -8867.3913    41.414736   -8908.8061   -6310.2248 
   42600    304.30107   -8850.3046    45.353184   -8895.6578   -17838.718 
   42800    304.79134   -8859.5251    45.426254   -8904.9514    45539.765 
   43000    326.25481   -8862.0054    48.625181   -8910.6306    18338.726 
   43200    396.66488   -8840.7795    59.119133   -8899.8987   -13168.281 
   43400    315.15936   -8852.9924    46.971509   -8899.9639   -8784.3663 
   43600    328.15088   -8856.5658    48.907772   -8905.4736    24096.966 
   43800     246.8899   -8871.8297    36.796595   -8908.6263   -24247.204 
   44000    286.59552   -8856.4909     42.71434   -8899.2052    -26540.42 
   44200    293.23838   -8853.8052    43.704395   -8897.5096    13645.466 
   44400    252.35942    -8866.945    37.611774   -8904.5568    3294.8697 
   44600    294.75226    -8849.803    43.930024   -8893.7331   -12267.216 
   44800    289.74066   -8853.2317    43.183094   -8896.4148    12186.261 
   45000    217.54924   -8867.4674    32.423648   -8899.8911   -12370.126 
   45200    251.31528   -8857.6899    37.456156    -8895.146     62041.84 
   45400    287.76722   -8857.4389    42.888971   -8900.3278   -9602.8273 
   45600    301.03055   -8847.2063    44.865744   -8892.0721   -27882.893 
   45800    283.84172   -8860.5519    42.303913   -8902.8558   -5273.1373 
   46000    271.96922   -8861.1642    40.534428   -8901.6986    -1083.844 
   46200    308.59905   -8840.1918    45.993757   -8886.1856   -36957.661 
   46400    304.33023   -8854.6891    45.357531   -8900.0466    32981.685 
   46600    297.08495   -8860.2218    44.277691   -8904.4995    -40989.79 
   46800    327.42945   -8853.8853    48.800251   -8902.6856   -1252.8448 
   47000    307.05654   -8854.7484    45.763861   -8900.5123    -12767.93 
   47200    225.89305   -8863.8664    33.667213   -8897.5336    7754.7236 
   47400    330.14215   -8846.3256    49.204552   -8895.5301    38323.581 
   47600    306.23279    -8852.901    45.641089   -8898.5421   -17441.257 
   47800    257.00061   -8868.1738      38.3035   -8906.4773    -23320.18 
   48000    296.24892   -8853.5041    44.153088   -8897.6572   -10311.064 
   48200    242.86451   -8859.7787    36.196648   -8895.9754     11160.65 
   48400    285.07667   -8853.2208    42.487971   -8895.7087   -5367.7856 
   48600     335.6528   -8848.6794    50.025863   -8898.7053    36448.905 
   48800    275.21528   -8866.2649    41.018224   -8907.2831   -12505.617 
   49000    297.48686   -8854.3189    44.337591   -8898.6565    14967.004 
   49200    333.65587   -8851.3813    49.728238   -8901.1096   -33966.373 
   49400    266.50954   -8865.4589    39.720716   -8905.1796   -11635.515 
   49600    310.31136   -8852.6097    46.248961   -8898.8587    13462.511 
   49800    324.71227    -8854.368    48.395279   -8902.7633   -16453.795 
   50000    279.37536   -8866.8268    41.638244    -8908.465    33865.913 
   50200     308.6453   -8850.3572    46.000651   -8896.3578   -11548.245 
   50400    277.47317   -8851.8814    41.354741   -8893.2362   -26291.511 
   50600    275.19969   -8865.4754    41.015901   -8906.4913   -4130.9575 
   50800    327.93993   -8858.1364    48.876331   -8907.0127    11462.105 
   51000    371.74606   -8852.2885     55.40522   -8907.6937    1461.0065 
   51200    274.85122    -8869.162    40.963964    -8910.126   -30935.052 
   51400    306.91052   -8853.0031    45.742098   -8898.7452   -18724.917 
   51600    319.67885   -8856.9246    47.645097   -8904.5697   -6250.5933 
   51800    272.55437   -8864.7576     40.62164   -8905.3792     53916.93 
   52000    296.06391    -8847.436    44.125513   -8891.5615    10695.019 
   52200    269.22155   -8859.7297    40.124915   -8899.8546    11657.545 
   52400    336.91119   -8845.2203    50.213413   -8895.4337   -5181.1262 
   52600    307.53392   -8853.2679     45.83501   -8899.1029    3593.0823 
   52800    266.88475   -8862.2324    39.776638    -8902.009    14163.428 
   53000     330.7005   -8846.5724    49.287768   -8895.8602    38069.459 
   53200    307.62473   -8857.7797    45.848545   -8903.6282   -14926.299 
   53400    289.08182   -8854.6502      43.0849   -8897.7351    41560.027 
   53600    290.33665   -8862.7199     43.27192   -8905.9918     37274.65 
   53800    272.93528   -8856.2426    40.678412    -8896.921   -22590.544 
   54000    294.30721   -8849.7949    43.863694   -8893.6586   -44389.912 
   54200    250.28011   -8862.1673    37.301874   -8899.4692    22958.115 
   54400    375.53622   -8842.5072    55.970107   -8898.4773    23603.333 
   54600    307.43778   -8854.0692    45.820681   -8899.8899   -37134.396 
   54800    308.33109   -8861.9473    45.953821   -8907.9011   -36.547688 
   55000    303.57586   -8841.9139    45.245099    -8887.159   -12676.144 
   55200    300.09668   -8854.8546     44.72656   -8899.5812   -4068.4518 
   55400    307.38508   -8854.8608    45.812826   -8900.6736   -2808.7368 
   55600    330.52148   -8840.7278    49.261088   -8889.9889   -15879.066 
   55800    283.88607   -8861.2882    42.310522   -8903.5988    7375.3865 
   56000    262.95883   -8860.7833    39.191515   -8899.9749   -12422.285 
   56200    350.53095   -8846.9117    52.243309    -8899.155   -26571.634 
   56400    307.99109   -8859.2257    45.903148   -8905.1288    26238.529 
   56600    324.80857   -8854.5659    48.409632   -8902.9756   -11508.441 
   56800    324.67471   -8840.8311    48.389683   -8889.2208    28080.198 
   57000    320.35121   -8853.2393    47.745305   -8900.9846    26855.887 
   57200    287.94159   -8865.9769    42.914959   -8908.8919   -10680.616 
   57400    296.06967   -8852.2145    44.126373   -8896.3408   -3531.8358 
   57600    305.78381   -8855.3377    45.574173   -8900.9119    38.106418 
   57800    268.56556   -8863.9817    40.027146   -8904.0088   -5681.7252 
   58000    350.76593    -8846.398     52.27833   -8898.6764    50994.592 
   58200    301.24627   -8853.6069    44.897895   -8898.5048   -23934.372 
   58400     296.8108   -8860.4028    44.236831   -8904.6396   -5660.2131 
   58600    319.63026    -8854.648    47.637855   -8902.2859   -20719.771 
   58800    369.41246   -8845.8042    55.057419   -8900.8616   -1050.0626 
   59000    298.43715   -8855.5457    44.479223   -8900.0249    17004.623 
   59200    336.21899   -8858.3249    50.110247   -8908.4351    38620.034 
   59400    302.03345   -8845.6817    45.015217   -8890.6969    2661.4345 
   59600    248.23871   -8862.0957    36.997622   -8899.0933    22399.233 
   59800    298.61688   -8860.2306     44.50601   -8904.7366    8417.3215 
   60000    323.45546   -8852.3594    48.207964   -8900.5674    246.75681 
   60200    335.01528   -8844.6788    49.930845   -8894.6097   -24051.243 
   60400    247.66544   -8861.1714    36.912181   -8898.0836   -17324.591 
   60600    267.50598   -8861.7946    39.869226   -8901.6638   -1338.0119 
   60800    327.43392   -8846.4635    48.800916   -8895.2644   -3797.0745 
   61000    318.56248   -8861.5376    47.478712   -8909.0163   -8178.1698 
   61200    286.56018   -8862.4724    42.709073   -8905.1815   -15772.096 
   61400    319.90574   -8848.2809    47.678913   -8895.9598    23261.855 
   61600    279.73893   -8857.0428     41.69243   -8898.7352   -34827.434 
   61800    295.86081   -8859.2887    44.095243   -8903.3839   -16829.545 
   62000    412.31228   -8834.5818    61.451229    -8896.033       2087.2 
   62200     319.1047   -8849.9162    47.559525   -8897.4757    5748.1451 
   62400    314.64892   -8858.6737    46.895433   -8905.5691   -702.64974 
   62600    252.40407   -8862.0164    37.618429   -8899.6349   -8614.6026 
   62800     257.6892   -8850.3781    38.406128   -8888.7842   -632.81583 
   63000    314.72142   -8846.8129    46.906238   -8893.7191   -23559.775 
   63200    281.73452   -8862.5721    41.989854   -8904.5619    -14687.87 
   63400    313.36145   -8854.8229    46.703548   -8901.5264    17519.852 
   63600    379.00461   -8837.9002    56.487037   -8894.3872    2409.6685 
   63800    279.82854   -8863.4732    41.705786    -8905.179     4485.761 
   64000    291.25475   -8854.3415    43.408755   -8897.7502    13331.204 
   64200    285.81246   -8851.7087    42.597633   -8894.3064   -3899.0704 
   64400    252.92215   -8865.0723    37.695644   -8902.7679    12682.137 
   64600    252.15576   -8860.0187    37.581422   -8897.6002   -24514.986 
   64800    347.14411   -8850.5216    51.738533   -8902.2602     20597.14 
   65000    314.37515   -8846.8646     46.85463   -8893.7192   -34412.167 
   65200    328.94582   -8858.9012     49.02625   -8907.9274    22969.168 
   65400    349.76488    -8853.868    52.129133   -8905.9971   -20950.488 
   65600    337.57884    -8843.581     50.31292    -8893.894    2601.9164 
   65800    289.41755   -8861.7206    43.134937   -8904.8556   -35283.083 
   66000    297.57536    -8852.631    44.350782   -8896.9818    61589.399 
   66200    252.16066   -8866.6156    37.582152   -8904.1977    27261.235 
   66400    274.48635   -8859.5747    40.909583   -8900.4843   -14612.969 
   66600     267.2955   -8850.4974    39.837856   -8890.3353   -46047.954 
   66800    411.72919    -8834.405    61.364325   -8895.7694    23973.231 
   67000    293.59331   -8854.4874    43.757294   -8898.2447   -8423.6988 
   67200    265.36277   -8867.5143      39.5498   -8907.0641   -28641.003 
   67400    278.02216   -8862.0332    41.436562   -8903.4697    88.125393 
   67600      317.756   -8855.9924    47.358514   -8903.3509    4527.1227 
   67800    288.68121   -8866.9698    43.025193    -8909.995   -2277.5519 
   68000    301.41137   -8852.8421    44.922502   -8897.7646   -3459.2505 
   68200    296.47533   -8856.6291    44.186833    -8900.816     19092.52 
   68400    269.93788    -8860.275    40.231677   -8900.5067    27423.667 
   68600    301.42827   -8860.6043    44.925021   -8905.5293    17273.209 
   68800    338.78023   -8853.5772    50.491976   -8904.0691    5712.0907 
   69000    304.50853   -8853.2056    45.384105   -8898.5897     26671.15 
   69200    296.19975   -8863.5977    44.145759   -8907.7435   -55.585271 
   69400    316.60031   -8852.4054    47.186269   -8899.5917     16229.93 
   69600    322.99173   -8855.0718     48.13885   -8903.2107   -29628.661 
   69800    288.40767   -8868.5732    42.984424   -8911.5576    3009.5402 
   70000    314.18592   -8855.2104    46.826428   -8902.0368    16014.398 
   70200    268.07557   -8855.8574    39.954118   -8895.8116   -39082.271 
   70400    300.26542    -8861.363     44.75171   -8906.1147   -34896.433 
   70600    271.17461   -8853.6363       40.416   -8894.0523    46416.828 
   70800    316.32372   -8849.6093    47.145047   -8896.7544   -11169.909 
   71000    262.82702   -8862.5849    39.171872   -8901.7568   -25977.169 
   71200    298.73266   -8852.8687    44.523266    -8897.392   -28192.648 
   71400    327.83364   -8850.2825     48.86049    -8899.143   -19753.239 
   71600    277.05905   -8861.6261     41.29302   -8902.9191     32721.77 
   71800    322.06252    -8851.213    48.000359   -8899.2133    19262.256 
   72000    313.98652   -8860.4189    46.796709   -8907.2156    3553.5035 
   72200    290.25634    -8865.131     43.25995   -8908.3909    10651.256 
   72400    319.11251   -8846.7596    47.560689   -8894.3203    70611.257 
   72600    344.38573   -8851.4243    51.327422   -8902.7517   -3352.4244 
   72800    285.99753   -8867.3802    42.625215   -8910.0055    8612.6217 
   73000    343.62787   -8855.4724     51.21447   -8906.6869   -11376.784 
   73200    331.60642   -8855.1496    49.422788   -8904.5724    3041.8391 
   73400    246.41923   -8862.5589    36.726445   -8899.2853   -11124.419 
   73600    263.35262   -8870.8444    39.250207   -8910.0946   -11499.662 
   73800    335.31889   -8855.1918    49.976096   -8905.1679   -7148.6779 
   74000    260.82713   -8863.0437    38.873806   -8901.9175   -8576.9492 
   74200    260.06955   -8868.1092    38.760896   -8906.8701    529.25487 
   74400     301.3903   -8853.0054    44.919362   -8897.9248    35207.942 
   74600    368.04048   -8845.8808    54.852938   -8900.7337    67491.831 
   74800    307.18018   -8858.2579    45.782288   -8904.0402   -1712.8641 
   75000     325.3335    -8851.561    48.487868   -8900.0489    19910.719 
   75200    312.31051   -8864.1177    46.546915   -8910.6646    17715.618 
   75400    263.76652    -8862.509    39.311895   -8901.8209   -41102.958 
   75600    280.34223   -8854.3283    41.782346   -8896.1106   -6750.4143 
   75800    251.53193   -8869.1141    37.488445   -8906.6026   -7853.6482 
   76000    277.73195   -8870.8774     41.39331   -8912.2707   -29527.067 
   76200    295.85459    -8855.803    44.094316   -8899.8973    4150.5872 
   76400    333.54123   -8852.9648    49.711153    -8902.676    3494.8425 
   76600      301.824   -8867.7257       44.984   -8912.7097    -2775.733 
   76800    307.24575   -8855.1412     45.79206   -8900.9333   -30004.976 
   77000     314.8262   -8852.7118    46.921855   -8899.6336    -5380.366 
   77200    275.03794    -8859.004    40.991792   -8899.9958    14029.265 
   77400    291.92987   -8861.9357    43.509375    -8905.445   -1725.9421 
   77600     310.4052   -8854.2499    46.262946   -8900.5129    23337.623 
   77800     278.2742   -8863.0122    41.474127   -8904.4863   -8829.0188 
   78000    269.19782   -8868.6584    40.121378   -8908.7798    51573.994 
   78200     310.3847   -8850.6736    46.259891   -8896.9335     16760.59 
   78400    315.39136   -8853.1017    47.006087   -8900.1078    7546.7644 
   78600    245.66901   -8864.3822    36.614633   -8900.9969   -37812.573 
   78800    298.19248   -8858.4263    44.442758    -8902.869    584.79689 
   79000    418.62261   -8842.1274    62.391724   -8904.5192   -22529.446 
   79200    294.92899   -8856.8453    43.956365   -8900.8016   -2777.7983 
   79400    311.14206   -8855.8988    46.372768   -8902.2716   -11799.591 
   79600    271.40105    -8860.074    40.449748   -8900.5237   -28734.234 
   79800    313.88839   -8863.2324    46.782084   -8910.0144    -18374.41 
   80000    333.44172   -8852.3834    49.696321   -8902.0797    15941.653 
   80200    300.35311   -8859.3822    44.764778   -8904.1469   -21504.331 
   80400    303.31742   -8861.1867    45.206581   -8906.3933    318.02845 
   80600    276.90147    -8864.084    41.269534   -8905.3535    35340.203 
   80800    264.19148   -8849.1127    39.375232   -8888.4879   -14295.099 
   81000    285.81262   -8863.1441    42.597657   -8905.7418   -2377.3237 
   81200    335.71862   -8848.6846    50.035672   -8898.7203   -6254.8699 
   81400    300.55506   -8847.2587    44.794876   -8892.0535   -6041.8532 
   81600    301.78298   -8861.0064    44.977887   -8905.9843    5318.6623 
   81800      217.503    -8880.223    32.416756   -8912.6397   -15024.125 
   82000    245.04603   -8868.5285    36.521784   -8905.0503   -17730.196 
   82200    310.04206   -8852.1107    46.208824   -8898.3195   -8234.7826 
   82400    310.98419   -8850.7382     46.34924   -8897.0875   -45638.199 
   82600    244.99077   -8869.5631    36.513547   -8906.0766    19146.334 
   82800    282.50525   -8861.5288    42.104725   -8903.6335    26407.952 
   83000    339.54199   -8854.2393    50.605509   -8904.8448     27834.05 
   83200    268.45859   -8862.1263    40.011203   -8902.1375    4443.1462 
   83400    263.34658   -8848.4198    39.249307   -8887.6691    -15941.19 
   83600    347.51921   -8845.9206    51.794437    -8897.715    15317.486 
   83800     297.3808    -8859.847    44.321783   -8904.1688   -22177.181 
   84000    299.09564   -8861.4571    44.577365   -8906.0344     177.5781 
   84200    289.22491   -8859.7111    43.106225   -8902.8173   -5355.4325 
   84400    307.85368   -8851.2901    45.882668   -8897.1728    48522.199 
   84600    292.80988   -8856.6367    43.640532   -8900.2772    33874.088 
   84800    231.95072   -8869.4232    34.570052   -8903.9933   -39210.445 
   85000    318.63212   -8853.8818    47.489091   -8901.3709    1892.3921 
   85200    283.17852   -8854.5855    42.205069   -8896.7906   -24519.592 
   85400    296.69507   -8854.0292    44.219582   -8898.2488   -39563.485 
   85600    353.73052   -8861.8407    52.720175   -8914.5608    24335.898 
   85800    289.28872   -8868.7527    43.115736   -8911.8684    16322.318 
   86000    352.31399   -8854.7054    52.509055   -8907.2145   -14841.382 
   86200    292.52872   -8858.1333    43.598627   -8901.7319    22028.455 
   86400    370.67234   -8845.3879    55.245192   -8900.6331   -15028.675 
   86600    302.26286   -8853.6916    45.049409    -8898.741   -52943.084 
   86800    263.66822   -8866.4699    39.297244   -8905.7671   -26436.118 
   87000     256.9504   -8880.2507    38.296017   -8918.5467    26748.469 
   87200    298.21334   -8860.5822    44.445866    -8905.028    4223.5785 
   87400     320.9307   -8849.4231    47.831673   -8897.2548   -22638.264 
   87600     276.6117   -8860.4955    41.226346   -8901.7218    28405.021 
   87800    262.38418   -8867.1154     39.10587   -8906.2213   -14238.731 
   88000    347.23888    -8851.548    51.752657   -8903.3006   -32368.846 
   88200    293.89347   -8859.0827     43.80203   -8902.8847    21693.485 
   88400    318.00333   -8856.3551    47.395377   -8903.7505    1401.3628 
   88600    300.40146   -8857.6968    44.771985   -8902.4688   -18742.757 
   88800    361.53361   -8844.4018    53.883151   -8898.2849   -9576.9673 
   89000    279.76895   -8864.6866    41.696905   -8906.3835    -33053.05 
   89200    314.52253   -8855.2041    46.876595   -8902.0807    10764.267 
   89400    341.74288   -8852.1223     50.93353   -8903.0558    14300.512 
   89600    292.21381   -8860.9235    43.551693   -8904.4752    12145.089 
   89800    311.47955   -8849.4202    46.423069   -8895.8432    195.96502 
   90000    282.53892   -8867.0365    42.109742   -8909.1463   -3034.8621 
   90200    291.34632   -8858.5874    43.422402   -8902.0098   -10439.724 
   90400    269.83237    -8856.766    40.215953    -8896.982    9837.8802 
   90600    254.73075   -8871.4217    37.965199   -8909.3869   -20259.081 
   90800    265.23088   -8859.7132    39.530144   -8899.2434    4040.8528 
   91000    344.86581   -8859.7198    51.398974   -8911.1188   -12005.328 
   91200    304.86176   -8855.5847     45.43675   -8901.0215   -14984.899 
   91400    261.94953   -8853.6849     39.04109    -8892.726     23419.03 
   91600    279.14484   -8867.3242    41.603888   -8908.9281   -594.10906 
   91800    347.66481   -8849.4442    51.816138   -8901.2604   -32242.304 
   92000    294.61161   -8855.3212    43.909062   -8899.2302    1114.5391 
   92200     297.8582   -8866.5147    44.392935   -8910.9077     16737.45 
   92400     320.9346   -8847.8666    47.832254   -8895.6989    14241.623 
   92600    294.06077   -8852.3702    43.826965   -8896.1972    -9904.652 
   92800    280.16811   -8863.8693    41.756395   -8905.6257   -7431.5998 
   93000    272.37231   -8849.8467    40.594506   -8890.4412   -44233.208 
   93200    338.36793   -8848.7935    50.430527    -8899.224   -21572.425 
   93400    270.81224   -8861.4494    40.361993   -8901.8114    12382.341 
   93600    311.43616   -8843.8389    46.416602   -8890.2555   -15827.527 
   93800    305.18127   -8846.0659     45.48437   -8891.5503     4779.971 
   94000    283.23265    -8860.768    42.213136   -8902.9812    14496.968 
   94200    242.65236   -8866.0718    36.165029   -8902.2368     26578.87 
   94400    293.08036   -8845.2552    43.680844    -8888.936   -3555.4677 
   94600    350.32661   -8859.9619    52.212853   -8912.1748    -26098.77 
   94800    254.40319   -8862.5742    37.916379   -8900.4906   -30162.746 
   95000     343.5528   -8848.8724    51.203282   -8900.0757     4158.516 
   95200    303.18729   -8859.2381    45.187185   -8904.4253   -34081.149 
   95400    277.83283   -8854.8386    41.408345   -8896.2469    23689.414 
   95600    301.73047   -8852.5514    44.970061   -8897.5214    -11619.93 
   95800     253.6126   -8864.0796    37.798549   -8901.8781    7636.0267 
   96000    354.93342   -8854.7364    52.899455   -8907.6359    36587.316 
   96200    226.09785   -8868.7805    33.697736   -8902.4782   -17702.695 
   96400    320.75489   -8847.4917     47.80547   -8895.2972    4844.5341 
   96600    299.45627   -8859.7444    44.631113   -8904.3755   -17751.803 
   96800    272.52324   -8858.9228    40.617001   -8899.5398    35601.879 
   97000    361.03203   -8852.4268    53.808396   -8906.2352    -20438.81 
   97200      301.443   -8859.5039    44.927217   -8904.4311    41983.964 
   97400    325.08012   -8848.6118    48.450105   -8897.0619    1330.8373 
   97600    369.15626   -8842.7538    55.019235   -8897.7731    19757.071 
   97800    299.67832   -8861.6003    44.664207   -8906.2645    22391.665 
   98000    266.33039   -8864.6609    39.694015    -8904.355   -26637.743 
   98200    273.80595    -8857.133    40.808176   -8897.9411   -18823.129 
   98400    288.09901   -8854.6918    42.938421   -8897.6302    -7618.968 
   98600    235.86837   -8868.1596    35.153941   -8903.3136   -15570.623 
   98800     336.1187   -8855.3429    50.095301   -8905.4382    25671.318 
   99000    251.93984   -8858.9234     37.54924   -8896.4726   -12395.449 
   99200    314.50502   -8864.9616    46.873986   -8911.8356   -7635.5337 
   99400    338.22462   -8840.9076    50.409168   -8891.3168    -12147.65 
   99600    285.27178   -8853.4391    42.517049   -8895.9561    -15869.08 
   99800    273.05437   -8864.1356     40.69616   -8904.8317    2482.0662 
  100000     350.4415    -8852.796    52.229977    -8905.026   -8302.1365 
  100200    332.32826   -8850.2783     49.53037   -8899.8087    12799.154 
  100400    247.34412   -8861.9053    36.864291   -8898.7696    48417.461 
  100600    330.71831   -8846.5847    49.290423   -8895.8751   -8159.8792 
  100800    302.50235   -8859.4816    45.085103   -8904.5667   -15061.015 
  101000    292.01316   -8862.5954    43.521788   -8906.1171    5028.8311 
  101200    326.78915   -8841.4416    48.704819   -8890.1464    11697.163 
  101400    276.29613   -8852.7835    41.179314   -8893.9628    5016.5528 
  101600    312.88406   -8858.6636    46.632398    -8905.296    42342.086 
  101800    230.77509     -8872.12    34.394835   -8906.5148    10017.677 
  102000    316.12252   -8856.0125    47.115059   -8903.1275   -46553.119 
  102200    296.76323   -8859.1391    44.229741   -8903.3688    20668.287 
  102400    350.86859   -8843.2916    52.293631   -8895.5852   -7972.2056 
  102600    319.14422   -8848.1713    47.565415   -8895.7367    26065.585 
  102800    289.64488   -8861.9816    43.168819   -8905.1505   -10642.291 
  103000     282.0882    -8859.383    42.042567   -8901.4256   -23709.201 
  103200    312.71721   -8845.6015     46.60753    -8892.209    18067.473 
  103400    311.62037    -8855.733    46.444056   -8902.1771   -34408.543 
  103600    412.95405    -8839.762    61.546879   -8901.3089    -48620.41 
  103800    298.22624    -8851.745    44.447789   -8896.1928   -51057.935 
  104000     313.9678   -8863.8572    46.793919   -8910.6511   -2414.6139 
  104200    323.23214   -8853.3447    48.174681   -8901.5193    28639.916 
  104400    300.09783   -8848.7609    44.726731   -8893.4877    34860.557 
  104600    297.02542   -8857.1502    44.268818   -8901.4191   -7133.4754 
  104800    272.45661   -8865.8085     40.60707   -8906.4155   -25889.099 
  105000    383.15012   -8851.7204    57.104886   -8908.8252    21472.086 
  105200    235.46852    -8872.296    35.094347   -8907.3903    36759.208 
  105400       294.73   -8858.3452    43.926707   -8902.2719    2074.0512 
  105600    309.92211   -8852.7139    46.190947   -8898.9049    3574.6571 
  105800    265.60878   -8865.0751    39.586465   -8904.6616   -3730.2146 
  106000     255.7215   -8869.5583    38.112861   -8907.6711   -31601.906 
  106200      315.375   -8855.1175    47.003648   -8902.1212    -23476.33 
  106400    306.41764   -8859.2889    45.668638   -8904.9575    2655.5954 
  106600    276.18008   -8864.5206    41.162017   -8905.6826   -14053.606 
  106800    340.28436   -8849.2931    50.716152   -8900.0092     13841.76 
  107000    273.03762   -8863.5434    40.693664   -8904.2371    9323.7922 
  107200    296.86564   -8858.4157    44.245005   -8902.6607   -23482.455 
  107400    350.27164   -8851.0955    52.204662   -8903.3002   -20412.311 
  107600    307.22802   -8844.1512    45.789418   -8889.9406   -34035.105 
  107800    242.08027   -8863.0802    36.079765     -8899.16   -25968.084 
  108000    266.48498   -8861.4689    39.717055    -8901.186    2297.1327 
  108200    315.06815   -8848.6993    46.957915   -8895.6572    35054.911 
  108400    295.73265   -8859.6302    44.076143   -8903.7063   -1719.2281 
  108600    333.95253   -8846.4891    49.772453   -8896.2615   -9879.9622 
  108800     301.2633    -8846.518    44.900434   -8891.4184    10816.762 
  109000    357.73931    -8855.825    53.317647   -8909.1427    2563.4192 
  109200    259.51821   -8862.3151    38.678724   -8900.9938    34295.497 
  109400    320.74564   -8846.4711    47.804091   -8894.2751   -2334.3207 
  109600    324.38822   -8855.6598    48.346984   -8904.0068   -19701.197 
  109800    336.16067   -8866.4975    50.101556   -8916.5991    17020.913 
  110000    264.59236    -8858.259    39.434979    -8897.694    10984.947 
  110200    320.56725   -8849.9424    47.777504   -8897.7199    36421.061 
  110400    256.37619   -8862.2817    38.210436   -8900.4921   -5235.2835 
  110600    368.49047   -8843.7845    54.920005   -8898.7045   -13210.763 
  110800    320.84942   -8852.8881    47.819559   -8900.7076    13882.896 
  111000    277.17075    -8864.563    41.309667   -8905.8726   -35896.993 
  111200    320.05018   -8850.8654     47.70044   -8898.5658    8594.7964 
  111400    363.97049   -8851.7996    54.246345    -8906.046   -2210.6321 
  111600    298.25602   -8862.4692    44.452227   -8906.9214    8126.1027 
  111800    324.63124   -8858.9227    48.383204   -8907.3059   -8965.5214 
  112000    319.74583   -8848.8513    47.655079   -8896.5064    16517.233 
  112200    300.77475   -8860.2313     44.82762   -8905.0589   -23118.758 
  112400    264.62054   -8858.9176    39.439179   -8898.3568    16003.187 
  112600    314.37436    -8854.429    46.854512   -8901.2835    42398.126 
  112800    298.59865   -8859.2142    44.503292   -8903.7175    -23689.64 
  113000    289.13276   -8860.6916    43.092492   -8903.7841    -18390.18 
  113200    269.94962   -8847.1018    40.233426   -8887.3352   -53057.513 
  113400     298.3238   -8858.4666     44.46233   -8902.9289    14085.321 
  113600    248.61329    -8870.682     37.05345   -8907.7355    32504.635 
  113800    294.86343   -8859.5018    43.946594   -8903.4484     15111.28 
  114000    330.82414   -8852.9827    49.306197   -8902.2889    24709.303 
  114200    258.70431   -8870.1649     38.55742   -8908.7223    13404.936 
  114400    277.97544   -8858.8501    41.429599   -8900.2797    3258.2801 
  114600    334.66962   -8852.5673    49.879328   -8902.4466   -2464.7156 
  114800    283.60664   -8872.3962    42.268876    -8914.665    33975.198 
  115000    213.63298   -8870.9399    31.839967   -8902.7798    44483.909 
  115200    306.79863   -8859.8559    45.725422   -8905.5813   -24336.346 
  115400    332.73287   -8849.6098    49.590674   -8899.2005    1356.6285 
  115600    286.98199   -8860.5782     42.77194   -8903.3501    9427.7664 
  115800     278.7286   -8858.4185    41.541851   -8899.9603   -22130.711 
  116000    331.11283   -8844.2659    49.349223   -8893.6151   -16002.368 
  116200    314.71504   -8863.2278    46.905288   -8910.1331    388.87402 
  116400    283.66129   -8861.1145    42.277021   -8903.3915   -22894.377 
  116600    320.87263   -8850.6799    47.823018   -8898.5029   -16086.458 
  116800    285.12873   -8862.5448    42.495729   -8905.0405    6431.3563 
  117000    275.23141   -8853.2647    41.020628   -8894.2853   -26439.244 
  117200    338.50664   -8850.9902    50.451199   -8901.4414   -30125.079 
  117400    247.23546   -8860.9855    36.848096   -8897.8336   -1707.8795 
  117600    321.32259   -8844.9326    47.890081   -8892.8227    -32030.21 
  117800    335.10736   -8853.2274    49.944569    -8903.172    16088.746 
  118000    334.30475   -8861.2391    49.824948   -8911.0641    16768.593 
  118200    213.33645   -8873.8838    31.795771   -8905.6796    -15405.21 
  118400    285.12846    -8853.565    42.495689   -8896.0607     25347.51 
  118600    299.31641   -8858.7281    44.610268   -8903.3383   -40209.142 
  118800    285.42496   -8861.4203     42.53988   -8903.9602   -14196.896 
  119000    348.02125   -8848.8465    51.869262   -8900.7158   -42634.549 
  119200    300.38263   -8863.9898    44.769178    -8908.759   -21927.739 
  119400    302.76637   -8853.2129    45.124452   -8898.3373   -16925.408 
  119600    328.12314   -8849.0531    48.903638   -8897.9567    -18642.27 
  119800    292.33784   -8859.5213    43.570178   -8903.0915    26746.564 
  120000    314.40209   -8857.3445    46.858645   -8904.2031   -652.45334 
  120200    342.86898    -8848.734    51.101365   -8899.8353    37247.219 
  120400    313.54399   -8865.1282    46.730754   -8911.8589    11038.889 
  120600    317.47432   -8862.8337    47.316532   -8910.1503     30318.53 
  120800    356.59523   -8845.3325    53.147133   -8898.4796   -11146.983 
  121000    275.98012   -8861.6184    41.132216   -8902.7506    711.14123 
  121200    263.48787   -8865.9259    39.270365   -8905.1962   -1019.6388 
  121400    253.70695   -8869.0132    37.812611   -8906.8258    26247.346 
  121600    274.42516   -8853.9001    40.900464   -8894.8006    14121.913 
  121800    253.19424   -8860.4534    37.736197   -8898.1896    8284.3308 
  122000    268.65182    -8864.037    40.040002    -8904.077    16517.661 
  122200    329.80481   -8845.8949    49.154275   -8895.0492   -38058.645 
  122400    289.02303   -8860.6241    43.076137   -8903.7003    11235.197 
  122600    229.39448   -8865.1155    34.189069   -8899.3046    7255.6035 
  122800    338.98319   -8853.9678    50.522225   -8904.4901   -10873.239 
  123000    216.31045   -8869.7539    32.239018   -8901.9929   -41635.991 
  123200    295.98734   -8861.3864    44.114102   -8905.5005      18817.6 
  123400    316.38071   -8860.4505     47.15354   -8907.6041   -4995.4595 
  123600    333.39095   -8854.0974    49.688755   -8903.7862   -29393.611 
  123800    307.16336   -8858.6006    45.779782   -8904.3804    21153.755 
  124000    288.10465   -8861.4308    42.939262   -8904.3701   -22505.053 
  124200    275.71518   -8854.4947    41.092729   -8895.5875    17359.968 
  124400     306.7256   -8853.5737    45.714537   -8899.2883    8586.4326 
  124600    339.23234   -8854.7712    50.559358   -8905.3306    12460.893 
  124800    296.26986   -8865.1237    44.156209   -8909.2799    2970.1527 
  125000    279.24054   -8857.4805     41.61815   -8899.0986   -22730.623 
  125200     290.0325   -8858.0106     43.22659   -8901.2372    -7842.372 
  125400    318.48074   -8860.4777     47.46653   -8907.9442     11401.68 
  125600    346.58982   -8845.0015     51.65592   -8896.6575   -4508.6828 
  125800    333.67846   -8853.7506    49.731605   -8903.4822   -696.36884 
  126000    283.11484   -8866.5417    42.195578   -8908.7373   -12353.992 
  126200    323.58317   -8850.6064    48.226998   -8898.8333    26267.902 
  126400    287.33661   -8856.1482    42.824793    -8898.973   -1093.2924 
  126600    272.67292   -8863.3146    40.639308   -8903.9539   -1292.3859 
  126800    361.66489   -8844.0611    53.902716   -8897.9638    2609.3542 
  127000    308.22109   -8854.3072    45.937426   -8900.2446      8260.83 
  127200    302.76675   -8862.9399    45.124508   -8908.0644    12432.785 
  127400    275.05738   -8866.1998     40.99469   -8907.1945    8648.1235 
  127600    341.85382   -8848.5582    50.950066   -8899.5083    28392.027 
  127800     296.0556   -8858.1859    44.124275   -8902.3102    16395.739 
  128000    292.89841   -8860.5285    43.653726   -8904.1822    30625.897 
  128200     269.0538   -8855.5887    40.099913   -8895.6886     35873.07 
  128400    297.27807   -8843.5785    44.306473   -8887.8849    -106.7573 
  128600    288.71566   -8860.9327    43.030327    -8903.963    16063.412 
  128800    332.81661   -8852.6787    49.603155   -8902.2819   -23239.269 
  129000    386.47776   -8834.7551    57.600839   -8892.3559   -31705.893 
  129200     314.4528   -8855.9178    46.866203    -8902.784    23795.888 
  129400    300.35448   -8854.1445    44.764982   -8898.9094    14786.725 
  129600    340.01782   -8845.1089    50.676427   -8895.7854   -43064.369 
  129800    268.71941   -8843.6428    40.050076   -8883.6928    274.33274 
  130000    256.68323   -8861.0863    38.256197   -8899.3424   -8807.5109 
  130200    309.26119   -8852.7805    46.092442   -8898.8729   -4254.8449 
  130400    360.04722   -8836.9044    53.661618   -8890.5661   -2835.1205 
  130600    254.01917   -8858.1488    37.859144   -8896.0079    20174.527 
  130800    316.90281   -8852.9816    47.231354   -8900.2129   -30161.453 
  131000    320.26137   -8852.9936    47.731915   -8900.7255   -15230.563 
  131200    328.98644   -8852.0502    49.032304   -8901.0825    1560.6747 
  131400     256.4275   -8859.4093    38.218083   -8897.6273    5461.6157 
  131600    285.53355   -8854.6216    42.556063   -8897.1776   -6862.2692 
  131800    292.75243   -8855.0879    43.631969   -8898.7199    11551.023 
  132000    312.43901   -8858.7835    46.566067   -8905.3495    3260.0981 
  132200    271.49398   -8869.4239    40.463599   -8909.8875    251.94579 
  132400    304.02391   -8858.2893    45.311876   -8903.6012   -7856.5545 
  132600    301.81394   -8850.4045    44.982502    -8895.387    38317.624 
  132800    283.27809   -8863.9157    42.219909   -8906.1356    31025.225 
  133000    301.88279   -8862.4998    44.992762   -8907.4925    50844.172 
  133200    344.87279   -8847.9991    51.400014   -8899.3991    6578.4907 
  133400    289.30006    -8859.097    43.117427   -8902.2145    25790.702 
  133600    245.31084   -8866.1822    36.561251   -8902.7435    6560.6938 
  133800    269.23956   -8853.7468    40.127599   -8893.8744   -23917.713 
  134000    272.20254    -8855.975    40.569203   -8896.5442    11142.838 
  134200    293.10262   -8868.8169    43.684161   -8912.5011   -20147.828 
  134400    296.10802   -8855.8564    44.132089   -8899.9885    -2480.212 
  134600    384.54334   -8834.8386    57.312532   -8892.1511    18687.823 
  134800    346.37757   -8855.2825    51.624288   -8906.9068    9556.2861 
  135000    265.62115    -8862.214    39.588309   -8901.8023   -19949.934 
  135200    290.15638    -8854.024    43.245053   -8897.2691   -15360.566 
  135400    253.47507   -8867.5584    37.778051   -8905.3365    22678.642 
  135600    276.91273   -8873.3223    41.271212   -8914.5935    12922.371 
  135800    311.36694    -8853.166    46.406285   -8899.5723   -14387.918 
  136000    309.41504   -8861.4602    46.115374   -8907.5756   -10872.477 
  136200    326.37723   -8858.4581    48.643426   -8907.1015    33724.184 
  136400    343.54508   -8851.7478    51.202132   -8902.9499   -6771.0213 
  136600    298.07019   -8859.7769    44.424531   -8904.2014    12753.231 
  136800    298.37476   -8860.9223    44.469924   -8905.3923   -10005.214 
  137000    288.13972   -8859.3252    42.944488   -8902.2697    6902.0115 
  137200    356.95754   -8846.8204    53.201131   -8900.0215   -43937.445 
  137400    297.57048   -8865.2323    44.350054   -8909.5824   -3029.4844 
  137600    253.69382   -8862.1648    37.810655   -8899.9754    22135.274 
  137800    305.89489   -8850.8278    45.590729   -8896.4185   -656.09866 
  138000    282.37088   -8859.7006    42.084698   -8901.7853   -2332.3337 
  138200     244.5441   -8870.4071    36.446976   -8906.8541   -16546.954 
  138400    273.04075   -8854.2741     40.69413   -8894.9682   -30948.083 
  138600    265.80859   -8854.4236    39.616246   -8894.0398    9913.7417 
  138800    270.61965   -8869.2917    40.333289   -8909.6249   -14802.379 
  139000    299.02305   -8853.5003    44.566546   -8898.0668   -18525.632 
  139200    339.70642   -8849.8045    50.630015   -8900.4345     55777.76 
  139400    286.68544   -8863.9752    42.727743   -8906.7029   -15277.689 
  139600    258.78525   -8870.3009    38.569484   -8908.8704    7245.1618 
  139800    316.69329   -8850.3363    47.200128   -8897.5364   -1940.2247 
  140000    333.29493   -8854.1872    49.674444   -8903.8616    64900.585 
  140200    252.78937   -8865.5235    37.675854   -8903.1994   -10837.135 
  140400    262.94788   -8854.2868    39.189884   -8893.4767   -26417.728 
  140600    321.43717    -8854.267    47.907158   -8902.1742    24980.658 
  140800    253.94503   -8870.3489    37.848095    -8908.197     16980.21 
  141000    280.69466   -8858.6751    41.834873     -8900.51   -29878.595 
  141200    320.03096   -8852.5226    47.697575   -8900.2202   -3418.1958 
  141400    262.59902   -8872.3969     39.13789   -8911.5348   -37264.354 
  141600    264.57508     -8870.76    39.432403   -8910.1924   -1562.0211 
  141800    346.63916   -8854.8944    51.663275   -8906.5577    4645.8682 
  142000     375.8994   -8850.2553    56.024235   -8906.2795    7040.8559 
  142200     271.3345   -8866.9249     40.43983   -8907.3647    -28729.19 
  142400    335.81731   -8855.0603     50.05038   -8905.1107   -2743.1094 
  142600    294.01275   -8851.8252    43.819808    -8895.645   -8527.2327 
  142800    240.83623   -8863.0756    35.894352     -8898.97    32202.404 
  143000    327.10867   -8852.7622     48.75244   -8901.5146   -19837.289 
  143200    306.95285   -8854.3451    45.748407   -8900.0935    16458.163 
  143400    317.52473   -8858.3009    47.324045   -8905.6249   -16759.282 
  143600    281.36829   -8865.2888    41.935271   -8907.2241    34579.354 
  143800    361.85744   -8854.3534    53.931414   -8908.2848    11900.935 
  144000    323.17031   -8853.5891    48.165465   -8901.7546   -33739.202 
  144200      275.383   -8857.4725     41.04322   -8898.5157   -11321.344 
  144400    296.17968   -8853.1502    44.142769    -8897.293   -36654.748 
  144600     305.3159    -8857.765    45.504435   -8903.2695   -6786.6634 
  144800    263.45274   -8866.0214    39.265129   -8905.2865    -3244.959 
  145000    298.46566   -8846.4643    44.483471   -8890.9477    10755.873 
  145200    273.25776   -8858.1504    40.726474   -8898.8769   -10988.529 
  145400    317.72353   -8857.6138    47.353674   -8904.9675   -1731.2608 
  145600    342.75786    -8835.723    51.084804   -8886.8078      3745.03 
  145800    285.58737   -8856.6226    42.564086   -8899.1867   -32116.318 
  146000     297.7482   -8863.3322    44.376541   -8907.7087   -8077.8756 
  146200    352.22848   -8848.5136    52.496309     -8901.01   -332.58666 
  146400    316.24904   -8861.5193    47.133915   -8908.6532   -1350.1964 
  146600    278.23119   -8860.5022    41.467717   -8901.9699    33262.522 
  146800    215.47318   -8870.6905    32.114231   -8902.8048   -13543.003 
  147000    282.76484   -8857.9033    42.143414   -8900.0467   -5450.8981 
  147200    301.51076   -8853.3727    44.937315     -8898.31   -11512.732 
  147400    279.53672   -8863.7857    41.662293    -8905.448   -23510.989 
  147600    303.08721   -8848.3174    45.172269   -8893.4897    -32186.09 
  147800    295.07302   -8858.3826    43.977831   -8902.3604   -32844.961 
  148000    253.22472   -8863.7385    37.740739   -8901.4793    5307.6641 
  148200    353.97036   -8852.0093     52.75592   -8904.7652   -33032.084 
  148400    243.25718   -8861.3938    36.255172    -8897.649    38564.694 
  148600    219.32338   -8875.1306    32.688066   -8907.8187    10530.371 
  148800    270.84087   -8860.1464    40.366259   -8900.5127    8888.0903 
  149000    311.04883   -8853.8212    46.358873   -8900.1801     -13570.3 
  149200    410.03518   -8840.5564    61.111849   -8901.6683    36366.308 
  149400    293.28797   -8859.1921    43.711786   -8902.9039    15170.505 
  149600    297.23838   -8854.3038    44.300557   -8898.6043    23548.331 
  149800    336.87414   -8838.9791    50.207891    -8889.187    11939.062 
  150000    285.55047   -8858.1729    42.558586   -8900.7315   -39585.929 
  150200    254.92783    -8862.687    37.994572   -8900.6816   -28565.116 
  150400    320.50416   -8845.1103    47.768102   -8892.8784    11261.875 
  150600     302.6575   -8856.1759    45.108226   -8901.2841    5145.5638 
  150800    271.55051   -8858.2776    40.472024   -8898.7497    -44.75605 
  151000    264.21374   -8860.4178    39.378548   -8899.7963    19136.544 
  151200    281.30205   -8857.5961    41.925399   -8899.5215    14892.681 
  151400      274.872   -8861.1442    40.967061   -8902.1113    21049.093 
  151600    245.42404   -8868.1966    36.578122   -8904.7747   -36168.363 
  151800    330.20565   -8849.7382    49.214016   -8898.9522   -12254.257 
  152000     338.1141   -8853.1908    50.392696   -8903.5835   -10610.908 
  152200    229.12391   -8869.8453    34.148743    -8903.994    33364.003 
  152400    255.29432   -8860.1622    38.049194   -8898.2114    22176.231 
  152600    329.21844   -8854.9657    49.066882   -8904.0326    30614.831 
  152800    239.48889   -8870.2282    35.693544   -8905.9218    8183.3639 
  153000    326.87062   -8856.5913    48.716961   -8905.3082   -23894.334 
  153200    333.74356   -8851.7053    49.741308   -8901.4467     31412.29 
  153400    232.54658   -8863.0738    34.658859   -8897.7326   -2445.6416 
  153600    264.35974   -8867.3367    39.400309    -8906.737   -3714.2616 
  153800    296.89594   -8852.7158    44.249519   -8896.9654   -21433.393 
  154000    292.13363   -8858.3168    43.539742   -8901.8565   -9864.0488 
  154200    259.66693   -8870.0933    38.700889   -8908.7942    12596.003 
  154400    276.62005   -8857.0513    41.227591   -8898.2789    11505.043 
  154600    354.53843   -8854.5094    52.840586     -8907.35    1103.3422 
  154800    236.82935   -8865.4878    35.297165    -8900.785    828.68463 
  155000    327.23588   -8846.5103    48.771401   -8895.2817   -18974.158 
  155200    309.05509   -8857.2146    46.061726   -8903.2763   -28350.347 
  155400    238.92844   -8878.3918    35.610014   -8914.0018    10965.896 
  155600    230.40769   -8873.4453    34.340077   -8907.7854    26463.324 
  155800    298.18242   -8855.5148    44.441258   -8899.9561    6316.9882 
  156000     292.0519   -8850.5463    43.527562   -8894.0739   -23378.791 
  156200    272.94113   -8867.6516    40.679283   -8908.3309   -28666.687 
  156400    265.02345   -8862.1647    39.499229   -8901.6639    7687.9883 
  156600    325.05287    -8856.078    48.446042   -8904.5241    27877.303 
  156800    256.15503   -8860.2026    38.177475     -8898.38   -4992.0496 
  157000    263.60043   -8867.1351    39.287141   -8906.4223   -11844.857 
  157200     368.9038   -8850.2408    54.981607   -8905.2224   -9364.1081 
  157400     273.7492   -8858.0966    40.799718   -8898.8963   -18322.445 
  157600    307.37294   -8864.4562    45.811018   -8910.2673     13241.31 
  157800    344.41941   -8850.4197    51.332442   -8901.7522   -2896.4986 
  158000    323.39474   -8854.9658    48.198915   -8903.1647    -18697.82 
  158200    277.30831   -8865.0984     41.33017   -8906.4286    23717.493 
  158400     274.6192   -8863.6369    40.929384   -8904.5663   -21455.035 
  158600    319.89198   -8847.8519    47.676862   -8895.5288   -54560.547 
  158800     257.5356     -8861.82    38.383235   -8900.2032    23167.156 
  159000    283.30843   -8862.2308     42.22443   -8904.4552    16640.969 
  159200    272.11362   -8855.8761    40.555951    -8896.432   -6453.5746 
  159400    298.40599   -8853.6387    44.474579   -8898.1133    39472.953 
  159600     322.8171   -8861.4861    48.112823   -8909.5989    5057.7778 
  159800    258.87631   -8864.5291    38.583055   -8903.1121   -20377.956 
  160000    317.33423   -8858.1236    47.295653   -8905.4193   -3779.1564 
  160200    297.93858   -8856.4562    44.404916   -8900.8611    1552.2464 
  160400     342.6427   -8842.3036    51.067641   -8893.3713    24499.831 
  160600    301.21974   -8860.8433    44.893942   -8905.7372    5073.8197 
  160800    330.60924   -8850.9366    49.274167   -8900.2108    15123.798 
  161000    254.67461   -8855.1375    37.956832   -8893.0943    21507.009 
  161200    327.99347    -8864.925    48.884312   -8913.8093    10229.179 
  161400    355.82911   -8846.3222     53.03295   -8899.3551    6175.7626 
  161600      301.263   -8852.1639    44.900389   -8897.0643    22367.907 
  161800    305.81691   -8859.6347    45.579105   -8905.2138    27588.996 
  162000    291.58314   -8847.8329    43.457697   -8891.2906    48866.832 
  162200    297.43059   -8847.9363    44.329204   -8892.2655   -24896.247 
  162400    290.39365   -8858.9505    43.280416   -8902.2309   -7307.7708 
  162600     338.6645   -8849.8965    50.474727   -8900.3712   -9452.4185 
  162800    325.63098   -8855.0036    48.532205   -8903.5358   -14919.049 
  163000    289.12325   -8859.5102    43.091075   -8902.6013   -32007.251 
  163200    270.06171   -8859.6108    40.250132   -8899.8609    6805.2984 
  163400    295.41347   -8844.9805    44.028572   -8889.0091   -14213.492 
  163600     254.4672     -8855.24    37.925919   -8893.1659    2185.0549 
  163800    276.99701   -8862.3573    41.283774    -8903.641   -7660.0214 
  164000    344.09277   -8844.4048    51.283759   -8895.6886   -33111.346 
  164200    283.21612    -8854.968    42.210672   -8897.1786    -24493.87 
  164400    291.34013   -8861.5608     43.42148   -8904.9822    31437.927 
  164600    286.70194   -8843.9002    42.730201   -8886.6304    51792.483 
  164800    336.10391   -8849.0782    50.093095   -8899.1713    7976.0537 
  165000    311.36052    -8859.914    46.405329   -8906.3193   -2921.3557 
  165200    305.05639   -8854.5545    45.465758   -8900.0202   -25111.557 
  165400    373.65788   -8846.6791    55.690158   -8902.3693   -7657.0194 
  165600    314.56966   -8860.3504     46.88362    -8907.234   -19172.124 
  165800      361.113   -8851.8218    53.820463   -8905.6423   -6072.4948 
  166000    363.12393   -8841.7761    54.120172   -8895.8962   -15672.553 
  166200    318.95726   -8859.5184     47.53755    -8907.056   -2371.3833 
  166400    345.72638   -8851.9236    51.527234   -8903.4508    35260.057 
  166600    390.17557   -8838.2366    58.151963   -8896.3886   -41511.585 
  166800    292.46554   -8860.0496    43.589211   -8903.6388   -12027.421 
  167000     311.3992   -8858.2686    46.411093   -8904.6797    25611.282 
  167200    308.95193    -8844.862    46.046351   -8890.9083    17246.535 
  167400    264.46396   -8856.9977    39.415841   -8896.4135    9737.9611 
  167600    334.93811   -8866.7676    49.919344   -8916.6869   -5561.2355 
  167800    291.23865   -8860.2678    43.406355   -8903.6741   -4577.4433 
  168000    325.58264   -8851.6905       48.525   -8900.2155   -13416.855 
  168200    291.77893   -8864.9583    43.486878   -8908.4452    13795.076 
  168400    340.81369   -8852.9139    50.795044   -8903.7089   -23328.162 
  168600    307.76932   -8854.3863    45.870093   -8900.2564   -10208.704 
  168800    342.31393   -8853.3142     51.01864   -8904.3328    17226.578 
  169000    249.44483   -8870.9317    37.177383   -8908.1091   -17897.757 
  169200    325.50044   -8858.9534    48.512749   -8907.4661    31518.481 
  169400    306.80451   -8854.8723    45.726298   -8900.5986    28695.092 
  169600    328.08211    -8847.297    48.897523   -8896.1945   -26344.764 
  169800    262.49404   -8861.1256    39.122243   -8900.2478   -8358.4432 
  170000     330.1918   -8853.7131    49.211952    -8902.925   -10970.144 
  170200    337.64927   -8841.7143    50.323417   -8892.0377    3309.2667 
  170400    302.52462   -8860.4743    45.088422   -8905.5627   -11984.857 
  170600    309.57726   -8862.3864     46.13955    -8908.526    24159.266 
  170800    357.54101   -8843.7945    53.288091   -8897.0826    36442.483 
  171000    296.02791   -8855.7135    44.120148   -8899.8337    54718.437 
  171200    251.79389   -8860.3698    37.527488   -8897.8973    24557.374 
  171400    279.26256   -8851.5248    41.621433   -8893.1463    -5228.886 
  171600    357.32272   -8843.4435    53.255558   -8896.6991   -2842.0829 
  171800    236.78157   -8864.3459    35.290044    -8899.636   -11733.812 
  172000    385.93754   -8849.8299    57.520324   -8907.3502   -592.60476 
  172200    263.20025   -8857.9445    39.227497    -8897.172   -25225.167 
  172400    313.13452   -8852.9872    46.669726   -8899.6569   -44184.562 
  172600    234.11374   -8866.3914    34.892429   -8901.2839    -9494.112 
  172800    323.77926   -8851.7183    48.256224   -8899.9746     32529.71 
  173000    318.65368   -8849.4707    47.492305    -8896.963    50251.525 
  173200    282.57693   -8866.2237    42.115407   -8908.3391    12906.268 
  173400    309.95841   -8857.1147    46.196357    -8903.311   -8465.2485 
  173600    308.58574    -8859.294    45.991773   -8905.2857   -3430.5469 
  173800    315.89981   -8856.4632    47.081866   -8903.5451    10347.371 
  174000    325.17251   -8855.4576    48.463875   -8903.9214   -6623.8861 
  174200    281.53367   -8867.1204     41.95992   -8909.0803    9567.1801 
  174400    344.74341   -8858.7161    51.380731   -8910.0968    14762.643 
  174600    325.26025    -8857.791    48.476951   -8906.2679   -3579.0378 
  174800    334.07314   -8860.3443    49.790428   -8910.1347    43970.708 
  175000    325.83849   -8847.3849    48.563133   -8895.9481   -36262.436 
  175200    312.47744   -8862.0886    46.571795   -8908.6604   -30650.488 
  175400    304.28578   -8863.1119    45.350905   -8908.4628    26122.834 
  175600    336.94743    -8854.074    50.218815   -8904.2928   -20194.509 
  175800    339.45749   -8855.7757    50.592914   -8906.3686   -43470.746 
  176000    270.40718   -8859.5268    40.301622   -8899.8285   -26394.964 
  176200    254.74324   -8865.6359    37.967061    -8903.603    13222.164 
  176400    350.70963   -8847.2411     52.26994    -8899.511    -8813.412 
  176600    318.62117   -8858.9085    47.487459   -8906.3959   -38322.282 
  176800     260.7837   -8867.5326    38.867334      -8906.4    4798.4639 
  177000    305.23296   -8855.4524    45.492074   -8900.9445   -13768.749 
  177200    250.27187   -8860.8477    37.300645   -8898.1484    12266.131 
  177400    300.15924   -8856.5225    44.735884   -8901.2583   -16732.612 
  177600    264.82045   -8874.8943    39.468973   -8914.3633    24819.739 
  177800    304.74208   -8861.5719    45.418912   -8906.9908    12632.112 
  178000     303.0655   -8857.5341    45.169035   -8902.7032   -23911.151 
  178200    287.05324   -8865.0074    42.782559   -8907.7899   -7833.1033 
  178400    282.09059    -8868.073    42.042924   -8910.1159    -11499.27 
  178600     276.7505   -8855.1556    41.247034   -8896.4027   -41689.347 
  178800    271.84922   -8868.8637    40.516545   -8909.3803   -51795.193 
  179000    260.26944    -8865.755    38.790688   -8904.5457   -9323.0937 
  179200     283.7284   -8858.4884    42.287023   -8900.7755   -17334.825 
  179400     280.7576    -8849.004    41.844253   -8890.8482   -7528.8499 
[...]
  950000    311.36779   -8886.0343    46.406413   -8932.4407    -24653.13 
  950200    262.18293    -8901.116    39.075876   -8940.1919    30649.551 
  950400    344.38455   -8887.2903    51.327246   -8938.6176    49657.775 
  950600    300.78808   -8885.2717    44.829607   -8930.1013   -3307.8783 
  950800    294.35274   -8900.8004     43.87048   -8944.6709     3671.019 
  951000    324.44515    -8892.057    48.355468   -8940.4125   -2339.2058 
  951200    251.39614   -8899.4988    37.468207    -8936.967    1252.3913 
  951400    276.63047   -8901.7809    41.229144     -8943.01    24308.027 
  951600    332.04554   -8891.5777    49.488234   -8941.0659   -13885.775 
  951800    328.06481   -8888.4235    48.894944   -8937.3184   -17136.824 
  952000    240.59116    -8898.461    35.857828   -8934.3189    46159.624 
  952200      327.814   -8892.6594    48.857563   -8941.5169    45077.325 
  952400     325.6559     -8875.78    48.535919   -8924.3159   -19322.826 
  952600    283.96013   -8897.0695     42.32156   -8939.3911     21689.31 
  952800     319.0725   -8895.2747    47.554726   -8942.8295    17232.252 
  953000     329.0603   -8886.0273    49.043313   -8935.0706    6775.6377 
  953200    277.85114   -8901.6114    41.411073   -8943.0225    1122.5087 
  953400    273.26608   -8898.0225    40.727715   -8938.7502    -12589.47 
  953600    315.70666   -8888.5889    47.053079    -8935.642    25054.253 
  953800    276.38783   -8901.4324    41.192981   -8942.6254    336.41448 
  954000    299.32904   -8893.2051    44.612151   -8937.8173   -535.31756 
  954200    312.31143   -8889.4438    46.547052   -8935.9908   -4524.1304 
  954400     307.6894   -8896.8865    45.858183   -8942.7447    11656.563 
  954600    347.37988   -8891.5936    51.773672   -8943.3673    9856.5982 
  954800    316.68138   -8886.5535    47.198351   -8933.7518   -13727.711 
  955000    261.63681   -8893.8658    38.994481   -8932.8603   -9413.8399 
  955200    272.02802   -8902.4524    40.543193   -8942.9956   -37558.175 
  955400    321.61204   -8883.8099     47.93322   -8931.7431    36299.838 
  955600    311.58716   -8893.9789    46.439107    -8940.418   -14472.167 
  955800    295.95452   -8899.2365    44.109211   -8943.3458    902.33682 
  956000    297.41626   -8882.3829    44.327069     -8926.71    18835.599 
  956200    351.90385   -8889.0724    52.447927   -8941.5203   -5850.5716 
  956400    304.97211    -8897.756    45.453196   -8943.2092     7059.128 
  956600    221.76076   -8896.6587    33.051334     -8929.71    11690.299 
  956800     337.0691   -8884.3425    50.236948   -8934.5794    -49741.97 
  957000    280.49032   -8898.1684    41.804418   -8939.9729   -31171.633 
  957200     317.1633   -8892.8729    47.270177   -8940.1431   -12748.865 
  957400    312.84007   -8890.1389    46.625841   -8936.7647   -1916.4298 
  957600    277.12879   -8904.9993    41.303414   -8946.3027    7950.0359 
  957800    265.34051   -8890.9165    39.546483   -8930.4629    32312.903 
  958000    363.35404   -8884.3587    54.154468   -8938.5131    7962.2133 
  958200    263.19741   -8896.5803    39.227074   -8935.8074     7200.714 
  958400    246.02873   -8908.5493    36.668245   -8945.2175     13856.35 
  958600    304.42533   -8889.7178    45.371705   -8935.0896   -20257.114 
  958800    339.64987   -8884.1034    50.621587    -8934.725   -16513.355 
  959000    263.62941    -8900.252     39.29146   -8939.5435    17260.783 
  959200     347.6686   -8882.4157    51.816704   -8934.2324   -7804.9781 
  959400    263.99262   -8882.3725    39.345593   -8921.7181    22997.007 
  959600    287.95639   -8896.1056    42.917165   -8939.0227    20758.317 
  959800    287.37627   -8884.7985    42.830704   -8927.6293    14848.973 
  960000    285.41003   -8889.8338    42.537654   -8932.3715   -58434.245 
  960200    199.20618   -8915.1683     29.68979   -8944.8581    16043.397 
  960400    292.96026   -8898.5181    43.662944    -8942.181    -2850.917 
  960600    297.63109   -8884.6438    44.359087   -8929.0029    7187.9473 
  960800    301.48665   -8890.8282    44.933721   -8935.7619    -1708.628 
  961000    236.41206   -8901.7843    35.234972   -8937.0193   -11401.624 
  961200     320.3209   -8890.5132    47.740789    -8938.254    11980.748 
  961400      298.957   -8889.0394    44.556702   -8933.5961   -1275.5078 
  961600     355.3603    -8876.266    52.963077    -8929.229   -95.643116 
  961800    284.45936    -8890.096    42.395966    -8932.492   -33725.755 
  962000    315.25855   -8891.9065    46.986293   -8938.8928   -4839.8491 
  962200    243.64726   -8901.1199     36.31331   -8937.4332     20177.76 
  962400    342.56138   -8888.8199     51.05552   -8939.8754   -13073.713 
  962600    330.23158   -8894.1035     49.21788   -8943.3213    21583.181 
  962800     342.4464   -8877.1442    51.038384   -8928.1826   -19648.273 
  963000    248.82989   -8897.3101    37.085731   -8934.3959   -12930.836 
  963200    293.36883   -8892.8034    43.723837   -8936.5272    27967.671 
  963400    321.70271   -8882.6217    47.946733   -8930.5685   -6921.7153 
  963600    357.68358   -8879.5178     53.30934   -8932.8272    20881.106 
  963800    271.10381   -8896.9844    40.405448   -8937.3898   -11556.978 
  964000    331.68057   -8894.1385     49.43384   -8943.5724   -36853.248 
  964200    319.39144    -8880.563    47.602261   -8928.1653   -17072.778 
  964400    299.14664    -8895.205    44.584966     -8939.79   -18256.419 
  964600    300.77977   -8891.9826    44.828368    -8936.811    32429.976 
  964800    305.62726    -8889.141    45.550841   -8934.6918    9784.0991 
  965000     354.8546   -8876.9384    52.887707   -8929.8261    18219.365 
  965200    262.65014   -8894.1231    39.145508   -8933.2686    35111.507 
  965400    285.98848   -8886.2394    42.623866   -8928.8632    31412.224 
  965600    400.09005   -8866.0632    59.629621   -8925.6928   -13927.218 
  965800    282.12616   -8891.4383    42.048224   -8933.4866    41002.208 
  966000    298.44857   -8894.0652    44.480925   -8938.5462   -24709.427 
  966200    328.84824   -8877.1283    49.011707   -8926.1401     32079.59 
  966400    270.36164   -8889.8306    40.294835   -8930.1254   -13150.925 
  966600    322.19517   -8890.6686     48.02013   -8938.6887   -1713.5596 
  966800    275.32785   -8904.0237    41.035001   -8945.0587    25978.901 
  967000    249.39673   -8886.1367    37.170214   -8923.3069   -6425.6828 
  967200    345.55008   -8888.9222    51.500958   -8940.4232   -107.93322 
  967400    280.08658   -8899.7257    41.744245   -8941.4699    1033.4725 
  967600    294.43858   -8888.6624    43.883274   -8932.5457   -3816.1525 
  967800    347.05697   -8884.0572    51.725545   -8935.7827    8958.7373 
  968000    342.40581   -8888.2678    51.032334   -8939.3001   -4138.3258 
  968200     309.4118   -8891.8073     46.11489   -8937.9222    490.82772 
  968400    314.59897   -8888.1333    46.887988   -8935.0213    7775.0765 
  968600    358.00278   -8880.3223    53.356914   -8933.6792    16522.767 
  968800     305.2542   -8894.7118    45.495239    -8940.207    31068.475 
  969000    288.88075    -8893.479    43.054932   -8936.5339   -8441.2594 
  969200     264.7478   -8879.5072    39.458145   -8918.9653    8625.1977 
  969400    377.10105   -8874.7435     56.20333   -8930.9469   -12657.584 
  969600    322.44583   -8889.9636    48.057489    -8938.021   -29889.914 
  969800    251.71731   -8898.5046    37.516075   -8936.0207   -5564.0943 
  970000    298.39957   -8881.5082    44.473622   -8925.9818    50229.187 
  970200    275.82699   -8889.6377    41.109393   -8930.7471   -10039.513 
  970400    279.66109   -8896.7915    41.680829   -8938.4724    15439.673 
  970600    317.29451    -8874.562    47.289733   -8921.8517     9609.508 
  970800    261.53825   -8894.8515    38.979792   -8933.8313   -50684.966 
  971000     345.3418   -8889.1197    51.469915   -8940.5896    75312.406 
  971200    310.59684   -8877.6898    46.291509   -8923.9813   -24684.194 
  971400    286.05694   -8893.8442     42.63407   -8936.4783   -16146.133 
  971600    306.95824   -8895.3943     45.74921   -8941.1435    7851.9504 
  971800    351.68454   -8877.7212     52.41524   -8930.1365    3995.1441 
  972000    322.65583   -8885.4853    48.088788   -8933.5741    3206.3039 
  972200    332.13339   -8895.9827    49.501327   -8945.4841    820.75626 
  972400    344.53873   -8891.0553    51.350226   -8942.4055   -17783.421 
  972600    303.75116   -8880.9047    45.271226   -8926.1759    -22205.28 
  972800    261.35435   -8897.3973    38.952383   -8936.3497    -11659.91 
  973000    276.67263   -8893.0165    41.235428   -8934.2519   -4327.1225 
  973200    321.73217    -8882.172    47.951124   -8930.1231    11410.211 
  973400    349.61941   -8888.6302    52.107452   -8940.7376    19073.465 
  973600    336.31549   -8890.7762    50.124629   -8940.9009   -26601.975 
  973800    246.93111   -8899.1349    36.802737   -8935.9376   -9759.1643 
  974000    270.28546   -8887.5994    40.283481   -8927.8828   -19829.995 
  974200    353.43492   -8884.5273    52.676118   -8937.2034   -3289.3642 
  974400    257.57772    -8894.463    38.389513   -8932.8525    26702.328 
  974600    265.77281   -8891.2727    39.610914   -8930.8837   -7725.8507 
  974800    314.10846   -8888.5111    46.814883    -8935.326    21098.638 
  975000    350.72896   -8883.7897     52.27282   -8936.0625    28050.269 
  975200    313.55435   -8900.1397    46.732298    -8946.872   -28293.462 
  975400    310.83159   -8889.1174    46.326496   -8935.4439   -10542.961 
  975600    319.16358   -8887.6379      47.5683   -8935.2062   -25655.895 
  975800    254.58249   -8899.6683    37.943102   -8937.6114    21361.094 
  976000    280.36141   -8890.9399    41.785206   -8932.7251    5733.2606 
  976200    363.73107   -8882.5521    54.210661   -8936.7628    16185.268 
  976400    240.03464    -8900.423    35.774883   -8936.1979   -34331.573 
  976600    253.99658   -8891.2187    37.855779   -8929.0745    2768.8129 
  976800    308.16382   -8884.3408    45.928891   -8930.2697   -33106.245 
  977000    271.13745   -8897.5348    40.410461   -8937.9453    21250.865 
  977200    305.47538   -8890.5311    45.528204   -8936.0593    26078.421 
  977400    304.45592   -8879.4487    45.376263   -8924.8249   -8209.9214 
  977600    308.23442   -8895.1659    45.939412   -8941.1053    38339.871 
  977800    316.04383    -8891.861    47.103332   -8938.9643   -47747.381 
  978000    350.66111   -8881.0252    52.262708   -8933.2879   -8323.8527 
  978200    286.84631   -8901.0684    42.751717   -8943.8201    23705.726 
  978400    302.95083   -8891.6192    45.151943   -8936.7711    24076.014 
  978600     331.9597   -8886.5964     49.47544   -8936.0718    44174.998 
  978800    323.79955   -8893.0061    48.259248   -8941.2653    31465.852 
  979000    251.82593   -8908.4282    37.532263   -8945.9605   -50172.984 
  979200    298.90211   -8891.8992     44.54852   -8936.4477     14401.78 
  979400    277.09839     -8886.29    41.298883   -8927.5889     18601.32 
  979600    355.62851     -8882.23    53.003052   -8935.2331   -19684.776 
  979800    304.21903   -8895.9348    45.340957   -8941.2758    -5966.569 
  980000    290.10223   -8893.1188    43.236981   -8936.3558    -9066.901 
  980200    313.44543   -8882.3434    46.716065   -8929.0594     11664.61 
  980400    216.65546   -8895.4774    32.290438   -8927.7678   -20106.855 
  980600    310.04229   -8887.1564    46.208858   -8933.3653    19916.969 
  980800     399.9215   -8868.6123    59.604502   -8928.2168   -39051.433 
  981000    314.79645   -8885.3852     46.91742   -8932.3027   -30097.389 
  981200    267.88735   -8897.5962    39.926065   -8937.5223    5920.3043 
  981400    298.36094   -8884.5631    44.467864   -8929.0309   -11234.041 
  981600     271.5591   -8883.0688    40.473305   -8923.5421    7450.0953 
  981800    265.27401   -8896.7645    39.536572   -8936.3011     2805.715 
  982000    273.76286   -8885.0365    40.801754   -8925.8383     -15446.1 
  982200    280.22534   -8891.5112    41.764925   -8933.2761    -14511.16 
  982400    306.46149   -8900.2056    45.675174   -8945.8807   -26365.037 
  982600    321.72369   -8882.8507     47.94986   -8930.8005    10700.566 
  982800    285.09318   -8889.5563    42.490431   -8932.0467   -11891.128 
  983000    290.68591   -8893.4057    43.323974   -8936.7297   -13185.457 
  983200    332.98915   -8884.1047    49.628871   -8933.7336    1477.1537 
  983400    305.14676   -8877.3111    45.479227   -8922.7903    12438.903 
  983600    304.61416   -8893.6918    45.399848   -8939.0916     9662.269 
  983800    378.38877    -8885.906    56.395253   -8942.3012    -2574.386 
  984000     348.1913   -8878.4508    51.894606   -8930.3455     19196.23 
  984200    309.75179   -8895.3563    46.165563   -8941.5219    -7277.231 
  984400    317.90471   -8893.5365    47.380677   -8940.9172    14205.472 
  984600    365.42929   -8874.7535    54.463765   -8929.2173   -21432.295 
  984800    327.20381     -8886.36     48.76662   -8935.1266   -16055.528 
  985000     287.6943   -8889.8869    42.878104    -8932.765   -9687.4538 
  985200    322.66547   -8895.5322    48.090224   -8943.6225    24308.793 
  985400    302.27292   -8893.0284    45.050908   -8938.0793   -23564.278 
  985600     290.3673   -8886.5274    43.276488   -8929.8039    29088.142 
  985800    250.17558   -8905.3929    37.286294   -8942.6792   -15642.332 
  986000     326.5596   -8884.2686    48.670607   -8932.9393   -15377.547 
  986200    315.74123   -8885.9025    47.058231   -8932.9607   -10825.278 
  986400    257.00213   -8900.8715    38.303727   -8939.1752   -23334.531 
  986600    305.85298   -8892.6492    45.584482   -8938.2337   -6837.8635 
  986800    294.47682   -8886.5403    43.888973   -8930.4293    7465.8724 
  987000    284.60339   -8888.2395    42.417432   -8930.6569    26979.738 
  987200     246.2718   -8896.6761    36.704472   -8933.3805    14027.553 
  987400    301.39257   -8888.8794      44.9197   -8933.7991   -19584.267 
  987600    253.64252   -8898.7397    37.803009   -8936.5427   -42046.571 
  987800    282.41167   -8903.1721    42.090777   -8945.2629    3357.1886 
  988000    334.41525   -8886.0109    49.841417   -8935.8523    28647.832 
  988200    276.17438   -8888.0681    41.161169   -8929.2293    23247.124 
  988400    212.01209   -8902.2055    31.598389   -8933.8039    13337.528 
  988600    303.32657   -8890.8946    45.207944   -8936.1025   -2652.4533 
  988800    320.60721   -8885.7417     47.78346   -8933.5251    6903.1682 
  989000    337.94553   -8875.1838    50.367572   -8925.5514     23297.86 
  989200    270.70713   -8895.1586    40.346326    -8935.505   -4145.3755 
  989400    361.07456   -8886.7125    53.814733   -8940.5273    -3100.838 
  989600    331.89767   -8881.3692    49.466196   -8930.8354   -7263.6568 
  989800     282.0311   -8897.6223    42.034057   -8939.6564    7808.1347 
  990000    350.91651   -8883.2497    52.300773   -8935.5505   -3366.8652 
  990200    240.45739   -8898.3998    35.837891   -8934.2377    13324.023 
  990400    262.77214   -8893.7081    39.163692   -8932.8718    11442.912 
  990600    319.43235   -8882.8675    47.608358   -8930.4759   -25191.699 
  990800    254.42399   -8901.2394    37.919479   -8939.1589    -31908.96 
  991000    329.56865   -8890.2451    49.119077   -8939.3642   -7755.0012 
  991200    324.15586   -8887.3221    48.312353   -8935.6345   -484.01674 
  991400    304.41265    -8889.578    45.369814   -8934.9479   -8655.1047 
  991600    292.80705   -8891.4298     43.64011   -8935.0699   -1174.3253 
  991800    292.46999   -8887.5751    43.589875    -8931.165    4470.8007 
  992000    270.39017   -8885.0951    40.299087   -8925.3942   -3526.1562 
  992200    268.14524   -8895.7611    39.964502   -8935.7256   -6096.1819 
  992400    238.90061   -8905.4447    35.605867   -8941.0506   -15552.926 
  992600    338.17292   -8884.0429    50.401462   -8934.4444   -14436.566 
  992800    289.54673   -8891.0901    43.154191   -8934.2443    33286.089 
  993000    285.42467   -8899.7248    42.539836   -8942.2646   -23100.046 
  993200    326.94386   -8882.8767    48.727877   -8931.6045    13858.747 
  993400    283.55535   -8878.5658    42.261232    -8920.827    12982.062 
  993600    273.13931   -8892.6575    40.708819   -8933.3663    13835.687 
  993800    261.40415   -8898.5606    38.959806   -8937.5204   -41505.846 
  994000    311.27942   -8882.3075    46.393241   -8928.7008    25988.697 
  994200    276.21438    -8893.863    41.167129   -8935.0302    10165.629 
  994400    262.76351    -8898.078    39.162406   -8937.2404    9559.0553 
  994600    289.86314   -8888.9733    43.201348   -8932.1746   -23058.285 
  994800    390.80041   -8880.3215     58.24509   -8938.5666    30190.767 
  995000    237.81904   -8900.0838    35.444669   -8935.5285   -40849.304 
  995200    324.92447   -8888.8847    48.426906   -8937.3116   -21112.856 
  995400    271.05299   -8889.3087    40.397874   -8929.7066   -27672.772 
  995600    291.73194   -8902.5925    43.479874   -8946.0724    15389.092 
  995800    309.57294   -8887.6665    46.138907   -8933.8055    -39082.31 
  996000    296.97781   -8887.3693    44.261722    -8931.631   -263.50868 
  996200    306.79121   -8892.8273    45.724315   -8938.5517   -6908.1665 
  996400    283.06958   -8899.3788    42.188832   -8941.5677   -4932.4548 
  996600    326.07515    -8882.282    48.598405   -8930.8804     29355.96 
  996800    308.24778   -8890.1819    45.941404   -8936.1233   -45923.533 
  997000    258.98673   -8901.9714    38.599512   -8940.5709   -26019.882 
  997200    293.49797   -8890.2323    43.743085   -8933.9754    3323.6447 
  997400    350.76678    -8883.087    52.278457   -8935.3655    23587.251 
  997600    331.13486   -8884.6689    49.352506   -8934.0214   -31475.622 
  997800    307.15166   -8896.6169    45.778037   -8942.3949   -8870.3122 
  998000    341.64169   -8879.5887    50.918449   -8930.5071    -19720.91 
  998200     308.9546   -8886.1678    46.046749   -8932.2145    3040.0591 
  998400    285.87615   -8892.8522    42.607125   -8935.4593     23119.38 
  998600    311.21888   -8889.3193    46.384218   -8935.7035    9222.2315 
  998800    283.11513    -8881.344    42.195622   -8923.5396   -26811.078 
  999000    316.61801   -8896.2299    47.188908   -8943.4188   -20499.356 
  999200    275.89889   -8887.6697     41.12011   -8928.7898     4580.209 
  999400    303.47774   -8895.8134    45.230475   -8941.0438    2616.7159 
  999600    265.69182   -8898.9546    39.598842   -8938.5534    3881.8133 
  999800    323.86316   -8884.7029    48.268728   -8932.9716   -918.39985 
 1000000    245.27675   -8896.4502     36.55617   -8933.0063   -7494.8775 
Loop time of 2537.21 on 8 procs for 1000000 steps with 51 atoms

Performance: 8.513 ns/day, 2.819 hours/ns, 394.134 timesteps/s
99.4% CPU use with 8 MPI tasks x no OpenMP threads

MPI task timing breakdown:
Section |  min time  |  avg time  |  max time  |%varavg| %total
---------------------------------------------------------------
Pair    | 2014.4     | 2033.6     | 2059.1     |  31.4 | 80.15
Neigh   | 2.5327     | 2.5683     | 2.6015     |   1.2 |  0.10
Comm    | 29.935     | 55.335     | 74.275     | 189.2 |  2.18
Output  | 0.076463   | 0.084707   | 0.13254    |   6.2 |  0.00
Modify  | 443.78     | 444.07     | 444.33     |   1.0 | 17.50
Other   |            | 1.584      |            |       |  0.06

Nlocal:    6.375 ave 8 max 6 min
Histogram: 6 0 0 0 0 1 0 0 0 1
Nghost:    597.25 ave 602 max 592 min
Histogram: 2 0 0 0 1 0 1 2 1 1
Neighs:    864.625 ave 1062 max 807 min
Histogram: 6 0 0 0 0 1 0 0 0 1

Total # of neighbors = 6917
Ave neighs/atom = 135.627
Neighbor list builds = 3755
Dangerous builds = 0

Please see the log.cite file for references relevant to this simulation

Total wall time: 0:42:26
