ITEM: TIMESTEP
0
ITEM: NUMBER OF ATOMS
49
ITEM: BOX BOUNDS pp pp pp
0.0000000000000000e+00 1.1000000000000000e+01
0.0000000000000000e+00 1.1002000000000001e+01
0.0000000000000000e+00 1.1000000000000000e+01
ITEM: ATOMS id type x y z 
10 1 4.603 4.603 4.603 
11 1 3.085 3.085 3.085 
12 1 3.796 3.796 3.796 
46 1 0.726 0.725 0.725 
47 1 2.26 2.259 2.26 
48 1 1.551 1.55 1.55 
19 1 4.546 4.545 6.226 
20 1 3.013 3.013 7.764 
21 1 3.721 3.721 7.053 
31 1 0.668 0.667 10.103 
32 1 2.187 2.187 8.589 
33 1 1.476 1.475 9.298 
16 1 4.546 6.225 4.546 
17 1 3.013 7.765 3.013 
18 1 3.721 7.053 3.722 
25 1 0.668 10.103 0.668 
26 1 2.188 8.589 2.188 
27 1 1.476 9.298 1.476 
4 1 4.608 6.169 6.169 
5 1 3.086 7.684 7.684 
6 1 3.799 6.974 6.974 
37 1 0.729 10.046 10.046 
38 1 2.259 8.509 8.508 
39 1 1.552 9.219 9.219 
13 1 6.225 4.546 4.546 
14 1 7.764 3.013 3.013 
15 1 7.053 3.721 3.722 
28 1 10.102 0.667 0.668 
29 1 8.589 2.187 2.188 
30 1 9.298 1.475 1.476 
49 2 8.114 2.577 3.954 
1 1 6.168 4.608 6.169 
2 1 7.684 3.086 7.684 
3 1 6.974 3.799 6.974 
40 1 10.045 0.728 10.046 
41 1 8.508 2.259 8.508 
42 1 9.218 1.551 9.218 
7 1 6.169 6.169 4.608 
8 1 7.684 7.684 3.086 
9 1 6.974 6.974 3.799 
43 1 10.046 10.047 0.729 
44 1 8.508 8.509 2.259 
45 1 9.219 9.219 1.552 
22 1 6.229 6.229 6.229 
23 1 7.764 7.765 7.765 
24 1 7.055 7.056 7.055 
34 1 10.108 10.108 10.107 
35 1 8.59 8.59 8.59 
36 1 9.301 9.301 9.3 
ITEM: TIMESTEP
10
ITEM: NUMBER OF ATOMS
49
ITEM: BOX BOUNDS pp pp pp
0.0000000000000000e+00 1.1000000000000000e+01
0.0000000000000000e+00 1.1002000000000001e+01
0.0000000000000000e+00 1.1000000000000000e+01
ITEM: ATOMS id type x y z 
10 1 4.56568 4.61183 4.6104 
11 1 3.08651 3.08121 3.08142 
12 1 3.7857 3.79863 3.79863 
46 1 0.733692 0.726034 0.725839 
47 1 2.26318 2.26096 2.2615 
48 1 1.54996 1.55139 1.55176 
19 1 4.55104 4.54002 6.22368 
20 1 3.01015 3.01073 7.76782 
21 1 3.71562 3.71447 7.05675 
31 1 0.667714 0.664557 10.1043 
32 1 2.18578 2.18636 8.5896 
33 1 1.47423 1.4723 9.30031 
16 1 4.54902 6.22382 4.54121 
17 1 3.00943 7.76935 3.01004 
18 1 3.71667 7.05518 3.71695 
25 1 0.667338 10.1052 0.665666 
26 1 2.18657 8.59183 2.18703 
27 1 1.47355 9.29784 1.47267 
4 1 4.60585 6.1734 6.17313 
5 1 3.08678 7.68476 7.68469 
6 1 3.79805 6.972 6.97206 
37 1 0.729299 10.0463 10.0459 
38 1 2.26088 8.50768 8.50676 
39 1 1.55219 9.21855 9.21861 
13 1 6.22691 4.53864 4.51975 
14 1 7.79641 2.99823 3.04898 
15 1 7.00315 3.77235 3.70302 
28 1 10.1121 0.657738 0.663293 
29 1 8.58429 2.18711 2.16223 
30 1 9.30071 1.46574 1.45863 
49 2 8.17757 2.51055 3.95903 
1 1 6.16075 4.61658 6.20594 
2 1 7.6878 3.08208 7.68235 
3 1 6.97137 3.80112 6.98513 
40 1 10.0435 0.729385 10.0388 
41 1 8.5078 2.25932 8.50792 
42 1 9.21635 1.55374 9.21546 
7 1 6.16037 6.20594 4.61689 
8 1 7.68876 7.68331 3.08164 
9 1 6.97126 6.98507 3.80085 
43 1 10.0448 10.0404 0.730949 
44 1 8.50677 8.50804 2.26064 
45 1 9.21877 9.21776 1.55248 
22 1 6.23343 6.22379 6.22511 
23 1 7.76676 7.76881 7.76894 
24 1 7.05825 7.05718 7.05596 
34 1 10.1097 10.1075 10.1079 
35 1 8.58961 8.59029 8.59134 
36 1 9.30393 9.30297 9.29999 
ITEM: TIMESTEP
20
ITEM: NUMBER OF ATOMS
49
ITEM: BOX BOUNDS pp pp pp
0.0000000000000000e+00 1.1000000000000000e+01
0.0000000000000000e+00 1.1002000000000001e+01
0.0000000000000000e+00 1.1000000000000000e+01
ITEM: ATOMS id type x y z 
10 1 4.56986 4.61279 4.61171 
11 1 3.08623 3.08091 3.08126 
12 1 3.78188 3.79999 3.79995 
46 1 0.737622 0.726652 0.726455 
47 1 2.26324 2.26121 2.26167 
48 1 1.55243 1.55195 1.5522 
19 1 4.55573 4.53467 6.22115 
20 1 3.00691 3.00931 7.76996 
21 1 3.71746 3.71245 7.05659 
31 1 0.66637 0.664307 10.1037 
32 1 2.18371 2.18357 8.59258 
33 1 1.47165 1.47113 9.30124 
16 1 4.55013 6.2226 4.53677 
17 1 3.007 7.7709 3.00937 
18 1 3.71608 7.05706 3.713 
25 1 0.667809 10.1038 0.66454 
26 1 2.18396 8.59299 2.18446 
27 1 1.47237 9.30165 1.47126 
4 1 4.60254 6.17313 6.17372 
5 1 3.08558 7.68423 7.68411 
6 1 3.79985 6.97298 6.97313 
37 1 0.730877 10.044 10.0436 
38 1 2.26164 8.50696 8.50645 
39 1 1.55385 9.21774 9.2172 
13 1 6.21262 4.54986 4.51278 
14 1 7.79262 3.00224 3.08894 
15 1 6.99449 3.78631 3.70786 
28 1 10.1181 0.649294 0.655605 
29 1 8.58176 2.18939 2.14391 
30 1 9.2989 1.46924 1.44905 
49 2 8.1934 2.4943 3.96685 
1 1 6.15733 4.61746 6.20312 
2 1 7.68812 3.08165 7.683 
3 1 6.96955 3.80269 6.9883 
40 1 10.0445 0.728271 10.0358 
41 1 8.50728 2.26028 8.50759 
42 1 9.21901 1.55115 9.21503 
7 1 6.15885 6.20205 4.61622 
8 1 7.68867 7.68383 3.08157 
9 1 6.97026 6.98901 3.80184 
43 1 10.0445 10.0364 0.731086 
44 1 8.50678 8.5076 2.26108 
45 1 9.21888 9.21598 1.55249 
22 1 6.23952 6.21976 6.2226 
23 1 7.76633 7.77022 7.76956 
24 1 7.06307 7.05786 7.05848 
34 1 10.1102 10.1093 10.1057 
35 1 8.59234 8.5927 8.59283 
36 1 9.3042 9.30427 9.30255 
ITEM: TIMESTEP
30
ITEM: NUMBER OF ATOMS
49
ITEM: BOX BOUNDS pp pp pp
0.0000000000000000e+00 1.1000000000000000e+01
0.0000000000000000e+00 1.1002000000000001e+01
0.0000000000000000e+00 1.1000000000000000e+01
ITEM: ATOMS id type x y z 
10 1 4.56034 4.61239 4.60961 
11 1 3.08836 3.08068 3.08339 
12 1 3.76904 3.81116 3.80684 
46 1 0.73753 0.727957 0.728586 
47 1 2.2646 2.26567 2.26605 
48 1 1.56417 1.55063 1.55092 
19 1 4.55266 4.53294 6.23272 
20 1 3.00611 3.00466 7.76718 
21 1 3.72094 3.71511 7.0628 
31 1 0.674789 0.654958 10.0986 
32 1 2.18702 2.18142 8.59098 
33 1 1.46606 1.47888 9.3011 
16 1 4.5339 6.23971 4.54458 
17 1 3.00836 7.76749 3.0009 
18 1 3.70988 7.06594 3.72256 
25 1 0.673775 10.105 0.660832 
26 1 2.18641 8.59925 2.18968 
27 1 1.46953 9.28863 1.46272 
4 1 4.60834 6.1669 6.16099 
5 1 3.09267 7.68013 7.67933 
6 1 3.8011 6.96593 6.96802 
37 1 0.734428 10.0337 10.0415 
38 1 2.26537 8.49815 8.50542 
39 1 1.56183 9.22078 9.2061 
13 1 6.19327 4.57651 4.49894 
14 1 7.7927 3.00272 3.13956 
15 1 6.99131 3.79106 3.71755 
28 1 10.134 0.632119 0.628092 
29 1 8.5785 2.19911 2.1031 
30 1 9.2949 1.46936 1.4305 
49 2 8.23036 2.45357 4.01932 
1 1 6.15032 4.62163 6.21281 
2 1 7.68291 3.08659 7.67868 
3 1 6.95847 3.81334 6.99488 
40 1 10.0442 0.727434 10.0311 
41 1 8.50416 2.26451 8.50298 
42 1 9.21645 1.55369 9.20367 
7 1 6.15806 6.21077 4.61369 
8 1 7.68848 7.68146 3.08464 
9 1 6.95781 7.00099 3.80793 
43 1 10.0448 10.0342 0.729869 
44 1 8.50554 8.50394 2.26275 
45 1 9.21905 9.21176 1.55438 
22 1 6.24173 6.22051 6.23421 
23 1 7.76838 7.76828 7.76952 
24 1 7.06366 7.05738 7.05793 
34 1 10.1157 10.1034 10.1029 
35 1 8.58823 8.59152 8.59341 
36 1 9.30593 9.30402 9.29608 
ITEM: TIMESTEP
40
ITEM: NUMBER OF ATOMS
49
ITEM: BOX BOUNDS pp pp pp
0.0000000000000000e+00 1.1000000000000000e+01
0.0000000000000000e+00 1.1002000000000001e+01
0.0000000000000000e+00 1.1000000000000000e+01
ITEM: ATOMS id type x y z 
10 1 4.56098 4.61725 4.61319 
11 1 3.07963 3.08554 3.08612 
12 1 3.77575 3.80581 3.80419 
46 1 0.745885 0.723925 0.723171 
47 1 2.26734 2.26035 2.2614 
48 1 1.55672 1.55098 1.5512 
19 1 4.55352 4.53012 6.23246 
20 1 3.00584 3.00375 7.77204 
21 1 3.71818 3.70966 7.06206 
31 1 0.670939 0.657395 10.1012 
32 1 2.18012 2.18403 8.59315 
33 1 1.47112 1.46749 9.3012 
16 1 4.52901 6.24345 4.55072 
17 1 3.00344 7.77512 3.00228 
18 1 3.70836 7.06674 3.71741 
25 1 0.671755 10.1005 0.657657 
26 1 2.18208 8.5933 2.18155 
27 1 1.47199 9.30105 1.46505 
4 1 4.60147 6.17077 6.16377 
5 1 3.08986 7.67677 7.68056 
6 1 3.80512 6.96952 6.96718 
37 1 0.736597 10.039 10.0371 
38 1 2.26894 8.50133 8.50041 
39 1 1.56123 9.21343 9.21016 
13 1 6.18763 4.58143 4.49253 
14 1 7.79919 2.99357 3.16782 
15 1 6.99232 3.79288 3.7195 
28 1 10.1331 0.631169 0.628357 
29 1 8.57848 2.19734 2.10313 
30 1 9.29028 1.47877 1.41183 
49 2 8.23823 2.44598 4.02626 
1 1 6.1444 4.62885 6.21503 
2 1 7.68009 3.08958 7.6858 
3 1 6.9623 3.80902 6.9889 
40 1 10.0486 0.724411 10.0218 
41 1 8.50627 2.26259 8.49892 
42 1 9.21574 1.5544 9.20895 
7 1 6.15349 6.21094 4.61689 
8 1 7.68442 7.69076 3.08527 
9 1 6.96531 6.99549 3.80489 
43 1 10.0471 10.0297 0.72847 
44 1 8.50954 8.50411 2.26255 
45 1 9.21857 9.21269 1.55025 
22 1 6.24511 6.22088 6.23199 
23 1 7.76891 7.77114 7.77035 
24 1 7.06618 7.05485 7.06146 
34 1 10.1171 10.103 10.0991 
35 1 8.59143 8.59483 8.59151 
36 1 9.30638 9.30236 9.30314 
ITEM: TIMESTEP
50
ITEM: NUMBER OF ATOMS
49
ITEM: BOX BOUNDS pp pp pp
0.0000000000000000e+00 1.1000000000000000e+01
0.0000000000000000e+00 1.1002000000000001e+01
0.0000000000000000e+00 1.1000000000000000e+01
ITEM: ATOMS id type x y z 
10 1 4.56062 4.61682 4.61332 
11 1 3.07833 3.0868 3.08691 
12 1 3.77553 3.80601 3.8051 
46 1 0.742745 0.723677 0.722935 
47 1 2.2653 2.26157 2.26245 
48 1 1.56011 1.5497 1.54996 
19 1 4.55402 4.52796 6.23144 
20 1 3.00515 3.00524 7.77233 
21 1 3.72001 3.70753 7.06171 
31 1 0.673535 0.656564 10.1009 
32 1 2.18076 2.18387 8.59281 
33 1 1.47217 1.46639 9.30072 
16 1 4.52452 6.24759 4.55514 
17 1 3.00251 7.77529 3.00212 
18 1 3.70635 7.06887 3.72038 
25 1 0.67174 10.1015 0.655378 
26 1 2.18165 8.59383 2.17962 
27 1 1.47192 9.30194 1.4632 
4 1 4.60147 6.1719 6.15978 
5 1 3.09084 7.67856 7.68172 
6 1 3.80155 6.96909 6.9665 
37 1 0.739049 10.0351 10.0338 
38 1 2.27008 8.50149 8.50029 
39 1 1.5603 9.21142 9.21056 
13 1 6.18399 4.58646 4.48487 
14 1 7.80456 2.98661 3.18562 
15 1 6.99349 3.79187 3.72262 
28 1 10.1319 0.632732 0.621534 
29 1 8.57841 2.19813 2.10132 
30 1 9.28681 1.48341 1.40392 
49 2 8.24945 2.43413 4.0399 
1 1 6.1428 4.6302 6.21626 
2 1 7.67952 3.0901 7.68206 
3 1 6.95749 3.81387 6.99375 
40 1 10.0468 0.724214 10.0225 
41 1 8.50407 2.26475 8.49993 
42 1 9.21718 1.55343 9.20375 
7 1 6.15466 6.21171 4.61675 
8 1 7.6833 7.6921 3.08709 
9 1 6.96395 6.99548 3.80554 
43 1 10.047 10.0315 0.725998 
44 1 8.50846 8.50514 2.26205 
45 1 9.22044 9.2115 1.55078 
22 1 6.2474 6.21934 6.23105 
23 1 7.76879 7.7706 7.77066 
24 1 7.067 7.0547 7.06125 
34 1 10.1193 10.1012 10.0992 
35 1 8.59076 8.59394 8.59216 
36 1 9.30816 9.30217 9.30043 
ITEM: TIMESTEP
60
ITEM: NUMBER OF ATOMS
49
ITEM: BOX BOUNDS pp pp pp
0.0000000000000000e+00 1.1000000000000000e+01
0.0000000000000000e+00 1.1002000000000001e+01
0.0000000000000000e+00 1.1000000000000000e+01
ITEM: ATOMS id type x y z 
10 1 4.56266 4.61597 4.61304 
11 1 3.07455 3.08817 3.08848 
12 1 3.77435 3.80628 3.80472 
46 1 0.742808 0.72393 0.719984 
47 1 2.2626 2.26111 2.26258 
48 1 1.56174 1.54844 1.54703 
19 1 4.55704 4.52209 6.22999 
20 1 3.00638 3.00442 7.77452 
21 1 3.71738 3.70645 7.0592 
31 1 0.676252 0.65462 10.1023 
32 1 2.18099 2.18282 8.593 
33 1 1.47356 1.46472 9.30138 
16 1 4.51712 6.25433 4.56486 
17 1 2.99978 7.77715 3.00171 
18 1 3.70112 7.07299 3.72413 
25 1 0.669992 10.1035 0.654502 
26 1 2.18155 8.59459 2.17616 
27 1 1.47143 9.30351 1.4611 
4 1 4.59566 6.17476 6.15444 
5 1 3.09194 7.67588 7.6835 
6 1 3.80163 6.97396 6.95947 
37 1 0.738763 10.0342 10.0314 
38 1 2.27249 8.49866 8.50001 
39 1 1.56172 9.20946 9.20881 
13 1 6.17726 4.59486 4.4699 
14 1 7.81498 2.97257 3.21886 
15 1 6.99787 3.7878 3.72814 
28 1 10.1269 0.637664 0.610508 
29 1 8.57792 2.20068 2.1014 
30 1 9.27851 1.49247 1.39103 
49 2 8.26966 2.41293 4.06412 
1 1 6.13773 4.63574 6.22071 
2 1 7.67662 3.0929 7.68358 
3 1 6.95464 3.8168 6.99584 
40 1 10.047 0.723872 10.0183 
41 1 8.50302 2.26593 8.49709 
42 1 9.21723 1.55374 9.19967 
7 1 6.15649 6.20951 4.61676 
8 1 7.68353 7.69578 3.08811 
9 1 6.96274 6.99888 3.80411 
43 1 10.0479 10.0307 0.723748 
44 1 8.51057 8.50745 2.2622 
45 1 9.21996 9.21252 1.54729 
22 1 6.25174 6.21768 6.22919 
23 1 7.76875 7.77037 7.77137 
24 1 7.0687 7.05281 7.0615 
34 1 10.1215 10.0978 10.0989 
35 1 8.5914 8.59374 8.59145 
36 1 9.30984 9.30075 9.3 
ITEM: TIMESTEP
70
ITEM: NUMBER OF ATOMS
49
ITEM: BOX BOUNDS pp pp pp
0.0000000000000000e+00 1.1000000000000000e+01
0.0000000000000000e+00 1.1002000000000001e+01
0.0000000000000000e+00 1.1000000000000000e+01
ITEM: ATOMS id type x y z 
10 1 4.56825 4.61083 4.61218 
11 1 3.0726 3.08802 3.08882 
12 1 3.77327 3.80625 3.80419 
46 1 0.740461 0.724387 0.718207 
47 1 2.26291 2.26182 2.26224 
48 1 1.55842 1.54785 1.54688 
19 1 4.55648 4.51994 6.22525 
20 1 3.00317 3.00587 7.77227 
21 1 3.72518 3.70274 7.06108 
31 1 0.679962 0.653646 10.1033 
32 1 2.18228 2.18311 8.59277 
33 1 1.47549 1.46434 9.30139 
16 1 4.51291 6.2588 4.56861 
17 1 2.99682 7.78002 3.00051 
18 1 3.69933 7.07438 3.72845 
25 1 0.667775 10.1055 0.655581 
26 1 2.1806 8.5951 2.17417 
27 1 1.47065 9.30527 1.45951 
4 1 4.59424 6.17775 6.14647 
5 1 3.09186 7.67822 7.68214 
6 1 3.80052 6.97189 6.9615 
37 1 0.739805 10.0327 10.0287 
38 1 2.27319 8.49837 8.5015 
39 1 1.56011 9.20943 9.20917 
13 1 6.17357 4.60069 4.45877 
14 1 7.82174 2.96334 3.23618 
15 1 7.00222 3.78292 3.73355 
28 1 10.1207 0.643424 0.604035 
29 1 8.57786 2.20131 2.10597 
30 1 9.27306 1.49882 1.3856 
49 2 8.28192 2.40015 4.07903 
1 1 6.1348 4.6394 6.22333 
2 1 7.67517 3.09517 7.68341 
3 1 6.95151 3.81887 6.99777 
40 1 10.0451 0.725565 10.019 
41 1 8.50389 2.26522 8.49481 
42 1 9.2145 1.55601 9.19912 
7 1 6.15996 6.20525 4.61409 
8 1 7.68112 7.69852 3.08736 
9 1 6.96736 6.99835 3.80649 
43 1 10.0465 10.0348 0.720872 
44 1 8.50994 8.50926 2.25946 
45 1 9.22173 9.21381 1.55037 
22 1 6.25435 6.21457 6.22643 
23 1 7.76744 7.76794 7.77078 
24 1 7.07065 7.05294 7.05944 
34 1 10.1233 10.094 10.0991 
35 1 8.59123 8.59269 8.59103 
36 1 9.31009 9.29879 9.29925 
ITEM: TIMESTEP
80
ITEM: NUMBER OF ATOMS
49
ITEM: BOX BOUNDS pp pp pp
0.0000000000000000e+00 1.1000000000000000e+01
0.0000000000000000e+00 1.1002000000000001e+01
0.0000000000000000e+00 1.1000000000000000e+01
ITEM: ATOMS id type x y z 
10 1 4.56955 4.60913 4.61039 
11 1 3.06892 3.08957 3.08873 
12 1 3.77623 3.80185 3.80326 
46 1 0.740135 0.724893 0.716564 
47 1 2.26069 2.26025 2.26103 
48 1 1.55696 1.54964 1.5466 
19 1 4.5601 4.51533 6.22291 
20 1 3.00615 3.00525 7.77235 
21 1 3.72299 3.70177 7.05897 
31 1 0.682354 0.652927 10.1042 
32 1 2.18208 2.18287 8.59226 
33 1 1.47753 1.46431 9.30298 
16 1 4.51002 6.26148 4.57263 
17 1 2.99611 7.78007 3.00239 
18 1 3.69588 7.07833 3.72937 
25 1 0.665988 10.1082 0.657349 
26 1 2.18087 8.59583 2.17209 
27 1 1.46844 9.30588 1.46058 
4 1 4.59011 6.18152 6.14048 
5 1 3.09309 7.67784 7.68324 
6 1 3.79822 6.97329 6.95748 
37 1 0.737507 10.0336 10.027 
38 1 2.27349 8.49707 8.50203 
39 1 1.56162 9.20916 9.20856 
13 1 6.17027 4.60468 4.44691 
14 1 7.82945 2.95314 3.25324 
15 1 7.0066 3.77829 3.73763 
28 1 10.1143 0.649399 0.597087 
29 1 8.57713 2.20258 2.11051 
30 1 9.26804 1.5043 1.38148 
49 2 8.29281 2.38883 4.09253 
1 1 6.13127 4.64117 6.22753 
2 1 7.674 3.09556 7.68368 
3 1 6.95032 3.82161 7.00006 
40 1 10.0437 0.727427 10.0198 
41 1 8.50287 2.26653 8.4933 
42 1 9.21445 1.55569 9.19789 
7 1 6.16368 6.20227 4.61206 
8 1 7.68286 7.70111 3.08772 
9 1 6.96707 6.99875 3.80397 
43 1 10.0467 10.0361 0.720883 
44 1 8.51071 8.51055 2.26084 
45 1 9.22044 9.21704 1.54629 
22 1 6.25748 6.21301 6.22423 
23 1 7.76846 7.76862 7.77192 
24 1 7.0718 7.05078 7.05706 
34 1 10.1245 10.0916 10.0995 
35 1 8.59123 8.59187 8.5906 
36 1 9.31091 9.29706 9.29992 
ITEM: TIMESTEP
90
ITEM: NUMBER OF ATOMS
49
ITEM: BOX BOUNDS pp pp pp
0.0000000000000000e+00 1.1000000000000000e+01
0.0000000000000000e+00 1.1002000000000001e+01
0.0000000000000000e+00 1.1000000000000000e+01
ITEM: ATOMS id type x y z 
10 1 4.57162 4.60484 4.60871 
11 1 3.06855 3.08814 3.08783 
12 1 3.77425 3.80147 3.80309 
46 1 0.739211 0.725512 0.714977 
47 1 2.25846 2.26068 2.261 
48 1 1.5556 1.55017 1.54534 
19 1 4.56238 4.51169 6.21936 
20 1 3.00768 3.00447 7.77233 
21 1 3.7227 3.70069 7.05607 
31 1 0.685461 0.651845 10.106 
32 1 2.18293 2.18316 8.59273 
33 1 1.47921 1.46356 9.30323 
16 1 4.50757 6.26343 4.57528 
17 1 2.99442 7.7819 3.00343 
18 1 3.69379 7.07974 3.73025 
25 1 0.663036 10.1107 0.660008 
26 1 2.17988 8.59638 2.17106 
27 1 1.46733 9.3078 1.46089 
4 1 4.58726 6.18466 6.1343 
5 1 3.09322 7.67755 7.68339 
6 1 3.79704 6.97468 6.95488 
37 1 0.735611 10.0347 10.0249 
38 1 2.27407 8.49664 8.50358 
39 1 1.5611 9.20936 9.20831 
13 1 6.16565 4.60975 4.4348 
14 1 7.84115 2.93928 3.26879 
15 1 7.00914 3.77515 3.74114 
28 1 10.1072 0.655999 0.591369 
29 1 8.5766 2.20349 2.11362 
30 1 9.26387 1.50896 1.37796 
49 2 8.30324 2.3779 4.10628 
1 1 6.12865 4.64448 6.23462 
2 1 7.67398 3.09611 7.68383 
3 1 6.9481 3.82301 7.00322 
40 1 10.0415 0.729314 10.0204 
41 1 8.50194 2.26719 8.49158 
42 1 9.21402 1.55676 9.19767 
7 1 6.1676 6.20175 4.61032 
8 1 7.68359 7.70344 3.08715 
9 1 6.96921 6.99903 3.80261 
43 1 10.0458 10.038 0.719436 
44 1 8.51056 8.51319 2.26025 
45 1 9.22075 9.21838 1.54564 
22 1 6.26062 6.21131 6.22058 
23 1 7.76889 7.76728 7.77057 
24 1 7.0725 7.05007 7.05649 
34 1 10.1261 10.0885 10.1001 
35 1 8.59092 8.5911 8.59076 
36 1 9.31205 9.29475 9.29986 
ITEM: TIMESTEP
100
ITEM: NUMBER OF ATOMS
49
ITEM: BOX BOUNDS pp pp pp
0.0000000000000000e+00 1.1000000000000000e+01
0.0000000000000000e+00 1.1002000000000001e+01
0.0000000000000000e+00 1.1000000000000000e+01
ITEM: ATOMS id type x y z 
10 1 4.57844 4.59674 4.60404 
11 1 3.06414 3.08646 3.08646 
12 1 3.7746 3.79694 3.79975 
46 1 0.734426 0.727609 0.713749 
47 1 2.25325 2.26244 2.26021 
48 1 1.5563 1.54769 1.54227 
19 1 4.56493 4.50826 6.21476 
20 1 3.00677 3.00561 7.77135 
21 1 3.72772 3.69312 7.05181 
31 1 0.691804 0.648793 10.1074 
32 1 2.18529 2.18279 8.59329 
33 1 1.48233 1.46389 9.30486 
16 1 4.50501 6.26669 4.57519 
17 1 2.99152 7.78445 3.00267 
18 1 3.6895 7.08343 3.73431 
25 1 0.65642 10.1163 0.665294 
26 1 2.17759 8.59907 2.17006 
27 1 1.46364 9.31093 1.46207 
4 1 4.58537 6.18892 6.12656 
5 1 3.09573 7.67645 7.68651 
6 1 3.79021 6.97863 6.94523 
37 1 0.731985 10.0366 10.02 
38 1 2.27359 8.49601 8.50566 
39 1 1.56262 9.20978 9.20865 
13 1 6.15291 4.62434 4.41031 
14 1 7.85869 2.91858 3.30357 
15 1 7.01637 3.76643 3.74433 
28 1 10.094 0.667631 0.582173 
29 1 8.57216 2.20863 2.11652 
30 1 9.25527 1.51879 1.37168 
49 2 8.32415 2.3555 4.13693 
1 1 6.12324 4.6522 6.24791 
2 1 7.67427 3.09707 7.68443 
3 1 6.94388 3.82499 7.00983 
40 1 10.0376 0.733014 10.022 
41 1 8.5015 2.26741 8.48767 
42 1 9.21228 1.55951 9.20009 
7 1 6.17231 6.19529 4.60279 
8 1 7.68185 7.70782 3.08194 
9 1 6.98162 6.99879 3.80585 
43 1 10.0458 10.0412 0.717732 
44 1 8.51107 8.51844 2.25747 
45 1 9.22105 9.22285 1.54506 
22 1 6.26486 6.20685 6.21542 
23 1 7.76857 7.76485 7.76808 
24 1 7.07538 7.04863 7.05397 
34 1 10.1299 10.0822 10.1007 
35 1 8.59103 8.58913 8.5906 
36 1 9.31306 9.2904 9.30083 
ITEM: TIMESTEP
110
ITEM: NUMBER OF ATOMS
49
ITEM: BOX BOUNDS pp pp pp
0.0000000000000000e+00 1.1000000000000000e+01
0.0000000000000000e+00 1.1002000000000001e+01
0.0000000000000000e+00 1.1000000000000000e+01
ITEM: ATOMS id type x y z 
10 1 4.58289 4.59406 4.60197 
11 1 3.06289 3.08689 3.08674 
12 1 3.77656 3.79502 3.7985 
46 1 0.736214 0.726733 0.712259 
47 1 2.2545 2.26069 2.25888 
48 1 1.55089 1.55065 1.54326 
19 1 4.56755 4.50477 6.21226 
20 1 3.00903 3.00346 7.76967 
21 1 3.72635 3.69608 7.05185 
31 1 0.693179 0.648602 10.1077 
32 1 2.18574 2.1837 8.59348 
33 1 1.4842 1.46257 9.30462 
16 1 4.50247 6.26878 4.5778 
17 1 2.99039 7.78522 3.00471 
18 1 3.68943 7.0841 3.73218 
25 1 0.655605 10.1174 0.667661 
26 1 2.17718 8.59912 2.16999 
27 1 1.46249 9.31251 1.46391 
4 1 4.58143 6.19126 6.12019 
5 1 3.09366 7.67716 7.68348 
6 1 3.79363 6.97759 6.94844 
37 1 0.731474 10.0378 10.0187 
38 1 2.27556 8.49517 8.5065 
39 1 1.56056 9.20983 9.20713 
13 1 6.15252 4.62429 4.39604 
14 1 7.86087 2.91528 3.31274 
15 1 7.01756 3.76498 3.74835 
28 1 10.0899 0.672351 0.578996 
29 1 8.57121 2.20965 2.12166 
30 1 9.25012 1.52357 1.37088 
49 2 8.32962 2.3497 4.14586 
1 1 6.11946 4.65383 6.255 
2 1 7.67337 3.09669 7.68461 
3 1 6.9437 3.82752 7.01186 
40 1 10.0365 0.734541 10.0237 
41 1 8.50165 2.26818 8.48796 
42 1 9.21142 1.55897 9.19844 
7 1 6.17834 6.19084 4.60264 
8 1 7.68587 7.70887 3.08559 
9 1 6.97675 6.99766 3.79882 
43 1 10.0452 10.0426 0.717337 
44 1 8.51002 8.51898 2.25747 
45 1 9.22118 9.22449 1.54429 
22 1 6.26592 6.20585 6.21426 
23 1 7.76913 7.76534 7.76845 
24 1 7.07623 7.04675 7.05229 
34 1 10.131 10.0803 10.1003 
35 1 8.59078 8.58776 8.59094 
36 1 9.31383 9.28986 9.29969 
ITEM: TIMESTEP
120
ITEM: NUMBER OF ATOMS
49
ITEM: BOX BOUNDS pp pp pp
0.0000000000000000e+00 1.1000000000000000e+01
0.0000000000000000e+00 1.1002000000000001e+01
0.0000000000000000e+00 1.1000000000000000e+01
ITEM: ATOMS id type x y z 
10 1 4.60455 4.57686 4.58958 
11 1 3.06291 3.07567 3.08732 
12 1 3.77478 3.79795 3.78591 
46 1 0.730055 0.732854 0.704301 
47 1 2.24471 2.26881 2.25591 
48 1 1.55261 1.5426 1.54545 
19 1 4.5788 4.49641 6.20675 
20 1 3.01374 3.00463 7.76922 
21 1 3.72822 3.68727 7.04269 
31 1 0.695271 0.647873 10.1093 
32 1 2.18234 2.18759 8.59222 
33 1 1.5 1.45308 9.30743 
16 1 4.50033 6.27031 4.57443 
17 1 2.99045 7.7837 2.99989 
18 1 3.68139 7.09226 3.74759 
25 1 0.651454 10.1292 0.677801 
26 1 2.18003 8.60584 2.17042 
27 1 1.44663 9.31083 1.47475 
4 1 4.57434 6.19815 6.10257 
5 1 3.09382 7.67783 7.6862 
6 1 3.78656 6.98297 6.93993 
37 1 0.730334 10.0458 10.0111 
38 1 2.28116 8.49606 8.50935 
39 1 1.55135 9.20631 9.20195 
13 1 6.1359 4.64145 4.32587 
14 1 7.88067 2.89137 3.35626 
15 1 7.02613 3.75335 3.75397 
28 1 10.067 0.693366 0.569444 
29 1 8.56662 2.21284 2.14079 
30 1 9.23491 1.5389 1.36763 
49 2 8.35062 2.32764 4.18279 
1 1 6.10273 4.67269 6.30376 
2 1 7.67829 3.09668 7.68552 
3 1 6.93234 3.82984 7.03233 
40 1 10.0324 0.743013 10.0238 
41 1 8.50517 2.26644 8.48233 
42 1 9.2067 1.56138 9.20488 
7 1 6.18564 6.1652 4.57989 
8 1 7.68621 7.70944 3.06985 
9 1 6.99276 7.00588 3.80533 
43 1 10.0454 10.0444 0.71672 
44 1 8.51322 8.52195 2.25939 
45 1 9.21693 9.23787 1.54488 
22 1 6.27507 6.19482 6.21134 
23 1 7.76933 7.76193 7.76956 
24 1 7.08255 7.04582 7.04118 
34 1 10.1345 10.0691 10.1043 
35 1 8.58973 8.58008 8.59667 
36 1 9.31941 9.29171 9.28938 
ITEM: TIMESTEP
130
ITEM: NUMBER OF ATOMS
49
ITEM: BOX BOUNDS pp pp pp
0.0000000000000000e+00 1.1000000000000000e+01
0.0000000000000000e+00 1.1002000000000001e+01
0.0000000000000000e+00 1.1000000000000000e+01
ITEM: ATOMS id type x y z 
10 1 4.62299 4.57037 4.57648 
11 1 3.05513 3.0822 3.08223 
12 1 3.78332 3.78112 3.78421 
46 1 0.728411 0.727705 0.704913 
47 1 2.24633 2.26281 2.25791 
48 1 1.5465 1.54882 1.54269 
19 1 4.57945 4.4887 6.19943 
20 1 3.01387 3.00375 7.7645 
21 1 3.73245 3.68883 7.04076 
31 1 0.704788 0.64202 10.1079 
32 1 2.19075 2.18347 8.59285 
33 1 1.49519 1.4603 9.30476 
16 1 4.49078 6.279 4.57885 
17 1 2.98728 7.78758 3.0074 
18 1 3.68533 7.09102 3.74152 
25 1 0.642242 10.1305 0.686305 
26 1 2.17276 8.60427 2.17239 
27 1 1.45211 9.31749 1.47457 
4 1 4.56929 6.20334 6.09336 
5 1 3.09224 7.67996 7.68415 
6 1 3.78963 6.98502 6.94298 
37 1 0.724132 10.0467 10.0076 
38 1 2.27681 8.49288 8.50666 
39 1 1.55792 9.20767 9.20091 
13 1 6.12173 4.65441 4.28431 
14 1 7.88365 2.88726 3.37412 
15 1 7.02434 3.75305 3.75443 
28 1 10.0577 0.701678 0.569753 
29 1 8.56417 2.21461 2.15579 
30 1 9.22441 1.54838 1.37217 
49 2 8.35854 2.3193 4.20148 
1 1 6.08819 4.68426 6.34046 
2 1 7.68015 3.08918 7.68926 
3 1 6.93687 3.83562 7.04845 
40 1 10.0272 0.745706 10.0278 
41 1 8.50512 2.26504 8.4836 
42 1 9.21243 1.56009 9.20129 
7 1 6.19913 6.15142 4.57997 
8 1 7.69144 7.71951 3.08018 
9 1 6.997 6.99229 3.78361 
43 1 10.0437 10.0526 0.716389 
44 1 8.51147 8.52936 2.25475 
45 1 9.2204 9.23457 1.543 
22 1 6.2809 6.19468 6.20236 
23 1 7.7689 7.75938 7.76364 
24 1 7.08303 7.04076 7.04236 
34 1 10.1385 10.0673 10.0987 
35 1 8.59084 8.58158 8.59022 
36 1 9.31646 9.28036 9.29665 
ITEM: TIMESTEP
140
ITEM: NUMBER OF ATOMS
49
ITEM: BOX BOUNDS pp pp pp
0.0000000000000000e+00 1.1000000000000000e+01
0.0000000000000000e+00 1.1002000000000001e+01
0.0000000000000000e+00 1.1000000000000000e+01
ITEM: ATOMS id type x y z 
10 1 4.62157 4.56733 4.57604 
11 1 3.05325 3.08094 3.08134 
12 1 3.78747 3.77728 3.78156 
46 1 0.728658 0.72893 0.70865 
47 1 2.24285 2.25875 2.2561 
48 1 1.54041 1.54929 1.53742 
19 1 4.57831 4.48996 6.19244 
20 1 3.01395 3.00397 7.76088 
21 1 3.73654 3.68823 7.04071 
31 1 0.709612 0.642724 10.1059 
32 1 2.19358 2.18483 8.59138 
33 1 1.49664 1.46042 9.30405 
16 1 4.49352 6.27855 4.58555 
17 1 2.98493 7.79134 3.00749 
18 1 3.68284 7.09062 3.73846 
25 1 0.64181 10.1303 0.691107 
26 1 2.17112 8.60368 2.17403 
27 1 1.45204 9.32158 1.47639 
4 1 4.56642 6.20671 6.09075 
5 1 3.09523 7.67743 7.68446 
6 1 3.78715 6.98595 6.93512 
37 1 0.721991 10.0439 10.0042 
38 1 2.2749 8.4933 8.50895 
39 1 1.55656 9.21231 9.2008 
13 1 6.12311 4.6538 4.28222 
14 1 7.88364 2.88597 3.38359 
15 1 7.02376 3.75411 3.75608 
28 1 10.0529 0.707118 0.568722 
29 1 8.56364 2.21475 2.16158 
30 1 9.22226 1.55004 1.37293 
49 2 8.36197 2.31576 4.21144 
1 1 6.08899 4.68372 6.34434 
2 1 7.68251 3.08802 7.69084 
3 1 6.93464 3.83639 7.05654 
40 1 10.0274 0.744405 10.0352 
41 1 8.50634 2.26436 8.48172 
42 1 9.21225 1.55891 9.20142 
7 1 6.20668 6.15509 4.57631 
8 1 7.69234 7.71915 3.08128 
9 1 6.99594 6.98641 3.7826 
43 1 10.0431 10.0561 0.714661 
44 1 8.51244 8.5321 2.2542 
45 1 9.22125 9.23882 1.54121 
22 1 6.28002 6.19474 6.19519 
23 1 7.76876 7.75839 7.76146 
24 1 7.0832 7.03857 7.04021 
34 1 10.1401 10.0637 10.0966 
35 1 8.59084 8.57929 8.58939 
36 1 9.31661 9.28003 9.29648 
ITEM: TIMESTEP
150
ITEM: NUMBER OF ATOMS
49
ITEM: BOX BOUNDS pp pp pp
0.0000000000000000e+00 1.1000000000000000e+01
0.0000000000000000e+00 1.1002000000000001e+01
0.0000000000000000e+00 1.1000000000000000e+01
ITEM: ATOMS id type x y z 
10 1 4.62109 4.5651 4.57435 
11 1 3.05331 3.07917 3.08005 
12 1 3.78779 3.77538 3.7805 
46 1 0.727601 0.728645 0.706867 
47 1 2.24144 2.25929 2.25584 
48 1 1.5397 1.54956 1.53775 
19 1 4.57934 4.48907 6.19112 
20 1 3.01607 3.00428 7.76021 
21 1 3.73592 3.68806 7.03706 
31 1 0.711604 0.641706 10.1055 
32 1 2.19493 2.18532 8.59082 
33 1 1.49808 1.46046 9.30286 
16 1 4.49263 6.27931 4.58299 
17 1 2.9845 7.79123 3.00856 
18 1 3.68332 7.09063 3.73863 
25 1 0.640524 10.1317 0.692761 
26 1 2.17076 8.60456 2.17522 
27 1 1.45074 9.32196 1.47812 
4 1 4.56469 6.20849 6.08818 
5 1 3.09382 7.67848 7.68451 
6 1 3.78595 6.98702 6.93492 
37 1 0.72103 10.0458 10.0032 
38 1 2.27562 8.4933 8.50889 
39 1 1.55619 9.21185 9.20026 
13 1 6.1226 4.65421 4.28196 
14 1 7.88528 2.8837 3.38895 
15 1 7.02434 3.75308 3.75788 
28 1 10.0498 0.70977 0.569335 
29 1 8.56269 2.21531 2.16633 
30 1 9.21966 1.55242 1.3749 
49 2 8.36348 2.31428 4.21719 
1 1 6.08863 4.68395 6.34597 
2 1 7.68311 3.08766 7.69231 
3 1 6.93377 3.83703 7.06054 
40 1 10.0271 0.745473 10.0354 
41 1 8.50782 2.2629 8.48086 
42 1 9.21279 1.55838 9.2025 
7 1 6.20831 6.1544 4.57562 
8 1 7.69478 7.71989 3.07923 
9 1 6.99771 6.98678 3.78075 
43 1 10.0427 10.0572 0.714946 
44 1 8.51235 8.53386 2.25487 
45 1 9.22155 9.23999 1.54014 
22 1 6.28126 6.19449 6.19308 
23 1 7.76877 7.75733 7.76007 
24 1 7.08303 7.03774 7.03839 
34 1 10.1402 10.0626 10.0954 
35 1 8.5895 8.57895 8.58818 
36 1 9.31804 9.27624 9.29605 
ITEM: TIMESTEP
160
ITEM: NUMBER OF ATOMS
49
ITEM: BOX BOUNDS pp pp pp
0.0000000000000000e+00 1.1000000000000000e+01
0.0000000000000000e+00 1.1002000000000001e+01
0.0000000000000000e+00 1.1000000000000000e+01
ITEM: ATOMS id type x y z 
10 1 4.62156 4.55976 4.57073 
11 1 3.05399 3.07416 3.07639 
12 1 3.78772 3.77033 3.77787 
46 1 0.725324 0.72941 0.704423 
47 1 2.23699 2.25915 2.25483 
48 1 1.53585 1.54994 1.53583 
19 1 4.57938 4.48813 6.18405 
20 1 3.0193 3.00437 7.75558 
21 1 3.73798 3.68807 7.03132 
31 1 0.717124 0.640912 10.1032 
32 1 2.19909 2.18649 8.58885 
33 1 1.50272 1.46055 9.3002 
16 1 4.49282 6.27945 4.57934 
17 1 2.98226 7.79285 3.00962 
18 1 3.68276 7.09117 3.73854 
25 1 0.63683 10.1346 0.699253 
26 1 2.16814 8.60638 2.17863 
27 1 1.44841 9.32561 1.48276 
4 1 4.56018 6.21331 6.08093 
5 1 3.09237 7.67926 7.68357 
6 1 3.78288 6.98967 6.93071 
37 1 0.71844 10.048 9.9996 
38 1 2.27598 8.49345 8.5098 
39 1 1.55528 9.21274 9.19879 
13 1 6.12264 4.65394 4.28127 
14 1 7.88895 2.87806 3.4055 
15 1 7.0259 3.75031 3.76528 
28 1 10.0402 0.718455 0.569677 
29 1 8.56055 2.21629 2.17933 
30 1 9.21313 1.55814 1.37991 
49 2 8.36791 2.30995 4.23502 
1 1 6.08766 4.68443 6.35226 
2 1 7.68331 3.08711 7.69919 
3 1 6.93468 3.83703 7.06726 
40 1 10.0264 0.746878 10.0394 
41 1 8.51088 2.2599 8.47932 
42 1 9.21508 1.55656 9.20319 
7 1 6.21379 6.15419 4.57224 
8 1 7.69881 7.72036 3.07561 
9 1 7.00324 6.98643 3.77708 
43 1 10.0415 10.0609 0.713548 
44 1 8.51307 8.53846 2.25455 
45 1 9.2221 9.24464 1.53932 
22 1 6.28256 6.19426 6.18628 
23 1 7.76822 7.75443 7.75595 
24 1 7.08359 7.03565 7.03246 
34 1 10.1416 10.0576 10.0917 
35 1 8.58892 8.57498 8.58567 
36 1 9.31803 9.27127 9.29412 
ITEM: TIMESTEP
170
ITEM: NUMBER OF ATOMS
49
ITEM: BOX BOUNDS pp pp pp
0.0000000000000000e+00 1.1000000000000000e+01
0.0000000000000000e+00 1.1002000000000001e+01
0.0000000000000000e+00 1.1000000000000000e+01
ITEM: ATOMS id type x y z 
10 1 4.62184 4.55883 4.57032 
11 1 3.05365 3.07322 3.07629 
12 1 3.78847 3.76942 3.77655 
46 1 0.72466 0.729784 0.703962 
47 1 2.23617 2.25899 2.25452 
48 1 1.53528 1.54968 1.53507 
19 1 4.57935 4.48835 6.18273 
20 1 3.01972 3.00411 7.7544 
21 1 3.73849 3.68809 7.03034 
31 1 0.718372 0.640785 10.1026 
32 1 2.20011 2.18654 8.58837 
33 1 1.50353 1.46033 9.2994 
16 1 4.49302 6.27945 4.57847 
17 1 2.98168 7.79339 3.01015 
18 1 3.68261 7.09125 3.73771 
25 1 0.63606 10.1358 0.700697 
26 1 2.16749 8.60737 2.17949 
27 1 1.44703 9.32617 1.48394 
4 1 4.55947 6.21408 6.07925 
5 1 3.09215 7.67938 7.683 
6 1 3.78232 6.99024 6.92948 
37 1 0.717621 10.0487 9.99839 
38 1 2.27588 8.49356 8.50967 
39 1 1.55513 9.21281 9.1987 
13 1 6.12292 4.65371 4.28111 
14 1 7.88988 2.87659 3.40938 
15 1 7.02665 3.74934 3.76822 
28 1 10.0379 0.72049 0.569783 
29 1 8.5601 2.2164 2.18251 
30 1 9.21165 1.55934 1.38121 
49 2 8.36879 2.30913 4.23971 
1 1 6.08795 4.6846 6.35338 
2 1 7.6835 3.08724 7.70038 
3 1 6.93442 3.83682 7.06839 
40 1 10.0265 0.746758 10.0396 
41 1 8.51131 2.25942 8.47899 
42 1 9.21532 1.55645 9.20372 
7 1 6.21502 6.15365 4.57149 
8 1 7.6998 7.72031 3.07523 
9 1 7.00386 6.98628 3.77641 
43 1 10.0413 10.0619 0.713033 
44 1 8.51326 8.53935 2.25417 
45 1 9.22221 9.24559 1.53938 