ITEM: TIMESTEP
0
ITEM: NUMBER OF ATOMS
51
ITEM: BOX BOUNDS pp pp pp
0.0000000000000000e+00 1.1000000000000000e+01
0.0000000000000000e+00 1.1002000000000001e+01
0.0000000000000000e+00 1.1000000000000000e+01
ITEM: ATOMS id type x y z 
10 1 4.603 4.603 4.603 
11 1 3.085 3.085 3.085 
12 1 3.796 3.796 3.796 
46 1 0.726 0.725 0.725 
47 1 2.26 2.259 2.26 
48 1 1.551 1.55 1.55 
19 1 4.546 4.545 6.226 
20 1 3.013 3.013 7.764 
21 1 3.721 3.721 7.053 
31 1 0.668 0.667 10.103 
32 1 2.187 2.187 8.589 
33 1 1.476 1.475 9.298 
16 1 4.546 6.225 4.546 
17 1 3.013 7.765 3.013 
18 1 3.721 7.053 3.722 
25 1 0.668 10.103 0.668 
26 1 2.188 8.589 2.188 
27 1 1.476 9.298 1.476 
4 1 4.608 6.169 6.169 
5 1 3.086 7.684 7.684 
6 1 3.799 6.974 6.974 
37 1 0.729 10.046 10.046 
38 1 2.259 8.509 8.508 
39 1 1.552 9.219 9.219 
13 1 6.225 4.546 4.546 
14 1 7.764 3.013 3.013 
15 1 7.053 3.721 3.722 
28 1 10.102 0.667 0.668 
29 1 8.589 2.187 2.188 
30 1 9.298 1.475 1.476 
1 1 6.168 4.608 6.169 
2 1 7.684 3.086 7.684 
3 1 6.974 3.799 6.974 
40 1 10.045 0.728 10.046 
41 1 8.508 2.259 8.508 
42 1 9.218 1.551 9.218 
51 3 5.832 5.462 9.335 
7 1 6.169 6.169 4.608 
8 1 7.684 7.684 3.086 
9 1 6.974 6.974 3.799 
43 1 10.046 10.047 0.729 
44 1 8.508 8.509 2.259 
45 1 9.219 9.219 1.552 
22 1 6.229 6.229 6.229 
23 1 7.764 7.765 7.765 
24 1 7.055 7.056 7.055 
34 1 10.108 10.108 10.107 
35 1 8.59 8.59 8.59 
36 1 9.301 9.301 9.3 
49 2 5.851 6.075 7.516 
50 2 6.545 5.94 8.827 
ITEM: TIMESTEP
10
ITEM: NUMBER OF ATOMS
51
ITEM: BOX BOUNDS pp pp pp
0.0000000000000000e+00 1.1000000000000000e+01
0.0000000000000000e+00 1.1002000000000001e+01
0.0000000000000000e+00 1.1000000000000000e+01
ITEM: ATOMS id type x y z 
10 1 4.59196 4.59084 4.59306 
11 1 3.08003 3.0802 3.07984 
12 1 3.78828 3.78787 3.78863 
46 1 0.735274 0.734151 0.734401 
47 1 2.27044 2.26951 2.27019 
48 1 1.56324 1.56222 1.56266 
19 1 4.54049 4.54476 6.23579 
20 1 3.00416 3.0034 7.77201 
21 1 3.71034 3.71186 7.0658 
31 1 0.674258 0.673016 10.0964 
32 1 2.19106 2.19074 8.58524 
33 1 1.48238 1.4819 9.29092 
16 1 4.53859 6.236 4.54552 
17 1 3.00401 7.7731 3.00316 
18 1 3.70926 7.06649 3.71195 
25 1 0.674468 10.0967 0.674084 
26 1 2.1913 8.58548 2.19134 
27 1 1.48274 9.29163 1.48269 
4 1 4.5578 6.17831 6.16895 
5 1 3.08193 7.69144 7.69165 
6 1 3.78631 6.98026 6.97945 
37 1 0.73964 10.0368 10.0366 
38 1 2.26959 8.49822 8.49753 
39 1 1.56448 9.20711 9.2067 
13 1 6.23504 4.53952 4.54158 
14 1 7.77186 3.00444 3.00438 
15 1 7.06486 3.7106 3.71186 
28 1 10.0959 0.673543 0.674278 
29 1 8.58533 2.19083 2.19187 
30 1 9.2906 1.48199 1.48277 
1 1 6.18156 4.56213 6.17234 
2 1 7.69271 3.07979 7.69378 
3 1 6.98343 3.78516 6.98086 
40 1 10.0359 0.738428 10.0364 
41 1 8.49798 2.26887 8.49803 
42 1 9.20656 1.56284 9.20675 
51 3 5.84959 5.47595 9.32195 
7 1 6.18102 6.17962 4.56946 
8 1 7.69361 7.69363 3.07712 
9 1 6.98443 6.98449 3.78769 
43 1 10.0365 10.0373 0.739673 
44 1 8.4981 8.4987 2.26894 
45 1 9.20738 9.20788 1.56376 
22 1 6.22813 6.23377 6.26638 
23 1 7.79073 7.78962 7.79006 
24 1 7.11608 7.10969 7.02496 
34 1 10.1022 10.1024 10.1009 
35 1 8.59005 8.58976 8.59041 
36 1 9.29833 9.29857 9.2978 
49 2 5.79926 6.03172 7.52229 
50 2 6.53079 5.92475 8.85319 
ITEM: TIMESTEP
20
ITEM: NUMBER OF ATOMS
51
ITEM: BOX BOUNDS pp pp pp
0.0000000000000000e+00 1.1000000000000000e+01
0.0000000000000000e+00 1.1002000000000001e+01
0.0000000000000000e+00 1.1000000000000000e+01
ITEM: ATOMS id type x y z 
10 1 4.58612 4.5853 4.59104 
11 1 3.08028 3.07954 3.0791 
12 1 3.78692 3.78792 3.78908 
46 1 0.735316 0.734408 0.73375 
47 1 2.26915 2.26847 2.26742 
48 1 1.56293 1.56157 1.56497 
19 1 4.53536 4.54182 6.23621 
20 1 3.00239 3.00162 7.77272 
21 1 3.70707 3.7093 7.07166 
31 1 0.680122 0.676401 10.0979 
32 1 2.18766 2.19004 8.58475 
33 1 1.48574 1.47948 9.29484 
16 1 4.54259 6.24168 4.54498 
17 1 2.99956 7.77501 3.00014 
18 1 3.70932 7.07119 3.70916 
25 1 0.678764 10.1003 0.676462 
26 1 2.18885 8.58708 2.18892 
27 1 1.48161 9.2941 1.48102 
4 1 4.49911 6.16799 6.15245 
5 1 3.09051 7.70301 7.70456 
6 1 3.74762 6.9727 6.96693 
37 1 0.746873 10.0378 10.0382 
38 1 2.26595 8.50012 8.50115 
39 1 1.56846 9.2114 9.20892 
13 1 6.23864 4.54617 4.54184 
14 1 7.77267 3.00135 3.00273 
15 1 7.06898 3.71119 3.70915 
28 1 10.0977 0.677915 0.679819 
29 1 8.58383 2.18982 2.18856 
30 1 9.29552 1.48111 1.4861 
1 1 6.17524 4.50646 6.15629 
2 1 7.70277 3.08124 7.70503 
3 1 6.98246 3.75821 6.9752 
40 1 10.0371 0.745559 10.0366 
41 1 8.49789 2.26671 8.49767 
42 1 9.21135 1.56664 9.21318 
51 3 5.84829 5.48422 9.30904 
7 1 6.17413 6.17378 4.53985 
8 1 7.70351 7.70406 3.08119 
9 1 6.9801 6.9789 3.76324 
43 1 10.0386 10.0399 0.747208 
44 1 8.50098 8.50208 2.26544 
45 1 9.20995 9.20939 1.56591 
22 1 6.20048 6.22163 6.33971 
23 1 7.79962 7.79825 7.77748 
24 1 7.1367 7.12457 7.01402 
34 1 10.1139 10.1111 10.1115 
35 1 8.60653 8.60835 8.61245 
36 1 9.31798 9.31393 9.3169 
49 2 5.80966 6.02813 7.46383 
50 2 6.53716 5.91904 8.87772 
ITEM: TIMESTEP
30
ITEM: NUMBER OF ATOMS
51
ITEM: BOX BOUNDS pp pp pp
0.0000000000000000e+00 1.1000000000000000e+01
0.0000000000000000e+00 1.1002000000000001e+01
0.0000000000000000e+00 1.1000000000000000e+01
ITEM: ATOMS id type x y z 
10 1 4.58438 4.58622 4.58896 
11 1 3.08038 3.08021 3.07934 
12 1 3.78844 3.7881 3.79003 
46 1 0.739013 0.73888 0.73885 
47 1 2.27336 2.27289 2.27241 
48 1 1.56457 1.56298 1.56487 
19 1 4.52896 4.5342 6.2349 
20 1 2.9993 2.99799 7.78295 
21 1 3.69914 3.70303 7.06565 
31 1 0.683177 0.680385 10.0987 
32 1 2.18817 2.18864 8.58639 
33 1 1.48217 1.4787 9.29544 
16 1 4.54227 6.2437 4.54091 
17 1 2.99845 7.77659 2.99838 
18 1 3.70669 7.07332 3.70656 
25 1 0.680325 10.0997 0.679811 
26 1 2.1876 8.58596 2.18742 
27 1 1.48221 9.29807 1.48183 
4 1 4.47476 6.15753 6.14563 
5 1 3.08668 7.70298 7.70345 
6 1 3.74272 6.9719 6.96581 
37 1 0.753861 10.0408 10.0399 
38 1 2.26772 8.50156 8.50212 
39 1 1.57125 9.21093 9.21013 
13 1 6.2407 4.54648 4.53953 
14 1 7.77429 2.99964 3.00234 
15 1 7.06903 3.71179 3.70533 
28 1 10.0985 0.682002 0.681896 
29 1 8.58452 2.19108 2.18821 
30 1 9.29468 1.47821 1.4867 
1 1 6.1683 4.48888 6.14879 
2 1 7.70529 3.08195 7.70906 
3 1 6.98128 3.74344 6.96847 
40 1 10.0416 0.751657 10.0415 
41 1 8.50053 2.26751 8.50089 
42 1 9.21313 1.56537 9.21486 
51 3 5.84138 5.48591 9.30458 
7 1 6.16858 6.17025 4.53097 
8 1 7.70441 7.70502 3.08113 
9 1 6.97917 6.97748 3.75897 
43 1 10.0414 10.0427 0.753355 
44 1 8.5007 8.50091 2.26698 
45 1 9.21243 9.21349 1.56623 
22 1 6.19366 6.21498 6.35138 
23 1 7.81859 7.81491 7.77532 
24 1 7.15904 7.14265 6.99849 
34 1 10.1195 10.115 10.1163 
35 1 8.61315 8.61107 8.61892 
36 1 9.31744 9.32207 9.32505 
49 2 5.78754 6.00955 7.44929 
50 2 6.54562 5.9187 8.88906 
ITEM: TIMESTEP
40
ITEM: NUMBER OF ATOMS
51
ITEM: BOX BOUNDS pp pp pp
0.0000000000000000e+00 1.1000000000000000e+01
0.0000000000000000e+00 1.1002000000000001e+01
0.0000000000000000e+00 1.1000000000000000e+01
ITEM: ATOMS id type x y z 
10 1 4.58285 4.58566 4.58812 
11 1 3.08126 3.08065 3.07976 
12 1 3.78856 3.78903 3.79064 
46 1 0.741361 0.741097 0.741828 
47 1 2.27469 2.27386 2.27381 
48 1 1.56686 1.56593 1.56681 
19 1 4.52168 4.52741 6.22934 
20 1 2.99717 2.99638 7.78393 
21 1 3.6975 3.70073 7.06787 
31 1 0.684383 0.680269 10.1001 
32 1 2.1875 2.18675 8.58706 
33 1 1.48132 1.47958 9.2981 
16 1 4.53936 6.24422 4.53834 
17 1 2.99758 7.77791 2.99724 
18 1 3.70556 7.07377 3.70476 
25 1 0.682825 10.1021 0.681415 
26 1 2.18741 8.58705 2.18733 
27 1 1.48111 9.2977 1.4805 
4 1 4.46684 6.15118 6.14143 
5 1 3.08455 7.7034 7.70258 
6 1 3.73788 6.96976 6.96468 
37 1 0.757094 10.0425 10.0416 
38 1 2.27035 8.50101 8.5015 
39 1 1.5713 9.21336 9.21307 
13 1 6.24053 4.54533 4.53531 
14 1 7.77475 2.99992 3.00042 
15 1 7.06994 3.71001 3.70552 
28 1 10.0999 0.68226 0.685121 
29 1 8.58437 2.1889 2.18996 
30 1 9.29531 1.48203 1.48391 
1 1 6.16477 4.48111 6.14412 
2 1 7.70663 3.07907 7.70738 
3 1 6.97888 3.74067 6.96993 
40 1 10.0431 0.754489 10.0437 
41 1 8.5025 2.26669 8.50362 
42 1 9.21469 1.56723 9.2157 
51 3 5.83752 5.48748 9.30145 
7 1 6.16698 6.169 4.52892 
8 1 7.70466 7.70404 3.07732 
9 1 6.98055 6.98103 3.76134 
43 1 10.0425 10.0442 0.756694 
44 1 8.50081 8.50106 2.26721 
45 1 9.21332 9.21423 1.56892 
22 1 6.1978 6.21875 6.36121 
23 1 7.82397 7.81806 7.76372 
24 1 7.16151 7.14433 6.9915 
34 1 10.1223 10.1197 10.1202 
35 1 8.61299 8.61378 8.62251 
36 1 9.32137 9.32193 9.3272 
49 2 5.78021 6.00357 7.4404 
50 2 6.5512 5.9178 8.89884 
ITEM: TIMESTEP
50
ITEM: NUMBER OF ATOMS
51
ITEM: BOX BOUNDS pp pp pp
0.0000000000000000e+00 1.1000000000000000e+01
0.0000000000000000e+00 1.1002000000000001e+01
0.0000000000000000e+00 1.1000000000000000e+01
ITEM: ATOMS id type x y z 
10 1 4.58276 4.58538 4.58794 
11 1 3.08139 3.08055 3.08009 
12 1 3.78867 3.7896 3.79023 
46 1 0.741611 0.741341 0.742359 
47 1 2.27493 2.27395 2.27405 
48 1 1.56705 1.56637 1.56694 
19 1 4.52092 4.52688 6.22839 
20 1 2.99663 2.99622 7.78388 
21 1 3.69777 3.7003 7.06829 
31 1 0.684426 0.68061 10.1009 
32 1 2.18728 2.18674 8.58742 
33 1 1.48134 1.47914 9.29823 
16 1 4.53909 6.24412 4.53834 
17 1 2.99756 7.77804 2.99701 
18 1 3.70533 7.0738 3.70468 
25 1 0.683049 10.1024 0.681724 
26 1 2.18723 8.58693 2.18718 
27 1 1.48127 9.2982 1.48061 
4 1 4.46617 6.15043 6.14103 
5 1 3.08426 7.70309 7.70217 
6 1 3.73735 6.96926 6.96419 
37 1 0.757402 10.0427 10.0419 
38 1 2.27088 8.50103 8.50145 
39 1 1.57151 9.21339 9.21323 
13 1 6.24034 4.54527 4.53525 
14 1 7.77467 3.00013 3.0004 
15 1 7.06981 3.70992 3.70548 
28 1 10.1003 0.682604 0.685417 
29 1 8.58432 2.1888 2.1899 
30 1 9.29555 1.48214 1.48403 
1 1 6.16422 4.48063 6.14389 
2 1 7.70633 3.07883 7.7071 
3 1 6.97871 3.74019 6.96937 
40 1 10.0432 0.754568 10.0441 
41 1 8.50261 2.26679 8.50378 
42 1 9.21497 1.56764 9.21601 
51 3 5.83692 5.48781 9.30085 
7 1 6.16728 6.16935 4.52917 
8 1 7.70459 7.7039 3.07723 
9 1 6.98039 6.98098 3.76127 
43 1 10.0427 10.0444 0.757002 
44 1 8.50096 8.50117 2.26718 
45 1 9.21349 9.21446 1.56929 
22 1 6.19788 6.21861 6.36137 
23 1 7.82523 7.81909 7.76188 
24 1 7.16182 7.14453 6.99112 
34 1 10.1222 10.12 10.1208 
35 1 8.61247 8.61372 8.62278 
36 1 9.32187 9.32159 9.32673 
49 2 5.77922 6.00281 7.43964 
50 2 6.55211 5.91758 8.90071 
ITEM: TIMESTEP
60
ITEM: NUMBER OF ATOMS
51
ITEM: BOX BOUNDS pp pp pp
0.0000000000000000e+00 1.1000000000000000e+01
0.0000000000000000e+00 1.1002000000000001e+01
0.0000000000000000e+00 1.1000000000000000e+01
ITEM: ATOMS id type x y z 
10 1 4.58162 4.5851 4.58358 
11 1 3.08265 3.08166 3.08136 
12 1 3.79045 3.79171 3.78977 
46 1 0.744379 0.746263 0.748494 
47 1 2.27853 2.27901 2.27773 
48 1 1.57057 1.56686 1.56967 
19 1 4.51376 4.51814 6.22025 
20 1 2.99361 2.99373 7.78637 
21 1 3.69462 3.69604 7.06721 
31 1 0.685249 0.68115 10.1077 
32 1 2.18465 2.18504 8.59068 
33 1 1.48113 1.47642 9.30256 
16 1 4.53471 6.2438 4.5383 
17 1 2.99702 7.77842 2.99576 
18 1 3.70402 7.07505 3.70182 
25 1 0.685897 10.1066 0.684034 
26 1 2.18585 8.58691 2.18632 
27 1 1.48235 9.30141 1.48032 
4 1 4.45749 6.14155 6.13534 
5 1 3.07955 7.69981 7.69586 
6 1 3.73084 6.96205 6.96029 
37 1 0.759362 10.0446 10.045 
38 1 2.27429 8.50418 8.50293 
39 1 1.57661 9.2129 9.21596 
13 1 6.23895 4.54417 4.53454 
14 1 7.77419 3.00207 2.99979 
15 1 7.06811 3.70881 3.7045 
28 1 10.1035 0.686532 0.687903 
29 1 8.58233 2.18886 2.18871 
30 1 9.29962 1.48309 1.48815 
1 1 6.15731 4.47509 6.14098 
2 1 7.70342 3.07514 7.70338 
3 1 6.97563 3.73328 6.96323 
40 1 10.0456 0.756263 10.0492 
41 1 8.50518 2.26962 8.50615 
42 1 9.21618 1.57071 9.21878 
51 3 5.82864 5.49197 9.29298 
7 1 6.16961 6.17172 4.53155 
8 1 7.7039 7.70061 3.07259 
9 1 6.98002 6.98536 3.76468 
43 1 10.0458 10.0485 0.761478 
44 1 8.5029 8.50331 2.2692 
45 1 9.21525 9.21539 1.5701 
22 1 6.19904 6.21687 6.36364 
23 1 7.84058 7.83098 7.73668 
24 1 7.16507 7.14655 6.98541 
34 1 10.1243 10.1215 10.125 
35 1 8.61158 8.61362 8.62488 
36 1 9.32259 9.3211 9.32735 
49 2 5.76701 5.9936 7.43062 
50 2 6.56445 5.91484 8.92518 
ITEM: TIMESTEP
70
ITEM: NUMBER OF ATOMS
51
ITEM: BOX BOUNDS pp pp pp
0.0000000000000000e+00 1.1000000000000000e+01
0.0000000000000000e+00 1.1002000000000001e+01
0.0000000000000000e+00 1.1000000000000000e+01
ITEM: ATOMS id type x y z 
10 1 4.58258 4.58674 4.58147 
11 1 3.08338 3.08238 3.08131 
12 1 3.79098 3.79243 3.79019 
46 1 0.747037 0.747313 0.751306 
47 1 2.28049 2.27892 2.27848 
48 1 1.57103 1.57084 1.57223 
19 1 4.51169 4.51482 6.21884 
20 1 2.99277 2.99286 7.78777 
21 1 3.69168 3.69303 7.06612 
31 1 0.684776 0.679882 10.1087 
32 1 2.18446 2.18387 8.59198 
33 1 1.47995 1.47672 9.30454 
16 1 4.53399 6.24433 4.53761 
17 1 2.99739 7.77885 2.99429 
18 1 3.7033 7.07398 3.7032 
25 1 0.686995 10.1074 0.683929 
26 1 2.18624 8.5873 2.18613 
27 1 1.48192 9.30132 1.48069 
4 1 4.45441 6.13758 6.13378 
5 1 3.07663 7.69768 7.69411 
6 1 3.72743 6.9608 6.95728 
37 1 0.760094 10.0441 10.0469 
38 1 2.27726 8.50415 8.50413 
39 1 1.57699 9.21502 9.21585 
13 1 6.23843 4.54331 4.53455 
14 1 7.77341 3.00187 2.99923 
15 1 7.06776 3.71055 3.70481 
28 1 10.1052 0.687391 0.689838 
29 1 8.58329 2.18924 2.19114 
30 1 9.29687 1.48444 1.48575 
1 1 6.15517 4.47237 6.13864 
2 1 7.70287 3.07164 7.70056 
3 1 6.97358 3.73168 6.96349 
40 1 10.0457 0.756437 10.0508 
41 1 8.50653 2.27097 8.5076 
42 1 9.21733 1.57151 9.22016 
51 3 5.82445 5.49401 9.28895 
7 1 6.16893 6.17459 4.53682 
8 1 7.70404 7.70294 3.07173 
9 1 6.98157 6.98323 3.76137 
43 1 10.0466 10.0491 0.761542 
44 1 8.50369 8.50331 2.26884 
45 1 9.21673 9.21765 1.57249 
22 1 6.19946 6.21629 6.36471 
23 1 7.8471 7.8354 7.7247 
24 1 7.16629 7.14738 6.98238 
34 1 10.1253 10.1221 10.1258 
35 1 8.6125 8.61422 8.62476 
36 1 9.32201 9.32148 9.32873 
49 2 5.76142 5.98899 7.42692 
50 2 6.57039 5.91358 8.93682 
ITEM: TIMESTEP
80
ITEM: NUMBER OF ATOMS
51
ITEM: BOX BOUNDS pp pp pp
0.0000000000000000e+00 1.1000000000000000e+01
0.0000000000000000e+00 1.1002000000000001e+01
0.0000000000000000e+00 1.1000000000000000e+01
ITEM: ATOMS id type x y z 
10 1 4.58276 4.58693 4.5816 
11 1 3.08338 3.08239 3.08154 
12 1 3.79131 3.79276 3.7898 
46 1 0.746907 0.74736 0.751347 
47 1 2.28033 2.27892 2.27841 
48 1 1.57117 1.57065 1.57222 
19 1 4.51174 4.51469 6.21897 
20 1 2.99266 2.99271 7.78778 
21 1 3.69145 3.69284 7.06611 
31 1 0.684849 0.679541 10.1088 
32 1 2.18448 2.18368 8.59212 
33 1 1.47979 1.47689 9.30482 
16 1 4.53397 6.24445 4.53768 
17 1 2.99742 7.77879 2.99424 
18 1 3.70339 7.07386 3.70335 
25 1 0.687018 10.1075 0.683827 
26 1 2.18628 8.58732 2.18625 
27 1 1.48209 9.30124 1.48059 
4 1 4.45415 6.13737 6.13386 
5 1 3.07625 7.69749 7.69397 
6 1 3.72701 6.96069 6.9571 
37 1 0.760043 10.044 10.0468 
38 1 2.27738 8.50443 8.50417 
39 1 1.57714 9.21495 9.21608 
13 1 6.2385 4.54342 4.53465 
14 1 7.77322 3.00202 2.9992 
15 1 7.06771 3.71059 3.70504 
28 1 10.105 0.687541 0.689728 
29 1 8.583 2.18936 2.19092 
30 1 9.29731 1.48452 1.48638 
1 1 6.15519 4.472 6.13846 
2 1 7.70293 3.07112 7.70013 
3 1 6.97321 3.73162 6.96388 
40 1 10.0456 0.756411 10.0508 
41 1 8.50652 2.27127 8.50753 
42 1 9.21735 1.57165 9.22029 
51 3 5.82397 5.49426 9.28844 
7 1 6.16916 6.17476 4.53725 
8 1 7.70416 7.70287 3.07144 
9 1 6.98159 6.98363 3.76142 
43 1 10.0466 10.0491 0.761621 
44 1 8.50386 8.50345 2.26893 
45 1 9.21682 9.21777 1.57235 
22 1 6.19935 6.21618 6.36477 
23 1 7.84775 7.83581 7.7237 
24 1 7.1665 7.14754 6.98202 
34 1 10.1252 10.1219 10.1257 
35 1 8.61258 8.61435 8.6245 
36 1 9.32209 9.32146 9.32868 
49 2 5.76089 5.98844 7.42672 
50 2 6.57101 5.91345 8.93804 
ITEM: TIMESTEP
88
ITEM: NUMBER OF ATOMS
51
ITEM: BOX BOUNDS pp pp pp
0.0000000000000000e+00 1.1000000000000000e+01
0.0000000000000000e+00 1.1002000000000001e+01
0.0000000000000000e+00 1.1000000000000000e+01
ITEM: ATOMS id type x y z 
10 1 4.58276 4.58694 4.5816 
11 1 3.08339 3.08239 3.08154 
12 1 3.79132 3.79277 3.78979 
46 1 0.7469 0.747363 0.75135 
47 1 2.28032 2.27892 2.27841 
48 1 1.57118 1.57065 1.57222 
19 1 4.51174 4.51469 6.21897 
20 1 2.99265 2.9927 7.78778 
21 1 3.69145 3.69283 7.06611 
31 1 0.684844 0.679541 10.1088 
32 1 2.18447 2.18369 8.59213 
33 1 1.47979 1.47688 9.30482 
16 1 4.53398 6.24445 4.53768 
17 1 2.99743 7.77879 2.99424 
18 1 3.70338 7.07386 3.70336 
25 1 0.687009 10.1075 0.683818 
26 1 2.18626 8.5873 2.18624 
27 1 1.48212 9.30128 1.48061 
4 1 4.45414 6.13737 6.13385 
5 1 3.07623 7.6975 7.69395 
6 1 3.72701 6.96066 6.95712 
37 1 0.760045 10.044 10.0468 
38 1 2.27739 8.50443 8.50417 
39 1 1.57714 9.21495 9.21608 
13 1 6.2385 4.54342 4.53465 
14 1 7.77322 3.00202 2.9992 
15 1 7.06771 3.7106 3.70504 
28 1 10.105 0.687547 0.68973 
29 1 8.583 2.18936 2.19093 
30 1 9.2973 1.48452 1.48637 
1 1 6.15518 4.472 6.13848 
2 1 7.70293 3.07112 7.70014 
3 1 6.97321 3.73159 6.96386 
40 1 10.0456 0.756416 10.0508 
41 1 8.50653 2.27128 8.50754 
42 1 9.21734 1.57164 9.22029 
51 3 5.82395 5.49426 9.28842 
7 1 6.16916 6.1748 4.53727 
8 1 7.70415 7.7029 3.07144 
9 1 6.98163 6.9836 3.76141 
43 1 10.0466 10.0491 0.761624 
44 1 8.50387 8.50346 2.26894 
45 1 9.21682 9.21777 1.57234 
22 1 6.19935 6.21617 6.36477 
23 1 7.84777 7.83582 7.72366 
24 1 7.16651 7.14754 6.98201 
34 1 10.1252 10.1219 10.1257 
35 1 8.61258 8.61435 8.6245 
36 1 9.3221 9.32146 9.32867 
49 2 5.76087 5.98842 7.42671 
50 2 6.57103 5.91345 8.93808 
ITEM: TIMESTEP
90
ITEM: NUMBER OF ATOMS
51
ITEM: BOX BOUNDS pp pp pp
0.0000000000000000e+00 1.1000000000000000e+01
0.0000000000000000e+00 1.1002000000000001e+01
0.0000000000000000e+00 1.1000000000000000e+01
ITEM: ATOMS id type x y z 
10 1 4.58276 4.58694 4.5816 
11 1 3.08339 3.08239 3.08154 
12 1 3.79132 3.79277 3.7898 
46 1 0.746899 0.747364 0.75135 
47 1 2.28032 2.27892 2.27841 
48 1 1.57118 1.57065 1.57222 
19 1 4.51174 4.51469 6.21897 
20 1 2.99265 2.9927 7.78778 
21 1 3.69145 3.69284 7.06611 
31 1 0.684844 0.679541 10.1088 
32 1 2.18447 2.18369 8.59213 
33 1 1.47979 1.47688 9.30482 
16 1 4.53398 6.24445 4.53768 
17 1 2.99743 7.77879 2.99424 
18 1 3.70338 7.07386 3.70336 
25 1 0.687008 10.1075 0.683818 
26 1 2.18626 8.58729 2.18624 
27 1 1.48212 9.30129 1.48061 
4 1 4.45414 6.13737 6.13385 
5 1 3.07623 7.6975 7.69395 
6 1 3.72701 6.96066 6.95712 
37 1 0.760045 10.044 10.0468 
38 1 2.27739 8.50443 8.50417 
39 1 1.57714 9.21495 9.21608 
13 1 6.2385 4.54342 4.53465 
14 1 7.77322 3.00202 2.9992 
15 1 7.06771 3.7106 3.70504 
28 1 10.105 0.687548 0.689731 
29 1 8.583 2.18936 2.19093 
30 1 9.2973 1.48452 1.48637 
1 1 6.15518 4.472 6.13848 
2 1 7.70293 3.07112 7.70014 
3 1 6.97321 3.73159 6.96386 
40 1 10.0456 0.756416 10.0508 
41 1 8.50653 2.27128 8.50754 
42 1 9.21734 1.57164 9.22029 
51 3 5.82395 5.49426 9.28842 
7 1 6.16916 6.1748 4.53727 
8 1 7.70415 7.70289 3.07144 
9 1 6.98162 6.9836 3.76141 
43 1 10.0466 10.0491 0.761624 
44 1 8.50387 8.50346 2.26894 
45 1 9.21682 9.21777 1.57234 
22 1 6.19935 6.21617 6.36477 
23 1 7.84777 7.83582 7.72366 
24 1 7.16651 7.14754 6.98201 
34 1 10.1252 10.1219 10.1257 
35 1 8.61258 8.61435 8.6245 
36 1 9.3221 9.32146 9.32867 
49 2 5.76087 5.98842 7.42671 
50 2 6.57103 5.91345 8.93808 
ITEM: TIMESTEP
91
ITEM: NUMBER OF ATOMS
51
ITEM: BOX BOUNDS pp pp pp
0.0000000000000000e+00 1.1000000000000000e+01
0.0000000000000000e+00 1.1002000000000001e+01
0.0000000000000000e+00 1.1000000000000000e+01
ITEM: ATOMS id type x y z 
10 1 4.58276 4.58694 4.5816 
11 1 3.08339 3.08239 3.08154 
12 1 3.79132 3.79277 3.7898 
46 1 0.746899 0.747364 0.75135 
47 1 2.28032 2.27892 2.27841 
48 1 1.57118 1.57065 1.57221 
19 1 4.51174 4.51469 6.21897 
20 1 2.99265 2.9927 7.78778 
21 1 3.69145 3.69284 7.06611 
31 1 0.684844 0.679541 10.1088 
32 1 2.18447 2.18369 8.59213 
33 1 1.47979 1.47688 9.30482 
16 1 4.53398 6.24446 4.53768 
17 1 2.99743 7.77879 2.99424 
18 1 3.70338 7.07386 3.70336 
25 1 0.687008 10.1075 0.683818 
26 1 2.18626 8.58729 2.18624 
27 1 1.48212 9.30129 1.48061 
4 1 4.45414 6.13737 6.13385 
5 1 3.07623 7.6975 7.69395 
6 1 3.72701 6.96066 6.95712 
37 1 0.760045 10.044 10.0468 
38 1 2.27739 8.50443 8.50417 
39 1 1.57714 9.21495 9.21608 
13 1 6.2385 4.54342 4.53465 
14 1 7.77322 3.00202 2.9992 
15 1 7.06771 3.7106 3.70504 
28 1 10.105 0.687548 0.689731 
29 1 8.583 2.18936 2.19093 
30 1 9.2973 1.48452 1.48637 
1 1 6.15518 4.472 6.13848 
2 1 7.70293 3.07112 7.70014 
3 1 6.97321 3.73159 6.96386 
40 1 10.0456 0.756416 10.0508 
41 1 8.50653 2.27128 8.50754 
42 1 9.21734 1.57164 9.22029 
51 3 5.82395 5.49426 9.28842 
7 1 6.16916 6.1748 4.53727 
8 1 7.70415 7.70289 3.07144 
9 1 6.98162 6.9836 3.76141 
43 1 10.0466 10.0491 0.761624 
44 1 8.50387 8.50346 2.26894 
45 1 9.21682 9.21777 1.57234 
22 1 6.19935 6.21617 6.36477 
23 1 7.84777 7.83582 7.72366 
24 1 7.16651 7.14754 6.98201 
34 1 10.1252 10.1219 10.1257 
35 1 8.61258 8.61435 8.6245 
36 1 9.3221 9.32146 9.32867 
49 2 5.76087 5.98842 7.42671 
50 2 6.57103 5.91345 8.93808 
ITEM: TIMESTEP
100
ITEM: NUMBER OF ATOMS
51
ITEM: BOX BOUNDS pp pp pp
-4.9500000000000004e-03 1.1004950000000004e+01
-4.8487094436281191e-03 1.1006848709443629e+01
-4.6104878911057655e-03 1.1004610487891105e+01
ITEM: ATOMS id type x y z 
10 1 4.58197 4.58617 4.58086 
11 1 3.08122 3.08027 3.07952 
12 1 3.78977 3.79125 3.78835 
46 1 0.742599 0.743151 0.747348 
47 1 2.27742 2.27607 2.2757 
48 1 1.56763 1.56716 1.5689 
19 1 4.51086 4.51384 6.21955 
20 1 2.9904 2.9905 7.78969 
21 1 3.68984 3.69126 7.0674 
31 1 0.680482 0.675262 10.1127 
32 1 2.18148 2.18075 8.59473 
33 1 1.47618 1.47334 9.308 
16 1 4.53312 6.24509 4.5369 
17 1 2.99519 7.78078 2.99215 
18 1 3.70178 7.07523 3.70187 
25 1 0.682651 10.1116 0.679754 
26 1 2.18327 8.59002 2.18345 
27 1 1.47851 9.30462 1.47725 
4 1 4.4532 6.1379 6.13435 
5 1 3.07405 7.69942 7.69578 
6 1 3.7254 6.96195 6.95836 
37 1 0.755756 10.0481 10.0506 
38 1 2.27449 8.50709 8.5067 
39 1 1.57359 9.21824 9.21922 
13 1 6.23915 4.54259 4.53386 
14 1 7.77525 2.99983 2.99711 
15 1 7.06911 3.70903 3.70355 
28 1 10.1091 0.683279 0.68567 
29 1 8.58578 2.18644 2.18814 
30 1 9.30071 1.48099 1.48302 
1 1 6.15574 4.4711 6.13899 
2 1 7.7049 3.06898 7.70197 
3 1 6.97455 3.73002 6.96509 
40 1 10.0497 0.752212 10.0546 
41 1 8.50924 2.26843 8.51007 
42 1 9.22071 1.56816 9.22342 
51 3 5.82424 5.49426 9.29159 
7 1 6.16973 6.17536 4.53647 
8 1 7.70613 7.70483 3.06941 
9 1 6.98296 6.98492 3.75995 
43 1 10.0507 10.0531 0.75763 
44 1 8.50658 8.50612 2.26622 
45 1 9.22019 9.22106 1.56904 
22 1 6.19997 6.2168 6.36549 
23 1 7.84987 7.83787 7.7255 
24 1 7.16803 7.14901 6.98326 
34 1 10.1294 10.126 10.1296 
35 1 8.61539 8.6171 8.62712 
36 1 9.32553 9.32483 9.33187 
49 2 5.7611 5.98885 7.42832 
50 2 6.57199 5.91381 8.94097 
ITEM: TIMESTEP
110
ITEM: NUMBER OF ATOMS
51
ITEM: BOX BOUNDS pp pp pp
-1.0450000000000001e-02 1.1010450000000009e+01
-8.6842099929497502e-03 1.1010684209992954e+01
-4.3474193255867277e-03 1.1004347419325587e+01
ITEM: ATOMS id type x y z 
10 1 4.58171 4.58622 4.58166 
11 1 3.07903 3.07882 3.07984 
12 1 3.78782 3.78981 3.7882 
46 1 0.737292 0.739297 0.747044 
47 1 2.27386 2.27348 2.27552 
48 1 1.56337 1.56409 1.56877 
19 1 4.51025 4.51358 6.21901 
20 1 2.98822 2.98906 7.78923 
21 1 3.68837 3.69036 7.06693 
31 1 0.674982 0.671226 10.1131 
32 1 2.17796 2.17823 8.59482 
33 1 1.47239 1.47077 9.30759 
16 1 4.53253 6.24511 4.53742 
17 1 2.99305 7.78202 2.99261 
18 1 3.70028 7.07599 3.70229 
25 1 0.677177 10.1155 0.67932 
26 1 2.17977 8.59238 2.18342 
27 1 1.47475 9.30702 1.47769 
4 1 4.4523 6.13754 6.1335 
5 1 3.0718 7.70076 7.69549 
6 1 3.72323 6.96316 6.95846 
37 1 0.750493 10.0517 10.0509 
38 1 2.27096 8.50954 8.5069 
39 1 1.56936 9.22116 9.21937 
13 1 6.23941 4.54231 4.53438 
14 1 7.77719 2.99844 2.99756 
15 1 7.07034 3.70809 3.70395 
28 1 10.1144 0.679267 0.685232 
29 1 8.58906 2.18394 2.18811 
30 1 9.30426 1.47844 1.48346 
1 1 6.15566 4.47053 6.1382 
2 1 7.70693 3.06746 7.7017 
3 1 6.9762 3.72841 6.96515 
40 1 10.0548 0.748372 10.0549 
41 1 8.51261 2.26587 8.51028 
42 1 9.22475 1.56511 9.22358 
51 3 5.82451 5.4943 9.29134 
7 1 6.16968 6.17514 4.53668 
8 1 7.7082 7.70623 3.0697 
9 1 6.98454 6.98606 3.75979 
43 1 10.0558 10.0569 0.757321 
44 1 8.50996 8.50858 2.26604 
45 1 9.22425 9.22399 1.5689 
22 1 6.20051 6.21712 6.36526 
23 1 7.85199 7.83924 7.72494 
24 1 7.17004 7.15051 6.98356 
34 1 10.1347 10.1298 10.1301 
35 1 8.61873 8.61948 8.62712 
36 1 9.32909 9.32725 9.33142 
49 2 5.7613 5.98911 7.42816 
50 2 6.57313 5.91407 8.94098 
ITEM: TIMESTEP
120
ITEM: NUMBER OF ATOMS
51
ITEM: BOX BOUNDS pp pp pp
-1.5950000000000002e-02 1.1015950000000014e+01
-1.2200132786208070e-02 1.1014200132786213e+01
-2.7805067991783605e-03 1.1002780506799178e+01
ITEM: ATOMS id type x y z 
10 1 4.58168 4.58653 4.58289 
11 1 3.07687 3.07752 3.08074 
12 1 3.78582 3.78844 3.78843 
46 1 0.731787 0.735526 0.747684 
47 1 2.27002 2.2708 2.27582 
48 1 1.55916 1.56132 1.56963 
19 1 4.50977 4.51352 6.21813 
20 1 2.98632 2.98805 7.78795 
21 1 3.68681 3.68947 7.06615 
31 1 0.669264 0.667247 10.1127 
32 1 2.17442 2.17588 8.59419 
33 1 1.46865 1.46849 9.30624 
16 1 4.53207 6.24492 4.53831 
17 1 2.9912 7.78285 2.99395 
18 1 3.6987 7.07671 3.70305 
25 1 0.671491 10.1193 0.679818 
26 1 2.17625 8.59457 2.18415 
27 1 1.47105 9.30916 1.47915 
4 1 4.45148 6.13691 6.13226 
5 1 3.06955 7.70196 7.69466 
6 1 3.72093 6.9643 6.95825 
37 1 0.745033 10.0553 10.0503 
38 1 2.26719 8.51209 8.50667 
39 1 1.56519 9.22381 9.21858 
13 1 6.23949 4.54223 4.53527 
14 1 7.77885 2.99748 2.99887 
15 1 7.07162 3.70718 3.70472 
28 1 10.1199 0.675331 0.685737 
29 1 8.59237 2.18162 2.18885 
30 1 9.30775 1.47619 1.4849 
1 1 6.15536 4.47007 6.13701 
2 1 7.70894 3.06608 7.70087 
3 1 6.97788 3.72681 6.96493 
40 1 10.06 0.744614 10.0544 
41 1 8.51626 2.26324 8.51006 
42 1 9.22875 1.56234 9.22281 
51 3 5.82478 5.49436 9.29014 
7 1 6.16944 6.17468 4.53722 
8 1 7.71025 7.70747 3.07066 
9 1 6.98613 6.98713 3.75988 
43 1 10.061 10.0605 0.757946 
44 1 8.51362 8.51115 2.26636 
45 1 9.22825 9.22667 1.56975 
22 1 6.20102 6.21738 6.36476 
23 1 7.85414 7.84049 7.7238 
24 1 7.17199 7.15185 6.98346 
34 1 10.1401 10.1336 10.1296 
35 1 8.62213 8.62175 8.62641 
36 1 9.33263 9.3294 9.33 
49 2 5.76148 5.98932 7.4275 
50 2 6.57428 5.91429 8.94025 
ITEM: TIMESTEP
130
ITEM: NUMBER OF ATOMS
51
ITEM: BOX BOUNDS pp pp pp
-2.1318155750684558e-02 1.1021318155750704e+01
-1.5728712921744579e-02 1.1017728712921750e+01
-1.5343686779171453e-03 1.1001534368677914e+01
ITEM: ATOMS id type x y z 
10 1 4.5817 4.58686 4.58409 
11 1 3.07475 3.0762 3.08148 
12 1 3.78388 3.78707 3.78855 
46 1 0.726339 0.731693 0.748009 
47 1 2.26616 2.26801 2.27582 
48 1 1.55512 1.5586 1.57033 
19 1 4.50935 4.51347 6.21724 
20 1 2.98459 2.98713 7.78668 
21 1 3.6852 3.6885 7.06553 
31 1 0.663631 0.663229 10.1126 
32 1 2.17097 2.17353 8.59374 
33 1 1.46501 1.46619 9.30511 
16 1 4.53168 6.24468 4.53916 
17 1 2.9895 7.7836 2.99523 
18 1 3.69709 7.0775 3.70363 
25 1 0.665896 10.1232 0.680019 
26 1 2.17282 8.59676 2.1847 
27 1 1.46744 9.31131 1.48037 
4 1 4.45072 6.13623 6.13106 
5 1 3.06731 7.70318 7.69399 
6 1 3.71866 6.96544 6.95812 
37 1 0.739627 10.059 10.05 
38 1 2.26338 8.51477 8.50672 
39 1 1.56117 9.22641 9.21795 
13 1 6.23949 4.54219 4.53614 
14 1 7.78034 2.99661 3.00014 
15 1 7.07293 3.70621 3.70532 
28 1 10.1253 0.671364 0.685948 
29 1 8.59559 2.1793 2.18941 
30 1 9.31115 1.47393 1.48611 
1 1 6.155 4.46964 6.13584 
2 1 7.7109 3.06466 7.70019 
3 1 6.97953 3.72517 6.96478 
40 1 10.0652 0.740792 10.0541 
41 1 8.51995 2.2605 8.51013 
42 1 9.23259 1.55962 9.22218 
51 3 5.82504 5.49444 9.28914 
7 1 6.16914 6.17418 4.53772 
8 1 7.71221 7.70869 3.07146 
9 1 6.98773 6.98824 3.75989 
43 1 10.0663 10.0642 0.758262 
44 1 8.51733 8.51385 2.26641 
45 1 9.23211 9.22928 1.57043 
22 1 6.20156 6.21766 6.3643 
23 1 7.85627 7.84177 7.72278 
24 1 7.17379 7.15309 6.98338 
34 1 10.1455 10.1375 10.1295 
35 1 8.62546 8.62404 8.62585 
36 1 9.33611 9.33159 9.32887 
49 2 5.76165 5.98951 7.4269 
50 2 6.57541 5.91449 8.93977 
ITEM: TIMESTEP
140
ITEM: NUMBER OF ATOMS
51
ITEM: BOX BOUNDS pp pp pp
-2.6723366259556392e-02 1.1026723366259580e+01
-1.9415966799512796e-02 1.1021415966799520e+01
-7.4112303553477369e-04 1.1000741123035530e+01
ITEM: ATOMS id type x y z 
10 1 4.58179 4.58723 4.58527 
11 1 3.07262 3.07483 3.08203 
12 1 3.7819 3.78563 3.78852 
46 1 0.720753 0.727632 0.747859 
47 1 2.26218 2.26503 2.27547 
48 1 1.55105 1.55576 1.57073 
19 1 4.50897 4.51345 6.21632 
20 1 2.98291 2.98624 7.78551 
21 1 3.68358 3.68743 7.06505 
31 1 0.6579 0.659023 10.1129 
32 1 2.1675 2.17111 8.59359 
33 1 1.46135 1.46376 9.30423 
16 1 4.5314 6.24435 4.53997 
17 1 2.98787 7.78432 2.9964 
18 1 3.69548 7.07835 3.70404 
25 1 0.660215 10.1273 0.67978 
26 1 2.16938 8.59907 2.18498 
27 1 1.46382 9.31349 1.48126 
4 1 4.44997 6.13548 6.12983 
5 1 3.06499 7.70445 7.69348 
6 1 3.71638 6.96665 6.95817 
37 1 0.734086 10.0629 10.0502 
38 1 2.25947 8.51765 8.50713 
39 1 1.55713 9.22912 9.21761 
13 1 6.23939 4.54225 4.53699 
14 1 7.78176 2.99578 3.0013 
15 1 7.07424 3.70518 3.70575 
28 1 10.1308 0.667211 0.685699 
29 1 8.59884 2.17689 2.18967 
30 1 9.31457 1.47156 1.48707 
1 1 6.1546 4.46926 6.13466 
2 1 7.7129 3.06318 7.69967 
3 1 6.98116 3.72337 6.96477 
40 1 10.0705 0.736737 10.0543 
41 1 8.52377 2.25759 8.51055 
42 1 9.23646 1.5568 9.22185 
51 3 5.8253 5.49455 9.28842 
7 1 6.16875 6.17362 4.53819 
8 1 7.71415 7.70996 3.07208 
9 1 6.98936 6.98939 3.75972 
43 1 10.0716 10.0681 0.758101 
44 1 8.52115 8.51673 2.26609 
45 1 9.23599 9.23201 1.5708 
22 1 6.20213 6.21799 6.36386 
23 1 7.85839 7.8431 7.72184 
24 1 7.17555 7.15432 6.98342 
34 1 10.151 10.1415 10.1297 
35 1 8.62886 8.62645 8.62555 
36 1 9.33962 9.33391 9.32802 
49 2 5.76181 5.9897 7.42641 
50 2 6.57656 5.91469 8.93965 
ITEM: TIMESTEP
150
ITEM: NUMBER OF ATOMS
51
ITEM: BOX BOUNDS pp pp pp
-3.0152832010967839e-02 1.1030152832010996e+01
-2.1710349320372933e-02 1.1023710349320380e+01
-1.0664755552210528e-04 1.1000106647555516e+01
ITEM: ATOMS id type x y z 
10 1 4.582 4.58762 4.58618 
11 1 3.07131 3.07402 3.08244 
12 1 3.78059 3.78467 3.7885 
46 1 0.717036 0.724929 0.747748 
47 1 2.25951 2.26303 2.27519 
48 1 1.54844 1.55397 1.57105 
19 1 4.50886 4.51355 6.21558 
20 1 2.98198 2.98581 7.78458 
21 1 3.68255 3.68679 7.06466 