LAMMPS (3 Mar 2020)
Reading data file ...
  orthogonal box = (0 0 0) to (11 11.002 11)
  2 by 2 by 2 MPI processor grid
  reading atoms ...
  51 atoms
  read_data CPU = 0.00368544 secs
WARNING: Changed valency_val to valency_boc for X (../reaxc_ffield.cpp:315)
WARNING: Using 'neigh_modify every 1 delay 0 check yes' setting during minimization (../min.cpp:190)
Neighbor list info ...
  update every 1 steps, delay 0 steps, check yes
  max neighbors/atom: 2000, page size: 100000
  master list distance cutoff = 12
  ghost atom cutoff = 12
  binsize = 6, bins = 2 2 2
  2 neighbor lists, perpetual/occasional/extra = 2 0 0
  (1) pair reax/c, perpetual
      attributes: half, newton off, ghost
      pair build: half/bin/newtoff/ghost
      stencil: half/ghost/bin/3d/newtoff
      bin: standard
  (2) fix qeq/reax, perpetual, copy from (1)
      attributes: half, newton off, ghost
      pair build: copy
      stencil: none
      bin: none
Setting up cg style minimization ...
  Unit style    : real
  Current step  : 0
Per MPI rank memory allocation (min/avg/max) = 25.32 | 25.59 | 25.89 Mbytes
Step Temp E_pair E_mol TotEng Press 
       0            0   -8688.8821            0   -8688.8821    125209.65 
      88            0   -8848.7679            0   -8848.7679    64259.622 
Loop time of 4.26963 on 8 procs for 88 steps with 51 atoms

98.9% CPU use with 8 MPI tasks x no OpenMP threads

Minimization stats:
  Stopping criterion = energy tolerance
  Energy initial, next-to-last, final = 
        -8688.88205598     -8848.76778959     -8848.76786255
  Force two-norm initial, final = 1214.85 76.6908
  Force max component initial, final = 295.546 18.8921
  Final line search alpha, max atom move = 2.30397e-08 4.35267e-07
  Iterations, force evaluations = 88 814

MPI task timing breakdown:
Section |  min time  |  avg time  |  max time  |%varavg| %total
---------------------------------------------------------------
Pair    | 3.5119     | 3.5933     | 3.685      |   2.6 | 84.16
Neigh   | 0          | 0          | 0          |   0.0 |  0.00
Comm    | 0.044398   | 0.13532    | 0.21623    |  13.2 |  3.17
Output  | 0.00026576 | 0.00033275 | 0.00050657 |   0.0 |  0.01
Modify  | 0.53084    | 0.53126    | 0.53196    |   0.1 | 12.44
Other   |            | 0.009429   |            |       |  0.22

Nlocal:    6.375 ave 8 max 6 min
Histogram: 6 0 0 0 0 1 0 0 0 1
Nghost:    989.375 ave 1006 max 974 min
Histogram: 2 2 0 0 0 0 0 2 0 2
Neighs:    1831.38 ave 2285 max 1711 min
Histogram: 6 0 0 0 1 0 0 0 0 1

Total # of neighbors = 14651
Ave neighs/atom = 287.275
Neighbor list builds = 0
Dangerous builds = 0
WARNING: Using 'neigh_modify every 1 delay 0 check yes' setting during minimization (../min.cpp:190)
Setting up cg style minimization ...
  Unit style    : real
  Current step  : 88
Per MPI rank memory allocation (min/avg/max) = 25.32 | 25.59 | 25.89 Mbytes
Step Temp E_pair E_mol TotEng Press 
      88            0   -8848.7679            0   -8848.7679    64259.622 
      91            0   -8848.7682            0   -8848.7682    64259.412 
Loop time of 0.299557 on 8 procs for 3 steps with 51 atoms

99.0% CPU use with 8 MPI tasks x no OpenMP threads

Minimization stats:
  Stopping criterion = energy tolerance
  Energy initial, next-to-last, final = 
        -8848.76786283     -8848.76817724     -8848.76819079
  Force two-norm initial, final = 76.6908 70.8505
  Force max component initial, final = 18.8921 17.9285
  Final line search alpha, max atom move = 5.24441e-09 9.40242e-08
  Iterations, force evaluations = 3 59

MPI task timing breakdown:
Section |  min time  |  avg time  |  max time  |%varavg| %total
---------------------------------------------------------------
Pair    | 0.25156    | 0.26009    | 0.2649     |   0.8 | 86.82
Neigh   | 0          | 0          | 0          |   0.0 |  0.00
Comm    | 0.0051224  | 0.0099144  | 0.018426   |   4.2 |  3.31
Output  | 2.9065e-05 | 3.6159e-05 | 5.353e-05  |   0.0 |  0.01
Modify  | 0.028766   | 0.028784   | 0.028817   |   0.0 |  9.61
Other   |            | 0.0007323  |            |       |  0.24

Nlocal:    6.375 ave 8 max 6 min
Histogram: 6 0 0 0 0 1 0 0 0 1
Nghost:    980.375 ave 998 max 962 min
Histogram: 2 0 1 1 0 0 1 1 0 2
Neighs:    1838.38 ave 2295 max 1717 min
Histogram: 6 0 0 0 1 0 0 0 0 1

Total # of neighbors = 14707
Ave neighs/atom = 288.373
Neighbor list builds = 0
Dangerous builds = 0
WARNING: Using 'neigh_modify every 1 delay 0 check yes' setting during minimization (../min.cpp:190)
Setting up cg style minimization ...
  Unit style    : real
  Current step  : 91
WARNING: Energy due to 3 extra global DOFs will be included in minimizer energies
Per MPI rank memory allocation (min/avg/max) = 25.32 | 25.59 | 25.89 Mbytes
Step Temp E_pair E_mol TotEng Press Volume 
      91            0   -8848.7682            0   -8848.7682    64259.437     1331.242 
     347            0   -8863.0277            0   -8863.0277    1033.5117    1358.4999 
Loop time of 2.3294 on 8 procs for 256 steps with 51 atoms

99.0% CPU use with 8 MPI tasks x no OpenMP threads

Minimization stats:
  Stopping criterion = energy tolerance
  Energy initial, next-to-last, final = 
        -8848.76818534       -8863.027625     -8863.02770607
  Force two-norm initial, final = 2162.13 60.7099
  Force max component initial, final = 1259.71 20.5136
  Final line search alpha, max atom move = 3.07326e-07 6.30434e-06
  Iterations, force evaluations = 256 481

MPI task timing breakdown:
Section |  min time  |  avg time  |  max time  |%varavg| %total
---------------------------------------------------------------
Pair    | 1.9864     | 2.0463     | 2.0777     |   2.0 | 87.85
Neigh   | 0          | 0          | 0          |   0.0 |  0.00
Comm    | 0.036093   | 0.067263   | 0.12716    |  11.2 |  2.89
Output  | 0.0006931  | 0.00088505 | 0.0013642  |   0.0 |  0.04
Modify  | 0.20047    | 0.20057    | 0.20073    |   0.0 |  8.61
Other   |            | 0.01435    |            |       |  0.62

Nlocal:    6.375 ave 8 max 6 min
Histogram: 6 0 0 0 0 1 0 0 0 1
Nghost:    980.375 ave 998 max 962 min
Histogram: 2 0 1 1 0 0 1 1 0 2
Neighs:    1838.38 ave 2295 max 1717 min
Histogram: 6 0 0 0 1 0 0 0 0 1

Total # of neighbors = 14707
Ave neighs/atom = 288.373
Neighbor list builds = 0
Dangerous builds = 0
WARNING: Using 'neigh_modify every 1 delay 0 check yes' setting during minimization (../min.cpp:190)
Setting up cg style minimization ...
  Unit style    : real
  Current step  : 347
Per MPI rank memory allocation (min/avg/max) = 25.32 | 25.59 | 25.89 Mbytes
Step Temp E_pair E_mol TotEng Press 
     347            0   -8863.0277            0   -8863.0277    1033.5167 
     355            0   -8863.0303            0   -8863.0303    929.16595 
Loop time of 0.593608 on 8 procs for 8 steps with 51 atoms

99.0% CPU use with 8 MPI tasks x no OpenMP threads

Minimization stats:
  Stopping criterion = energy tolerance
  Energy initial, next-to-last, final = 
        -8863.02770479     -8863.03017036     -8863.03025595
  Force two-norm initial, final = 49.4435 46.9715
  Force max component initial, final = 11.5732 11.4362
  Final line search alpha, max atom move = 3.56342e-07 4.07519e-06
  Iterations, force evaluations = 8 133

MPI task timing breakdown:
Section |  min time  |  avg time  |  max time  |%varavg| %total
---------------------------------------------------------------
Pair    | 0.49994    | 0.51336    | 0.52059    |   0.9 | 86.48
Neigh   | 0          | 0          | 0          |   0.0 |  0.00
Comm    | 0.0086463  | 0.015864   | 0.029318   |   5.2 |  2.67
Output  | 3.9433e-05 | 4.7066e-05 | 6.6825e-05 |   0.0 |  0.01
Modify  | 0.062969   | 0.063005   | 0.063069   |   0.0 | 10.61
Other   |            | 0.001333   |            |       |  0.22

Nlocal:    6.375 ave 9 max 6 min
Histogram: 7 0 0 0 0 0 0 0 0 1
Nghost:    928.625 ave 953 max 902 min
Histogram: 1 0 1 0 3 0 0 1 1 1
Neighs:    1808.12 ave 2522 max 1688 min
Histogram: 7 0 0 0 0 0 0 0 0 1

Total # of neighbors = 14465
Ave neighs/atom = 283.627
Neighbor list builds = 0
Dangerous builds = 0
WARNING: Using 'neigh_modify every 1 delay 0 check yes' setting during minimization (../min.cpp:190)
Setting up cg style minimization ...
  Unit style    : real
  Current step  : 355
WARNING: Energy due to 3 extra global DOFs will be included in minimizer energies
Per MPI rank memory allocation (min/avg/max) = 25.32 | 25.59 | 25.89 Mbytes
Step Temp E_pair E_mol TotEng Press Volume 
     355            0   -8863.0303            0   -8863.0303    929.18604    1358.4999 
     359            0   -8863.0309            0   -8863.0309    394.97249    1358.5314 
Loop time of 0.133495 on 8 procs for 4 steps with 51 atoms

98.5% CPU use with 8 MPI tasks x no OpenMP threads

Minimization stats:
  Stopping criterion = energy tolerance
  Energy initial, next-to-last, final = 
        -8863.03025109     -8863.03080352     -8863.03085277
  Force two-norm initial, final = 56.772 50.671
  Force max component initial, final = 18.5373 11.7002
  Final line search alpha, max atom move = 3.6064e-08 4.21956e-07
  Iterations, force evaluations = 4 30

MPI task timing breakdown:
Section |  min time  |  avg time  |  max time  |%varavg| %total
---------------------------------------------------------------
Pair    | 0.1157     | 0.11881    | 0.12034    |   0.4 | 89.00
Neigh   | 0          | 0          | 0          |   0.0 |  0.00
Comm    | 0.0014509  | 0.0030367  | 0.0063043  |   2.9 |  2.27
Output  | 0          | 0          | 0          |   0.0 |  0.00
Modify  | 0.010657   | 0.010681   | 0.010698   |   0.0 |  8.00
Other   |            | 0.0009699  |            |       |  0.73

Nlocal:    6.375 ave 9 max 6 min
Histogram: 7 0 0 0 0 0 0 0 0 1
Nghost:    928.625 ave 953 max 902 min
Histogram: 1 0 1 0 3 0 0 1 1 1
Neighs:    1808.12 ave 2522 max 1688 min
Histogram: 7 0 0 0 0 0 0 0 0 1

Total # of neighbors = 14465
Ave neighs/atom = 283.627
Neighbor list builds = 0
Dangerous builds = 0
WARNING: Using 'neigh_modify every 1 delay 0 check yes' setting during minimization (../min.cpp:190)
Setting up cg style minimization ...
  Unit style    : real
  Current step  : 359
Per MPI rank memory allocation (min/avg/max) = 25.32 | 25.59 | 25.89 Mbytes
Step Temp E_pair E_mol TotEng Press 
     359            0   -8863.0309            0   -8863.0309    394.95756 
     360            0   -8863.0309            0   -8863.0309    394.66892 
Loop time of 0.0964471 on 8 procs for 1 steps with 51 atoms

98.6% CPU use with 8 MPI tasks x no OpenMP threads

Minimization stats:
  Stopping criterion = energy tolerance
  Energy initial, next-to-last, final = 
        -8863.03085634     -8863.03085634     -8863.03091784
  Force two-norm initial, final = 48.8238 45.2001
  Force max component initial, final = 11.7002 10.2808
  Final line search alpha, max atom move = 3.26037e-08 3.35193e-07
  Iterations, force evaluations = 1 21

MPI task timing breakdown:
Section |  min time  |  avg time  |  max time  |%varavg| %total
---------------------------------------------------------------
Pair    | 0.082147   | 0.084535   | 0.085677   |   0.4 | 87.65
Neigh   | 0          | 0          | 0          |   0.0 |  0.00
Comm    | 0.0010519  | 0.0021909  | 0.0045824  |   2.5 |  2.27
Output  | 0          | 0          | 0          |   0.0 |  0.00
Modify  | 0.009426   | 0.0094382  | 0.0094469  |   0.0 |  9.79
Other   |            | 0.0002827  |            |       |  0.29

Nlocal:    6.375 ave 9 max 6 min
Histogram: 7 0 0 0 0 0 0 0 0 1
Nghost:    928.625 ave 953 max 902 min
Histogram: 1 0 1 0 3 0 0 1 1 1
Neighs:    1808.12 ave 2522 max 1688 min
Histogram: 7 0 0 0 0 0 0 0 0 1

Total # of neighbors = 14465
Ave neighs/atom = 283.627
Neighbor list builds = 0
Dangerous builds = 0
Setting up Verlet run ...
  Unit style    : real
  Current step  : 0
  Time step     : 0.25
Per MPI rank memory allocation (min/avg/max) = 24.2 | 24.47 | 24.77 Mbytes
Step Temp TotEng KinEng PotEng Press 
       0          300   -8818.3188    44.712151   -8863.0309    1899.1689 
     200    263.74631    -8799.402    39.308883   -8838.7109    25347.426 
     400    411.31014   -8845.6689     61.30187   -8906.9708    -33514.15 
     600    259.36704   -8888.5034    38.656194   -8927.1596   -37539.704 
     800    311.06162    -8891.965     46.36078   -8938.3258    -34829.91 
    1000    377.07745     -8869.16    56.199812   -8925.3598    8163.6578 
    1200    303.63987   -8884.3113    45.254639   -8929.5659    51889.144 
    1400    272.43334   -8886.9909    40.603601   -8927.5945   -20827.056 
    1600    382.00579    -8870.516    56.934334   -8927.4503   -2509.8991 
    1800    327.12364   -8884.5694    48.754672    -8933.324    6882.3305 
    2000    265.25773   -8886.4667    39.534146   -8926.0008   -38617.142 
    2200    279.37506   -8883.2236    41.638199   -8924.8618    13081.961 
    2400    327.69506   -8872.6171    48.839836   -8921.4569    56001.952 
    2600    324.54511   -8869.3132    48.370366   -8917.6836     4757.633 
    2800    258.18538   -8884.2248    38.480079   -8922.7049   -17253.578 
    3000    235.67892   -8884.3799    35.125704   -8919.5056    14567.733 
    3200    301.30683    -8868.901    44.906922   -8913.8079   -25092.642 
    3400     294.4455   -8883.5164    43.884305   -8927.4007    14811.075 
    3600    296.94581   -8878.9813    44.256953   -8923.2382   -1056.9475 
    3800    304.11955   -8877.0791     45.32613   -8922.4052   -33234.841 
    4000    270.80723   -8882.8996    40.361246   -8923.2608   -45009.241 
    4200    329.30371   -8872.5856     49.07959   -8921.6652    27473.937 
    4400    360.44046   -8872.3492    53.720227   -8926.0694     2804.342 
    4600    265.55186   -8884.6117    39.577983   -8924.1897    11943.038 
    4800    319.80921    -8876.448    47.664525   -8924.1125    21331.979 
    5000    328.66561   -8876.1123    48.984487   -8925.0968   -14629.499 
    5200    319.76179   -8874.1561    47.657459   -8921.8136   -13002.132 
    5400    254.59076   -8890.0263    37.944334   -8927.9706   -1724.5954 
    5600    296.50047   -8878.1529    44.190579   -8922.3435   -12819.626 
    5800    362.28002   -8874.0369    53.994396   -8928.0313   -23462.699 
    6000    275.13018   -8889.3143    41.005541   -8930.3199   -37007.434 
    6200    262.75486   -8876.6478    39.161116   -8915.8089   -26636.898 
    6400    274.62634   -8874.3052    40.930447   -8915.2357   -35051.358 
    6600    251.59407   -8879.4006    37.497707   -8916.8983   -38797.082 
    6800    346.15985   -8879.3127    51.591838   -8930.9046    15482.866 
    7000    388.63672   -8862.8427    57.922612   -8920.7653     -8127.61 
    7200    378.97634    -8874.496    56.482824   -8930.9788    2850.6626 
    7400    305.38851   -8878.0873    45.515257   -8923.6026   -27241.021 
    7600    367.56936   -8863.7578    54.782722   -8918.5405   -17207.724 
    7800    247.69109   -8882.1218    36.916005   -8919.0378    37389.616 
    8000    285.25196   -8874.0825    42.514096   -8916.5966    20720.564 
    8200    348.82105   -8871.8779    51.988465   -8923.8664   -19424.507 
    8400    287.66691   -8887.4474    42.874021   -8930.3214   -5413.8131 
    8600    345.36396   -8871.9964    51.473219   -8923.4696   -53778.182 
    8800    317.38029   -8874.4714    47.302518   -8921.7739    41147.841 
    9000    276.75886   -8886.0601     41.24828   -8927.3084    14251.227 
    9200    281.27697   -8874.0256    41.921661   -8915.9473    4125.8065 
    9400     274.4148   -8871.7217     40.89892   -8912.6206   -8223.3318 
    9600    275.20732   -8882.0194    41.017038   -8923.0365   -1323.9013 
    9800    308.50169   -8880.8933    45.979247   -8926.8726   -22588.466 
   10000    358.64955   -8867.9863    53.453309   -8921.4396   -32219.162 
   10200    333.23189   -8882.6106    49.665048   -8932.2756    15893.294 
   10400    288.31389   -8878.7511    42.970447   -8921.7215    13503.594 
   10600    287.76322     -8873.75    42.888374   -8916.6384    6845.2185 
   10800    251.82338   -8883.1405    37.531884   -8920.6724    16592.254 
   11000    347.19114   -8872.7377    51.745543   -8924.4833    5435.1735 
   11200    368.02832   -8867.2766    54.851125   -8922.1278   -22819.239 
   11400    308.53538   -8882.7823    45.984268   -8928.7666   -8426.3443 
   11600    288.60793   -8875.9188    43.014271   -8918.9331    -47327.71 
   11800    331.75616   -8870.6031    49.445105   -8920.0482   -13247.141 
   12000    373.70722   -8858.3753    55.697512   -8914.0728    -14695.71 
   12200    267.98249   -8880.8305    39.940245   -8920.7707      20659.6 
   12400    290.97283   -8870.1576    43.366736   -8913.5243   -17143.902 
   12600    307.37635   -8872.8798    45.811525   -8918.6913     16648.86 
   12800    292.93453   -8879.9521    43.659109   -8923.6112    36590.535 
   13000    309.50354   -8868.5685    46.128563   -8914.6971    18691.563 
   13200    213.38038   -8886.1839    31.802319   -8917.9862   -22413.271 
   13400    289.41701   -8877.0731    43.134856    -8920.208   -12719.276 
   13600    288.75555   -8875.2203    43.036273   -8918.2565   -35819.629 
   13800    345.82814   -8857.2795      51.5424   -8908.8219    71704.728 
   14000    332.62234   -8870.5873      49.5742   -8920.1615    31338.632 
   14200    275.89617   -8880.3189    41.119704   -8921.4386     3045.771 
   14400    337.46436   -8863.1952    50.295859   -8913.4911   -15676.276 
   14600    329.49162   -8873.0219    49.107596   -8922.1295    20620.538 
   14800     291.1752    -8876.668    43.396898   -8920.0649   -5497.2339 
   15000    332.85161   -8870.8521    49.608371   -8920.4605    12224.877 
   15200    280.04119   -8886.0162     41.73748   -8927.7537    29015.009 
   15400    306.27251   -8870.8257    45.647009   -8916.4727   -28596.522 
   15600    318.94424   -8883.3216    47.535609   -8930.8572     1049.464 
   15800    259.05497   -8886.7596    38.609683   -8925.3693    15943.956 
   16000    283.87758   -8871.5292    42.309257   -8913.8385    18499.065 
   16200    241.34331   -8878.7091    35.969927    -8914.679   -33178.263 
   16400    232.61012   -8893.1109    34.668329   -8927.7792   -26392.697 
   16600    297.96693    -8876.819    44.409141   -8921.2282    24893.855 
   16800    386.99318   -8870.2736    57.677658   -8927.9513   -4455.7614 
   17000    271.19639   -8887.6659    40.419246   -8928.0851   -26615.139 
   17200    298.33567   -8880.0752    44.464098   -8924.5393    38449.253 
   17400    254.50431   -8872.8702     37.93145   -8910.8016    12022.487 
   17600    361.90308   -8862.8036    53.938216   -8916.7418   -37463.862 
   17800    342.09329   -8881.9809    50.985755   -8932.9666   -5444.8744 
   18000    367.05924   -8871.5676    54.706694   -8926.2743   -36516.358 
   18200    308.84593   -8872.5973    46.030553   -8918.6278   -13866.164 
   18400    233.85602   -8890.9512    34.854019   -8925.8052    92240.105 
   18600     317.9996    -8881.183     47.39482   -8928.5778   -9381.8356 
   18800    293.05329   -8869.1698     43.67681   -8912.8466    12228.141 
   19000    285.47696   -8869.9095     42.54763   -8912.4571    35484.849 
   19200    243.63154   -8885.2576    36.310967   -8921.5685   -24030.057 
   19400    317.39521   -8869.4093    47.304742   -8916.7141    31530.198 
   19600    295.31958   -8869.5955    44.014578   -8913.6101   -8126.4318 
   19800    302.65622   -8881.7745    45.108035   -8926.8826   -10238.468 
   20000    337.67806   -8873.6934    50.327708   -8924.0211    30459.656 
   20200    339.03999   -8872.0205     50.53069   -8922.5512   -15528.029 
   20400    277.33434   -8882.4391    41.334049   -8923.7731    13016.488 
   20600    254.72784   -8880.2587    37.964765   -8918.2234    19068.569 
   20800    352.46749   -8869.4882    52.531932   -8922.0201   -18366.833 
   21000    278.56148    -8877.359    41.516943   -8918.8759    32058.655 
   21200    266.94424   -8881.3367    39.785504   -8921.1222   -19990.482 
   21400     330.8576   -8868.3017    49.311182   -8917.6129    49168.404 
   21600    359.54179   -8871.4545    53.586289   -8925.0408    3703.2349 
   21800    249.24943   -8883.5028    37.148261   -8920.6511    36479.861 
   22000    301.87551   -8869.1263    44.991678    -8914.118   -24703.573 
   22200    331.03005   -8871.1816    49.336885   -8920.5185   -8403.1058 
   22400    274.62123   -8887.8938    40.929687   -8928.8235   -6331.0547 
   22600     267.1481   -8871.7201    39.815886    -8911.536    10508.841 
   22800    267.10977   -8869.7632    39.810174   -8909.5734   -1099.1468 
   23000    256.21396   -8886.7746    38.186257   -8924.9608   -20907.986 
   23200    301.28428   -8873.9643    44.903561   -8918.8678    7515.4264 
   23400    315.87441   -8870.4493    47.078081   -8917.5273    25318.912 
   23600    269.77097   -8887.8552    40.206802    -8928.062    23284.098 
   23800    270.57275   -8878.1001    40.326298   -8918.4264    21150.886 
   24000    319.94082   -8871.3197    47.684141   -8919.0038   -20480.147 
   24200    282.35567   -8880.0847     42.08243   -8922.1671    15761.362 
   24400    333.22252   -8881.0279    49.663652   -8930.6916    41687.832 
   24600    296.73965   -8868.5535    44.226226   -8912.7797   -12153.356 
   24800    264.88776   -8875.4803    39.479004   -8914.9593    11122.581 
   25000    276.42428   -8878.4211    41.198414   -8919.6195    23389.733 
   25200     295.1534   -8877.4081    43.989812   -8921.3979    -1347.712 
   25400     296.8485   -8872.0842    44.242449   -8916.3266   -2429.3369 
   25600    284.84472   -8879.6547    42.453401   -8922.1081     20724.89 
   25800    243.20783   -8883.9844    36.247818   -8920.2322   -1323.9996 
   26000    327.63586    -8868.681    48.831013    -8917.512   -2428.2177 
   26200    285.12368   -8878.5096    42.494976   -8921.0046    33338.815 
   26400    237.16354   -8878.6407    35.346973   -8913.9877   -2986.9557 
   26600    241.57521   -8891.1923    36.004491   -8927.1968   -11737.538 
   26800    238.52243     -8874.38    35.549503   -8909.9295   -31432.802 
   27000    262.40964     -8876.09    39.109665   -8915.1996   -15194.301 
   27200    274.31383   -8891.2547    40.883871   -8932.1385    3728.6889 
   27400    289.37865    -8889.672    43.129139   -8932.8011   -11849.998 
   27600    302.21444   -8873.8523    45.042192   -8918.8945    18414.889 
   27800    302.96784   -8867.7144    45.154479   -8912.8689   -40334.796 
   28000    259.39788   -8885.0863     38.66079   -8923.7471   -31284.627 
   28200    292.79758   -8872.9879    43.638699   -8916.6266    25230.626 
   28400    369.59571   -8868.3155    55.084731   -8923.4002   -19340.388 
   28600    255.20262   -8882.5262    38.035527   -8920.5617   -17606.201 
   28800    353.27482   -8874.8026    52.652257   -8927.4549    17577.646 
   29000     320.8929    -8870.761     47.82604    -8918.587   -11830.121 
   29200    303.17486    -8875.958    45.185333   -8921.1434    -44064.78 
   29400    339.22157   -8873.7622    50.557753   -8924.3199    10686.893 
   29600     263.1149   -8884.7788    39.214777   -8923.9935   -5636.6906 
   29800    303.59941   -8881.5366    45.248608   -8926.7852   -11531.467 
   30000    313.90298   -8871.9028    46.784258    -8918.687    28062.294 
   30200    281.65933   -8883.1377    41.978647   -8925.1164    44306.311 
   30400    298.66283   -8880.3226    44.512859   -8924.8355    -12830.93 
   30600    286.66025   -8874.4425    42.723987   -8917.1665   -44702.321 
   30800    321.57841   -8875.7374    47.928208   -8923.6656   -29204.809 
   31000     304.8505   -8883.5496    45.435072   -8928.9847    -17545.27 
   31200    266.33508   -8879.6578    39.694715   -8919.3525   -8035.6483 
   31400    332.05917   -8874.3715    49.490266   -8923.8617   -32182.084 
   31600    258.42616   -8885.1338    38.515965   -8923.6498    64469.457 
   31800     367.8778   -8866.0974    54.828692   -8920.9261   -40225.466 
   32000    312.96951   -8878.8867    46.645133   -8925.5318   -33188.427 
   32200    294.06708   -8881.8313    43.827906   -8925.6592    30444.813 
   32400    329.84171   -8874.4473    49.159774   -8923.6071    4648.5989 
   32600    317.56371    -8876.136    47.329855   -8923.4659   -19609.734 
   32800     311.0167   -8876.7607    46.354086   -8923.1148     -23914.9 
   33000    327.02174   -8867.9865    48.739484    -8916.726   -1285.3516 
   33200     282.6856   -8884.3154    42.131604    -8926.447   -32310.432 
   33400    293.89122   -8872.1626    43.801696   -8915.9643     31328.52 
   33600    317.23284   -8869.5377    47.280542   -8916.8183   -6798.1193 
   33800    262.25763   -8884.6223    39.087009   -8923.7093    1956.2559 
   34000    225.16955   -8897.4087    33.559383   -8930.9681     48708.16 
   34200    297.56228   -8879.0722    44.348832    -8923.421    43465.161 
   34400     320.7945   -8865.5149    47.811373   -8913.3263   -9341.0128 
   34600    304.86518    -8879.526    45.437259   -8924.9633   -15762.788 
   34800    259.76912   -8875.7206    38.716121   -8914.4367   -35667.785 
   35000     308.9013   -8868.8489    46.038806   -8914.8877    12868.189 
   35200    246.54142   -8886.5913    36.744657    -8923.336    3928.6281 
   35400    320.18755    -8879.479    47.720913   -8927.1999      12433.5 
   35600    311.22596   -8867.1506    46.385274   -8913.5359    20108.416 
   35800     215.2038    -8883.981    32.074083   -8916.0551   -8787.9389 
   36000    353.00801   -8879.1706    52.612491   -8931.7831   -4350.4439 
   36200    256.11755   -8873.8758    38.171889   -8912.0477    26610.646 
   36400    360.76651   -8860.4068    53.768822   -8914.1756    -5725.888 
   36600    356.67193   -8862.7977    53.158563   -8915.9563   -17778.278 
   36800    291.43977   -8873.6121    43.436329   -8917.0484    53139.198 
   37000    274.12481   -8879.0648      40.8557   -8919.9205    -2950.632 
   37200    350.65969   -8869.9019    52.262496   -8922.1644   -3056.2357 
   37400    324.40917    -8872.833    48.350106   -8921.1832     -36447.7 
   37600    323.80492   -8883.0583    48.260048   -8931.3183   -19472.315 
   37800    302.11191   -8863.1211     45.02691    -8908.148    18813.552 
   38000    344.98831   -8865.5313    51.417232   -8916.9485   -9941.1312 
   38200    280.86595   -8879.9598    41.860402   -8921.8202   -7699.9649 
   38400    326.85279   -8867.8972    48.714305   -8916.6115    19571.195 
   38600    354.44139   -8858.6998    52.826123   -8911.5259   -880.46785 
   38800    311.85285   -8877.7488    46.478705   -8924.2275    18962.475 
   39000    257.96702   -8883.9661    38.447534   -8922.4136     10918.21 
   39200     324.9313   -8866.0078    48.427924   -8914.4357   -35741.916 
   39400    274.41867   -8876.9658    40.899496   -8917.8653   -34467.708 
   39600    376.23219   -8859.5558    56.073835   -8915.6296    31243.746 
   39800    271.69133   -8870.6169    40.493013   -8911.1099    25447.001 
   40000     328.2736    -8873.688    48.926063   -8922.6141    -13992.98 
   40200    284.33525   -8878.9167    42.377469   -8921.2942   -26473.316 
   40400    295.75398    -8879.436    44.079322   -8923.5153   -17533.788 
   40600    316.92268   -8865.0531    47.234315   -8912.2874   -18576.057 
   40800    323.05748   -8870.2659     48.14865   -8918.4146   -34753.937 
   41000    292.06731   -8882.5536    43.529858   -8926.0834   -1217.3489 
   41200    278.56821   -8867.4735    41.517946   -8908.9915   -27198.564 
   41400    324.50512   -8862.1491    48.364405   -8910.5135   -791.24972 
   41600     304.0981   -8876.2943    45.322933   -8921.6172   -2477.1948 
   41800    289.95112   -8877.8762     43.21446   -8921.0906    -22169.31 
   42000    353.23174   -8859.7682    52.645836    -8912.414   -1720.0178 
   42200    304.98309   -8874.4075    45.454833   -8919.8623    2352.0554 
   42400    301.37872   -8879.6672    44.917637   -8924.5848    42568.809 
   42600    374.46877   -8862.3507    55.811013   -8918.1617   -25436.378 
   42800     299.0235   -8875.9416    44.566612   -8920.5082    54603.584 
   43000    301.43323   -8879.5576     44.92576   -8924.4833    -27609.69 
   43200    381.39549   -8855.8687    56.843376   -8912.7121   -7988.5644 
   43400    263.16928   -8875.2079    39.222882   -8914.4308   -2647.7603 
   43600    358.99839    -8879.555    53.505301   -8933.0603   -33713.193 
   43800    275.60159   -8887.0776    41.075799   -8928.1534   -14253.267 
   44000    337.94316   -8867.0373    50.367218   -8917.4045    39978.527 
   44200    270.30965   -8880.3273    40.287087   -8920.6144    4792.1756 
   44400    308.48206   -8879.1868    45.976321   -8925.1631   -26797.296 
   44600    352.62243   -8862.4264    52.555024   -8914.9815    13810.793 
   44800    301.93309   -8877.6226     45.00026   -8922.6229    19861.302 
   45000    238.82704    -8880.143    35.594903    -8915.738   -13044.682 
   45200    319.06744   -8874.2114    47.553971   -8921.7653   -21730.011 
   45400    337.28858   -8873.2067     50.26966   -8923.4764    -31158.99 
   45600    297.06099   -8886.7936    44.274119   -8931.0677    13833.691 
   45800    259.04886   -8880.4838    38.608773   -8919.0926    34985.783 
   46000    312.49377   -8872.7208    46.574229    -8919.295    38931.262 
   46200    305.53022   -8875.1196    45.536378    -8920.656   -25618.064 
   46400    245.30016    -8886.297    36.559659   -8922.8566    8474.5421 
   46600    236.20084   -8874.5443    35.203491   -8909.7478    21121.665 
   46800    278.79749   -8869.6357    41.552118   -8911.1878   -12311.327 
   47000    228.01138    -8887.041    33.982931   -8921.0239   -4054.8089 
   47200    292.64861   -8875.7214    43.616495   -8919.3379    37518.845 
   47400    337.57119   -8870.0063    50.311779    -8920.318   -17879.312 
   47600    261.24604   -8888.0412     38.93624   -8926.9774   -2133.7985 
   47800    278.29403   -8876.2881    41.477082   -8917.7652    14466.256 
   48000    264.71011   -8864.2613    39.452527   -8903.7139   -4568.5946 
   48200    282.12043   -8869.5419     42.04737   -8911.5893    544.09975 
   48400    254.77528   -8885.5294    37.971835   -8923.5012    8738.5963 
   48600    275.81509    -8872.219     41.10762   -8913.3266    2180.7471 
   48800     293.6721   -8880.4196    43.769037   -8924.1886    562.59172 
   49000    267.07803   -8885.3551    39.805444   -8925.1606     23215.49 
   49200     310.0155   -8876.3365    46.204865   -8922.5414    19893.624 
   49400    363.34877   -8865.4489    54.153683   -8919.6026   -18946.276 
   49600     324.2718   -8861.6141    48.329632   -8909.9438   -14619.753 
   49800    284.76955    -8876.762    42.442197   -8919.2042    47307.554 
   50000    300.32774   -8869.3253    44.760998   -8914.0863    13713.808 
   50200    301.96036   -8865.5381    45.004324   -8910.5425   -1118.6998 
   50400    270.62606   -8876.6804    40.334243   -8917.0147    28231.843 
   50600    248.31981   -8888.2341     37.00971   -8925.2438    5210.5666 
   50800    283.29215    -8872.158    42.222005     -8914.38    25689.046 
   51000    268.83154   -8870.6531    40.066788   -8910.7199    2641.8779 
   51200    242.74065   -8883.5472    36.178189   -8919.7254   -1126.3405 
   51400    239.10684   -8886.5194    35.636604    -8922.156   -6162.0938 
   51600    339.09195   -8870.7911    50.538435   -8921.3295    58667.866 
   51800    208.33389   -8882.4075    31.050188   -8913.4577   -27131.167 
   52000    330.09943   -8861.6861    49.198186   -8910.8843    34692.473 
   52200     264.5872   -8875.2353    39.434209   -8914.6695    -18720.66 
   52400    278.26664   -8874.9124    41.472999   -8916.3854   -1656.4575 
   52600    260.44109   -8874.5023     38.81627   -8913.3186    42799.872 
   52800    255.93695   -8881.2301    38.144972   -8919.3751      19119.7 
   53000    283.74945   -8868.6505     42.29016   -8910.9407    41514.542 
   53200    262.78616   -8877.5624    39.165781   -8916.7281    5827.9479 
   53400    241.23053   -8881.8192     35.95312   -8917.7723    1286.7941 
   53600    342.25296    -8868.926    51.009553   -8919.9356    22390.085 
   53800    220.44484   -8886.1884     32.85521   -8919.0436    39276.048 
   54000    337.02756   -8873.6002    50.230757   -8923.8309    18272.948 
   54200    261.25846   -8875.7798    38.938092   -8914.7179   -38793.355 
   54400    340.58873   -8870.5854    50.761515   -8921.3469    24715.474 
   54600    239.22591   -8880.5101     35.65435   -8916.1645    6253.3979 
   54800    269.03824    -8874.675    40.097595   -8914.7726   -21345.261 
   55000    364.50103   -8863.9778    54.325417   -8918.3032   -10157.764 
   55200    276.99208   -8885.0478    41.283039   -8926.3308   -17961.777 
   55400    269.43922    -8869.991    40.157356   -8910.1483    7894.3536 
   55600    323.93022   -8874.3916    48.278723   -8922.6703    5551.5446 
   55800    281.65837    -8880.673    41.978505   -8922.6516   -28003.417 
   56000    301.14925     -8873.81    44.883436   -8918.6934    31128.169 
   56200    237.81754   -8877.2343    35.444445   -8912.6788   -1307.8747 
   56400     373.8215   -8868.5526    55.714544   -8924.2671    7829.3984 
   56600    241.59391   -8888.1652    36.007277   -8924.1725     31914.38 
   56800    296.82834   -8873.3869    44.239444   -8917.6264   -27241.818 
   57000    313.07026   -8867.1827    46.660149   -8913.8428    29528.726 
   57200    281.00193   -8877.6626    41.880669   -8919.5433    33344.985 
   57400    301.33095   -8878.4134    44.910517   -8923.3239   -8937.8227 
   57600    370.01241   -8864.6716    55.146835   -8919.8184   -4495.3178 
   57800    246.03922   -8881.7496    36.669808   -8918.4194    30366.285 
   58000    362.71792   -8871.7831    54.059661   -8925.8428   -43332.637 
   58200    219.97923   -8889.3123    32.785815   -8922.0981    76510.464 
   58400    288.19518   -8878.9613    42.952755    -8921.914    17113.198 
   58600    347.47406   -8874.1107    51.787708   -8925.8985   -17267.173 
   58800    310.77465   -8880.2245     46.31801   -8926.5425   -9795.7643 
   59000    347.43199   -8874.2183    51.781439   -8925.9997   -28840.058 
   59200    253.21524   -8876.3651    37.739327   -8914.1044    33325.985 
   59400    298.51437   -8882.7039    44.490732   -8927.1946    18308.103 
   59600    282.96137   -8875.4766    42.172705   -8917.6493    -10763.21 
   59800    331.65508   -8866.0931     49.43004   -8915.5231   -17417.432 
   60000    293.20219   -8874.3226    43.699002   -8918.0216    7368.8753 
   60200    322.71715   -8877.5983    48.097926   -8925.6962    36506.488 
   60400    279.89275   -8874.9403    41.715356   -8916.6556   -41029.966 
   60600    300.96216   -8870.8684    44.855552   -8915.7239    53147.063 
   60800    274.73142   -8880.6188    40.946109   -8921.5649     15401.87 
   61000    346.97829   -8870.7164    51.713818   -8922.4302     17050.56 
   61200    302.61183   -8878.6868    45.101419   -8923.7883   0.82448608 
   61400    265.56718   -8872.0681    39.580266   -8911.6484    -12756.87 
   61600    296.99098   -8879.8484    44.263685   -8924.1121    10876.617 
   61800    349.52076   -8875.0448     52.09275   -8927.1375   -11040.811 
   62000    285.81344   -8871.1443    42.597778   -8913.7421   -26718.691 
   62200    273.26655   -8880.1495    40.727784   -8920.8773   -22117.551 
   62400    301.77283   -8875.0765    44.976375   -8920.0528    64315.395 
   62600    336.99723   -8863.1473    50.226237   -8913.3736   -28309.623 
   62800    268.88254   -8876.1827    40.074389   -8916.2571   -33995.472 
   63000    265.23744   -8877.5881    39.531122   -8917.1192     56853.94 
   63200    195.57376   -8886.9875    29.148412   -8916.1359    26240.531 
   63400    274.13442   -8871.7226    40.857132   -8912.5797    1819.8592 
   63600    267.86635   -8883.8988    39.922935   -8923.8217   -29678.885 
   63800    330.73753   -8874.2261    49.293288   -8923.5194    39400.592 
   64000    272.80279    -8870.226    40.658665   -8910.8846    9637.9179 
   64200    265.67625    -8880.254    39.596521   -8919.8505    11067.335 
   64400    315.16194   -8875.8775    46.971894   -8922.8494   -833.43789 
   64600    291.79943   -8872.8658    43.489934   -8916.3558   -5814.3577 
   64800    311.34927   -8859.5718    46.403652   -8905.9755   -23253.941 
   65000    291.51427   -8881.4627    43.447434   -8924.9101    9398.3139 
   65200    326.58158   -8875.4592    48.673883    -8924.133    14369.883 
   65400     372.0225   -8863.2362     55.44642   -8918.6826   -28120.942 
   65600     278.9914   -8882.2128    41.581019   -8923.7939    19271.469 
   65800    308.60123   -8871.2142    45.994083   -8917.2083   -15471.257 
   66000      328.728   -8865.0943    48.993786   -8914.0881   -20815.811 
   66200    330.75435   -8870.8893    49.295794   -8920.1851   -24534.639 
   66400    244.44374   -8881.2635    36.432018   -8917.6955    33255.155 
   66600    350.77559   -8862.6333    52.279771   -8914.9131    6182.0843 
   66800    249.78559   -8874.3505    37.228169   -8911.5786    16935.286 
   67000    289.15726   -8881.4225    43.096144   -8924.5187    31218.644 
   67200    407.34893   -8860.2062    60.711489   -8920.9176   -3234.3878 
   67400    322.07845   -8872.3282    48.002734   -8920.3309    24565.218 
   67600    317.25046   -8876.3702    47.283168   -8923.6534   -12378.649 
   67800    240.26186   -8882.7521    35.808749   -8918.5608   -4777.2219 
   68000    337.69202   -8866.6732    50.329788    -8917.003    46442.409 
   68200    247.63959   -8877.7644    36.908329   -8914.6727   -9575.0527 
   68400    280.10788   -8883.4261     41.74742   -8925.1735     -7795.88 
   68600    301.09991   -8877.5272    44.876082   -8922.4033   -44554.341 
   68800    367.68147   -8855.8697    54.799431   -8910.6691   -4700.8658 
   69000    275.52749   -8872.9831    41.064756   -8914.0478    3415.5938 
   69200    266.26966   -8875.3409    39.684964   -8915.0258   -14729.672 
   69400    250.65756   -8883.1374    37.358129   -8920.4955    16855.776 
   69600     323.5033   -8869.4323    48.215095   -8917.6474     23616.94 
   69800    302.65274    -8880.072    45.107516   -8925.1795    -3004.106 
   70000    331.06658   -8872.5098    49.342329   -8921.8522    8322.9825 
   70200    303.45102   -8881.7906    45.226492    -8927.017   -28053.593 
   70400    291.58337   -8889.1525    43.457733   -8932.6103   -10581.167 
   70600    320.96867    -8870.004    47.837332   -8917.8414    6059.0524 
   70800    255.82368   -8880.6043     38.12809   -8918.7324   -949.32078 
   71000    319.37252   -8875.9281    47.599441   -8923.5276   -1579.7634 
   71200    359.95488     -8867.17    53.647856   -8920.8179   -22049.008 
   71400    314.78385   -8879.3728    46.915543   -8926.2883    14837.602 
   71600    295.47027   -8880.0194    44.037038   -8924.0564    49262.179 
   71800    325.63679   -8867.4429     48.53307    -8915.976   -46701.134 
   72000    306.96537   -8885.2302    45.750274   -8930.9804    9115.4127 
   72200    249.51702   -8881.6028    37.188142   -8918.7909   -25195.648 
   72400    284.93078   -8873.9036    42.466226   -8916.3699    1693.2296 
   72600    268.59606   -8876.1819    40.031692   -8916.2136    20837.285 
   72800    332.35367   -8855.6509    49.534158    -8905.185   -1307.2419 
   73000    306.68779   -8868.6245    45.708902   -8914.3334   -8714.6481 
   73200     268.0101   -8877.6283    39.944359   -8917.5727    49776.224 
   73400     275.7464   -8873.8186    41.097382    -8914.916   -5475.6484 
   73600    339.72122   -8868.8402    50.632221   -8919.4724     31196.05 
   73800    264.05054   -8884.4157    39.354224   -8923.7699   -31414.065 
   74000    350.83998   -8870.3057    52.289367    -8922.595    7797.9433 
   74200    295.16759   -8877.5849    43.991926   -8921.5768   -17465.336 
   74400    248.04295   -8885.7123    36.968446   -8922.6808   -34833.574 
   74600    351.76698   -8868.8083    52.427527   -8921.2358   -22997.623 
   74800     326.5646   -8865.8016    48.671353    -8914.473   -4795.9386 
   75000    257.70486   -8883.6965    38.408462    -8922.105    -11696.94 
   75200    302.61863   -8877.4417    45.102433   -8922.5441    29586.328 
   75400    314.28733   -8869.8789    46.841541   -8916.7205    33108.952 
   75600    300.30056   -8883.5537    44.756947   -8928.3106   -6458.2205 
   75800    286.20388   -8872.5789     42.65597   -8915.2348    14109.444 
   76000    366.76073   -8851.7737    54.662203   -8906.4359   -40621.623 
   76200     318.4321   -8869.4148     47.45928   -8916.8741    -17655.17 
   76400    296.78117   -8874.8952    44.232415   -8919.1276    3207.4791 
   76600    245.01879   -8886.0004    36.517724   -8922.5181   -11720.863 
   76800    270.80738   -8877.0988    40.361268     -8917.46   -50606.136 
   77000    318.85706   -8874.0258    47.522617   -8921.5484    3549.3614 
   77200    294.59912   -8883.1467    43.907201   -8927.0539   -45769.054 
   77400    268.77664   -8887.3566    40.058606   -8927.4152   -13548.455 
   77600    323.19618   -8867.5464    48.169321   -8915.7158     39198.63 
   77800    292.35708   -8876.5211    43.573046   -8920.0942    14737.743 
   78000    318.82355   -8874.9056    47.517622   -8922.4232    12843.153 
   78200    356.99119   -8866.5629    53.206146    -8919.769   -1537.7734 
   78400    272.98238   -8881.2426    40.685431    -8921.928    4469.3126 
   78600    309.75705   -8877.8364    46.166347   -8924.0027    35793.713 
   78800     320.9793   -8866.6046    47.838916   -8914.4435     -39006.1 
   79000    252.57367   -8882.1971    37.643706   -8919.8408   -40118.708 
   79200    373.68266   -8873.9086    55.693852   -8929.6024    5894.8506 
   79400    329.08774   -8861.6785    49.047403   -8910.7259    29251.846 
   79600    356.54492   -8867.6428    53.139635   -8920.7824    30378.355 
   79800    263.03834   -8877.2583    39.203366   -8916.4616   -19595.858 
   80000    270.24821   -8884.6385     40.27793   -8924.9164    -27803.29 
   80200    280.99223    -8886.676    41.879223   -8928.5552    44923.092 
   80400    337.82198   -8871.9539    50.349158   -8922.3031    -36970.32 
   80600     261.8789   -8880.0372    39.030563   -8919.0678    -12624.52 
   80800    260.80488    -8883.859     38.87049   -8922.7295    52969.661 
   81000    313.40639   -8867.1726    46.710245   -8913.8829   -34485.076 
   81200    333.75373   -8872.7093    49.742824   -8922.4521   -28721.465 
   81400    266.69152   -8884.7272    39.747838    -8924.475   -10612.019 
   81600    305.46859   -8875.7636    45.527192   -8921.2908    28352.212 
   81800    280.94688   -8878.2453    41.872464   -8920.1178   -17764.568 
   82000    238.25878   -8882.2455    35.510208   -8917.7557    6949.7438 
   82200    321.55712   -8875.7119    47.925034   -8923.6369   -22518.251 
   82400     324.6195   -8874.5464    48.381453   -8922.9279   -599.88975 
   82600    328.72722   -8858.5042     48.99367   -8907.4979   -11647.048 
   82800     278.6876   -8868.9993     41.53574    -8910.535    26003.254 
   83000    337.95706   -8879.5683    50.369289   -8929.9376   -17769.889 
   83200    255.42678   -8886.3551    38.068936    -8924.424    12349.199 
   83400    333.57324   -8869.8396    49.715924   -8919.5556    39092.819 
   83600    269.73677   -8881.9228    40.201703   -8922.1245    20279.322 
   83800    271.05257   -8877.4632    40.397812    -8917.861    12993.005 
   84000    336.35221   -8869.2551    50.130103   -8919.3852   -12665.536 
   84200    266.44313   -8868.7682    39.710818    -8908.479    -29487.16 
   84400     329.9977   -8872.0159    49.183023    -8921.199    17832.898 
   84600    229.28137   -8888.0231    34.172211   -8922.1953   -9241.1918 
   84800    339.91951   -8872.2007    50.661775   -8922.8625   -10043.228 
   85000    313.07772   -8876.7514    46.661261   -8923.4127    9636.3409 
   85200    290.50566   -8885.7479    43.297109    -8929.045    6974.8247 
   85400    325.82641   -8871.0981    48.561331   -8919.6594   -44388.613 
   85600    295.42598   -8870.9592    44.030437   -8914.9897     1333.748 
   85800    275.86815   -8882.6967    41.115528   -8923.8123   -36537.771 
   86000    289.98094   -8864.6747    43.218905   -8907.8936   -12011.986 
   86200    260.14376    -8878.761    38.771957    -8917.533    28917.439 
   86400    207.91249   -8881.6768    30.987382   -8912.6642    -27418.19 
   86600    216.57759    -8889.417    32.278833   -8921.6958    7788.1534 
   86800    299.45765   -8875.4839    44.631318   -8920.1152     35511.02 
   87000     245.8112   -8880.4495    36.635825   -8917.0853   -43843.438 
   87200    297.06398   -8878.6072    44.274565   -8922.8818   -7180.5345 
   87400    346.28621   -8866.3557    51.610671   -8917.9664   -19373.785 
   87600    249.25945   -8881.9082    37.149754    -8919.058   -24636.746 
   87800    318.07686   -8871.0621    47.406335   -8918.4684   -3038.9644 
   88000    313.70501   -8872.6114    46.754752   -8919.3661    12107.073 
   88200    293.24539   -8882.8407     43.70544   -8926.5461   -11556.236 
   88400    348.10091   -8870.8969    51.881135    -8922.778    17090.039 
   88600    295.67431   -8878.9825    44.067448   -8923.0499   -1437.9555 
   88800    285.83812   -8881.1565    42.601457   -8923.7579    17326.905 
   89000    319.42363   -8869.7083    47.607058   -8917.3154    40018.866 
   89200    359.43742   -8856.4427    53.570734   -8910.0134   -17386.254 
   89400    285.78148   -8877.7155    42.593015   -8920.3085    22966.762 
   89600    300.69167   -8881.7425    44.815238   -8926.5578   -33802.532 
   89800    349.74112   -8863.8977    52.125592   -8916.0233    27880.704 
   90000    290.72975    -8879.125    43.330507   -8922.4555   -13566.811 
   90200     277.4158   -8876.4265     41.34619   -8917.7727    31791.261 
   90400    374.58942   -8858.4535    55.828995   -8914.2825    4627.4906 
   90600    286.11622   -8877.2835    42.642905   -8919.9264   -36092.879 
   90800    284.45043   -8876.7785    42.394635   -8919.1731    23629.987 
   91000    356.50918   -8861.8292    53.134308   -8914.9635    37442.823 
   91200    289.21365   -8879.9247    43.104548   -8923.0292   -19187.945 
   91400    279.99386   -8879.3226    41.730426    -8921.053    8906.1965 
   91600    325.18378   -8862.5324    48.465554    -8910.998   -19980.128 
   91800    260.00381   -8881.5075    38.751098   -8920.2586    21534.667 
   92000    288.96703   -8879.7224    43.067792   -8922.7902    7746.5677 
   92200    283.26843   -8863.7378    42.218469   -8905.9562    4886.8594 
   92400    310.57484   -8879.6342    46.288231   -8925.9224   -15193.774 
   92600    231.19019   -8882.5433    34.456702        -8917    44226.496 
   92800    331.24966   -8868.1179    49.369615   -8917.4875   -1074.9403 
   93000    267.89891   -8884.0982    39.927788    -8924.026    23755.789 
   93200    289.12795   -8884.3835    43.091774   -8927.4752    38745.211 
   93400    328.08558   -8873.1344     48.89804   -8922.0324   -31032.056 
   93600    344.76806   -8873.1836    51.384406    -8924.568   -26377.317 
   93800    269.09541   -8886.5077    40.106116   -8926.6138   -38747.395 
   94000    327.87294   -8869.1931    48.866348   -8918.0594   -21577.375 
   94200    333.49234   -8873.2135    49.703867   -8922.9174    1461.3379 
   94400     234.3353   -8884.0959    34.925451   -8919.0213    9250.8547 
   94600    270.43463   -8884.9732    40.305713   -8925.2789   -11210.401 
   94800    320.92659   -8873.1509     47.83106    -8920.982    2255.2612 
   95000     274.1571   -8882.5581    40.860511   -8923.4187    -20162.55 
   95200    290.39869    -8882.753    43.281166   -8926.0342   -16196.908 
   95400    311.65871   -8871.5655     46.44977   -8918.0153    14405.743 
   95600    285.14391   -8882.2718    42.497991   -8924.7698   -350.47499 
   95800    293.96761   -8882.4751    43.813081   -8926.2882    4683.0348 
   96000    369.56284   -8871.9883    55.079832   -8927.0681   -14078.034 
   96200    300.63134   -8874.2242    44.806246   -8919.0305   -8968.0581 
   96400    278.15151   -8885.6696    41.455841   -8927.1255    -5441.076 
   96600    296.16815   -8866.0003    44.141049   -8910.1414    12756.394 
   96800    301.28493   -8866.7716    44.903657   -8911.6753    26175.171 
   97000    269.77647   -8878.9145    40.207621   -8919.1222   -1760.4243 
   97200    317.69763    -8880.631    47.349815   -8927.9809    54035.195 
   97400    343.69801   -8863.9059    51.224924   -8915.1308    6543.4709 
   97600    299.65429   -8879.5331    44.660626   -8924.1937    20106.791 
   97800    319.22653    -8878.615    47.577682   -8926.1926    4073.8915 
   98000    322.06035    -8872.498    48.000036   -8920.4981    17450.368 
   98200    327.23267   -8864.8266    48.770922   -8913.5975   -1241.1141 
   98400    312.92861   -8878.7603    46.639037   -8925.3994   -7926.0573 
   98600    274.39802    -8890.763    40.896419   -8931.6595   -5044.2397 
   98800    286.49156   -8879.7797    42.698846   -8922.4786    19051.124 
   99000    314.83112   -8871.4141    46.922588   -8918.3366    7117.7909 
   99200    230.13415   -8885.5902    34.299309   -8919.8895    19710.999 
   99400    262.93411   -8875.9408    39.187832   -8915.1286   -27306.401 
   99600    319.87317   -8872.4382    47.674057   -8920.1122   -23631.941 
   99800    316.79505   -8882.1398    47.215293   -8929.3551   -7338.1227 
  100000    376.92413   -8864.0564    56.176962   -8920.2334    3285.1966 
  100200    300.09373   -8874.6378    44.726121    -8919.364    22616.532 
  100400    340.89315   -8876.4157    50.806887   -8927.2226    4106.2081 
  100600    288.03914   -8881.6174    42.929498   -8924.5469   -36347.235 
  100800    341.55671   -8869.6046    50.905783   -8920.5103    15175.725 
  101000    302.04191   -8877.3707    45.016478   -8922.3872    -59104.95 
  101200    332.46666   -8878.3886    49.550999   -8927.9396    24035.434 
  101400    319.20904   -8871.0181    47.575076   -8918.5932   -49114.719 
  101600    280.65486   -8883.8254    41.828941   -8925.6543   -7806.9843 
  101800    292.82568   -8877.3309    43.642887   -8920.9738   -4082.8173 
  102000    279.36173   -8870.5375    41.636212   -8912.1737   -20914.927 
  102200    293.76176    -8877.826    43.782401   -8921.6084   -11276.917 
  102400    326.35191   -8872.0283    48.639652   -8920.6679    24438.081 
  102600    255.63694   -8876.5234    38.100259   -8914.6237     21021.35 
  102800    327.03117    -8870.739    48.740889   -8919.4799    8246.3862 
  103000    289.88319   -8880.7794    43.204337   -8923.9837   -1745.9043 
  103200    297.64764   -8877.2842    44.361554   -8921.6458   -9337.9878 
  103400    339.43978   -8876.8102    50.590276   -8927.4005    83.200013 
  103600    278.86699   -8886.7623    41.562477   -8928.3248    4978.9612 
  103800    289.32048   -8885.2433     43.12047   -8928.3638    10700.546 
  104000     300.1648   -8873.5222    44.736713   -8918.2589    20291.218 
  104200    289.46765   -8877.3283    43.142405   -8920.4707    2394.1928 
  104400    314.76633   -8878.5921    46.912931    -8925.505    10210.342 
  104600    261.65218   -8881.7363    38.996773   -8920.7331    1423.3418 
  104800    359.37128    -8866.189    53.560877   -8919.7499    5152.1112 
  105000    318.05969   -8879.6195    47.403776   -8927.0233   -28608.926 
  105200     293.0731   -8875.0486    43.679762   -8918.7283     28646.52 
  105400     326.4401   -8870.7135    48.652797   -8919.3663   -26575.487 
  105600    258.01424     -8889.84    38.454571   -8928.2946    24613.117 
  105800    318.42812   -8873.2935    47.458687   -8920.7522     9845.546 
  106000    349.89156    -8868.367    52.148013    -8920.515   -10516.731 
  106200     270.7105   -8882.9159    40.346829   -8923.2627   -34902.676 
  106400     329.2914    -8875.328    49.077755   -8924.4057    15247.804 
  106600     309.7997   -8874.1961    46.172704   -8920.3688   -51017.678 
  106800    385.37497   -8857.9079    57.436479   -8915.3444    415.79528 
  107000    299.84737   -8876.2678    44.689403   -8920.9572     33622.86 
  107200    301.47468   -8874.3461    44.931938   -8919.2781      14553.4 
  107400    323.54318   -8859.7459    48.221039   -8907.9669   -129.23193 
  107600    296.89153   -8878.7219    44.248862   -8922.9708   -6952.3316 
  107800    290.65744   -8871.3854    43.319731   -8914.7052    19172.955 
  108000    267.48498   -8871.2996    39.866096   -8911.1657   -18435.747 
  108200     256.7265   -8880.8398    38.262647   -8919.1024    502.95972 
  108400    242.73425    -8877.317    36.177234   -8913.4942   -40280.275 
  108600    314.03198   -8870.8616    46.803484   -8917.6651   -1745.0622 
  108800    278.43836   -8877.3349    41.498593   -8918.8335    16290.705 
  109000    262.03558    -8882.296    39.053915   -8921.3499    -24402.94 
  109200    291.19538   -8862.8746    43.399906   -8906.2745    16918.472 
  109400    275.73343   -8871.8304    41.095449   -8912.9259   -47201.841 
  109600    278.07382   -8878.1412    41.444262   -8919.5855    30893.534 
  109800    304.75554   -8865.5039    45.420919   -8910.9248    16254.841 
  110000     277.6567   -8866.3095    41.382095   -8907.6916    19236.467 
  110200    252.27862    -8882.113    37.599732   -8919.7127   -23204.244 
  110400    269.21374   -8872.3426    40.123752   -8912.4664   -20507.955 
  110600    324.61036   -8863.5378    48.380091   -8911.9179    7268.8631 
  110800    241.38857   -8876.9671    35.976673   -8912.9438    5268.1415 
  111000    270.69029   -8874.0809    40.343817   -8914.4247    6028.6889 
  111200    352.00361   -8865.9631    52.462795   -8918.4258   -11276.035 
  111400    323.40242   -8869.8733    48.200059   -8918.0733    5345.8853 
  111600    267.13732    -8882.678     39.81428   -8922.4922   -34010.794 
  111800    346.31789   -8865.7962    51.615392   -8917.4116    44197.922 
  112000    322.18298   -8869.9784    48.018313   -8917.9967   -36672.325 
  112200    273.38942   -8878.2596    40.746096   -8919.0057    17665.202 
  112400    293.49036   -8875.7196     43.74195   -8919.4616   -38453.503 
  112600     252.3401    -8873.761    37.608895   -8911.3699   -5286.3404 
  112800    299.97054   -8867.0854     44.70776   -8911.7931    31336.962 
  113000    277.55491   -8880.0249    41.366923   -8921.3919     21396.57 
  113200     302.2183   -8876.4335    45.042767   -8921.4762   -3513.6121 
  113400    308.76206   -8867.0232    46.018053   -8913.0412   -12310.067 
  113600    263.52411   -8881.8978    39.275766   -8921.1736    -15844.72 
  113800    303.56378   -8878.5529    45.243299   -8923.7962    32479.134 
  114000    327.51674   -8861.1575     48.81326   -8909.9707   -55254.973 
  114200     305.7518   -8875.7267    45.569402   -8921.2961    30233.165 
  114400    303.89131   -8878.6898    45.292113   -8923.9819    16289.674 
  114600    324.41473   -8867.1431    48.350935   -8915.4941    10043.895 
  114800    360.36231   -8851.1717     53.70858   -8904.8803   -40500.925 
  115000    286.26561   -8877.4782     42.66517   -8920.1434   -5817.0351 
  115200     299.3204    -8880.212    44.610862   -8924.8229    22532.726 
  115400    280.98647   -8871.3518    41.878364   -8913.2301    -18097.65 
  115600    333.37187   -8865.6062    49.685912   -8915.2921    8623.1812 
  115800    295.22863   -8878.8801    44.001023   -8922.8811   -749.35247 
  116000    306.34205   -8866.3544    45.657373   -8912.0118   -14946.342 
  116200    284.11699   -8876.5838    42.344939   -8918.9287    3203.3074 
  116400    284.15002   -8878.2938    42.349862   -8920.6437   -1794.2807 
  116600     368.8372   -8863.4931    54.971681   -8918.4648    23754.678 
  116800    295.27291   -8882.4282    44.007623   -8926.4358   -19609.676 
  117000    299.71084   -8881.3624    44.669053   -8926.0315    10282.628 
  117200    307.27649   -8867.7504    45.796643   -8913.5471    4840.5772 
  117400      297.944   -8875.0613    44.405724    -8919.467   -43287.671 
  117600    288.63769   -8875.5514    43.018706   -8918.5701    7060.0973 
  117800     252.5475   -8883.5407    37.639806   -8921.1805    -3440.249 
  118000    312.30636   -8872.3016    46.546298   -8918.8479   -31484.022 
  118200    293.66683   -8873.8622    43.768251   -8917.6304   -55550.687 
  118400    297.99854   -8879.1043    44.413852   -8923.5181   -33545.742 
  118600    317.26406   -8876.3991    47.285195   -8923.6843    5433.2245 
  118800    323.74138   -8871.6039    48.250578   -8919.8545     33670.32 
  119000    310.23736     -8877.89    46.237933    -8924.128    8328.2013 
  119200    264.66642   -8883.7488    39.446016   -8923.1948   -17690.237 
  119400    368.90832   -8865.3454    54.982282   -8920.3277   -30391.978 
  119600    277.73557   -8876.8756    41.393849   -8918.2695   -38036.304 
  119800    286.41061   -8886.1175    42.686781   -8928.8043     19665.15 
  120000    338.83754   -8872.8436    50.500517   -8923.3441   -4091.2756 
  120200    327.34747   -8866.4427    48.788031   -8915.2308    5982.4373 
  120400    296.08142    -8886.464    44.128124   -8930.5921    14580.461 
  120600    296.46493   -8875.4919    44.185283   -8919.6772    11306.068 
  120800    286.79638   -8872.5084    42.744277   -8915.2527   -23637.088 
  121000    257.05435    -8875.764    38.311509   -8914.0755    22020.324 
  121200    276.40269   -8879.2775    41.195195   -8920.4727   -6352.7936 
  121400    299.39843   -8870.9993    44.622493   -8915.6218     3682.374 
  121600    302.43171    -8864.424    45.074574   -8909.4986    22064.832 
  121800    282.22079   -8882.2209    42.062329   -8924.2833   -20558.025 
  122000    283.08701   -8878.9004     42.19143   -8921.0918   -14646.334 
  122200    334.48765   -8872.6797    49.852207   -8922.5319    1224.9328 
  122400    279.41606   -8873.6791     41.64431   -8915.3234   -17292.184 
  122600    325.90889   -8856.7898    48.573624   -8905.3634    13969.441 
  122800    244.94564   -8876.3407    36.506822   -8912.8475   -10811.889 
  123000    287.58863   -8874.2998    42.862354   -8917.1621   -6783.6428 
  123200    221.26101    -8886.622    32.976852   -8919.5989   -19279.235 
  123400    287.06608   -8871.7825    42.784472    -8914.567    25115.571 
  123600    299.29343   -8873.1482    44.606843    -8917.755   -2280.0748 
  123800    308.94712   -8876.2331    46.045634   -8922.2787    15336.769 
  124000    252.20476   -8876.0831    37.588725   -8913.6718    20619.497 
  124200    350.38104   -8860.0967    52.220966   -8912.3177    23565.005 
  124400    250.55067   -8871.3498    37.342197    -8908.692    29465.476 
  124600    264.36204   -8877.7793    39.400651   -8917.1799    50002.842 
  124800    287.88234   -8873.9602    42.906129   -8916.8663    4209.0561 
  125000    287.73002   -8874.5606    42.883426   -8917.4441   -16752.653 
  125200      238.236   -8880.5416    35.506814   -8916.0484   -34167.802 
  125400    349.70412   -8868.1318    52.120078   -8920.2519    4596.8059 
  125600    258.81598    -8875.623    38.574063   -8914.1971    5355.3609 
  125800    283.18241   -8873.2115    42.205648   -8915.4172    9135.2735 
  126000     294.2665   -8885.4151    43.857626   -8929.2728   -32281.467 
  126200    296.75529   -8875.2129    44.228558   -8919.4414   -10319.628 
  126400    320.84867   -8872.4109    47.819447   -8920.2304    9776.4463 
  126600    213.28876   -8894.7562    31.788665   -8926.5449    -1620.183 
  126800    306.27321   -8881.1822    45.647114   -8926.8293    16613.154 
  127000    288.29256   -8871.5011    42.967267   -8914.4683   -18973.836 
  127200    260.53089   -8884.7642    38.829654   -8923.5939    -17896.17 
  127400    371.16062   -8865.2019    55.317966   -8920.5199     13369.61 
  127600     302.7589   -8879.1892    45.123339   -8924.3126    1863.0582 
  127800    258.71148   -8874.5523    38.558488   -8913.1108    13510.643 
  128000    337.77567   -8867.8042    50.342256   -8918.1464   -38159.092 
  128200    282.10713   -8875.8678    42.045388   -8917.9132   -21251.157 
  128400    266.61239   -8882.6292    39.736044   -8922.3652    33811.491 
  128600    297.62666   -8882.3516    44.358427     -8926.71    4255.4274 
  128800    326.03817   -8868.5435    48.592892   -8917.1364    5832.3214 
  129000    322.05653   -8870.1348    47.999468   -8918.1343   -19698.722 
  129200    270.59201   -8883.9242    40.329169   -8924.2534    9860.5203 
  129400     328.5649   -8869.1263    48.969478   -8918.0957   -14277.693 
  129600    301.56736   -8876.7653    44.945751   -8921.7111    -22640.58 
  129800    300.71284   -8878.6238    44.818393   -8923.4422    3321.8088 
  130000     319.3616   -8875.9908    47.597814   -8923.5886    41022.211 
  130200    383.03232   -8858.8974     57.08733   -8915.9847   -10794.055 
  130400    251.91129   -8880.9358    37.544985   -8918.4808   -10322.657 
  130600    295.48716   -8869.7856    44.039555   -8913.8252   -16838.952 
  130800    296.62545   -8875.6201    44.209207   -8919.8293   -6787.2153 
  131000    245.22696    -8882.279     36.54875   -8918.8277    5791.4657 
  131200    349.47917   -8865.2084    52.086552   -8917.2949    57036.867 
  131400    298.57718   -8860.3465    44.500093   -8904.8466     -50573.1 
  131600    319.58502   -8875.9654    47.631112   -8923.5965     41227.88 
  131800    312.64368   -8880.8881    46.596571   -8927.4847    -8146.346 
  132000    346.55978   -8868.7014    51.651443   -8920.3528    13752.614 
  132200    332.06595   -8872.5478    49.491275   -8922.0391    31024.102 
  132400      316.482   -8881.4618    47.168636   -8928.6304    9124.6492 
  132600    322.38554   -8869.6603    48.048502   -8917.7088    13742.506 
  132800     264.6825    -8878.356    39.448412   -8917.8044    9821.5836 
  133000    300.93689   -8879.8589    44.851785   -8924.7107    1095.4176 
  133200    316.14474   -8867.4199    47.118371   -8914.5383    12107.838 
  133400    278.77579   -8873.9903    41.548884   -8915.5392    4758.3518 
  133600    247.41687    -8883.251    36.875135   -8920.1261   -16172.554 
  133800    287.54313   -8886.0642    42.855573   -8928.9197   -13349.165 
  134000    306.72784   -8871.2572    45.714871    -8916.972   -16599.881 
  134200    287.66573   -8874.5978    42.873846   -8917.4716    5206.8803 
  134400    244.91978   -8890.5179    36.502968   -8927.0209   -2435.0303 
  134600    278.98214   -8875.0645    41.579638   -8916.6441    10095.331 
  134800    336.42141   -8869.3003    50.140416   -8919.4407    12679.336 
  135000    263.81878   -8886.3003    39.319684     -8925.62     8589.801 
  135200    294.68351    -8879.251    43.919779   -8923.1708    3135.8665 
  135400    313.31398    -8871.577    46.696473   -8918.2734   -1969.3014 
  135600    287.92204   -8880.2025    42.912045   -8923.1145   -27156.748 
  135800    266.70601   -8887.7206    39.749997   -8927.4706   -11483.131 
  136000    273.37083   -8878.2031    40.743326   -8918.9464   -19448.648 
  136200    290.00983   -8868.4993    43.223211   -8911.7225    -19439.87 
  136400    254.77547   -8888.7806    37.971864   -8926.7524    15780.211 
  136600    263.44165   -8876.5977    39.263477   -8915.8611    25094.913 
  136800    274.56348   -8868.2632    40.921079   -8909.1843    468.88801 
  137000    274.19871   -8884.3217    40.866713   -8925.1884   -11278.321 
  137200    281.09745   -8881.6242    41.894905   -8923.5191   -34270.194 
  137400    296.68545   -8866.0618    44.218148   -8910.2799    17594.768 
  137600    294.18356    -8880.739    43.845266   -8924.5843    -28722.81 
  137800    243.90541   -8881.2455    36.351784   -8917.5973    962.29109 
  138000    308.99021   -8864.2978    46.052056   -8910.3499   -39900.527 
  138200    298.64635    -8878.272    44.510403   -8922.7824    1198.9446 
  138400    300.17667   -8879.3644    44.738482   -8924.1028   -15603.401 
  138600     331.6275   -8867.7166     49.42593   -8917.1425   -3891.0815 
  138800     330.4256   -8869.5187    49.246797   -8918.7655    13895.194 
  139000    309.93883   -8880.6604    46.193439   -8926.8539    15206.977 
  139200     308.2572   -8871.2336    45.942807   -8917.1764   -12134.913 
  139400    354.17518   -8864.2779    52.786447   -8917.0644    5727.4298 
  139600    280.65257   -8880.7047    41.828601   -8922.5333   -31772.966 
  139800    284.62849   -8869.5103    42.421174   -8911.9315   -24359.822 
  140000     321.1099   -8869.5499    47.858381   -8917.4083   -9427.4002 
  140200    259.56217   -8880.0616    38.685277   -8918.7468    22914.228 
  140400    344.25795   -8873.1494    51.308378   -8924.4578   -13097.572 
  140600    336.85249   -8867.2069    50.204665   -8917.4116    16851.707 
  140800    330.60474   -8882.8846    49.273497   -8932.1581   -6805.4046 
  141000    285.29476   -8882.2525    42.520474    -8924.773   -5117.8656 
  141200    417.23837   -8857.5281    62.185417   -8919.7135   -16454.647 
  141400    354.49721   -8866.6208    52.834442   -8919.4553    17044.426 
  141600    295.94933   -8880.6732    44.108436   -8924.7817   -26265.467 
  141800    306.80701   -8878.9388    45.726671   -8924.6654   -29197.591 
  142000    334.76817   -8862.6675    49.894016   -8912.5615    42248.718 
  142200    308.39929   -8877.3118    45.963985   -8923.2757    29036.944 
  142400    265.62668   -8880.3559    39.589134    -8919.945     7362.104 
  142600    339.02152   -8867.0169    50.527938   -8917.5448   -6243.4815 
  142800     321.0364   -8871.9422    47.847426   -8919.7897   -5757.6801 
  143000    314.15952   -8880.8385    46.822492    -8927.661    7272.9573 
  143200    340.72211   -8869.5721    50.781394   -8920.3535   -17522.695 
  143400    343.95641   -8869.0057    51.263437   -8920.2691    37220.218 
  143600    261.86544   -8883.3636    39.028557   -8922.3922   -16664.701 
  143800    328.46957    -8871.301    48.955269   -8920.2563   -21396.917 
  144000    352.16422   -8862.6566    52.486732   -8915.1434   -23150.784 
  144200    292.27323   -8882.9582    43.560549   -8926.5188    19437.852 
  144400     313.1219   -8876.9563    46.667846   -8923.6241    6006.3203 
  144600     332.7238   -8863.1779    49.589323   -8912.7673    16230.773 
  144800    276.47095   -8881.8208     41.20537   -8923.0262   -35240.271 
  145000    309.14314   -8875.0202    46.074849    -8921.095    934.78685 
  145200    326.96891   -8857.3101    48.731611   -8906.0417     25902.64 
  145400    300.55027   -8874.7945    44.794163   -8919.5887    203.06963 
  145600    362.10727   -8878.2884     53.96865   -8932.2571    -25774.29 
  145800    279.82831    -8886.959    41.705753   -8928.6647   -32232.929 
  146000    357.42697   -8866.3035    53.271095   -8919.5746   -49913.664 
  146200    304.48158   -8880.4849    45.380088    -8925.865    29153.231 
  146400    316.41353   -8881.0235    47.158431   -8928.1819    31478.428 
  146600     324.3947   -8863.4315    48.347949   -8911.7794    20760.284 
  146800    299.65212   -8879.2035    44.660303   -8923.8638   -30724.242 
  147000    309.70443    -8882.371    46.158503   -8928.5295   -9232.9831 
  147200    317.41931   -8868.2145    47.308334   -8915.5228   -9985.8466 
  147400    330.92627   -8860.1377    49.321417   -8909.4591   -60889.921 
  147600    305.92061   -8878.1799    45.594562   -8923.7745    4384.5748 
  147800      273.744   -8886.5543    40.798943   -8927.3532   -1719.3266 
  148000    355.67309   -8869.9271    53.009697   -8922.9368    10712.086 
  148200    320.39254   -8879.1493    47.751465   -8926.9007    -52287.42 
  148400    263.47615    -8883.928    39.268618   -8923.1966     27431.86 
  148600    293.35994   -8876.2106    43.722512   -8919.9331    10136.604 
  148800    304.94226   -8871.8768    45.448748   -8917.3256    35425.045 
  149000     312.1264   -8884.3065    46.519476    -8930.826    1507.0079 
  149200    334.43416   -8868.4133    49.844235   -8918.2576    1349.8554 
  149400    332.08596   -8867.6434    49.494259   -8917.1376    -3007.277 
  149600    284.63022   -8880.7573    42.421431   -8923.1787    51783.063 
  149800    334.73792   -8874.1273    49.889508   -8924.0168    18612.649 
  150000    281.40551   -8871.4853    41.940819   -8913.4261   -13253.084 
  150200    316.56563   -8877.1599    47.181101    -8924.341    8165.7457 
  150400    225.49802   -8889.2879    33.608338   -8922.8963    3000.3975 
  150600    257.52594   -8885.4463    38.381796   -8923.8281    7573.0894 
  150800    289.35022   -8882.5314    43.124901   -8925.6563   -22022.122 
  151000    322.70612    -8867.959    48.096282   -8916.0553   -29587.167 
  151200    292.29972   -8882.4735    43.564497   -8926.0379    20029.557 
  151400    351.65202   -8875.6194    52.410394   -8928.0298    28648.502 
  151600    306.17099   -8872.2838    45.631877   -8917.9156    27890.897 
  151800    309.67281    -8881.781    46.153791   -8927.9348    3780.1757 
  152000    281.98077   -8882.0665    42.026556    -8924.093   -28504.446 
  152200    348.52009   -8866.3129     51.94361   -8918.2565     1017.526 
  152400    260.11255   -8884.7885    38.767305   -8923.5558   -2753.2934 
  152600    295.07699   -8875.8876    43.978423   -8919.8661   -19825.253 
  152800    270.67282   -8878.8215    40.341214   -8919.1628   -19195.629 
  153000    262.97855   -8888.7925    39.194456   -8927.9869    13292.453 
  153200    275.38817   -8871.0092    41.043991   -8912.0532   -9506.9345 
  153400    263.96575    -8883.361    39.341588   -8922.7026   -19185.098 
  153600    303.38841   -8886.7437    45.217161   -8931.9609    15153.298 
  153800    302.00345   -8880.1202    45.010745   -8925.1309    25715.676 
  154000    315.95492   -8869.0044     47.09008   -8916.0945    -11679.94 
  154200    237.16695   -8886.4978    35.347482   -8921.8452   -10275.688 
  154400    257.98454   -8876.7552    38.450146   -8915.2054    32363.035 
  154600    329.75765   -8869.6982    49.147246   -8918.8455   -9524.2198 
  154800    285.88867   -8877.6386     42.60899   -8920.2476   -3686.4713 
  155000    289.94778    -8872.289    43.213963   -8915.5029   -9942.2279 
  155200    314.33697   -8877.3415     46.84894   -8924.1904    11029.813 
  155400    255.21974    -8885.628    38.038079   -8923.6661    -9560.531 
  155600    338.82394   -8871.3535     50.49849   -8921.8519   -7073.4046 
  155800    317.97659   -8871.9703    47.391391   -8919.3617    12113.136 
  156000    289.96849   -8882.8669    43.217049   -8926.0839    23950.749 
  156200    270.28531   -8879.8872    40.283459   -8920.1707    5436.7784 
  156400    331.12091   -8868.0984    49.350427   -8917.4488    6414.6684 
  156600    256.49422   -8885.1509    38.228028   -8923.3789   -33763.701 
  156800    291.96836   -8879.9421     43.51511   -8923.4572    5697.1442 
  157000    351.33394   -8861.8427    52.362986   -8914.2057   -16818.169 
  157200    297.15213   -8878.6483    44.287703    -8922.936    -6160.867 
  157400    285.11371    -8882.005    42.493491   -8924.4985   -379.13558 
  157600    358.24745   -8866.3081    53.393381   -8919.7015    9134.5089 
  157800    289.87818   -8872.9983     43.20359   -8916.2018   -2045.1381 
  158000    348.99044   -8871.8417     52.01371   -8923.8554   -11318.395 
  158200    274.23892   -8886.3597    40.872707   -8927.2324    1281.9121 
  158400    345.72278   -8873.8721    51.526697   -8925.3987    6054.1709 
  158600    304.05429   -8878.8811    45.316404   -8924.1975    29616.167 
  158800    280.08859   -8888.8251    41.744544   -8930.5697   -22249.155 
  159000    290.23514   -8868.9657     43.25679   -8912.2225    23051.079 
  159200    300.02754   -8879.4775    44.716255   -8924.1938   -18012.871 
  159400    245.65804   -8880.9849    36.612997   -8917.5979   -17832.552 
  159600    312.31418   -8873.3349    46.547462   -8919.8824   -3811.3258 
  159800    314.61147   -8874.4092    46.889852    -8921.299   -23682.051 
  160000    382.19451   -8874.3794    56.962462   -8931.3419   -34654.822 
  160200    281.48119   -8882.2929    41.952099    -8924.245   -8360.5293 
  160400    301.34804   -8867.4352    44.913064   -8912.3483    19851.706 
  160600    296.40219   -8878.0858    44.175931   -8922.2617    5981.6295 
  160800    291.25002   -8883.0201    43.408049   -8926.4282    23965.286 
  161000    332.63583   -8857.1044    49.576212   -8906.6806   -37358.234 
  161200    262.23118    -8872.629    39.083066   -8911.7121   -20236.197 
  161400    264.96083   -8880.5719    39.489895   -8920.0618    6167.7133 
  161600    357.84811   -8869.8824    53.333863   -8923.2162    21387.222 
  161800    319.39821   -8874.4939    47.603269   -8922.0972    14706.413 
  162000    289.74736   -8886.5687    43.184092   -8929.7528   -29773.839 
  162200    328.96119   -8868.7124    49.028541    -8917.741   -5436.3381 
  162400    292.58544   -8872.6523    43.607081   -8916.2594    844.79965 
  162600     288.2271   -8878.4826    42.957512   -8921.4401    29844.936 
  162800    387.15078   -8864.8306    57.701147   -8922.5317   -2027.4797 
  163000    342.51835   -8869.8143    51.049108   -8920.8634   -5677.7126 
  163200    299.88292    -8879.082    44.694701   -8923.7767    28685.223 
  163400    281.07177   -8877.8564    41.891077   -8919.7475    20056.946 
  163600    324.47115   -8882.0433    48.359343   -8930.4026   -32504.205 
  163800    290.42187   -8877.1801    43.284622   -8920.4647     25809.79 
  164000    351.74048   -8872.5259    52.423578   -8924.9494    -26017.94 
  164200    283.18184   -8881.9646    42.205564   -8924.1702   -21282.948 
  164400    324.20518   -8870.6795    48.319702   -8918.9992    9994.8568 
  164600     343.3564   -8859.7186    51.174011   -8910.8926   -424.98366 
  164800    261.47636    -8884.201    38.970569   -8923.1716    -42982.37 
  165000    319.52449   -8875.6478    47.622091   -8923.2699   -43325.165 
  165200    330.86678   -8871.0422    49.312551   -8920.3548   -2842.1381 
  165400    326.39986   -8886.7496      48.6468   -8935.3964    38692.731 
  165600    342.74493   -8876.2594    51.082876   -8927.3423     24860.67 
  165800    363.07683   -8868.4195    54.113152   -8922.5327    19803.386 
  166000    295.16585   -8876.5736    43.991667   -8920.5653   -12948.593 
  166200    324.97916   -8871.2678    48.435058   -8919.7028   -15973.923 
  166400    352.00398   -8870.6944    52.462849   -8923.1573   -40758.903 
  166600    317.62833   -8884.6825    47.339486   -8932.0219   -8826.5966 
  166800    302.10835   -8879.3972    45.026381   -8924.4236   -9246.5092 
  167000    339.75647   -8869.7457    50.637476   -8920.3832     -12890.8 
  167200    265.57336   -8882.5422    39.581187   -8922.1234   -28883.087 
  167400    295.07118   -8872.1753    43.977556   -8916.1529    21284.719 
  167600    310.01156   -8871.7225    46.204279   -8917.9268   -35351.246 
  167800    397.84948   -8852.3289    59.295687   -8911.6246   -12875.397 
  168000    309.52334    -8874.492    46.131514   -8920.6235    9314.0716 
  168200    307.51861   -8874.6522    45.832728   -8920.4849   -29732.168 
  168400    323.14487   -8876.8014    48.161674   -8924.9631    7333.8918 
  168600    294.23404   -8879.9462    43.852789    -8923.799    2725.4765 
  168800    355.50908   -8864.4913    52.985252   -8917.4766    31886.584 
  169000    339.17818    -8873.558    50.551286   -8924.1093   -40280.938 
  169200    306.77234   -8876.1133    45.721504   -8921.8348    -494.2992 
  169400    338.22491   -8866.7384     50.40921   -8917.1476    39553.348 
  169600    354.71003   -8870.8996     52.86616   -8923.7658   -29058.249 
  169800    279.84512   -8880.9843    41.708257   -8922.6925   -6531.7443 
  170000    252.23378   -8888.2841    37.593049   -8925.8771   -5061.7907 
  170200    267.52395   -8885.3782    39.871904   -8925.2502   -1838.9092 
  170400     273.5519   -8877.6428    40.770313   -8918.4131    43321.963 
  170600     310.5061   -8865.4616    46.277985   -8911.7396    13287.512 
  170800    320.53151   -8869.6502    47.772178   -8917.4224   -34763.157 
  171000    301.54228   -8874.2381    44.942012   -8919.1801   -19499.927 
  171200    238.82181   -8879.6649    35.594122    -8915.259    32970.865 
  171400    294.71501   -8883.1421    43.924473   -8927.0666    4994.7303 
  171600    325.27855    -8868.695    48.479678   -8917.1746   -24769.529 
  171800    258.01894   -8883.5097    38.455273   -8921.9649   -39034.465 
  172000    262.91882   -8885.4301    39.185554   -8924.6156    604.66756 
  172200    292.56328   -8863.2716    43.603779   -8906.8754    9747.7992 
  172400    299.23664   -8871.0178     44.59838   -8915.6162    20397.215 
  172600    298.77577   -8878.6034    44.529691   -8923.1331   -8631.0102 
  172800    357.28472    -8867.136    53.249894   -8920.3859    12921.101 
  173000    378.77395   -8852.0115     56.45266   -8908.4642    -27380.47 
  173200    272.85751   -8879.2079    40.666821   -8919.8747    27006.905 
  173400    286.25668   -8883.4716    42.663839   -8926.1354    3855.0537 
  173600    307.75571   -8871.1927    45.868065   -8917.0608   -32712.361 
  173800     266.1111   -8879.4889    39.661333   -8919.1502   -13682.868 
  174000    394.87062   -8860.7748    58.851716   -8919.6266   -28461.131 
  174200    306.13109   -8876.2812    45.625931   -8921.9071   -8153.9478 
  174400    340.09717    -8872.188    50.688253   -8922.8763   -21057.583 
  174600    262.36628   -8883.2417    39.103203   -8922.3449     30722.92 
  174800    330.30207   -8878.8451    49.228387   -8928.0735   -2030.2856 
  175000    268.10455   -8874.1453    39.958437   -8914.1038    -35006.32 
  175200    280.64095   -8876.1441    41.826868    -8917.971   -1282.3613 
  175400    248.62661   -8884.5939    37.055435   -8921.6493    31572.992 
  175600    323.19353   -8866.3077    48.168927   -8914.4766    24683.676 
  175800    281.17031   -8870.3578    41.905765   -8912.2635    7673.4004 
  176000    316.06822   -8877.9798    47.106966   -8925.0868    49464.876 
  176200    261.72658   -8883.9322     39.00786   -8922.9401    18535.734 
  176400    325.22086   -8872.0566     48.47108   -8920.5277   -36699.306 
  176600    310.52006   -8883.1607    46.280065   -8929.4408     11530.19 
  176800    277.01496   -8887.3404    41.286449   -8928.6269    2014.8453 
  177000    313.13748   -8869.8119    46.670167   -8916.4821   -9074.4912 
  177200    297.79179   -8868.1671    44.383038   -8912.5501   -34512.884 
  177400    264.31451   -8883.2024    39.393568    -8922.596   -17912.718 
  177600    340.24962   -8871.7539    50.710975   -8922.4649   -5835.4541 
  177800    265.97679   -8871.4309    39.641314   -8911.0722    23174.774 
  178000    275.58037   -8878.3727    41.072636   -8919.4453    2776.4257 
  178200    201.32457   -8894.7065    30.005515    -8924.712   -29617.592 
  178400    308.32361   -8878.5238    45.952705   -8924.4766   -9799.7853 
  178600    310.74362   -8871.3046    46.313385   -8917.6179   -26341.735 
  178800    290.98256   -8877.4062    43.368187   -8920.7744   -20427.806 
  179000     207.3156   -8885.8397    30.898421   -8916.7381    17571.262 
  179200    271.21417   -8867.6755    40.421896   -8908.0974     224.0248 
  179400    276.58718   -8877.0029    41.222693   -8918.2256    17788.807 
  179600    256.78006    -8889.135    38.270629   -8927.4056   -14152.378 
  179800    292.24756    -8881.935    43.556723   -8925.4917   -12149.278 
  180000    318.98224   -8870.1624    47.541273   -8917.7036    -8097.258 
  180200      297.936   -8882.4656    44.404531   -8926.8701    32277.718 
  180400    394.30483   -8863.6632    58.767389   -8922.4306   -4414.6052 
  180600    321.57264   -8873.7109    47.927348   -8921.6382   -22572.468 
  180800    299.88402   -8873.9615    44.694866   -8918.6564    38792.315 
  181000    375.38048   -8862.7407    55.946895   -8918.6876    42381.748 
  181200    308.58652   -8875.1864    45.991891   -8921.1783   -23415.217 
[...]
  950000    295.21176   -8870.0345    43.998509    -8914.033   -9144.1483 
  950200    328.87797   -8864.7633    49.016138   -8913.7794    27431.382 
  950400    288.18678   -8880.1329    42.951503   -8923.0845    51923.904 
  950600    313.27986   -8869.9016    46.691388    -8916.593    5579.3122 
  950800    291.24973    -8867.658    43.408006    -8911.066   -126.73161 
  951000     270.6328   -8881.5508    40.335248   -8921.8861    17644.066 
  951200    315.90888   -8877.3195    47.083218   -8924.4028   -11619.007 
  951400    358.88438   -8857.4276    53.488309   -8910.9159    56831.836 
  951600    277.07813   -8874.4233    41.295863   -8915.7192   -7551.1748 
  951800     233.9569   -8884.1747    34.869054   -8919.0437   -20596.552 
  952000    324.69668   -8865.2274    48.392956   -8913.6203    26212.322 
  952200    306.32664   -8877.1671    45.655077   -8922.8222    -30135.72 
  952400    296.78979    -8877.127    44.233699   -8921.3607   -31537.924 
  952600    348.86963   -8869.4425    51.995704   -8921.4382    25437.951 
  952800    267.66286   -8872.7998    39.892607   -8912.6924    2237.7878 
  953000    273.36972    -8878.523     40.74316   -8919.2661    -3757.346 
  953200    336.98572   -8865.9845    50.224522   -8916.2091   -28953.404 
  953400     279.5286   -8877.7525    41.661083   -8919.4136    -42144.76 
  953600    320.52293   -8878.3639    47.770899   -8926.1348    3938.0075 
  953800    322.23284   -8873.9284    48.025744   -8921.9541    21097.889 
  954000    323.92453   -8867.9271    48.277874   -8916.2049   -10362.757 
  954200    337.39173   -8880.8699    50.285034   -8931.1549    43209.714 
  954400    212.13093   -8880.4418    31.616101   -8912.0579    740.59885 
  954600     314.0364    -8871.258    46.804143   -8918.0622   -23666.117 
  954800    224.29945   -8882.4807    33.429703   -8915.9104    24413.336 
  955000    253.05259   -8884.5511    37.715085   -8922.2662   -20549.364 
  955200    265.45349    -8876.557    39.563322   -8916.1203   -22636.835 
  955400    350.55435   -8863.9662    52.246797    -8916.213   -15562.228 
  955600    351.21173   -8868.0463    52.344773    -8920.391    19367.887 
  955800    243.19312   -8879.9221    36.245625   -8916.1677   -27197.749 
  956000    296.74274    -8865.088    44.226687   -8909.3147    43922.564 
  956200    261.15644   -8872.9715    38.922886   -8911.8944   -11526.705 
  956400    275.28158     -8879.77    41.028106   -8920.7981    14300.514 
  956600    332.40062   -8869.0259    49.541156   -8918.5671    10067.719 
  956800    336.43845   -8872.0408    50.142956   -8922.1838   -18834.482 
  957000    250.35494   -8883.0905    37.313026   -8920.4035    194.38402 
  957200    292.87027   -8868.5082    43.649533   -8912.1577    36141.421 
  957400    391.50761   -8848.8833    58.350491   -8907.2338   -35360.875 
  957600    269.03077   -8869.3184    40.096481   -8909.4148   -1100.4657 
  957800    283.58768   -8879.3198    42.266051   -8921.5859   -27759.454 
  958000    317.77094   -8864.3394     47.36074   -8911.7001    28566.786 
  958200    271.02478   -8877.9808     40.39367   -8918.3745    16087.241 
  958400     314.5865   -8877.5221    46.886131   -8924.4082    47328.379 
  958600     345.0078   -8866.4596    51.420135   -8917.8797   -46139.975 
  958800    249.26567   -8884.6198    37.150681   -8921.7704    2052.5586 
  959000    303.11632   -8876.0766    45.176609   -8921.2532    13982.345 
  959200    270.19679   -8873.0707    40.270265    -8913.341   -49822.902 
  959400    296.04309   -8867.5643    44.122411   -8911.6867    11042.062 
  959600    322.46593   -8869.6428    48.060485   -8917.7033   -41409.246 
  959800     282.1895    -8880.919    42.057665   -8922.9767    18923.043 
  960000    332.58503    -8865.801    49.568641   -8915.3696   -18648.105 
  960200    291.09039   -8882.9434    43.384257   -8926.3277    26314.921 
  960400    295.81597   -8873.8303    44.088561   -8917.9188   -731.70447 
  960600    294.49313   -8874.6925    43.891403   -8918.5839    -7154.409 
  960800    255.29765   -8885.7715     38.04969   -8923.8212   -18719.295 
  961000    353.42119   -8865.4465    52.674071   -8918.1206    50223.696 
  961200    240.15047   -8880.3507    35.792146   -8916.1429    32577.952 
  961400    323.98275   -8876.9135    48.286552   -8925.2001   -2215.4546 
  961600    355.30695   -8866.1006    52.955126   -8919.0558   -6668.4875 
  961800    288.48558   -8877.2435    42.996036   -8920.2396    8760.6965 
  962000     369.9724   -8869.5713    55.140872   -8924.7122   -28077.873 
  962200    361.72014   -8866.9587    53.910951   -8920.8697    10372.872 
  962400     309.3633   -8877.4303    46.107662   -8923.5379    26777.745 
  962600    303.19694   -8875.0414    45.188625     -8920.23   -27976.217 
  962800    274.82145   -8877.2765    40.959527    -8918.236   -32878.485 
  963000     361.5365    -8864.963    53.883581   -8918.8466    13457.105 
  963200     322.2854   -8883.4545    48.033577   -8931.4881    29396.155 
  963400    313.95399   -8875.9642    46.791861    -8922.756   -49776.797 
  963600    334.72038   -8873.5765    49.886893   -8923.4634    26692.079 
  963800    242.76083    -8888.109    36.181197   -8924.2902   -19381.393 
  964000    323.80591   -8873.1356    48.260195   -8921.3958    -40103.01 
  964200    301.85637   -8874.5704    44.988825   -8919.5592    15839.027 
  964400    414.06604   -8857.8048    61.712611   -8919.5174    48067.526 
  964600    296.03191   -8876.7392    44.120745   -8920.8599    21349.211 
  964800    264.14656      -8878.3    39.368535   -8917.6686   -18333.173 
  965000    386.93976    -8861.292    57.669696   -8918.9617    20056.266 
  965200    287.48276   -8875.3681    42.846575   -8918.2147    2896.5239 
  965400    274.48512   -8876.2311    40.909401   -8917.1405   -13361.528 
  965600    411.94591   -8852.3511    61.396626   -8913.7478    16014.203 
  965800    282.90361   -8870.2142    42.164097   -8912.3783   -59252.379 
  966000    268.91168   -8879.3153    40.078732   -8919.3941    20040.426 
  966200    247.94735   -8885.2405    36.954198   -8922.1947   -12312.112 
  966400    297.46557    -8866.663    44.334419   -8910.9974   -22418.667 
  966600    273.93055   -8879.7438    40.826747   -8920.5706   -26086.837 
  966800    274.22239   -8884.1982    40.870242   -8925.0684   -7388.0094 
  967000    308.14667   -8872.7145    45.926334   -8918.6408   -33646.702 
  967200    284.64685   -8873.4258     42.42391   -8915.8498    3216.0805 
  967400    222.17626   -8885.9737    33.113261   -8919.0869   -60076.005 
  967600    274.83527   -8879.4035    40.961586   -8920.3651     45287.82 
  967800    340.61996   -8868.2968     50.76617   -8919.0629    19495.596 
  968000    295.88554   -8883.6858     44.09893   -8927.7847    -14097.84 
  968200     250.4807   -8885.3531    37.331769   -8922.6848   -52878.893 
  968400    301.13443   -8875.2836    44.881227   -8920.1648    5836.9704 
  968600    304.65799   -8859.2082    45.406379   -8904.6146    35703.518 
  968800    280.23535   -8869.8823    41.766417   -8911.6487    5522.6683 
  969000    278.75768   -8878.9526    41.546185   -8920.4988   -34379.027 
  969200    380.01124   -8869.3001    56.637066   -8925.9371   -38715.996 
  969400    353.46859   -8870.0621    52.681136   -8922.7433    4523.9678 
  969600    293.80224   -8882.8583    43.788433   -8926.6468    14894.821 
  969800    344.49572   -8868.7998    51.343816   -8920.1436   -12434.094 
  970000    415.86023   -8863.9131    61.980018   -8925.8932   -15693.963 
  970200    303.29527   -8882.7706     45.20328   -8927.9739    25015.638 
  970400    320.27657    -8874.843     47.73418   -8922.5772   -20452.402 
  970600    319.17695   -8864.4931    47.570294   -8912.0634    -63522.23 
  970800    291.10485   -8877.6787    43.386413   -8921.0651   -10879.737 
  971000    282.45928   -8879.0203    42.097873   -8921.1182    -33150.53 
  971200    324.19739   -8866.1257    48.318542   -8914.4442    11549.605 
  971400    244.61782    -8886.737    36.457962    -8923.195   -18888.041 
  971600    320.83264    -8874.346    47.817057    -8922.163   -48507.726 
  971800    315.16905   -8869.8521    46.972954   -8916.8251   -12951.993 
  972000    264.70396   -8886.6657    39.451611   -8926.1173     6498.233 
  972200    303.83969   -8875.7029     45.28442   -8920.9874    -45477.45 
  972400    331.54081   -8871.5372    49.413009   -8920.9502   -2442.3369 
  972600    290.19134   -8880.7225    43.250263   -8923.9728    22170.495 
  972800    269.33448   -8889.8018    40.141746   -8929.9435    25161.453 
  973000    329.78638   -8871.9398    49.151528   -8921.0913    11962.365 
  973200    342.27727   -8870.4204    51.013177   -8921.4336   -8018.7938 
  973400     263.3792   -8887.5081    39.254169   -8926.7623   -18495.758 
  973600    329.58769   -8875.1208    49.121916   -8924.2427    4123.6262 
  973800    310.17659   -8871.7302    46.228875    -8917.959   -4352.2707 
  974000    308.56891   -8878.0852    45.989266   -8924.0744     38058.73 
  974200    301.93602   -8882.7296    45.000697   -8927.7303    33205.835 
  974400    353.84036   -8869.6708    52.736545   -8922.4074   -6215.1201 
  974600    310.57609   -8876.0805    46.288417   -8922.3689     8611.858 
  974800     217.4952   -8895.6691    32.415594   -8928.0847   -493.01663 
  975000    279.05452   -8880.6592    41.590426   -8922.2496   -6994.7941 
  975200    301.34689   -8869.1407    44.912891   -8914.0535    15069.284 
  975400    282.67782   -8873.8556    42.130444   -8915.9861    18677.531 
  975600    256.66781   -8882.5102      38.2539   -8920.7641   -5319.5866 
  975800    303.42834   -8871.3872    45.223113   -8916.6103    30241.911 
  976000     295.1923   -8874.3057    43.995609   -8918.3013   -30101.508 
  976200    255.29321   -8887.1941    38.049028   -8925.2431    18992.851 
  976400    305.00746   -8871.6549    45.458465   -8917.1134    32790.367 
  976600    279.10493   -8874.7651    41.597939    -8916.363   -33408.761 
  976800    259.41136   -8887.8108    38.662799   -8926.4736   -28641.647 
  977000    313.56423    -8872.398     46.73377   -8919.1318   -14728.143 
  977200    302.34088   -8870.1976    45.061036   -8915.2587   -21410.609 
  977400    268.67334   -8885.2617     40.04321   -8925.3049    8354.9477 
  977600    259.05474   -8871.1749    38.609648   -8909.7845   -23931.315 
  977800    280.71581   -8865.6597    41.838026   -8907.4977    -12222.76 
  978000    320.33768   -8880.5122    47.743288   -8928.2555    5436.2336 
  978200    282.91412   -8879.9386    42.165663   -8922.1043   -17218.107 
  978400    292.84493   -8875.1031    43.645756   -8918.7489    8384.2266 
  978600    264.71556   -8888.1644    39.453339   -8927.6178   -15057.698 
  978800    308.46664    -8879.916    45.974024   -8925.8901   -43852.679 
  979000    287.15948   -8872.8732    42.798393   -8915.6716    9510.7473 
  979200    373.58913   -8868.9393    55.679912   -8924.6192   -21890.557 
  979400    278.70695   -8880.4581    41.538624   -8921.9967    28953.104 
  979600    318.18872   -8876.3421    47.423006   -8923.7651    -10008.01 
  979800    349.45628   -8859.2232     52.08314   -8911.3063   -22385.544 
  980000    315.36007   -8876.5708    47.001424   -8923.5723    33088.673 
  980200     345.1997   -8878.0592    51.448737   -8929.5079    8192.5919 
  980400     335.8188   -8868.9419    50.050602   -8918.9925    -5517.584 
  980600    225.61493   -8879.4081    33.625763   -8913.0339   -8294.5105 
  980800    261.54505   -8886.2917    38.980806   -8925.2725   -31943.973 
  981000     316.8249    -8872.144    47.219742   -8919.3637   -23104.259 
  981200     309.3044   -8869.4101    46.098883    -8915.509   -19564.347 
  981400    281.04946   -8882.8648    41.887753   -8924.7525   -29433.018 
  981600    280.79845   -8878.5549    41.850342   -8920.4052   -18983.661 
  981800    313.89586   -8859.0101    46.783197   -8905.7933   -12881.199 
  982000    342.49111   -8867.8786    51.045047   -8918.9237    3646.3928 
  982200    284.82596   -8882.0594    42.450604     -8924.51   -15546.381 
  982400     299.6333   -8872.0949    44.657498   -8916.7524    23091.039 
  982600     264.6215   -8863.5101    39.439322   -8902.9494    7263.4548 
  982800    281.63047     -8874.48    41.974347   -8916.4543    4950.4093 
  983000     280.2423   -8879.1368    41.767454   -8920.9042   -13619.748 
  983200    353.66937   -8863.9671    52.711061   -8916.6782    4359.0736 
  983400    334.72785   -8872.6406    49.888007   -8922.5286    13499.509 
  983600    288.50361   -8881.8633    42.998722    -8924.862    8240.6714 
  983800     323.2069    -8872.918    48.170919   -8921.0889   -8176.6264 
  984000    299.98473   -8870.9107    44.709874   -8915.6206    -22732.37 
  984200    337.37111   -8878.9199     50.28196   -8929.2019    10034.774 
  984400    340.92728   -8870.4745    50.811973   -8921.2864    32695.887 
  984600    281.50556   -8884.3225    41.955731   -8926.2782    11864.168 
  984800    269.64771   -8879.6276    40.188429    -8919.816    -21513.69 
  985000    296.50767   -8868.0116    44.191652   -8912.2033   -23328.847 
  985200    249.22615   -8889.9842     37.14479    -8927.129    41778.053 
  985400    306.63638   -8878.5312     45.70124   -8924.2325   -3711.1364 
  985600    353.02059   -8867.7567    52.614366   -8920.3711    23070.362 
  985800    342.86255   -8874.0188    51.100406   -8925.1192   -5194.6743 
  986000     305.2949   -8883.5802    45.501305   -8929.0816   -3964.8738 
  986200    381.67597   -8867.8881    56.885178   -8924.7733   -24545.659 
  986400    324.46011   -8877.1486    48.357698   -8925.5063    14081.225 
  986600    315.29251   -8885.3772    46.991354   -8932.3685   -2011.7254 
  986800    366.52516   -8870.4712    54.627094   -8925.0983    5437.6116 
  987000     308.0983     -8871.78    45.919125   -8917.6992    46773.864 
  987200    288.59425   -8884.0849    43.012232   -8927.0972   -43512.695 
  987400     345.7272   -8864.8351    51.527356   -8916.3625    9722.5066 
  987600    326.06059   -8871.6341    48.596234   -8920.2303    11101.604 
  987800    257.29809   -8883.2638    38.347837   -8921.6116    46571.878 
  988000    321.38925   -8870.6425    47.900015   -8918.5425   -35986.867 
  988200     325.5392   -8871.2611    48.518526   -8919.7796    -1480.862 
  988400    264.75111    -8884.122    39.458639   -8923.5806    15008.653 
  988600    303.82764   -8873.7934    45.282625    -8919.076    11834.452 
  988800    389.97142   -8855.2207    58.121536   -8913.3423   -6121.9853 
  989000     275.8595   -8877.0936    41.114239   -8918.2078    18239.258 
  989200    255.67674   -8881.0441    38.106189   -8919.1503   -11955.387 
  989400    343.84942   -8864.2228     51.24749   -8915.4703    3771.5922 
  989600    272.38729    -8881.852    40.596738   -8922.4487    30835.749 
  989800    290.29918   -8879.1173    43.266336   -8922.3836    15804.233 
  990000    343.41832   -8860.7996    51.183239   -8911.9828   -9326.5223 
  990200     277.0856   -8883.2347    41.296976   -8924.5316    41323.496 
  990400    315.39086   -8871.8176    47.006012   -8918.8236    40002.223 
  990600    296.48662   -8877.6057    44.188515   -8921.7942    19361.696 
  990800    272.29902    -8881.349    40.583582   -8921.9326   -4669.7188 
  991000    288.21451   -8877.1531    42.955636   -8920.1087    23065.116 
  991200    273.21538   -8878.6301    40.720157   -8919.3502    29804.942 
  991400    297.35074   -8870.4286    44.317304   -8914.7459   -42024.839 
  991600    356.45888    -8863.495     53.12681   -8916.6218     17022.68 
  991800    254.73905   -8882.4258    37.966436   -8920.3923    12170.073 
  992000    334.79356    -8870.694      49.8978   -8920.5918    42312.608 
  992200     328.1674   -8868.9569    48.910234   -8917.8671    -41712.43 
  992400    301.34351   -8877.1741    44.912388   -8922.0865    55738.775 
  992600    233.84986   -8894.0282      34.8531   -8928.8813    -33158.65 
  992800    299.45725   -8884.1024    44.631259   -8928.7336   -9827.5401 
  993000    292.72812   -8876.9561    43.628346   -8920.5845    48109.938 
  993200    331.45377   -8872.7837    49.400036   -8922.1837   -17089.114 
  993400    338.80205   -8867.7138    50.495228    -8918.209   -35350.666 
  993600    257.55718   -8883.8927    38.386452   -8922.2791    42387.682 
  993800     362.5015   -8870.0969    54.027406   -8924.1243    11897.552 
  994000    318.90176   -8867.8658    47.529279    -8915.395     25999.44 
  994200    290.77819   -8883.4159    43.337728   -8926.7536   -20079.486 
  994400    317.28912   -8870.9844    47.288929   -8918.2733    13143.704 
  994600    338.55541   -8869.9455    50.458469   -8920.4039     800.5545 
  994800    346.39163   -8875.8311    51.626382   -8927.4575   -9011.3011 
  995000    225.74659   -8890.9397    33.645385   -8924.5851   -24455.069 
  995200    240.56249   -8884.5732    35.853554   -8920.4267    8237.5205 
  995400     316.6129   -8876.4956    47.188146   -8923.6837   -17101.823 
  995600    357.07126   -8872.4372     53.21808   -8925.6553    24623.554 
  995800    337.75641   -8882.9424    50.339385   -8933.2818    2315.7919 
  996000    335.89116   -8875.2351    50.061388   -8925.2965   -16964.446 
  996200     292.5598   -8870.6595    43.603259   -8914.2628   -13529.887 
  996400    311.91106   -8875.3784    46.487381   -8921.8657   -3633.6067 
  996600    291.46732   -8881.1573    43.440436   -8924.5977    -369.4654 
  996800    349.12623   -8865.2965    52.033948   -8917.3305    58243.959 
  997000    259.02234   -8876.3955    38.604819   -8915.0003   -42939.602 
  997200    265.48145    -8878.673    39.567489   -8918.2405    12883.413 
  997400    314.43789    -8879.849    46.863982   -8926.7129   -40517.734 
  997600    320.90373   -8867.4083    47.827653   -8915.2359    -9841.502 
  997800    301.49215   -8881.7984    44.934541   -8926.7329    46596.749 
  998000    305.02606    -8876.253    45.461237   -8921.7142   -11987.823 
  998200    291.37691   -8878.2825    43.426962   -8921.7095    -6787.133 
  998400    297.03082    -8873.919    44.269623   -8918.1886    17250.623 
  998600    283.08134   -8877.3597    42.190585   -8919.5503    13085.831 
  998800    236.73901    -8887.977      35.2837   -8923.2607   -21203.698 
  999000    300.21997   -8870.2866    44.744935   -8915.0316    -19413.74 
  999200    222.07877   -8883.0563    33.098732    -8916.155   -17306.881 
  999400     292.3424   -8884.2719    43.570857   -8927.8428   -29441.392 
  999600     340.6139   -8866.8912    50.765267   -8917.6565   -49008.005 
  999800    250.93074   -8880.5704    37.398844   -8917.9692     3620.684 
 1000000     341.1546   -8876.5093    50.845854   -8927.3552    10409.922 
Loop time of 4415.71 on 8 procs for 1000000 steps with 51 atoms

Performance: 4.892 ns/day, 4.906 hours/ns, 226.464 timesteps/s
99.1% CPU use with 8 MPI tasks x no OpenMP threads

MPI task timing breakdown:
Section |  min time  |  avg time  |  max time  |%varavg| %total
---------------------------------------------------------------
Pair    | 3783.2     | 3863.4     | 3945.2     |  87.4 | 87.49
Neigh   | 5.4691     | 5.5406     | 5.5943     |   1.7 |  0.13
Comm    | 91.919     | 173.98     | 254.3      | 413.0 |  3.94
Output  | 0.12278    | 0.1346     | 0.20509    |   7.3 |  0.00
Modify  | 368.35     | 368.56     | 368.96     |   1.0 |  8.35
Other   |            | 4.069      |            |       |  0.09

Nlocal:    6.375 ave 8 max 6 min
Histogram: 6 0 0 0 0 1 0 0 0 1
Nghost:    931.75 ave 953 max 914 min
Histogram: 1 1 1 0 1 1 2 0 0 1
Neighs:    1812.88 ave 2225 max 1698 min
Histogram: 6 0 0 0 0 1 0 0 0 1

Total # of neighbors = 14503
Ave neighs/atom = 284.373
Neighbor list builds = 2317
Dangerous builds = 0

Please see the log.cite file for references relevant to this simulation

Total wall time: 1:13:43
