ITEM: TIMESTEP
0
ITEM: NUMBER OF ATOMS
129
ITEM: BOX BOUNDS xy xz yz pp pp pp
0.0000000000000000e+00 2.3654499999999999e+01 7.8845000000000001e+00
0.0000000000000000e+00 1.3658086643083999e+01 0.0000000000000000e+00
0.0000000000000000e+00 2.5747000000000000e+01 0.0000000000000000e+00
ITEM: ATOMS id type x y z 
18 1 10.522 6.683 2.644 
28 1 5.247 4.273 12.803 
31 1 9.65 6.514 0.446 
62 1 9.171 5.15 12.405 
91 1 9.65 6.514 11.889 
92 1 10.81 6.18 11.007 
106 1 10.522 6.683 9.691 
127 1 10.81 6.18 1.328 
4 1 4.402 5.735 13.319 
5 1 3.307 5.568 14.201 
43 1 4.549 6.796 15.517 
52 1 9.172 5.15 25.677 
66 1 4.402 5.735 24.762 
67 1 5.003 6.76 23.881 
88 1 5.247 4.273 25.278 
107 1 3.307 5.568 23.881 
116 1 4.549 6.796 22.565 
117 1 5.003 6.76 14.201 
11 1 11.272 7.494 3.321 
12 1 10.477 8.871 4.018 
14 1 9.018 11.397 0.446 
15 1 10.114 11.565 1.328 
16 1 8.412 9.024 0.654 
19 1 10.477 8.871 5.569 
29 1 10.927 10.156 3.321 
32 1 8.77 7.648 1.328 
35 1 12.036 9.594 2.644 
45 1 9.231 8.963 3.321 
47 1 12.762 8.702 0.446 
49 1 11.224 11 0.654 
51 1 8.872 10.337 2.644 
53 1 11.272 7.494 9.014 
54 1 10.477 8.871 8.317 
56 1 9.018 11.397 11.889 
57 1 8.418 10.372 11.007 
58 1 11.224 11 11.681 
60 1 12.255 7.901 9.691 
61 1 10.477 8.871 6.766 
73 1 9.231 8.963 9.014 
75 1 12.762 8.702 11.889 
76 1 12.202 10.061 11.007 
79 1 9.224 7.617 9.691 
80 1 8.174 12.859 12.405 
89 1 10.927 10.156 9.014 
93 1 8.412 9.024 11.681 
95 1 9.951 11.095 9.691 
105 1 10.114 11.565 11.007 
109 1 8.77 7.648 11.007 
110 1 12.036 9.594 9.691 
114 1 8.872 10.337 9.691 
119 1 8.418 10.372 1.328 
120 1 12.255 7.901 2.644 
123 1 12.202 10.061 1.328 
124 1 9.224 7.617 2.644 
128 1 9.951 11.095 2.644 
129 2 7.089 10.436 11.276 
6 1 5.009 8.108 13.527 
13 1 9.663 10.28 25.128 
17 1 9.204 8.965 25.162 
30 1 10.016 7.556 25.128 
34 1 11.289 7.464 25.162 
36 1 8.174 12.859 25.677 
46 1 11.752 8.777 25.128 
50 1 10.937 10.184 25.162 
55 1 9.663 10.28 12.954 
59 1 10.937 10.184 12.919 
74 1 11.752 8.777 12.954 
78 1 11.289 7.464 12.919 
90 1 10.016 7.556 12.954 
94 1 9.204 8.965 12.919 
101 1 5.009 8.108 24.555 
33 1 11.795 6.589 0.654 
77 1 11.795 6.589 11.681 
41 1 17.967 6.132 13.527 
68 1 17.967 6.132 24.554 
103 1 19.24 6.037 22.565 
126 1 19.24 6.037 15.517 
3 1 19.528 6.852 12.254 
7 1 19.987 8.167 12.289 
10 1 15.106 8.528 12.804 
22 1 19.175 9.576 12.254 
26 1 17.902 9.668 12.289 
38 1 17.439 8.356 12.254 
42 1 18.254 6.949 12.289 
44 1 20.019 11.982 12.804 
48 1 12.546 7.4 1.328 
65 1 19.528 6.852 0.081 
69 1 18.254 6.949 0.046 
82 1 17.439 8.356 0.081 
86 1 17.902 9.668 0.046 
96 1 14.084 8.604 12.405 
98 1 19.175 9.576 0.081 
102 1 19.987 8.167 0.046 
113 1 12.546 7.4 11.007 
1 1 17.919 9.638 16.194 
2 1 18.714 8.261 16.892 
8 1 18.669 10.449 15.517 
9 1 18.714 8.261 18.442 
20 1 14.084 8.604 25.677 
21 1 18.264 6.977 16.194 
23 1 19.541 10.618 13.32 
24 1 20.421 9.484 14.201 
25 1 17.396 10.544 13.527 
27 1 17.155 7.538 15.517 
37 1 19.96 8.169 16.194 
39 1 16.429 8.43 13.319 
40 1 16.644 9.732 14.201 
63 1 17.919 9.638 21.888 
64 1 18.714 8.261 21.19 
70 1 16.936 9.231 22.565 
71 1 18.714 8.261 19.64 
72 1 20.019 11.982 25.278 
81 1 19.96 8.169 21.888 
83 1 16.429 8.43 24.762 
84 1 16.989 7.071 23.881 
85 1 17.396 10.544 24.555 
87 1 19.967 9.515 22.565 
97 1 18.263 6.977 21.888 
99 1 19.541 10.618 24.762 
100 1 18.38 10.953 23.881 
104 1 15.106 8.528 25.278 
108 1 18.669 10.449 22.565 
111 1 20.421 9.484 23.881 
112 1 17.155 7.538 22.565 
115 1 16.644 9.732 23.881 
118 1 16.936 9.231 15.517 
121 1 16.989 7.071 14.201 
122 1 19.967 9.515 15.517 
125 1 18.38 10.953 14.201 
ITEM: TIMESTEP
10
ITEM: NUMBER OF ATOMS
129
ITEM: BOX BOUNDS xy xz yz pp pp pp
0.0000000000000000e+00 2.3654499999999999e+01 7.8845000000000001e+00
0.0000000000000000e+00 1.3658086643083999e+01 0.0000000000000000e+00
0.0000000000000000e+00 2.5747000000000000e+01 0.0000000000000000e+00
ITEM: ATOMS id type x y z 
18 1 10.4247 6.7818 2.62658 
28 1 5.10365 4.56966 12.8867 
31 1 9.37475 6.53638 0.416663 
62 1 9.09496 5.14976 12.4195 
91 1 9.41911 6.51134 11.9334 
92 1 10.8398 6.17349 10.9744 
106 1 10.3758 6.74867 9.68424 
127 1 10.7793 6.18364 1.41515 
4 1 4.44712 5.80728 13.2578 
5 1 3.19048 5.59863 14.2118 
43 1 4.61112 6.95779 15.4509 
52 1 9.11423 5.2285 25.6927 
66 1 4.47318 5.77825 24.8259 
67 1 5.10921 6.97672 23.8716 
88 1 5.1162 4.55066 25.1952 
107 1 3.16546 5.60051 23.8662 
116 1 4.60043 6.96843 22.6025 
117 1 5.1102 6.95512 14.2124 
11 1 11.3042 7.56269 3.35423 
12 1 10.4877 8.81455 4.12652 
14 1 8.97017 11.3035 0.362231 
15 1 10.2344 11.5574 1.34046 
16 1 8.41166 8.9358 0.722524 
19 1 10.4667 8.86416 5.54026 
29 1 10.9674 10.1328 3.34401 
32 1 8.71199 7.68436 1.26696 
35 1 12.0091 9.63734 2.57314 
45 1 9.25536 8.94456 3.26536 
47 1 12.7325 8.73888 0.535089 
49 1 11.3058 11.0321 0.689696 
51 1 8.82642 10.1664 2.58661 
53 1 11.365 7.60282 8.95011 
54 1 10.5319 8.78249 8.19081 
56 1 9.10837 11.5195 12.0582 
57 1 8.14881 10.25 11.0515 
58 1 11.3589 10.9305 11.6465 
60 1 12.2716 8.05645 9.59346 
61 1 10.48 8.86921 6.77163 
73 1 9.24971 8.87518 9.02602 
75 1 12.7086 8.79723 11.754 
76 1 12.2817 10.0716 10.999 
79 1 9.18843 7.69469 9.73647 
80 1 8.33301 12.5806 12.3343 
89 1 10.9578 10.1567 8.96886 
93 1 8.43149 8.7642 11.6592 
95 1 10.0302 11.0463 9.75973 
105 1 10.2868 11.5127 11.0159 
109 1 8.63084 7.68933 11.07 
110 1 12.0419 9.60595 9.7545 
114 1 8.88141 10.2111 9.57162 
119 1 8.30022 10.1825 1.33122 
120 1 12.2628 8.04779 2.73376 
123 1 12.2386 10.0538 1.2325 
124 1 9.19336 7.67637 2.56044 
128 1 10.0392 11.0387 2.64685 
129 2 6.89559 10.4489 11.2325 
6 1 5.02007 8.17479 13.5876 
13 1 9.62704 10.2601 25.168 
17 1 9.1575 8.98333 25.1347 
30 1 9.90798 7.73925 25.0508 
34 1 11.3082 7.49392 25.1354 
36 1 8.31279 12.5697 25.7588 
46 1 11.6982 8.79903 25.0691 
50 1 11.0351 10.1089 25.2288 
55 1 9.5952 10.2804 13.0522 
59 1 11.0094 10.1238 12.8893 
74 1 11.6863 8.83274 13.0179 
78 1 11.3118 7.53834 12.9473 
90 1 9.91412 7.7003 13.0506 
94 1 9.15762 8.96665 12.9367 
101 1 5.0094 8.16775 24.4946 
33 1 11.7549 6.60924 0.687709 
77 1 11.7364 6.60548 11.6466 
41 1 17.9001 6.11166 13.5488 
68 1 17.8754 6.14931 24.5354 
103 1 19.1455 6.09365 22.5622 
126 1 19.1383 6.08767 15.5038 
3 1 19.5562 6.86201 12.2668 
7 1 20.0552 8.1103 12.2581 
10 1 15.1187 8.45592 12.8396 
22 1 19.1395 9.36993 12.1592 
26 1 17.9256 9.66519 12.2781 
38 1 17.5671 8.36145 12.1753 
42 1 18.1542 7.0115 12.4017 
44 1 20.0686 11.8426 12.8412 
48 1 12.5947 7.55375 1.38543 
65 1 19.609 6.7841 0.124433 
69 1 18.3195 7.11881 0.00310268 
82 1 17.5244 8.36455 0.155662 
86 1 17.9405 9.65844 0.0859656 
96 1 14.0493 8.67729 12.3607 
98 1 19.133 9.43131 0.130001 
102 1 19.9435 8.05546 0.089133 
113 1 12.5841 7.56072 10.9615 
1 1 17.9327 9.59439 16.2911 
2 1 18.7007 8.30582 16.9933 
8 1 18.7848 10.3548 15.4965 
9 1 18.7214 8.26601 18.428 
20 1 14.0374 8.6742 25.7277 
21 1 18.2211 7.00391 16.2102 
23 1 19.8416 10.6872 13.263 
24 1 20.4831 9.46233 14.1552 
25 1 17.4293 10.5201 13.5668 
27 1 17.1882 7.51975 15.455 
37 1 19.9336 8.19379 16.1437 
39 1 16.4554 8.39201 13.4154 
40 1 16.6058 9.57402 14.2616 
63 1 17.8603 9.53452 21.8467 
64 1 18.7 8.3069 21.0881 
70 1 16.9338 9.09773 22.4479 
71 1 18.7201 8.26635 19.6485 
72 1 20.0681 11.8592 25.2452 
81 1 19.941 8.19016 21.9522 
83 1 16.4626 8.36094 24.6722 
84 1 16.9176 7.04944 23.9302 
85 1 17.366 10.5065 24.5679 
87 1 19.9882 9.43755 22.644 
97 1 18.2496 6.98971 21.8447 
99 1 19.8428 10.6514 24.8215 
100 1 18.4586 11.0089 23.7788 
104 1 15.1296 8.45197 25.2361 
108 1 18.7938 10.3665 22.5417 
111 1 20.4819 9.44725 23.9434 
112 1 17.1671 7.52193 22.6172 
115 1 16.5927 9.58879 23.8251 
118 1 16.8682 9.0301 15.5489 
121 1 16.9627 7.07434 14.1056 
122 1 19.9916 9.45574 15.4361 
125 1 18.3979 10.9584 14.282 
ITEM: TIMESTEP
20
ITEM: NUMBER OF ATOMS
129
ITEM: BOX BOUNDS xy xz yz pp pp pp
0.0000000000000000e+00 2.3654499999999999e+01 7.8845000000000001e+00
0.0000000000000000e+00 1.3658086643083999e+01 0.0000000000000000e+00
0.0000000000000000e+00 2.5747000000000000e+01 0.0000000000000000e+00
ITEM: ATOMS id type x y z 
18 1 10.3895 6.76617 2.643 
28 1 5.08928 4.62617 12.8931 
31 1 9.4182 6.54623 0.418797 
62 1 9.07508 5.26513 12.3911 
91 1 9.44576 6.44065 11.9774 
92 1 10.778 6.20955 10.9831 
106 1 10.3603 6.82231 9.70708 
127 1 10.662 6.22336 1.38071 
4 1 4.44856 5.84772 13.2951 
5 1 3.18785 5.60495 14.2257 
43 1 4.59963 6.96591 15.4812 
52 1 9.07549 5.29313 25.707 
66 1 4.45277 5.81761 24.7839 
67 1 5.09064 6.97456 23.8877 
88 1 5.10403 4.59844 25.1835 
107 1 3.15786 5.65432 23.8769 
116 1 4.58932 6.96354 22.6037 
117 1 5.09378 6.97022 14.1839 
11 1 11.3532 7.60665 3.37286 
12 1 10.5145 8.82542 4.10015 
14 1 8.98771 11.2726 0.406152 
15 1 10.2358 11.527 1.3551 
16 1 8.35707 8.9006 0.674021 
19 1 10.4683 8.86439 5.54134 
29 1 10.9541 10.1183 3.32236 
32 1 8.66227 7.64267 1.26093 
35 1 12.0202 9.62546 2.56614 
45 1 9.23823 8.93476 3.26489 
47 1 12.7032 8.76345 0.497841 
49 1 11.3321 11.0476 0.677327 
51 1 8.834 10.1694 2.60945 
53 1 11.3528 7.58599 8.93795 
54 1 10.5442 8.78524 8.20402 
56 1 9.14852 11.4515 12.0709 
57 1 8.12464 10.1814 10.9986 
58 1 11.3864 10.9286 11.6864 
60 1 12.2846 8.0596 9.58297 
61 1 10.483 8.85701 6.77222 
73 1 9.24525 8.9066 9.03548 
75 1 12.706 8.82372 11.7937 
76 1 12.3158 10.0916 10.9757 
79 1 9.19751 7.65811 9.76843 
80 1 8.35908 12.5484 12.3416 
89 1 10.903 10.1307 8.99053 
93 1 8.40686 8.74729 11.6538 
95 1 10.0236 11.0261 9.74407 
105 1 10.2885 11.5045 11.0377 
109 1 8.57835 7.69208 11.0786 
110 1 12.051 9.6394 9.717 
114 1 8.91456 10.1749 9.63102 
119 1 8.31051 10.1665 1.31171 
120 1 12.2421 8.0789 2.74214 
123 1 12.2456 10.0887 1.25669 
124 1 9.16794 7.66608 2.5494 
128 1 10.0297 11.0228 2.6313 
129 2 6.87477 10.4592 11.1967 
6 1 5.06104 8.22708 13.5387 
13 1 9.65521 10.2362 25.1456 
17 1 9.12803 8.93523 25.139 
30 1 9.91464 7.72439 25.0477 
34 1 11.2445 7.50131 25.1776 
36 1 8.33634 12.4958 25.766 
46 1 11.7126 8.78528 25.0898 
50 1 11.0768 10.1529 25.2418 
55 1 9.63812 10.2477 13.0325 
59 1 11.0013 10.1362 12.893 
74 1 11.6787 8.85479 12.9926 
78 1 11.2486 7.54366 12.9368 
90 1 9.91523 7.71025 13.0387 
94 1 9.13839 8.93937 12.9504 
101 1 5.02718 8.21549 24.542 
33 1 11.7589 6.67282 0.65533 
77 1 11.7085 6.6402 11.6432 
41 1 17.8505 6.09854 13.5443 
68 1 17.8473 6.20781 24.5458 
103 1 19.163 6.09888 22.5665 
126 1 19.1579 6.1184 15.5108 
3 1 19.5489 6.88316 12.2512 
7 1 20.0689 8.14674 12.2891 
10 1 15.1308 8.45123 12.8447 
22 1 19.107 9.32022 12.0998 
26 1 17.9859 9.68809 12.2922 
38 1 17.5372 8.34716 12.1862 
42 1 18.1374 6.98008 12.3845 
44 1 20.131 11.8563 12.8286 
48 1 12.5822 7.5547 1.40651 
65 1 19.6217 6.79636 0.140724 
69 1 18.2489 7.04555 0.0159421 
82 1 17.5197 8.32744 0.140079 
86 1 17.9501 9.6979 0.0631175 
96 1 14.0473 8.68944 12.3632 
98 1 19.1458 9.4078 0.158406 
102 1 20.0275 8.11438 0.0769038 
113 1 12.5532 7.57602 10.9258 
1 1 17.9348 9.55316 16.2923 
2 1 18.6547 8.3397 16.9592 
8 1 18.8062 10.3586 15.5342 
9 1 18.7209 8.27098 18.4426 
20 1 14.0505 8.68637 25.7186 
21 1 18.238 7.00868 16.1954 
23 1 19.7868 10.6465 13.3493 
24 1 20.5198 9.48491 14.1377 
25 1 17.4112 10.4789 13.5748 
27 1 17.1511 7.53723 15.4607 
37 1 19.9668 8.19701 16.1226 
39 1 16.4987 8.35675 13.3489 
40 1 16.6212 9.56493 14.2768 
63 1 17.864 9.5436 21.8395 
64 1 18.688 8.30194 21.1078 
70 1 16.9279 9.08824 22.4707 
71 1 18.7223 8.268 19.6329 
72 1 20.0927 11.8308 25.2264 
81 1 19.9567 8.20395 21.9458 
83 1 16.4951 8.3181 24.6904 
84 1 16.9137 7.02858 23.8902 
85 1 17.4293 10.4633 24.5087 
87 1 20.0003 9.46625 22.6717 
97 1 18.2392 7.00082 21.8624 
99 1 19.7985 10.6345 24.772 
100 1 18.517 10.9153 23.8037 
104 1 15.1383 8.44702 25.2302 
108 1 18.8092 10.3511 22.5824 
111 1 20.5059 9.46654 23.9536 
112 1 17.1416 7.5047 22.6186 
115 1 16.6366 9.58268 23.8198 
118 1 16.8901 9.00309 15.5591 
121 1 16.9351 7.04365 14.1169 
122 1 20.0256 9.44821 15.418 
125 1 18.5059 10.9157 14.2746 
ITEM: TIMESTEP
30
ITEM: NUMBER OF ATOMS
129
ITEM: BOX BOUNDS xy xz yz pp pp pp
0.0000000000000000e+00 2.3654499999999999e+01 7.8845000000000001e+00
0.0000000000000000e+00 1.3658086643083999e+01 0.0000000000000000e+00
0.0000000000000000e+00 2.5747000000000000e+01 0.0000000000000000e+00
ITEM: ATOMS id type x y z 
18 1 10.3771 6.77891 2.63998 
28 1 5.09205 4.62707 12.8918 
31 1 9.42222 6.55938 0.422546 
62 1 9.06829 5.26921 12.3931 
91 1 9.43611 6.43479 11.9789 
92 1 10.7798 6.21592 10.9724 
106 1 10.3716 6.82894 9.70898 
127 1 10.6475 6.24134 1.3795 
4 1 4.4354 5.85935 13.2973 
5 1 3.18656 5.6151 14.2217 
43 1 4.59912 6.97351 15.481 
52 1 9.06728 5.29413 25.705 
66 1 4.44409 5.82939 24.7807 
67 1 5.08653 6.97734 23.8913 
88 1 5.10407 4.60332 25.1816 
107 1 3.16272 5.66591 23.8771 
116 1 4.58246 6.97012 22.6029 
117 1 5.09562 6.97822 14.1844 
11 1 11.3377 7.59719 3.37571 
12 1 10.5055 8.82937 4.09432 
14 1 8.99454 11.2553 0.409389 
15 1 10.2372 11.5213 1.3479 
16 1 8.35184 8.89862 0.674128 
19 1 10.4691 8.86386 5.54695 
29 1 10.9582 10.1203 3.32435 
32 1 8.66139 7.64499 1.2627 
35 1 12.0299 9.62961 2.56397 
45 1 9.23191 8.92591 3.25821 
47 1 12.6974 8.76809 0.504082 
49 1 11.3426 11.0367 0.674439 
51 1 8.83259 10.1564 2.60433 
53 1 11.3512 7.58725 8.94477 
54 1 10.5337 8.7905 8.21093 
56 1 9.15562 11.4408 12.0726 
57 1 8.11661 10.1715 10.9917 
58 1 11.4003 10.931 11.6829 
60 1 12.2786 8.06427 9.58634 
61 1 10.483 8.85451 6.76921 
73 1 9.24537 8.9089 9.03186 
75 1 12.7035 8.82774 11.7827 
76 1 12.315 10.0839 10.9725 
79 1 9.18943 7.65175 9.76815 
80 1 8.36476 12.5409 12.3442 
89 1 10.9116 10.1356 8.99301 
93 1 8.39569 8.74776 11.6598 
95 1 10.0229 11.0211 9.74705 
105 1 10.2815 11.498 11.0381 
109 1 8.5702 7.69226 11.0812 
110 1 12.0555 9.63596 9.71986 
114 1 8.91817 10.1669 9.63611 
119 1 8.32089 10.1516 1.31096 
120 1 12.2561 8.07923 2.72768 
123 1 12.242 10.0913 1.24644 
124 1 9.17646 7.66389 2.54802 
128 1 10.0258 11.0252 2.64098 
129 2 6.87871 10.4599 11.1872 
6 1 5.0651 8.24053 13.5391 
13 1 9.65957 10.2278 25.1501 
17 1 9.13167 8.93272 25.1408 
30 1 9.91562 7.72526 25.0566 
34 1 11.2403 7.49381 25.1888 
36 1 8.33433 12.4935 25.7643 
46 1 11.7071 8.79026 25.0951 
50 1 11.0761 10.1583 25.2495 
55 1 9.63669 10.2453 13.0254 
59 1 11.0053 10.1366 12.898 
74 1 11.6759 8.85753 12.9873 
78 1 11.2498 7.5382 12.9399 
90 1 9.91225 7.72113 13.0446 
94 1 9.13484 8.93832 12.9545 
101 1 5.02937 8.22217 24.5494 
33 1 11.7557 6.68908 0.658312 
77 1 11.7098 6.65069 11.6365 
41 1 17.8414 6.0995 13.555 
68 1 17.8421 6.20799 24.5451 
103 1 19.1583 6.10338 22.5634 
126 1 19.154 6.11448 15.5183 
3 1 19.5515 6.88337 12.2601 
7 1 20.0749 8.15125 12.284 
10 1 15.1346 8.45212 12.8438 
22 1 19.1362 9.32413 12.0918 
26 1 17.9702 9.69882 12.3005 
38 1 17.5149 8.34407 12.1863 
42 1 18.1289 6.96727 12.3841 
44 1 20.1413 11.8461 12.83 
48 1 12.5712 7.56441 1.39553 
65 1 19.6225 6.80664 0.139822 
69 1 18.2439 7.0414 0.0227409 
82 1 17.5192 8.3298 0.129118 
86 1 17.9556 9.68379 0.0601302 
96 1 14.0451 8.68793 12.3639 
98 1 19.1492 9.4025 0.160446 
102 1 20.0281 8.12439 0.0697176 
113 1 12.5436 7.58941 10.9287 
1 1 17.9428 9.55257 16.2963 
2 1 18.6595 8.33569 16.9488 
8 1 18.8171 10.3541 15.5402 
9 1 18.7202 8.27244 18.4324 
20 1 14.0522 8.68485 25.7152 
21 1 18.2385 7.01805 16.1914 
23 1 19.7807 10.6454 13.3649 
24 1 20.5183 9.48863 14.1347 
25 1 17.4233 10.466 13.5786 
27 1 17.1449 7.52165 15.4495 
37 1 19.9681 8.20097 16.1225 
39 1 16.5065 8.34323 13.3474 
40 1 16.6204 9.56512 14.2683 
63 1 17.8578 9.53649 21.8324 
64 1 18.6909 8.29302 21.1174 
70 1 16.9238 9.08172 22.4735 
71 1 18.7234 8.26793 19.6458 
72 1 20.1067 11.8388 25.2326 
81 1 19.9604 8.20544 21.9463 
83 1 16.5059 8.31135 24.6922 
84 1 16.9106 7.03824 23.8879 
85 1 17.4308 10.4563 24.5148 
87 1 20.0117 9.46147 22.6743 
97 1 18.2397 7.00625 21.8675 
99 1 19.7919 10.6189 24.7608 
100 1 18.5289 10.9107 23.8177 
104 1 15.1407 8.44865 25.2321 
108 1 18.8211 10.3564 22.5667 
111 1 20.508 9.47084 23.9599 
112 1 17.1369 7.4991 22.6149 
115 1 16.6381 9.56835 23.8211 
118 1 16.8858 9.00269 15.5596 
121 1 16.944 7.0455 14.1131 
122 1 20.0278 9.45089 15.4099 
125 1 18.5183 10.9051 14.268 
ITEM: TIMESTEP
40
ITEM: NUMBER OF ATOMS
129
ITEM: BOX BOUNDS xy xz yz pp pp pp
0.0000000000000000e+00 2.3654499999999999e+01 7.8845000000000001e+00
0.0000000000000000e+00 1.3658086643083999e+01 0.0000000000000000e+00
0.0000000000000000e+00 2.5747000000000000e+01 0.0000000000000000e+00
ITEM: ATOMS id type x y z 
18 1 10.3599 6.7875 2.65668 
28 1 5.09552 4.64087 12.8906 
31 1 9.41686 6.58004 0.419323 
62 1 9.04309 5.27214 12.4025 
91 1 9.41561 6.4238 11.9818 
92 1 10.7841 6.22552 10.9628 
106 1 10.3675 6.83838 9.70538 
127 1 10.6135 6.2684 1.37356 
4 1 4.41995 5.88588 13.3049 
5 1 3.18459 5.63 14.2265 
43 1 4.58973 6.97926 15.4729 
52 1 9.03761 5.28979 25.6937 
66 1 4.43506 5.85433 24.7795 
67 1 5.08515 6.99315 23.8975 
88 1 5.10526 4.61729 25.1761 
107 1 3.15537 5.68547 23.8781 
116 1 4.57422 6.97543 22.6067 
117 1 5.09802 7.00154 14.1833 
11 1 11.3356 7.60486 3.37174 
12 1 10.5002 8.83226 4.09245 
14 1 9.01043 11.2273 0.413212 
15 1 10.2361 11.505 1.35079 
16 1 8.32715 8.8817 0.659116 
19 1 10.4709 8.8617 5.55009 
29 1 10.956 10.115 3.31832 
32 1 8.63225 7.64355 1.26839 
35 1 12.0446 9.62687 2.56906 
45 1 9.22623 8.92205 3.26362 
47 1 12.6915 8.78553 0.49951 
49 1 11.3586 11.0424 0.66874 
51 1 8.84141 10.1486 2.60105 
53 1 11.3469 7.59697 8.94245 
54 1 10.5176 8.80622 8.21985 
56 1 9.17476 11.4103 12.0826 
57 1 8.09885 10.1385 10.9761 
58 1 11.4195 10.9351 11.6916 
60 1 12.2743 8.08022 9.57906 
61 1 10.4824 8.8484 6.77026 
73 1 9.23519 8.89309 9.02852 
75 1 12.7019 8.84186 11.7806 
76 1 12.3285 10.0851 10.9719 
79 1 9.17061 7.64229 9.77491 
80 1 8.38194 12.5164 12.3532 
89 1 10.9179 10.1417 8.99274 
93 1 8.36422 8.73951 11.6798 
95 1 10.0277 11.0141 9.74932 
105 1 10.2785 11.4812 11.0528 
109 1 8.54807 7.69646 11.078 
110 1 12.0703 9.63861 9.70497 
114 1 8.92402 10.1532 9.64393 
119 1 8.32307 10.128 1.30931 
120 1 12.2551 8.09068 2.72735 
123 1 12.2594 10.0952 1.24535 
124 1 9.1668 7.65451 2.5487 
128 1 10.0185 11.0265 2.6516 
129 2 6.87069 10.4672 11.1592 
6 1 5.07958 8.25598 13.5242 
13 1 9.66165 10.2154 25.1477 
17 1 9.12576 8.9284 25.1376 
30 1 9.91295 7.72179 25.0622 
34 1 11.2414 7.48279 25.1995 
36 1 8.33217 12.4776 25.7611 
46 1 11.7005 8.79346 25.1039 
50 1 11.0874 10.1707 25.2525 
55 1 9.6409 10.2427 13.007 
59 1 11.0145 10.1459 12.8957 
74 1 11.6768 8.86067 12.9757 
78 1 11.2389 7.53628 12.9379 
90 1 9.90796 7.73883 13.0625 
94 1 9.12236 8.93506 12.961 
101 1 5.04981 8.23553 24.5572 
33 1 11.7469 6.7008 0.656434 
77 1 11.6985 6.6707 11.6403 
41 1 17.8301 6.09707 13.5461 
68 1 17.8334 6.22007 24.5509 
103 1 19.16 6.10712 22.558 
126 1 19.1607 6.11146 15.5315 
3 1 19.5454 6.89299 12.2695 
7 1 20.0739 8.17196 12.28 
10 1 15.1403 8.45286 12.8396 
22 1 19.1527 9.33334 12.0729 
26 1 17.985 9.6782 12.307 
38 1 17.4782 8.3307 12.1891 
42 1 18.115 6.95534 12.3835 
44 1 20.1829 11.8459 12.8196 
48 1 12.5733 7.59058 1.38372 
65 1 19.6208 6.81458 0.151493 
69 1 18.2487 7.02533 0.0333828 
82 1 17.5058 8.321 0.118942 
86 1 17.9634 9.67338 0.0502716 
96 1 14.0476 8.68592 12.3702 
98 1 19.1647 9.40738 0.171469 
102 1 20.0165 8.14172 0.0730802 
113 1 12.5381 7.61373 10.9328 
1 1 17.9466 9.54428 16.2953 
2 1 18.666 8.33945 16.9448 
8 1 18.8403 10.35 15.5638 
9 1 18.719 8.27696 18.4356 
20 1 14.0573 8.6857 25.7038 
21 1 18.2421 7.02935 16.1809 
23 1 19.786 10.6526 13.3891 
24 1 20.538 9.49621 14.1307 
25 1 17.4452 10.4319 13.5719 
27 1 17.1253 7.51911 15.4511 
37 1 19.9791 8.20426 16.1229 
39 1 16.5201 8.32549 13.3363 
40 1 16.6185 9.54267 14.2589 
63 1 17.8571 9.53246 21.8322 
64 1 18.6948 8.2939 21.1225 
70 1 16.9249 9.06314 22.4686 
71 1 18.7261 8.26784 19.6467 
72 1 20.1481 11.8507 25.2482 
81 1 19.967 8.20759 21.9439 
83 1 16.5202 8.29736 24.6988 
84 1 16.8918 7.04503 23.8844 
85 1 17.444 10.4287 24.5231 
87 1 20.0183 9.47042 22.6698 
97 1 18.239 7.01414 21.8689 
99 1 19.7816 10.5971 24.746 
100 1 18.5604 10.886 23.8241 
104 1 15.1499 8.4489 25.2357 
108 1 18.8414 10.3431 22.5429 
111 1 20.5289 9.48922 23.9672 
112 1 17.1137 7.49681 22.601 
115 1 16.641 9.54039 23.8292 
118 1 16.8854 8.99296 15.555 
121 1 16.9247 7.03976 14.1087 
122 1 20.0362 9.45719 15.4086 
125 1 18.5419 10.8871 14.2753 
ITEM: TIMESTEP
50
ITEM: NUMBER OF ATOMS
129
ITEM: BOX BOUNDS xy xz yz pp pp pp
0.0000000000000000e+00 2.3654499999999999e+01 7.8845000000000001e+00
0.0000000000000000e+00 1.3658086643083999e+01 0.0000000000000000e+00
0.0000000000000000e+00 2.5747000000000000e+01 0.0000000000000000e+00
ITEM: ATOMS id type x y z 
18 1 10.3436 6.80078 2.66083 
28 1 5.09346 4.68011 12.8924 
31 1 9.37699 6.59111 0.412201 
62 1 9.00108 5.28167 12.4154 
91 1 9.40549 6.41737 11.9781 
92 1 10.7666 6.24387 10.9651 
106 1 10.3531 6.84748 9.70406 
127 1 10.5907 6.30255 1.37766 
4 1 4.41569 5.91645 13.3075 
5 1 3.17461 5.64009 14.2348 
43 1 4.59034 6.98736 15.464 
52 1 8.99129 5.30332 25.6799 
66 1 4.43129 5.88019 24.7866 
67 1 5.08582 7.02343 23.9055 
88 1 5.10457 4.64709 25.1648 
107 1 3.14278 5.70761 23.879 
116 1 4.57705 6.98127 22.6184 
117 1 5.10179 7.03111 14.1711 
11 1 11.3316 7.61352 3.36569 
12 1 10.5012 8.82264 4.09664 
14 1 9.01338 11.198 0.41285 
15 1 10.2464 11.4929 1.35701 
16 1 8.29217 8.8604 0.6419 
19 1 10.4723 8.85483 5.55087 
29 1 10.9549 10.1068 3.31026 
32 1 8.59572 7.62812 1.27151 
35 1 12.0531 9.63939 2.56784 
45 1 9.22153 8.91683 3.2654 
47 1 12.6968 8.80488 0.488685 
49 1 11.3745 11.0578 0.676678 
51 1 8.83915 10.1393 2.59357 
53 1 11.3361 7.61142 8.94583 
54 1 10.5131 8.80697 8.21993 
56 1 9.18617 11.3793 12.0935 
57 1 8.06397 10.0864 10.9591 
58 1 11.4498 10.938 11.6971 
60 1 12.2716 8.0971 9.56965 
61 1 10.4804 8.84485 6.77162 
73 1 9.22728 8.8861 9.03944 
75 1 12.7001 8.85897 11.7779 
76 1 12.3525 10.1045 10.9518 
79 1 9.15041 7.63664 9.78312 
80 1 8.39845 12.4848 12.3723 
89 1 10.9134 10.1342 8.99566 
93 1 8.31592 8.72086 11.7051 
95 1 10.0274 11.0068 9.76312 
105 1 10.2951 11.4619 11.0608 
109 1 8.5212 7.6904 11.0829 
110 1 12.0876 9.66043 9.69386 
114 1 8.91749 10.1425 9.65435 
119 1 8.3214 10.1025 1.30249 
120 1 12.2534 8.10439 2.72454 
123 1 12.2776 10.1122 1.24579 
124 1 9.1345 7.65595 2.55409 
128 1 10.0151 11.0224 2.65265 
129 2 6.85517 10.4816 11.1116 
6 1 5.10166 8.2813 13.511 
13 1 9.67383 10.1992 25.1461 
17 1 9.12042 8.91965 25.1403 
30 1 9.90662 7.71546 25.0622 
34 1 11.2403 7.48389 25.1977 
36 1 8.33384 12.4392 25.7584 
46 1 11.6926 8.79205 25.0999 
50 1 11.0934 10.1749 25.262 
55 1 9.64409 10.2343 13.0047 
59 1 11.0314 10.1506 12.8906 
74 1 11.6711 8.8613 12.9777 
78 1 11.2183 7.54198 12.9402 
90 1 9.89387 7.74983 13.0784 
94 1 9.10437 8.92825 12.9633 
101 1 5.06671 8.2627 24.5694 
33 1 11.7317 6.71734 0.673893 
77 1 11.6845 6.69493 11.6355 
41 1 17.8182 6.07764 13.5554 
68 1 17.8238 6.24104 24.5505 
103 1 19.1563 6.11681 22.5622 
126 1 19.1612 6.1142 15.534 
3 1 19.5241 6.91913 12.2809 
7 1 20.0749 8.18816 12.2659 
10 1 15.1371 8.4422 12.8344 
22 1 19.1742 9.33757 12.0473 
26 1 18.0037 9.64256 12.2904 
38 1 17.4695 8.30779 12.1739 
42 1 18.0972 6.95261 12.3797 
44 1 20.2452 11.8298 12.8102 
48 1 12.5664 7.60545 1.38202 
65 1 19.6276 6.81917 0.166923 
69 1 18.2517 7.02035 0.0492633 
82 1 17.5129 8.30847 0.126674 
86 1 17.9664 9.66454 0.0566348 
96 1 14.0458 8.69301 12.3734 
98 1 19.1697 9.41376 0.195367 
102 1 20.0144 8.14591 0.0743474 
113 1 12.525 7.63564 10.9253 
1 1 17.9462 9.54057 16.2915 
2 1 18.6749 8.34754 16.9497 
8 1 18.8569 10.3422 15.5842 
9 1 18.72 8.28244 18.4347 
20 1 14.0623 8.69424 25.6905 
21 1 18.2434 7.04435 16.1676 
23 1 19.8226 10.6761 13.4097 
24 1 20.5665 9.51591 14.1294 
25 1 17.4807 10.3945 13.588 
27 1 17.1143 7.50419 15.4465 
37 1 19.9866 8.20897 16.1224 
39 1 16.5182 8.30539 13.33 
40 1 16.6315 9.52864 14.2552 
63 1 17.8573 9.52613 21.8287 
64 1 18.6966 8.30582 21.1188 
70 1 16.9263 9.04541 22.4635 
71 1 18.7288 8.26998 19.6471 
72 1 20.2068 11.8345 25.2611 
81 1 19.9704 8.20911 21.9478 
83 1 16.5272 8.27345 24.7033 
84 1 16.864 7.03687 23.8734 
85 1 17.4665 10.3992 24.509 
87 1 20.0502 9.46904 22.6687 
97 1 18.2356 7.02416 21.8726 
99 1 19.8136 10.609 24.7567 
100 1 18.5811 10.8537 23.8104 
104 1 15.1569 8.43816 25.2396 
108 1 18.853 10.3319 22.534 
111 1 20.5625 9.49809 23.9552 
112 1 17.0937 7.48247 22.5833 
115 1 16.6496 9.51369 23.8269 
118 1 16.888 8.97959 15.5544 
121 1 16.9062 7.01397 14.1082 
122 1 20.0626 9.45998 15.4108 
125 1 18.5638 10.8666 14.2905 
ITEM: TIMESTEP
60
ITEM: NUMBER OF ATOMS
129
ITEM: BOX BOUNDS xy xz yz pp pp pp
0.0000000000000000e+00 2.3654499999999999e+01 7.8845000000000001e+00
0.0000000000000000e+00 1.3658086643083999e+01 0.0000000000000000e+00
0.0000000000000000e+00 2.5747000000000000e+01 0.0000000000000000e+00
ITEM: ATOMS id type x y z 
18 1 10.3292 6.81475 2.66242 
28 1 5.09787 4.69736 12.8893 
31 1 9.3651 6.59284 0.414274 
62 1 8.97408 5.28908 12.4228 
91 1 9.3929 6.41808 11.9791 
92 1 10.7562 6.2511 10.9674 
106 1 10.344 6.85335 9.7053 
127 1 10.5702 6.3142 1.3723 
4 1 4.40689 5.93251 13.3081 
5 1 3.17308 5.64299 14.2356 
43 1 4.59345 6.99336 15.4574 
52 1 8.96007 5.31019 25.6713 
66 1 4.42924 5.89469 24.7873 
67 1 5.0893 7.03341 23.9127 
88 1 5.10928 4.65831 25.16 
107 1 3.14275 5.71919 23.8829 
116 1 4.57778 6.98522 22.6217 
117 1 5.10551 7.0499 14.1702 
11 1 11.3296 7.61899 3.36386 
12 1 10.4998 8.82093 4.09115 
14 1 9.02041 11.186 0.41575 
15 1 10.2454 11.488 1.35691 
16 1 8.2756 8.84962 0.639047 
19 1 10.473 8.85027 5.55037 
29 1 10.9528 10.1021 3.30994 
32 1 8.57115 7.62527 1.27436 
35 1 12.0583 9.64313 2.56566 
45 1 9.21736 8.91727 3.26684 
47 1 12.6983 8.81073 0.487087 
49 1 11.3813 11.0607 0.675328 
51 1 8.83631 10.1339 2.58945 
53 1 11.3308 7.61599 8.94849 
54 1 10.506 8.80202 8.22228 
56 1 9.19546 11.3823 12.097 
57 1 8.03832 10.0501 10.9434 
58 1 11.4628 10.9374 11.6969 
60 1 12.267 8.11285 9.56641 
61 1 10.479 8.84217 6.76997 
73 1 9.22443 8.88074 9.04096 
75 1 12.7033 8.87053 11.7748 
76 1 12.3666 10.1108 10.9522 
79 1 9.13995 7.6375 9.79013 
80 1 8.40567 12.4634 12.3856 
89 1 10.9078 10.1353 9.00404 
93 1 8.28794 8.70807 11.711 
95 1 10.024 11.0016 9.76953 
105 1 10.3044 11.4601 11.0673 
109 1 8.50816 7.68352 11.0924 
110 1 12.0922 9.66436 9.68544 
114 1 8.91293 10.1398 9.66476 
119 1 8.31591 10.0882 1.30026 
120 1 12.2513 8.11327 2.72387 
123 1 12.2886 10.1166 1.24391 
124 1 9.11693 7.651 2.55405 
128 1 10.0113 11.0165 2.65148 
129 2 6.84485 10.4931 11.0834 
6 1 5.1119 8.29445 13.5033 
13 1 9.67314 10.1893 25.1492 
17 1 9.11841 8.91381 25.1404 
30 1 9.9066 7.7159 25.061 
34 1 11.2379 7.48137 25.1982 
36 1 8.32899 12.4234 25.7527 
46 1 11.692 8.79508 25.1027 
50 1 11.0985 10.1746 25.265 
55 1 9.65076 10.2208 13.0137 
59 1 11.0293 10.1487 12.8887 
74 1 11.6686 8.86147 12.9753 
78 1 11.2141 7.54215 12.9387 
90 1 9.88855 7.75457 13.0819 
94 1 9.09596 8.92726 12.9633 
101 1 5.07534 8.27071 24.5744 
33 1 11.7233 6.72692 0.673641 
77 1 11.6757 6.70845 11.634 
41 1 17.8098 6.07367 13.5523 
68 1 17.818 6.24585 24.5544 
103 1 19.1564 6.12409 22.5639 
126 1 19.167 6.12115 15.5329 
3 1 19.5224 6.92892 12.2825 
7 1 20.0828 8.19592 12.2589 
10 1 15.1333 8.43859 12.833 
22 1 19.1821 9.33678 12.0385 
26 1 18.0078 9.63598 12.2859 
38 1 17.4626 8.30571 12.1799 
42 1 18.0909 6.94029 12.384 
44 1 20.2857 11.8246 12.8018 
48 1 12.564 7.62036 1.37855 
65 1 19.6282 6.82532 0.172829 
69 1 18.2553 7.0218 0.0546853 
82 1 17.5158 8.30827 0.131171 
86 1 17.969 9.66036 0.0606328 
96 1 14.0423 8.69449 12.3713 
98 1 19.1723 9.41157 0.206549 
102 1 20.016 8.15591 0.0798673 
113 1 12.5177 7.64966 10.9251 
1 1 17.9478 9.53461 16.2936 
2 1 18.6759 8.34879 16.9468 
8 1 18.8683 10.3366 15.5894 
9 1 18.7221 8.28485 18.4352 
20 1 14.0624 8.69692 25.6882 
21 1 18.2477 7.04925 16.1675 
23 1 19.8352 10.6759 13.4167 
24 1 20.588 9.52316 14.1344 
25 1 17.504 10.3748 13.5843 
27 1 17.1092 7.50348 15.4446 
37 1 19.992 8.21105 16.1212 
39 1 16.5151 8.29441 13.3242 
40 1 16.6409 9.51118 14.2512 
63 1 17.8591 9.52158 21.828 
64 1 18.6984 8.30667 21.1223 
70 1 16.9267 9.03526 22.4563 
71 1 18.7298 8.27341 19.6459 
72 1 20.2468 11.8324 25.2698 
81 1 19.9747 8.20936 21.9462 
83 1 16.5276 8.26297 24.7054 
84 1 16.8561 7.031 23.8679 
85 1 17.4767 10.3853 24.506 
87 1 20.0606 9.47519 22.6624 
97 1 18.2361 7.02923 21.871 
99 1 19.8244 10.5993 24.749 
100 1 18.6011 10.8414 23.8182 
104 1 15.1566 8.43339 25.2395 
108 1 18.8665 10.3192 22.5282 
111 1 20.5783 9.51264 23.9614 
112 1 17.0825 7.4769 22.5792 
115 1 16.6607 9.50089 23.8247 
118 1 16.8904 8.96929 15.5531 
121 1 16.8961 7.0064 14.1034 
122 1 20.0743 9.46593 15.4131 
125 1 18.5804 10.8622 14.2951 
ITEM: TIMESTEP
70
ITEM: NUMBER OF ATOMS
129
ITEM: BOX BOUNDS xy xz yz pp pp pp
0.0000000000000000e+00 2.3654499999999999e+01 7.8845000000000001e+00
0.0000000000000000e+00 1.3658086643083999e+01 0.0000000000000000e+00
0.0000000000000000e+00 2.5747000000000000e+01 0.0000000000000000e+00
ITEM: ATOMS id type x y z 
18 1 10.3239 6.81916 2.66012 
28 1 5.10034 4.70753 12.8872 
31 1 9.35394 6.59483 0.413462 
62 1 8.95874 5.29327 12.4268 
91 1 9.38615 6.41714 11.9807 
92 1 10.7502 6.25437 10.9694 
106 1 10.3392 6.8553 9.70652 
127 1 10.5647 6.32079 1.37273 
4 1 4.4076 5.93936 13.308 
5 1 3.17136 5.64398 14.2362 
43 1 4.59662 6.99595 15.4551 
52 1 8.9424 5.3154 25.6669 
66 1 4.4305 5.8999 24.7901 
67 1 5.0912 7.03954 23.9146 
88 1 5.11205 4.66501 25.1574 
107 1 3.14169 5.72374 23.8845 
116 1 4.58095 6.98697 22.6251 
117 1 5.10769 7.05648 14.1667 
11 1 11.328 7.62099 3.3612 
12 1 10.4988 8.81877 4.09287 
14 1 9.01875 11.1803 0.416404 
15 1 10.2474 11.4859 1.35697 
16 1 8.26724 8.84509 0.635371 
19 1 10.4732 8.84804 5.55047 
29 1 10.9513 10.0998 3.30702 
32 1 8.56095 7.62041 1.27442 
35 1 12.0592 9.64618 2.56524 
45 1 9.21544 8.91644 3.26636 
47 1 12.6995 8.81431 0.485821 
49 1 11.3834 11.0634 0.67616 
51 1 8.833 10.1324 2.58741 
53 1 11.3262 7.6197 8.94894 
54 1 10.504 8.80212 8.22258 
56 1 9.1864 11.3725 12.0938 