LAMMPS (3 Mar 2020)
Reading data file ...
  orthogonal box = (0 0 0) to (7.097 7.097 24.588)
  1 by 2 by 4 MPI processor grid
  reading atoms ...
  35 atoms
  read_data CPU = 0.0210519 secs
WARNING: Using 'neigh_modify every 1 delay 0 check yes' setting during minimization (../min.cpp:190)
WARNING: Total cutoff < 2*bond cutoff. May need to use an increased neighbor list skin. (../pair_reaxc.cpp:413)
Neighbor list info ...
  update every 1 steps, delay 0 steps, check yes
  max neighbors/atom: 2000, page size: 100000
  master list distance cutoff = 9.5
  ghost atom cutoff = 9.5
  binsize = 4.75, bins = 2 2 6
  2 neighbor lists, perpetual/occasional/extra = 2 0 0
  (1) pair reax/c, perpetual
      attributes: half, newton off, ghost
      pair build: half/bin/newtoff/ghost
      stencil: half/ghost/bin/3d/newtoff
      bin: standard
  (2) fix qeq/reax, perpetual, copy from (1)
      attributes: half, newton off, ghost
      pair build: copy
      stencil: none
      bin: none
Setting up cg style minimization ...
  Unit style    : real
  Current step  : 0
Per MPI rank memory allocation (min/avg/max) = 14.5 | 15.13 | 15.5 Mbytes
Step Temp E_pair E_mol TotEng Press 
       0            0   -5973.0082            0   -5973.0082    7196.6646 
     161            0   -6066.1737            0   -6066.1737   -15378.611 
Loop time of 1.78137 on 8 procs for 161 steps with 35 atoms

99.4% CPU use with 8 MPI tasks x no OpenMP threads

Minimization stats:
  Stopping criterion = energy tolerance
  Energy initial, next-to-last, final = 
        -5973.00815238     -6066.17364807      -6066.1736634
  Force two-norm initial, final = 456.647 23.5306
  Force max component initial, final = 310.618 9.43266
  Final line search alpha, max atom move = 5.53172e-05 0.000521789
  Iterations, force evaluations = 161 1096

MPI task timing breakdown:
Section |  min time  |  avg time  |  max time  |%varavg| %total
---------------------------------------------------------------
Pair    | 1.1763     | 1.215      | 1.2497     |   2.3 | 68.20
Neigh   | 0          | 0          | 0          |   0.0 |  0.00
Comm    | 0.0169     | 0.051198   | 0.089888   |  11.1 |  2.87
Output  | 0.00021638 | 0.00028386 | 0.00040192 |   0.0 |  0.02
Modify  | 0.50925    | 0.50943    | 0.50959    |   0.0 | 28.60
Other   |            | 0.00549    |            |       |  0.31

Nlocal:    4.375 ave 8 max 0 min
Histogram: 3 0 0 1 0 0 0 0 0 4
Nghost:    407.625 ave 412 max 404 min
Histogram: 4 0 0 0 0 0 1 0 0 3
Neighs:    455.375 ave 889 max 0 min
Histogram: 3 0 0 1 0 0 0 0 1 3

Total # of neighbors = 3643
Ave neighs/atom = 104.086
Neighbor list builds = 0
Dangerous builds = 0
WARNING: Using 'neigh_modify every 1 delay 0 check yes' setting during minimization (../min.cpp:190)
WARNING: Total cutoff < 2*bond cutoff. May need to use an increased neighbor list skin. (../pair_reaxc.cpp:413)
Setting up cg style minimization ...
  Unit style    : real
  Current step  : 161
Per MPI rank memory allocation (min/avg/max) = 14.5 | 15.13 | 15.5 Mbytes
Step Temp E_pair E_mol TotEng Press 
     161            0   -6066.1737            0   -6066.1737   -15378.611 
     226            0   -6068.0383            0   -6068.0383   -18448.418 
Loop time of 0.741119 on 8 procs for 65 steps with 35 atoms

99.5% CPU use with 8 MPI tasks x no OpenMP threads

Minimization stats:
  Stopping criterion = energy tolerance
  Energy initial, next-to-last, final = 
         -6066.1736634     -6068.03825363     -6068.03829888
  Force two-norm initial, final = 23.5306 15.0993
  Force max component initial, final = 9.43266 6.38812
  Final line search alpha, max atom move = 0.000122321 0.0007814
  Iterations, force evaluations = 65 469

MPI task timing breakdown:
Section |  min time  |  avg time  |  max time  |%varavg| %total
---------------------------------------------------------------
Pair    | 0.49509    | 0.51037    | 0.5253     |   1.4 | 68.87
Neigh   | 0          | 0          | 0          |   0.0 |  0.00
Comm    | 0.0062888  | 0.020865   | 0.036093   |   6.8 |  2.82
Output  | 7.6454e-05 | 9.2659e-05 | 0.00012321 |   0.0 |  0.01
Modify  | 0.20746    | 0.2075     | 0.20753    |   0.0 | 28.00
Other   |            | 0.00229    |            |       |  0.31

Nlocal:    4.375 ave 8 max 0 min
Histogram: 3 0 0 0 0 1 0 0 1 3
Nghost:    410.625 ave 415 max 407 min
Histogram: 3 1 0 0 0 1 0 0 0 3
Neighs:    456.625 ave 889 max 0 min
Histogram: 3 0 0 0 0 1 0 0 2 2

Total # of neighbors = 3653
Ave neighs/atom = 104.371
Neighbor list builds = 0
Dangerous builds = 0
WARNING: Using 'neigh_modify every 1 delay 0 check yes' setting during minimization (../min.cpp:190)
WARNING: Total cutoff < 2*bond cutoff. May need to use an increased neighbor list skin. (../pair_reaxc.cpp:413)
Setting up cg style minimization ...
  Unit style    : real
  Current step  : 226
WARNING: Energy due to 3 extra global DOFs will be included in minimizer energies
Per MPI rank memory allocation (min/avg/max) = 14.5 | 15.13 | 15.5 Mbytes
Step Temp E_pair E_mol TotEng Press Volume 
     226            0   -6068.0383            0   -6068.0383   -18448.418    1238.4339 
    1548            0   -6073.8808            0   -6073.8808   -345.70663    1227.3023 
Loop time of 3.04961 on 8 procs for 1322 steps with 35 atoms

99.5% CPU use with 8 MPI tasks x no OpenMP threads

Minimization stats:
  Stopping criterion = energy tolerance
  Energy initial, next-to-last, final = 
        -6068.03829888     -6073.88082965     -6073.88083203
  Force two-norm initial, final = 642.037 18.9334
  Force max component initial, final = 558.738 11.3672
  Final line search alpha, max atom move = 3.05945e-05 0.000347773
  Iterations, force evaluations = 1322 2063

MPI task timing breakdown:
Section |  min time  |  avg time  |  max time  |%varavg| %total
---------------------------------------------------------------
Pair    | 2.2302     | 2.2988     | 2.3667     |   2.9 | 75.38
Neigh   | 0          | 0          | 0          |   0.0 |  0.00
Comm    | 0.028823   | 0.095206   | 0.16373    |  14.0 |  3.12
Output  | 0.001592   | 0.0019072  | 0.0024238  |   0.6 |  0.06
Modify  | 0.62352    | 0.62373    | 0.62393    |   0.0 | 20.45
Other   |            | 0.02997    |            |       |  0.98

Nlocal:    4.375 ave 8 max 0 min
Histogram: 3 0 0 0 0 1 0 0 1 3
Nghost:    410.625 ave 415 max 407 min
Histogram: 3 1 0 0 0 1 0 0 0 3
Neighs:    454.875 ave 885 max 0 min
Histogram: 3 0 0 0 0 1 0 0 2 2

Total # of neighbors = 3639
Ave neighs/atom = 103.971
Neighbor list builds = 0
Dangerous builds = 0
WARNING: Using 'neigh_modify every 1 delay 0 check yes' setting during minimization (../min.cpp:190)
WARNING: Total cutoff < 2*bond cutoff. May need to use an increased neighbor list skin. (../pair_reaxc.cpp:413)
Setting up cg style minimization ...
  Unit style    : real
  Current step  : 1548
Per MPI rank memory allocation (min/avg/max) = 14.5 | 15.13 | 15.5 Mbytes
Step Temp E_pair E_mol TotEng Press 
    1548            0   -6073.8808            0   -6073.8808   -345.70663 
    1551            0   -6073.8826            0   -6073.8826   -198.74135 
Loop time of 0.0576378 on 8 procs for 3 steps with 35 atoms

99.2% CPU use with 8 MPI tasks x no OpenMP threads

Minimization stats:
  Stopping criterion = energy tolerance
  Energy initial, next-to-last, final = 
        -6073.88083204      -6073.8825416      -6073.8825912
  Force two-norm initial, final = 14.1043 9.918
  Force max component initial, final = 9.67787 4.59507
  Final line search alpha, max atom move = 2.74753e-05 0.000126251
  Iterations, force evaluations = 3 36

MPI task timing breakdown:
Section |  min time  |  avg time  |  max time  |%varavg| %total
---------------------------------------------------------------
Pair    | 0.040248   | 0.041531   | 0.042703   |   0.4 | 72.06
Neigh   | 0          | 0          | 0          |   0.0 |  0.00
Comm    | 0.00049431 | 0.0016358  | 0.0029176  |   2.0 |  2.84
Output  | 1.3756e-05 | 1.6591e-05 | 2.3234e-05 |   0.0 |  0.03
Modify  | 0.014242   | 0.014245   | 0.014249   |   0.0 | 24.72
Other   |            | 0.0002088  |            |       |  0.36

Nlocal:    4.375 ave 8 max 0 min
Histogram: 3 0 0 0 0 1 0 0 1 3
Nghost:    410.625 ave 415 max 407 min
Histogram: 3 1 0 0 0 1 0 0 0 3
Neighs:    463.125 ave 897 max 0 min
Histogram: 3 0 0 0 0 1 0 0 2 2

Total # of neighbors = 3705
Ave neighs/atom = 105.857
Neighbor list builds = 0
Dangerous builds = 0
WARNING: Using 'neigh_modify every 1 delay 0 check yes' setting during minimization (../min.cpp:190)
WARNING: Total cutoff < 2*bond cutoff. May need to use an increased neighbor list skin. (../pair_reaxc.cpp:413)
Setting up cg style minimization ...
  Unit style    : real
  Current step  : 1551
WARNING: Energy due to 3 extra global DOFs will be included in minimizer energies
Per MPI rank memory allocation (min/avg/max) = 14.5 | 15.13 | 15.5 Mbytes
Step Temp E_pair E_mol TotEng Press Volume 
    1551            0   -6073.8826            0   -6073.8826   -198.74135    1227.3023 
    1553            0   -6073.8828            0   -6073.8828    280.64716    1227.1869 
Loop time of 0.00746407 on 8 procs for 2 steps with 35 atoms

99.3% CPU use with 8 MPI tasks x no OpenMP threads

Minimization stats:
  Stopping criterion = energy tolerance
  Energy initial, next-to-last, final = 
         -6073.8825912      -6073.8827873     -6073.88283289
  Force two-norm initial, final = 11.9211 16.2272
  Force max component initial, final = 4.59507 7.58476
  Final line search alpha, max atom move = 1.63132e-05 0.000123731
  Iterations, force evaluations = 2 4

MPI task timing breakdown:
Section |  min time  |  avg time  |  max time  |%varavg| %total
---------------------------------------------------------------
Pair    | 0.0054891  | 0.0056508  | 0.005794   |   0.1 | 75.71
Neigh   | 0          | 0          | 0          |   0.0 |  0.00
Comm    | 7.4651e-05 | 0.00021481 | 0.00037629 |   0.0 |  2.88
Output  | 0          | 0          | 0          |   0.0 |  0.00
Modify  | 0.0015034  | 0.0015037  | 0.0015041  |   0.0 | 20.15
Other   |            | 9.475e-05  |            |       |  1.27

Nlocal:    4.375 ave 8 max 0 min
Histogram: 3 0 0 0 0 1 0 0 1 3
Nghost:    410.625 ave 415 max 407 min
Histogram: 3 1 0 0 0 1 0 0 0 3
Neighs:    463.125 ave 897 max 0 min
Histogram: 3 0 0 0 0 1 0 0 2 2

Total # of neighbors = 3705
Ave neighs/atom = 105.857
Neighbor list builds = 0
Dangerous builds = 0
WARNING: Using 'neigh_modify every 1 delay 0 check yes' setting during minimization (../min.cpp:190)
WARNING: Total cutoff < 2*bond cutoff. May need to use an increased neighbor list skin. (../pair_reaxc.cpp:413)
Setting up cg style minimization ...
  Unit style    : real
  Current step  : 1553
Per MPI rank memory allocation (min/avg/max) = 14.5 | 15.13 | 15.5 Mbytes
Step Temp E_pair E_mol TotEng Press 
    1553            0   -6073.8828            0   -6073.8828    280.64716 
    1556            0   -6073.8832            0   -6073.8832    223.22837 
Loop time of 0.0548931 on 8 procs for 3 steps with 35 atoms

99.5% CPU use with 8 MPI tasks x no OpenMP threads

Minimization stats:
  Stopping criterion = energy tolerance
  Energy initial, next-to-last, final = 
        -6073.88283289     -6073.88324684     -6073.88324729
  Force two-norm initial, final = 13.1802 5.51388
  Force max component initial, final = 7.58476 1.5217
  Final line search alpha, max atom move = 0.000513406 0.00078125
  Iterations, force evaluations = 3 34

MPI task timing breakdown:
Section |  min time  |  avg time  |  max time  |%varavg| %total
---------------------------------------------------------------
Pair    | 0.037746   | 0.03904    | 0.040242   |   0.4 | 71.12
Neigh   | 0          | 0          | 0          |   0.0 |  0.00
Comm    | 0.00047272 | 0.0016469  | 0.002936   |   2.1 |  3.00
Output  | 0          | 0          | 0          |   0.0 |  0.00
Modify  | 0.014001   | 0.014004   | 0.014007   |   0.0 | 25.51
Other   |            | 0.0002018  |            |       |  0.37

Nlocal:    4.375 ave 8 max 0 min
Histogram: 3 0 0 0 0 1 0 0 1 3
Nghost:    410.625 ave 415 max 407 min
Histogram: 3 1 0 0 0 1 0 0 0 3
Neighs:    463.125 ave 897 max 0 min
Histogram: 3 0 0 0 0 1 0 0 2 2

Total # of neighbors = 3705
Ave neighs/atom = 105.857
Neighbor list builds = 0
Dangerous builds = 0
WARNING: Total cutoff < 2*bond cutoff. May need to use an increased neighbor list skin. (../pair_reaxc.cpp:413)
Setting up Verlet run ...
  Unit style    : real
  Current step  : 0
  Time step     : 0.25
Per MPI rank memory allocation (min/avg/max) = 13.38 | 14 | 14.38 Mbytes
Step Temp TotEng KinEng PotEng Press 
       0          300    -6043.479    30.404263   -6073.8832    1355.7763 
     200    254.70728   -6030.0359    25.813957   -6055.8498   -19612.357 
     400     307.4766   -6012.6381    31.161997   -6043.8001    19628.402 
     600     300.7377   -6020.7696    30.479027   -6051.2487   -18522.624 
     800     311.1195   -6030.5401    31.531197   -6062.0713    26284.915 
    1000    294.78508    -6023.779    29.875743   -6053.6548   -4640.2319 
    1200    391.37881   -6020.2839    39.665281   -6059.9492   -10807.137 
    1400    246.38499   -6032.8621    24.970513   -6057.8326   -10871.499 
    1600    318.67904   -6023.3731    32.297338   -6055.6705   -10339.208 
    1800    296.49938   -6032.9632    30.049483   -6063.0127    20129.822 
    2000    298.00552   -6032.1921    30.202127   -6062.3942    13397.583 
    2200    281.83765   -6023.9311    28.563553   -6052.4946    13952.155 
    2400    307.84047   -6028.6126    31.198874   -6059.8115    25938.441 
    2600     272.2203   -6032.5771    27.588858   -6060.1659     5218.273 
    2800    295.22682   -6019.6411    29.920513   -6049.5617    19520.199 
    3000    291.36241   -6021.6951    29.528864   -6051.2239   -13090.968 
    3200    262.13833   -6034.4578    26.567076   -6061.0249   -10651.004 
    3400    325.23178   -6023.9725    32.961442   -6056.9339    7671.6982 
    3600    299.13437   -6024.3978    30.316533   -6054.7144   -18147.742 
    3800    256.80046   -6027.1447    26.026096   -6053.1708   -2417.9965 
    4000    345.92202   -6008.6114    35.058346   -6043.6698    7950.4332 
    4200    331.46745   -6016.8778    33.593411   -6050.4712   -4751.8625 
    4400    303.98452   -6025.5516    30.808084   -6056.3596    6379.3499 
    4600     271.7064   -6030.1428    27.536776   -6057.6796   -31040.746 
    4800    345.84132   -6015.0671    35.050168   -6050.1173    -3583.119 
    5000     279.6902   -6026.5547    28.345914   -6054.9006   -8514.5245 
    5200    271.60344   -6025.4619    27.526341   -6052.9883    8476.2445 
    5400    342.52412   -6020.0055    34.713978   -6054.7195   -17146.172 
    5600    287.05237     -6034.17    29.092052   -6063.2621   -18422.721 
    5800    243.33646   -6036.5058    24.661552   -6061.1674    9877.1132 
    6000    305.97093   -6026.3507    31.009402   -6057.3601   -25293.174 
    6200    329.77783   -6015.3124    33.422172   -6048.7346   -11943.091 
    6400    234.41012   -6026.8321    23.756889    -6050.589   -8775.9592 
    6600    325.87265   -6027.0356    33.026392    -6060.062    7004.2623 
    6800    335.94843   -6013.7207    34.047548   -6047.7683   -18099.518 
    7000     242.7915   -6027.5712    24.606322   -6052.1775    20061.284 
    7200     246.9871   -6019.3233    25.031536   -6044.3548    21284.622 
    7400     356.9125   -6014.0434    36.172205   -6050.2156   -3642.0859 
    7600      269.966   -6031.0879    27.360391   -6058.4483   -9845.7055 
    7800    280.29504   -6025.7766    28.407213   -6054.1838     9920.371 
    8000    337.62901   -6015.3331    34.217871    -6049.551    -13710.79 
    8200     262.2287   -6027.6413    26.576235   -6054.2176    31297.302 
    8400    267.05952   -6022.6471    27.065826   -6049.7129    5015.6368 
    8600     308.5537   -6022.6548    31.271159    -6053.926   -15904.472 
    8800    296.18801   -6028.3704    30.017927   -6058.3883    529.31335 
    9000    353.62366   -6015.0658    35.838888   -6050.9046    9511.5323 
    9200     300.0613   -6025.4322    30.410475   -6055.8427   -2181.6687 
    9400    261.17325   -6027.2223    26.469267   -6053.6915   -5919.2438 
    9600     345.6542   -6013.0815    35.031203   -6048.1127    2127.0131 
    9800     283.9318   -6027.8663     28.77579   -6056.6421    13890.076 
   10000    329.69657   -6023.8553    33.413937   -6057.2693   -15832.649 
   10200    378.14838   -6019.9037    38.324409   -6058.2281   -5282.7131 
   10400    271.49006   -6034.9429    27.514851   -6062.4577   -13875.039 
   10600    284.15054   -6024.4534    28.797958   -6053.2514    1824.6725 
   10800    290.36846   -6023.3112     29.42813   -6052.7393    1030.2484 
   11000    272.03213    -6033.009    27.569787   -6060.5788   -442.52602 
   11200    259.93123   -6033.6591    26.343391   -6060.0025    7914.3198 
   11400    289.01343   -6026.5183    29.290801   -6055.8091    5789.5086 
   11600     290.0386   -6025.4007    29.394699   -6054.7954   -1863.4185 
   11800    306.78028   -6011.5203    31.091427   -6042.6117     12077.29 
   12000    302.34215   -6024.3766    30.641634   -6055.0183    18787.718 
   12200    298.51071   -6026.5508    30.253326   -6056.8041    10860.211 
   12400     286.6804   -6034.2906    29.054354   -6063.3449   -168.46273 
   12600    265.49954   -6028.8301    26.907726   -6055.7378   -14789.422 
   12800    273.11831   -6019.2056    27.679869   -6046.8855   -6856.8713 
   13000    293.57654   -6030.7263    29.753261   -6060.4795    7429.2229 
   13200     219.6555   -6038.1126    22.261545   -6060.3741    14518.717 
   13400    348.21023   -6022.6075    35.290251   -6057.8977    15532.713 
   13600    301.22308   -6027.6835    30.528219   -6058.2118      2323.84 
   13800    274.11144   -6033.5744    27.780521   -6061.3549    15994.765 
   14000    416.65697   -6016.9843     42.22716   -6059.2115    -1902.755 
   14200    316.09223   -6027.9534     32.03517   -6059.9886    1933.1874 
   14400    303.69521   -6023.7968    30.778763   -6054.5755    -2980.163 
   14600    346.52103   -6018.6614    35.119055   -6053.7804   -9581.9668 
   14800    257.33081   -6030.3506    26.079845   -6056.4305    10245.272 
   15000    311.22885   -6018.6548    31.542279   -6050.1971    -4410.722 
   15200     301.2773   -6020.7284    30.533713   -6051.2621    15508.401 
   15400    252.19883   -6026.3942    25.559731   -6051.9539   -24499.839 
   15600    334.43394   -6011.3933    33.894058   -6045.2874   -4166.0083 
   15800    235.12809   -6024.4191    23.829654   -6048.2488   -14813.451 
   16000    279.78355   -6025.5917    28.355375    -6053.947   -18529.138 
   16200    314.18817   -6015.8357    31.842199   -6047.6779    7591.6955 
   16400    290.18603   -6023.1721    29.409641   -6052.5817    15325.489 
   16600    312.39732    -6030.474    31.660701   -6062.1347    8750.8503 
   16800    381.34842   -6020.1503    38.648724    -6058.799    3456.4155 
   17000    393.31163   -6013.4614    39.861167   -6053.3226    33459.143 
   17200    286.65885   -6027.2001     29.05217   -6056.2522    15311.135 
   17400    325.56126   -6015.2287    32.994833   -6048.2236    7058.2567 
   17600    300.59026   -6018.1997    30.464084   -6048.6638   -3529.8312 
   17800    315.81493   -6027.7549    32.007067   -6059.7619    3634.1723 
   18000    305.82197    -6026.498    30.994305   -6057.4923    3574.8559 
   18200    419.30988   -6012.1149    42.496026   -6054.6109   -20862.955 
   18400    252.14108   -6026.2798    25.553879   -6051.8336    9604.0802 
   18600    308.64081    -6020.243    31.279987    -6051.523     8428.821 
   18800     356.0981    -6010.179    36.089667   -6046.2687   -4761.4108 
   19000    261.66278   -6024.7354     26.51888   -6051.2543    10866.141 
   19200    268.57759   -6026.0811    27.219678   -6053.3007    19308.077 
   19400    436.07166   -6013.2488     44.19479   -6057.4436   -9470.4397 
   19600    295.48058   -6028.0296     29.94623   -6057.9759    3044.8042 
   19800    275.73887    -6023.569    27.945456   -6051.5145   -23161.853 
   20000    308.29646    -6016.705    31.245088   -6047.9501   -11392.574 
   20200    276.16417   -6025.8724    27.988559    -6053.861   -11187.116 
   20400    248.64011   -6027.9412    25.199064   -6053.1403    7222.7645 
   20600    420.25489   -6015.9101      42.5918   -6058.5019    1309.6233 
   20800    398.20036   -6012.0777    40.356628   -6052.4344    9494.2223 
   21000    325.33558   -6024.0907    32.971961   -6057.0626    1048.0422 
   21200    328.96758      -6020.5    33.340056   -6053.8401   -23303.075 
   21400    303.01625   -6031.7394    30.709952   -6062.4493   -4286.1194 
   21600     235.3051   -6028.7216    23.847593   -6052.5692   -6269.0908 
   21800    311.75153   -6020.2496    31.595251   -6051.8449    10001.565 
   22000    303.78542   -6025.5904    30.787906   -6056.3783    13064.739 
   22200    274.98091    -6033.104    27.868639   -6060.9726   -4755.5138 
   22400    297.31007   -6021.9133    30.131645    -6052.045   -2757.1257 
   22600    292.62958   -6028.0774    29.657288   -6057.7347   -5352.9433 
   22800    255.57808   -6034.1011     25.90221   -6060.0033   -16499.902 
   23000    295.32576   -6019.9234     29.93054    -6049.854   -18372.285 
   23200    375.67381   -6024.0707    38.073617   -6062.1443   -12231.265 
   23400    261.01278   -6032.1709    26.453003   -6058.6239    3930.2449 
   23600    305.01411   -6022.3397     30.91243   -6053.2522    1461.0652 
   23800    296.96251    -6025.938     30.09642   -6056.0344   -9307.2047 
   24000    254.04563   -6033.3203      25.7469   -6059.0672    1910.5082 
   24200    356.61923   -6014.6955    36.142483   -6050.8379    5974.1665 
   24400    279.84858   -6025.0574    28.361965   -6053.4194   -5994.7331 
   24600    272.54724   -6026.1085    27.621992   -6053.7305   -17977.244 
   24800    324.64387   -6015.8394    32.901858   -6048.7413   -4478.5798 
   25000    276.78688   -6031.3518     28.05167   -6059.4035    1836.6797 
   25200    265.18947   -6022.7232    26.876301   -6049.5995   -9261.8294 
   25400    313.10579    -6019.606    31.732502   -6051.3386    -17012.84 
   25600    276.60472   -6035.7608    28.033208    -6063.794    -10186.66 
   25800     327.0733   -6021.4994    33.148075   -6054.6475    866.89443 
   26000    279.05115   -6025.9657    28.281148   -6054.2468   -15656.998 
   26200    220.56435   -6032.1133    22.353655   -6054.4669    10311.903 
   26400    310.12178   -6018.1022     31.43008   -6049.5323   -23980.615 
   26600    291.10375    -6023.963    29.502649   -6053.4657   -21906.624 
   26800    265.07391   -6032.3383    26.864589   -6059.2029   -5497.5978 
   27000    322.59838   -6017.1668    32.694553   -6049.8614    1251.5571 
   27200    296.05478   -6026.9294    30.004424   -6056.9338   -16114.119 
   27400    274.53351   -6027.4091    27.823297   -6055.2324    15335.739 
   27600    375.08364   -6013.5075    38.013805   -6051.5213    2955.7644 
   27800    311.00498   -6024.5783     31.51959   -6056.0979    7412.6311 
   28000    302.97314   -6025.4104    30.705583    -6056.116    12530.224 
   28200    431.46798   -6005.4351    43.728219   -6049.1633    18882.929 
   28400    292.71801   -6025.1132    29.666251   -6054.7795   -1813.6878 
   28600    335.33511   -6020.5309    33.985389   -6054.5163     8733.164 
   28800    293.56455   -6021.2509    29.752046   -6051.0029   -16080.816 
   29000    292.63879   -6032.0653    29.658222   -6061.7235   -7180.9461 
   29200     309.2067    -6019.182    31.337339   -6050.5194   -4595.1558 
   29400    313.71207   -6021.3566    31.793947   -6053.1505   -4516.0811 
   29600    219.91374   -6031.8757    22.287717   -6054.1634     9347.932 
   29800    181.86952   -6039.8427    18.432029   -6058.2747    5385.0111 
   30000    293.98821   -6025.9878    29.794982   -6055.7828     15533.61 
   30200    297.16019   -6022.4827    30.116455   -6052.5992   -17282.315 
   30400     291.7172   -6035.7831    29.564821   -6065.3479    6842.1282 
   30600    276.27892   -6029.6072    28.000189   -6057.6073   -3026.3468 
   30800    362.34771   -6019.7978    36.723049   -6056.5208   -4556.8657 
   31000    329.51685   -6024.0038    33.395722   -6057.3995   -13848.304 
   31200     269.9953   -6034.0731     27.36336   -6061.4365   -1160.3702 
   31400    347.08929   -6020.1856    35.176646   -6055.3623   -2962.3966 
   31600    338.30606   -6027.4656    34.286488   -6061.7521   -5964.2241 
   31800    300.29864   -6030.5132    30.434529   -6060.9477    14307.634 
   32000    358.23111   -6010.4688    36.305842   -6046.7747    19127.773 
   32200    298.15986   -6021.9182    30.217769    -6052.136    10466.339 
   32400    275.81595   -6022.3657    27.953269   -6050.3189    8049.3004 
   32600    368.90857   -6011.9693    37.387977   -6049.3573    1537.0259 
   32800     268.1015   -6026.9585    27.171428   -6054.1299    -4915.673 
   33000    276.91126   -6022.2287    28.064276    -6050.293   -580.11882 
   33200    306.27654   -6022.9243    31.040375   -6053.9647    6054.2104 
   33400    235.12293    -6033.176    23.829131   -6057.0051   -15287.425 
   33600    373.37656   -6017.7028    37.840797   -6055.5436    9676.7726 
   33800     263.5251   -6027.3664    26.707621   -6054.0741   -21046.049 
   34000    310.49682   -6028.9611    31.468089   -6060.4291    9719.8866 
   34200    332.27485   -6020.3038     33.67524   -6053.9791   -9092.7201 
   34400    286.07693   -6021.2842    28.993194   -6050.2774   -3249.3006 
   34600    272.18298   -6027.9177    27.585076   -6055.5027   -3542.7062 
   34800    276.75912   -6025.5948    28.048857   -6053.6437   -6678.3758 
   35000    329.07367   -6016.7694    33.350807   -6050.1202    6297.3916 
   35200    278.53148   -6031.4187    28.228481   -6059.6471    16819.368 
   35400    316.18165   -6024.4765    32.044233   -6056.5207    31215.377 
   35600    310.44283   -6016.8719    31.462617   -6048.3345    2819.6673 
   35800    316.62133    -6025.442    32.088794   -6057.5308   -1511.2524 
   36000    293.01772   -6024.7308    29.696626   -6054.4274   -14068.503 
   36200    351.13786   -6015.3344    35.586959   -6050.9213   -7374.8163 
   36400    281.09143   -6027.3142    28.487925   -6055.8022   -2126.3997 
   36600    329.32867   -6023.4814    33.376651   -6056.8581   -3811.0359 
   36800     372.3661   -6007.4599    37.738389   -6045.1983    11944.979 
   37000    254.24875   -6027.1865    25.767486    -6052.954    4207.8869 
   37200    287.35238   -6027.1532    29.122458   -6056.2756    690.83667 
   37400    326.61406   -6017.8848    33.101532   -6050.9863    10631.535 
   37600    321.01422   -6021.7273    32.534002   -6054.2613   -26072.132 
   37800    315.48282   -6023.6657    31.973409   -6055.6391   -1775.6663 
   38000    286.45342   -6020.1271     29.03135   -6049.1585   -19039.647 
   38200    265.57629   -6029.3568    26.915504   -6056.2723   -18373.079 
   38400    346.08737   -6018.7598    35.075105   -6053.8349    5063.2893 
   38600    345.17854   -6023.8865    34.982996   -6058.8695    12198.691 
   38800    344.47447   -6023.7364    34.911641   -6058.6481    11263.629 
   39000    296.95444   -6030.3135    30.095602   -6060.4091    21342.236 
   39200    331.14652   -6024.6262    33.560886   -6058.1871   -12022.757 
   39400    320.32425   -6020.5791    32.464075   -6053.0432    -3325.713 
   39600    269.85141    -6031.419    27.348777   -6058.7678    7700.3608 
   39800    240.95771    -6024.843    24.420471   -6049.2635    2374.8163 
   40000    339.26538   -6024.4189    34.383712   -6058.8026   -22685.708 
   40200    397.43658   -6007.9894     40.27922   -6048.2686    1564.4361 
   40400    314.71943   -6022.3241    31.896041   -6054.2201    4332.7495 
   40600     347.1902   -6019.4188    35.186873   -6054.6056    1622.8556 
   40800    226.73746   -6032.0496    22.979284   -6055.0288    940.84682 
   41000    345.30299    -6025.066    34.995609   -6060.0616   -3980.3033 
   41200    299.02675   -6025.1823    30.305626    -6055.488   -13100.018 
   41400    369.70509   -6013.7796    37.468702   -6051.2483   -13573.032 
   41600    329.25518   -6019.2503    33.369203   -6052.6195   -30354.487 
   41800    308.71843   -6023.9196    31.287854   -6055.2075   -6165.4127 
   42000    321.57248   -6022.1449     32.59058   -6054.7354    9751.3018 
   42200     226.2935   -6031.9299     22.93429   -6054.8642    18663.331 
   42400    330.44289   -6019.5545    33.489575   -6053.0441    -4223.837 
   42600    278.56806   -6020.7116    28.232189   -6048.9438   -24956.929 
   42800    308.53903   -6024.0421    31.269672   -6055.3117    -11955.13 
   43000    249.61252   -6035.0445    25.297615   -6060.3421    6880.5723 
   43200    300.30793   -6027.5507     30.43547   -6057.9862    8652.3169 
   43400    353.43131   -6022.2078    35.819395   -6058.0272   -43597.169 
   43600    323.08114   -6025.0947    32.743479   -6057.8382    6365.9516 
   43800    295.76786   -6014.0633    29.975346   -6044.0386   -26984.242 
   44000    237.18131   -6024.1681    24.037743   -6048.2058    -10614.04 
   44200     298.0004   -6027.3812    30.201608   -6057.5828    698.40779 
   44400    363.96575   -6009.4428    36.887034   -6046.3299   -11570.933 
   44600    311.57572   -6020.5316    31.577434    -6052.109    3576.9581 
   44800    243.36286   -6026.8555    24.664228   -6051.5197    15845.764 
   45000    318.52751   -6016.4869     32.28198   -6048.7689   -17796.052 
   45200    293.30553   -6023.8722    29.725795    -6053.598    20266.047 
   45400    220.31444   -6027.6746    22.328327    -6050.003   -1622.0006 
   45600    323.62812    -6015.287    32.798914   -6048.0859    8531.2643 
   45800    258.61053   -6026.1135    26.209542    -6052.323   -10986.317 
   46000    275.04209   -6025.1536    27.874839   -6053.0285    8387.2784 
   46200    315.43708   -6017.8801    31.968772   -6049.8489    16658.281 
   46400    277.24992   -6029.4567    28.098598   -6057.5553   -4446.3045 
   46600    276.21187   -6024.9571    27.993394   -6052.9505    20711.001 
   46800    287.80763   -6018.1153    29.168596   -6047.2839   -11167.998 
   47000    284.63466   -6029.5831    28.847023   -6058.4301   -229.17105 
   47200    290.68895   -6026.2096     29.46061   -6055.6702    19195.707 
   47400    305.78931   -6021.9838    30.990995   -6052.9748   -17804.822 
   47600    261.60577   -6034.0075    26.513102   -6060.5206    7718.3282 
   47800    281.25177   -6027.3781    28.504176   -6055.8823    22763.649 
   48000     320.4559   -6021.2509    32.477418   -6053.7283   -37343.505 
   48200    297.15019   -6019.3734    30.115441   -6049.4888    18851.009 
   48400    303.95711   -6029.3656    30.805306   -6060.1709   -512.86969 
   48600     335.7084   -6024.5333    34.023221   -6058.5565    16443.343 
   48800    313.60262   -6019.3618    31.782854   -6051.1447    10814.005 
   49000    306.59785   -6027.6073    31.072939   -6058.6803    3895.6282 
   49200    314.22986   -6023.4904    31.846424   -6055.3369   -6147.7408 
   49400    382.45566   -6016.2574    38.760941   -6055.0183   -11866.246 
   49600     282.6271    -6028.961    28.643561   -6057.6046   -2265.8943 
   49800    335.82627   -6022.4882    34.035167   -6056.5234   -3818.1058 
   50000    363.11171   -6009.6179    36.800479   -6046.4184   -13311.526 
   50200    266.74021   -6026.7219    27.033465   -6053.7554    4373.9837 
   50400    361.91418   -6021.8695    36.679113   -6058.5486   -16251.287 
   50600    374.23385   -6017.5452    37.927681   -6055.4729    9302.7123 
   50800    301.85609   -6031.0119    30.592373   -6061.6042   -11476.209 
   51000    348.60278   -6021.7656    35.330035   -6057.0956    8891.0896 
   51200    319.72378   -6017.8187    32.403219   -6050.2219   -5375.4555 
   51400    277.21378   -6026.2691    28.094935    -6054.364   -18298.691 
   51600    364.48136     -6019.22    36.939289   -6056.1593   -6207.6409 
   51800    356.66097   -6020.2692    36.146712   -6056.4159   -4793.3655 
   52000    281.74874   -6029.2269    28.554542   -6057.7815    -2516.908 
   52200    285.55928   -6021.1619    28.940731   -6050.1027   -4738.2844 
   52400    359.55721    -6013.372    36.440239   -6049.8122   -15329.878 
   52600    306.85225   -6027.2312    31.098722   -6058.3299   -2134.7427 
   52800    272.56688   -6023.4347    27.623983   -6051.0587     2010.922 
   53000    346.05618   -6013.2689    35.071943   -6048.3408    2786.0565 
   53200    262.08907   -6026.9913    26.562083   -6053.5533   -1287.1924 
   53400    303.68548    -6022.383    30.777777   -6053.1608    8139.9763 
   53600     301.8513   -6018.9612    30.591887   -6049.5531     -9165.39 
   53800    248.73277   -6033.6108    25.208455   -6058.8192     14893.92 
   54000    286.59303   -6026.2597    29.045499   -6055.3052   -20635.311 
   54200    339.90272   -6022.7278    34.448305   -6057.1761   -4750.5943 
   54400    259.08576   -6030.3135    26.257705   -6056.5712    155.39854 
   54600    239.32002   -6033.1666    24.254496   -6057.4211    8261.9083 
   54800    288.59243   -6022.4757    29.248133   -6051.7239   -15729.551 
   55000    376.69445   -6016.1133    38.177057   -6054.2904    8409.7762 
   55200    299.82971   -6026.7067    30.387004   -6057.0937    -30754.18 
   55400    305.06672   -6019.3472    30.917762    -6050.265    19243.997 
   55600     348.5599   -6018.6079    35.325689   -6053.9336   -30808.372 
   55800    299.19369   -6027.7706    30.322545   -6058.0931   -26334.937 
   56000    240.12232   -6040.4655    24.335807   -6064.8013    164.35221 
   56200    324.54954   -6028.1716    32.892298   -6061.0639   -10179.648 
   56400    310.45924   -6020.7592    31.464281   -6052.2235    471.75294 
   56600    319.39498   -6028.0878    32.369896   -6060.4577     12237.05 
   56800    240.06578   -6029.6293    24.330077   -6053.9594    6407.3019 
   57000    271.19458   -6023.1402    27.484904   -6050.6251    -6520.729 
   57200    335.58894   -6014.5037    34.011114   -6048.5148    1517.6574 
   57400    299.46946   -6029.5381    30.350494   -6059.8886    4285.5559 
   57600    292.20359   -6026.6564    29.614116   -6056.2705    12868.855 
   57800    297.02346   -6022.5644    30.102598    -6052.667    611.36492 
   58000    273.00249   -6026.4369    27.668132    -6054.105   -10813.334 
   58200    229.27812    -6039.551    23.236774   -6062.7878    15390.461 
   58400    246.54665   -6028.9766    24.986897   -6053.9635   -4073.6021 
   58600    364.70591   -6017.8305    36.962048   -6054.7926    2104.8681 
   58800    301.06268   -6030.8383    30.511963   -6061.3503   -22689.507 
   59000    227.47003   -6029.0426    23.053528   -6052.0961   -35124.092 
   59200    317.79358   -6022.1173    32.207598   -6054.3249     1885.395 
   59400    334.63321   -6022.3949    33.914253   -6056.3091    -3539.937 
   59600    292.41075   -6031.4058    29.635111   -6061.0409    7742.9356 
   59800    272.88073   -6022.1804    27.655791   -6049.8362   -11617.605 
   60000    307.56571   -6021.4118    31.171029   -6052.5828   -18246.547 
   60200    280.82905    -6035.323    28.461334   -6063.7844   -2614.8819 
   60400     173.4928   -6034.2777    17.583069   -6051.8607    932.01493 
   60600    280.46706   -6023.9078    28.424647   -6052.3324    12157.645 
   60800    363.97812   -6018.4166    36.888288   -6055.3049    -6862.761 
   61000    248.64814   -6032.5948    25.199878   -6057.7947   -9863.4475 
   61200    215.87842   -6025.3756    21.878747   -6047.2544    -19073.81 
   61400    385.74561   -6018.5281    39.094369   -6057.6225   -25929.431 
   61600    291.57188   -6022.1076    29.550094   -6051.6577    21320.863 
   61800    259.03141   -6031.7261    26.252197   -6057.9783   -3764.1457 
   62000    309.61363   -6032.7946    31.378581   -6064.1732    15151.012 
   62200    323.82977   -6019.2676    32.819351   -6052.0869     5756.805 
   62400    318.08629   -6028.7198    32.237263    -6060.957    14832.725 
   62600    317.02374   -6027.2674    32.129576   -6059.3969   -8570.4281 
   62800    357.02472   -6018.4426    36.183578   -6054.6262    3217.8446 
   63000    303.51242   -6028.6349    30.760237   -6059.3951    2111.0788 
   63200    261.36246   -6029.0501    26.488442   -6055.5385   -11405.265 
   63400    368.44374   -6019.5429    37.340868   -6056.8838    2563.7393 
   63600    250.17631   -6028.7885    25.354754   -6054.1433    6351.9404 
   63800    207.27349   -6040.9207    21.006659   -6061.9274   -15125.833 
   64000     271.4351   -6027.9043     27.50928   -6055.4136   -18285.388 
   64200    327.05935   -6018.5308    33.146661   -6051.6775   -18291.979 
   64400    316.16393   -6028.4818    32.042437   -6060.5242   -2803.2009 
   64600    277.32208   -6026.9457    28.105911   -6055.0516    2208.8226 
   64800     343.1773   -6018.2709    34.780176   -6053.0511     11164.44 
   65000    280.88962   -6024.0986    28.467472   -6052.5661    -6947.763 
   65200    302.01812   -6030.7178    30.608794   -6061.3266   -15864.523 
   65400    235.15175   -6037.6331    23.832052   -6061.4652    816.41278 
   65600    264.28768   -6024.2461    26.784907    -6051.031    2476.4576 
   65800     341.6529   -6019.0461    34.625682   -6053.6718   -23959.899 
   66000    300.60654   -6027.3531    30.465734   -6057.8188    9012.9992 
   66200    320.35148   -6024.4522    32.466835    -6056.919   -4984.6787 
   66400    305.77267   -6022.6542    30.989309   -6053.6435   -11489.104 
   66600    246.75207   -6039.5596    25.007715   -6064.5673    -13448.55 
   66800    284.06718   -6032.5386    28.789511   -6061.3281     16240.87 
   67000    274.02605   -6017.7688    27.771866   -6045.5407    4605.2592 
   67200    302.72551   -6023.9122    30.680487   -6054.5927   -3019.9618 
   67400    304.68036   -6029.2685    30.878605   -6060.1471    1103.8628 
   67600    329.42318   -6021.1174    33.386229   -6054.5036    9596.5881 
   67800    292.06995   -6025.6579    29.600571   -6055.2584   -1597.8563 
   68000    292.86698   -6025.4557    29.681349    -6055.137    20577.952 
   68200    298.97219   -6027.0808    30.300096   -6057.3809    6412.9441 
   68400    290.78628   -6023.2176    29.470474   -6052.6881   -1031.2502 
   68600    361.53561   -6019.7234    36.640745   -6056.3642   -14280.942 
   68800    268.00237   -6031.8275    27.161382   -6058.9889   -10125.668 
   69000     259.8808   -6022.0797     26.33828    -6048.418    15278.234 
   69200    403.78498   -6002.3041    40.922616   -6043.2267    35607.195 
   69400     315.6917   -6026.2958    31.994578   -6058.2904    1437.7067 
   69600    284.94049   -6029.3097    28.878018   -6058.1877   -2068.8788 
   69800      380.698   -6016.0913    38.582807   -6054.6742   -11959.908 
   70000    326.77514   -6027.8664    33.117858   -6060.9843   -10762.941 
   70200    332.83365   -6025.0047    33.731873   -6058.7366    92.838639 
   70400    356.17437   -6020.3279    36.097397   -6056.4253    4287.3052 
   70600    275.32365   -6032.7205    27.903375   -6060.6239   -3581.2273 
   70800    295.51978   -6022.8272    29.950203   -6052.7774   -854.34656 
   71000    269.96866   -6022.3938     27.36066   -6049.7545    19424.895 
   71200    239.14144    -6033.797    24.236397   -6058.0334   -12531.812 
   71400    282.17079   -6028.4774    28.597315   -6057.0747   -9439.6348 
   71600    346.32542   -6016.3062     35.09923   -6051.4054   -9813.7832 
   71800     289.0719   -6024.8578    29.296727   -6054.1545    9791.0183 
   72000    215.64561    -6034.625    21.855153   -6056.4802   -3225.1766 
   72200    296.30443    -6023.597    30.029726   -6053.6267    8500.2648 
   72400    304.65699   -6027.0971    30.876237   -6057.9733   -2723.5566 
   72600    253.20361     -6028.87    25.661563   -6054.5315    421.44441 
   72800    271.03509   -6014.8237    27.468741   -6042.2924    7187.4621 
   73000    352.81607   -6023.0199    35.757041    -6058.777    13242.105 
   73200    302.64922   -6027.1373    30.672755   -6057.8101   -4961.9746 
   73400     279.0904   -6024.3154    28.285126   -6052.6005    5972.1757 
   73600    352.53948   -6019.8235     35.72901   -6055.5525    -7688.956 
   73800    295.37099   -6027.2089    29.935123    -6057.144    21120.715 
   74000    330.14885   -6023.8265    33.459775   -6057.2862   -12132.172 
   74200    268.11373   -6021.3642    27.172667   -6048.5369    12657.417 
   74400    475.16723   -6009.1719    48.157031   -6057.3289    24528.451 
   74600    289.64123   -6023.7964    29.354427   -6053.1508   -6570.3766 
   74800    305.63339   -6027.9415    30.975193   -6058.9167   -8099.6493 
   75000    259.11903     -6027.46    26.261077    -6053.721    936.58279 
   75200    326.00691   -6016.3932    33.039999   -6049.4332   -8939.2669 
   75400    256.86323   -6026.5052    26.032457   -6052.5377    16461.899 
   75600     311.0473   -6024.2935    31.523879   -6055.8174    19337.584 
   75800    220.83959   -6038.1973     22.38155   -6060.5789   -13617.988 
   76000     313.0837    -6027.208    31.730263   -6058.9383    6252.8582 
   76200    359.09475   -6021.2849     36.39337   -6057.6783   -12120.904 
   76400    353.35074   -6017.7624    35.811228   -6053.5736   -4591.9713 
   76600    266.81591   -6033.1094    27.041137   -6060.1505     3516.257 
   76800    361.97664    -6023.579    36.685442   -6060.2645    16230.132 
   77000    242.51113   -6032.7674    24.577907   -6057.3453    25829.895 
   77200    228.26748    -6037.006    23.134348   -6060.1403   -24806.597 
   77400    274.48976   -6024.7491    27.818862   -6052.5679    30616.094 
   77600    319.73659   -6016.7956    32.404517   -6049.2001   -28459.987 
   77800     350.4514   -6030.4448    35.517388   -6065.9622    15891.823 
   78000    288.31925   -6023.7061    29.220447   -6052.9266    18952.675 
   78200     341.4335   -6024.2418    34.603446   -6058.8452   -5370.2732 
   78400     247.9449   -6031.8667    25.128606   -6056.9953    6137.3476 
   78600    282.64267   -6020.9221     28.64514   -6049.5673   -6972.1622 
   78800     369.1274   -6010.6853    37.410154   -6048.0955    12026.524 
   79000    335.69254   -6019.9247    34.021614   -6053.9463   -11640.847 
   79200    292.68344   -6025.8503    29.662747    -6055.513    3979.2948 
   79400    252.19911   -6033.1117     25.55976   -6058.6714    26669.517 
   79600    334.62677   -6028.9204    33.913601    -6062.834   -13522.509 
   79800    342.89169   -6022.5808     34.75123   -6057.3321   -5736.4684 
   80000    293.84474   -6028.8428    29.780442   -6058.6232   -10021.076 
   80200    364.26705   -6012.6329     36.91757   -6049.5505    477.64903 
   80400    261.56733   -6024.5106    26.509206   -6051.0198    23924.035 
   80600    313.80039   -6026.3707    31.802898   -6058.1736   -20261.778 
   80800     214.5049    -6038.753    21.739544   -6060.4926    15289.614 
   81000    335.25384   -6026.4961    33.977153   -6060.4733   -23093.247 
   81200    306.68561   -6025.8751    31.081833   -6056.9569    -11050.74 
   81400    337.21886   -6012.4526    34.176303   -6046.6289   -16876.325 
   81600    234.47992   -6026.2588    23.763963   -6050.0227    2064.2856 
   81800    241.13489   -6020.1007    24.438429   -6044.5391    -331.5366 
   82000    255.88993   -6023.6276    25.933815   -6049.5615    861.15364 
   82200    242.97013   -6029.7753    24.624425   -6054.3997   -7073.4922 
   82400    298.11531   -6018.9647    30.213253    -6049.178    9642.7686 
   82600     316.9667   -6023.4496    32.123796   -6055.5734    1284.1429 
   82800    291.71397    -6026.341    29.564494   -6055.9055    -12096.26 
   83000    239.55959   -6030.5471    24.278775   -6054.8259    6074.2725 
   83200    349.00643   -6017.6655    35.370944   -6053.0364    4869.3006 
   83400    213.05796   -6026.3606      21.5929   -6047.9535   -6908.8317 
   83600    296.56688    -6036.993    30.056324   -6067.0494   -2825.7051 
   83800    291.43399   -6028.9486    29.536119   -6058.4848   -12542.302 
   84000    329.63592   -6024.1158     33.40779   -6057.5236      28.1264 
   84200    252.74733   -6033.0324     25.61532   -6058.6477   -5532.1849 
   84400    262.73293   -6032.1585    26.627337   -6058.7859   -2649.8633 
   84600    305.12713   -6024.0443    30.923885   -6054.9682     18402.84 
   84800    242.51397   -6032.4753    24.578194   -6057.0535     3807.603 
   85000     218.0385   -6031.0033    22.097666    -6053.101    22185.988 
   85200    366.53345   -6020.1912    37.147264   -6057.3384   -14125.736 
   85400    279.90411   -6033.3361    28.367594   -6061.7037   -4824.3724 
   85600    316.01843   -6026.0973    32.027691    -6058.125   -637.75884 
   85800    316.35103   -6020.7053    32.061399   -6052.7667   -13446.999 
   86000    315.96546   -6028.0238    32.022323   -6060.0461    22093.195 
   86200     308.6791   -6023.8567    31.283868   -6055.1406    3996.2916 
   86400    311.32255   -6018.9151    31.551775   -6050.4668   -4069.8908 
   86600    330.25727   -6029.0574    33.470763   -6062.5282   -16004.726 
   86800    315.34165   -6025.2433    31.959101   -6057.2024    3709.8361 
   87000    280.60122   -6023.1071    28.438244   -6051.5453   -5109.1558 
   87200    330.40561   -6027.8248    33.485796   -6061.3106    6482.1083 
   87400    204.43374   -6043.6641    20.718857   -6064.3829    34082.111 
   87600    215.73242   -6037.9054     21.86395   -6059.7694   -3182.3856 
   87800    290.26466   -6022.8105     29.41761   -6052.2281    18137.624 
   88000     300.6455   -6020.9191    30.469682   -6051.3888     13291.01 
   88200    221.35903   -6034.7686    22.434194   -6057.2028    5230.1773 
   88400    297.04142   -6025.5719    30.104417   -6055.6764    7836.9273 
   88600    268.99517   -6024.4737    27.261999   -6051.7357    25222.284 
   88800    341.06985   -6021.0546     34.56659   -6055.6212    1979.1234 
   89000    310.90571   -6024.1721     31.50953   -6055.6817   -4525.1744 
   89200    278.08297   -6031.8025    28.183026   -6059.9856    1039.3293 
   89400    274.20157   -6016.7418    27.789655   -6044.5315    13929.689 
   89600    291.26347   -6022.5574    29.518837   -6052.0763    8430.9063 
   89800    275.25012     -6034.34    27.895923   -6062.2359    8048.4177 
   90000    371.14647   -6018.8842    37.614782    -6056.499   -8235.7539 
   90200    372.58329   -6018.4545    37.760401   -6056.2149   -17208.798 
   90400    255.83181   -6030.4393    25.927925   -6056.3672    16105.728 
   90600    334.15129   -6014.4623    33.865412   -6048.3277   -1394.0903 
   90800    351.24368   -6021.4453    35.597683    -6057.043    4842.1071 
   91000    302.02948   -6028.2438    30.609945   -6058.8537   -11702.765 
   91200    367.61323   -6013.7044    37.256697   -6050.9611   -10773.463 
   91400    371.72642   -6019.9978    37.673559   -6057.6713   -5034.8952 
   91600    324.82371   -6027.9034    32.920085   -6060.8235   -2543.5105 
   91800    300.13845   -6032.7749    30.418294   -6063.1932    11960.916 
   92000    290.47621   -6022.7693     29.43905   -6052.2084   -27513.915 
   92200    295.75663   -6023.4803    29.974207   -6053.4545    32593.801 
   92400    210.68437   -6037.5737    21.352343    -6058.926   -18736.169 
   92600    272.15999   -6028.8121    27.582746   -6056.3949    8178.6597 
   92800    281.90702   -6019.0657    28.570583   -6047.6363    4151.7434 
   93000    254.49929   -6031.6002    25.792877    -6057.393   -5817.2259 
   93200    208.56688   -6027.7813    21.137741   -6048.9191    18747.418 
   93400    290.88939   -6020.3907    29.480924   -6049.8716   -15434.642 
   93600    319.04256   -6029.3897    32.334179   -6061.7238   -308.73918 
   93800    273.36323   -6034.6736    27.704692   -6062.3783    6372.2501 
   94000     323.0096   -6020.9163    32.736229   -6053.6526   -35727.407 
   94200      277.105   -6025.2568    28.083911   -6053.3407    816.71685 
   94400    208.83726   -6035.9859    21.165143    -6057.151    -23197.99 
   94600    347.03897    -6021.514    35.171547   -6056.6855    15669.972 
   94800    317.42303   -6024.8223    32.170043   -6056.9923   -13085.727 
   95000    272.78147   -6030.3942    27.645732     -6058.04   -20516.943 
   95200    402.14965   -6013.2258    40.756879   -6053.9827   -10018.278 
   95400     323.3376   -6025.8881    32.769471   -6058.6576    4074.1961 
   95600    270.11533   -6029.1174    27.375524   -6056.4929   -6377.0092 
   95800    323.76137   -6016.8106    32.812419    -6049.623   -2631.0461 
   96000      273.302   -6028.3019    27.698486   -6056.0004    1380.2207 
   96200    297.18686   -6028.0391    30.119158   -6058.1583   -25321.679 
   96400    295.06248   -6020.7781    29.903857   -6050.6819   -4252.0473 
   96600    320.43185   -6021.3965    32.474981   -6053.8714   -243.21468 
   96800    299.75347   -6028.4705    30.379277   -6058.8498    16394.272 
   97000    272.52915   -6022.8233    27.620159   -6050.4435    2964.5942 
   97200    337.83294   -6018.9143    34.238538   -6053.1529    5077.0164 
   97400    321.76681   -6023.3711    32.610276   -6055.9814   -6243.2197 
   97600    277.90672   -6023.0392    28.165163   -6051.2044    1663.4942 
   97800    361.69606   -6018.8259    36.657007   -6055.4829    2345.0396 
   98000    232.43268   -6030.2278    23.556481   -6053.7842    12741.901 
   98200    296.21132   -6025.5437    30.020289    -6055.564   -7529.2097 
   98400    309.65905   -6019.7541    31.383184   -6051.1373    11823.136 
   98600    351.30086   -6026.3902    35.603478   -6061.9936   -101.38937 
   98800    263.78919   -6027.5887    26.734386   -6054.3231   -23306.824 
   99000    303.41688   -6015.4491    30.750555   -6046.1996    25876.666 
   99200    293.90394   -6028.8575    29.786442    -6058.644     4933.503 
   99400    248.81601   -6026.1696    25.216891   -6051.3865    11530.821 
   99600     380.0395   -6010.0529    38.516069    -6048.569   -3132.7518 
   99800    372.75065   -6020.5973    37.777362   -6058.3747    -9582.883 
  100000    262.03044   -6028.9221    26.556141   -6055.4782   -16279.779 
  100200    261.28444   -6016.0336    26.480536   -6042.5141   -3577.5399 
  100400    335.89482   -6017.8161    34.042115   -6051.8582   -17226.491 
  100600    260.06891   -6025.4299    26.357345   -6051.7872    10813.248 
  100800    195.99741   -6018.5967    19.863855   -6038.4606   -31712.086 
  101000    307.92849   -6015.1162    31.207796    -6046.324   -10588.178 
  101200    262.52143   -6026.3533    26.605901   -6052.9592   -25365.303 
  101400    290.63025   -6029.0527    29.454662   -6058.5074    14051.404 
  101600    246.84185   -6027.0405    25.016814   -6052.0573   -13560.827 
  101800    354.64295   -6016.8293    35.942191   -6052.7715   -312.91898 
  102000    277.91785    -6023.421    28.166291   -6051.5873   -12831.271 
  102200    239.85162   -6034.3637    24.308372   -6058.6721    4968.6342 
  102400    259.82789   -6027.4791    26.332918   -6053.8121    17166.112 
  102600    351.14592   -6020.1556    35.587776   -6055.7434   -4788.1833 
  102800     271.4214   -6030.5264    27.507892   -6058.0343   -17185.127 
  103000    273.23927   -6026.5858    27.692128    -6054.278   -4269.7869 
  103200     285.4574   -6024.5254    28.930406   -6053.4558    3955.2799 
  103400    358.79609   -6012.0526    36.363101   -6048.4157    18494.297 
  103600    257.82174   -6026.1651    26.129599   -6052.2947   -18113.583 
  103800    285.28894   -6020.6098    28.913333   -6049.5232    24588.332 
  104000    326.25074   -6021.4813    33.064711   -6054.5461    4228.9914 
  104200    253.69204   -6029.3471    25.711065   -6055.0581    8957.3857 
  104400     336.1535   -6015.6997    34.068331    -6049.768   -725.60008 
  104600    379.98612   -6019.7116    38.510659   -6058.2222    15073.974 
  104800    248.09863   -6030.2807    25.144186   -6055.4249   -10953.448 
  105000    341.87952   -6022.4185    34.648649   -6057.0672    14238.239 
  105200    260.90782   -6026.4013    26.442366   -6052.8437   -30456.752 
  105400    254.62573   -6031.4926    25.805692   -6057.2983    14027.172 
  105600    293.97285   -6022.9931    29.793425   -6052.7865   -19514.909 
  105800    373.09449   -6017.9514    37.812209   -6055.7636   -201.49634 
  106000    327.15106    -6025.484    33.155956     -6058.64    3803.6167 
  106200    274.05811   -6027.6028    27.775116   -6055.3779    -2936.707 
  106400    357.86837   -6018.9627    36.269079   -6055.2318    3928.7463 
  106600    310.79531   -6024.8637    31.498341    -6056.362   -2308.7027 
  106800    298.12679   -6029.7148    30.214417   -6059.9292   -7613.4312 
  107000    270.57112   -6037.4776    27.421718   -6064.8993    4124.3682 
  107200    300.60106   -6024.3128    30.465178   -6054.7779    21502.509 
  107400    249.85433   -6027.6779    25.322122        -6053    6523.3053 
  107600    298.44821   -6033.3691    30.246993    -6063.616   -4826.7963 
  107800    337.85335   -6025.0518    34.240607   -6059.2924    20063.803 
  108000    309.57277   -6019.3163    31.374439   -6050.6908    11103.079 
  108200    295.80833   -6031.5578    29.979447   -6061.5372    32101.012 
  108400    272.07634   -6027.3172    27.574268   -6054.8914    16135.664 
  108600    281.80036   -6019.6052    28.559774    -6048.165    30729.456 
  108800    298.80246   -6024.0283    30.282895   -6054.3112    11707.105 
  109000    279.09387   -6026.7004    28.285478   -6054.9859     31094.76 
  109200     280.8599    -6028.637     28.46446   -6057.1015   -9059.5791 
  109400    289.88897    -6020.241    29.379534   -6049.6206   -5896.9953 
  109600    246.96117   -6024.1483    25.028908   -6049.1772   -9589.9636 
  109800     302.3238   -6030.7909    30.639774   -6061.4307    -16675.03 
  110000    305.82771   -6020.3527    30.994886   -6051.3476   -355.50708 
  110200    280.91313    -6015.272    28.469855   -6043.7419    4067.6799 
  110400    246.00365   -6029.8272    24.931865   -6054.7591   -2304.3922 
  110600    247.32411   -6024.9479     25.06569   -6050.0136    5771.4398 
  110800    292.68599   -6018.5679    29.663005   -6048.2309   -17123.498 
  111000    290.76956   -6029.0583     29.46878   -6058.5271    -2876.577 
  111200    288.14177   -6025.6025     29.20246    -6054.805     5442.244 
  111400    323.59946   -6017.4906     32.79601   -6050.2866   -8578.1984 
  111600    287.58338   -6028.5201    29.145869   -6057.6659    5354.3533 
  111800     331.3823   -6023.7966    33.584782   -6057.3813   -4015.8242 
  112000    342.98696   -6017.5933    34.760886   -6052.3542    3872.3096 
  112200     310.1109   -6022.5846    31.428977   -6054.0136   -17095.097 
  112400    233.17246   -6034.0552    23.631456   -6057.6867     5111.624 
  112600    349.11498    -6018.123    35.381945    -6053.505    4100.0124 
  112800     308.8753    -6023.005    31.303752   -6054.3087    5205.7479 
  113000    296.72156   -6027.3855    30.072001   -6057.4575    10721.381 
  113200    352.59814   -6010.7011    35.734954   -6046.4361   -3865.0526 
  113400    311.56679   -6020.6014    31.576528    -6052.178    3899.6582 
  113600    282.88069   -6028.3881    28.669263   -6057.0573    -3821.051 
  113800    279.71551   -6016.7439    28.348479   -6045.0924    -6954.524 
  114000    291.58184   -6018.8053    29.551103   -6048.3564   -224.78418 
  114200     321.5057     -6025.68    32.583813   -6058.2638    13361.794 
  114400    269.22306   -6022.4294    27.285095   -6049.7145   -4427.6496 
  114600    336.93437    -6013.621     34.14747   -6047.7685    7407.6146 
  114800      252.754   -6029.3721    25.615997   -6054.9881    8306.9945 
  115000    302.00642    -6023.383    30.607608   -6053.9906    17517.447 
  115200    272.07382   -6022.2353    27.574012   -6049.8093   -17899.816 
  115400     282.4783   -6033.9957    28.628481   -6062.6242    22889.409 
  115600    304.73264   -6021.4134    30.883904   -6052.2973   -14539.856 
  115800    361.53954   -6023.2283    36.641144   -6059.8694   -18.335042 
  116000    210.24799   -6037.7655    21.308117   -6059.0736    13791.903 
  116200    257.15385   -6029.6327     26.06191   -6055.6946    5784.0328 
  116400    325.16583   -6021.1193    32.954758    -6054.074    5498.5057 
  116600    302.67722   -6024.1962    30.675592   -6054.8717    24003.177 
  116800    289.44399   -6031.7749    29.334436   -6061.1093   -25605.012 
  117000    336.12115   -6018.0729    34.065052   -6052.1379   -4739.2455 
  117200    245.90259    -6024.076    24.921623   -6048.9976    28770.619 
  117400    268.19229   -6018.9697     27.18063   -6046.1503    21091.365 
  117600    304.78053    -6016.711    30.888758   -6047.5998    14638.973 
  117800    257.89902   -6028.1469    26.137432   -6054.2843    488.01383 
  118000    270.98154   -6025.5685    27.463313   -6053.0318    1211.7547 
  118200    324.05099   -6016.2447    32.841771   -6049.0865    9137.8345 
  118400    240.99019    -6029.367    24.423763   -6053.7907    20250.745 
  118600    276.11936   -6026.3268    27.984018   -6054.3108    15075.366 
  118800    352.64168   -6019.7725    35.739367   -6055.5119   -5391.0332 
  119000    320.50726   -6023.8402    32.482623   -6056.3228    8805.6861 
  119200    235.08402   -6031.6961    23.825187   -6055.5212    14395.999 
  119400    334.92349    -6019.353    33.943672   -6053.2967   -22952.322 
  119600    341.50623   -6019.8965    34.610817   -6054.5073    28194.079 
  119800    261.09915   -6024.6163    26.461757   -6051.0781    7502.3205 
  120000    237.46157   -6022.0798    24.066147    -6046.146    7912.3361 
  120200    290.02111   -6023.0719    29.392926   -6052.4649    12364.309 
  120400    280.62147   -6023.6554    28.440296   -6052.0957   -2235.0955 
  120600    274.92177   -6027.9716    27.862645   -6055.8343   -2879.7115 
  120800    225.37917   -6033.5731    22.841625   -6056.4147   -14296.836 
  121000     332.6485   -6018.0451    33.713107   -6051.7582   -11225.464 
  121200    304.71155   -6027.8949    30.881766   -6058.7767    16718.998 
  121400    232.76722   -6034.6487    23.590386   -6058.2391     13975.62 
  121600    272.03207   -6024.5496    27.569781   -6052.1194    30505.546 
  121800    393.75772   -6019.3369    39.906377   -6059.2433    11215.333 
  122000    250.69555   -6032.3395    25.407378   -6057.7468   -23777.901 
  122200    293.65679   -6023.3869    29.761394   -6053.1483    3424.5718 
  122400     289.3599   -6020.4476    29.325914   -6049.7735    20555.016 
  122600    299.09611   -6023.0307    30.312655   -6053.3434   -11888.852 
  122800    302.70245   -6027.6086    30.678149   -6058.2868   -5469.4571 
  123000    306.34178   -6026.5859    31.046986   -6057.6329   -10070.373 
  123200    327.30574   -6017.7737    33.171632   -6050.9454   -13412.942 
  123400    283.98832   -6033.3591    28.781518   -6062.1407    17015.206 
  123600    263.94423   -6026.2304    26.750099   -6052.9805   -19918.459 
  123800    275.54885   -6020.4435    27.926198   -6048.3697    8309.6401 
  124000    343.08582   -6026.0702    34.770905   -6060.8411   -270.89514 
  124200    219.64476   -6028.8659    22.260456   -6051.1264    -27843.71 
  124400    368.56799   -6016.3829    37.353459   -6053.7363   -3461.3729 
  124600    246.66316    -6029.044    24.998704   -6054.0427   -788.50331 
  124800    314.22746   -6017.9424    31.846181   -6049.7886    4593.4777 
  125000    344.45471   -6014.5179    34.909638   -6049.4276    328.76091 
  125200    269.36173   -6028.9388    27.299149    -6056.238    7735.8463 
  125400    311.73854   -6023.2013    31.593935   -6054.7952    3968.4358 
  125600    328.60792   -6016.3105    33.303605   -6049.6141   -5227.1798 
  125800    295.99722   -6027.2469     29.99859   -6057.2455    11325.439 
  126000     316.3984   -6022.3743      32.0662   -6054.4405    25911.573 
  126200    317.87008   -6022.3422    32.215351   -6054.5575     12529.66 
  126400    263.49657   -6030.4342    26.704729   -6057.1389   -6328.3557 
  126600    370.44099   -6017.0737    37.543283   -6054.6169    9146.8651 
  126800    283.43294   -6023.4612    28.725232   -6052.1865    13951.659 
  127000    293.33404   -6031.1999    29.728684   -6060.9285    16317.778 
  127200    286.03455    -6026.866    28.988899   -6055.8549   -20097.911 
  127400    328.79757   -6020.1395    33.322826   -6053.4623    7060.0057 
  127600      250.202   -6034.1291    25.357358   -6059.4865    3734.9858 
  127800    283.25349   -6026.4599    28.707045   -6055.1669   -4019.3405 
  128000    344.62855    -6019.694    34.927257   -6054.6212    7942.7432 
  128200    286.04379   -6023.3297    28.989835   -6052.3196    23723.439 
  128400    233.98058   -6032.4828    23.713356   -6056.1962     -16888.7 
  128600     284.2784   -6020.1605    28.810917   -6048.9714     13898.45 
  128800    289.36853    -6023.967    29.326789   -6053.2938   -605.84067 
  129000    280.04743   -6029.9445    28.382118   -6058.3266   -9333.0931 
  129200    374.16643   -6014.3445    37.920848   -6052.2654    29294.607 
  129400    222.79544   -6027.9827    22.579771   -6050.5625   -9937.6223 
  129600    300.53733   -6021.6525    30.458719   -6052.1112   -31378.237 
  129800    332.26472   -6011.9721    33.674213   -6045.6464    3004.0317 
  130000    255.73119   -6024.4779    25.917727   -6050.3956    8817.5706 
  130200    313.83112   -6026.3938    31.806012   -6058.1998    34389.437 
  130400    339.40099   -6012.3638    34.397456   -6046.7613   -592.88093 
  130600    322.39322   -6024.6121     32.67376   -6057.2859    5387.0824 
  130800    294.10286   -6021.8222    29.806602   -6051.6288   -15767.957 
  131000    398.22643   -6007.6605    40.359269   -6048.0198    -10171.35 
  131200    260.38079   -6026.3644    26.388953   -6052.7534    -5736.547 
  131400    286.69963    -6024.691    29.056302   -6053.7473    19874.598 
  131600    322.60966   -6011.7492    32.695696   -6044.4449   -11132.941 
  131800    297.49746   -6030.8307    30.150636   -6060.9813    -12759.48 
  132000    297.76457   -6023.2956    30.177707   -6053.4733     1070.232 
  132200    378.23482   -6017.4024    38.333169   -6055.7356    22921.654 
  132400    295.48101   -6028.4803    29.946274   -6058.4266   -8030.6219 
  132600     385.2005     -6019.82    39.039123   -6058.8591   -5602.2924 
  132800    236.81068   -6029.9277    24.000181   -6053.9279    8275.8949 
  133000    282.40733   -6028.4452    28.621288   -6057.0665   -23510.906 
  133200    311.22769   -6021.3911    31.542161   -6052.9333   -5239.9018 
  133400    218.32739   -6026.3959    22.126944   -6048.5228    21946.606 
  133600    228.53802   -6035.2984    23.161767   -6058.4602   -14867.924 
  133800    251.49852   -6022.9574    25.488756   -6048.4461    -12303.72 
  134000    260.29611   -6023.8107    26.380371   -6050.1911     -570.267 
  134200    203.76117   -6034.4234    20.650694   -6055.0741   -14369.338 
  134400    245.35818   -6025.1289    24.866448   -6049.9953    3473.7683 
  134600    316.22098   -6018.2295    32.048219   -6050.2777   -17072.186 
  134800    389.90844   -6009.2251    39.516262   -6048.7414    8567.8964 
  135000    269.14336   -6026.2011    27.277018   -6053.4781   -15165.314 
  135200    323.74742   -6022.1182    32.811005   -6054.9292    10869.156 
  135400    283.02139   -6018.7651    28.683522   -6047.4486   -3690.0203 
  135600     281.8087   -6030.2058    28.560619   -6058.7664    19299.864 
  135800     300.0917   -6023.3765    30.413556     -6053.79    6113.4785 
  136000    370.47468   -6017.8449    37.546698   -6055.3916   -19171.152 
  136200    241.08967   -6030.2726    24.433845   -6054.7065    2654.8575 
  136400    262.72813   -6025.1479     26.62685   -6051.7747    -5507.289 
  136600    283.40213    -6021.353    28.722109   -6050.0751    -10988.86 
  136800    292.06036   -6022.3481      29.5996   -6051.9477    5296.5622 
  137000    288.90851   -6021.4188    29.280167    -6050.699   -6132.4652 
  137200    248.48753   -6032.0487      25.1836   -6057.2323    20520.844 
  137400    338.54318   -6019.0598    34.310519   -6053.3703   -11736.937 
  137600    299.24718   -6022.1759    30.327966   -6052.5038    11102.368 
  137800    332.32218   -6024.7983    33.680036   -6058.4783    8818.5032 
  138000    279.81102   -6026.0087    28.358159   -6054.3668   -3336.9653 
  138200    290.71856   -6019.1256    29.463612   -6048.5892    3690.4259 
  138400    297.01185   -6022.2254     30.10142   -6052.3269    20100.201 
  138600    256.11675   -6030.2435    25.956803   -6056.2003    11808.272 
  138800    288.60108   -6026.8462     29.24901   -6056.0952     4327.759 
  139000    271.11321   -6020.2885    27.476657   -6047.7652   -27903.528 
  139200    319.64271   -6017.6336    32.395003   -6050.0286    50.549514 
  139400    253.23975   -6027.6511    25.665226   -6053.3163    1134.7792 
  139600    393.31425   -6014.9627    39.861433   -6054.8241    39054.479 
  139800    427.18896   -6003.5783    43.294551   -6046.8728   -568.20137 
  140000    311.10594   -6023.8806    31.529822   -6055.4104    23468.594 
  140200    252.54228   -6024.8804    25.594539   -6050.4749   -20222.777 
  140400    252.70704   -6013.6805    25.611237   -6039.2918    11586.156 
  140600    291.72039   -6023.2548    29.565145   -6052.8199   -15034.138 
  140800    285.41436    -6025.596    28.926044    -6054.522   -1919.5737 
  141000    265.88823   -6036.3006    26.947118   -6063.2477    5811.4169 
  141200    333.04683   -6020.6601    33.753478   -6054.4136    1648.0271 
  141400      228.463   -6024.0347    23.154163   -6047.1888    -11847.66 
  141600    238.92423   -6029.7345    24.214383   -6053.9489    6082.5175 
  141800    239.22284   -6025.5279    24.244647   -6049.7725   -13483.212 
  142000    374.93291   -6014.9761    37.998529   -6052.9746   -5472.3932 
  142200    225.44917   -6025.6327    22.848719   -6048.4815   -24244.892 
  142400    255.91476   -6020.6256    25.936332   -6046.5619    18418.118 
  142600    183.16739   -6023.1108    18.563565   -6041.6744   -2413.3716 
  142800    293.91967   -6031.0688    29.788036   -6060.8568     7004.103 
  143000    399.58566   -6016.1722    40.497025   -6056.6693   -19222.625 
  143200    302.34981   -6023.2199     30.64241   -6053.8623    -5691.737 
  143400    309.48541   -6032.3677    31.365586   -6063.7333   -8054.8878 
  143600    292.05255   -6029.2681    29.598808   -6058.8669    7410.8503 
  143800    289.84619   -6022.4108    29.375198    -6051.786   -8352.7637 
  144000    279.91217   -6032.6257     28.36841   -6060.9941   -673.61154 
  144200    270.83145   -6039.6811    27.448102   -6067.1292   -1453.7108 
  144400    357.42049   -6022.3059    36.223688   -6058.5295    4431.9124 
  144600    290.78144   -6026.1821    29.469984   -6055.6521   -1626.2471 
  144800    290.98896    -6033.261    29.491015    -6062.752    7328.4509 
  145000    305.59557   -6021.4336     30.97136   -6052.4049   -13129.427 
  145200    231.88719   -6022.0531    23.501197   -6045.5543    6507.5182 
  145400    280.36514   -6034.9573    28.414318   -6063.3716   -17797.673 
  145600    340.94999   -6023.0379    34.554443   -6057.5924   -4981.1546 
  145800    330.64234   -6021.9991    33.509788   -6055.5089    3047.3029 
  146000    289.66575   -6032.7436    29.356912   -6062.1005    12055.991 
  146200    284.63269   -6028.2847    28.846824   -6057.1315    -13668.04 
  146400    258.63363   -6018.1871    26.211883    -6044.399    12030.717 
  146600    259.55914   -6031.1908    26.305681   -6057.4964   -7354.9032 
  146800    345.71159    -6025.995     35.03702    -6061.032    11651.795 
  147000    381.18581   -6021.4928    38.632245    -6060.125    3779.1095 
  147200    254.24992   -6024.8075    25.767604   -6050.5751    10362.898 
  147400    254.36851   -6030.0117    25.779623   -6055.7913    6765.7513 
  147600    279.42086   -6022.5776    28.318617   -6050.8962    3987.6026 
  147800    285.41642   -6019.9595    28.926252   -6048.8857   -8702.0321 
  148000    265.90412   -6030.2011    26.948729   -6057.1498   -438.56718 
  148200    329.38386   -6023.0613    33.382244   -6056.4435    36.559609 
  148400    306.46926   -6014.7419    31.059907   -6045.8018   -10758.018 
  148600    312.41585   -6017.9347    31.662578   -6049.5973   -12548.404 
  148800    228.55661   -6026.1681     23.16365   -6049.3317   -13142.215 
  149000    408.94447    -6013.727    41.445517   -6055.1725    11924.957 
  149200    268.86131   -6018.5083    27.248433   -6045.7568   -1098.6035 
  149400    284.67063   -6025.6016    28.850668   -6054.4522     9175.873 
  149600    340.65979   -6029.6833    34.525032   -6064.2083   -13201.286 
  149800    335.22229   -6014.1603    33.973955   -6048.1342    13047.382 
  150000    276.72229   -6023.9882    28.045124   -6052.0333   -17779.028 
  150200    245.32217   -6023.4136    24.862799   -6048.2764    11359.575 
  150400    387.31326   -6011.2309    39.253247   -6050.4841    14287.217 
  150600    326.18078   -6023.9144     33.05762    -6056.972   -6322.6763 
  150800    267.83477   -6029.0441    27.144396   -6056.1885    21319.242 
  151000    369.47989   -6014.1378    37.445878   -6051.5837   -35248.913 
  151200    279.15327   -6020.1676    28.291498   -6048.4591    18585.191 
  151400     286.5339   -6026.6876    29.039506   -6055.7271   -36682.856 
  151600    329.82231    -6020.319    33.426681   -6053.7457    8787.4704 
  151800     326.9831   -6018.3374    33.138933   -6051.4763   -12837.673 
  152000    285.82724    -6030.606    28.967888   -6059.5738    235.40588 
  152200    268.55158   -6021.7564    27.217043   -6048.9735    7867.0064 
  152400    345.26488    -6014.399    34.991746   -6049.3907   -10761.136 
  152600    268.87237   -6030.8073    27.249554   -6058.0568   -2047.3951 
  152800    333.93986   -6024.0181    33.843984   -6057.8621   -780.59442 
  153000     294.5994   -6020.5483    29.856925   -6050.4052   -21138.262 
  153200    274.88353   -6029.0656     27.85877   -6056.9243   -9007.4242 
  153400    232.31438   -6040.9751    23.544492   -6064.5196   -2016.2896 
  153600      311.592   -6027.4355    31.579083   -6059.0146   -4764.3246 
  153800    304.83797   -6020.0389    30.894579   -6050.9334   -511.09116 
  154000    328.20528   -6025.3037    33.262799   -6058.5665   -9979.6809 
  154200    218.83377    -6031.547    22.178265   -6053.7253    15484.163 
  154400    282.43039   -6020.1744    28.623625    -6048.798   -8380.9594 
  154600    314.73548   -6025.3167    31.897667   -6057.2144    14757.941 
  154800     226.9701   -6035.3593    23.002862   -6058.3622    7358.5816 
  155000    325.20628   -6018.7746    32.958857   -6051.7335    23297.418 
  155200    259.92629   -6024.8619     26.34289   -6051.2047    -14696.53 
  155400    255.89264   -6033.3599     25.93409    -6059.294   -5045.7183 
  155600    376.12509   -6021.8117    38.119353   -6059.9311   -1256.4463 
  155800    387.83152   -6020.3169    39.305771   -6059.6227   -19943.361 
  156000    260.80075   -6030.8052    26.431515   -6057.2367   -5856.9647 
  156200    238.67361   -6025.4368    24.188983   -6049.6258   -23431.751 
  156400    269.62178   -6022.9847    27.325505   -6050.3102    817.91925 
  156600    236.17953   -6026.0901    23.936214   -6050.0263   -4190.2354 
  156800    321.90612   -6021.2153    32.624394   -6053.8397   -27379.818 
  157000    282.70086   -6020.0248    28.651038   -6048.6759   -16652.393 
  157200    235.53154   -6032.9968    23.870542   -6056.8673    18170.049 
  157400    307.17122   -6021.2689    31.131048   -6052.3999   -12440.164 
  157600     344.8275   -6022.2557     34.94742   -6057.2031   -5942.7215 
  157800    277.58111   -6032.3739    28.132163   -6060.5061   -11625.589 
  158000    341.97124   -6026.8148    34.657945   -6061.4728     12857.19 
  158200    358.62128   -6022.0325    36.345386   -6058.3779   -14599.725 
  158400    230.36138   -6031.3795    23.346559    -6054.726    11719.921 
  158600    397.39844   -6013.2891    40.275355   -6053.5644   -7758.9301 
  158800    295.96632   -6025.8447    29.995459   -6055.8401   -1362.9023 
  159000    280.05935   -6028.3079    28.383326   -6056.6912   -9137.3347 
  159200    380.35254   -6012.2908    38.547795   -6050.8386   -818.87189 
  159400    328.11637    -6024.321    33.253787   -6057.5748   -17637.189 
  159600    306.19277   -6025.8192    31.031884    -6056.851   -8882.5264 
  159800    317.42125   -6010.9263    32.169864   -6043.0961   -3545.5955 
  160000      306.002   -6019.3492    31.012551   -6050.3617    7784.6163 
  160200     265.4363   -6026.6773    26.901316   -6053.5787   -1011.5595 
  160400    321.39535   -6022.4147    32.572628   -6054.9874   -23219.257 
  160600    362.77491   -6013.9924    36.766346   -6050.7588    7174.7063 
  160800    296.32428   -6024.0395    30.031737   -6054.0712    -10895.55 
  161000    268.34226   -6024.3425    27.195829   -6051.5383    10024.075 
  161200    335.86619   -6015.5103    34.039213   -6049.5495    12638.012 
  161400    266.22722   -6029.0123    26.981475   -6055.9938    547.23915 
  161600    345.47252   -6028.0157    35.012791   -6063.0285    14676.597 
  161800    451.83882   -6009.6022    45.792754   -6055.3949   -9627.9472 
  162000    377.83148   -6014.3893    38.292292   -6052.6816   -9517.6606 
  162200    262.24746   -6026.4988    26.578135   -6053.0769   -10928.062 
  162400    264.76221   -6026.5137       26.833   -6053.3467    1287.8678 
  162600    309.49594   -6013.4346    31.366652   -6044.8013    1494.9623 
  162800    211.74054   -6027.5926    21.459383   -6049.0519   -22345.668 
  163000    309.29291   -6024.8404    31.346076   -6056.1865    18810.778 
  163200    349.95652   -6015.3018    35.467233    -6050.769   -14775.146 
  163400    236.06889   -6032.4028    23.925001   -6056.3278    3949.8923 
  163600    349.42059   -6020.9768    35.412918   -6056.3897   -5792.0442 
  163800    338.45358   -6019.2998    34.301438   -6053.6012    9066.6529 
  164000    247.23145   -6032.9469    25.056299   -6058.0032    -17684.11 
  164200    323.65148   -6024.5618    32.801282    -6057.363    16075.476 
  164400     314.2281   -6023.2625    31.846245   -6055.1087   -10703.398 
  164600    322.75893   -6034.0051    32.710824   -6066.7159    2128.6597 
  164800    219.31471   -6037.1925    22.227007   -6059.4195   -3103.5538 
  165000    255.66865   -6026.4878     25.91139   -6052.3992    3611.0061 
  165200    325.22829   -6019.3702    32.961088   -6052.3313    8278.1721 
  165400    279.66992   -6031.9722    28.343858    -6060.316   -3301.3518 
  165600    242.48725   -6024.2753    24.575487   -6048.8508   -10077.882 
  165800     305.7329   -6020.4583    30.985277   -6051.4435    -9195.098 
  166000    285.56268   -6025.6596    28.941076   -6054.6007    12299.035 
  166200      234.768   -6027.8423    23.793159   -6051.6355   -2434.2388 
  166400    345.27318   -6018.2438    34.992588   -6053.2364   -21736.459 
  166600     314.3331   -6019.5562    31.856887   -6051.4131    37984.369 
  166800    221.80147   -6029.1185    22.479034   -6051.5976   -8748.9083 
  167000    375.20201   -6021.0862    38.025801    -6059.112    13448.909 
  167200    328.99824   -6030.6913    33.343163   -6064.0344   -10974.242 
  167400    293.16968   -6028.9158    29.712027   -6058.6278    22483.138 
  167600    310.57704   -6019.1249     31.47622   -6050.6011    20240.409 
  167800    289.58243   -6029.9449    29.348467   -6059.2934   -26750.549 
  168000    283.02438   -6030.6027    28.683825   -6059.2865   -5179.2244 
  168200    293.94454   -6019.8302    29.790556   -6049.6208   -23006.946 
  168400    307.04502   -6026.7148    31.118258   -6057.8331   -1775.6289 
  168600    319.21083   -6019.7821    32.351233   -6052.1333    9679.9856 
  168800     370.8848   -6015.4716    37.588263   -6053.0599    4380.4413 
  169000    268.67942   -6027.9084    27.229999   -6055.1384    12542.384 
  169200    329.30588   -6017.4004    33.374341   -6050.7747   -31247.718 
  169400    274.77617   -6024.0501     27.84789    -6051.898   -508.84112 
  169600    282.18446   -6028.8545    28.598701   -6057.4532    -2747.096 
  169800    374.86599   -6017.2168    37.991747   -6055.2086    11653.194 
  170000    296.56101   -6029.8922    30.055729   -6059.9479    10854.809 
  170200    251.69616   -6030.9538    25.508787   -6056.4626    15410.896 
  170400    322.16125   -6024.1794    32.650251   -6056.8297    57.810707 
  170600    321.96119   -6025.1272    32.629975   -6057.7572    14293.301 
  170800    242.10165   -6034.4685    24.536407   -6059.0049    3370.5561 
  171000    334.32663   -6022.5683    33.883182   -6056.4515    6743.4552 
  171200    321.35301   -6022.4546    32.568338   -6055.0229    -19616.12 
  171400    235.22347   -6031.3257    23.839321    -6055.165    19240.964 
  171600    280.82906   -6025.6982    28.461334   -6054.1595   -24511.547 
  171800    347.17931   -6019.6886     35.18577   -6054.8744   -7560.2272 
  172000    256.31515   -6031.0829     25.97691   -6057.0598   -5014.2083 
  172200    221.16803   -6040.2148    22.414836   -6062.6296   -9123.6856 
  172400     271.3595   -6024.2011    27.501618   -6051.7027    10838.488 
  172600    359.34729   -6021.4642    36.418965   -6057.8831   -2482.8359 
  172800    286.93655   -6033.9507    29.080314    -6063.031    15749.043 
  173000    320.35821   -6018.6218    32.467518   -6051.0893    -16501.03 
  173200    311.09546   -6025.8147     31.52876   -6057.3435    9943.5621 
  173400    285.68169    -6031.114    28.953137   -6060.0671   -1331.2967 
  173600    298.76036   -6016.3572    30.278628   -6046.6358    -2383.177 
  173800    231.70261   -6028.4258     23.48249   -6051.9083    21030.542 
  174000    281.91714   -6026.8596    28.571609   -6055.4312   -19834.143 
  174200     291.1134   -6021.5218    29.503627   -6051.0254     10649.18 
  174400    351.53152    -6019.161    35.626856   -6054.7878   -20996.733 
  174600    241.80669   -6031.1563    24.506514   -6055.6629     24924.21 
  174800    282.26774   -6017.9793    28.607141   -6046.5864   -6119.9195 
  175000    297.85239   -6024.5825    30.186607   -6054.7691   -6353.6099 
  175200    238.31583   -6040.1225    24.152723   -6064.2752   -16972.795 
  175400    265.30173   -6029.3761    26.887678   -6056.2638    2854.0531 
  175600    426.61671   -6019.6168    43.236554   -6062.8533   -3647.9618 
  175800    301.62405   -6028.7633    30.568856   -6059.3321    -6495.461 
  176000    313.92352    -6024.112    31.815377   -6055.9274    14777.793 
  176200    398.58076   -6020.7268    40.395181   -6061.1219    9232.8108 
  176400    240.23726     -6027.62    24.347456   -6051.9675   -13432.936 
  176600    350.83569   -6019.1435    35.556335   -6054.6999      8920.09 
  176800    362.13178   -6014.5435    36.701165   -6051.2446   -17268.742 
  177000    321.58389   -6028.6065    32.591737   -6061.1982    10007.807 
  177200     339.3229   -6018.9058    34.389542   -6053.2953    15766.732 
  177400    310.48842   -6020.0299    31.467238   -6051.4971    18046.466 
  177600    317.16326   -6024.3897    32.143717   -6056.5334    16981.184 
  177800    317.95611   -6015.7062     32.22407   -6047.9303   -3817.3863 
  178000     264.1608   -6021.2348    26.772048   -6048.0069   -8848.3776 
  178200    322.92617   -6025.6929    32.727773   -6058.4207   -14507.913 
  178400    275.71187   -6023.5696     27.94272   -6051.5123    6711.3792 
  178600    332.83629   -6016.4826    33.732139   -6050.2147   -17077.447 
  178800    261.82276   -6031.7365    26.535093   -6058.2716    747.58771 
  179000    317.91852    -6023.724     32.22026   -6055.9442    10301.056 
  179200    316.03473    -6023.672    32.029342   -6055.7013   -10353.467 
  179400    287.77148    -6023.828    29.164932   -6052.9929   -3045.7983 
[...]
  950000    284.43197   -6092.5691    28.826481   -6121.3956   -3961.6634 
  950200    271.24626   -6100.8292    27.490142   -6128.3193    25890.743 
  950400    296.55016   -6086.5139    30.054629   -6116.5686   -12259.146 
  950600    304.57094   -6090.3517    30.867516   -6121.2192     14832.42 
  950800    290.90967   -6095.7598     29.48298   -6125.2428    1880.8305 
  951000    262.23273   -6095.2489    26.576643   -6121.8255   -15128.662 
  951200    323.91459   -6088.2392    32.827947   -6121.0671    17547.826 
  951400    242.37379    -6102.565    24.563988    -6127.129   -10154.973 
  951600    291.47024   -6096.8285    29.539793   -6126.3683    1568.8084 
  951800    305.44126   -6085.7603    30.955721    -6116.716   -3577.3369 
  952000    395.10584   -6075.1822    40.043005   -6115.2252    18521.684 
  952200    271.02715   -6092.3897    27.467935   -6119.8577   -10646.823 
  952400    341.44197    -6085.929    34.604304   -6120.5333    -18535.91 
  952600    383.06117   -6084.2087    38.822308    -6123.031    19242.702 
  952800    250.70698   -6097.2136    25.408537   -6122.6221    12881.658 
  953000     363.8335   -6084.4352    36.873631   -6121.3088   -10339.431 
  953200     283.7088   -6088.6112    28.753189   -6117.3644   -23308.307 
  953400     310.5649      -6088.3    31.474989    -6119.775     32917.37 
  953600    298.61254   -6094.2566    30.263647   -6124.5202    -27066.97 
  953800    313.44063   -6094.2243    31.766437   -6125.9908   -23130.504 
  954000    408.37667   -6086.2094    41.387972   -6127.5974    9069.8571 
  954200    344.16065   -6091.3464    34.879836   -6126.2262    24571.421 
  954400    279.42085   -6096.3047    28.318616   -6124.6233    2738.8454 
  954600    307.42155   -6088.5382    31.156418   -6119.6946   -7003.5413 
  954800    279.22011   -6089.8165    28.298272   -6118.1148   -8804.9966 
  955000      288.386   -6095.5054    29.227213   -6124.7327   -4570.9183 
  955200    354.72506   -6080.8414    35.950513   -6116.7919   -7086.4886 
  955400    247.69497   -6097.6488    25.103276   -6122.7521    23567.112 
  955600     334.0857   -6091.3524    33.858764   -6125.2111    4164.0157 
  955800    290.58947   -6087.4672    29.450528   -6116.9178   -29224.098 
  956000    237.33601   -6093.2757    24.053421   -6117.3292    20438.691 
  956200    288.92283    -6098.502    29.281618   -6127.7836    4297.8009 
  956400    228.66759   -6082.6464    23.174898   -6105.8213    20065.556 
  956600    310.38725   -6091.7731    31.456984   -6123.2301   -18749.837 
  956800    306.28259   -6092.2186    31.040988   -6123.2596    -18842.65 
  957000    377.72877   -6080.6023    38.281882   -6118.8841    9594.9222 
  957200    325.87551   -6083.8024    33.026682   -6116.8291    1434.6765 
  957400    289.55324   -6091.4381    29.345509   -6120.7836    8484.0652 
  957600    289.22752   -6099.9273    29.312499   -6129.2398    1406.8017 
  957800    309.13406   -6092.4574    31.329977   -6123.7874    7008.9669 
  958000    318.81611   -6089.4835    32.311229   -6121.7947   -11830.961 
  958200    231.93642   -6099.3049    23.506186   -6122.8111    8787.2195 
  958400    269.68574   -6100.1037    27.331987   -6127.4357   -15562.175 
  958600    309.09981   -6086.0371    31.326506   -6117.3636   -23822.096 
  958800    298.23098   -6097.3681    30.224977   -6127.5931    15766.664 
  959000     265.4456   -6098.7445    26.902259   -6125.6468    18097.583 
  959200    299.05604   -6087.8019    30.308594   -6118.1105   -7986.5312 
  959400     275.0182   -6091.4277    27.872418   -6119.3002   -29959.303 
  959600    260.02589   -6100.8059    26.352985   -6127.1589    751.05811 
  959800    294.50725   -6087.4176    29.847586   -6117.2651    4899.4686 
  960000    310.34392   -6092.6001    31.452593   -6124.0527   -18892.913 
  960200     303.1689   -6100.8376    30.725423    -6131.563   -5664.1384 
  960400    302.63909   -6085.1873    30.671727    -6115.859     20177.56 
  960600    333.09109   -6087.7729    33.757964   -6121.5308   -19078.215 
  960800    273.41079   -6097.2003    27.709511   -6124.9098   -21525.345 
  961000    395.13812   -6081.6292    40.046277   -6121.6755    20059.598 
  961200    398.42941   -6081.0207    40.379841   -6121.4005    17813.257 
  961400    358.98864   -6093.6247    36.382616   -6130.0073    6720.8239 
  961600    264.91828   -6094.9223    26.848817   -6121.7711    -4869.223 
  961800    382.96016   -6084.2658    38.812071   -6123.0779    5618.6806 
  962000    241.42768   -6095.1187    24.468101   -6119.5868    417.72888 
  962200    325.42976   -6087.0155    32.981507   -6119.9971   -7133.3334 
  962400    396.57462   -6073.0943    40.191863   -6113.2861   -19527.727 
  962600    320.93153   -6091.2975    32.525622   -6123.8231     12913.93 
  962800    283.52046   -6090.9432    28.734101   -6119.6773   -5800.1471 
  963000    359.96909   -6080.5089    36.481982   -6116.9909   -10190.348 
  963200    240.10662    -6096.887    24.334215   -6121.2212   -20057.125 
  963400    345.84994   -6094.0959    35.051041    -6129.147    2942.8114 
  963600    332.92398   -6082.0845    33.741027   -6115.8256    6208.9972 
  963800    253.14479   -6098.4313    25.655602   -6124.0869    14680.091 
  964000    293.25249   -6090.3869    29.720419   -6120.1073   -31048.604 
  964200    310.30956   -6084.5426    31.449111   -6115.9917   -17328.503 
  964400    376.83909   -6084.7439    38.191716   -6122.9356    14075.055 
  964600     286.5028   -6095.8013    29.036355   -6124.8377   -14982.322 
  964800    409.24515   -6083.8145     41.47599   -6125.2905   -7202.6573 
  965000    256.08372   -6098.6738    25.953455   -6124.6272    4968.5141 
  965200    308.55495    -6088.559    31.271285   -6119.8303    11321.455 
  965400     342.0531    -6093.717    34.666241   -6128.3833    11533.039 
  965600    311.32516   -6099.0015     31.55204   -6130.5536   -10054.061 
  965800    299.36353    -6093.244    30.339758   -6123.5837   -4696.3381 
  966000    348.95734   -6082.9007    35.365969   -6118.2667    8985.5918 
  966200    229.70068   -6098.9656    23.279599   -6122.2452    -12306.18 
  966400    279.12828   -6091.4662    28.288965   -6119.7552   -1436.4679 
  966600    293.76744   -6090.3175    29.772608   -6120.0901    16811.239 
  966800    238.47471   -6097.3763    24.168826   -6121.5451    19281.333 
  967000    250.99272   -6102.5316    25.437495   -6127.9691    12613.584 
  967200    292.88428   -6089.9183    29.683102   -6119.6014    34037.486 
  967400    271.75976   -6090.9238    27.542183    -6118.466   -13159.084 
  967600     242.5648   -6100.4408    24.583346   -6125.0242    11186.568 
  967800    325.21328   -6086.7699    32.959567   -6119.7295    17465.456 
  968000     293.5579   -6089.5619    29.751372   -6119.3133    6762.0344 
  968200    267.41255   -6099.7458    27.101604   -6126.8474   -2323.6339 
  968400    314.67393   -6088.8865    31.891429   -6120.7779    4527.2423 
  968600    346.31328   -6093.9493    35.097999   -6129.0473    165.67919 
  968800    241.64334   -6100.5868    24.489959   -6125.0768   -374.25524 
  969000    270.22233   -6089.0186    27.386369    -6116.405    8047.3893 
  969200    294.40247   -6088.8154    29.836967   -6118.6524   -12502.551 
  969400    330.83717   -6085.5444    33.529534    -6119.074    10728.458 
  969600    346.76081   -6083.1046    35.143356    -6118.248     3754.336 
  969800    284.17278   -6093.8334    28.800213   -6122.6336   -3343.7438 
  970000    313.41896   -6089.3304    31.764241   -6121.0947    -12244.85 
  970200    303.14785   -6090.9852     30.72329   -6121.7085   -4835.8995 
  970400    292.33684   -6097.9164     29.62762   -6127.5441    2320.0427 
  970600    358.83018   -6081.6187    36.366557   -6117.9853    -34375.74 
  970800      275.659   -6089.9783    27.937362   -6117.9157    8282.6465 
  971000    272.73199   -6092.8437    27.640717   -6120.4844    4398.0486 
  971200    364.36803    -6080.196    36.927804   -6117.1238   -2385.6508 
  971400    320.63135   -6091.5562    32.495199   -6124.0514    4562.6238 
  971600     287.1893   -6095.8194     29.10593   -6124.9253     11584.71 
  971800    398.27356   -6080.3319    40.364046    -6120.696    24565.355 
  972000    292.24067   -6093.9939    29.617874   -6123.6118   -9769.7654 
  972200    309.86596   -6092.8931    31.404153   -6124.2972   -9235.1083 
  972400    364.25238   -6073.3286    36.916083   -6110.2447   -8840.9067 
  972600    320.39185   -6081.7745    32.470927   -6114.2454    -12460.56 
  972800    290.31818   -6090.0784    29.423034   -6119.5014    7367.1983 
  973000    311.27643    -6097.193    31.547101   -6128.7401    14103.646 
  973200    289.73216   -6102.1233    29.363642    -6131.487   -180.96919 
  973400    337.02544   -6087.6571      34.1567   -6121.8138   -8902.2255 
  973600    280.44093   -6094.6762    28.421999   -6123.0982   -17309.437 
  973800    212.44418   -6107.0299    21.530696   -6128.5606   -20184.482 
  974000    263.61775   -6093.9883    26.717011   -6120.7053     21608.91 
  974200     315.6766   -6084.5976    31.993047   -6116.5907   -9423.3434 
  974400    300.52467   -6082.4894    30.457437   -6112.9469    13585.484 
  974600    243.76806   -6096.8993    24.705294   -6121.6046   -6953.3617 
  974800    292.52169   -6091.6214    29.646354   -6121.2677   -6858.7094 
  975000    308.22838   -6083.9658    31.238188    -6115.204    22047.676 
  975200    301.45546     -6093.35    30.551769   -6123.9018   -41468.816 
  975400    324.36901   -6082.3279    32.874002   -6115.2019    8159.8092 
  975600    302.44874   -6091.5193    30.652436   -6122.1717    23358.646 
  975800    343.89112   -6093.8801    34.852519   -6128.7326    25012.579 
  976000    350.15212   -6082.2269    35.487056    -6117.714    21722.513 
  976200    287.12925   -6090.6297    29.099844   -6119.7296    9274.0566 
  976400    325.86516   -6094.2087    33.025633   -6127.2344    15318.226 
  976600    296.49753   -6092.5414    30.049296   -6122.5907    15814.134 
  976800    358.52752   -6083.3451    36.335883    -6119.681    11294.798 
  977000    306.59939   -6096.3518    31.073094   -6127.4249    24379.292 
  977200    354.66352   -6093.3072    35.944275   -6129.2514    13365.341 
  977400    354.83056   -6079.9982    35.961205   -6115.9594    -16190.77 
  977600    269.84044   -6096.2183    27.347665   -6123.5659   -13721.118 
  977800    277.16198   -6090.4791    28.089685   -6118.5688   -21887.181 
  978000    323.80493   -6085.3965    32.816834   -6118.2133    2922.6009 
  978200    290.51665    -6098.771    29.443148   -6128.2141    18592.264 
  978400    295.97005   -6092.7367    29.995837   -6122.7325   -17479.512 
  978600     324.4503   -6093.3196     32.88224   -6126.2018    11364.045 
  978800    285.48321   -6099.6222    28.933021   -6128.5552   -1101.1067 
  979000    333.46124   -6086.1866    33.795477   -6119.9821    16413.039 
  979200    301.21618   -6082.6544     30.52752   -6113.1819    2496.4386 
  979400     260.2243    -6098.187    26.373093   -6124.5601   -12294.853 
  979600    255.92208   -6088.0316    25.937074   -6113.9687    -3610.827 
  979800     348.7059   -6089.0853    35.340486   -6124.4257    4582.3976 
  980000    285.97211    -6096.608     28.98257   -6125.5906    760.78854 
  980200    303.93542   -6091.8805    30.803107   -6122.6836    3162.0648 
  980400    445.11667   -6079.9775     45.11148    -6125.089   -4005.8294 
  980600    321.08995   -6094.8973    32.541677    -6127.439   -1560.2929 
  980800    319.96372   -6088.2288    32.427537   -6120.6563    2852.7553 
  981000    339.66584   -6086.8933    34.424298   -6121.3176    7551.6507 
  981200    324.45774   -6091.1819    32.882994   -6124.0649   -8816.8685 
  981400    279.01581   -6091.8046    28.277566   -6120.0822    35683.792 
  981600    321.32644   -6087.2521    32.565645   -6119.8178   -7422.7723 
  981800    261.55931   -6099.4327    26.508393   -6125.9411   -10651.442 
  982000    330.77441    -6091.239    33.523174   -6124.7622     24837.74 
  982200    302.03767    -6090.256    30.610775   -6120.8668    33953.299 
  982400    361.15605   -6084.5088    36.602278   -6121.1111   -2617.9671 
  982600    270.26813   -6091.3902    27.391011   -6118.7812    12239.731 
  982800    275.72751   -6093.6739    27.944306   -6121.6182    1530.9269 
  983000    253.48582   -6086.4548    25.690165   -6112.1449   -17906.336 
  983200    272.45391   -6092.8992    27.612534   -6120.5118   -11129.413 
  983400    227.84686   -6104.6409    23.091719   -6127.7326    14850.617 
  983600    219.65254   -6105.4359    22.261245   -6127.6971    -3849.162 
  983800    303.61021   -6093.1651    30.770149   -6123.9352     277.2581 
  984000    315.01284   -6091.1054    31.925777   -6123.0312    6614.1074 
  984200     237.1865   -6101.2855    24.038269   -6125.3238    5192.9724 
  984400     287.3698   -6088.5358    29.124222     -6117.66   -7633.3046 
  984600    333.12066   -6083.3958     33.76096   -6117.1568    25642.354 
  984800    267.03228   -6095.8604    27.063065   -6122.9234   -7759.4682 
  985000    324.56519   -6093.7955    32.893884   -6126.6894     1276.417 
  985200    284.51905   -6096.6143    28.835306   -6125.4496    10690.636 
  985400    226.90619   -6101.4169    22.996385   -6124.4133    9192.6046 
  985600    332.55099   -6090.3919    33.703226   -6124.0951    12033.611 
  985800    332.70533   -6085.6511    33.718867     -6119.37   -4668.2736 
  986000    265.52171   -6097.8348    26.909973   -6124.7448    2131.7771 
  986200    302.68688   -6089.5215    30.676571    -6120.198    6442.9455 
  986400    294.34959   -6090.3827    29.831608   -6120.2143   -11803.768 
  986600    283.39071   -6101.0817    28.720952   -6129.8026    4729.6347 
  986800    360.50044    -6088.583    36.535833   -6125.1188    10553.136 
  987000    265.67445   -6092.8302    26.925452   -6119.7557   -17617.922 
  987200        248.7   -6094.9238    25.205134   -6120.1289   -13686.322 
  987400    347.39432   -6080.8323     35.20756   -6116.0398    9620.0109 
  987600    344.00651   -6086.7511    34.864214   -6121.6153    17347.742 
  987800    264.63857   -6090.2124    26.820468   -6117.0328   -6049.9764 
  988000    291.84341   -6090.8339    29.577613   -6120.4116    4176.1973 
  988200    276.06923   -6091.1146    27.978937   -6119.0935   -21829.652 
  988400    247.89599    -6098.538    25.123649   -6123.6617   -16830.866 
  988600    309.75759   -6086.1568     31.39317     -6117.55    -8710.256 
  988800    330.25344   -6091.1309    33.470375   -6124.6013    7342.2559 
  989000    289.54996   -6096.1917    29.345176   -6125.5369   -6676.1011 
  989200    280.73501   -6095.0638    28.451803   -6123.5156   -7137.7968 
  989400    323.33326   -6084.4517    32.769031   -6117.2207   -12515.605 
  989600    221.09264   -6099.0712    22.407196   -6121.4783   -1643.6212 
  989800    317.68166   -6094.4022    32.196255   -6126.5984   -5033.4159 
  990000    290.41792   -6089.0172    29.433142   -6118.4504    28057.583 
  990200    287.43479   -6093.3568    29.130809   -6122.4876   -11466.636 
  990400    252.87202   -6102.4106    25.627958   -6128.0385   -2013.8977 
  990600    337.64735   -6089.3367    34.219729   -6123.5564   -11212.534 
  990800    289.14265   -6091.5686    29.303897   -6120.8725    3615.2821 
  991000    368.65561   -6079.8077     37.36234     -6117.17    8963.5941 
  991200    284.54749   -6081.5042    28.838189   -6110.3424    21877.052 
  991400    310.43726   -6088.4134    31.462053   -6119.8755   -1336.8222 
  991600    322.14438   -6094.6731    32.648541   -6127.3216   -5937.5112 
  991800    263.85755   -6103.5824    26.741314   -6130.3237    3807.5579 
  992000    321.47902   -6095.2309    32.581108    -6127.812    13843.288 
  992200    318.00472    -6092.554    32.228996    -6124.783    19426.332 
  992400    307.87099   -6084.3773    31.201968   -6115.5793   -25200.712 
  992600    290.58451   -6085.5925    29.450025   -6115.0425   -1830.4391 
  992800      366.523   -6084.1003    37.146205   -6121.2465   -4140.0883 
  993000    295.37736   -6095.7242    29.935769     -6125.66   -11730.701 
  993200    331.90601   -6088.8792    33.637858   -6122.5171    -9448.181 
  993400    328.00005   -6101.4821    33.241999   -6134.7241    9961.4052 
  993600    272.28623   -6096.0677     27.59554   -6123.6632    1033.2229 
  993800    335.90974   -6076.9001    34.043627   -6110.9437   -15204.262 
  994000    334.35013   -6085.4368    33.885564   -6119.3224   -8833.6382 
  994200    309.51999   -6091.0321    31.369091   -6122.4012   -9133.7019 
  994400    387.63185   -6075.5806    39.285535   -6114.8662   -13950.444 
  994600    310.75372   -6089.0717    31.494126   -6120.5659    14698.025 
  994800    323.74278   -6091.4113    32.810535   -6124.2218    1585.9124 
  995000    284.98477    -6098.349    28.882506   -6127.2315    3738.1388 
  995200    283.22936   -6096.4328    28.704599   -6125.1374   -15455.775 
  995400    307.55495      -6091.8    31.169938   -6122.9699   -7789.8144 
  995600    286.95696   -6094.7728    29.082383   -6123.8552    17.638175 
  995800    384.86516   -6082.9022    39.005138   -6121.9074     -9714.93 
  996000    264.77802    -6093.232    26.834601   -6120.0666    1374.6438 
  996200    334.66145   -6085.4469    33.917115    -6119.364   -7973.1906 
  996400    236.96908   -6098.2888    24.016234    -6122.305   -10418.979 
  996600    380.79707   -6088.2975    38.592847   -6126.8903    5059.6204 
  996800      315.975   -6092.0321     32.02329   -6124.0553    2143.5685 
  997000    279.28362   -6093.2687    28.304708   -6121.5734   -19550.838 
  997200      215.387   -6098.2499    21.828943   -6120.0788    13156.911 
  997400      316.841   -6085.9229    32.111057    -6118.034   -16317.172 
  997600    301.24673   -6087.0705    30.530616   -6117.6011   -4195.3465 
  997800    281.36051   -6091.5358    28.515197    -6120.051   -11111.612 
  998000    314.49233   -6081.2225    31.873024   -6113.0955   -984.63112 
  998200    230.03834   -6094.7511    23.313821   -6118.0649    34915.123 
  998400    276.71465   -6094.2437    28.044349    -6122.288    23578.624 
  998600    250.07922   -6104.3276    25.344914   -6129.6725   -13667.395 
  998800    345.48968   -6093.1208     35.01453   -6128.1354   -10587.537 
  999000    332.96484   -6086.2494    33.745168   -6119.9946    12216.147 
  999200    366.83492   -6074.7231    37.177818   -6111.9009     4648.122 
  999400    292.91906   -6087.8013    29.686626   -6117.4879   -19503.159 
  999600    298.69882   -6092.9315    30.272391   -6123.2038    9907.7895 
  999800    277.96884   -6100.3998    28.171459   -6128.5713    -2192.219 
 1000000     308.1323   -6093.7599    31.228451   -6124.9884   -13622.379 
Loop time of 1418.55 on 8 procs for 1000000 steps with 35 atoms

Performance: 15.227 ns/day, 1.576 hours/ns, 704.944 timesteps/s
99.5% CPU use with 8 MPI tasks x no OpenMP threads

MPI task timing breakdown:
Section |  min time  |  avg time  |  max time  |%varavg| %total
---------------------------------------------------------------
Pair    | 1028.3     | 1061.2     | 1082.1     |  57.8 | 74.81
Neigh   | 1.0175     | 1.0574     | 1.0888     |   2.3 |  0.07
Comm    | 30.178     | 51.449     | 83.811     | 259.7 |  3.63
Output  | 0.05984    | 0.065298   | 0.09502    |   4.4 |  0.00
Modify  | 302.79     | 303.31     | 303.72     |   1.9 | 21.38
Other   |            | 1.443      |            |       |  0.10

Nlocal:    4.375 ave 8 max 0 min
Histogram: 2 0 0 1 0 0 2 1 0 2
Nghost:    426.75 ave 436 max 419 min
Histogram: 1 2 0 1 1 0 1 0 1 1
Neighs:    470.5 ave 885 max 0 min
Histogram: 2 0 0 1 0 1 1 1 0 2

Total # of neighbors = 3764
Ave neighs/atom = 107.543
Neighbor list builds = 2363
Dangerous builds = 0

Please see the log.cite file for references relevant to this simulation

Total wall time: 0:23:44
