ITEM: TIMESTEP
0
ITEM: NUMBER OF ATOMS
98
ITEM: BOX BOUNDS pp pp pp
0.0000000000000000e+00 1.6524999999999999e+01
0.0000000000000000e+00 1.6526000000000000e+01
0.0000000000000000e+00 1.6526000000000000e+01
ITEM: ATOMS id type x y z 
1 1 1.813 1.813 1.813 
10 1 5.821 5.821 5.821 
17 1 3.388 3.388 3.388 
26 1 4.246 4.246 4.246 
33 1 0.284 2 2 
41 1 2 0.284 2 
49 1 2 2 0.283 
58 1 7.351 5.634 5.634 
66 1 5.634 7.351 5.634 
74 1 5.634 5.634 7.351 
81 1 2.689 2.689 2.689 
90 1 4.945 4.945 4.945 
4 1 1.813 1.813 14.084 
11 1 5.821 5.821 10.076 
20 1 3.388 3.388 12.509 
27 1 4.246 4.246 11.651 
36 1 0.284 2 13.897 
46 1 2 0.284 13.897 
56 1 2 2 15.614 
59 1 7.351 5.634 10.263 
69 1 5.634 7.351 10.263 
79 1 5.634 5.634 8.546 
84 1 2.689 2.689 13.208 
91 1 4.945 4.945 10.952 
6 1 1.813 14.084 1.813 
13 1 5.821 10.076 5.821 
22 1 3.388 12.509 3.388 
29 1 4.246 11.651 4.246 
38 1 0.284 13.897 2 
48 1 2 15.614 2 
52 1 2 13.897 0.283 
61 1 7.351 10.263 5.634 
71 1 5.634 8.546 5.634 
75 1 5.634 10.263 7.351 
86 1 2.689 13.208 2.689 
93 1 4.945 10.952 4.945 
7 1 1.813 14.084 14.084 
16 1 5.821 10.076 10.076 
23 1 3.388 12.509 12.509 
32 1 4.246 11.651 11.651 
39 1 0.284 13.897 13.897 
43 1 2 15.614 13.897 
53 1 2 13.897 15.614 
64 1 7.351 10.263 10.263 
68 1 5.634 8.547 10.263 
78 1 5.634 10.263 8.546 
87 1 2.689 13.208 13.208 
96 1 4.945 10.952 10.952 
97 2 2 15.614 12.547 
98 3 2 15.614 11.571 
8 1 14.084 1.813 1.813 
15 1 10.076 5.821 5.821 
24 1 12.509 3.388 3.388 
31 1 11.651 4.246 4.246 
40 1 15.613 2 2 
44 1 13.897 0.284 2 
54 1 13.897 2 0.283 
63 1 8.547 5.634 5.634 
67 1 10.263 7.351 5.634 
77 1 10.263 5.634 7.351 
88 1 13.208 2.689 2.689 
95 1 10.952 4.945 4.945 
5 1 14.084 1.813 14.084 
14 1 10.076 5.821 10.076 
21 1 12.509 3.388 12.509 
30 1 11.651 4.246 11.651 
37 1 15.613 2 13.897 
47 1 13.897 0.284 13.897 
51 1 13.897 2 15.614 
62 1 8.546 5.634 10.263 
72 1 10.263 7.351 10.263 
76 1 10.263 5.634 8.546 
85 1 13.208 2.689 13.208 
94 1 10.952 4.945 10.952 
3 1 14.084 14.084 1.813 
12 1 10.076 10.076 5.821 
19 1 12.509 12.509 3.388 
28 1 11.651 11.651 4.246 
35 1 15.613 13.897 2 
45 1 13.897 15.614 2 
55 1 13.897 13.897 0.283 
60 1 8.547 10.263 5.634 
70 1 10.263 8.547 5.634 
80 1 10.263 10.263 7.351 
83 1 13.208 13.208 2.689 
92 1 10.952 10.952 4.945 
2 1 14.084 14.084 14.084 
9 1 10.076 10.076 10.076 
18 1 12.509 12.509 12.509 
25 1 11.651 11.651 11.651 
34 1 15.613 13.897 13.897 
42 1 13.897 15.614 13.897 
50 1 13.897 13.897 15.614 
57 1 8.546 10.263 10.263 
65 1 10.263 8.546 10.263 
73 1 10.263 10.263 8.547 
82 1 13.208 13.208 13.208 
89 1 10.952 10.952 10.952 
ITEM: TIMESTEP
10
ITEM: NUMBER OF ATOMS
98
ITEM: BOX BOUNDS pp pp pp
0.0000000000000000e+00 1.6524999999999999e+01
0.0000000000000000e+00 1.6526000000000000e+01
0.0000000000000000e+00 1.6526000000000000e+01
ITEM: ATOMS id type x y z 
1 1 1.81404 1.81398 1.81477 
10 1 5.82067 5.82038 5.82038 
17 1 3.39175 3.39176 3.39162 
26 1 4.24251 4.24267 4.24267 
33 1 0.282899 2.0025 2.00252 
41 1 2.00251 0.282108 2.00254 
49 1 2.00213 2.00327 0.283619 
58 1 7.35141 5.63171 5.63172 
66 1 5.63167 7.35107 5.63168 
74 1 5.63168 5.63167 7.351 
81 1 2.69203 2.69201 2.69228 
90 1 4.94217 4.94189 4.94189 
4 1 1.82339 1.78569 14.0813 
11 1 5.82049 5.82076 10.0765 
20 1 3.39171 3.39256 12.5051 
27 1 4.24275 4.24262 11.6542 
36 1 0.279992 2.0025 13.894 
46 1 1.96899 0.331947 13.9165 
56 1 2.00351 2.00258 15.6184 
59 1 7.35114 5.63165 10.2654 
69 1 5.63169 7.35149 10.2653 
79 1 5.63164 5.63165 8.5458 
84 1 2.69438 2.69241 13.203 
91 1 4.94387 4.94416 10.9531 
6 1 1.81375 14.0832 1.81305 
13 1 5.82062 10.0766 5.82044 
22 1 3.39146 12.5055 3.39166 
29 1 4.24247 11.6544 4.24262 
38 1 0.283143 13.8946 2.00242 
48 1 2.00235 15.6149 2.00238 
52 1 2.00303 13.8957 0.284797 
61 1 7.35116 10.2653 5.6317 
71 1 5.63166 8.54584 5.63167 
75 1 5.63168 10.2653 7.35084 
86 1 2.69233 13.2048 2.69195 
93 1 4.94214 10.9551 4.94185 
7 1 1.80249 14.0379 14.0989 
16 1 5.82014 10.0773 10.0771 
23 1 3.39267 12.5054 12.5043 
32 1 4.24191 11.6549 11.655 
39 1 0.283585 13.8932 13.8952 
43 1 2.03434 15.6433 13.8956 
53 1 2.00159 13.8933 15.6138 
64 1 7.35138 10.2655 10.2655 
68 1 5.63149 8.54508 10.2655 
78 1 5.63148 10.2655 8.5452 
87 1 2.69109 13.2029 13.2064 
96 1 4.94183 10.9555 10.9552 
97 2 2.00293 15.6087 12.5255 
98 3 1.99927 15.6128 11.5526 
8 1 14.0827 1.81414 1.81415 
15 1 10.0772 5.82037 5.82013 
24 1 12.5052 3.39171 3.3917 
31 1 11.6545 4.24234 4.24249 
40 1 15.6145 2.0026 2.00257 
44 1 13.8944 0.28225 2.00256 
54 1 13.8944 2.00258 0.281728 
63 1 8.5451 5.63152 5.63152 
67 1 10.2654 7.35177 5.63155 
77 1 10.2655 5.63153 7.35169 
88 1 13.2051 2.69215 2.69218 
95 1 10.9552 4.94217 4.94191 
5 1 14.0825 1.81366 14.0834 
14 1 10.0767 5.82034 10.0766 
21 1 12.5055 3.39148 12.5055 
30 1 11.6544 4.2424 11.6545 
37 1 15.6143 2.00305 13.8949 
47 1 13.8946 0.282779 13.8947 
51 1 13.8946 2.00231 15.614 
62 1 8.54571 5.63161 10.2654 
72 1 10.2654 7.35087 10.2654 
76 1 10.2654 5.63162 8.54585 
85 1 13.2049 2.69212 13.2049 
94 1 10.9552 4.94209 10.9551 
3 1 14.083 14.083 1.8139 
12 1 10.0773 10.0772 5.82008 
19 1 12.5054 12.5053 3.39158 
28 1 11.6546 11.6546 4.24222 
35 1 15.6143 13.8945 2.00253 
45 1 13.8945 15.6151 2.00246 
55 1 13.8945 13.8945 0.28217 
60 1 8.5451 10.2656 5.63145 
70 1 10.2656 8.54529 5.63147 
80 1 10.2655 10.2655 7.35218 
83 1 13.2049 13.2051 2.69213 
92 1 10.9552 10.9552 4.94214 
2 1 14.0837 14.0831 14.0833 
9 1 10.0771 10.0772 10.0772 
18 1 12.5054 12.5055 12.5055 
25 1 11.6547 11.6547 11.6548 
34 1 15.6125 13.8957 13.8938 
42 1 13.8946 15.6152 13.8946 
50 1 13.8946 13.8946 15.6145 
57 1 8.54496 10.2656 10.2656 
65 1 10.2656 8.54483 10.2656 
73 1 10.2656 10.2656 8.54539 
82 1 13.2051 13.2049 13.2048 
89 1 10.9552 10.9552 10.9549 
ITEM: TIMESTEP
20
ITEM: NUMBER OF ATOMS
98
ITEM: BOX BOUNDS pp pp pp
0.0000000000000000e+00 1.6524999999999999e+01
0.0000000000000000e+00 1.6526000000000000e+01
0.0000000000000000e+00 1.6526000000000000e+01
ITEM: ATOMS id type x y z 
1 1 1.81762 1.81708 1.82107 
10 1 5.81764 5.81788 5.81792 
17 1 3.39193 3.39195 3.39139 
26 1 4.24325 4.24312 4.24307 
33 1 0.279428 2.00748 2.00802 
41 1 2.00745 0.280586 2.00806 
49 1 2.00643 2.01102 0.288286 
58 1 7.35549 5.62721 5.62715 
66 1 5.62717 7.35195 5.62711 
74 1 5.62714 5.62712 7.35026 
81 1 2.69546 2.69537 2.69673 
90 1 4.93892 4.93919 4.93918 
4 1 1.8168 1.792 14.078 
11 1 5.81866 5.81803 10.0781 
20 1 3.39242 3.39511 12.5041 
27 1 4.24692 4.24739 11.65 
36 1 0.278365 2.00866 13.8871 
46 1 1.95691 0.341566 13.963 
56 1 2.01154 2.00907 15.6227 
59 1 7.35142 5.62697 10.2702 
69 1 5.62695 7.35481 10.2701 
79 1 5.62687 5.62695 8.54468 
84 1 2.70188 2.69392 13.1959 
91 1 4.94203 4.94174 10.9548 
6 1 1.81764 14.0805 1.81369 
13 1 5.81721 10.0787 5.81767 
22 1 3.39128 12.5057 3.39168 
29 1 4.24329 11.6539 4.24333 
38 1 0.281146 13.8899 2.00715 
48 1 2.00697 15.6144 2.00706 
52 1 2.00996 13.8948 0.286439 
61 1 7.35517 10.27 5.62711 
71 1 5.62716 8.54494 5.62702 
75 1 5.62721 10.27 7.3526 
86 1 2.69594 13.2011 2.69493 
93 1 4.9389 10.9578 4.93891 
7 1 1.7958 14.0078 14.1081 
16 1 5.81638 10.0792 10.0801 
23 1 3.39333 12.5077 12.5035 
32 1 4.24191 11.6559 11.6551 
39 1 0.279569 13.8825 13.8937 
43 1 2.07195 15.6667 13.9021 
53 1 2.0031 13.8816 15.6187 
64 1 7.35452 10.2703 10.2701 
68 1 5.62691 8.54549 10.2701 
78 1 5.62693 10.2703 8.54397 
87 1 2.69147 13.1913 13.2069 
96 1 4.93779 10.9587 10.9588 
97 2 2.01082 15.6014 12.4814 
98 3 1.9948 15.6054 11.5109 
8 1 14.0812 1.81734 1.81569 
15 1 10.0784 5.81703 5.81788 
24 1 12.5059 3.39109 3.39121 
31 1 11.6542 4.24294 4.24307 
40 1 15.614 2.0071 2.00704 
44 1 13.8898 0.282645 2.00713 
54 1 13.8899 2.0071 0.279414 
63 1 8.5426 5.62709 5.627 
67 1 10.2701 7.3551 5.62701 
77 1 10.2702 5.6271 7.35289 
88 1 13.2014 2.69563 2.69529 
95 1 10.9579 4.93894 4.93876 
5 1 14.0767 1.81594 14.0807 
14 1 10.079 5.81672 10.0793 
21 1 12.5059 3.39159 12.5055 
30 1 11.6542 4.24287 11.6541 
37 1 15.6108 2.01032 13.8907 
47 1 13.8895 0.280074 13.8899 
51 1 13.8896 2.00717 15.6185 
62 1 8.5472 5.62701 10.2701 
72 1 10.2701 7.35356 10.27 
76 1 10.2701 5.62708 8.54393 
85 1 13.2008 2.69506 13.2017 
94 1 10.958 4.93884 10.9583 
3 1 14.0806 14.0805 1.81603 
12 1 10.0786 10.0788 5.81841 
19 1 12.506 12.5059 3.39104 
28 1 11.6542 11.6541 4.24281 
35 1 15.6134 13.89 2.00733 
45 1 13.8899 15.614 2.00714 
55 1 13.8897 13.89 0.282333 
60 1 8.54367 10.27 5.62709 
70 1 10.27 8.54385 5.62704 
80 1 10.27 10.27 7.35645 
83 1 13.2015 13.2016 2.69538 
92 1 10.9583 10.9585 4.93883 
2 1 14.0833 14.0806 14.0798 
9 1 10.0788 10.0786 10.0793 
18 1 12.5055 12.5058 12.5059 
25 1 11.654 11.654 11.6538 
34 1 15.6134 13.8954 13.8866 
42 1 13.89 15.6168 13.8902 
50 1 13.89 13.89 15.6164 
57 1 8.54358 10.27 10.2701 
65 1 10.2701 8.54468 10.2701 
73 1 10.2701 10.2701 8.5403 
82 1 13.2023 13.2015 13.2012 
89 1 10.9581 10.9581 10.9585 
ITEM: TIMESTEP
30
ITEM: NUMBER OF ATOMS
98
ITEM: BOX BOUNDS pp pp pp
0.0000000000000000e+00 1.6524999999999999e+01
0.0000000000000000e+00 1.6526000000000000e+01
0.0000000000000000e+00 1.6526000000000000e+01
ITEM: ATOMS id type x y z 
1 1 1.8088 1.81328 1.83373 
10 1 5.82282 5.8203 5.81709 
17 1 3.3949 3.39376 3.39188 
26 1 4.24288 4.24347 4.24327 
33 1 0.273356 2.02408 2.02857 
41 1 2.024 0.279237 2.02904 
49 1 2.0301 2.03382 0.297823 
58 1 7.35365 5.61083 5.61017 
66 1 5.61043 7.35729 5.61006 
74 1 5.60928 5.60991 7.35073 
81 1 2.69195 2.69346 2.70178 
90 1 4.94233 4.94132 4.94011 
4 1 1.79018 1.85101 14.1211 
11 1 5.83078 5.83269 10.0678 
20 1 3.39676 3.39729 12.4997 
27 1 4.25095 4.25286 11.6459 
36 1 0.254152 2.04351 13.864 
46 1 2.00348 0.307213 14.0946 
56 1 2.02573 2.05669 15.6357 
59 1 7.35745 5.61026 10.287 
69 1 5.61105 7.35719 10.2859 
79 1 5.61017 5.61015 8.53889 
84 1 2.70455 2.68696 13.1885 
91 1 4.94862 4.95004 10.9486 
6 1 1.81109 14.0854 1.81479 
13 1 5.82763 10.0751 5.8235 
22 1 3.39393 12.5025 3.39399 
29 1 4.24437 11.6526 4.2452 
38 1 0.282031 13.8729 2.02272 
48 1 2.02514 15.6183 2.02354 
52 1 2.02912 13.8808 0.294038 
61 1 7.34488 10.2851 5.61183 
71 1 5.61063 8.54736 5.61123 
75 1 5.61159 10.2856 7.35048 
86 1 2.6976 13.2011 2.6961 
93 1 4.94208 10.9537 4.94221 
7 1 1.79948 13.9848 14.1211 
16 1 5.82222 10.0857 10.078 
23 1 3.3907 12.5149 12.5044 
32 1 4.23871 11.6642 11.657 
39 1 0.281023 13.8484 13.8852 
43 1 2.14961 15.6782 14.1176 
53 1 2.01156 13.839 15.6281 
64 1 7.35019 10.2864 10.2864 
68 1 5.60853 8.54603 10.288 
78 1 5.61036 10.287 8.54304 
87 1 2.67085 13.1627 13.2339 
96 1 4.93553 10.9605 10.9605 
97 2 2.03636 15.5787 12.1896 
98 3 1.96999 15.5646 11.301 
8 1 14.0806 1.80895 1.81387 
15 1 10.0789 5.82516 5.81933 
24 1 12.504 3.39313 3.39322 
31 1 11.6553 4.24198 4.24182 
40 1 15.6195 2.02512 2.02324 
44 1 13.8738 0.285744 2.02275 
54 1 13.8747 2.02445 0.290085 
63 1 8.54301 5.60978 5.61042 
67 1 10.2855 7.3506 5.61104 
77 1 10.2866 5.61043 7.3554 
88 1 13.203 2.69501 2.69436 
95 1 10.9557 4.93924 4.94031 
5 1 14.0696 1.81497 14.083 
14 1 10.0812 5.82617 10.0746 
21 1 12.5034 3.39584 12.5007 
30 1 11.6539 4.24408 11.6537 
37 1 15.5908 2.03231 13.8685 
47 1 13.8681 0.276576 13.873 
51 1 13.8683 2.02434 15.6198 
62 1 8.54786 5.60937 10.2876 
72 1 10.2859 7.34843 10.2858 
76 1 10.2866 5.61081 8.54409 
85 1 13.1952 2.69386 13.2035 
94 1 10.9547 4.94104 10.9543 
3 1 14.0785 14.08 1.81578 
12 1 10.0823 10.0796 5.81989 
19 1 12.504 12.503 3.39306 
28 1 11.6551 11.6557 4.24149 
35 1 15.619 13.8725 2.02503 
45 1 13.8717 15.6221 2.02434 
55 1 13.872 13.8735 0.275305 
60 1 8.53621 10.2872 5.6104 
70 1 10.2869 8.53837 5.61044 
80 1 10.2866 10.2868 7.35689 
83 1 13.2023 13.2046 2.69425 
92 1 10.9566 10.9555 4.94124 
2 1 14.0861 14.0859 14.0851 
9 1 10.0783 10.081 10.0745 
18 1 12.5035 12.5045 12.5046 
25 1 11.6543 11.6546 11.6553 
34 1 15.6125 13.8855 13.8654 
42 1 13.8746 15.6109 13.8728 
50 1 13.8751 13.8739 15.6161 
57 1 8.53822 10.2868 10.2866 
65 1 10.287 8.53812 10.2869 
73 1 10.2863 10.2863 8.54322 
82 1 13.205 13.2018 13.2009 
89 1 10.956 10.9561 10.9557 
ITEM: TIMESTEP
40
ITEM: NUMBER OF ATOMS
98
ITEM: BOX BOUNDS pp pp pp
0.0000000000000000e+00 1.6524999999999999e+01
0.0000000000000000e+00 1.6526000000000000e+01
0.0000000000000000e+00 1.6526000000000000e+01
ITEM: ATOMS id type x y z 
1 1 1.81147 1.81364 1.82931 
10 1 5.82089 5.82307 5.81803 
17 1 3.39428 3.39356 3.39284 
26 1 4.24431 4.244 4.24396 
33 1 0.278164 2.02483 2.0293 
41 1 2.02435 0.281634 2.02971 
49 1 2.02859 2.036 0.300739 
58 1 7.35431 5.61045 5.60999 
66 1 5.61067 7.35233 5.61007 
74 1 5.60953 5.60954 7.34837 
81 1 2.69251 2.69362 2.70153 
90 1 4.94227 4.94266 4.94029 
4 1 1.79134 1.85379 14.1128 
11 1 5.82802 5.82862 10.0695 
20 1 3.39478 3.39182 12.5009 
27 1 4.24926 4.2514 11.6474 
36 1 0.260723 2.04392 13.8687 
46 1 2.01163 0.29913 14.097 
56 1 2.02474 2.05974 15.6342 
59 1 7.35901 5.61047 10.2869 
69 1 5.61109 7.36158 10.2859 
79 1 5.61029 5.61066 8.53856 
84 1 2.70017 2.68836 13.1939 
91 1 4.94697 4.94841 10.9508 
6 1 1.81575 14.085 1.81694 
13 1 5.82117 10.0779 5.82083 
22 1 3.39323 12.5037 3.39267 
29 1 4.2444 11.6517 4.24534 
38 1 0.275173 13.8729 2.02377 
48 1 2.02527 15.6163 2.02457 
52 1 2.02532 13.8743 0.293429 
61 1 7.35792 10.2865 5.61076 
71 1 5.60988 8.54296 5.61039 
75 1 5.61079 10.2863 7.35663 
86 1 2.69586 13.2021 2.69592 
93 1 4.94309 10.9543 4.94276 
7 1 1.81029 14.0259 14.1261 
16 1 5.81559 10.0809 10.0769 
23 1 3.38772 12.5115 12.5077 
32 1 4.23918 11.664 11.656 
39 1 0.282644 13.8535 13.8833 
43 1 2.126 15.6411 14.1018 
53 1 2.01431 13.8395 15.6246 
64 1 7.35398 10.2871 10.2864 
68 1 5.60939 8.55199 10.2877 
78 1 5.61103 10.2872 8.54761 
87 1 2.67368 13.1664 13.2319 
96 1 4.93562 10.9625 10.9604 
97 2 2.03753 15.5801 12.2149 
98 3 1.96848 15.5635 11.2754 
8 1 14.0813 1.81495 1.81717 
15 1 10.0767 5.81918 5.82 
24 1 12.5057 3.39228 3.39167 
31 1 11.6531 4.2433 4.24371 
40 1 15.6131 2.02508 2.02411 
44 1 13.8727 0.27596 2.02364 
54 1 13.8732 2.02466 0.282723 
63 1 8.54579 5.61029 5.61033 
67 1 10.2863 7.35735 5.61057 
77 1 10.2867 5.61054 7.35363 
88 1 13.2026 2.69387 2.69446 
95 1 10.9555 4.94101 4.94116 
5 1 14.0667 1.81094 14.0876 
14 1 10.0791 5.8206 10.0754 
21 1 12.5041 3.39387 12.5028 
30 1 11.6527 4.24466 11.6522 
37 1 15.5971 2.03093 13.8665 
47 1 13.8685 0.27831 13.8732 
51 1 13.869 2.0244 15.6178 
62 1 8.54756 5.6093 10.2879 
72 1 10.2871 7.35977 10.2865 
76 1 10.2873 5.61054 8.54173 
85 1 13.1961 2.69359 13.2037 
94 1 10.9555 4.94222 10.9542 
3 1 14.0828 14.0864 1.81305 
12 1 10.0731 10.0738 5.8213 
19 1 12.506 12.5059 3.39103 
28 1 11.6533 11.6531 4.24373 
35 1 15.6121 13.8734 2.02323 
45 1 13.8731 15.6137 2.02292 
55 1 13.8735 13.8745 0.28152 
60 1 8.54743 10.2853 5.61227 
70 1 10.2855 8.54789 5.6121 
80 1 10.2856 10.2854 7.35291 
83 1 13.2023 13.2036 2.69417 
92 1 10.9563 10.9562 4.94119 
2 1 14.0881 14.0834 14.0811 
9 1 10.0731 10.0737 10.0769 
18 1 12.5054 12.5055 12.5056 
25 1 11.6525 11.6523 11.6532 
34 1 15.6172 13.8814 13.8688 
42 1 13.8738 15.6162 13.8728 
50 1 13.8749 13.8742 15.6203 
57 1 8.54537 10.2857 10.2854 
65 1 10.2857 8.54421 10.2855 
73 1 10.2857 10.2859 8.54121 
82 1 13.2043 13.2022 13.2014 
89 1 10.9549 10.9562 10.9553 
ITEM: TIMESTEP
50
ITEM: NUMBER OF ATOMS
98
ITEM: BOX BOUNDS pp pp pp
0.0000000000000000e+00 1.6524999999999999e+01
0.0000000000000000e+00 1.6526000000000000e+01
0.0000000000000000e+00 1.6526000000000000e+01
ITEM: ATOMS id type x y z 
1 1 1.81175 1.81386 1.82939 
10 1 5.82126 5.8221 5.81764 
17 1 3.39427 3.39362 3.39318 
26 1 4.24432 4.24403 4.24381 
33 1 0.278243 2.02496 2.02942 
41 1 2.0245 0.281021 2.02981 
49 1 2.02833 2.03676 0.29772 
58 1 7.35464 5.61046 5.60989 
66 1 5.61048 7.35369 5.60991 
74 1 5.60938 5.60948 7.34892 
81 1 2.69265 2.69366 2.70135 
90 1 4.94232 4.94265 4.94046 
4 1 1.79371 1.8509 14.1142 
11 1 5.8275 5.8292 10.0695 
20 1 3.3943 3.39078 12.5013 
27 1 4.249 4.25103 11.6479 
36 1 0.263499 2.04371 13.8693 
46 1 2.01087 0.298573 14.0959 
56 1 2.0242 2.05998 15.6339 
59 1 7.35763 5.61065 10.2867 
69 1 5.6114 7.36052 10.2857 
79 1 5.61055 5.61083 8.53968 
84 1 2.69961 2.68889 13.1946 
91 1 4.9462 4.94781 10.9512 
6 1 1.81458 14.0847 1.81632 
13 1 5.82227 10.0769 5.82181 
22 1 3.3933 12.5036 3.39272 
29 1 4.24455 11.6516 4.24528 
38 1 0.277893 13.8732 2.0237 
48 1 2.02518 15.6161 2.0247 
52 1 2.02441 13.8732 0.294597 
61 1 7.35521 10.2863 5.61106 
71 1 5.61014 8.54446 5.61062 
75 1 5.6111 10.2861 7.35573 
86 1 2.69607 13.202 2.69626 
93 1 4.9428 10.9546 4.9428 
7 1 1.81115 14.0305 14.1244 
16 1 5.81662 10.0817 10.0782 
23 1 3.38702 12.511 12.5085 
32 1 4.23931 11.6639 11.6558 
39 1 0.283877 13.8547 13.883 
43 1 2.12315 15.6402 14.0996 
53 1 2.01529 13.8396 15.6267 
64 1 7.35316 10.2871 10.2863 
68 1 5.6092 8.5512 10.2877 
78 1 5.6108 10.2873 8.54596 
87 1 2.67423 13.1676 13.2317 
96 1 4.93565 10.9628 10.9602 
97 2 2.03726 15.5802 12.2156 
98 3 1.96862 15.5634 11.2744 
8 1 14.081 1.81379 1.81654 
15 1 10.0769 5.82066 5.81962 
24 1 12.5054 3.3924 3.39176 
31 1 11.6532 4.24319 4.24358 
40 1 15.6122 2.02501 2.02422 
44 1 13.8729 0.278769 2.02356 
54 1 13.8733 2.02462 0.28342 
63 1 8.54561 5.61022 5.6104 
67 1 10.2862 7.35539 5.61077 
77 1 10.2867 5.61049 7.35259 
88 1 13.2027 2.69398 2.69467 
95 1 10.9556 4.94094 4.94104 
5 1 14.0674 1.81157 14.0867 
14 1 10.0791 5.82118 10.0753 
21 1 12.5041 3.39392 12.5027 
30 1 11.6527 4.24452 11.6523 
37 1 15.5967 2.03089 13.8664 
47 1 13.8682 0.278787 13.8732 
51 1 13.8688 2.02443 15.6189 
62 1 8.54842 5.60928 10.2879 
72 1 10.2871 7.35542 10.2864 
76 1 10.2873 5.61057 8.54294 
85 1 13.1958 2.69363 13.2038 
94 1 10.9557 4.94243 10.9541 
3 1 14.0817 14.0851 1.81375 
12 1 10.0747 10.0752 5.82062 
19 1 12.5058 12.5056 3.39125 
28 1 11.6535 11.6533 4.24364 
35 1 15.6127 13.8731 2.02345 
45 1 13.8728 15.6141 2.02317 
55 1 13.8733 13.8743 0.281986 
60 1 8.54597 10.2856 5.61188 
70 1 10.2858 8.54612 5.61174 
80 1 10.2859 10.2857 7.35207 
83 1 13.2023 13.2037 2.69405 
92 1 10.9562 10.9561 4.94096 
2 1 14.0878 14.0834 14.0818 
9 1 10.0739 10.0751 10.0763 
18 1 12.5055 12.5055 12.5056 
25 1 11.6527 11.6527 11.6533 
34 1 15.6171 13.8806 13.8693 
42 1 13.8739 15.6144 13.8728 
50 1 13.8751 13.8743 15.6169 
57 1 8.54401 10.2858 10.2856 
65 1 10.2858 8.54645 10.2858 
73 1 10.2857 10.2859 8.54383 
82 1 13.2044 13.2024 13.2017 
89 1 10.955 10.9561 10.9556 
ITEM: TIMESTEP
51
ITEM: NUMBER OF ATOMS
98
ITEM: BOX BOUNDS pp pp pp
0.0000000000000000e+00 1.6524999999999999e+01
0.0000000000000000e+00 1.6526000000000000e+01
0.0000000000000000e+00 1.6526000000000000e+01
ITEM: ATOMS id type x y z 
1 1 1.81175 1.81386 1.82939 
10 1 5.82126 5.8221 5.81764 
17 1 3.39427 3.39362 3.39318 
26 1 4.24432 4.24403 4.24381 
33 1 0.278243 2.02496 2.02942 
41 1 2.0245 0.281021 2.02981 
49 1 2.02833 2.03676 0.29772 
58 1 7.35464 5.61046 5.60989 
66 1 5.61048 7.35369 5.60991 
74 1 5.60938 5.60948 7.34892 
81 1 2.69265 2.69366 2.70135 
90 1 4.94232 4.94265 4.94046 
4 1 1.79371 1.8509 14.1142 
11 1 5.8275 5.8292 10.0695 
20 1 3.3943 3.39078 12.5013 
27 1 4.249 4.25103 11.6479 
36 1 0.263499 2.04371 13.8693 
46 1 2.01087 0.298573 14.0959 
56 1 2.0242 2.05998 15.6339 
59 1 7.35763 5.61065 10.2867 
69 1 5.6114 7.36052 10.2857 
79 1 5.61055 5.61083 8.53968 
84 1 2.69961 2.68889 13.1946 
91 1 4.9462 4.94781 10.9512 
6 1 1.81458 14.0847 1.81632 
13 1 5.82227 10.0769 5.82181 
22 1 3.3933 12.5036 3.39272 
29 1 4.24455 11.6516 4.24528 
38 1 0.277893 13.8732 2.0237 
48 1 2.02518 15.6161 2.0247 
52 1 2.02441 13.8732 0.294597 
61 1 7.35521 10.2863 5.61106 
71 1 5.61014 8.54446 5.61062 
75 1 5.6111 10.2861 7.35573 
86 1 2.69607 13.202 2.69626 
93 1 4.9428 10.9546 4.9428 
7 1 1.81115 14.0305 14.1244 
16 1 5.81662 10.0817 10.0782 
23 1 3.38702 12.511 12.5085 
32 1 4.23931 11.6639 11.6558 
39 1 0.283877 13.8547 13.883 
43 1 2.12315 15.6402 14.0996 
53 1 2.01529 13.8396 15.6267 
64 1 7.35316 10.2871 10.2863 
68 1 5.6092 8.5512 10.2877 
78 1 5.6108 10.2873 8.54596 
87 1 2.67423 13.1676 13.2317 
96 1 4.93565 10.9628 10.9602 
97 2 2.03726 15.5802 12.2156 
98 3 1.96862 15.5634 11.2744 
8 1 14.081 1.81379 1.81654 
15 1 10.0769 5.82066 5.81962 
24 1 12.5054 3.3924 3.39176 
31 1 11.6532 4.24319 4.24358 
40 1 15.6122 2.02501 2.02422 
44 1 13.8729 0.278769 2.02356 
54 1 13.8733 2.02462 0.28342 
63 1 8.54561 5.61022 5.6104 
67 1 10.2862 7.35539 5.61077 
77 1 10.2867 5.61049 7.35259 
88 1 13.2027 2.69398 2.69467 
95 1 10.9556 4.94094 4.94104 
5 1 14.0674 1.81157 14.0867 
14 1 10.0791 5.82118 10.0753 
21 1 12.5041 3.39392 12.5027 
30 1 11.6527 4.24452 11.6523 
37 1 15.5967 2.03089 13.8664 
47 1 13.8682 0.278787 13.8732 
51 1 13.8688 2.02443 15.6189 
62 1 8.54842 5.60928 10.2879 
72 1 10.2871 7.35542 10.2864 
76 1 10.2873 5.61057 8.54294 
85 1 13.1958 2.69363 13.2038 
94 1 10.9557 4.94243 10.9541 
3 1 14.0817 14.0851 1.81375 
12 1 10.0747 10.0752 5.82062 
19 1 12.5058 12.5056 3.39125 
28 1 11.6535 11.6533 4.24364 
35 1 15.6127 13.8731 2.02345 
45 1 13.8728 15.6141 2.02317 
55 1 13.8733 13.8743 0.281986 
60 1 8.54597 10.2856 5.61188 
70 1 10.2858 8.54612 5.61174 
80 1 10.2859 10.2857 7.35207 
83 1 13.2023 13.2037 2.69405 
92 1 10.9562 10.9561 4.94096 
2 1 14.0878 14.0834 14.0818 
9 1 10.0739 10.0751 10.0763 
18 1 12.5055 12.5055 12.5056 
25 1 11.6527 11.6527 11.6533 
34 1 15.6171 13.8806 13.8693 
42 1 13.8739 15.6144 13.8728 
50 1 13.8751 13.8743 15.6169 
57 1 8.54401 10.2858 10.2856 
65 1 10.2858 8.54645 10.2858 
73 1 10.2857 10.2859 8.54383 
82 1 13.2044 13.2024 13.2017 
89 1 10.955 10.9561 10.9556 
ITEM: TIMESTEP
53
ITEM: NUMBER OF ATOMS
98
ITEM: BOX BOUNDS pp pp pp
0.0000000000000000e+00 1.6524999999999999e+01
0.0000000000000000e+00 1.6526000000000000e+01
0.0000000000000000e+00 1.6526000000000000e+01
ITEM: ATOMS id type x y z 
1 1 1.81174 1.81386 1.82939 
10 1 5.82126 5.82208 5.81764 
17 1 3.39427 3.39362 3.39319 
26 1 4.24432 4.24403 4.24381 
33 1 0.278214 2.02496 2.02942 
41 1 2.0245 0.281058 2.02981 
49 1 2.02833 2.03677 0.297693 
58 1 7.35465 5.61046 5.60989 
66 1 5.61048 7.35371 5.60991 
74 1 5.60938 5.60948 7.34895 
81 1 2.69265 2.69366 2.70135 
90 1 4.94232 4.94265 4.94046 
4 1 1.79374 1.85087 14.1142 
11 1 5.82751 5.82921 10.0695 
20 1 3.39429 3.39077 12.5013 
27 1 4.24899 4.25102 11.6479 
36 1 0.26349 2.04371 13.8693 
46 1 2.01087 0.298556 14.0959 
56 1 2.0242 2.05998 15.634 
59 1 7.35764 5.61066 10.2867 
69 1 5.6114 7.3605 10.2857 
79 1 5.61055 5.61083 8.53967 
84 1 2.6996 2.68889 13.1946 
91 1 4.94619 4.9478 10.9512 
6 1 1.81457 14.0847 1.81632 
13 1 5.82228 10.0769 5.82182 
22 1 3.3933 12.5036 3.39272 
29 1 4.24455 11.6516 4.24528 
38 1 0.277924 13.8732 2.0237 
48 1 2.02518 15.6161 2.0247 
52 1 2.0244 13.8732 0.294625 
61 1 7.35519 10.2863 5.61107 
71 1 5.61015 8.54448 5.61063 
75 1 5.61111 10.2861 7.35569 
86 1 2.69607 13.202 2.69626 
93 1 4.9428 10.9546 4.94281 
7 1 1.81116 14.0305 14.1244 
16 1 5.81661 10.0817 10.0782 
23 1 3.38701 12.511 12.5086 
32 1 4.23931 11.6639 11.6558 
39 1 0.283872 13.8547 13.883 
43 1 2.12312 15.6402 14.0996 
53 1 2.0153 13.8396 15.6267 
64 1 7.35313 10.2871 10.2863 
68 1 5.60919 8.55119 10.2877 
78 1 5.6108 10.2873 8.54597 
87 1 2.67424 13.1676 13.2317 
96 1 4.93565 10.9628 10.9602 
97 2 2.03725 15.5802 12.2156 
98 3 1.96862 15.5634 11.2744 
8 1 14.081 1.81377 1.81654 
15 1 10.0769 5.82067 5.81962 
24 1 12.5054 3.3924 3.39176 
31 1 11.6532 4.24318 4.24358 
40 1 15.6122 2.02501 2.02422 
44 1 13.8729 0.278782 2.02356 
54 1 13.8733 2.02462 0.283419 
63 1 8.5456 5.61022 5.6104 
67 1 10.2862 7.35538 5.61077 
77 1 10.2866 5.61049 7.35259 
88 1 13.2027 2.69398 2.69467 
95 1 10.9556 4.94094 4.94103 
5 1 14.0674 1.81157 14.0867 
14 1 10.0791 5.8212 10.0753 
21 1 12.5041 3.39392 12.5027 
30 1 11.6527 4.24452 11.6523 
37 1 15.5968 2.03088 13.8664 
47 1 13.8682 0.278781 13.8732 
51 1 13.8688 2.02443 15.6189 
62 1 8.54838 5.60928 10.2879 
72 1 10.2871 7.35541 10.2864 
76 1 10.2873 5.61056 8.54294 
85 1 13.1958 2.69364 13.2038 
94 1 10.9557 4.94244 10.9541 
3 1 14.0817 14.0851 1.81376 
12 1 10.0747 10.0752 5.82061 
19 1 12.5058 12.5056 3.39125 
28 1 11.6535 11.6533 4.24364 
35 1 15.6127 13.8731 2.02346 
45 1 13.8728 15.6141 2.02317 
55 1 13.8733 13.8743 0.281942 
60 1 8.54595 10.2856 5.61188 
70 1 10.2858 8.54609 5.61173 
80 1 10.2859 10.2857 7.35206 
83 1 13.2023 13.2037 2.69405 
92 1 10.9562 10.9561 4.94096 
2 1 14.0878 14.0834 14.0818 
9 1 10.0739 10.0752 10.0763 
18 1 12.5055 12.5055 12.5056 
25 1 11.6527 11.6527 11.6533 
34 1 15.6171 13.8806 13.8693 
42 1 13.8739 15.6144 13.8728 
50 1 13.8751 13.8743 15.6169 
57 1 8.54404 10.2858 10.2856 
65 1 10.2858 8.54643 10.2858 
73 1 10.2857 10.2859 8.54385 
82 1 13.2044 13.2024 13.2017 
89 1 10.955 10.9561 10.9556 
ITEM: TIMESTEP
54
ITEM: NUMBER OF ATOMS
98
ITEM: BOX BOUNDS pp pp pp
0.0000000000000000e+00 1.6524999999999999e+01
0.0000000000000000e+00 1.6526000000000000e+01
0.0000000000000000e+00 1.6526000000000000e+01
ITEM: ATOMS id type x y z 
1 1 1.81174 1.81386 1.82939 
10 1 5.82126 5.82208 5.81764 
17 1 3.39427 3.39362 3.39319 
26 1 4.24432 4.24403 4.24381 
33 1 0.278214 2.02496 2.02942 
41 1 2.0245 0.281058 2.02981 
49 1 2.02833 2.03677 0.297693 
58 1 7.35465 5.61046 5.60989 
66 1 5.61048 7.35371 5.60991 
74 1 5.60938 5.60948 7.34895 
81 1 2.69265 2.69366 2.70135 
90 1 4.94232 4.94265 4.94046 
4 1 1.79374 1.85087 14.1142 
11 1 5.82751 5.82921 10.0695 
20 1 3.39429 3.39077 12.5013 
27 1 4.24899 4.25102 11.6479 
36 1 0.26349 2.04371 13.8693 
46 1 2.01087 0.298556 14.0959 
56 1 2.0242 2.05998 15.634 
59 1 7.35764 5.61066 10.2867 
69 1 5.6114 7.3605 10.2857 
79 1 5.61055 5.61083 8.53967 
84 1 2.6996 2.68889 13.1946 
91 1 4.94619 4.9478 10.9512 
6 1 1.81457 14.0847 1.81632 
13 1 5.82228 10.0769 5.82182 
22 1 3.3933 12.5036 3.39272 
29 1 4.24455 11.6516 4.24528 
38 1 0.277924 13.8732 2.0237 
48 1 2.02518 15.6161 2.0247 
52 1 2.0244 13.8732 0.294625 
61 1 7.35519 10.2863 5.61107 
71 1 5.61015 8.54448 5.61063 
75 1 5.61111 10.2861 7.35569 
86 1 2.69607 13.202 2.69626 
93 1 4.9428 10.9546 4.94281 
7 1 1.81116 14.0305 14.1244 
16 1 5.81661 10.0817 10.0782 
23 1 3.38701 12.511 12.5086 
32 1 4.23931 11.6639 11.6558 
39 1 0.283872 13.8547 13.883 
43 1 2.12312 15.6402 14.0996 
53 1 2.0153 13.8396 15.6267 
64 1 7.35313 10.2871 10.2863 
68 1 5.60919 8.55119 10.2877 
78 1 5.6108 10.2873 8.54597 
87 1 2.67424 13.1676 13.2317 
96 1 4.93565 10.9628 10.9602 
97 2 2.03725 15.5802 12.2156 
98 3 1.96862 15.5634 11.2744 
8 1 14.081 1.81377 1.81654 
15 1 10.0769 5.82067 5.81962 
24 1 12.5054 3.3924 3.39176 
31 1 11.6532 4.24318 4.24358 
40 1 15.6122 2.02501 2.02422 
44 1 13.8729 0.278782 2.02356 
54 1 13.8733 2.02462 0.283419 
63 1 8.5456 5.61022 5.6104 
67 1 10.2862 7.35538 5.61077 
77 1 10.2866 5.61049 7.35259 
88 1 13.2027 2.69398 2.69467 
95 1 10.9556 4.94094 4.94103 
5 1 14.0674 1.81157 14.0867 
14 1 10.0791 5.8212 10.0753 
21 1 12.5041 3.39392 12.5027 
30 1 11.6527 4.24452 11.6523 
37 1 15.5968 2.03088 13.8664 
47 1 13.8682 0.278781 13.8732 
51 1 13.8688 2.02443 15.6189 
62 1 8.54838 5.60928 10.2879 
72 1 10.2871 7.35541 10.2864 
76 1 10.2873 5.61056 8.54294 
85 1 13.1958 2.69364 13.2038 
94 1 10.9557 4.94244 10.9541 
3 1 14.0817 14.0851 1.81376 
12 1 10.0747 10.0752 5.82061 
19 1 12.5058 12.5056 3.39125 
28 1 11.6535 11.6533 4.24364 
35 1 15.6127 13.8731 2.02346 
45 1 13.8728 15.6141 2.02317 
55 1 13.8733 13.8743 0.281942 
60 1 8.54595 10.2856 5.61188 
70 1 10.2858 8.54609 5.61173 
80 1 10.2859 10.2857 7.35206 
83 1 13.2023 13.2037 2.69405 
92 1 10.9562 10.9561 4.94096 
2 1 14.0878 14.0834 14.0818 
9 1 10.0739 10.0752 10.0763 
18 1 12.5055 12.5055 12.5056 
25 1 11.6527 11.6527 11.6533 
34 1 15.6171 13.8806 13.8693 
42 1 13.8739 15.6144 13.8728 
50 1 13.8751 13.8743 15.6169 
57 1 8.54404 10.2858 10.2856 
65 1 10.2858 8.54643 10.2858 
73 1 10.2857 10.2859 8.54385 
82 1 13.2044 13.2024 13.2017 
89 1 10.955 10.9561 10.9556 
ITEM: TIMESTEP
55
ITEM: NUMBER OF ATOMS
98
ITEM: BOX BOUNDS pp pp pp
0.0000000000000000e+00 1.6524999999999999e+01
0.0000000000000000e+00 1.6526000000000000e+01
0.0000000000000000e+00 1.6526000000000000e+01
ITEM: ATOMS id type x y z 
1 1 1.81174 1.81386 1.82939 
10 1 5.82126 5.82208 5.81764 
17 1 3.39427 3.39362 3.39319 
26 1 4.24432 4.24403 4.24381 
33 1 0.278214 2.02496 2.02942 
41 1 2.0245 0.281058 2.02981 
49 1 2.02833 2.03677 0.297693 
58 1 7.35465 5.61046 5.60989 
66 1 5.61048 7.35371 5.60991 
74 1 5.60938 5.60948 7.34895 
81 1 2.69265 2.69366 2.70135 
90 1 4.94232 4.94265 4.94046 
4 1 1.79374 1.85087 14.1142 
11 1 5.82751 5.82921 10.0695 
20 1 3.39429 3.39077 12.5013 
27 1 4.24899 4.25102 11.6479 
36 1 0.26349 2.04371 13.8693 
46 1 2.01087 0.298556 14.0959 
56 1 2.0242 2.05998 15.634 
59 1 7.35764 5.61066 10.2867 
69 1 5.6114 7.3605 10.2857 
79 1 5.61055 5.61083 8.53967 
84 1 2.6996 2.68889 13.1946 
91 1 4.94619 4.9478 10.9512 
6 1 1.81457 14.0847 1.81632 
13 1 5.82228 10.0769 5.82182 
22 1 3.3933 12.5036 3.39272 
29 1 4.24455 11.6516 4.24528 
38 1 0.277924 13.8732 2.0237 
48 1 2.02518 15.6161 2.0247 
52 1 2.0244 13.8732 0.294625 
61 1 7.35519 10.2863 5.61107 
71 1 5.61015 8.54448 5.61063 
75 1 5.61111 10.2861 7.35569 
86 1 2.69607 13.202 2.69626 
93 1 4.9428 10.9546 4.94281 
7 1 1.81116 14.0305 14.1244 
16 1 5.81661 10.0817 10.0782 
23 1 3.38701 12.511 12.5086 
32 1 4.23931 11.6639 11.6558 
39 1 0.283872 13.8547 13.883 
43 1 2.12312 15.6402 14.0996 
53 1 2.0153 13.8396 15.6267 
64 1 7.35313 10.2871 10.2863 
68 1 5.60919 8.55119 10.2877 
78 1 5.6108 10.2873 8.54597 
87 1 2.67424 13.1676 13.2317 
96 1 4.93565 10.9628 10.9602 
97 2 2.03725 15.5802 12.2156 
98 3 1.96862 15.5634 11.2744 
8 1 14.081 1.81377 1.81654 
15 1 10.0769 5.82067 5.81962 
24 1 12.5054 3.3924 3.39176 
31 1 11.6532 4.24318 4.24358 
40 1 15.6122 2.02501 2.02422 
44 1 13.8729 0.278782 2.02356 
54 1 13.8733 2.02462 0.283419 
63 1 8.5456 5.61022 5.6104 
67 1 10.2862 7.35538 5.61077 
77 1 10.2866 5.61049 7.35259 
88 1 13.2027 2.69398 2.69467 
95 1 10.9556 4.94094 4.94103 
5 1 14.0674 1.81157 14.0867 
14 1 10.0791 5.8212 10.0753 
21 1 12.5041 3.39392 12.5027 
30 1 11.6527 4.24452 11.6523 