ITEM: TIMESTEP
0
ITEM: NUMBER OF ATOMS
97
ITEM: BOX BOUNDS pp pp pp
0.0000000000000000e+00 1.6524999999999999e+01
0.0000000000000000e+00 1.6526000000000000e+01
0.0000000000000000e+00 1.6526000000000000e+01
ITEM: ATOMS id type x y z 
1 1 1.813 1.813 1.813 
10 1 5.821 5.821 5.821 
17 1 3.388 3.388 3.388 
26 1 4.246 4.246 4.246 
33 1 0.284 2 2 
41 1 2 0.284 2 
49 1 2 2 0.283 
58 1 7.351 5.634 5.634 
66 1 5.634 7.351 5.634 
74 1 5.634 5.634 7.351 
81 1 2.689 2.689 2.689 
90 1 4.945 4.945 4.945 
4 1 1.813 1.813 14.084 
11 1 5.821 5.821 10.076 
20 1 3.388 3.388 12.509 
27 1 4.246 4.246 11.651 
36 1 0.284 2 13.897 
46 1 2 0.284 13.897 
56 1 2 2 15.614 
59 1 7.351 5.634 10.263 
69 1 5.634 7.351 10.263 
79 1 5.634 5.634 8.546 
84 1 2.689 2.689 13.208 
91 1 4.945 4.945 10.952 
97 2 2.832 3.021 15.937 
6 1 1.813 14.084 1.813 
13 1 5.821 10.076 5.821 
22 1 3.388 12.509 3.388 
29 1 4.246 11.651 4.246 
38 1 0.284 13.897 2 
48 1 2 15.614 2 
52 1 2 13.897 0.283 
61 1 7.351 10.263 5.634 
71 1 5.634 8.546 5.634 
75 1 5.634 10.263 7.351 
86 1 2.689 13.208 2.689 
93 1 4.945 10.952 4.945 
7 1 1.813 14.084 14.084 
16 1 5.821 10.076 10.076 
23 1 3.388 12.509 12.509 
32 1 4.246 11.651 11.651 
39 1 0.284 13.897 13.897 
43 1 2 15.614 13.897 
53 1 2 13.897 15.614 
64 1 7.351 10.263 10.263 
68 1 5.634 8.547 10.263 
78 1 5.634 10.263 8.546 
87 1 2.689 13.208 13.208 
96 1 4.945 10.952 10.952 
8 1 14.084 1.813 1.813 
15 1 10.076 5.821 5.821 
24 1 12.509 3.388 3.388 
31 1 11.651 4.246 4.246 
40 1 15.613 2 2 
44 1 13.897 0.284 2 
54 1 13.897 2 0.283 
63 1 8.547 5.634 5.634 
67 1 10.263 7.351 5.634 
77 1 10.263 5.634 7.351 
88 1 13.208 2.689 2.689 
95 1 10.952 4.945 4.945 
5 1 14.084 1.813 14.084 
14 1 10.076 5.821 10.076 
21 1 12.509 3.388 12.509 
30 1 11.651 4.246 11.651 
37 1 15.613 2 13.897 
47 1 13.897 0.284 13.897 
51 1 13.897 2 15.614 
62 1 8.546 5.634 10.263 
72 1 10.263 7.351 10.263 
76 1 10.263 5.634 8.546 
85 1 13.208 2.689 13.208 
94 1 10.952 4.945 10.952 
3 1 14.084 14.084 1.813 
12 1 10.076 10.076 5.821 
19 1 12.509 12.509 3.388 
28 1 11.651 11.651 4.246 
35 1 15.613 13.897 2 
45 1 13.897 15.614 2 
55 1 13.897 13.897 0.283 
60 1 8.547 10.263 5.634 
70 1 10.263 8.547 5.634 
80 1 10.263 10.263 7.351 
83 1 13.208 13.208 2.689 
92 1 10.952 10.952 4.945 
2 1 14.084 14.084 14.084 
9 1 10.076 10.076 10.076 
18 1 12.509 12.509 12.509 
25 1 11.651 11.651 11.651 
34 1 15.613 13.897 13.897 
42 1 13.897 15.614 13.897 
50 1 13.897 13.897 15.614 
57 1 8.546 10.263 10.263 
65 1 10.263 8.546 10.263 
73 1 10.263 10.263 8.547 
82 1 13.208 13.208 13.208 
89 1 10.952 10.952 10.952 
ITEM: TIMESTEP
10
ITEM: NUMBER OF ATOMS
97
ITEM: BOX BOUNDS pp pp pp
0.0000000000000000e+00 1.6524999999999999e+01
0.0000000000000000e+00 1.6526000000000000e+01
0.0000000000000000e+00 1.6526000000000000e+01
ITEM: ATOMS id type x y z 
1 1 1.80588 1.80351 1.81573 
10 1 5.82089 5.82076 5.82078 
17 1 3.39338 3.39361 3.39333 
26 1 4.24527 4.24543 4.2454 
33 1 0.27326 2.00209 2.00415 
41 1 2.0022 0.273144 2.00399 
49 1 2.04473 2.05505 0.334276 
58 1 7.35249 5.63124 5.63126 
66 1 5.63124 7.35211 5.63129 
74 1 5.63127 5.63126 7.35221 
81 1 2.69648 2.69663 2.69896 
90 1 4.94259 4.94238 4.94235 
4 1 1.79337 1.7892 14.0323 
11 1 5.82053 5.82065 10.0765 
20 1 3.38673 3.38689 12.5116 
27 1 4.2424 4.24228 11.6547 
36 1 0.288521 1.99793 13.8923 
46 1 1.99809 0.287999 13.8924 
56 1 1.99429 1.99387 15.5386 
59 1 7.35158 5.63132 10.2657 
69 1 5.63131 7.35196 10.2657 
79 1 5.63132 5.63132 8.54536 
84 1 2.68618 2.6863 13.2034 
91 1 4.93878 4.93896 10.9583 
97 2 2.83636 3.0237 15.9878 
6 1 1.81406 14.0808 1.81393 
13 1 5.82057 10.0766 5.82042 
22 1 3.39119 12.5061 3.39116 
29 1 4.24306 11.6538 4.24317 
38 1 0.282219 13.894 2.0029 
48 1 2.00339 15.6105 2.00321 
52 1 2.00283 13.8939 0.280179 
61 1 7.35235 10.2657 5.63127 
71 1 5.63127 8.54519 5.63131 
75 1 5.63128 10.2657 7.3518 
86 1 2.69367 13.2028 2.69371 
93 1 4.94046 10.9567 4.94025 
7 1 1.81314 14.0874 14.0836 
16 1 5.82039 10.0767 10.0766 
23 1 3.39058 12.506 12.5065 
32 1 4.24302 11.654 11.654 
39 1 0.283614 13.8946 13.8947 
43 1 2.0034 15.6187 13.8966 
53 1 2.00229 13.8946 15.614 
64 1 7.35192 10.2658 10.2657 
68 1 5.63122 8.54516 10.2658 
78 1 5.63125 10.2658 8.54496 
87 1 2.69401 13.204 13.2029 
96 1 4.94023 10.9568 10.9568 
8 1 14.0803 1.81401 1.81389 
15 1 10.0767 5.82066 5.8205 
24 1 12.5061 3.39122 3.39121 
31 1 11.6538 4.2431 4.24317 
40 1 15.6115 2.0035 2.00327 
44 1 13.894 0.281978 2.00291 
54 1 13.8939 2.00286 0.280329 
63 1 8.54554 5.63128 5.6313 
67 1 10.2657 7.35229 5.63131 
77 1 10.2657 5.63133 7.35171 
88 1 13.2027 2.69363 2.69366 
95 1 10.9567 4.94043 4.94026 
5 1 14.0868 1.81321 14.0835 
14 1 10.0766 5.82035 10.0767 
21 1 12.5059 3.39066 12.5064 
30 1 11.6539 4.24305 11.654 
37 1 15.6188 2.00357 13.8965 
47 1 13.8945 0.283236 13.8946 
51 1 13.8945 2.00238 15.6141 
62 1 8.54481 5.63121 10.2658 
72 1 10.2658 7.35197 10.2658 
76 1 10.2658 5.63121 8.54487 
85 1 13.2039 2.69402 13.2029 
94 1 10.9568 4.94025 10.9567 
3 1 14.0833 14.0837 1.81346 
12 1 10.0766 10.0766 5.8207 
19 1 12.506 12.506 3.39095 
28 1 11.6538 11.6538 4.24308 
35 1 15.6137 13.8942 2.00276 
45 1 13.8943 15.6145 2.00273 
55 1 13.8943 13.8943 0.283104 
60 1 8.54551 10.2657 5.63134 
70 1 10.2657 8.54546 5.63134 
80 1 10.2657 10.2657 7.352 
83 1 13.2032 13.2032 2.69383 
92 1 10.9568 10.9568 4.94045 
2 1 14.0826 14.0829 14.0827 
9 1 10.0766 10.0766 10.0768 
18 1 12.506 12.5059 12.506 
25 1 11.654 11.654 11.654 
34 1 15.6162 13.8939 13.8941 
42 1 13.894 15.6168 13.8941 
50 1 13.8941 13.8941 15.615 
57 1 8.54507 10.2657 10.2658 
65 1 10.2657 8.54511 10.2658 
73 1 10.2658 10.2658 8.54514 
82 1 13.2032 13.2034 13.2032 
89 1 10.9568 10.9567 10.9568 
ITEM: TIMESTEP
20
ITEM: NUMBER OF ATOMS
97
ITEM: BOX BOUNDS pp pp pp
0.0000000000000000e+00 1.6524999999999999e+01
0.0000000000000000e+00 1.6526000000000000e+01
0.0000000000000000e+00 1.6526000000000000e+01
ITEM: ATOMS id type x y z 
1 1 1.80452 1.80065 1.81653 
10 1 5.8198 5.81943 5.81955 
17 1 3.39479 3.39541 3.39477 
26 1 4.24623 4.24614 4.24597 
33 1 0.270996 2.003 2.00677 
41 1 2.00327 0.270123 2.00637 
49 1 2.06522 2.08025 0.327977 
58 1 7.35285 5.62869 5.62874 
66 1 5.62871 7.35259 5.62875 
74 1 5.62877 5.62872 7.35287 
81 1 2.69662 2.69653 2.70332 
90 1 4.94334 4.9436 4.94362 
4 1 1.78767 1.78163 14.0237 
11 1 5.81839 5.81889 10.0786 
20 1 3.38665 3.38709 12.5131 
27 1 4.24098 4.24111 11.6564 
36 1 0.287192 1.99722 13.8861 
46 1 1.99778 0.285948 13.8861 
56 1 1.99479 1.9965 15.5233 
59 1 7.35201 5.62891 10.2681 
69 1 5.6289 7.35213 10.2681 
79 1 5.62887 5.6289 8.54603 
84 1 2.68314 2.6831 13.199 
91 1 4.93768 4.93737 10.9595 
97 2 2.84391 3.03075 16.0122 
6 1 1.81561 14.0767 1.81539 
13 1 5.81883 10.0787 5.81841 
22 1 3.39235 12.5054 3.39238 
29 1 4.24258 11.6546 4.24241 
38 1 0.281713 13.8912 2.00535 
48 1 2.00644 15.6073 2.00612 
52 1 2.00517 13.891 0.27918 
61 1 7.35222 10.2682 5.62877 
71 1 5.62877 8.54549 5.62879 
75 1 5.62882 10.2682 7.35213 
86 1 2.694 13.2014 2.69395 
93 1 4.93988 10.9569 4.94014 
7 1 1.81537 14.0873 14.0817 
16 1 5.81854 10.0784 10.0784 
23 1 3.39101 12.5052 12.506 
32 1 4.2423 11.6546 11.6547 
39 1 0.282653 13.8925 13.8924 
43 1 2.00636 15.617 13.896 
53 1 2.00459 13.8926 15.6135 
64 1 7.35205 10.2682 10.2682 
68 1 5.62878 8.54456 10.2682 
78 1 5.62879 10.2682 8.54488 
87 1 2.69458 13.2044 13.2025 
96 1 4.93981 10.9572 10.9572 
8 1 14.0761 1.81547 1.81531 
15 1 10.0787 5.81877 5.81832 
24 1 12.5054 3.39238 3.39239 
31 1 11.6545 4.24244 4.2423 
40 1 15.6085 2.00657 2.00618 
44 1 13.8912 0.281529 2.00533 
54 1 13.891 2.00518 0.279334 
63 1 8.54562 5.62875 5.62874 
67 1 10.2682 7.35241 5.6288 
77 1 10.2682 5.62883 7.35264 
88 1 13.2013 2.69387 2.69386 
95 1 10.9572 4.94003 4.94024 
5 1 14.0867 1.81534 14.0816 
14 1 10.0781 5.8183 10.0781 
21 1 12.5052 3.39108 12.5059 
30 1 11.6547 4.24228 11.6546 
37 1 15.618 2.00661 13.8961 
47 1 13.8925 0.282373 13.8923 
51 1 13.8926 2.00466 15.6135 
62 1 8.54449 5.62882 10.2682 
72 1 10.2682 7.35225 10.2682 
76 1 10.2682 5.62881 8.54478 
85 1 13.2043 2.6945 13.2025 
94 1 10.9571 4.93987 10.9574 
3 1 14.081 14.0814 1.81586 
12 1 10.0787 10.0787 5.81881 
19 1 12.5052 12.5052 3.39179 
28 1 11.6547 11.6547 4.24247 
35 1 15.6144 13.8917 2.00543 
45 1 13.8918 15.6152 2.00539 
55 1 13.8917 13.8917 0.280429 
60 1 8.54528 10.2682 5.62883 
70 1 10.2682 8.5452 5.62884 
80 1 10.2682 10.2682 7.35218 
83 1 13.2027 13.2029 2.69422 
92 1 10.957 10.957 4.93976 
2 1 14.0815 14.082 14.0823 
9 1 10.0785 10.0785 10.0786 
18 1 12.5056 12.5055 12.5053 
25 1 11.6548 11.6548 11.6547 
34 1 15.6157 13.8917 13.892 
42 1 13.8917 15.6164 13.892 
50 1 13.8919 13.8919 15.6141 
57 1 8.54481 10.2682 10.2683 
65 1 10.2682 8.54475 10.2683 
73 1 10.2683 10.2683 8.54527 
82 1 13.2027 13.2029 13.2033 
89 1 10.9572 10.9572 10.9573 
ITEM: TIMESTEP
30
ITEM: NUMBER OF ATOMS
97
ITEM: BOX BOUNDS pp pp pp
0.0000000000000000e+00 1.6524999999999999e+01
0.0000000000000000e+00 1.6526000000000000e+01
0.0000000000000000e+00 1.6526000000000000e+01
ITEM: ATOMS id type x y z 
1 1 1.79317 1.78853 1.82509 
10 1 5.81724 5.82004 5.82372 
17 1 3.39269 3.39399 3.39628 
26 1 4.24654 4.24979 4.24817 
33 1 0.27557 2.00142 2.01244 
41 1 2.00322 0.271448 2.01157 
49 1 2.11046 2.13683 0.314313 
58 1 7.35773 5.61889 5.61873 
66 1 5.61894 7.35687 5.61872 
74 1 5.61911 5.61894 7.35541 
81 1 2.69 2.68871 2.71635 
90 1 4.94843 4.94374 4.94453 
4 1 1.77311 1.76242 13.9909 
11 1 5.81636 5.81169 10.0843 
20 1 3.38625 3.38807 12.5168 
27 1 4.23986 4.23799 11.6597 
36 1 0.266522 1.99896 13.8586 
46 1 2.00183 0.261051 13.8584 
56 1 2.01974 2.03522 15.515 
59 1 7.35223 5.61931 10.2778 
69 1 5.61904 7.35487 10.2779 
79 1 5.61871 5.61895 8.54684 
84 1 2.67555 2.67438 13.1754 
91 1 4.93486 4.93782 10.9631 
97 2 2.89691 3.08595 16.0785 
6 1 1.81837 14.0634 1.817 
13 1 5.81568 10.0802 5.81575 
22 1 3.39482 12.5036 3.39531 
29 1 4.24114 11.6541 4.24339 
38 1 0.277167 13.879 2.01564 
48 1 2.0184 15.6066 2.01806 
52 1 2.01479 13.8783 0.277931 
61 1 7.35416 10.2779 5.61928 
71 1 5.61907 8.54808 5.61904 
75 1 5.61946 10.2779 7.35257 
86 1 2.69492 13.1971 2.6938 
93 1 4.94338 10.9577 4.9393 
7 1 1.82019 14.0846 14.0758 
16 1 5.81482 10.0793 10.0817 
23 1 3.3926 12.5038 12.5045 
32 1 4.2418 11.6557 11.6551 
39 1 0.280457 13.8838 13.8823 
43 1 2.01745 15.597 13.8892 
53 1 2.01506 13.8837 15.6152 
64 1 7.35527 10.2779 10.2779 
68 1 5.61923 8.54317 10.2777 
78 1 5.61916 10.278 8.54393 
87 1 2.69597 13.2047 13.2007 
96 1 4.93916 10.9558 10.958 
8 1 14.0646 1.81826 1.81622 
15 1 10.081 5.81695 5.81816 
24 1 12.5039 3.39459 3.39506 
31 1 11.6559 4.24188 4.24374 
40 1 15.6095 2.01828 2.0179 
44 1 13.8792 0.277718 2.01537 
54 1 13.8785 2.0145 0.27748 
63 1 8.5492 5.6193 5.61905 
67 1 10.2777 7.35173 5.61954 
77 1 10.2777 5.61956 7.35158 
88 1 13.1973 2.69438 2.69343 
95 1 10.9553 4.94155 4.93805 
5 1 14.0849 1.81981 14.076 
14 1 10.0817 5.82054 10.0834 
21 1 12.504 3.3923 12.505 
30 1 11.6546 4.24191 11.6563 
37 1 15.6021 2.01779 13.8897 
47 1 13.8839 0.280853 13.8824 
51 1 13.8839 2.01498 15.6163 
62 1 8.54061 5.61908 10.2772 
72 1 10.2774 7.34963 10.2775 
76 1 10.2773 5.61891 8.54339 
85 1 13.205 2.69544 13.2007 
94 1 10.958 4.93904 10.9559 
3 1 14.0772 14.0784 1.81348 
12 1 10.0795 10.0828 5.81647 
19 1 12.5049 12.5048 3.39389 
28 1 11.6545 11.6542 4.24056 
35 1 15.6131 13.8828 2.01561 
45 1 13.8829 15.6138 2.01552 
55 1 13.8824 13.8825 0.285349 
60 1 8.54459 10.2775 5.61923 
70 1 10.2777 8.54343 5.61945 
80 1 10.2779 10.2773 7.35312 
83 1 13.2008 13.2013 2.69244 
92 1 10.9581 10.9586 4.94263 
2 1 14.0767 14.0774 14.0742 
9 1 10.0806 10.0849 10.0806 
18 1 12.5038 12.5036 12.5056 
25 1 11.6559 11.6551 11.6558 
34 1 15.6168 13.8808 13.8824 
42 1 13.8808 15.6182 13.8824 
50 1 13.8812 13.8813 15.6212 
57 1 8.5439 10.2778 10.2782 
65 1 10.2781 8.53982 10.2783 
73 1 10.2783 10.2778 8.54292 
82 1 13.2035 13.2042 13.2005 
89 1 10.9569 10.9584 10.9571 
ITEM: TIMESTEP
37
ITEM: NUMBER OF ATOMS
97
ITEM: BOX BOUNDS pp pp pp
0.0000000000000000e+00 1.6524999999999999e+01
0.0000000000000000e+00 1.6526000000000000e+01
0.0000000000000000e+00 1.6526000000000000e+01
ITEM: ATOMS id type x y z 
1 1 1.79567 1.79092 1.82941 
10 1 5.8216 5.8225 5.82421 
17 1 3.39097 3.39232 3.39545 
26 1 4.24662 4.24919 4.24759 
33 1 0.272475 2.0014 2.01249 
41 1 2.00328 0.268628 2.01159 
49 1 2.1092 2.1359 0.326312 
58 1 7.35475 5.61901 5.61903 
66 1 5.6188 7.35465 5.61902 
74 1 5.61885 5.61904 7.35561 
81 1 2.6885 2.68723 2.71792 
90 1 4.94687 4.94322 4.94392 
4 1 1.7756 1.76549 13.9887 
11 1 5.81594 5.81509 10.0834 
20 1 3.38662 3.38853 12.516 
27 1 4.24161 4.24038 11.6583 
36 1 0.263434 2.00066 13.8567 
46 1 2.00374 0.258778 13.8565 
56 1 2.02941 2.04675 15.514 
59 1 7.35156 5.61866 10.278 
69 1 5.61898 7.35204 10.2781 
79 1 5.61854 5.6184 8.54698 
84 1 2.67569 2.67418 13.1724 
91 1 4.93662 4.93862 10.9618 
97 2 2.89849 3.08719 16.0764 
6 1 1.81628 14.069 1.8161 
13 1 5.81741 10.0815 5.81657 
22 1 3.39465 12.5038 3.39482 
29 1 4.2416 11.6543 4.24328 
38 1 0.280253 13.8786 2.0156 
48 1 2.01798 15.6037 2.01752 
52 1 2.01485 13.8778 0.280828 
61 1 7.35417 10.2783 5.6187 
71 1 5.61837 8.54542 5.61821 
75 1 5.61887 10.2784 7.35363 
86 1 2.69434 13.1972 2.69392 
93 1 4.94288 10.9573 4.93969 
7 1 1.81903 14.0794 14.0776 
16 1 5.81688 10.0789 10.0804 
23 1 3.3931 12.5037 12.504 
32 1 4.24235 11.6548 11.6547 
39 1 0.279184 13.8829 13.8816 
43 1 2.01853 15.5916 13.8869 
53 1 2.01583 13.8829 15.616 
64 1 7.3536 10.278 10.2782 
68 1 5.61876 8.54316 10.278 
78 1 5.61881 10.2782 8.54458 
87 1 2.69607 13.2038 13.2006 
96 1 4.93972 10.9558 10.9572 
8 1 14.0701 1.81578 1.81616 
15 1 10.082 5.81679 5.81723 
24 1 12.5042 3.39416 3.39434 
31 1 11.6557 4.2421 4.24342 
40 1 15.607 2.01778 2.0174 
44 1 13.8789 0.280394 2.01532 
54 1 13.8781 2.01469 0.280598 
63 1 8.54559 5.61844 5.61818 
67 1 10.2785 7.35458 5.61885 
77 1 10.2785 5.61865 7.35422 
88 1 13.1976 2.69389 2.69362 
95 1 10.9557 4.94136 4.9387 
5 1 14.0806 1.81876 14.078 
14 1 10.079 5.81767 10.0805 
21 1 12.504 3.3926 12.5046 
30 1 11.6542 4.24217 11.6556 
37 1 15.5973 2.01859 13.8875 
47 1 13.8832 0.279576 13.8817 
51 1 13.8831 2.01563 15.6153 
62 1 8.54289 5.61917 10.2777 
72 1 10.278 7.35241 10.2782 
76 1 10.2777 5.61893 8.54506 
85 1 13.2043 2.69572 13.2008 
94 1 10.9576 4.93963 10.9562 
3 1 14.0773 14.0784 1.81553 
12 1 10.0793 10.0801 5.81744 
19 1 12.5048 12.5046 3.39347 
28 1 11.6545 11.6542 4.24122 
35 1 15.6143 13.882 2.01615 
45 1 13.882 15.616 2.01602 
55 1 13.8815 13.8816 0.281439 
60 1 8.54462 10.2781 5.61895 
70 1 10.2779 8.54477 5.61919 
80 1 10.2782 10.2777 7.35324 
83 1 13.2011 13.2015 2.69289 
92 1 10.9577 10.9583 4.94219 
2 1 14.0784 14.0794 14.0793 
9 1 10.0805 10.0804 10.0796 
18 1 12.5043 12.5041 12.5055 
25 1 11.6556 11.655 11.6558 
34 1 15.6133 13.881 13.8821 
42 1 13.881 15.615 13.8822 
50 1 13.8814 13.8815 15.616 
57 1 8.54435 10.2783 10.2783 
65 1 10.2781 8.54397 10.2782 
73 1 10.2784 10.2781 8.54407 
82 1 13.2032 13.2038 13.201 
89 1 10.9572 10.9583 10.9568 
ITEM: TIMESTEP
40
ITEM: NUMBER OF ATOMS
97
ITEM: BOX BOUNDS pp pp pp
-3.0469350317219334e-04 1.6525304693503170e+01
-1.2393635998814393e-03 1.6527239363599882e+01
-3.2315884110947161e-04 1.6526323158841109e+01
ITEM: ATOMS id type x y z 
1 1 1.79543 1.78995 1.82919 
10 1 5.82151 5.82213 5.82411 
17 1 3.39078 3.39158 3.39525 
26 1 4.24647 4.24858 4.24743 
33 1 0.272166 2.00046 2.01225 
41 1 2.00304 0.26745 2.01134 
49 1 2.10897 2.13498 0.326032 
58 1 7.35472 5.61861 5.61892 
66 1 5.6187 7.35451 5.61892 
74 1 5.61875 5.61864 7.35561 
81 1 2.68829 2.68639 2.71771 
90 1 4.94674 4.94272 4.94379 
4 1 1.77537 1.76452 13.9889 
11 1 5.81586 5.81474 10.0834 
20 1 3.38644 3.3878 12.5162 
27 1 4.24146 4.23978 11.6584 
36 1 0.263147 1.99973 13.8569 
46 1 2.00352 0.257574 13.8567 
56 1 2.02921 2.04586 15.5143 
59 1 7.35159 5.61826 10.2781 
69 1 5.61889 7.35195 10.2782 
79 1 5.61844 5.618 8.54698 
84 1 2.67548 2.67334 13.1725 
91 1 4.9365 4.93813 10.9619 
97 2 2.89831 3.08642 16.0767 
6 1 1.81605 14.0699 1.81586 
13 1 5.81732 10.0818 5.81649 
22 1 3.39447 12.5044 3.39463 
29 1 4.24146 11.6549 4.24312 
38 1 0.279936 13.8795 2.01536 
48 1 2.01775 15.6048 2.01728 
52 1 2.01463 13.8787 0.280512 
61 1 7.35411 10.2786 5.61859 
71 1 5.61828 8.54547 5.61811 
75 1 5.61877 10.2787 7.35363 
86 1 2.69414 13.1979 2.6937 
93 1 4.94275 10.9577 4.93956 
7 1 1.81879 14.0802 14.0778 
16 1 5.8168 10.0792 10.0805 
23 1 3.39293 12.5044 12.5042 
32 1 4.2422 11.6553 11.6548 
39 1 0.27887 13.8837 13.8818 
43 1 2.0183 15.5926 13.8871 
53 1 2.0156 13.8837 15.6162 
64 1 7.35359 10.2783 10.2783 
68 1 5.61866 8.54314 10.2781 
78 1 5.61871 10.2785 8.54456 
87 1 2.69586 13.2046 13.2008 
96 1 4.9396 10.9562 10.9573 
8 1 14.0704 1.81482 1.81591 
15 1 10.082 5.81643 5.81715 
24 1 12.5044 3.39343 3.39415 
31 1 11.6558 4.2415 4.24327 
40 1 15.6073 2.01684 2.01716 
44 1 13.8791 0.279204 2.01508 
54 1 13.8783 2.01376 0.280264 
63 1 8.54562 5.61805 5.61807 
67 1 10.2786 7.35442 5.61875 
77 1 10.2785 5.61825 7.3542 
88 1 13.1978 2.69306 2.69341 
95 1 10.9558 4.94086 4.93857 
5 1 14.0808 1.81778 14.0782 
14 1 10.079 5.81731 10.0806 
21 1 12.5041 3.39187 12.5047 
30 1 11.6544 4.24157 11.6557 
37 1 15.5975 2.01765 13.8877 
47 1 13.8834 0.278378 13.882 
51 1 13.8833 2.01469 15.6156 
62 1 8.54284 5.61877 10.2778 
72 1 10.2781 7.35234 10.2783 
76 1 10.2778 5.61853 8.54505 
85 1 13.2045 2.69489 13.201 
94 1 10.9577 4.93914 10.9563 
3 1 14.0775 14.0793 1.81528 
12 1 10.0794 10.0804 5.81734 
19 1 12.5049 12.5053 3.39328 
28 1 11.6546 11.6547 4.24106 
35 1 15.6146 13.8829 2.01591 
45 1 13.8822 15.6171 2.01578 
55 1 13.8817 13.8824 0.281106 
60 1 8.54466 10.2784 5.61884 
70 1 10.278 8.54483 5.61908 
80 1 10.2783 10.278 7.3532 
83 1 13.2013 13.2023 2.69267 
92 1 10.9578 10.9587 4.94206 
2 1 14.0787 14.0803 14.0795 
9 1 10.0806 10.0807 10.0796 
18 1 12.5044 12.5047 12.5056 
25 1 11.6557 11.6556 11.6559 
34 1 15.6136 13.8818 13.8823 
42 1 13.8812 15.6161 13.8824 
50 1 13.8816 13.8823 15.6163 
57 1 8.54433 10.2786 10.2784 
65 1 10.2782 8.54396 10.2783 
73 1 10.2784 10.2785 8.5441 
82 1 13.2034 13.2045 13.2012 
89 1 10.9573 10.9587 10.9569 
ITEM: TIMESTEP
41
ITEM: NUMBER OF ATOMS
97
ITEM: BOX BOUNDS pp pp pp
-3.0469350317219334e-04 1.6525304693503170e+01
-1.2393635998814393e-03 1.6527239363599882e+01
-3.2315884110947161e-04 1.6526323158841109e+01
ITEM: ATOMS id type x y z 
1 1 1.79543 1.78995 1.82919 
10 1 5.82151 5.82213 5.82411 
17 1 3.39078 3.39158 3.39525 
26 1 4.24647 4.24858 4.24743 
33 1 0.272166 2.00046 2.01225 
41 1 2.00304 0.26745 2.01134 
49 1 2.10897 2.13498 0.326032 
58 1 7.35472 5.61861 5.61892 
66 1 5.6187 7.35451 5.61892 
74 1 5.61875 5.61864 7.35561 
81 1 2.68829 2.68639 2.71771 
90 1 4.94674 4.94272 4.94379 
4 1 1.77537 1.76452 13.9889 
11 1 5.81586 5.81474 10.0834 
20 1 3.38644 3.3878 12.5162 
27 1 4.24146 4.23978 11.6584 
36 1 0.263147 1.99973 13.8569 
46 1 2.00352 0.257574 13.8567 
56 1 2.02921 2.04586 15.5143 
59 1 7.35159 5.61826 10.2781 
69 1 5.61889 7.35195 10.2782 
79 1 5.61844 5.618 8.54698 
84 1 2.67548 2.67334 13.1725 
91 1 4.9365 4.93813 10.9619 
97 2 2.89831 3.08642 16.0767 
6 1 1.81605 14.0699 1.81586 
13 1 5.81732 10.0818 5.81649 
22 1 3.39447 12.5044 3.39463 
29 1 4.24146 11.6549 4.24312 
38 1 0.279936 13.8795 2.01536 
48 1 2.01775 15.6048 2.01728 
52 1 2.01463 13.8787 0.280512 
61 1 7.35411 10.2786 5.61859 
71 1 5.61828 8.54547 5.61811 
75 1 5.61877 10.2787 7.35363 
86 1 2.69414 13.1979 2.6937 
93 1 4.94275 10.9577 4.93956 
7 1 1.81879 14.0802 14.0778 
16 1 5.8168 10.0792 10.0805 
23 1 3.39293 12.5044 12.5042 
32 1 4.2422 11.6553 11.6548 
39 1 0.27887 13.8837 13.8818 
43 1 2.0183 15.5926 13.8871 
53 1 2.0156 13.8837 15.6162 
64 1 7.35359 10.2783 10.2783 
68 1 5.61866 8.54314 10.2781 
78 1 5.61871 10.2785 8.54456 
87 1 2.69586 13.2046 13.2008 
96 1 4.9396 10.9562 10.9573 
8 1 14.0704 1.81482 1.81591 
15 1 10.082 5.81643 5.81715 
24 1 12.5044 3.39343 3.39415 
31 1 11.6558 4.2415 4.24327 
40 1 15.6073 2.01684 2.01716 
44 1 13.8791 0.279204 2.01508 
54 1 13.8783 2.01376 0.280264 
63 1 8.54562 5.61805 5.61807 
67 1 10.2786 7.35442 5.61875 
77 1 10.2785 5.61825 7.3542 
88 1 13.1978 2.69306 2.69341 
95 1 10.9558 4.94086 4.93857 
5 1 14.0808 1.81778 14.0782 
14 1 10.079 5.81731 10.0806 
21 1 12.5041 3.39187 12.5047 
30 1 11.6544 4.24157 11.6557 
37 1 15.5975 2.01765 13.8877 
47 1 13.8834 0.278378 13.882 
51 1 13.8833 2.01469 15.6156 
62 1 8.54284 5.61877 10.2778 
72 1 10.2781 7.35234 10.2783 
76 1 10.2778 5.61853 8.54505 
85 1 13.2045 2.69489 13.201 
94 1 10.9577 4.93914 10.9563 
3 1 14.0775 14.0793 1.81528 
12 1 10.0794 10.0804 5.81734 
19 1 12.5049 12.5053 3.39328 
28 1 11.6546 11.6547 4.24106 
35 1 15.6146 13.8829 2.01591 
45 1 13.8822 15.6171 2.01578 
55 1 13.8817 13.8824 0.281106 
60 1 8.54466 10.2784 5.61884 
70 1 10.278 8.54483 5.61908 
80 1 10.2783 10.278 7.3532 
83 1 13.2013 13.2023 2.69267 
92 1 10.9578 10.9587 4.94206 
2 1 14.0787 14.0803 14.0795 
9 1 10.0806 10.0807 10.0796 
18 1 12.5044 12.5047 12.5056 
25 1 11.6557 11.6556 11.6559 
34 1 15.6136 13.8818 13.8823 
42 1 13.8812 15.6161 13.8824 
50 1 13.8816 13.8823 15.6163 
57 1 8.54433 10.2786 10.2784 
65 1 10.2782 8.54396 10.2783 
73 1 10.2784 10.2785 8.5441 
82 1 13.2034 13.2045 13.2012 
89 1 10.9573 10.9587 10.9569 
ITEM: TIMESTEP
42
ITEM: NUMBER OF ATOMS
97
ITEM: BOX BOUNDS pp pp pp
-3.0458346825792070e-04 1.6525304583468255e+01
-1.2392771959525838e-03 1.6527239277195953e+01
-3.2295709982141396e-04 1.6526322957099822e+01
ITEM: ATOMS id type x y z 
1 1 1.79543 1.78995 1.82919 
10 1 5.82151 5.82213 5.82411 
17 1 3.39078 3.39158 3.39525 
26 1 4.24647 4.24858 4.24743 
33 1 0.272166 2.00046 2.01225 
41 1 2.00304 0.26745 2.01134 
49 1 2.10897 2.13498 0.326032 
58 1 7.35472 5.61861 5.61892 
66 1 5.6187 7.35451 5.61892 
74 1 5.61875 5.61864 7.35561 
81 1 2.68829 2.68639 2.71771 
90 1 4.94674 4.94272 4.94379 
4 1 1.77537 1.76452 13.9889 
11 1 5.81586 5.81474 10.0834 
20 1 3.38644 3.3878 12.5162 
27 1 4.24146 4.23978 11.6584 
36 1 0.263147 1.99973 13.8569 
46 1 2.00352 0.257574 13.8567 
56 1 2.02921 2.04586 15.5143 
59 1 7.35159 5.61826 10.2781 
69 1 5.61889 7.35195 10.2782 
79 1 5.61844 5.618 8.54698 
84 1 2.67548 2.67334 13.1725 
91 1 4.9365 4.93813 10.9619 
97 2 2.89831 3.08642 16.0767 
6 1 1.81605 14.0699 1.81586 
13 1 5.81732 10.0818 5.81649 
22 1 3.39447 12.5044 3.39463 
29 1 4.24146 11.6548 4.24312 
38 1 0.279936 13.8795 2.01536 
48 1 2.01775 15.6048 2.01728 
52 1 2.01463 13.8787 0.280512 
61 1 7.35411 10.2786 5.61859 
71 1 5.61828 8.54547 5.61811 
75 1 5.61877 10.2787 7.35363 
86 1 2.69414 13.1979 2.6937 
93 1 4.94275 10.9577 4.93956 
7 1 1.81879 14.0802 14.0778 
16 1 5.8168 10.0792 10.0805 
23 1 3.39293 12.5044 12.5042 
32 1 4.2422 11.6553 11.6548 
39 1 0.27887 13.8837 13.8818 
43 1 2.0183 15.5926 13.8871 
53 1 2.0156 13.8837 15.6162 
64 1 7.35359 10.2783 10.2783 
68 1 5.61866 8.54314 10.2781 
78 1 5.61871 10.2785 8.54456 
87 1 2.69587 13.2046 13.2008 
96 1 4.9396 10.9562 10.9573 
8 1 14.0704 1.81482 1.81591 
15 1 10.082 5.81643 5.81715 
24 1 12.5044 3.39343 3.39415 
31 1 11.6558 4.2415 4.24327 
40 1 15.6073 2.01684 2.01716 
44 1 13.8791 0.279204 2.01508 
54 1 13.8783 2.01376 0.280265 
63 1 8.54562 5.61805 5.61807 
67 1 10.2786 7.35442 5.61875 
77 1 10.2785 5.61825 7.3542 
88 1 13.1978 2.69306 2.69341 
95 1 10.9558 4.94086 4.93857 
5 1 14.0808 1.81778 14.0782 
14 1 10.079 5.81731 10.0806 
21 1 12.5041 3.39187 12.5047 
30 1 11.6544 4.24157 11.6557 
37 1 15.5975 2.01765 13.8877 
47 1 13.8834 0.278378 13.882 
51 1 13.8833 2.01469 15.6156 
62 1 8.54284 5.61877 10.2778 
72 1 10.2781 7.35234 10.2783 
76 1 10.2778 5.61853 8.54505 
85 1 13.2045 2.69489 13.201 
94 1 10.9577 4.93914 10.9563 
3 1 14.0775 14.0793 1.81528 
12 1 10.0794 10.0804 5.81734 
19 1 12.5049 12.5053 3.39328 
28 1 11.6546 11.6547 4.24106 
35 1 15.6146 13.8829 2.01591 
45 1 13.8822 15.6171 2.01578 
55 1 13.8817 13.8824 0.281106 
60 1 8.54466 10.2784 5.61884 
70 1 10.278 8.54483 5.61908 
80 1 10.2783 10.278 7.3532 
83 1 13.2013 13.2023 2.69267 
92 1 10.9578 10.9587 4.94206 
2 1 14.0787 14.0803 14.0795 
9 1 10.0806 10.0807 10.0796 
18 1 12.5044 12.5047 12.5056 
25 1 11.6557 11.6556 11.6559 
34 1 15.6136 13.8818 13.8823 
42 1 13.8812 15.6161 13.8824 
50 1 13.8816 13.8823 15.6163 
57 1 8.54433 10.2786 10.2784 
65 1 10.2782 8.54396 10.2783 
73 1 10.2784 10.2785 8.5441 
82 1 13.2034 13.2045 13.2012 
89 1 10.9573 10.9587 10.9569 
ITEM: TIMESTEP
43
ITEM: NUMBER OF ATOMS
97
ITEM: BOX BOUNDS pp pp pp
-3.0458346825792070e-04 1.6525304583468255e+01
-1.2392771959525838e-03 1.6527239277195953e+01
-3.2295709982141396e-04 1.6526322957099822e+01
ITEM: ATOMS id type x y z 
1 1 1.79543 1.78995 1.82919 
10 1 5.82151 5.82213 5.82411 
17 1 3.39078 3.39158 3.39525 
26 1 4.24647 4.24858 4.24743 
33 1 0.272166 2.00046 2.01225 
41 1 2.00304 0.26745 2.01134 
49 1 2.10897 2.13498 0.326032 
58 1 7.35472 5.61861 5.61892 
66 1 5.6187 7.35451 5.61892 
74 1 5.61875 5.61864 7.35561 
81 1 2.68829 2.68639 2.71771 
90 1 4.94674 4.94272 4.94379 
4 1 1.77537 1.76452 13.9889 
11 1 5.81586 5.81474 10.0834 
20 1 3.38644 3.3878 12.5162 
27 1 4.24146 4.23978 11.6584 
36 1 0.263147 1.99973 13.8569 
46 1 2.00352 0.257574 13.8567 
56 1 2.02921 2.04586 15.5143 
59 1 7.35159 5.61826 10.2781 
69 1 5.61889 7.35195 10.2782 
79 1 5.61844 5.618 8.54698 
84 1 2.67548 2.67334 13.1725 
91 1 4.9365 4.93813 10.9619 
97 2 2.89831 3.08642 16.0767 
6 1 1.81605 14.0699 1.81586 
13 1 5.81732 10.0818 5.81649 
22 1 3.39447 12.5044 3.39463 
29 1 4.24146 11.6548 4.24312 
38 1 0.279936 13.8795 2.01536 
48 1 2.01775 15.6048 2.01728 
52 1 2.01463 13.8787 0.280512 
61 1 7.35411 10.2786 5.61859 
71 1 5.61828 8.54547 5.61811 
75 1 5.61877 10.2787 7.35363 
86 1 2.69414 13.1979 2.6937 
93 1 4.94275 10.9577 4.93956 
7 1 1.81879 14.0802 14.0778 
16 1 5.8168 10.0792 10.0805 
23 1 3.39293 12.5044 12.5042 
32 1 4.2422 11.6553 11.6548 
39 1 0.27887 13.8837 13.8818 
43 1 2.0183 15.5926 13.8871 
53 1 2.0156 13.8837 15.6162 
64 1 7.35359 10.2783 10.2783 
68 1 5.61866 8.54314 10.2781 
78 1 5.61871 10.2785 8.54456 
87 1 2.69587 13.2046 13.2008 
96 1 4.9396 10.9562 10.9573 
8 1 14.0704 1.81482 1.81591 
15 1 10.082 5.81643 5.81715 
24 1 12.5044 3.39343 3.39415 
31 1 11.6558 4.2415 4.24327 
40 1 15.6073 2.01684 2.01716 
44 1 13.8791 0.279204 2.01508 
54 1 13.8783 2.01376 0.280265 
63 1 8.54562 5.61805 5.61807 
67 1 10.2786 7.35442 5.61875 
77 1 10.2785 5.61825 7.3542 
88 1 13.1978 2.69306 2.69341 
95 1 10.9558 4.94086 4.93857 
5 1 14.0808 1.81778 14.0782 
14 1 10.079 5.81731 10.0806 
21 1 12.5041 3.39187 12.5047 
30 1 11.6544 4.24157 11.6557 
37 1 15.5975 2.01765 13.8877 
47 1 13.8834 0.278378 13.882 
51 1 13.8833 2.01469 15.6156 
62 1 8.54284 5.61877 10.2778 
72 1 10.2781 7.35234 10.2783 
76 1 10.2778 5.61853 8.54505 
85 1 13.2045 2.69489 13.201 
94 1 10.9577 4.93914 10.9563 
3 1 14.0775 14.0793 1.81528 
12 1 10.0794 10.0804 5.81734 
19 1 12.5049 12.5053 3.39328 
28 1 11.6546 11.6547 4.24106 
35 1 15.6146 13.8829 2.01591 
45 1 13.8822 15.6171 2.01578 
55 1 13.8817 13.8824 0.281106 
60 1 8.54466 10.2784 5.61884 
70 1 10.278 8.54483 5.61908 
80 1 10.2783 10.278 7.3532 
83 1 13.2013 13.2023 2.69267 
92 1 10.9578 10.9587 4.94206 
2 1 14.0787 14.0803 14.0795 
9 1 10.0806 10.0807 10.0796 
18 1 12.5044 12.5047 12.5056 
25 1 11.6557 11.6556 11.6559 
34 1 15.6136 13.8818 13.8823 
42 1 13.8812 15.6161 13.8824 
50 1 13.8816 13.8823 15.6163 
57 1 8.54433 10.2786 10.2784 
65 1 10.2782 8.54396 10.2783 
73 1 10.2784 10.2785 8.5441 
82 1 13.2034 13.2045 13.2012 
89 1 10.9573 10.9587 10.9569 
