LAMMPS (3 Mar 2020)
Reading data file ...
  triclinic box = (0 0 0) to (15.77 13.6581 25.747) with tilt (7.8845 0 0)
  2 by 2 by 2 MPI processor grid
  reading atoms ...
  130 atoms
  read_data CPU = 0.00846535 secs
WARNING: Using 'neigh_modify every 1 delay 0 check yes' setting during minimization (../min.cpp:190)
WARNING: Total cutoff < 2*bond cutoff. May need to use an increased neighbor list skin. (../pair_reaxc.cpp:413)
Neighbor list info ...
  update every 1 steps, delay 0 steps, check yes
  max neighbors/atom: 2000, page size: 100000
  master list distance cutoff = 9.5
  ghost atom cutoff = 9.5
  binsize = 4.75, bins = 5 3 6
  2 neighbor lists, perpetual/occasional/extra = 2 0 0
  (1) pair reax/c, perpetual
      attributes: half, newton off, ghost
      pair build: half/bin/newtoff/ghost
      stencil: half/ghost/bin/3d/newtoff
      bin: standard
  (2) fix qeq/reax, perpetual, copy from (1)
      attributes: half, newton off, ghost
      pair build: copy
      stencil: none
      bin: none
Setting up cg style minimization ...
  Unit style    : real
  Current step  : 0
Per MPI rank memory allocation (min/avg/max) = 16.34 | 16.89 | 17.48 Mbytes
Step Temp E_pair E_mol TotEng Press 
       0            0   -19484.275            0   -19484.275    51912.135 
     367            0   -21953.884            0   -21953.884    4379.6686 
Loop time of 35.2093 on 8 procs for 367 steps with 130 atoms

98.8% CPU use with 8 MPI tasks x no OpenMP threads

Minimization stats:
  Stopping criterion = energy tolerance
  Energy initial, next-to-last, final = 
        -19484.2748665     -21953.8834884      -21953.883696
  Force two-norm initial, final = 5135.94 59.6662
  Force max component initial, final = 1201.25 20.317
  Final line search alpha, max atom move = 0.000274825 0.00558363
  Iterations, force evaluations = 367 2437

MPI task timing breakdown:
Section |  min time  |  avg time  |  max time  |%varavg| %total
---------------------------------------------------------------
Pair    | 21.739     | 24.852     | 26.599     |  36.7 | 70.58
Neigh   | 0.001611   | 0.0017688  | 0.0019192  |   0.3 |  0.01
Comm    | 0.35454    | 2.1035     | 5.2199     | 126.3 |  5.97
Output  | 0.006298   | 0.0080651  | 0.011225   |   1.7 |  0.02
Modify  | 8.1602     | 8.1622     | 8.164      |   0.1 | 23.18
Other   |            | 0.08199    |            |       |  0.23

Nlocal:    16.25 ave 39 max 2 min
Histogram: 3 1 0 0 2 0 0 0 1 1
Nghost:    475.5 ave 520 max 422 min
Histogram: 2 1 1 0 0 0 0 0 0 4
Neighs:    1151.12 ave 2591 max 165 min
Histogram: 3 1 0 0 1 1 0 0 0 2

Total # of neighbors = 9209
Ave neighs/atom = 70.8385
Neighbor list builds = 1
Dangerous builds = 0
WARNING: Using 'neigh_modify every 1 delay 0 check yes' setting during minimization (../min.cpp:190)
WARNING: Total cutoff < 2*bond cutoff. May need to use an increased neighbor list skin. (../pair_reaxc.cpp:413)
Setting up cg style minimization ...
  Unit style    : real
  Current step  : 367
Per MPI rank memory allocation (min/avg/max) = 16.34 | 16.89 | 17.48 Mbytes
Step Temp E_pair E_mol TotEng Press 
     367            0   -21953.884            0   -21953.884    4379.6686 
     422            0   -21956.828            0   -21956.828    5108.8828 
Loop time of 6.37869 on 8 procs for 55 steps with 130 atoms

98.8% CPU use with 8 MPI tasks x no OpenMP threads

Minimization stats:
  Stopping criterion = energy tolerance
  Energy initial, next-to-last, final = 
         -21953.883696     -21956.8275208     -21956.8275308
  Force two-norm initial, final = 59.6662 46.5255
  Force max component initial, final = 20.317 15.8244
  Final line search alpha, max atom move = 4.93436e-05 0.000780834
  Iterations, force evaluations = 55 434

MPI task timing breakdown:
Section |  min time  |  avg time  |  max time  |%varavg| %total
---------------------------------------------------------------
Pair    | 4.0479     | 4.5365     | 4.9128     |  13.7 | 71.12
Neigh   | 0          | 0          | 0          |   0.0 |  0.00
Comm    | 0.039555   | 0.41565    | 0.90537    |  45.4 |  6.52
Output  | 0.0011052  | 0.0013821  | 0.0018751  |   0.6 |  0.02
Modify  | 1.4105     | 1.4107     | 1.4109     |   0.0 | 22.12
Other   |            | 0.01451    |            |       |  0.23

Nlocal:    16.25 ave 40 max 2 min
Histogram: 2 2 0 1 1 0 0 0 1 1
Nghost:    474.25 ave 516 max 422 min
Histogram: 2 1 1 0 0 0 0 0 0 4
Neighs:    1149.12 ave 2648 max 166 min
Histogram: 2 2 0 0 1 1 0 0 1 1

Total # of neighbors = 9193
Ave neighs/atom = 70.7154
Neighbor list builds = 0
Dangerous builds = 0
WARNING: Using 'neigh_modify every 1 delay 0 check yes' setting during minimization (../min.cpp:190)
WARNING: Total cutoff < 2*bond cutoff. May need to use an increased neighbor list skin. (../pair_reaxc.cpp:413)
Setting up cg style minimization ...
  Unit style    : real
  Current step  : 422
WARNING: Energy due to 3 extra global DOFs will be included in minimizer energies
Per MPI rank memory allocation (min/avg/max) = 16.34 | 16.89 | 17.48 Mbytes
Step Temp E_pair E_mol TotEng Press Volume 
     422            0   -21956.828            0   -21956.828    5108.8828    5545.5955 
     440            0   -21957.055            0   -21957.055    47.273511    5546.7957 
Loop time of 0.803563 on 8 procs for 18 steps with 130 atoms

98.9% CPU use with 8 MPI tasks x no OpenMP threads

Minimization stats:
  Stopping criterion = energy tolerance
  Energy initial, next-to-last, final = 
        -21956.8275308     -21957.0547673      -21957.054971
  Force two-norm initial, final = 835.267 188.909
  Force max component initial, final = 595.379 109.648
  Final line search alpha, max atom move = 1.41954e-08 1.5565e-06
  Iterations, force evaluations = 18 60

MPI task timing breakdown:
Section |  min time  |  avg time  |  max time  |%varavg| %total
---------------------------------------------------------------
Pair    | 0.56604    | 0.63607    | 0.68794    |   5.2 | 79.16
Neigh   | 0          | 0          | 0          |   0.0 |  0.00
Comm    | 0.0050586  | 0.056897   | 0.12706    |  17.6 |  7.08
Output  | 0.00017901 | 0.00022671 | 0.00030599 |   0.0 |  0.03
Modify  | 0.10523    | 0.10525    | 0.10527    |   0.0 | 13.10
Other   |            | 0.005126   |            |       |  0.64

Nlocal:    16.25 ave 40 max 2 min
Histogram: 3 1 0 1 1 0 0 0 1 1
Nghost:    473.25 ave 516 max 420 min
Histogram: 2 1 1 0 0 0 0 0 0 4
Neighs:    1150.12 ave 2648 max 165 min
Histogram: 3 1 0 0 1 1 0 0 1 1

Total # of neighbors = 9201
Ave neighs/atom = 70.7769
Neighbor list builds = 0
Dangerous builds = 0
WARNING: Using 'neigh_modify every 1 delay 0 check yes' setting during minimization (../min.cpp:190)
WARNING: Total cutoff < 2*bond cutoff. May need to use an increased neighbor list skin. (../pair_reaxc.cpp:413)
Setting up cg style minimization ...
  Unit style    : real
  Current step  : 440
Per MPI rank memory allocation (min/avg/max) = 16.34 | 16.89 | 17.48 Mbytes
Step Temp E_pair E_mol TotEng Press 
     440            0   -21957.055            0   -21957.055    47.273511 
     550            0   -21963.533            0   -21963.533    2723.1943 
Loop time of 12.5066 on 8 procs for 110 steps with 130 atoms

98.8% CPU use with 8 MPI tasks x no OpenMP threads

Minimization stats:
  Stopping criterion = energy tolerance
  Energy initial, next-to-last, final = 
         -21957.054971     -21963.5330532     -21963.5331429
  Force two-norm initial, final = 127.357 55.6308
  Force max component initial, final = 19.5557 21.7703
  Final line search alpha, max atom move = 7.32333e-05 0.00159431
  Iterations, force evaluations = 110 851

MPI task timing breakdown:
Section |  min time  |  avg time  |  max time  |%varavg| %total
---------------------------------------------------------------
Pair    | 7.908      | 8.8553     | 9.5631     |  19.3 | 70.81
Neigh   | 0          | 0          | 0          |   0.0 |  0.00
Comm    | 0.079086   | 0.78684    | 1.7364     |  64.7 |  6.29
Output  | 0.0018326  | 0.0023136  | 0.0031013  |   0.8 |  0.02
Modify  | 2.8339     | 2.8342     | 2.8344     |   0.0 | 22.66
Other   |            | 0.02796    |            |       |  0.22

Nlocal:    16.25 ave 40 max 2 min
Histogram: 3 1 0 1 1 0 0 0 1 1
Nghost:    474.25 ave 516 max 422 min
Histogram: 2 1 1 0 0 0 0 0 0 4
Neighs:    1148.62 ave 2645 max 165 min
Histogram: 3 1 0 0 1 1 0 0 1 1

Total # of neighbors = 9189
Ave neighs/atom = 70.6846
Neighbor list builds = 0
Dangerous builds = 0
WARNING: Using 'neigh_modify every 1 delay 0 check yes' setting during minimization (../min.cpp:190)
WARNING: Total cutoff < 2*bond cutoff. May need to use an increased neighbor list skin. (../pair_reaxc.cpp:413)
Setting up cg style minimization ...
  Unit style    : real
  Current step  : 550
WARNING: Energy due to 3 extra global DOFs will be included in minimizer energies
Per MPI rank memory allocation (min/avg/max) = 16.34 | 16.89 | 17.48 Mbytes
Step Temp E_pair E_mol TotEng Press Volume 
     550            0   -21963.533            0   -21963.533    2723.1943    5546.7957 
     560            0   -21963.593            0   -21963.593   -598.61455    5547.4811 
Loop time of 0.571179 on 8 procs for 10 steps with 130 atoms

98.8% CPU use with 8 MPI tasks x no OpenMP threads

Minimization stats:
  Stopping criterion = linesearch alpha is zero
  Energy initial, next-to-last, final = 
        -21963.5331429     -21963.5930235     -21963.5930235
  Force two-norm initial, final = 446.315 138.91
  Force max component initial, final = 341.727 113.839
  Final line search alpha, max atom move = 4.67786e-13 5.32522e-11
  Iterations, force evaluations = 10 42

MPI task timing breakdown:
Section |  min time  |  avg time  |  max time  |%varavg| %total
---------------------------------------------------------------
Pair    | 0.40674    | 0.45556    | 0.48954    |   4.1 | 79.76
Neigh   | 0          | 0          | 0          |   0.0 |  0.00
Comm    | 0.0041499  | 0.038112   | 0.087047   |  14.3 |  6.67
Output  | 0          | 0          | 0          |   0.0 |  0.00
Modify  | 0.073786   | 0.073794   | 0.073807   |   0.0 | 12.92
Other   |            | 0.003715   |            |       |  0.65

Nlocal:    16.25 ave 41 max 2 min
Histogram: 3 1 0 1 1 0 0 0 1 1
Nghost:    475.75 ave 520 max 421 min
Histogram: 1 2 0 1 0 0 0 0 0 4
Neighs:    1145.38 ave 2696 max 166 min
Histogram: 3 1 0 1 1 0 0 0 1 1

Total # of neighbors = 9163
Ave neighs/atom = 70.4846
Neighbor list builds = 0
Dangerous builds = 0
WARNING: Using 'neigh_modify every 1 delay 0 check yes' setting during minimization (../min.cpp:190)
WARNING: Total cutoff < 2*bond cutoff. May need to use an increased neighbor list skin. (../pair_reaxc.cpp:413)
Setting up cg style minimization ...
  Unit style    : real
  Current step  : 560
Per MPI rank memory allocation (min/avg/max) = 16.34 | 16.89 | 17.48 Mbytes
Step Temp E_pair E_mol TotEng Press 
     560            0   -21963.593            0   -21963.593   -598.61455 
     564            0   -21963.639            0   -21963.639    2634.2092 
Loop time of 0.583595 on 8 procs for 4 steps with 130 atoms

98.9% CPU use with 8 MPI tasks x no OpenMP threads

Minimization stats:
  Stopping criterion = energy tolerance
  Energy initial, next-to-last, final = 
        -21963.5930235     -21963.6392434     -21963.6394204
  Force two-norm initial, final = 75.3686 40.3636
  Force max component initial, final = 15.2045 12.295
  Final line search alpha, max atom move = 6.27933e-05 0.000772041
  Iterations, force evaluations = 4 39

MPI task timing breakdown:
Section |  min time  |  avg time  |  max time  |%varavg| %total
---------------------------------------------------------------
Pair    | 0.37426    | 0.42111    | 0.45223    |   4.1 | 72.16
Neigh   | 0          | 0          | 0          |   0.0 |  0.00
Comm    | 0.0043521  | 0.035455   | 0.082401   |  14.0 |  6.08
Output  | 0          | 0          | 0          |   0.0 |  0.00
Modify  | 0.12545    | 0.12546    | 0.12547    |   0.0 | 21.50
Other   |            | 0.001569   |            |       |  0.27

Nlocal:    16.25 ave 41 max 2 min
Histogram: 3 1 0 1 1 0 0 0 1 1
Nghost:    475.75 ave 520 max 421 min
Histogram: 1 2 0 1 0 0 0 0 0 4
Neighs:    1145.12 ave 2696 max 166 min
Histogram: 3 1 0 1 1 0 0 0 1 1

Total # of neighbors = 9161
Ave neighs/atom = 70.4692
Neighbor list builds = 0
Dangerous builds = 0
WARNING: Total cutoff < 2*bond cutoff. May need to use an increased neighbor list skin. (../pair_reaxc.cpp:413)
Setting up Verlet run ...
  Unit style    : real
  Current step  : 0
  Time step     : 0.25
Per MPI rank memory allocation (min/avg/max) = 15.23 | 15.78 | 16.37 Mbytes
Step Temp TotEng KinEng PotEng Press 
       0          300   -21848.282    115.35735   -21963.639    3584.7753 
     200    209.00541    -21807.18    80.367699   -21887.547   -2592.3611 
     400    271.29396   -21746.118    104.31917   -21850.437    10759.375 
     600    344.98016    -21721.33    132.65332   -21853.984   -24806.857 
     800     280.7214   -21747.751    107.94425   -21855.695    5266.9334 
    1000    294.69369   -21732.708    113.31694   -21846.025     -3187.62 
    1200    338.96545   -21725.208    130.34052   -21855.549    5690.9091 
    1400     288.5374    -21749.52     110.9497    -21860.47   -16194.724 
    1600    328.36084   -21735.658    126.26279   -21861.921    -12904.69 
    1800    317.82673   -21735.514    122.21216   -21857.726    3063.8033 
    2000    313.22905   -21754.365    120.44424    -21874.81    3813.0189 
    2200    328.70586   -21744.657    126.39546   -21871.052    29263.849 
    2400    299.10498   -21746.988    115.01319   -21862.001   -20670.318 
    2600    274.77988   -21768.547    105.65959   -21874.206    17212.673 
    2800    294.65401   -21746.292    113.30168   -21859.594    16375.507 
    3000    309.75319   -21748.146    119.10769   -21867.253   -439.90465 
    3200     318.3097    -21769.08    122.39788   -21891.478   -7759.7987 
    3400    245.45854   -21786.056     94.38482   -21880.441   -18601.984 
    3600    275.51993    -21760.97    105.94416   -21866.914    13138.705 
    3800    335.00164   -21748.753    128.81634   -21877.569    10004.382 
    4000    316.59911   -21746.545    121.74011   -21868.285   -4334.6893 
    4200    290.21343   -21764.192    111.59417   -21875.786   -8466.2108 
    4400    272.76385   -21770.323    104.88438   -21875.208   -19969.107 
    4600    303.11999   -21746.463    116.55706    -21863.02    6480.8777 
    4800    278.52277    -21765.72    107.09883   -21872.819    -9987.649 
    5000    305.58348   -21755.263    117.50433   -21872.768   -16406.907 
    5200    342.78339   -21739.458    131.80861   -21871.267   -10508.889 
    5400    300.38934   -21763.896    115.50706   -21879.403   -9065.1606 
    5600    296.53203   -21754.724    114.02383   -21868.748   -7961.8453 
    5800    332.22242   -21737.773    127.74766    -21865.52   -4512.0994 
    6000    283.43578    -21761.83      108.988   -21870.818   -487.88193 
    6200    335.83905   -21741.831    129.13834    -21870.97    3316.3563 
    6400     342.4777   -21732.767    131.69107   -21864.458    1944.8296 
    6600    308.30482   -21759.268    118.55076   -21877.819    5978.1303 
    6800    286.75727   -21764.076    110.26519   -21874.341    15672.338 
    7000    330.59424   -21735.284    127.12158   -21862.405    4037.9104 
    7200     306.1679   -21756.337    117.72906   -21874.066    17032.795 
    7400    287.40003   -21758.421    110.51235   -21868.933   -12961.272 
    7600    342.87162   -21738.229    131.84254   -21870.071    27382.157 
    7800     289.3736   -21741.594    111.27124   -21852.865    15485.927 
    8000    293.41031   -21755.828    112.82345   -21868.651    10064.568 
    8200    279.08115    -21760.16    107.31354   -21867.474    -7657.467 
    8400    305.98263   -21731.952    117.65782    -21849.61   -3061.6548 
    8600    260.90664   -21758.308    100.32499   -21858.633   -1289.0245 
    8800    267.33776   -21757.071    102.79792   -21859.868   -10534.111 
    9000    324.92825   -21746.176    124.94287   -21871.119    20196.502 
    9200    286.12046   -21773.516    110.02033   -21883.536   -12503.669 
    9400    306.93694   -21754.681    118.02477   -21872.706    13648.928 
    9600    286.00892   -21754.021    109.97744   -21863.998    5283.6906 
    9800       282.92   -21758.848    108.78967   -21867.637   -11201.693 
   10000     266.1078   -21761.304    102.32497   -21863.629   -9080.3477 
   10200     287.1565   -21767.879    110.41871   -21878.298   -18530.221 
   10400     295.6466   -21765.005    113.68336   -21878.688    11541.998 
   10600    314.16069   -21745.545    120.80248   -21866.347      3236.18 
   10800    292.84951   -21767.284    112.60781   -21879.891   -765.67434 
   11000    270.55679   -21768.989    104.03571   -21873.025    27749.713 
   11200    304.97037   -21750.388    117.26858   -21867.657    465.75834 
   11400    306.38528   -21744.055    117.81264   -21861.867    1663.5921 
   11600    293.25944   -21767.466    112.76544   -21880.232    9069.3486 
   11800    304.11354   -21738.269    116.93911   -21855.208    -5802.535 
   12000     317.1506   -21745.875    121.95218   -21867.827    2349.5172 
   12200    298.26102   -21759.805    114.68867   -21874.494    8015.3774 
   12400    332.06507    -21756.37    127.68715   -21884.057   -5798.2797 
   12600    329.72498   -21751.491    126.78733   -21878.278    12342.374 
   12800    291.23611   -21767.529    111.98742   -21879.516     7418.408 
   13000    322.34794    -21735.48    123.95068   -21859.431    -10664.32 
   13200    298.91447   -21750.651    114.93994   -21865.591    26089.346 
   13400     311.3729   -21759.078    119.73051   -21878.808    10394.428 
   13600     279.5262   -21756.509    107.48467   -21863.994   -12610.968 
   13800    316.23028   -21726.596    121.59829   -21848.195   -15599.668 
   14000    293.88277   -21749.732    113.00512   -21862.738   -4923.7616 
   14200    306.49062   -21759.896    117.85315   -21877.749    21245.994 
   14400    289.07528   -21755.253    111.15653   -21866.409   -4545.4295 
   14600     307.9683    -21740.72    118.42136   -21859.142   -6032.1835 
   14800    287.54988   -21758.278    110.56997   -21868.848    6855.0287 
   15000    265.13164   -21754.811    101.94961   -21856.761    7246.2774 
   15200    323.24518   -21738.594    124.29569   -21862.889   -5087.7954 
   15400    293.57685    -21761.43    112.88749   -21874.318     16815.22 
   15600    288.41218   -21756.116    110.90155   -21867.017   -3966.4227 
   15800    329.97785   -21739.637    126.88457   -21866.521    3338.5503 
   16000    358.35008   -21734.109    137.79438   -21871.904   -1409.0247 
   16200     310.4309   -21759.835    119.36828   -21879.203     13692.02 
   16400    282.77961   -21755.737    108.73569   -21864.473   -6130.3851 
   16600    306.18872   -21737.201    117.73706   -21854.938    8367.8421 
   16800    285.48631    -21763.24    109.77648   -21873.017    9909.6447 
   17000     293.0226   -21756.071    112.67437   -21868.745    2231.6014 
   17200    349.31188   -21725.821    134.31897    -21860.14    -2188.687 
   17400    279.89969   -21753.048    107.62829   -21860.676   -13565.183 
   17600     276.8722   -21765.593    106.46414   -21872.057    -15235.68 
   17800    328.58725   -21740.914    126.34985   -21867.264     3812.833 
   18000    329.04632   -21752.988    126.52637   -21879.515   -33595.216 
   18200    271.22357   -21764.114    104.29211   -21868.406   -19965.533 
   18400    327.69382   -21747.998     126.0063   -21874.004     36316.61 
   18600    323.31292   -21748.862    124.32174   -21873.184   -12822.819 
   18800    288.84054   -21770.972    111.06626   -21882.038    526.79954 
   19000    320.20524   -21746.234    123.12676    -21869.36    25169.278 
   19200    355.49156   -21746.436    136.69521   -21883.131      3725.18 
   19400    280.47715   -21758.016    107.85034   -21865.867     210.6468 
   19600    308.10003   -21752.634    118.47201   -21871.106   -6714.4825 
   19800    341.78311   -21742.741    131.42398   -21874.165    787.29697 
   20000      280.023    -21767.88     107.6757   -21875.556   -23640.761 
   20200    289.91657   -21746.291    111.48002   -21857.771   -8495.4037 
   20400    285.29207   -21749.196    109.70179   -21858.897   -2827.5029 
   20600    299.99425   -21756.629    115.35514   -21871.984   -3400.8287 
   20800    254.92264   -21779.829    98.023999   -21877.853    16210.803 
   21000    320.51281    -21749.94    123.24503   -21873.185    64.999312 
   21200    273.11422   -21755.477    105.01911   -21860.497    10204.186 
   21400    285.85253   -21774.417     109.9173   -21884.334    3277.2116 
   21600    287.35626   -21753.781    110.49552   -21864.276    1066.2665 
   21800    305.69399   -21753.321    117.54683   -21870.868   -27916.005 
   22000     263.7461   -21780.084    101.41684   -21881.501   -4418.2545 
   22200    369.93705   -21879.358    142.24986   -22021.608   -14837.574 
   22400     420.4474   -21998.549    161.67232   -22160.221   -604.71318 
   22600    258.28157   -22070.135     99.31559    -22169.45     14518.94 
   22800    349.01041   -22058.714    134.20305   -22192.917    4716.3955 
   23000    293.28106   -22046.277    112.77375   -22159.051    5441.9468 
   23200    268.73601   -22071.529    103.33558   -22174.865   -8746.0704 
   23400    312.23622   -22049.865    120.06248   -22169.928   -15912.051 
   23600    298.60857   -22056.737    114.82231   -22171.559    37945.575 
   23800    278.85604   -22062.283    107.22698    -22169.51   -18412.766 
   24000    336.55998   -22031.335    129.41556    -22160.75    15845.081 
   24200    299.52984    -22054.11    115.17656   -22169.287    17119.294 
   24400    256.14961   -22053.601    98.495799   -22152.097    1768.1969 
   24600    307.39489   -22053.828    118.20086   -22172.029    12940.773 
   24800    285.81032   -22077.152    109.90107   -22187.053    16687.431 
   25000    316.88523   -22047.346    121.85014   -22169.196    2202.1216 
   25200    318.63531   -22060.051    122.52308   -22182.574   -3021.1712 
   25400     272.1558   -22073.366    104.65057   -22178.017    4951.0126 
   25600    277.90133   -22059.625    106.85987   -22166.485    11491.989 
   25800    293.94951   -22058.445    113.03079   -22171.476   -8229.4166 
   26000     249.8297   -22085.522     96.06564   -22181.587    12990.799 
   26200    285.10724   -22061.385    109.63072   -22171.016   -13383.363 
   26400    303.97509   -22069.117    116.88587   -22186.003   -1320.7581 
   26600    266.27941   -22097.299    102.39096    -22199.69    -8258.733 
   26800    290.46376   -22082.795    111.69043   -22194.485    7344.5822 
   27000    308.41198   -22059.012    118.59196   -22177.604    1909.9777 
   27200    283.03132   -22062.541    108.83248   -22171.374    2903.5301 
   27400    262.36522   -22074.418    100.88585   -22175.303    3826.5088 
   27600    323.99165   -22045.454    124.58273   -22170.037   -11537.088 
   27800     300.2395   -22067.473    115.44944   -22182.923    21348.369 
   28000    286.89924   -22063.362    110.31979   -22173.682   -2026.1484 
   28200    297.18065   -22045.041    114.27324   -22159.315   -1292.6108 
   28400    294.60946   -22076.185    113.28456    -22189.47   -29779.815 
   28600    302.62384   -22069.248    116.36628   -22185.614   -3324.3056 
   28800    330.84802   -22042.197    127.21917   -22169.417   -4129.5041 
   29000    316.95538   -22060.499    121.87711   -22182.377    240.02105 
   29200    272.18898   -22077.668    104.66333   -22182.331     13546.97 
   29400    303.91212   -22074.976    116.86165   -22191.838    16550.392 
   29600    315.93429   -22067.977    121.48447   -22189.462   -25350.617 
   29800    325.17085   -22046.199    125.03616   -22171.235   -23438.752 
   30000    297.29756   -22065.155     114.3182   -22179.473    15085.299 
   30200    280.51293   -22058.401    107.86409   -22166.265      300.202 
   30400    324.68107   -22035.188    124.84783   -22160.036    795.24708 
   30600    304.74758   -22067.966    117.18291   -22185.149   -3911.3617 
   30800    294.79162   -22057.541     113.3546   -22170.895   -37320.294 
   31000    308.16826   -22042.394    118.49824   -22160.893    -21456.98 
   31200    258.70729   -22072.948    99.479289   -22172.427    8414.6605 
   31400    291.33585   -22048.202    112.02577   -22160.228    26933.017 
   31600    304.07276   -22067.135    116.92343   -22184.058    -2534.681 
   31800    281.89167   -22073.708    108.39425   -22182.102   -16577.881 
   32000    307.59401   -22053.136    118.27743   -22171.414   -2647.0933 
   32200    312.47755   -22053.651    120.15527   -22173.807    3186.3656 
   32400    286.90659   -22068.171    110.32261   -22178.494   -7136.6236 
   32600    294.17124   -22061.636    113.11605   -22174.753   -9854.5198 
   32800    304.25568   -22050.093    116.99376   -22167.086    -21260.15 
   33000    299.26446     -22058.9    115.07451   -22173.975    4656.2502 
   33200    304.83864   -22072.921    117.21792   -22190.139    16743.671 
   33400    290.61214   -22052.334    111.74749   -22164.081    -4103.264 
   33600    339.63437   -22049.031    130.59774   -22179.629    7914.5421 
   33800    281.12855   -22072.257    108.10081   -22180.358   -1899.3168 
   34000    320.65541   -22068.895    123.29986   -22192.194    2551.4239 
   34200    308.49631   -22049.941    118.62439   -22168.565    22147.857 
   34400    311.95176   -22058.194    119.95309   -22178.147    -19050.86 
   34600    296.85719   -22088.472    114.14886   -22202.621    1276.9051 
   34800    289.85238   -22077.057    111.45534   -22188.513    91.754782 
   35000    288.75828    -22070.72    111.03463   -22181.754   -729.01228 
   35200    288.67831   -22069.497    111.00388   -22180.501    35570.696 
   35400    272.50164   -22083.444    104.78356   -22188.227    15555.329 
   35600    307.89081   -22058.812    118.39156   -22177.203   -10158.397 
   35800    284.13278   -22066.579    109.25601   -22175.835    6803.1766 
   36000    269.62099   -22079.722    103.67587   -22183.398   -13593.722 
   36200    315.60254   -22045.872    121.35691   -22167.229    12866.551 
   36400    441.45943   -22152.557    169.75197   -22322.309    8894.1286 
   36600    235.18364   -22248.814    90.433869   -22339.248    15255.318 
   36800    264.03287   -22292.815    101.52711   -22394.343    2904.6518 
   37000     319.1718   -22277.361    122.72937    -22400.09   -951.07835 
   37200    320.26651   -22267.367    123.15032   -22390.517   -1256.0191 
   37400    272.82501   -22291.243     104.9079   -22396.151    10399.033 
   37600    323.63923   -22282.198    124.44721   -22406.645    19084.013 
   37800    321.17968   -22261.346    123.50145   -22384.848   -6694.5367 
   38000    301.75356   -22293.965    116.03164   -22409.997   -305.08822 
   38200    320.66125   -22276.975    123.30211   -22400.277    23391.703 
   38400    292.83639   -22288.187    112.60276    -22400.79   -7975.0741 
   38600    300.40741   -22294.742    115.51401   -22410.256    20551.478 
   38800    317.09733   -22276.818    121.93169   -22398.749    20607.896 
   39000    272.72612   -22304.892    104.86988   -22409.762    9390.1534 
   39200    280.86684   -22298.946    108.00018   -22406.946   -4436.3131 
   39400    293.98194   -22279.329    113.04326   -22392.373    8325.4489 
   39600    285.71982   -22301.693    109.86627   -22411.559   -4264.8411 
   39800       296.11   -22292.205    113.86155   -22406.067    13332.916 
   40000    343.02224   -22286.189    131.90045   -22418.089    19780.274 
   40200    290.69377   -22310.227    111.77888   -22422.006     2494.091 
   40400    294.19233   -22285.913    113.12416   -22399.037   -7566.9832 
   40600    334.13114   -22280.779    128.48161   -22409.261    8922.0843 
   40800     270.9166   -22307.073    104.17407   -22411.247    8427.2223 
   41000    286.04264    -22290.16     109.9904    -22400.15   -3294.6915 
   41200    312.30376     -22283.8    120.08845   -22403.888   -1850.0278 
   41400    302.17618   -22282.633    116.19414   -22398.828   -2816.0458 
   41600    328.28166   -22278.057    126.23234   -22404.289   -27393.936 
   41800    313.84394   -22280.801    120.68068   -22401.482    3604.4573 
   42000    267.79318   -22300.018    102.97304   -22402.991   -8996.5232 
   42200    294.32267    -22276.09    113.17428   -22389.264    -14466.57 
   42400    318.10091   -22281.243    122.31759   -22403.561   -296.39007 
   42600     264.4021   -22301.321    101.66908    -22402.99   -19039.119 
   42800    333.43938   -22266.083    128.21561   -22394.299   -11323.471 
   43000    297.59787   -22287.702    114.43367   -22402.136    16686.216 
   43200    310.34585   -22288.048    119.33558   -22407.384   -12371.426 
   43400    358.50069    -22247.36     137.8523   -22385.212   -21932.316 
   43600    318.84247   -22264.624    122.60274   -22387.227   -11833.914 
   43800    293.78352   -22288.989    112.96696   -22401.956    5070.2436 
   44000    312.14453    -22281.97    120.02722   -22401.997    10764.341 
   44200    344.59154   -22255.339    132.50389   -22387.843    16830.992 
   44400    287.08264   -22292.911    110.39031   -22403.301    2348.5123 
   44600     315.8346   -22278.632    121.44614   -22400.078   -9101.8232 
   44800    326.21344   -22262.404    125.43706   -22387.842    12834.218 
   45000    280.43095   -22295.243    107.83257   -22403.075    15692.483 
   45200    332.30288   -22273.956     127.7786   -22401.734    4379.1002 
   45400      283.853    -22277.19    109.14843   -22386.339    397.41858 
   45600     278.4532    -22299.33    107.07208   -22406.402    -544.8731 
   45800    279.26036   -22278.199    107.38245   -22385.582   -10896.509 
   46000    330.29333   -22266.816    127.00588   -22393.821    15581.397 
   46200    272.57399    -22287.98    104.81137   -22392.792   -12800.251 
   46400    302.60367   -22286.282    116.35852    -22402.64    3921.8296 
   46600    336.21843    -22264.59    129.28422   -22393.875    2956.7191 
   46800     333.2593   -22278.514    128.14636   -22406.661    5461.4503 
   47000    277.81618   -22291.153    106.82713    -22397.98   -14.368881 
   47200    348.83219   -22260.969    134.13452   -22395.104    16471.348 
   47400    269.79825   -22287.254    103.74403   -22390.998    7090.4722 
   47600    305.43322    -22279.77    117.44655   -22397.216   -14353.063 
   47800    312.19064   -22260.447    120.04495   -22380.492   -8713.7704 
   48000     284.0021   -22286.735    109.20577   -22395.941    19102.713 
   48200    291.66686   -22286.584    112.15305   -22398.737     1225.649 
   48400    293.11247   -22269.827    112.70892   -22382.536   -12232.253 
   48600    310.59177    -22283.08    119.43014    -22402.51   -6890.7513 
   48800    292.66297   -22297.148    112.53608   -22409.684    10009.233 
   49000    294.90352   -22272.079    113.39763   -22385.476   -1039.5705 
   49200    291.39297   -22283.261    112.04774   -22395.309   -32712.799 
   49400    304.42787   -22293.594    117.05997   -22410.654   -2888.4531 
   49600    281.29693   -22273.651    108.16556   -22381.816    16270.538 
   49800    304.12081   -22290.466     116.9419   -22407.408   -15032.225 
   50000    310.25489   -22294.609     119.3006   -22413.909    11241.346 
   50200    347.74999   -22269.994    133.71839   -22403.713    41098.959 
   50400    301.26839   -22289.942    115.84507   -22405.787   -6066.3614 
   50600      315.358   -22281.105    121.26287   -22402.368   -9492.8815 
   50800    324.08151    -22263.99    124.61728   -22388.608    25426.033 
   51000    331.63776   -22287.286    127.52284   -22414.808    13942.144 
   51200    290.80944   -22292.476    111.82335     -22404.3    -12755.75 
   51400     308.0977   -22267.815    118.47111   -22386.286    14115.968 
   51600    299.51863   -22291.299    115.17225   -22406.471   -10540.366 
   51800     281.3995   -22289.357      108.205   -22397.562   -9751.4106 
   52000    326.25239   -22272.419    125.45203   -22397.871   -6029.6113 
   52200    323.93632   -22271.948    124.56145   -22396.509   -9698.4442 
   52400    272.17194   -22290.484    104.65678   -22395.141    11098.004 
   52600     318.9637   -22282.418    122.64936   -22405.067   -13554.181 
   52800    319.55707   -22272.371    122.87752   -22395.249   -13694.533 
   53000    259.63782   -22298.905    99.837101   -22398.742     2726.842 
   53200    305.97168   -22282.185    117.65361   -22399.838   -22531.726 
   53400     286.0389    -22282.56    109.98896   -22392.549   -6559.1954 
   53600    312.09196   -22293.146    120.00701   -22413.153   -1892.1615 
   53800    251.97209   -22308.019    96.889442   -22404.909    1249.0651 
   54000    304.19309   -22280.647     116.9697   -22397.617   -1814.6531 
   54200    298.22058   -22286.064    114.67312   -22400.737    2371.8064 
   54400    272.23427   -22308.222    104.68075   -22412.903    20418.467 
   54600    318.73292   -22279.864    122.56061   -22402.424     16538.28 
   54800    286.74842   -22285.824    110.26179   -22396.086    9485.6526 
   55000    329.02459   -22276.376    126.51801   -22402.894   -30730.041 
   55200    330.57484   -22265.844    127.11412   -22392.958    6477.8417 
   55400    305.82283   -22292.313    117.59637    -22409.91     7538.617 
   55600    302.48464   -22272.975    116.31275   -22389.288    3119.5716 
   55800    295.81054   -22277.547     113.7464   -22391.293   -19961.561 
   56000    298.22019   -22281.359    114.67297   -22396.032   -9979.2837 
   56200    296.32688   -22259.074    113.94494   -22373.019    -25907.97 
   56400    283.03747   -22292.389    108.83484   -22401.224    4779.2202 
   56600    305.56752   -22282.874     117.4982   -22400.373   -6396.9181 
   56800    339.79703   -22261.056    130.66028   -22391.716   -4708.2286 
   57000    306.71502    -22278.98    117.93944    -22396.92    4559.9722 
   57200    301.67417   -22291.794    116.00111   -22407.795    -8776.608 
   57400    330.81486   -22264.049    127.20642   -22391.255   -751.32434 
   57600    317.32379   -22270.623    122.01877   -22392.642    5250.1921 
   57800    271.09171   -22281.428     104.2414   -22385.669   -16308.247 
   58000    341.51957   -22268.389    131.32264   -22399.712   -6469.5239 
   58200    331.28351   -22271.147    127.38663   -22398.534    4476.0706 
   58400    297.56113    -22288.83    114.41954    -22403.25    8485.5436 
   58600    314.92853   -22270.942    121.09773   -22392.039    4098.0392 
   58800    338.93099   -22271.243    130.32727    -22401.57     7559.451 
   59000    299.69083   -22294.793    115.23846   -22410.032   -4484.7022 
   59200    326.69147   -22269.698    125.62087   -22395.319     6046.389 
   59400    311.62224     -22276.7    119.82639   -22396.526    37713.433 
   59600    279.19477    -22281.18    107.35723   -22388.537   -13197.762 
   59800    296.57286   -22276.377    114.03953   -22390.416     9376.389 
   60000    336.80482   -22267.063     129.5097   -22396.573    13715.199 
   60200    281.41612   -22292.995    108.21139   -22401.207   -11509.517 
   60400     271.5773   -22282.717    104.42812   -22387.145    2608.9443 
   60600    336.32057   -22257.393     129.3235   -22386.716    13096.538 
   60800     270.4857   -22286.983    104.00838   -22390.991    -2028.161 
   61000    296.07333    -22287.59    113.84745   -22401.437   -22406.302 
   61200    338.51313   -22265.773    130.16659   -22395.939   -10248.736 
   61400    299.36372   -22291.614    115.11269   -22406.727   -14740.462 
   61600    290.70176   -22287.845    111.78195   -22399.627   -2904.2838 
   61800    306.09785   -22279.711    117.70212   -22397.413   -97.496122 
   62000    300.19192   -22288.226    115.43115   -22403.657     21338.51 
   62200    307.71692   -22284.845    118.32469    -22403.17   -12679.554 
   62400    324.18143   -22267.644     124.6557     -22392.3   -7549.0039 
   62600    285.03212   -22293.874    109.60183   -22403.476   -22595.818 
   62800    270.01957   -22273.158    103.82914   -22376.987    11190.643 
   63000    339.65801   -22267.158    130.60683   -22397.765   -31592.089 
   63200    285.33237   -22293.998    109.71729   -22403.715    28926.308 
   63400    321.81314   -22270.001    123.74503   -22393.746   -11385.175 
   63600    289.16965   -22285.671    111.19281   -22396.864   -4417.3245 
   63800    273.69894   -22294.085    105.24395   -22399.329   -9889.2129 
   64000    281.51917   -22276.685    108.25102   -22384.936    10.844127 
   64200    280.85791   -22286.881    107.99675   -22394.878    11237.396 
   64400    262.11485   -22303.549    100.78958   -22404.338   -906.24898 
   64600    279.23563   -22277.042    107.37294   -22384.415   -10624.574 
   64800    259.76163   -22292.482    99.884711   -22392.367    9834.9045 
   65000    277.82214   -22287.219    106.82942   -22394.048    22327.212 
   65200    321.17489   -22266.561    123.49961   -22390.061   -4584.9793 
   65400    284.73313   -22295.855    109.48686   -22405.342    4308.8548 
   65600    294.85992   -22281.926    113.38086   -22395.307    26476.501 
   65800    355.32927   -22249.115    136.63281   -22385.747    1301.9146 
   66000    335.56477   -22275.052    129.03287   -22404.085   -6681.9211 
   66200    301.47906   -22291.552    115.92608   -22407.478   -20047.984 
   66400    300.62689   -22280.412     115.5984   -22396.011    9412.5808 
   66600    307.61218   -22267.493    118.28442   -22385.778   -6700.2439 
   66800    282.96002   -22291.372    108.80506   -22400.177    15912.226 
   67000     277.0003   -22275.811     106.5134   -22382.325   -14164.228 
   67200    325.42137     -22267.8    125.13249   -22392.932    18043.743 
   67400    272.06388   -22295.218    104.61523   -22399.833   -24538.127 
   67600    288.31456   -22275.858    110.86401   -22386.722    9923.3685 
   67800    288.19789   -22273.398    110.81915   -22384.218     -2520.74 
   68000    274.21888   -22283.981    105.44388   -22389.425   -11458.986 
   68200    283.66416   -22282.022    109.07582   -22391.098    11412.705 
   68400     314.4881   -22268.272    120.92838     -22389.2   -9713.9387 
   68600    300.11531   -22287.597    115.40169   -22402.998    12106.596 
   68800    288.29015   -22283.795    110.85463   -22394.649    8727.5267 
   69000    312.92257   -22267.174    120.32639     -22387.5   -8927.6477 
   69200    297.28675   -22290.453    114.31404   -22404.767    22135.638 
   69400    315.84536    -22266.69    121.45028    -22388.14    2762.2421 
   69600    290.94005   -22268.709    111.87358   -22380.582   -20968.119 
   69800    285.84523   -22282.914    109.91449   -22392.828    24389.425 
   70000    310.40013   -22286.547    119.35645   -22405.904     38023.47 
   70200    335.15827    -22268.02    128.87656   -22396.897   -3392.7081 
   70400    296.58243   -22285.291    114.04321   -22399.334    2672.3834 
   70600     283.9824   -22294.628    109.19819   -22403.826   -7712.3891 
   70800     333.0626   -22263.313    128.07073   -22391.384   -18115.727 
   71000    292.99512   -22288.418     112.6638   -22401.081    6483.2116 
   71200    309.72266   -22278.505    119.09595   -22397.601    -16493.31 
   71400    318.00183   -22263.787    122.27949   -22386.067     41328.95 
   71600    305.09462     -22280.6    117.31636   -22397.917    437.75568 
   71800    292.30294   -22282.252    112.39764    -22394.65    16864.001 
   72000    266.97316   -22281.385    102.65772   -22384.043    12912.118 
   72200    266.95926   -22287.418    102.65237    -22390.07    10353.397 
   72400    290.75052   -22285.028     111.8007   -22396.828    3461.4653 
   72600    289.52015   -22269.505    111.32759   -22380.832   -561.72169 
   72800    283.16288   -22302.093    108.88306   -22410.976   -24012.197 
   73000    277.05748   -22284.495    106.53539    -22391.03   -12705.568 
   73200    291.97277   -22278.928    112.27068   -22391.198    -3027.761 
   73400    273.47207   -22298.252    105.15671   -22403.408   -12226.787 
   73600    298.10623   -22294.944    114.62915   -22409.573   -4211.6732 
   73800    279.78327   -22277.171    107.58352   -22384.755   -1002.3272 
   74000    288.05464   -22288.069    110.76407   -22398.834    10396.216 
   74200    267.67635   -22294.464    102.92811   -22397.393   -22009.507 
   74400     312.0991   -22276.522    120.00975   -22396.532    6313.1471 
   74600    315.75241   -22270.141    121.41454   -22391.556   -10064.835 
   74800    289.88062   -22288.413     111.4662   -22399.879   -9996.4483 
   75000     314.0862   -22276.221    120.77384   -22396.994   -5965.7182 
   75200    298.14904   -22269.705    114.64561    -22384.35   -1516.1829 
   75400    288.67222   -22285.986    111.00154   -22396.987   -2322.0596 
   75600    292.33679   -22284.131    112.41066   -22396.541   -28375.623 
   75800    319.65999   -22277.404     122.9171   -22400.321   -33632.475 
   76000    313.21382       -22267    120.43839   -22387.439   -16322.422 
   76200    293.28078   -22292.584    112.77364   -22405.358   -3281.0257 
   76400    278.65399    -22278.58    107.14928    -22385.73    14899.448 
   76600    318.47995   -22272.342    122.46334   -22394.805   -8794.2395 
   76800    296.07987   -22292.561    113.84996   -22406.411   -28371.704 
   77000    319.11311   -22265.556    122.70681   -22388.263    7097.3973 
   77200    292.29785   -22275.147    112.39568   -22387.543   -16038.822 
   77400    280.52667   -22288.919    107.86938   -22396.788     5522.058 
   77600     315.6537   -22265.479    121.37658   -22386.855   -13524.661 
   77800    319.81032   -22266.584     122.9749   -22389.559    10279.549 
   78000    297.08228   -22282.386    114.23541   -22396.622     -5692.89 
   78200    303.81656   -22281.593    116.82491   -22398.418   -7834.5311 
   78400    312.52782   -22271.421     120.1746   -22391.596    15550.818 
   78600    266.84362   -22293.712    102.60791   -22396.319    14103.775 
   78800    306.21128   -22293.256    117.74574   -22411.002   -3031.8769 
   79000    313.62661   -22274.136    120.59711   -22394.733    1413.9714 
   79200    292.12081   -22284.166    112.32761   -22396.494    7204.5152 
   79400    252.53689   -22295.931     97.10662   -22393.037   -5456.2221 
   79600    340.73962   -22269.095    131.02273   -22400.118   -19705.599 
   79800    287.40112   -22276.072    110.51277   -22386.584   -2927.8189 
   80000     271.5872   -22289.733    104.43193   -22394.165    7156.8381 
   80200    319.41987   -22256.122    122.82477   -22378.947   -18912.627 
   80400     281.1248   -22287.477    108.09937   -22395.576    5885.3902 
   80600    295.87714   -22289.335    113.77201   -22403.107     13661.71 
   80800    356.75305   -22262.672    137.18029   -22399.853    18148.559 
   81000       293.16   -22294.436     112.7272   -22407.163    6261.0519 
   81200    301.25149   -22278.829    115.83858   -22394.668    1537.5468 
   81400    298.52581   -22275.227    114.79049   -22390.018   -8052.7057 
   81600    285.83458   -22299.959     109.9104    -22409.87   -29771.481 
   81800    306.92496   -22273.923    118.02017   -22391.943   -11989.525 
   82000    312.71765   -22271.909     120.2476   -22392.157     21432.03 
   82200    256.51075   -22300.419    98.634669   -22399.054    -19959.29 
   82400    275.61288    -22278.97     105.9799    -22384.95   -10991.927 
   82600    323.27613   -22273.212    124.30759    -22397.52   -465.47082 
   82800    285.56212   -22297.049    109.80563   -22406.854   -21415.912 
   83000    310.31559   -22270.469    119.32395   -22389.793    6762.7742 
   83200     295.4819   -22271.861    113.62003   -22385.481   -22527.387 
   83400    294.78982   -22293.976    113.35391    -22407.33    5794.7146 
   83600    269.27116   -22296.268    103.54136   -22399.809   -11956.588 
   83800    324.98387   -22276.088    124.96426   -22401.053    24027.693 
   84000    278.23003   -22294.401    106.98626   -22401.387   -14579.482 
   84200    287.85557   -22282.541    110.68752   -22393.229   -10421.268 
   84400    322.60413   -22271.701    124.04919    -22395.75    374.53423 
   84600    255.09377    -22292.84    98.089805    -22390.93     15555.78 
   84800    298.22874   -22281.826    114.67625   -22396.502   -19673.428 
   85000    272.13997   -22279.529    104.64449   -22384.174    16789.447 
   85200    315.77096   -22267.133    121.42167   -22388.555   -9743.6295 
   85400    292.34546   -22289.965    112.41399   -22402.379   -1129.0275 
   85600    293.15894   -22284.821    112.72679   -22397.548   -1139.1882 
   85800    280.71719   -22282.809    107.94264   -22390.751    -7074.371 
   86000    270.22332   -22305.306    103.90749   -22409.213   -18027.843 
   86200    315.60052   -22278.911    121.35613   -22400.267    12849.691 
   86400    274.97546   -22289.909     105.7348   -22395.643   -20746.536 
   86600    269.88504   -22308.161    103.77741   -22411.938   -5317.9396 
   86800    331.91853   -22276.233     127.6308   -22403.863    -15881.58 
   87000    299.43629   -22279.865    115.14059   -22395.006    8157.6928 
   87200    285.00057   -22306.013     109.5897   -22415.603   -3864.1177 
   87400    306.99176   -22282.836    118.04585   -22400.882    5337.2744 
   87600    317.21087   -22286.554    121.97535    -22408.53   -7559.4877 
   87800    270.35679   -22302.049    103.95881   -22406.007    4891.2286 
   88000    332.24312   -22272.046    127.75562   -22399.801    41360.601 
   88200    277.86249   -22287.333    106.84493   -22394.178    11966.557 
   88400    272.55179   -22288.798    104.80284   -22393.601    18455.342 
   88600    383.69297   -22262.489    147.53935   -22410.028    8244.2975 
   88800    271.54545   -22284.943    104.41588   -22389.359    8733.1507 
   89000    298.03559   -22261.118    114.60199    -22375.72    14619.702 
   89200    316.92088   -22263.605    121.86384   -22385.469    1925.3356 
   89400    284.52516   -22282.205    109.40689   -22391.612   -4720.6418 
   89600     290.2546   -22279.037       111.61   -22390.647    7038.6863 
   89800    330.32797    -22260.16     127.0192   -22387.179    12015.717 
   90000    289.39741   -22288.469    111.28039    -22399.75     3213.233 
   90200     298.9997    -22275.49    114.97271   -22390.463   -1110.2717 
   90400     290.9994   -22268.061     111.8964   -22379.958   -19486.584 
   90600    282.00432   -22276.826    108.43757   -22385.264   -974.84982 
   90800     287.3781   -22303.045    110.50392   -22413.549   -1835.0438 
   91000    290.41899   -22283.628    111.67322   -22395.302   -10154.876 
   91200     309.8139   -22271.526    119.13104   -22390.657   -26071.006 
   91400    309.32791    -22290.82    118.94416   -22409.764    1280.1575 
   91600    269.14795    -22291.64    103.49398   -22395.134    18441.137 
   91800    313.34417   -22274.171    120.48851    -22394.66    17764.818 
   92000    290.80248   -22291.063    111.82068   -22402.883    9303.9622 
   92200     283.5754   -22287.526    109.04169   -22396.568    -2401.239 
   92400    299.70212   -22266.591    115.24281   -22381.833   -12350.837 
   92600    279.71906   -22296.027    107.55883   -22403.586    2643.9104 
   92800    297.17595   -22286.104    114.27143   -22400.375    15522.374 
   93000    309.31213   -22275.264    118.93809   -22394.202     9225.903 
   93200     273.8537   -22298.548    105.30346   -22403.851    5916.3017 
   93400    281.13308   -22289.099    108.10256   -22397.202    21151.622 
   93600    318.02206   -22274.899    122.28727   -22397.187   -5906.5529 
   93800    294.40587   -22293.494    113.20627   -22406.701   -2480.3795 
   94000    260.08818   -22323.512    100.01028   -22423.522   -9997.1929 
   94200    259.67634   -22293.467    99.851914   -22393.319    2809.8663 
   94400    272.69298   -22271.165    104.85713   -22376.022    13311.046 
   94600    309.82623   -22266.455    119.13578   -22385.591    17809.631 
   94800    297.91914    -22292.89    114.55721   -22407.447   -3099.4253 
   95000    327.35617       -22272    125.87647   -22397.876    13443.873 
   95200    304.63942    -22274.19    117.14132   -22391.331    21133.651 
   95400    257.14209   -22301.348    98.877433   -22400.225   -15761.779 
   95600    280.97054    -22278.73    108.04005    -22386.77    13860.899 
   95800    301.42317   -22272.705    115.90459   -22388.609   -13736.292 
   96000    300.89983   -22293.863    115.70336   -22409.566    18364.253 
   96200    333.66863   -22261.639    128.30376   -22389.942     1035.718 
   96400    310.56573    -22280.74    119.42013    -22400.16    4560.6237 
   96600    285.92957   -22293.133    109.94692    -22403.08    2105.4776 
   96800    339.07817    -22261.46    130.38386   -22391.844   -6038.1218 
   97000    271.92513   -22288.138    104.56187     -22392.7    16284.015 
   97200    293.40702   -22285.097    112.82218   -22397.919   -34407.533 
   97400    323.71038   -22270.854    124.47457   -22395.329   -9227.4141 
   97600    346.65365   -22252.734    133.29682    -22386.03    -21774.18 
   97800    297.78904   -22292.313    114.50718   -22406.821   -23361.038 
   98000    295.45295   -22295.195     113.6089   -22408.803    34225.463 
   98200    310.71784   -22272.373    119.47862   -22391.852   -9587.2783 
   98400    284.24312   -22305.015    109.29844   -22414.313    30336.221 
   98600    320.46913   -22294.759    123.22823   -22417.987    -1560.793 
   98800    324.98655   -22272.457    124.96529   -22397.422   -17857.679 
   99000    302.07636    -22282.71    116.15576   -22398.866    41453.433 
   99200    295.91095   -22299.422    113.78501   -22413.207   -19918.677 
   99400    325.53321   -22275.037    125.17549   -22400.213    27774.114 
   99600    302.98804   -22292.915    116.50632   -22409.421   -3073.4325 
   99800    285.72914   -22301.203    109.86985   -22411.073   -7211.6527 
  100000    332.65486    -22285.15    127.91394   -22413.063    5217.8157 
  100200    293.50743   -22310.448     112.8608   -22423.309   -14235.007 
  100400    321.34896    -22295.94    123.56655   -22419.507    8288.8997 
  100600    326.02838   -22291.242     125.3659   -22416.608    14715.869 
  100800    296.00515   -22300.256    113.82123   -22414.077   -89.393475 
  101000     333.3433   -22302.291    128.17867    -22430.47   -1898.8553 
  101200    297.84986   -22306.561    114.53057   -22421.092   -10051.004 
  101400    344.38785   -22281.789    132.42556   -22414.214    1810.5399 
  101600    283.39873   -22310.517    108.97375   -22419.491   -6837.5495 
  101800    282.44353   -22298.686    108.60645   -22407.292    3899.5988 
  102000    321.17287   -22284.866    123.49883   -22408.365    12638.803 
  102200    280.90612   -22315.168    108.01528   -22423.183   -21515.618 
  102400    309.10748   -22297.676     118.8594   -22416.535    1333.1378 
  102600    313.77445   -22292.992    120.65396   -22413.646   -3501.9806 
  102800    269.13102   -22300.281    103.48747   -22403.768    22142.492 
  103000    330.12877   -22276.904     126.9426   -22403.847    16081.855 
  103200    293.00998   -22293.236    112.66952   -22405.905   -20636.236 
  103400    277.54456   -22302.398    106.72268   -22409.121   -12787.761 
  103600    323.45184   -22290.777    124.37516   -22415.152   -845.30075 
  103800    372.09917   -22266.356    143.08125   -22409.437    15625.313 
  104000    310.05041    -22296.17    119.22198   -22415.392   -28864.445 
  104200    277.38048   -22306.245    106.65959   -22412.905    17202.931 
  104400    347.53162   -22273.632    133.63442   -22407.267   -6588.4634 
  104600    307.56532   -22295.337     118.2664   -22413.603   -26130.268 
  104800    309.63493   -22298.478    119.06222    -22417.54   -14424.538 
  105000    316.79859   -22284.534    121.81682   -22406.351     2365.923 
  105200    356.74476   -22273.497     137.1771   -22410.674    10337.085 
  105400    280.07624   -22298.489    107.69617   -22406.186    7006.3467 
  105600    280.24947   -22310.195    107.76279   -22417.957   -5867.4234 
  105800    327.59168   -22282.564    125.96702   -22408.531    17508.174 
  106000    310.73406   -22294.933    119.48486   -22414.418    16330.756 
  106200    278.61009   -22303.554    107.13241   -22410.686   -13877.614 
  106400    324.74488   -22293.014    124.87236   -22417.886    10056.453 
  106600    327.00983   -22280.548    125.74329   -22406.291    26.403543 
  106800     292.3482    -22290.03    112.41504   -22402.445    10046.293 
  107000    285.20498   -22311.006     109.6683   -22420.674    14946.592 
  107200    327.66463   -22275.244    125.99508   -22401.239   -897.50885 
  107400    320.85181   -22291.445    123.37538    -22414.82    8666.3443 
  107600    273.53285   -22300.899    105.18008   -22406.079    -12261.08 
  107800     343.7119    -22274.65    132.16564   -22406.816    -9340.458 
  108000    275.82297   -22301.989    106.06069    -22408.05    -2791.894 
  108200    297.39177   -22303.971    114.35442   -22418.326    9369.7613 
  108400    317.05527   -22276.124    121.91552    -22398.04    10814.365 
  108600    319.09011   -22290.321    122.69797   -22413.019   -19619.103 
  108800    300.48733   -22303.544    115.54474   -22419.088    6310.9912 
  109000    303.11127   -22303.351    116.55371   -22419.905   -5001.8615 
  109200    309.88499   -22282.413    119.15837   -22401.572    4076.9649 
  109400    260.07139   -22312.368    100.00382   -22412.372   -1799.1386 
  109600    281.28335    -22301.28    108.16034   -22409.441   -8672.8649 
  109800    308.68962   -22294.739    118.69872   -22413.438    13921.316 
  110000    259.93151   -22319.608    99.950034   -22419.558   -18512.293 
  110200    304.68528   -22293.314    117.15895   -22410.473   -6140.2017 
  110400    312.86229   -22294.013    120.30321   -22414.316    1887.5792 
  110600     277.5009   -22314.775    106.70589   -22421.481   -5972.0395 
  110800    281.99001   -22312.895    108.43207   -22421.328    7166.4325 
  111000    317.56308   -22293.146    122.11078   -22415.256     14595.45 
  111200    274.46202   -22300.359    105.53737   -22405.896   -41034.363 
  111400    282.00731   -22310.543    108.43872   -22418.981    14810.797 
  111600    314.42223   -22284.355    120.90305   -22405.258     1323.479 
  111800    276.15476   -22303.645    106.18827   -22409.833   -34996.446 
  112000    253.50171   -22330.213    97.477619   -22427.691   0.14289219 
  112200    276.96718   -22312.252    106.50067   -22418.753    5176.7487 
  112400    316.45711   -22292.808    121.68551   -22414.494     10905.79 
  112600    277.32141   -22309.269    106.63688   -22415.906    -254.7779 
  112800    272.07355   -22310.666    104.61895   -22415.284    4804.3367 
  113000    330.96151   -22286.578    127.26281   -22413.841    2600.0632 
  113200    284.00936   -22306.472    109.20856    -22415.68    16536.962 
  113400    274.60466   -22280.193    105.59222   -22385.786    4387.0036 
  113600    298.58991   -22294.425    114.81514    -22409.24    3033.2955 
  113800    316.32219   -22297.514    121.63363   -22419.148   -2060.2016 
  114000    313.93497   -22286.903    120.71569   -22407.619   -5986.5993 
  114200    320.05888   -22274.331    123.07048   -22397.402   -9806.4089 
  114400    277.44179   -22298.142    106.68317   -22404.825    15679.797 
  114600    287.74378    -22286.09    110.64453   -22396.735    5436.0412 
  114800    346.24702   -22259.524    133.14046   -22392.665   -3676.3777 
  115000    280.46859    -22293.96    107.84704   -22401.807   -3246.8078 
  115200    303.85705   -22289.814    116.84048   -22406.654    14716.313 
  115400    310.74799   -22279.673    119.49021   -22399.164    8363.1209 
  115600    270.89438   -22309.468    104.16552   -22413.633    31817.973 
  115800    278.47239   -22288.525    107.07946   -22395.604    3421.1395 
  116000    300.93858   -22287.533    115.71826   -22403.252   -5969.3278 
  116200    284.82369   -22308.068    109.52168   -22417.589   -1344.6712 
  116400    308.79973   -22286.995    118.74106   -22405.736    8635.8463 
  116600    334.15826   -22286.301    128.49204   -22414.793   -5182.1544 
  116800    290.84655   -22305.312    111.83762   -22417.149   -3908.3054 
  117000     318.3601   -22282.037    122.41726   -22404.454    15561.929 
  117200    328.00922   -22289.497    126.12758   -22415.624    10995.795 
  117400    287.02565   -22300.305    110.36839   -22410.673   -1599.7904 
  117600    287.62576   -22301.208    110.59915   -22411.807     13220.86 
  117800    309.99385   -22315.664    119.20023   -22434.864   -5257.3148 
  118000    318.80655     -22285.8    122.58893   -22408.389   -11520.414 
  118200    290.29348   -22300.195    111.62495    -22411.82    5527.3495 
  118400     280.2547   -22308.461     107.7648   -22416.226    22912.931 
  118600    295.23341   -22294.178    113.52448   -22407.703    11257.169 
  118800    326.37644   -22278.977    125.49974   -22404.476    42148.761 
  119000    247.10773   -22309.108    95.018977   -22404.127   -21617.861 
  119200    316.40233   -22292.318    121.66445   -22413.983    10576.126 
  119400    319.42825   -22290.125    122.82799   -22412.953    -7461.825 
  119600    305.97032   -22307.856    117.65308   -22425.509     21189.42 
  119800     272.8363   -22320.058    104.91224   -22424.971    3234.7757 
  120000    320.46367   -22294.924    123.22613    -22418.15     9091.019 
  120200    308.97063   -22290.593    118.80678     -22409.4   -1416.2718 
  120400    287.64854   -22315.042    110.60791    -22425.65    10439.183 
  120600    305.93471   -22296.857    117.63939   -22414.496    1910.6975 
  120800    316.52922   -22293.484    121.71324   -22415.197    9513.9688 
  121000    265.17008     -22303.9    101.96439   -22405.865   -2295.2777 
  121200    348.83875   -22268.659    134.13704   -22402.796   -10531.587 
  121400    325.14177   -22288.082    125.02498   -22413.107   -13681.071 
  121600    278.76062   -22306.471    107.19029   -22413.662    15990.654 
  121800    308.20733   -22299.068    118.51327   -22417.582   -16250.319 
  122000     332.9263   -22280.731    128.01832    -22408.75    16012.589 
  122200    297.17699   -22300.875    114.27183   -22415.147   -6793.0191 
  122400     292.3205   -22292.758    112.40439   -22405.162    13058.784 
  122600    346.03811   -22265.395    133.06013   -22398.455    1828.7971 
  122800    281.33701   -22299.938    108.18097   -22408.119   -15247.467 
  123000    289.52107   -22292.714    111.32794   -22404.042    19105.151 
  123200    310.86231   -22274.489    119.53417   -22394.023   -15528.596 
  123400     245.1131   -22306.209    94.251991   -22400.461    11384.662 
  123600    294.92242   -22285.013     113.4049   -22398.418    4527.5565 
  123800     299.9956   -22284.751    115.35566   -22400.106   -10833.499 
  124000    294.82397   -22292.798    113.36704   -22406.165    14606.704 
  124200     299.6362   -22304.791    115.21746   -22420.008    17836.179 
  124400    277.65418   -22313.409    106.76483   -22420.174   -14773.529 
  124600    294.06345   -22288.323     113.0746   -22401.397   -10.304615 
  124800    257.60921   -22300.894    99.057053   -22399.951   -12612.648 
  125000    262.67237   -22317.541    101.00396   -22418.545    17969.162 
  125200    315.45874   -22284.469    121.30161   -22405.771   -10194.798 
  125400    274.92638   -22301.944    105.71593   -22407.659    -15891.94 
  125600    275.52298   -22315.131    105.94533   -22421.076   -16950.614 
  125800    321.85182   -22283.406    123.75991   -22407.166   -722.84526 
  126000    280.66129   -22296.398    107.92114   -22404.319   -10900.428 
  126200    276.54947   -22310.018    106.34004   -22416.358   -15922.338 
  126400    294.36407   -22299.471     113.1902   -22412.661    12949.373 
  126600    294.11593   -22292.214    113.09478   -22405.309    1751.4502 
  126800    300.01045   -22292.217    115.36137   -22407.578   -4444.5688 
  127000    272.36743   -22310.412    104.73195   -22415.144    20266.006 
  127200    329.09503   -22279.622     126.5451   -22406.167    14601.863 
  127400     296.0456   -22297.347    113.83679   -22411.184   -91.874498 
  127600      319.292   -22297.149     122.7756   -22419.924   -13218.132 
  127800    340.09461   -22266.009    130.77471   -22396.783     3311.037 
  128000    304.67554   -22295.842    117.15521   -22412.997     3778.017 
  128200    285.67322    -22301.63    109.84835   -22411.479    15790.869 
  128400    300.59007   -22272.768    115.58425   -22388.352   -10627.487 
  128600    294.63126   -22293.851    113.29294   -22407.144   -12128.264 
  128800    311.57318   -22303.144    119.80752   -22422.952   -18497.862 
  129000    303.76608   -22297.942     116.8055   -22414.747   -11379.491 
  129200    332.37213   -22285.752    127.80522   -22413.557    9771.8124 
  129400     270.0322   -22311.744      103.834   -22415.578    600.53913 
  129600    279.29721   -22297.471    107.39662   -22404.868    4511.8729 
  129800    339.37956   -22297.019    130.49975   -22427.519    17258.761 
  130000    283.68946   -22324.802    109.08555   -22433.888    4752.8381 
  130200    293.39455     -22302.1    112.81739   -22414.918   -4136.4009 
  130400     303.3599   -22294.554    116.64931   -22411.203    3280.1242 
  130600    334.57079   -22289.421    128.65067   -22418.072   -5083.1775 
  130800    261.31588    -22316.02    100.48236   -22416.502    15701.003 
  131000    286.71479   -22296.353    110.24886   -22406.602   -14245.172 
  131200    312.64839    -22290.61    120.22097   -22410.831   -11724.756 
  131400    291.54747   -22303.159    112.10715   -22415.266   -1439.6073 
  131600    268.21274   -22307.597    103.13437   -22410.731    4930.8756 
  131800    293.09964   -22287.235    112.70399   -22399.939    26532.204 
  132000    292.87944   -22303.978    112.61932   -22416.597    914.54485 
  132200       275.94    -22326.41    106.10569   -22432.516    4784.2425 
  132400    289.98246   -22293.612    111.50536   -22405.117    394.92878 
  132600    289.70568   -22287.247    111.39893   -22398.646   -6597.4904 
  132800    269.01891   -22304.607    103.44436   -22408.051   -396.76514 
  133000    284.18346   -22305.506     109.2755   -22414.782     10759.38 
  133200    312.87473   -22286.997      120.308   -22407.305   -5750.3101 
  133400    276.52881   -22306.878     106.3321    -22413.21    1127.9776 
  133600    304.21522   -22278.712     116.9782    -22395.69   -2737.4864 
  133800    283.67841   -22292.226     109.0813   -22401.307    -10269.71 
  134000     288.2167   -22303.315    110.82638   -22414.142   -5943.5748 
  134200    301.73551   -22294.886     116.0247   -22410.911    23195.321 
  134400    353.24235    -22263.82    135.83034    -22399.65   -5708.3448 
  134600    292.84125   -22292.375    112.60463   -22404.979   -3109.0781 
  134800    299.75315   -22304.516    115.26243   -22419.778    7302.8021 
  135000    314.75668   -22276.796    121.03165   -22397.827    23436.025 
  135200    292.42444   -22290.999    112.44436   -22403.444   -22444.671 
  135400    313.89463   -22297.262    120.70018   -22417.962   -7393.5424 
  135600    330.61206   -22291.778    127.12844   -22418.906   -5030.6633 
  135800    291.97827   -22302.942     112.2728   -22415.215   -16510.032 
  136000    310.08491   -22307.946    119.23524   -22427.181   -8637.0101 
  136200    301.53313   -22282.123    115.94688    -22398.07   -19796.296 
  136400    274.35273   -22302.972    105.49535   -22408.467     3143.018 
  136600    260.57404   -22303.399     100.1971   -22403.596    2453.0893 
  136800    341.95856   -22273.554    131.49144   -22405.046    11950.232 
  137000    258.75889   -22304.197    99.499131   -22403.696   -7625.5161 
  137200    346.94274   -22288.763    133.40798   -22422.171     5836.297 
  137400    311.20561   -22284.828    119.66618   -22404.494   -2032.5102 
  137600    270.53237   -22313.144    104.02633    -22417.17   -2387.3718 
  137800    285.79546   -22286.715    109.89536    -22396.61   -1428.0986 
  138000    277.24587     -22293.3    106.60783   -22399.908     17601.71 
  138200    264.85637   -22322.743    101.84376   -22424.587   -8467.1806 
  138400    288.45771   -22301.883    110.91906   -22412.802   -14625.774 
  138600    285.90226    -22287.88    109.93642   -22397.817   -24425.732 
  138800    279.64448   -22305.513    107.53015   -22413.043     5814.051 
  139000    272.99213   -22302.004    104.97216   -22406.976    62.285019 
  139200    301.94178   -22286.318    116.10401   -22402.422   -5899.7331 
  139400    273.28225   -22296.881    105.08372   -22401.965   -5236.3894 
  139600    294.53062   -22306.774    113.25424   -22420.028    4307.6617 
  139800    323.21226   -22278.015    124.28303   -22402.298    11302.304 
  140000    265.99189   -22298.787     102.2804   -22401.068    7706.8155 
  140200     281.9279   -22296.612    108.40818    -22405.02    7398.9114 
  140400    295.84383   -22293.022     113.7592   -22406.781    5652.3374 
  140600    313.87445   -22268.686    120.69242   -22389.379    1995.4296 
  140800    326.89186   -22292.321    125.69793   -22418.019    5969.5803 
  141000    282.01397   -22294.965    108.44128   -22403.406    6257.7319 
  141200    293.15614   -22288.633    112.72572   -22401.359   -8541.7089 
  141400    302.22639   -22282.616    116.21345    -22398.83   -3638.4629 
  141600    270.02963    -22304.91    103.83301   -22408.743     -7586.94 
  141800    280.96035   -22291.283    108.03614   -22399.319    -2936.731 
  142000     272.8082   -22303.651    104.90144   -22408.553    28139.689 
  142200     289.6639   -22298.836    111.38287   -22410.219   -2920.3834 
  142400    322.14586   -22283.058    123.87298   -22406.931   -20393.837 
  142600     279.9807    -22311.33    107.65944   -22418.989    14492.596 
  142800    297.56266    -22301.36    114.42013    -22415.78    17833.714 
  143000    303.04798   -22286.615    116.52937   -22403.144     17395.53 
  143200    269.95264   -22310.302     103.8034   -22414.106    6307.9079 
  143400    305.96434   -22302.334    117.65078   -22419.985   -2720.8972 
  143600    320.46022   -22283.882     123.2248   -22407.107   -11977.909 
  143800    250.00418   -22317.404     96.13273   -22413.537    -4414.558 
  144000    285.63781   -22295.001    109.83473   -22404.835   -11280.873 
  144200    308.38357   -22290.153    118.58104   -22408.734    16211.255 
  144400    297.14759   -22299.208    114.26053   -22413.469   -3185.8382 
  144600    302.19777   -22293.389    116.20244   -22409.591   -6431.5109 
  144800    295.08057   -22287.375    113.46571   -22400.841    14800.988 
  145000    271.82484   -22303.167    104.52331    -22407.69   -18811.485 
  145200    292.24387   -22298.985    112.37493    -22411.36   -12183.899 
  145400    362.12049   -22279.718     139.2442   -22418.962   -6276.3496 
  145600    277.56191   -22311.649    106.72935   -22418.378    -5579.434 
  145800    298.23506   -22292.463    114.67869   -22407.142    -3732.781 
  146000    291.84403    -22298.01    112.22118   -22410.232     16621.95 
  146200    298.68387   -22311.662    114.85126   -22426.513     5037.769 
  146400    333.15673   -22289.827    128.10692   -22417.934    -17042.51 
  146600    301.39355    -22295.68     115.8932   -22411.573   -21974.975 
  146800    278.35139   -22316.605    107.03293   -22423.638    5520.1571 
  147000    270.30201   -22310.993    103.93774   -22414.931   -17334.182 
  147200    328.16586   -22290.568    126.18781   -22416.756   -13931.622 
  147400    274.61912   -22313.071    105.59778   -22418.669   -27404.308 
  147600    281.64994    -22300.88     108.3013   -22409.181   -9761.6866 
  147800     291.2834   -22292.928     112.0056   -22404.934    13404.555 
  148000    271.59516   -22303.095    104.43499    -22407.53   -214.39271 
  148200    277.55592   -22283.074    106.72705   -22389.801   -10906.903 
  148400    303.08227   -22294.971    116.54256   -22411.514   -31790.512 
  148600    264.84826   -22302.741    101.84064   -22404.582   -2007.2315 
  148800    306.79404   -22280.852    117.96982   -22398.822   -7068.9067 
  149000    270.71609   -22278.338    104.09697   -22382.435    557.50956 
  149200     290.6521   -22305.337    111.76285     -22417.1   -700.72058 
  149400    292.69406   -22293.402    112.54803    -22405.95   -21521.761 
  149600    333.12525   -22281.785    128.09482    -22409.88   -9665.3856 
  149800    286.07669   -22302.202    110.00349   -22412.205   -7781.3509 
  150000    312.04657   -22282.692    119.98955   -22402.681    22251.285 
  150200    333.66352   -22282.827     128.3018   -22411.129   -21138.228 
  150400    286.30676   -22310.501    110.09196   -22420.593    6281.6316 
  150600     270.3744   -22324.777    103.96558   -22428.742   -12274.707 
  150800    338.46818   -22294.701    130.14931   -22424.851    16211.397 
  151000    291.12438   -22318.893    111.94446   -22430.838    12700.848 
  151200    294.33408   -22313.147    113.17866   -22426.325   -1469.4378 
  151400    347.38137   -22291.238    133.57665   -22424.815    3698.7782 
  151600     289.8566   -22321.353    111.45696    -22432.81   -13136.521 
  151800    286.65305   -22325.022    110.22512   -22435.247    6742.7676 
  152000      323.644   -22300.592    124.44904   -22425.041    4587.2616 
  152200    265.65828   -22318.062    102.15211   -22420.214    1950.8769 
  152400    305.03008   -22319.215    117.29154   -22436.506   -19192.276 
  152600    289.94984   -22296.157    111.49281    -22407.65    8450.2419 
  152800    303.05669     -22311.4    116.53272   -22427.933   -2659.8788 
  153000    280.92706    -22321.91    108.02334   -22429.933   -7627.3492 
  153200    345.73522    -22293.36    132.94366   -22426.303    15799.156 
  153400    331.22664    -22304.39    127.36476   -22431.755   -14032.168 
  153600    313.25533   -22318.771    120.45435   -22439.225    5523.3702 
  153800    322.25792   -22304.343    123.91606   -22428.259   -13959.803 
  154000    330.53168   -22302.691    127.09753   -22429.788   -6249.6423 
  154200    274.38173   -22324.216     105.5065   -22429.723    26809.549 
  154400    309.94336   -22300.099    119.18081   -22419.279   -7063.7978 
  154600    301.72266   -22315.919    116.01975   -22431.938   -6885.5193 
  154800    306.71276   -22320.608    117.93857   -22438.547    -16632.51 
  155000    317.90285   -22301.991    122.24143   -22424.233   -15206.137 
  155200    280.14265   -22332.375    107.72171   -22440.097   -11273.711 
  155400    306.43959   -22315.952    117.83353   -22433.785     13275.34 
  155600    318.96255   -22304.097    122.64891   -22426.745    4509.3512 
  155800    303.90594   -22314.288    116.85928   -22431.148    327.78943 
  156000    287.76569   -22316.077    110.65296   -22426.729    17367.884 
  156200    274.94021   -22336.757    105.72125   -22442.478    5397.6493 
  156400    286.35638   -22313.527    110.11104   -22423.638   -6873.2545 
  156600    308.16129   -22309.615    118.49556   -22428.111   -8193.5945 
  156800    302.32699   -22306.896    116.25213   -22423.148    -475.4661 
  157000    289.96621   -22322.897    111.49911   -22434.396    23747.174 
  157200    291.23784   -22309.703    111.98809   -22421.691    19609.446 
  157400    328.80184   -22302.513    126.43236   -22428.946    1728.0931 
  157600    292.47178   -22318.224    112.46256   -22430.687   -1777.1429 
  157800    291.58062   -22315.671    112.11989   -22427.791    1100.6532 
  158000    336.74655   -22283.149     129.4873   -22412.636     7832.182 
  158200    272.95634   -22316.353     104.9584   -22421.311    17254.426 
  158400    277.21116   -22322.011    106.59448   -22428.606     23494.92 
  158600    321.81556   -22307.873    123.74597   -22431.619    21513.515 
  158800      307.688   -22302.389    118.31357   -22420.702    6312.7907 
  159000    290.39486   -22325.947    111.66394   -22437.611    2808.1073 
  159200    284.39577   -22311.771    109.35714   -22421.128    15303.897 
  159400    337.00958   -22305.837    129.58844   -22435.425    2668.9952 
  159600    280.51002   -22334.353    107.86297   -22442.216   -8897.9466 
  159800    326.99193   -22310.803    125.73641   -22436.539    18411.133 
  160000    266.94453   -22310.361    102.64671   -22413.007    12747.928 
  160200    293.34905   -22324.801     112.7999   -22437.601    3290.1996 
  160400    276.43032   -22319.753    106.29423   -22426.047    3343.7751 
  160600    305.26205   -22303.917    117.38074   -22421.298    12255.282 
  160800    269.75283   -22332.045    103.72657   -22435.772    15613.592 
  161000    260.29034    -22324.05    100.08801   -22424.138     7795.356 
  161200    287.01905    -22308.35    110.36585   -22418.716    26619.526 
  161400    324.57982   -22294.505    124.80889   -22419.314   -9851.7537 
  161600    276.30172   -22325.262    106.24478   -22431.507   -35638.428 
  161800    297.61227   -22315.289    114.43921   -22429.728    40966.805 
  162000    312.28259   -22296.012    120.08031   -22416.092   -31126.376 
  162200    290.58499   -22325.484    111.73705   -22437.221     1506.973 
  162400    307.39358   -22304.927    118.20036   -22423.127   -9930.5312 
  162600    299.87142   -22302.562    115.30791    -22417.87    32209.099 
  162800     287.7111   -22327.447    110.63197   -22438.079    2784.3617 
  163000    300.99353   -22304.279    115.73938   -22420.018    5580.2511 
  163200    311.07235   -22315.681    119.61494   -22435.296   -11178.323 
  163400    261.59476   -22338.749    100.58959   -22439.338    11669.713 
  163600    300.47137   -22311.714     115.5386   -22427.253    21218.636 
  163800    338.53356   -22312.286    130.17445    -22442.46   -8403.0328 
  164000    284.99461   -22324.512    109.58741     -22434.1   -15251.233 
  164200    318.41876   -22298.943    122.43981   -22421.383    4914.4846 
  164400    275.95392    -22323.44    106.11104   -22429.551    7732.9444 
  164600    313.77789   -22312.794    120.65528    -22433.45    11920.553 
  164800    312.27596   -22301.334    120.07776   -22421.412   -8559.9062 
  165000     258.4954   -22333.035    99.397815   -22432.433   -1193.5146 
  165200    299.78511   -22318.182    115.27472   -22433.456   -5066.2082 
  165400    337.88081   -22305.027    129.92345   -22434.951    3105.0558 
  165600     280.1185   -22331.105    107.71243   -22438.818   -19200.286 
  165800    271.13411   -22317.358    104.25771   -22421.616    857.03599 
  166000    303.32817   -22304.891    116.63711   -22421.528    7479.6992 
  166200    304.97357   -22323.277    117.26981   -22440.547    5259.0565 
  166400    275.04567   -22322.576     105.7618   -22428.338   -17838.926 
  166600    302.48484   -22309.536    116.31283   -22425.848    89.956756 
  166800     317.4342    -22318.78    122.06123   -22440.841   -16423.943 
  167000    250.38963   -22334.296    96.280945   -22430.577   -7701.9802 
  167200    301.83571   -22305.356    116.06322   -22421.419    38343.149 
  167400    287.73496   -22321.598    110.64114    -22432.24   -25299.529 
  167600    281.35255   -22330.615    108.18695   -22438.802     -5207.11 
  167800    311.94641   -22298.413    119.95104   -22418.364   -15888.386 
  168000    284.21785    -22318.19    109.28873   -22427.478   -15517.218 
  168200    299.23857   -22319.043    115.06456   -22434.108    23813.141 
  168400    308.01145    -22296.89    118.43795   -22415.328   -23946.751 
  168600    295.50714   -22323.601    113.62973   -22437.231   -30999.525 
  168800    304.82844   -22307.975      117.214   -22425.189    1555.5561 
  169000    260.98879   -22297.424    100.35658    -22397.78    3012.1183 
  169200    294.44918   -22318.775    113.22292   -22431.998    44546.121 
  169400    282.84435   -22302.248    108.76058   -22411.008   -9449.1277 
  169600    328.35929   -22288.496    126.26219   -22414.758   -835.21323 
  169800    267.23042   -22321.547    102.75664   -22424.304    2432.5175 
  170000    282.92676   -22312.786    108.79227   -22421.579    11012.336 
  170200    310.12201   -22294.682    119.24951   -22413.932   -1262.4795 
  170400    316.73378   -22312.498     121.7919   -22434.289   -11616.462 
  170600    272.49306   -22318.321    104.78025   -22423.101   -3152.2289 
  170800    285.26629   -22333.114    109.69188   -22442.806    8338.7826 
  171000    292.86471   -22315.176    112.61366    -22427.79    4116.8391 
  171200    292.10737   -22309.424    112.32244   -22421.747   -14439.183 
  171400    295.10608   -22334.589    113.47552   -22448.064   -2603.0507 
  171600    293.15209   -22308.776    112.72416     -22421.5   -1601.6096 
  171800    297.67739    -22306.68    114.46425   -22421.144    1987.0933 
  172000    300.05593   -22331.362    115.37886   -22446.741   -4908.2397 
  172200    330.62441   -22304.628    127.13319   -22431.762    -2071.074 
  172400    288.36046   -22304.085    110.88166   -22414.967   -6483.5983 
  172600    279.26882   -22319.989     107.3857   -22427.375     11577.33 
  172800    295.83827   -22297.325    113.75706   -22411.082    6111.3805 
  173000    309.50477   -22305.912    119.01217   -22424.925   -2311.1385 
  173200    279.93814   -22316.489    107.64307   -22424.132   -7088.8437 
  173400    346.49113   -22299.316    133.23433    -22432.55    9435.1574 
  173600    322.34277   -22283.262    123.94869   -22407.211   -13519.447 
  173800    302.86281   -22315.047    116.45817   -22431.505   -3299.4784 
  174000     298.8082    -22309.63    114.89907   -22424.529   -3003.1277 
  174200    310.24414   -22291.875    119.29647   -22411.172   -19251.706 
  174400    316.28781   -22313.458    121.62041   -22435.078   -25279.029 
  174600    313.61226   -22310.284     120.5916   -22430.876   -3906.0982 
  174800    353.93226    -22285.29    136.09562   -22421.385   -12372.329 
  175000    291.06941   -22313.312    111.92332   -22425.236   -4968.8634 
  175200    262.10605   -22316.525     100.7862   -22417.311    1069.3216 
  175400    311.53187   -22291.707    119.79163   -22411.499    13868.503 
  175600    282.61496    -22317.09    108.67238   -22425.763   -9324.8261 
  175800    271.72874   -22318.252    104.48636   -22422.738   -6206.6948 
  176000    302.87936   -22296.368    116.46454   -22412.832    24715.055 
  176200    254.07094    -22330.93    97.696502   -22428.626   -1658.5772 
  176400      306.718   -22314.329    117.94058    -22432.27    -14376.22 
  176600     319.6461   -22308.236    122.91176   -22431.148   -21187.631 
  176800    265.95029   -22334.527     102.2644   -22436.791    -4047.529 
  177000    293.39603   -22311.472    112.81796    -22424.29   -2672.7203 
  177200    315.79047   -22311.058    121.42917   -22432.487   -17380.794 
  177400    277.84611    -22340.25    106.83864   -22447.089    5605.6724 
  177600    297.33614   -22320.082    114.33303   -22434.415   -184.16638 
  177800    311.93328   -22312.709    119.94599   -22432.655    50.828099 
  178000    262.09755   -22326.772    100.78293   -22427.555    1766.2545 
  178200    323.56807   -22316.316    124.41985   -22440.736    358.35066 
  178400    293.60506   -22302.144    112.89834   -22415.043   -9343.0042 
  178600    310.16363   -22319.009    119.26551   -22438.275   -3078.8927 
  178800     279.5832   -22319.945    107.50659   -22427.452   -11851.592 
  179000    303.74564    -22301.43    116.79764   -22418.228   -23074.141 
  179200    293.00978   -22302.873    112.66944   -22415.543   -7920.0486 
[...]
  950000    321.72332   -22353.294     123.7105   -22477.004   -16696.688 
  950200    296.90043   -22331.649    114.16549   -22445.814   -4620.4764 
  950400    305.71904   -22344.731    117.55646   -22462.287     18544.62 
  950600    330.91488   -22350.542    127.24488   -22477.787   -2616.4192 
  950800     321.3059   -22329.923    123.54999   -22453.473    13360.105 
  951000    346.17934   -22339.691    133.11444   -22472.806    7938.2349 
  951200    268.84858   -22357.676    103.37886   -22461.055   -11906.263 
  951400    330.83197   -22333.698    127.21299   -22460.911    -1771.889 
  951600    274.35022   -22342.861    105.49438   -22448.355   -4146.7631 
  951800    309.57975   -22354.303      119.041   -22473.344    18189.169 
  952000    259.56372   -22380.471     99.80861    -22480.28   -25337.693 
  952200    269.78178   -22356.285     103.7377   -22460.023   -14273.581 
  952400    292.34974   -22352.033    112.41564   -22464.449    22535.321 
  952600    299.32833   -22354.962    115.09908   -22470.061    10402.867 
  952800    346.32513   -22340.097    133.17049   -22473.268   -1181.5656 
  953000    299.34464   -22345.505    115.10535    -22460.61    4541.1601 
  953200     288.5335   -22357.493     110.9482   -22468.441    28319.162 
  953400    308.08332   -22338.745    118.46558   -22457.211   -13173.913 
  953600    371.90503    -22307.37     143.0066   -22450.377    5158.1906 
  953800    320.93283   -22341.562    123.40653   -22464.969   -19223.203 
  954000     299.9505   -22361.809    115.33832   -22477.147   -5294.9275 
  954200     302.6455   -22340.922    116.37461   -22457.296    5192.0296 
  954400    285.02138    -22342.15     109.5977   -22451.748   -876.52287 
  954600    296.65299   -22345.854    114.07034   -22459.924   -2920.4256 
  954800    278.86353   -22342.233    107.22986   -22449.463    -7048.883 
  955000    322.10768   -22327.249    123.85829   -22451.108    5202.6833 
  955200    294.11779   -22349.265    113.09549   -22462.361   -14622.914 
  955400    303.72563   -22345.423    116.78995   -22462.213    4787.5912 
  955600     349.9377   -22319.987    134.55962   -22454.546    12369.873 
  955800    317.63303   -22327.028    122.13768   -22449.165   -4737.5883 
  956000    292.70183   -22351.445    112.55103   -22463.997    67.858238 
  956200    298.20382   -22334.768    114.66667   -22449.435    9995.3649 
  956400    321.34776   -22347.177    123.56609   -22470.744   -1764.1582 
  956600    301.60668   -22354.292    115.97516   -22470.267   -19509.432 
  956800    341.72495   -22334.608    131.40161   -22466.009     4796.292 
  957000    258.91693   -22363.243    99.559904   -22462.802   -12319.371 
  957200    282.84996   -22355.813    108.76274   -22464.575    19997.244 
  957400    337.11115   -22331.578     129.6275   -22461.206   -20316.559 
  957600    270.37119   -22363.184    103.96435   -22467.148    242.38034 
  957800    296.39858   -22346.069    113.97252   -22460.042    20458.844 
  958000    354.21935   -22339.457    136.20602   -22475.663   -19477.888 
  958200    288.87771   -22350.463    111.08056   -22461.543   -14385.369 
  958400     298.3112   -22353.045    114.70796   -22467.753   -11294.857 
  958600    314.58405   -22335.111    120.96528   -22456.076    2333.1077 
  958800    319.01825   -22346.671    122.67033   -22469.341   -21198.647 
  959000    286.74721   -22357.638    110.26133   -22467.899    17896.205 
  959200    333.39364   -22339.887    128.19802   -22468.085    4531.7351 
  959400    304.57765   -22331.689    117.11757   -22448.806    2823.1922 
  959600    280.70962   -22359.735    107.93972   -22467.675    93.637674 
  959800    322.72877   -22337.438    124.09712   -22461.535   -15061.221 
  960000    330.47097   -22331.647    127.07418   -22458.721    36.776908 
  960200    274.02848   -22344.239    105.37066    -22449.61    163.55519 
  960400    294.51856   -22372.937     113.2496   -22486.187    24360.952 
  960600    296.95321   -22355.115    114.18578   -22469.301    -5487.521 
  960800    307.85945   -22345.421     118.3795     -22463.8   -2557.1182 
  961000    279.61607   -22362.227    107.51923   -22469.746    -3410.651 
  961200    307.48415   -22339.723    118.23519   -22457.958    11690.686 
  961400    303.71261   -22345.135    116.78494    -22461.92   -16347.929 
  961600    304.70768   -22357.826    117.16757   -22474.993    1405.0009 
  961800    329.89763   -22356.146    126.85372       -22483   -13522.031 
  962000    317.91019   -22329.895    122.24425   -22452.139   -3071.4124 
  962200    304.96367   -22331.413      117.266   -22448.679    6153.4574 
  962400    292.54601   -22357.321    112.49111   -22469.812    5928.9761 
  962600    302.56896   -22350.087    116.34518   -22466.432    -14979.75 
  962800    318.75821   -22332.229    122.57034   -22454.799    17243.212 
  963000    304.26901   -22354.448    116.99889   -22471.447    13974.479 
  963200    334.49737    -22342.65    128.62243   -22471.273   -6410.5125 
  963400    306.12915   -22334.419    117.71416   -22452.133    4951.1415 
  963600    268.75706   -22356.231    103.34367   -22459.574   -568.04812 
  963800    313.29824   -22340.921    120.47085   -22461.392     985.4554 
  964000    359.50953   -22327.948    138.24022   -22466.188     17524.61 
  964200    302.23866    -22345.56    116.21817   -22461.779     16099.81 
  964400    277.98963   -22354.391    106.89382   -22461.285    778.96844 
  964600    327.43766   -22331.583     125.9078    -22457.49    14586.805 
  964800    288.48545   -22343.418    110.92972   -22454.348    23532.537 
  965000    259.09292   -22358.358    99.627574   -22457.985    33699.553 
  965200    303.18069   -22342.801     116.5804   -22459.381   -6957.8571 
  965400    314.60866   -22342.167    120.97474   -22463.142   -2814.2425 
  965600    254.89535   -22360.164    98.013504   -22458.177    2987.1771 
  965800    328.96986   -22349.302    126.49697   -22475.799    17310.823 
  966000    344.42529   -22332.382    132.43996   -22464.821   -3946.7094 
  966200    286.55992    -22362.53    110.18931   -22472.719    16608.973 
  966400    315.26945   -22344.513    121.22883   -22465.742   -5278.7387 
  966600    274.77576   -22362.918    105.65801   -22468.576   -3806.9436 
  966800    268.84646   -22365.063    103.37805   -22468.441    18867.572 
  967000    294.66534   -22351.152    113.30604   -22464.458   -4804.0843 
  967200     305.2155   -22353.972    117.36284   -22471.335    20121.722 
  967400    275.07974   -22365.539     105.7749   -22471.314   -5279.3417 
  967600    285.99404    -22340.34    109.97171   -22450.311   -21118.564 
  967800    318.47401   -22356.362    122.46106   -22478.823    11893.163 
  968000    304.83225   -22361.242    117.21547   -22478.458   -3054.2983 
  968200    285.49285   -22341.245      109.779   -22451.024    2436.3237 
  968400    258.56581   -22354.071    99.424888   -22453.496   -15383.443 
  968600    275.60427   -22359.361    105.97659   -22465.337    14522.115 
  968800    288.80669   -22341.948    111.05325   -22453.001   -316.10099 
  969000    348.96315   -22332.168    134.18488   -22466.353    21647.817 
  969200    286.33904   -22340.044    110.10437   -22450.148    22935.018 
  969400    256.95891   -22347.725    98.806997   -22446.532    10200.575 
  969600    308.53787   -22320.643    118.64037   -22439.283   -5527.8114 
  969800    265.01617   -22350.957    101.90521   -22452.862    4546.4426 
  970000    281.31406   -22348.052    108.17215   -22456.224    5518.7126 
  970200     318.8009   -22327.384    122.58676   -22449.971   -364.87247 
  970400    285.80698   -22353.442    109.89979   -22463.342   -16247.177 
  970600     286.7809   -22354.009    110.27428   -22464.283   -7477.4808 
  970800    336.40807   -22332.242    129.35715   -22461.599   -2570.1078 
  971000     276.1521    -22366.33    106.18725   -22472.518    -9784.175 
  971200    284.53059   -22352.644    109.40898   -22462.053    11715.509 
  971400     321.2647   -22335.924    123.53415   -22459.458    -8699.166 
  971600    306.85218   -22345.405    117.99218   -22463.397    863.59738 
  971800    326.53523   -22347.402    125.56079   -22472.963    8647.3839 
  972000    312.70894   -22368.357    120.24425   -22488.601     20149.65 
  972200    288.66346   -22355.471    110.99817   -22466.469    4828.8074 
  972400    316.00653   -22349.038    121.51225    -22470.55    10166.422 
  972600    293.52918   -22351.876    112.86916   -22464.745    7828.9974 
  972800    318.04002   -22328.379    122.29418   -22450.673   -1709.3073 
  973000    313.98691   -22353.434    120.73566   -22474.169    8683.6808 
  973200    264.71286    -22352.21    101.78858   -22453.999    28277.806 
  973400    343.70296   -22331.587    132.16221   -22463.749    5478.1772 
  973600    264.34443   -22356.903    101.64691    -22458.55    1667.6179 
  973800    272.05919   -22344.453    104.61342   -22449.067   -19470.909 
  974000    320.21804   -22340.277    123.13168   -22463.409   -4653.1843 
  974200    286.64754   -22360.528      110.223   -22470.751    16297.451 
  974400    285.39625     -22362.6    109.74185   -22472.342   -4829.0499 
  974600    296.92865   -22351.265    114.17634   -22465.442   -938.64353 
  974800    308.44601   -22329.201    118.60505   -22447.806     -6004.27 
  975000    333.54615   -22324.856    128.25667   -22453.113   -12275.842 
  975200    318.38571   -22350.658    122.42711   -22473.085    15273.268 
  975400    281.53572   -22357.254    108.25738   -22465.511   -5239.0181 
  975600    333.68656   -22328.764    128.31066   -22457.075    -15617.33 
  975800     278.6359   -22347.116    107.14233   -22454.258    794.67709 
  976000    267.14265   -22344.841    102.72289   -22447.564    7031.5333 
  976200    301.61374    -22339.88    115.97787   -22455.858   -5729.7858 
  976400    258.75973   -22373.922    99.499454   -22473.421    2021.7936 
  976600    301.98987   -22348.575     116.1225   -22464.697    2150.6173 
  976800     326.4214   -22351.054    125.51702   -22476.571    -9399.497 
  977000    289.99101   -22369.955    111.50865   -22481.463    8840.4013 
  977200    281.49398   -22355.168    108.24133   -22463.409   -14249.227 
  977400    330.23231   -22342.191    126.98241   -22469.173   -14909.977 
  977600    283.77551   -22371.375    109.11863   -22480.493   -10497.778 
  977800     281.2168   -22349.386    108.13475   -22457.521    11587.361 
  978000    307.53904   -22343.043    118.25629   -22461.299    6094.6411 
  978200    252.72129   -22371.542    97.177528    -22468.72   -2293.7269 
  978400    261.82411   -22355.577    100.67778   -22456.255    422.15847 
  978600    277.65385   -22337.983    106.76471   -22444.748   -6536.0009 
  978800    298.68662   -22347.613    114.85232   -22462.465   -14697.431 
  979000    290.50005   -22358.051    111.70439   -22469.755    25272.007 
  979200    314.99777   -22346.866    121.12436   -22467.991    4777.0755 
  979400    300.48846   -22346.671    115.54517   -22462.216    23611.792 
  979600     329.4499   -22319.391    126.68156   -22446.072    11532.832 
  979800    284.32015   -22344.745    109.32806   -22454.073   -1906.0012 
  980000    257.48639     -22352.5    99.009823    -22451.51    13141.144 
  980200    314.29792   -22328.296    120.85525   -22449.151    452.68434 
  980400    278.56336   -22360.898    107.11444   -22468.012    9069.8146 
  980600    287.39315   -22346.899    110.50971   -22457.408   -4397.8751 
  980800    319.79657   -22335.383    122.96962   -22458.353    6852.5169 
  981000    281.83054   -22365.953    108.37075   -22474.324   -2507.5706 
  981200     307.0791    -22352.05    118.07944    -22470.13   -11161.126 
  981400    344.42039    -22340.63    132.43808   -22473.068   -16127.977 
  981600    289.74604   -22354.219    111.41445   -22465.633    5026.3166 
  981800     292.2965    -22345.62    112.39516   -22458.015     6736.499 
  982000    317.50171   -22332.785    122.08719   -22454.872    13889.479 
  982200    277.82291   -22347.883    106.82972   -22454.713   -5163.2484 
  982400    317.29583   -22348.179    122.00802   -22470.187   -22779.182 
  982600    297.11078   -22350.638    114.24637   -22464.885   -2077.2948 
  982800    274.82758   -22359.193    105.67794   -22464.871   -8982.7175 
  983000     324.0721   -22334.102    124.61366   -22458.716     1737.896 
  983200     279.8914    -22360.98     107.6251   -22468.605    12465.678 
  983400    301.73864   -22353.927     116.0259   -22469.953    8746.0999 
  983600    326.68906   -22340.845    125.61994   -22466.465   -2975.9325 
  983800    269.70259   -22347.003    103.70725    -22450.71   -19137.011 
  984000    303.43335   -22335.856    116.67756   -22452.534    23677.292 
  984200    311.94599   -22316.655    119.95087   -22436.606   -16384.599 
  984400    268.55648   -22341.949    103.26654   -22445.216    33716.166 
  984600     302.8995   -22347.433    116.47228   -22463.905    1969.9171 
  984800    322.23275   -22333.573    123.90639   -22457.479   -15689.801 
  985000    271.85325   -22358.276    104.53423    -22462.81   -17355.663 
  985200    303.59935   -22351.409    116.74139    -22468.15    6021.4104 
  985400    309.05729   -22332.205     118.8401   -22451.045    4542.7673 
  985600    286.29256   -22360.598     110.0865   -22470.685    12474.845 
  985800    311.98656   -22359.214    119.96648    -22479.18    2754.5959 
  986000    347.79539   -22336.832    133.73585   -22470.568    4166.0526 
  986200    280.26471   -22367.139    107.76865   -22474.908    4461.8891 
  986400    311.36416   -22345.416    119.72715   -22465.143    -2287.887 
  986600    258.75217   -22341.385    99.496549   -22440.882    6487.2524 
  986800     275.8645   -22367.187    106.07666   -22473.264   -6375.2315 
  987000    291.87979   -22363.057    112.23493   -22475.292   -1003.3711 
  987200    297.34472   -22351.877    114.33633   -22466.213    11046.064 
  987400    319.33342   -22356.165    122.79152   -22478.956    265.53061 
  987600    280.37101    -22361.81    107.80952    -22469.62   -19415.614 
  987800    319.41178    -22334.91    122.82166   -22457.732   -20126.857 
  988000    278.59459   -22356.638    107.12644   -22463.765   -22589.389 
  988200    280.37036    -22358.68    107.80927    -22466.49   -3261.2039 
  988400    300.21601   -22350.229    115.44041   -22465.669   -19698.535 
  988600    301.38739   -22329.091    115.89084   -22444.982    6394.3366 
  988800    286.27088   -22353.476    110.07817   -22463.555   -16848.416 
  989000    285.92881   -22350.611    109.94663   -22460.557   -4390.6734 
  989200    304.49853   -22333.511    117.08714   -22450.598   -30229.669 
  989400    297.30693   -22354.891     114.3218   -22469.213   -10102.906 
  989600    296.69236   -22353.055    114.08548    -22467.14   -18538.113 
  989800    299.91384   -22334.697    115.32422   -22450.021   -4670.1367 
  990000    305.49893   -22346.612    117.47182   -22464.084    17653.827 
  990200    264.93217   -22370.929    101.87291   -22472.802    11491.512 
  990400    322.87099   -22341.152     124.1518   -22465.304    9606.9706 
  990600     303.4793   -22350.689    116.69522   -22467.385   -2878.8239 
  990800    283.69808   -22365.899    109.08886   -22474.988   -10946.441 
  991000    306.33616   -22338.966    117.79376   -22456.759    2938.5467 
  991200    279.97007   -22358.932    107.65535   -22466.587    8826.0929 
  991400    308.94763   -22345.352    118.79793    -22464.15    326.56655 
  991600    291.90251   -22344.817    112.24367   -22457.061    18003.681 
  991800    304.51936    -22360.24    117.09515   -22477.335    -14685.32 
  992000    340.79763   -22327.513    131.04504   -22458.558    8296.4725 
  992200    302.21336   -22346.106    116.20844   -22462.315    9528.5829 
  992400    284.12029   -22351.305    109.25121   -22460.556   -20820.835 
  992600     312.1809   -22318.265     120.0412   -22438.306    3556.3604 
  992800    324.11911   -22338.717    124.63174   -22463.348    1020.7302 
  993000    304.27664   -22353.285    117.00182   -22470.287    1669.6766 
  993200    269.45829   -22375.606    103.61331   -22479.219    5048.9713 
  993400    289.17715   -22351.608     111.1957   -22462.804    5365.6279 
  993600    313.41655   -22339.817    120.51634   -22460.333    16256.824 
  993800    294.01119   -22353.753     113.0545   -22466.808    -2616.218 
  994000    298.37507   -22362.237    114.73252   -22476.969   -6510.0282 
  994200    328.31719    -22336.77      126.246   -22463.016    3405.9097 
  994400    286.19768   -22350.821    110.05002   -22460.871   -16990.163 
  994600    270.41694   -22371.031    103.98194   -22475.013    19571.892 
  994800    300.18025   -22351.801    115.42666   -22467.228   -2440.7597 
  995000    320.69984   -22349.362    123.31694   -22472.679    321.63215 
  995200    276.25898   -22379.364    106.22834   -22485.592    20352.497 
  995400    291.52962   -22381.979    112.10028   -22494.079    9659.9325 
  995600    330.55444   -22349.824    127.10628    -22476.93   -7201.9935 
  995800      306.134   -22340.861    117.71602   -22458.577   -16560.596 
  996000    269.21657   -22368.697    103.52037   -22472.218   -1565.2856 
  996200    289.34718    -22350.06    111.26108   -22461.321   -22828.167 
  996400    309.23785   -22347.823    118.90953   -22466.733    18310.731 
  996600    306.29297    -22358.92    117.77715   -22476.697   -9367.2342 
  996800    271.67655   -22360.494    104.46629    -22464.96    1252.6694 
  997000    308.23737   -22335.481    118.52482   -22454.006    1752.3362 
  997200    285.42138   -22358.879    109.75151    -22468.63    235.07647 
  997400    274.90918   -22366.945    105.70931   -22472.655   -3328.1946 
  997600    291.52503   -22346.562    112.09852    -22458.66    16365.617 
  997800    350.14782   -22329.364    134.64041   -22464.004   -11353.832 
  998000    261.75073   -22359.632    100.64957   -22460.281    7948.8544 
  998200    281.22202   -22347.658    108.13676   -22455.794   -14086.869 
  998400    319.08709   -22334.199     122.6968   -22456.896     9051.979 
  998600    289.39425   -22362.525    111.27918   -22473.804    11292.506 
  998800    264.81846   -22358.039    101.82919   -22459.868    10722.661 
  999000    307.16535   -22333.479     118.1126   -22451.591    17812.964 
  999200    312.43871   -22343.114    120.14034   -22463.255   -3541.8877 
  999400    288.17743   -22357.273    110.81128   -22468.084    2707.2946 
  999600    312.13429    -22339.93    120.02328   -22459.953   -5600.7713 
  999800    306.75622   -22340.965    117.95528    -22458.92    8505.4188 
 1000000    285.22086   -22366.721    109.67441   -22476.395    7360.3174 
Loop time of 12901.6 on 8 procs for 1000000 steps with 130 atoms

Performance: 1.674 ns/day, 14.335 hours/ns, 77.510 timesteps/s
98.8% CPU use with 8 MPI tasks x no OpenMP threads

MPI task timing breakdown:
Section |  min time  |  avg time  |  max time  |%varavg| %total
---------------------------------------------------------------
Pair    | 8808.5     | 10237      | 10995      | 763.8 | 79.35
Neigh   | 1.8866     | 2.0488     | 2.2033     |   9.7 |  0.02
Comm    | 129.33     | 888.69     | 2318.7     |2596.8 |  6.89
Output  | 0.46137    | 0.49723    | 0.67057    |   9.3 |  0.00
Modify  | 1759.7     | 1762       | 1764       |   3.9 | 13.66
Other   |            | 11.29      |            |       |  0.09

Nlocal:    16.25 ave 43 max 3 min
Histogram: 3 1 1 1 0 0 0 0 0 2
Nghost:    475.625 ave 533 max 413 min
Histogram: 1 2 0 1 0 0 0 1 1 2
Neighs:    1100.25 ave 2652 max 236 min
Histogram: 3 1 1 1 0 0 0 0 0 2

Total # of neighbors = 8802
Ave neighs/atom = 67.7077
Neighbor list builds = 1148
Dangerous builds = 0

Please see the log.cite file for references relevant to this simulation

Total wall time: 3:35:57
