LAMMPS (3 Mar 2020)
# Alpha
clear
units		real
dimension 3
boundary        p p p
atom_style	charge
newton on
read_data       0.900-3.lmp
  orthogonal box = (0 0 0) to (9.6058 9.6058 9.6058)
  2 by 2 by 2 MPI processor grid
  reading atoms ...
  40 atoms
  read_data CPU = 0.00693657 secs

timestep 0.25

# ---------- Define Interatomic Potential ---------------------
pair_style      reax/c NULL
pair_coeff      * * ffield.reax C
WARNING: Changed valency_val to valency_boc for X (../reaxc_ffield.cpp:315)
fix             2 all qeq/reax 1 0.0 10.0 1.0e-6 reax/c

#------------ Equilibration of the system -------------------------
reset_timestep 0

dump 1 all custom 10 min.lammpstrj id type x y z

minimize 1.0e-8 1.0e-8 100000 100000
WARNING: Using 'neigh_modify every 1 delay 0 check yes' setting during minimization (../min.cpp:190)
Neighbor list info ...
  update every 1 steps, delay 0 steps, check yes
  max neighbors/atom: 2000, page size: 100000
  master list distance cutoff = 12
  ghost atom cutoff = 12
  binsize = 6, bins = 2 2 2
  2 neighbor lists, perpetual/occasional/extra = 2 0 0
  (1) pair reax/c, perpetual
      attributes: half, newton off, ghost
      pair build: half/bin/newtoff/ghost
      stencil: half/ghost/bin/3d/newtoff
      bin: standard
  (2) fix qeq/reax, perpetual, copy from (1)
      attributes: half, newton off, ghost
      pair build: copy
      stencil: none
      bin: none
Per MPI rank memory allocation (min/avg/max) = 27.81 | 27.81 | 27.81 Mbytes
Step Temp E_pair E_mol TotEng Press 
       0            0    -6994.414            0    -6994.414    495320.61 
       3            0   -7009.4618            0   -7009.4618    385216.42 
Loop time of 1.70069 on 8 procs for 3 steps with 40 atoms

100.0% CPU use with 8 MPI tasks x no OpenMP threads

Minimization stats:
  Stopping criterion = linesearch alpha is zero
  Energy initial, next-to-last, final = 
        -6994.41398709     -7009.46180674     -7009.46180674
  Force two-norm initial, final = 409.206 637.182
  Force max component initial, final = 42.3393 74.9952
  Final line search alpha, max atom move = 1.94038e-14 1.45519e-12
  Iterations, force evaluations = 3 88

MPI task timing breakdown:
Section |  min time  |  avg time  |  max time  |%varavg| %total
---------------------------------------------------------------
Pair    | 1.4562     | 1.496      | 1.5292     |   2.0 | 87.96
Neigh   | 0          | 0          | 0          |   0.0 |  0.00
Comm    | 0.030237   | 0.063775   | 0.10409    |   9.8 |  3.75
Output  | 0          | 0          | 0          |   0.0 |  0.00
Modify  | 0.13654    | 0.1371     | 0.13745    |   0.1 |  8.06
Other   |            | 0.003806   |            |       |  0.22

Nlocal:    5 ave 5 max 5 min
Histogram: 8 0 0 0 0 0 0 0 0 0
Nghost:    1075 ave 1075 max 1075 min
Histogram: 8 0 0 0 0 0 0 0 0 0
Neighs:    1628 ave 1628 max 1628 min
Histogram: 8 0 0 0 0 0 0 0 0 0

Total # of neighbors = 13024
Ave neighs/atom = 325.6
Neighbor list builds = 0
Dangerous builds = 0

###
min_style cg
minimize 1.0e-8 1.0e-8 100000 100000
WARNING: Using 'neigh_modify every 1 delay 0 check yes' setting during minimization (../min.cpp:190)
Per MPI rank memory allocation (min/avg/max) = 27.81 | 27.81 | 27.81 Mbytes
Step Temp E_pair E_mol TotEng Press 
       3            0   -7009.4618            0   -7009.4618    385216.42 
       4            0   -7009.4618            0   -7009.4618    385216.42 
Loop time of 1.37117 on 8 procs for 1 steps with 40 atoms

100.0% CPU use with 8 MPI tasks x no OpenMP threads

Minimization stats:
  Stopping criterion = linesearch alpha is zero
  Energy initial, next-to-last, final = 
        -7009.46180677     -7009.46180677     -7009.46180674
  Force two-norm initial, final = 637.182 637.182
  Force max component initial, final = 74.9952 74.9952
  Final line search alpha, max atom move = 1.94038e-14 1.45519e-12
  Iterations, force evaluations = 1 70

MPI task timing breakdown:
Section |  min time  |  avg time  |  max time  |%varavg| %total
---------------------------------------------------------------
Pair    | 1.1728     | 1.2065     | 1.2349     |   1.7 | 87.99
Neigh   | 0          | 0          | 0          |   0.0 |  0.00
Comm    | 0.022975   | 0.05134    | 0.085082   |   8.4 |  3.74
Output  | 0          | 0          | 0          |   0.0 |  0.00
Modify  | 0.11006    | 0.11014    | 0.11028    |   0.0 |  8.03
Other   |            | 0.003142   |            |       |  0.23

Nlocal:    5 ave 5 max 5 min
Histogram: 8 0 0 0 0 0 0 0 0 0
Nghost:    1075 ave 1075 max 1075 min
Histogram: 8 0 0 0 0 0 0 0 0 0
Neighs:    1628 ave 1628 max 1628 min
Histogram: 8 0 0 0 0 0 0 0 0 0

Total # of neighbors = 13024
Ave neighs/atom = 325.6
Neighbor list builds = 0
Dangerous builds = 0

###
fix 1 all box/relax iso 0.0
min_style cg
minimize 1.0e-8 1.0e-8 100000 100000
WARNING: Using 'neigh_modify every 1 delay 0 check yes' setting during minimization (../min.cpp:190)
Per MPI rank memory allocation (min/avg/max) = 27.81 | 27.81 | 27.81 Mbytes
Step Temp E_pair E_mol TotEng Press Volume 
       4            0   -7009.4618            0   -7009.4618    385216.42    886.34055 
     238            0   -7197.2606            0   -7197.2606   -17413.882    945.23063 
Loop time of 6.38342 on 8 procs for 234 steps with 40 atoms

99.8% CPU use with 8 MPI tasks x no OpenMP threads

Minimization stats:
  Stopping criterion = energy tolerance
  Energy initial, next-to-last, final = 
        -7009.46180678     -7197.26057647     -7197.26061764
  Force two-norm initial, final = 14951.9 1090.48
  Force max component initial, final = 14938.3 704.885
  Final line search alpha, max atom move = 3.46188e-11 2.44022e-08
  Iterations, force evaluations = 234 370

MPI task timing breakdown:
Section |  min time  |  avg time  |  max time  |%varavg| %total
---------------------------------------------------------------
Pair    | 5.3771     | 5.5665     | 5.7582     |   5.0 | 87.20
Neigh   | 0          | 0          | 0          |   0.0 |  0.00
Comm    | 0.080716   | 0.27296    | 0.46208    |  22.5 |  4.28
Output  | 0.0016118  | 0.0025666  | 0.0040146  |   1.6 |  0.04
Modify  | 0.49587    | 0.49604    | 0.49699    |   0.1 |  7.77
Other   |            | 0.04533    |            |       |  0.71

Nlocal:    5 ave 5 max 5 min
Histogram: 8 0 0 0 0 0 0 0 0 0
Nghost:    1075 ave 1075 max 1075 min
Histogram: 8 0 0 0 0 0 0 0 0 0
Neighs:    1628 ave 1628 max 1628 min
Histogram: 8 0 0 0 0 0 0 0 0 0

Total # of neighbors = 13024
Ave neighs/atom = 325.6
Neighbor list builds = 0
Dangerous builds = 0

unfix 1
###
min_style cg
minimize 1.0e-8 1.0e-8 100000 100000
WARNING: Using 'neigh_modify every 1 delay 0 check yes' setting during minimization (../min.cpp:190)
Per MPI rank memory allocation (min/avg/max) = 27.81 | 27.81 | 27.81 Mbytes
Step Temp E_pair E_mol TotEng Press 
     238            0   -7197.2606            0   -7197.2606   -17413.882 
     241            0   -7200.9217            0   -7200.9217    85261.269 
Loop time of 0.654573 on 8 procs for 3 steps with 40 atoms

99.5% CPU use with 8 MPI tasks x no OpenMP threads

Minimization stats:
  Stopping criterion = energy tolerance
  Energy initial, next-to-last, final = 
        -7197.26061761      -7200.9216518     -7200.92165763
  Force two-norm initial, final = 832.04 14.5723
  Force max component initial, final = 87.1012 2.47242
  Final line search alpha, max atom move = 1.06124e-06 2.62384e-06
  Iterations, force evaluations = 3 37

MPI task timing breakdown:
Section |  min time  |  avg time  |  max time  |%varavg| %total
---------------------------------------------------------------
Pair    | 0.54186    | 0.56333    | 0.58285    |   1.6 | 86.06
Neigh   | 0          | 0          | 0          |   0.0 |  0.00
Comm    | 0.0072348  | 0.026813   | 0.048235   |   7.5 |  4.10
Output  | 6.7464e-05 | 0.00010126 | 0.00014959 |   0.0 |  0.02
Modify  | 0.062435   | 0.062455   | 0.062543   |   0.0 |  9.54
Other   |            | 0.001875   |            |       |  0.29

Nlocal:    5 ave 5 max 5 min
Histogram: 8 0 0 0 0 0 0 0 0 0
Nghost:    1075 ave 1075 max 1075 min
Histogram: 8 0 0 0 0 0 0 0 0 0
Neighs:    1436 ave 1436 max 1436 min
Histogram: 8 0 0 0 0 0 0 0 0 0

Total # of neighbors = 11488
Ave neighs/atom = 287.2
Neighbor list builds = 0
Dangerous builds = 0

###
fix 1 all box/relax iso 0.0
min_style cg
minimize 1.0e-8 1.0e-8 100000 100000
WARNING: Using 'neigh_modify every 1 delay 0 check yes' setting during minimization (../min.cpp:190)
Per MPI rank memory allocation (min/avg/max) = 27.81 | 27.81 | 27.81 Mbytes
Step Temp E_pair E_mol TotEng Press Volume 
     241            0   -7200.9217            0   -7200.9217    85261.269    945.23063 
     286            0   -7211.6985            0   -7211.6985   -13875.744    957.13845 
Loop time of 1.64089 on 8 procs for 45 steps with 40 atoms

99.8% CPU use with 8 MPI tasks x no OpenMP threads

Minimization stats:
  Stopping criterion = linesearch alpha is zero
  Energy initial, next-to-last, final = 
        -7200.92165754     -7211.69846059     -7211.69846057
  Force two-norm initial, final = 3526.07 801.262
  Force max component initial, final = 3526.04 578.65
  Final line search alpha, max atom move = 1.03006e-14 5.96046e-12
  Iterations, force evaluations = 45 96

MPI task timing breakdown:
Section |  min time  |  avg time  |  max time  |%varavg| %total
---------------------------------------------------------------
Pair    | 1.379      | 1.4335     | 1.4798     |   2.5 | 87.36
Neigh   | 0          | 0          | 0          |   0.0 |  0.00
Comm    | 0.020489   | 0.067073   | 0.12151    |  11.7 |  4.09
Output  | 0.00038718 | 0.00053342 | 0.00073526 |   0.0 |  0.03
Modify  | 0.1289     | 0.12897    | 0.12919    |   0.0 |  7.86
Other   |            | 0.01084    |            |       |  0.66

Nlocal:    5 ave 5 max 5 min
Histogram: 8 0 0 0 0 0 0 0 0 0
Nghost:    1075 ave 1075 max 1075 min
Histogram: 8 0 0 0 0 0 0 0 0 0
Neighs:    1436 ave 1436 max 1436 min
Histogram: 8 0 0 0 0 0 0 0 0 0

Total # of neighbors = 11488
Ave neighs/atom = 287.2
Neighbor list builds = 0
Dangerous builds = 0

unfix 1
###
min_style cg
minimize 1.0e-8 1.0e-8 100000 100000
WARNING: Using 'neigh_modify every 1 delay 0 check yes' setting during minimization (../min.cpp:190)
Per MPI rank memory allocation (min/avg/max) = 27.81 | 27.81 | 27.81 Mbytes
Step Temp E_pair E_mol TotEng Press 
     286            0   -7211.6985            0   -7211.6985   -13875.744 
     291            0   -7212.4923            0   -7212.4923    48201.238 
Loop time of 0.986536 on 8 procs for 5 steps with 40 atoms

99.5% CPU use with 8 MPI tasks x no OpenMP threads

Minimization stats:
  Stopping criterion = energy tolerance
  Energy initial, next-to-last, final = 
         -7211.6984606      -7212.4922836     -7212.49231788
  Force two-norm initial, final = 554.244 14.882
  Force max component initial, final = 60.3087 2.49533
  Final line search alpha, max atom move = 1.00506e-06 2.50796e-06
  Iterations, force evaluations = 5 57

MPI task timing breakdown:
Section |  min time  |  avg time  |  max time  |%varavg| %total
---------------------------------------------------------------
Pair    | 0.81075    | 0.83885    | 0.86553    |   1.9 | 85.03
Neigh   | 0          | 0          | 0          |   0.0 |  0.00
Comm    | 0.017825   | 0.044646   | 0.072756   |   8.3 |  4.53
Output  | 0.00010364 | 0.00013584 | 0.00021021 |   0.0 |  0.01
Modify  | 0.099725   | 0.099783   | 0.099963   |   0.0 | 10.11
Other   |            | 0.003122   |            |       |  0.32

Nlocal:    5 ave 5 max 5 min
Histogram: 8 0 0 0 0 0 0 0 0 0
Nghost:    1075 ave 1075 max 1075 min
Histogram: 8 0 0 0 0 0 0 0 0 0
Neighs:    1388 ave 1388 max 1388 min
Histogram: 8 0 0 0 0 0 0 0 0 0

Total # of neighbors = 11104
Ave neighs/atom = 277.6
Neighbor list builds = 0
Dangerous builds = 0

undump 1
#############
#----------- Thermo ------------
reset_timestep 0
thermo  200

thermo_style    custom step temp etotal ke pe press
velocity all create 300 12345 mom yes rot yes
fix 1 all npt temp 300 300 25.0 iso 0.0 0.0 250.0

variable vpe equal pe
variable vtemp equal temp
variable vstep equal step

fix output all print 2500 "${vstep} ${vtemp} ${vpe}" file temp-tpdh-Pt.dat screen no

dump 1 all custom 2500 thermo-tpdh-Pt.lammpstrj id type x y z

run 1000000
Per MPI rank memory allocation (min/avg/max) = 26.68 | 26.68 | 26.68 Mbytes
Step Temp TotEng KinEng PotEng Press 
       0          300   -7177.6168    34.875478   -7212.4923    49866.867 
     200    236.03497   -7164.2795    27.439441   -7191.7189   -34219.191 
     400    240.54052   -7143.6878    27.963218   -7171.6511     26052.01 
     600    302.85547   -7140.1076    35.207431    -7175.315   -10811.748 
     800    319.01157   -7155.1506    37.085603   -7192.2362    20074.127 
    1000    283.14238   -7153.8216    32.915753   -7186.7374     14316.67 
    1200    323.87331   -7136.3598    37.650787   -7174.0106   -33033.008 
    1400    315.10474   -7143.9677    36.631427   -7180.5991    6497.8687 
    1600    228.99971   -7153.7566     26.62158   -7180.3782    -3740.047 
    1800    212.78566    -7161.853    24.736672   -7186.5897   -32318.156 
    2000    342.52954   -7147.3987    39.819604   -7187.2183    8993.5745 
    2200    341.19756   -7143.3063    39.664759   -7182.9711    20407.595 
    2400    249.94103   -7157.2957    29.056043   -7186.3518    402.88678 
    2600    355.85199   -7143.7419     41.36836   -7185.1102   -5434.2275 
    2800    304.06757   -7153.1045    35.348339   -7188.4528   -11514.428 
    3000    295.79411   -7150.4574    34.386536   -7184.8439   -12011.919 
    3200     329.9712   -7135.7605    38.359677   -7174.1202    40683.114 
    3400    287.96167   -7147.3558    33.476002   -7180.8318    21361.029 
    3600    247.61657   -7157.3593    28.785821   -7186.1451   -416.92141 
    3800    313.79709    -7148.098    36.479412   -7184.5774   -9331.6981 
    4000    352.21824   -7139.8192    40.945931   -7180.7651   -15306.394 
    4200    273.80174   -7143.1858    31.829888   -7175.0157    18919.342 
    4400    297.02627   -7154.5363    34.529777   -7189.0661    23518.058 
    4600    299.25277   -7160.9135    34.788611   -7195.7022    2265.7422 
    4800    250.61959   -7154.3748    29.134926   -7183.5097   -6203.2695 
    5000    259.95207   -7142.2591    30.219841   -7172.4789     36686.65 
    5200    364.94551   -7136.2183    42.425497   -7178.6438   -9220.7607 
    5400    331.11884   -7153.7829    38.493092    -7192.276    16.809391 
    5600    338.73989   -7152.3664    39.379051   -7191.7455    8750.5018 
    5800    349.30763   -7134.3279    40.607569   -7174.9355   -4547.9424 
    6000    268.84875   -7140.5191    31.254096   -7171.7732   -3647.7748 
    6200     269.2778   -7151.5428    31.303973   -7182.8468    7288.2332 
    6400     352.6883    -7145.414    41.000576   -7186.4146   -9637.5352 
    6600    309.24564   -7160.1421    35.950298   -7196.0924    10849.538 
    6800    230.66012    -7149.294    26.814606   -7176.1086   -4578.9811 
    7000    285.09092   -7142.4569    33.142274   -7175.5991   -7844.3259 
    7200    266.51068   -7149.6571    30.982291   -7180.6393    43967.181 
    7400    250.63835   -7157.2133    29.137107   -7186.3505   -38876.946 
    7600    288.63265   -7148.7259    33.554005   -7182.2799     1643.805 
    7800    284.62507   -7140.6417    33.088117   -7173.7298   -40411.826 
    8000    344.63747   -7141.7075    40.064654   -7181.7721    5142.1655 
    8200    257.29018   -7157.3208    29.910393   -7187.2312   -9397.5844 
    8400    342.73751    -7144.691    39.843781   -7184.5347   -7486.8424 
    8600    323.57957   -7143.6551     37.61664   -7181.2718   -4943.7057 
    8800    290.82277   -7150.0307     33.80861   -7183.8393   -25254.396 
    9000    251.35743   -7153.8006    29.220702   -7183.0213    9046.4772 
    9200    298.06757   -7142.6321    34.650829   -7177.2829    10948.171 
    9400    231.32336     -7154.93    26.891709   -7181.8217    4884.2811 
    9600    274.99874   -7149.0978    31.969042   -7181.0668   -3553.0531 
    9800    322.93701   -7145.8973    37.541942   -7183.4393   -8245.3669 
   10000     255.7542   -7156.4547    29.731833   -7186.1866    15344.106 
   10200    237.45708    -7158.037    27.604764   -7185.6418   -8708.4825 
   10400    266.42976   -7148.7464    30.972884   -7179.7193   -174.27661 
   10600     339.2973   -7139.9594    39.443851   -7179.4033    13197.025 
   10800    255.39019   -7155.4693    29.689516   -7185.1588   -20569.155 
   11000    284.49915   -7151.5838    33.073479   -7184.6572    18112.353 
   11200    314.04705   -7146.0651     36.50847   -7182.5735    2944.8768 
   11400    362.77789   -7145.4269    42.173508   -7187.6004    11445.293 
   11600    248.51873   -7157.0819    28.890698   -7185.9726     9216.673 
   11800    334.45231   -7152.4656    38.880614   -7191.3462    2777.6289 
   12000    320.33665     -7144.06    37.239646   -7181.2996   -3394.4875 
   12200    219.48948   -7157.1824    25.516001   -7182.6984    8793.2108 
   12400    344.76011   -7145.1734    40.078912   -7185.2523   -5939.5431 
   12600    328.72517   -7146.3405    38.214824   -7184.5553    496.65221 
   12800    271.54482   -7155.0477    31.567517   -7186.6153    -13226.61 
   13000    354.34585   -7135.8616    41.193269   -7177.0549    17297.816 
   13200    260.95587   -7147.0169    30.336536   -7177.3534    -8820.159 
   13400    262.33103   -7152.7845      30.4964   -7183.2809    7148.5841 
   13600    351.55317   -7133.9497    40.868616   -7174.8183    32039.626 
   13800      272.234   -7148.0201    31.647636   -7179.6677    1285.3153 
   14000    287.32225   -7149.1159    33.401669   -7182.5176    14093.579 
   14200    385.75866   -7131.6334    44.845058   -7176.4784     -18688.8 
   14400    324.73087   -7142.4921    37.750481   -7180.2426   -7180.2625 
   14600    269.38268   -7152.3102    31.316166   -7183.6264    150.87725 
   14800    349.47104   -7145.8805    40.626564   -7186.5071   -5650.4075 
   15000    339.29373   -7138.3739    39.443436   -7177.8173      22055.9 
   15200    295.40915   -7149.6092    34.341784   -7183.9509   -11851.153 
   15400    323.76025   -7147.5866    37.637644   -7185.2243    14406.097 
   15600    270.19832   -7155.1667    31.410985   -7186.5777   -1764.1153 
   15800    275.56886   -7154.1685    32.035318   -7186.2038    20345.884 
   16000    297.18169   -7143.7377    34.547845   -7178.2856    10536.651 
   16200    278.93161   -7154.7127    32.426243    -7187.139    31257.128 
   16400    298.96694   -7155.6373    34.755383   -7190.3927     389.4342 
   16600    278.53923   -7145.4574    32.380629   -7177.8381   -6342.8967 
   16800    286.15516   -7151.4929    33.265993   -7184.7589    12694.882 
   17000    283.08585   -7150.3191    32.909181   -7183.2283   -8366.7012 
   17200    335.27574   -7141.2136    38.976339   -7180.1899    25354.898 
   17400    249.49246   -7157.5849    29.003895   -7186.5888    58.259813 
   17600    270.17175   -7149.5505    31.407896   -7180.9584    18980.373 
   17800    334.74684   -7141.9593    38.914853   -7180.8742    8665.3781 
   18000    283.96678   -7154.6145     33.01159   -7187.6261   -17859.779 
   18200     281.6956   -7151.7853    32.747561   -7184.5329    29868.615 
   18400    346.14317   -7143.0231    40.239695   -7183.2628   -14214.325 
   18600    242.17564   -7151.7818    28.153304   -7179.9352    30129.692 
   18800    369.26483      -7132.3    42.927625   -7175.2276    12002.241 
   19000     339.1013   -7141.0054    39.421066   -7180.4265    13984.321 
   19200    283.20733    -7153.394    32.923302   -7186.3173    -4639.783 
   19400    309.06873   -7146.0905    35.929732   -7182.0202    9759.3885 
   19600    337.01608   -7140.4539    39.178656   -7179.6326   -15065.153 
   19800    262.24965   -7151.1749    30.486939   -7181.6618    1345.0268 
   20000    302.22736   -7148.3574    35.134412   -7183.4918   -8499.9001 
   20200    321.90009   -7144.1861    37.421398   -7181.6075   -1757.8821 
   20400     280.1418   -7151.7065     32.56693   -7184.2735    417.76348 
   20600    262.34805   -7150.4137    30.498378   -7180.9121   -5827.8899 
   20800    326.00211   -7139.6445    37.898264   -7177.5427   -23613.652 
   21000    270.40105   -7149.9651    31.434553   -7181.3996    18865.913 
   21200    307.18205    -7148.856    35.710403   -7184.5664    4299.6577 
   21400    328.31515   -7134.6984    38.167158   -7172.8655    4200.9549 
   21600    229.67837   -7146.5721    26.700476   -7173.2726   -8953.0191 
   21800    261.20267   -7150.5098    30.365226   -7180.8751    13002.811 
   22000    283.37648   -7139.4886    32.942967   -7172.4315    -5645.488 
   22200    329.37434   -7140.0817    38.290292    -7178.372   -7344.7857 
   22400    289.10425   -7149.6131     33.60883   -7183.2219   -5737.6058 
   22600    378.86543   -7141.4753    44.043709    -7185.519   -4003.8078 
   22800    278.86122   -7148.2099    32.418061   -7180.6279   -23026.494 
   23000    260.84271    -7152.656    30.323381   -7182.9794   -5574.1939 
   23200    310.76577   -7139.8501    36.127015   -7175.9772   -20749.978 
   23400    339.48936   -7142.0112    39.466179   -7181.4773    3825.9831 
   23600    246.84059   -7152.2634    28.695612    -7180.959    9516.4412 
   23800    282.86761   -7149.2936     32.88381   -7182.1774   -14040.913 
   24000    300.76882     -7146.41    34.964854   -7181.3749    7968.4567 
   24200    267.14706   -7149.3216    31.056271   -7180.3779   -9503.4002 
   24400    297.99539   -7141.2241    34.642439   -7175.8666    34372.194 
   24600    257.57448   -7154.7145    29.943443   -7184.6579    -362.5075 
   24800    280.15875    -7149.482    32.568901   -7182.0509   -37734.128 
   25000    290.56555   -7146.3527    33.778708   -7180.1314   -6241.2373 
   25200    314.99758   -7149.9435     36.61897   -7186.5625     3467.307 
   25400    235.85407   -7162.6297    27.418411   -7190.0481    11141.773 
   25600    327.70273    -7147.713    38.095964   -7185.8089    2943.9407 
   25800    287.47753   -7150.2104     33.41972   -7183.6302    10294.437 
   26000    316.64515   -7140.8779    36.810503   -7177.6884     640.4593 
   26200    322.53409   -7141.3339    37.495101    -7178.829   -1938.4302 
   26400    303.80992   -7152.7962    35.318387   -7188.1145   -4300.4018 
   26600    403.56874   -7141.7162    46.915508   -7188.6317    22843.382 
   26800    304.12942   -7144.0257    35.355529   -7179.3812    18804.697 
   27000    251.94756   -7149.1279    29.289305   -7178.4172   -9699.5027 
   27200    351.48044   -7139.4391    40.860161   -7180.2993   -27981.363 
   27400    272.78904   -7154.6939     31.71216    -7186.406   -16736.545 
   27600    287.59314   -7151.5227     33.43316   -7184.9558   -5558.0358 
   27800    319.40695   -7140.2663    37.131566   -7177.3979    14837.321 
   28000    327.07231   -7128.2107    38.022677   -7166.2334    8838.1528 
   28200    276.80801   -7150.5606    32.179372     -7182.74   -16216.647 
   28400    302.55386   -7149.4551    35.172368   -7184.6275   -4993.3239 
   28600    280.42112   -7152.4667    32.599401   -7185.0661    12151.809 
   28800    331.79327   -7141.5336    38.571495   -7180.1051     1965.414 
   29000    280.72965   -7148.9172    32.635269   -7181.5525   -19395.867 
   29200    277.32707   -7154.7893    32.239714    -7187.029    15037.033 
   29400    314.91236   -7139.8257    36.609063   -7176.4348    -10248.96 
   29600    285.84265   -7149.6561    33.229663   -7182.8858    15632.092 
   29800    281.81697   -7146.0191    32.761671   -7178.7808    14289.274 
   30000    351.53301   -7139.7785    40.866272   -7180.6448    6427.4837 
   30200    246.15987   -7155.1637    28.616477   -7183.7801    7766.8202 
   30400    275.08152    -7148.333    31.978665   -7180.3116   -14015.918 
   30600     307.1456   -7134.4145    35.706165   -7170.1207    23019.796 
   30800    287.41477   -7145.8323    33.412424   -7179.2447     16785.65 
   31000    344.56735   -7143.4928    40.056503   -7183.5493   -11155.381 
   31200    293.50203   -7157.3719    34.120078    -7191.492    -1050.796 
   31400    301.48914   -7153.7211    35.048593   -7188.7697   -28206.796 
   31600    326.37154   -7145.5676    37.941211   -7183.5088    -7008.523 
   31800     341.3239   -7142.7979    39.679447   -7182.4774   -11490.781 
   32000    226.70094   -7159.5704    26.354345   -7185.9247    17552.115 
   32200    286.73344   -7147.6896    33.333218   -7181.0228    17843.819 
   32400    308.18853   -7145.1432    35.827407   -7180.9706   -5185.4478 
   32600    294.93675   -7150.6601    34.286867    -7184.947    22801.423 
   32800    285.29015   -7150.6307    33.165434   -7183.7961   -9859.3368 
   33000    304.89505   -7143.1656    35.444535   -7178.6101     29166.76 
   33200    264.51736   -7158.2583    30.750564   -7189.0088    -2969.566 
   33400    350.26148   -7148.8488    40.718454   -7189.5672    1817.2925 
   33600    389.23621   -7139.0937     45.24933    -7184.343   -8371.6898 
   33800    294.65122   -7153.3983    34.253674   -7187.6519   -12187.822 
   34000    234.06397   -7152.4156    27.210309   -7179.6259     11607.45 
   34200    313.17426     -7139.75    36.407006    -7176.157   -9338.6019 
   34400    303.11344   -7139.5978     35.23742   -7174.8353   -2224.6554 
   34600    264.05141    -7153.533    30.696397   -7184.2294    16311.933 
   34800    362.91624   -7141.9199    42.189591   -7184.1095    18932.782 
   35000     389.8431   -7133.6554    45.319881   -7178.9753   -1876.9071 
   35200    328.61351   -7150.8318    38.201844   -7189.0337   -10112.219 
   35400    336.93503   -7138.8554    39.169233   -7178.0246    26213.441 
   35600    278.20587   -7145.3871    32.341876    -7177.729   -48228.757 
   35800    347.46779   -7151.4949    40.393684   -7191.8886    19130.061 
   36000    313.71216   -7142.3611    36.469538   -7178.8307   -26632.857 
   36200    300.48558   -7134.3367    34.931927   -7169.2686     15372.42 
   36400    318.58348   -7149.7122    37.035836    -7186.748   -16401.114 
   36600    339.68694   -7149.0191    39.489148   -7188.5083    10229.432 
   36800    301.47963   -7144.4224    35.047487   -7179.4699   -10314.429 
   37000    284.61536   -7157.4162    33.086989   -7190.5032   -10868.491 
   37200    338.40791   -7143.4571    39.340458   -7182.7975   -24557.264 
   37400    275.55101   -7149.8988    32.033244   -7181.9321   -13341.633 
   37600    236.70921   -7161.1918    27.517823   -7188.7096    -7567.335 
   37800    325.16854   -7143.0061    37.801361   -7180.8075    7547.3442 
   38000    338.20414   -7143.7196     39.31677   -7183.0363    -14552.45 
   38200    261.32192   -7155.0761    30.379089   -7185.4551   -2606.0797 
   38400    353.88014   -7136.4001     41.13913   -7177.5392   -7473.0793 
   38600    336.24111   -7145.9222    39.088564   -7185.0108    3142.3438 
   38800    316.18902   -7146.2658    36.757477   -7183.0233    9037.4993 
   39000     285.2265   -7138.8719    33.158035     -7172.03    5691.4624 
   39200    306.28319   -7143.3022    35.605909   -7178.9082   -27317.216 
   39400    298.48995   -7150.6932    34.699931   -7185.3932    57823.055 
   39600    343.96436   -7143.1568    39.986405   -7183.1432   -40726.256 
   39800    263.18923     -7140.75    30.596167   -7171.3462    19148.497 
   40000    230.40994   -7158.3003    26.785522   -7185.0859   -10875.323 
   40200    283.78108   -7149.9456    32.990002   -7182.9356    15123.459 
   40400    315.55384   -7145.4525    36.683636   -7182.1361    7584.5607 
   40600    295.15068   -7146.4629    34.311736   -7180.7746    16298.144 
   40800    282.65464   -7147.7081    32.859052   -7180.5671   -7008.2464 
   41000    304.94991   -7152.6791    35.450912     -7188.13    42838.609 
   41200    297.88493   -7154.5563    34.629598   -7189.1859    -31299.83 
   41400    310.89107   -7141.1695    36.141582   -7177.3111   -842.64771 
   41600    249.40563   -7153.9296    28.993801   -7182.9234   -8676.3312 
   41800    243.24062   -7155.9387    28.277109   -7184.2158    31675.111 
   42000    339.57007   -7147.2635    39.475561    -7186.739   -18090.509 
   42200    362.43304   -7151.4551    42.133417   -7193.5886    10859.305 
   42400     286.9765   -7157.1885    33.361475     -7190.55   -26575.648 
   42600    283.58069   -7142.7018    32.966707   -7175.6685   -36209.967 
   42800    286.88503   -7150.2178    33.350841   -7183.5687    15860.707 
   43000    218.37334   -7159.0126    25.386249   -7184.3988   -6240.2284 
   43200     276.0401   -7157.8425    32.090101   -7189.9326    5673.6419 
   43400    382.29908   -7143.5854    44.442877   -7188.0283   -2908.3278 
   43600    280.74336   -7150.3665    32.636862   -7183.0034    -18410.68 
   43800    345.63182   -7134.0166    40.180249   -7174.1969    11289.286 
   44000    305.81469   -7145.3751    35.551444   -7180.9266   -16378.323 
   44200     300.1553   -7149.4757    34.893532   -7184.3692    15621.364 
   44400    339.83838   -7142.5082    39.506752   -7182.0149   -10996.069 
   44600    332.47144   -7141.7432    38.650334   -7180.3936    2949.0894 
   44800    320.74438   -7148.9432    37.287045   -7186.2302   -6468.9518 
   45000    340.62324   -7142.4541    39.597994   -7182.0521   -9255.7248 
   45200     258.6542   -7144.6033    30.068962   -7174.6723     33324.18 
   45400    273.87817   -7155.6471    31.838773   -7187.4859    5914.8695 
   45600    301.12489   -7146.9171    35.006247   -7181.9233    5253.9136 
   45800    275.84103   -7147.7277    32.066959   -7179.7947   -9093.3657 
   46000    284.38814   -7149.1095    33.060574   -7182.1701   -6387.5127 
   46200    305.10899   -7150.9606    35.469405     -7186.43   -33739.543 
   46400    266.25943   -7145.3224    30.953082   -7176.2755   -24082.188 
   46600    263.11424   -7149.4049     30.58745   -7179.9923    31226.885 
   46800    320.41695    -7152.642    37.248981    -7189.891   -1245.8708 
   47000     388.2233   -7143.1003    45.131577   -7188.2319    2178.3814 
   47200    318.78011   -7145.9071    37.058695   -7182.9658   -4234.4634 
   47400    293.17301   -7153.4238    34.081829   -7187.5057   -8091.6081 
   47600    307.04377   -7150.0452    35.694327   -7185.7395   -13141.315 
   47800    312.75278   -7140.8183    36.358008   -7177.1763    37965.639 
   48000    278.10826   -7150.6907    32.330528   -7183.0212   -33591.996 
   48200    276.93709   -7150.8816    32.194378    -7183.076     8112.055 
   48400    395.68614   -7131.8865    45.999144   -7177.8856   -43893.665 
   48600    291.15017   -7146.3059    33.846671   -7180.1526   -1744.2172 
   48800    268.15822   -7151.1036     31.17382   -7182.2774   -11177.346 
   49000    392.80047    -7137.948     45.66368   -7183.6117   -12983.292 
   49200    343.00008   -7146.6902    39.874306   -7186.5645    10546.803 
   49400    269.70695   -7152.6058    31.353863   -7183.9597    1735.3374 
   49600    290.35366   -7144.7892    33.754075   -7178.5433    -23725.71 
   49800    294.15846   -7156.5504    34.196389   -7190.7468    13413.106 
   50000    307.44746     -7152.53    35.741257   -7188.2713   -10977.518 
   50200    252.04077   -7145.6401    29.300141   -7174.9402   -7929.9497 
   50400     280.2591   -7153.3074    32.580566    -7185.888   -22433.873 
   50600     267.1503   -7155.1999    31.056647   -7186.2565    3317.7757 
   50800    334.35734   -7144.3361    38.869573   -7183.2057    7097.8831 
   51000     265.7335   -7150.3785    30.891943   -7181.2704    13794.515 
   51200     233.4416   -7148.6162    27.137957   -7175.7542     12766.33 
   51400    324.94213   -7145.7093     37.77504   -7183.4844    8906.2854 
   51600    306.18355    -7154.946    35.594325   -7190.5404    6541.8989 
   51800     246.3699   -7158.4833    28.640893   -7187.1242   -5110.7666 
   52000    262.31176   -7142.8969     30.49416    -7173.391   -470.17306 
   52200    346.85144   -7148.1421    40.322033   -7188.4642     7732.368 
   52400    279.62952   -7159.8452    32.507377   -7192.3526   -21391.586 
   52600    289.19615   -7151.3692    33.619512   -7184.9887   -9855.4454 
   52800    282.88884   -7143.2377    32.886278    -7176.124    31291.495 
   53000    280.70088   -7158.1363    32.631924   -7190.7682    5870.0224 
   53200    323.98576    -7146.058    37.663861   -7183.7218    8913.6675 
   53400    308.76607   -7148.2138    35.894548   -7184.1083   -21058.094 
   53600    259.89611   -7155.8612    30.213337   -7186.0745     14443.55 
   53800    282.86723   -7145.4701    32.883766   -7178.3538   -16782.745 
   54000    324.00246   -7141.1731    37.665802   -7178.8389   -1959.4564 
   54200    274.67785   -7153.2451    31.931737   -7185.1769   -25140.657 
   54400    295.70768   -7149.2048    34.376488   -7183.5813    14181.962 
   54600    327.87477   -7145.4342    38.115963   -7183.5501   -26598.423 
   54800    289.58387   -7151.4878    33.664586   -7185.1524    43270.024 
   55000    343.25431   -7142.4877     39.90386   -7182.3916   -23543.599 
   55200      356.969   -7143.1184    41.498215   -7184.6166    13892.688 
   55400    272.27293   -7154.2737    31.652161   -7185.9259    -412.0151 
   55600     340.4539   -7140.8074    39.578308   -7180.3858   -27727.473 
   55800    264.04929   -7145.9392     30.69615   -7176.6353    4023.3675 
   56000     211.7418   -7162.8808    24.615321   -7187.4961    9677.9204 
   56200    332.53585   -7153.8318    38.657822   -7192.4896   -6948.4292 
   56400    309.13417   -7143.7004    35.937339   -7179.6378    16699.701 
   56600    247.21289   -7157.0898    28.738891   -7185.8287    31788.176 
   56800    323.76873   -7150.6147     37.63863   -7188.2533    9624.0934 
   57000     366.7301   -7144.4778    42.632958   -7187.1107    2148.3533 
   57200    245.91852   -7155.9502     28.58842   -7184.5386   -20293.836 
   57400    304.56984   -7139.6671    35.406729   -7175.0739     34875.43 
   57600     335.2637   -7143.2866    38.974939   -7182.2616    -19515.65 
   57800    319.13254   -7150.8902    37.099666   -7187.9899    20761.551 
   58000    272.19511    -7150.067    31.643115   -7181.7101    11946.423 
   58200    256.98316   -7148.6988    29.874702   -7178.5735    5850.7086 
   58400    340.66577   -7139.7774    39.602938   -7179.3803    11524.658 
   58600     331.2573   -7140.4677    38.509189   -7178.9769    11921.902 
   58800     246.3094    -7152.539     28.63386   -7181.1728     16530.35 
   59000    284.03486   -7146.6359    33.019504   -7179.6554    2465.2576 
   59200    356.15699   -7135.3047    41.403817   -7176.7086    8557.4968 
   59400     289.0033   -7149.4695    33.597094   -7183.0666   -15476.597 
   59600    259.97196   -7152.9755    30.222154   -7183.1977   -32085.924 
   59800    345.18051   -7144.5623    40.127784     -7184.69     3069.694 
   60000    328.21713   -7147.3547    38.155764   -7185.5105    15912.495 
   60200    283.39755   -7145.7809    32.945417   -7178.7263    25673.171 
   60400    321.44674   -7140.3864    37.368695   -7177.7551   -7230.3017 
   60600    290.14261   -7157.9986     33.72954   -7191.7282    4872.9385 
   60800    266.45524    -7147.268    30.975846   -7178.2439   -5874.7365 
   61000    268.26388   -7146.4682    31.186103   -7177.6543   -7202.1203 
   61200    291.90131    -7150.114    33.933992    -7184.048   -16486.262 
   61400    257.03477   -7157.5605    29.880701   -7187.4412    22676.727 
   61600    258.16662   -7141.7658     30.01228   -7171.7781    -45054.66 
   61800    289.29594   -7147.6725    33.631114   -7181.3036    5330.5491 
   62000     358.1251   -7147.4551    41.632613   -7189.0878   -30395.348 
   62200    306.57003   -7139.4575    35.639254   -7175.0967    29969.019 
   62400    318.76568   -7151.8587    37.057018   -7188.9157   -15972.764 
   62600     331.0673    -7151.243      38.4871   -7189.7301    11501.859 
   62800    340.29037   -7140.4005    39.559298   -7179.9598   -22323.148 
   63000     290.5024   -7153.1772    33.771367   -7186.9486    23590.701 
   63200    266.75847   -7153.1819    31.011097    -7184.193    -34520.74 
   63400    330.26757   -7146.0816    38.394131   -7184.4757   -24999.792 
   63600    316.63185   -7133.1664    36.808957   -7169.9754    19541.467 
   63800    266.96476   -7150.4477    31.035078   -7181.4828   -18831.378 
   64000    270.74111   -7150.3168    31.474085   -7181.7909   -19366.645 
   64200    272.49928    -7140.668    31.678475   -7172.3465    7555.2363 
   64400     285.6276   -7158.5675    33.204664   -7191.7721    11762.243 
   64600     380.2278   -7145.2435    44.202088   -7189.4456   -10337.921 
   64800    324.45108   -7146.4928    37.717954   -7184.2108   -11881.399 
   65000    218.71335   -7155.9978    25.425775   -7181.4236    4227.4493 
   65200     302.3089   -7150.3726    35.143891   -7185.5164    11833.843 
   65400    335.02904   -7141.9246    38.947659   -7180.8723   -8003.6307 
   65600    321.48261    -7151.547    37.372865   -7188.9199    22990.297 
   65800    233.67451   -7155.8955    27.165033   -7183.0605    19214.966 
   66000    327.92494    -7143.113    38.121796   -7181.2348    19497.422 
   66200    331.98287    -7149.234    38.593537   -7187.8275    12437.077 
   66400    291.19411   -7157.8581    33.851779   -7191.7099   -1782.9407 
   66600     264.8489   -7149.7973    30.789106   -7180.5864   -29517.896 
   66800     349.0053   -7146.5729    40.572422   -7187.1454    -640.5978 
   67000     267.8408    -7157.942    31.136919   -7189.0789   -14875.673 
   67200    240.00819   -7150.0392    27.901334   -7177.9405   -21239.986 
   67400    318.84701   -7143.9618    37.066473   -7181.0283    9559.4445 
   67600    314.28486   -7151.8391    36.536115   -7188.3752   -15942.618 
   67800    254.51467   -7151.4655    29.587735   -7181.0532    1907.5028 
   68000    313.29234   -7143.9355    36.420733   -7180.3563   -13950.377 
   68200    280.64667   -7157.6037    32.625622   -7190.2294    -16184.69 
   68400    264.92803    -7156.268    30.798306   -7187.0663   -5093.6049 
   68600    321.71417   -7145.2296    37.399784   -7182.6294   -27810.691 
   68800    269.45443   -7151.8949    31.324506   -7183.2194   -9086.7766 
   69000    335.28072   -7142.7807    38.976918   -7181.7577    19088.394 
   69200    294.09447   -7142.1369    34.188951   -7176.3258   -2551.0211 
   69400    278.50908   -7154.9412    32.377124   -7187.3183   -31786.632 
   69600    297.80322   -7146.0301    34.620098   -7180.6502   -27646.834 
   69800    345.52727   -7143.9098    40.168095   -7184.0779   -3967.6641 
   70000    304.93173   -7148.2045    35.448799   -7183.6533    23519.598 
   70200    263.67695   -7153.6645    30.652865   -7184.3173   -11302.123 
   70400      330.902   -7147.3632    38.467884    -7185.831   -10598.358 
   70600    337.54342   -7146.4561     39.23996   -7185.6961    7435.2961 
   70800    232.97121   -7160.3867    27.083274     -7187.47    5483.3244 
   71000    328.83366   -7140.2109    38.227437   -7178.4383    28522.549 
   71200    315.87201   -7148.7862    36.720624   -7185.5068    1700.1891 
   71400     246.0999   -7157.3636    28.609505   -7185.9731   -4331.3865 
   71600    330.84989   -7144.6386    38.461827   -7183.1004   -37806.784 
   71800    245.71821    -7146.134    28.565133   -7174.6991    13896.574 
   72000    254.58089   -7154.2609    29.595434   -7183.8563   -32660.816 
   72200    255.70712   -7156.3678     29.72636   -7186.0942    4522.5764 
   72400    274.85718   -7146.0546    31.952585   -7178.0071   -2598.8537 
   72600    296.68145   -7148.4156    34.489691   -7182.9053     26581.39 
   72800    198.04894   -7158.2005    23.023504    -7181.224   -11351.926 
   73000    314.69225   -7144.2449    36.583475   -7180.8284    6537.2323 
   73200    300.44657    -7149.536    34.927392   -7184.4634    17580.801 
   73400    354.81201   -7149.6885    41.247461    -7190.936   -10306.203 
   73600    249.18322   -7146.1204    28.967946   -7175.0883   -4139.8935 
   73800    294.45016   -7142.9794      34.2303   -7177.2097   -5063.7005 
   74000     250.3482   -7158.0108    29.103377   -7187.1142    4411.8956 
   74200     344.3213   -7144.2875    40.027899   -7184.3154    17568.908 
   74400    248.90855   -7146.6427    28.936016   -7175.5787   -43553.568 
   74600    261.44499   -7155.1466    30.393397     -7185.54    26344.435 
   74800    326.92845   -7147.5331    38.005952   -7185.5391   -29920.456 
   75000    308.69161   -7144.3971    35.885891   -7180.2829   -11576.025 
   75200    264.13538   -7149.2391    30.706159   -7179.9453    25333.534 
   75400    308.65316    -7147.757    35.881421   -7183.6384    5239.6148 
   75600    302.75779   -7145.5458    35.196075   -7180.7419   -16551.127 
   75800    272.31674   -7150.1882    31.657255   -7181.8454   -25105.094 
   76000    323.37154   -7138.9872    37.592456   -7176.5796    50015.652 
   76200    315.61701   -7141.4159     36.69098   -7178.1069    2353.9566 
   76400    297.40035   -7146.8645    34.573265   -7181.4377    13753.136 
   76600    250.66828   -7153.9487    29.140587   -7183.0893   -30474.348 
   76800    339.24163   -7142.1666    39.437379    -7181.604    21398.625 
   77000    307.96018   -7147.4387    35.800861   -7183.2396   -41526.343 
   77200    248.43249   -7154.0213    28.880673    -7182.902   -10856.683 
   77400     369.7903   -7143.1579    42.988711   -7186.1466    4973.2099 
   77600    331.54586   -7147.7078    38.542734   -7186.2506   -1804.9866 
   77800    257.71608   -7153.8603    29.959905   -7183.8202    25596.536 
   78000    327.76514   -7138.0033     38.10322   -7176.1065   -8588.7218 
   78200    296.84984   -7148.6985    34.509267   -7183.2077   -3712.6443 
   78400    294.67441   -7151.1127    34.256369    -7185.369   -22687.916 
   78600    359.85185   -7138.3608     41.83335   -7180.1941    386.68753 
   78800    349.81362   -7140.2828     40.66639   -7180.9491    7231.1597 
   79000    269.36081   -7148.4772    31.313623   -7179.7908     14792.26 
   79200    240.37622   -7151.6788    27.944118   -7179.6229   -5569.3851 
   79400    261.86364   -7155.0107    30.442065   -7185.4527    -13553.94 
   79600    342.69173   -7139.3176    39.838459    -7179.156   -16747.754 
   79800    293.16538   -7145.1628    34.080942   -7179.2438    1237.4274 
   80000    304.05489   -7149.1614    35.346865   -7184.5083    813.95812 
   80200    319.21669   -7146.5129    37.109448   -7183.6223   -1477.3759 
   80400    289.50884   -7146.3848    33.655863   -7180.0407   -1188.0399 
   80600    227.61851   -7156.3822    26.461015   -7182.8432   -31765.932 
   80800    311.24354   -7140.3331    36.182557   -7176.5156    1782.0311 
   81000    296.21949   -7146.2571    34.435988   -7180.6931    24343.075 
   81200    257.68625   -7153.5945    29.956437   -7183.5509    13954.683 
   81400    377.51801   -7141.7867     43.88707   -7185.6737    19423.087 
   81600    271.74308   -7153.6399    31.590565   -7185.2304    3129.1314 
   81800     281.9327   -7152.0145    32.775126   -7184.7896    9206.4279 
   82000    294.63684   -7145.1447    34.252002   -7179.3967   -26038.992 
   82200    420.34138    -7132.702    48.865355   -7181.5673    10515.312 
   82400    304.82235   -7146.2394    35.436084   -7181.6755    21056.204 
   82600    328.67048   -7152.4249    38.208466   -7190.6333   -11924.588 
   82800    307.59419   -7157.6425    35.758314   -7193.4008    6472.9137 
   83000     294.2228    -7144.719    34.203869   -7178.9228    21456.789 
   83200    323.27663    -7147.486    37.581423   -7185.0674    16050.814 
   83400    256.80337   -7159.6699      29.8538   -7189.5237    6303.9833 
   83600    356.23466   -7144.3205    41.412847   -7185.7333   -7954.4861 
   83800    269.42347   -7152.8181    31.320908    -7184.139    18770.533 
   84000    290.14609   -7148.7723    33.729945   -7182.5023    11351.705 
   84200    319.49749   -7141.4706    37.142092   -7178.6127   -17907.331 
   84400    302.03567   -7154.0332    35.112127   -7189.1453   -6768.4279 
   84600    214.85385   -7166.0517    24.977102   -7191.0288    342.44553 
   84800     277.9117   -7149.9685    32.307678   -7182.2761    12686.592 
   85000    340.47167   -7145.0755    39.580374   -7184.6558    21647.687 
   85200    360.65633   -7135.2004    41.926873   -7177.1273   -38127.214 
   85400    288.67463   -7149.8189    33.558885   -7183.3777   -8002.0306 
   85600    305.23991   -7153.1973    35.484625    -7188.682   -11749.695 
   85800    338.08578   -7146.9098     39.30301   -7186.2128   -16715.755 
   86000    310.60899    -7142.672    36.108789   -7178.7808    2356.8588 
   86200     214.0249   -7157.4192    24.880735      -7182.3    -14423.88 
   86400    338.38527   -7149.5325    39.337826   -7188.8703   -2583.5945 
   86600    305.21288   -7148.5601    35.481484   -7184.0416   -7551.1943 
   86800      223.111   -7161.3963    25.937009   -7187.3334    12321.642 
   87000    277.18335   -7148.6097    32.223006   -7180.8327    13992.035 
   87200    352.20951   -7145.8843    40.944917   -7186.8292    28691.654 
   87400    258.89884   -7155.4618    30.097402   -7185.5592    4868.2835 
   87600    251.48927   -7144.5226    29.236028   -7173.7586   -3667.1187 
   87800     270.1472   -7145.6916    31.405042   -7177.0967   -18449.445 
   88000    310.61793   -7144.8722    36.109829    -7180.982    33233.844 
   88200    354.03808   -7141.5618     41.15749   -7182.7193   -10544.922 
   88400    275.04272    -7156.139    31.974154   -7188.1131    17921.359 
   88600    318.89375   -7147.3949    37.071906   -7184.4668   -3782.5679 
   88800    362.37123   -7141.1578    42.126233   -7183.2841    9577.9077 
   89000    236.17584   -7153.2005    27.455818   -7180.6563   -25791.415 
   89200    348.28742   -7135.1599    40.488967   -7175.6488    6156.0958 
   89400    380.57849   -7142.2834    44.242855   -7186.5262    25039.103 
   89600    283.73529   -7149.6978    32.984679   -7182.6824   -2962.1443 
   89800    311.43423   -7138.3056    36.204725   -7174.5104    -7363.409 
   90000      326.887   -7143.2837    38.001134   -7181.2849   -11882.671 
   90200    312.53229   -7152.9214    36.332376   -7189.2537   -11620.733 
   90400    283.23821   -7143.9719    32.926892   -7176.8988    7240.3034 
   90600    301.70229   -7141.1754    35.073372   -7176.2488   -11979.213 
   90800    270.38437   -7152.3063    31.432613   -7183.7389   -9055.7229 
   91000    321.62725   -7150.0918     37.38968   -7187.4814   -2421.3329 
   91200     281.3789   -7147.7596    32.710746   -7180.4703   -240.40841 
   91400    261.83679   -7157.7983    30.438943   -7188.2372   -7109.9231 
   91600    296.96325   -7146.0293    34.522451   -7180.5518   -20412.811 
   91800    356.96635   -7147.0062    41.497906   -7188.5041    4303.8461 
   92000    301.13122    -7153.651    35.006984    -7188.658    8043.9772 
   92200    292.89088   -7144.8084    34.049031   -7178.8575    13190.051 
   92400    315.63315   -7141.1001    36.692856   -7177.7929   -20827.246 
   92600    260.89337   -7156.6373     30.32927   -7186.9666   -24590.145 
   92800    298.78594   -7148.6516    34.734341   -7183.3859     13473.35 
   93000    321.85786   -7146.6841    37.416489   -7184.1006    -5021.725 
   93200    255.07828   -7149.5234    29.653257   -7179.1767    2804.9006 
   93400    376.21174   -7143.1377    43.735213   -7186.8729   -15301.857 
   93600    389.50579   -7142.8336    45.280668   -7188.1143    6602.0224 
   93800    275.29371   -7154.8613    32.003332   -7186.8647    20500.528 
   94000    267.30944    -7143.425    31.075148   -7174.5002    16262.178 
   94200    303.94768   -7138.6419    35.334401   -7173.9763    -7514.065 
   94400    245.74489   -7148.1602    28.568235   -7176.7284   -32921.212 
   94600    264.80471   -7157.1936    30.783969   -7187.9775    20164.254 
   94800    258.69365   -7157.0167    30.073549   -7187.0903   -15290.388 
   95000    317.56111   -7146.4337    36.916984   -7183.3507    5395.5319 
   95200    275.09884    -7149.244    31.980678   -7181.2247    21721.173 
   95400    244.50051   -7159.7701    28.423574   -7188.1937   -29457.751 
   95600    330.98125   -7147.2509    38.477098    -7185.728    -13024.85 
   95800    350.17193   -7144.9943    40.708044   -7185.7023    3801.4058 
   96000     246.9943   -7160.7482    28.713481   -7189.4617    27560.292 
   96200    222.40857   -7153.7857     25.85535   -7179.6411    18926.556 
   96400    349.59093   -7145.8362    40.640502   -7186.4767   -24030.068 
   96600    287.36535   -7158.3348    33.406679   -7191.7415   -175.13933 
   96800    264.09037   -7157.6596    30.700926   -7188.3606    13575.773 
   97000     316.4085   -7143.8795    36.782991   -7180.6625    9936.3331 
   97200    297.34941   -7149.7918    34.567342   -7184.3592   -5386.0389 
   97400    253.95405   -7160.0557    29.522563   -7189.5783     26501.55 
   97600    280.99344   -7146.0325    32.665935   -7178.6984   -24379.462 
   97800     297.3187   -7144.7397    34.563772   -7179.3035    1697.7852 
   98000    315.96485   -7154.8118    36.731417   -7191.5432   -3330.0399 
   98200     324.4155   -7136.9779    37.713818   -7174.6917    -970.1975 
   98400    285.88448   -7148.6972    33.234526   -7181.9318   -19607.323 
   98600    297.64683   -7149.2108    34.601918   -7183.8127   -3364.2304 
   98800    379.69874   -7134.4884    44.140584    -7178.629   -7877.0492 
   99000    297.08852   -7149.5162    34.537013   -7184.0532    3322.0061 
   99200    274.88168   -7150.1433    31.955433   -7182.0987   -1002.7772 
   99400    376.59191   -7136.1595    43.779409   -7179.9389    30896.752 
   99600    355.77245   -7139.6338    41.359114   -7180.9929   -10662.041 
   99800    250.93019    -7151.393    29.171034    -7180.564   -20684.017 
  100000    326.82568   -7149.9105    37.994006   -7187.9045   -2268.2007 
  100200    345.91503   -7134.6623    40.213173   -7174.8755    24065.724 
  100400     300.4736   -7146.7958    34.930535   -7181.7264   -29432.777 
  100600     254.7903   -7146.8453    29.619778   -7176.4651   -9169.8222 
  100800    274.70669   -7153.8439     31.93509    -7185.779   -17586.144 
  101000    277.41453   -7154.2551     32.24988    -7186.505    36754.421 
  101200    358.39352   -7140.5945    41.663817   -7182.2583   -29064.861 
  101400     283.4698   -7149.7254    32.953816   -7182.6792     24236.35 
  101600    274.04894   -7156.3174    31.858625    -7188.176   -24270.732 
  101800    325.58453   -7139.9457     37.84972   -7177.7954   -11624.246 
  102000    297.75439   -7154.4376    34.614422    -7189.052    10557.969 
  102200    284.17409    -7152.229    33.035691   -7185.2647    13730.817 
  102400    291.16508   -7143.5685    33.848405   -7177.4169   -14774.706 
  102600    282.37137   -7153.2384    32.826121   -7186.0646    6806.0479 
  102800    326.20651   -7157.2711    37.922026   -7195.1931   -38413.863 
  103000    322.76544   -7142.9606    37.521997   -7180.4826   -3812.1648 
  103200    245.86573   -7148.4787    28.582282   -7177.0609    8367.8667 
  103400    230.57527   -7161.8917    26.804743   -7188.6964   -34764.318 
  103600    304.97619   -7148.3642    35.453968   -7183.8182    5916.7422 
  103800    302.87723    -7148.591     35.20996    -7183.801   -22431.949 
  104000    221.65468   -7144.7215    25.767709   -7170.4892    5356.6244 
  104200    325.63757   -7141.0985    37.855886   -7178.9543    8717.5174 
  104400    300.33874   -7154.6256    34.914857   -7189.5405    18307.631 
  104600    300.30564   -7150.4494    34.911008   -7185.3604    -32140.67 
  104800    288.96042   -7147.9815    33.592109   -7181.5736   -13684.481 
  105000    308.77219   -7144.7694    35.895259   -7180.6646    4053.3415 
  105200    357.07059   -7142.7042    41.510024   -7184.2142    5894.5489 
  105400    278.25078   -7156.1807    32.347096   -7188.5278   -32652.164 
  105600    320.04938   -7143.1219     37.20625   -7180.3281   -2230.1455 
  105800    335.88446   -7143.8144    39.047104   -7182.8615   -3124.1437 
  106000    299.17909   -7151.4003    34.780046   -7186.1803    10033.494 
  106200    332.76836   -7134.2192    38.684851   -7172.9041   -2921.4568 
  106400    304.49874   -7146.1349    35.398463   -7181.5334   -7900.6438 
  106600    297.90978   -7153.5853    34.632486   -7188.2178    27831.186 
  106800    310.28101   -7138.3698    36.070662   -7174.4405    33637.784 
  107000    298.08138   -7147.7194    34.652434   -7182.3718    1046.9811 
  107200    282.53461    -7153.285    32.845098   -7186.1301   -5988.0374 
  107400    275.74504   -7149.5842      32.0558     -7181.64    1154.2432 
  107600    338.26531   -7135.2913    39.323881   -7174.6152    3283.6565 
  107800    311.91769   -7142.7573    36.260928   -7179.0182       510.73 
  108000    262.15739   -7154.3456    30.476214   -7184.8218   -6003.2599 
  108200    284.25087   -7141.4791    33.044617   -7174.5237   -31397.481 
  108400    274.73416   -7147.9531    31.938283   -7179.8913   -41990.399 
  108600    268.27747   -7150.6004    31.187683   -7181.7881   -5576.1711 
  108800    340.57974   -7140.0475    39.592937   -7179.6404    19634.506 
  109000    316.75806   -7153.3722    36.823629   -7190.1958   -14991.078 
  109200    228.40404     -7150.93    26.552333   -7177.4823     12067.91 
  109400    253.89706   -7146.2291    29.515938   -7175.7451   -30865.706 
  109600    267.30928   -7148.0863     31.07513   -7179.1614    12624.683 
  109800    276.83069   -7154.8123    32.182008   -7186.9943   -321.06852 
  110000    367.15759   -7140.5434    42.682655   -7183.2261   -1816.2556 
  110200    296.59155   -7147.0349     34.47924   -7181.5142    8213.5619 
  110400    248.96861   -7153.8085    28.942998   -7182.7515   -15013.321 
  110600     334.3032    -7143.551    38.863279   -7182.4143   -925.25209 
  110800    300.30795   -7157.8996    34.911277   -7192.8109    1331.3366 
  111000    247.63143   -7159.0608    28.787548   -7187.8484   -12367.751 
  111200    303.87553   -7144.8351    35.326014   -7180.1611    8343.3172 
  111400    338.82753   -7144.7844    39.389239   -7184.1736   -7748.1005 
  111600    253.68758   -7160.7411    29.491585   -7190.2327    -33970.05 
  111800    258.60165   -7149.3072    30.062853     -7179.37    38736.641 
  112000    292.13732   -7146.4986    33.961429     -7180.46   -14994.962 
  112200    295.19619   -7148.2257    34.317027   -7182.5427     17928.72 
  112400    286.57261   -7152.9492    33.314522   -7186.2637    2070.5509 
  112600    342.93667   -7144.4224    39.866934   -7184.2893    7092.0461 
  112800     327.5306   -7134.5113    38.075953   -7172.5872   -302.86951 
  113000     296.7295   -7151.2513    34.495276   -7185.7466    21445.584 
  113200    293.27136   -7147.2119    34.093263   -7181.3051   -136.47156 
  113400    369.65268   -7136.7471    42.972713   -7179.7198   -25427.415 
  113600    329.59332   -7147.1956    38.315748   -7185.5113   -205.72537 
  113800    274.74571   -7146.7801    31.939626   -7178.7197   -769.01198 
  114000    299.90758   -7138.5472    34.864733   -7173.4119   -19001.151 
  114200    304.48735   -7156.7382    35.397139   -7192.1353      10336.2 
  114400    271.71777   -7147.5301    31.587623   -7179.1178    17637.226 
  114600    288.79251   -7143.6709    33.572589   -7177.2435   -14701.608 
  114800    254.52445   -7152.2054    29.588873   -7181.7942    17915.675 
  115000    255.01189   -7162.4915    29.645538   -7192.1371   -15818.116 
  115200    274.33523   -7147.7877    31.891907   -7179.6796    26024.898 
  115400    327.76496   -7145.6575    38.103198   -7183.7607   -25043.138 
  115600    278.31551   -7159.9376    32.354621   -7192.2923    1533.3101 
  115800    334.62605   -7144.8603    38.900811   -7183.7611    9877.8962 
  116000    281.48017   -7148.8276    32.722518   -7181.5501    28692.889 
  116200    288.29238   -7154.5731    33.514448   -7188.0875   -29471.668 
  116400    279.57816   -7139.4513    32.501407   -7171.9527    5698.9611 
  116600    266.52622   -7151.2863    30.984097   -7182.2704   -1945.8156 
  116800    335.69352   -7151.3876    39.024907   -7190.4125    18398.057 
  117000    377.14005   -7137.7028    43.843131   -7181.5459    6406.1867 
  117200    297.58174   -7146.8979    34.594351   -7181.4923   -11061.709 
  117400    286.75469   -7157.5296    33.335689   -7190.8653    10670.632 
  117600    361.00001   -7139.3394    41.966825   -7181.3063   -11677.683 
  117800    288.37514    -7155.839     33.52407    -7189.363   -2650.4218 
  118000    323.72321   -7148.2497    37.633338    -7185.883    21720.711 
  118200    342.61191   -7143.2481     39.82918   -7183.0773   -4901.0732 
  118400    261.05264   -7155.0064    30.347785   -7185.3541    3654.8582 
  118600    252.16364   -7157.0421    29.314424   -7186.3565    3721.6652 
  118800    300.49041    -7148.275    34.932489   -7183.2074   -12810.161 
  119000    280.79552    -7146.269    32.642927    -7178.912    175.98225 
  119200    355.13422   -7142.0108    41.284919   -7183.2958   -19112.284 
  119400    288.21806   -7151.0554    33.505809   -7184.5612   -6896.0024 
  119600    289.44247   -7156.7734    33.648147   -7190.4215    850.20597 
  119800    274.76709   -7149.0038    31.942112   -7180.9459    363.86516 
  120000    323.06772   -7146.6714    37.557136   -7184.2286    4518.8131 
  120200    331.40964    -7144.161    38.526899   -7182.6879    20220.236 
  120400    276.33301   -7154.1952    32.124153   -7186.3194    14854.604 
  120600    240.13003   -7154.0329    27.915498   -7181.9484   -2217.6641 
  120800    289.87149   -7141.6215    33.698022   -7175.3195   -17107.485 
  121000    333.35665   -7148.9724    38.753241   -7187.7256   -26764.334 
  121200    281.09088   -7162.0121    32.677263   -7194.6893    21242.202 
  121400    301.53467   -7142.9207    35.053886   -7177.9745   -7275.1271 
  121600    263.34396   -7152.8158    30.614154   -7183.4299    22912.505 
  121800    339.31354   -7140.7335     39.44574   -7180.1792    2330.2133 
  122000    310.77887    -7141.983    36.128538   -7178.1116    23690.562 
  122200    279.23076   -7153.4818     32.46102   -7185.9428    24563.269 
  122400    335.28457   -7146.3286    38.977365    -7185.306    2943.9331 
  122600    433.26376   -7127.9185    50.367602   -7178.2861    8684.8411 
  122800    299.13799    -7145.188    34.775267   -7179.9633    39745.974 
  123000    249.98209   -7154.6122    29.060815    -7183.673    18478.625 
  123200     286.1707   -7156.8854    33.267799   -7190.1531    5859.8496 
  123400    374.61166   -7141.9011    43.549201   -7185.4503    20110.216 
  123600    223.81461   -7149.4873    26.018805   -7175.5061   -3095.7745 
  123800    265.47105   -7153.4482    30.861432   -7184.3097   -21518.512 
  124000    335.73881   -7141.0262    39.030172   -7180.0564    20434.203 
  124200    245.62103   -7155.7262    28.553836     -7184.28   -13753.427 
  124400    299.81525   -7149.2709       34.854   -7184.1249   -16688.794 
  124600    301.43534   -7144.2274    35.042339   -7179.2698     16375.14 
  124800    251.24949   -7157.4907    29.208153   -7186.6988   -3010.9465 
  125000    237.57979   -7154.1893    27.619029   -7181.8083    12554.302 
  125200     270.7096   -7147.3032    31.470422   -7178.7736   -11158.373 
  125400    325.20745   -7140.4693    37.805884   -7178.2752    6201.0679 
  125600     311.8312   -7152.6265    36.250874   -7188.8773   -9970.3111 
  125800    310.00129   -7153.4633    36.038143   -7189.5015   -9455.8548 
  126000    310.72253   -7136.9491    36.121989   -7173.0711    30660.332 
  126200    316.01685   -7145.2588    36.737462   -7181.9962   -37851.111 
  126400    270.36796   -7151.5867    31.430706   -7183.0174     24921.05 
  126600    248.11327   -7154.9876    28.843563   -7183.8312   -989.26686 
  126800    345.78737   -7142.9233    40.198333   -7183.1216     10065.02 
  127000    275.98285   -7149.9848    32.083446   -7182.0683   -40264.402 
  127200    255.58033   -7154.9196     29.71162   -7184.6312    14305.555 
  127400    315.64587   -7146.5109    36.694335   -7183.2052   -10852.349 
  127600    323.11876   -7150.3493    37.563071   -7187.9124    3868.4899 
  127800    238.34432   -7155.1332    27.707907   -7182.8411    3839.8673 
  128000    295.11312   -7142.9897     34.30737   -7177.2971   -7003.0566 
  128200    287.87049    -7146.472    33.465403   -7179.9374    4010.2561 
  128400    263.09632   -7152.3101    30.585366   -7182.8955   -18077.009 
  128600    350.84946   -7143.4807    40.786808   -7184.2675   -418.51269 
  128800    429.49168   -7126.2437    49.929092   -7176.1728     18142.94 
  129000    263.86107   -7146.6949    30.674269   -7177.3691   -12446.138 
  129200    258.43379   -7154.2439     30.04334   -7184.2872   -8591.4163 
  129400    335.62427   -7147.7987    39.016856   -7186.8156   -16814.385 
  129600    368.90895   -7141.1325    42.886252   -7184.0188    460.60643 
  129800    236.83081   -7158.3783    27.531959   -7185.9103   -27651.594 
  130000    319.47728     -7145.64    37.139743   -7182.7798   -13631.488 
  130200     270.7069    -7147.605    31.470108   -7179.0751   -17483.366 
  130400    227.19944   -7160.8708    26.412296   -7187.2831   -670.85539 
  130600    351.28674   -7144.8305    40.837643   -7185.6681    17956.878 
  130800    339.99717   -7144.7895    39.525213   -7184.3147   -29292.054 
  131000    263.00431   -7158.9234     30.57467   -7189.4981   -6221.0225 
  131200    268.69458   -7149.4507    31.236173   -7180.6869   -12740.318 
  131400    321.74131   -7147.0447     37.40294   -7184.4476   -20220.055 
  131600    254.79311   -7156.2588    29.620105   -7185.8789    26251.642 
  131800    267.39727   -7153.6692    31.085359   -7184.7546    13558.774 
  132000    333.00597    -7144.558    38.712474   -7183.2705    10961.961 
  132200    321.56132   -7152.7145    37.382016   -7190.0965    6200.6122 
  132400    227.34031   -7158.4539    26.428673   -7184.8826    12403.627 
  132600    286.56579   -7147.6488    33.313729   -7180.9626    997.98828 
  132800    284.94384   -7152.0851    33.125175   -7185.2103    -9846.836 
  133000     283.1041   -7156.1365    32.911303   -7189.0479   -9195.1491 
  133200    335.00255   -7141.9983     38.94458   -7180.9429   -15515.361 
  133400    270.63505   -7147.8794    31.461755   -7179.3412   -13086.836 
  133600     277.2674   -7156.9811    32.232777   -7189.2139    6102.3411 
  133800    293.45501   -7149.8424    34.114612    -7183.957   -3506.7873 
  134000    303.02031   -7139.3895    35.226593   -7174.6161   -6309.8881 
  134200    310.12655    -7144.858    36.052705   -7180.9107   -41665.304 
  134400    258.91148   -7152.2137    30.098872   -7182.3126    17784.798 
  134600    328.41426    -7139.425     38.17868   -7177.6037   -5551.6432 
  134800    282.36389   -7147.1587    32.825251   -7179.9839    1386.0485 
  135000    253.91015   -7155.3157    29.517459   -7184.8332   -3212.3203 
  135200    323.33532   -7139.0038    37.588246   -7176.5921    10633.736 
  135400    303.37708   -7149.5091    35.268069   -7184.7771    3961.9037 
  135600     295.6005    -7151.777    34.364029    -7186.141    18797.632 
  135800     314.1991   -7136.9421    36.526145   -7173.4682   -5884.6424 
  136000    285.49233   -7148.3183    33.188937   -7181.5073   -3546.1715 
  136200    319.06795    -7151.052    37.092157   -7188.1442    1704.9135 
  136400    300.03032   -7140.2091    34.879002   -7175.0881    23729.082 
  136600    276.01804   -7150.0533    32.087537   -7182.1409    158.09595 
  136800    327.32405   -7146.9948    38.051942   -7185.0468    10770.865 
  137000    304.27812   -7131.5561    35.372816   -7166.9289   -3594.4882 
  137200    302.01091   -7146.6237     35.10925   -7181.7329     18866.76 
  137400    294.48161   -7154.4272    34.233955   -7188.6612   -29713.264 
  137600    435.10143   -7138.4667    50.581234   -7189.0479    38345.951 
  137800    309.44744   -7146.1148    35.973757   -7182.0886   -16656.136 
  138000    242.20019   -7160.4515    28.156158   -7188.6077    15090.358 
  138200    283.97946   -7147.4808    33.013064   -7180.4939    -20392.43 
  138400    357.70563   -7144.8159    41.583849   -7186.3998    3369.4012 
  138600    264.45265    -7153.577    30.743041     -7184.32   -9583.8148 
  138800     299.2899   -7141.3388    34.792927   -7176.1318   -468.44404 
  139000    313.92902   -7146.3113    36.494748   -7182.8061   -16232.938 
  139200    319.79846   -7151.6769     37.17708    -7188.854    -7625.506 
  139400    344.34539   -7141.2962      40.0307   -7181.3269   -10891.221 
  139600    265.20067   -7145.9851        30.83   -7176.8151   -13676.298 
  139800    254.44098   -7154.8665     29.57917   -7184.4456    13257.553 
  140000    257.22777   -7150.8491    29.903138   -7180.7523   -12383.408 
  140200    335.04527   -7146.5408    38.949546   -7185.4903   -20977.535 
  140400    256.23152   -7157.9603    29.787322   -7187.7476     1630.928 
  140600    342.37675   -7148.5437    39.801843   -7188.3455    27677.939 
  140800    265.83394   -7147.2949    30.903619   -7178.1985    6501.4923 
  141000    241.49733   -7157.2622    28.074449   -7185.3366   -1029.6706 
  141200    296.97242   -7151.1111    34.523516   -7185.6346    -10229.66 
  141400    364.00508   -7145.2809     42.31617   -7187.5971    1881.6887 
  141600    353.94706    -7149.245    41.146909   -7190.3919    -14271.22 
  141800    309.36654   -7142.1242    35.964352   -7178.0886    23759.162 
  142000    276.29898   -7150.9681    32.120197   -7183.0883   -16607.302 
  142200    286.20764   -7151.1023    33.272094   -7184.3744    203.32855 
  142400      380.583   -7134.0714     44.24338   -7178.3147   -15758.054 
  142600    321.39275   -7149.6842    37.362418   -7187.0467    23917.967 
  142800    289.47351   -7149.6662    33.651756   -7183.3179   -5988.2929 
  143000    357.71622   -7134.6627     41.58508   -7176.2478    8976.7885 
  143200     303.7299   -7153.9111    35.309084   -7189.2202   -12167.846 
  143400    289.06342   -7145.4091    33.604083   -7179.0132    28751.408 
  143600    266.33904   -7143.8834    30.962337   -7174.8457    3401.0761 
  143800    289.31208   -7161.1156    33.632989   -7194.7486    14470.806 
  144000    315.83009   -7149.0608    36.715751   -7185.7765   -35732.933 
  144200    278.91738   -7146.4864     32.42459    -7178.911   -13521.299 
  144400    289.71798   -7146.3242    33.680176   -7180.0044     17915.69 
  144600    314.67652   -7156.5813    36.581646   -7193.1629    1514.7084 
  144800    308.15361   -7147.8191    35.823347   -7183.6424    38438.405 
  145000    288.40021   -7142.4582    33.526984   -7175.9852    339.08708 
  145200    239.19397   -7157.4269     27.80668   -7185.2336     42743.09 
  145400    308.13798   -7139.5002    35.821531   -7175.3217   -17755.749 
  145600    334.46562    -7143.846     38.88216   -7182.7281   -17316.689 
  145800    242.78463   -7155.9469    28.224099    -7184.171    8683.0755 
  146000    288.17024    -7146.948    33.500249   -7180.4482    610.51155 
  146200    305.60291   -7146.4829    35.526825   -7182.0097    -17157.22 
  146400    286.70975   -7147.2559    33.330465   -7180.5863   -6388.9024 
  146600    301.40691   -7148.3784    35.039034   -7183.4174    4574.7171 
  146800    228.03592   -7155.9349    26.509538   -7182.4444   -17546.125 
  147000    281.49051   -7154.6242     32.72372   -7187.3479    9065.6448 
  147200    334.27197   -7143.6938    38.859649   -7182.5534    24505.875 
  147400    283.43822   -7150.1099    32.950145   -7183.0601   -17333.752 
  147600    211.09347   -7165.5373    24.539952   -7190.0772   -856.12519 
  147800    298.77245   -7152.9788    34.732773   -7187.7116   -1060.0305 
  148000    378.06654   -7140.3972    43.950837   -7184.3481   -8075.7644 
  148200    240.85351   -7148.1417    27.999604   -7176.1413    20824.853 
  148400    290.85827   -7149.1791    33.812737   -7182.9918   -22334.153 
  148600    351.08369    -7146.359    40.814038   -7187.1731    2255.5355 
  148800    272.44512   -7156.4376    31.672179   -7188.1098   -5319.1318 
  149000     275.5521   -7145.2676    32.033371    -7177.301    2693.7212 
  149200    314.90822     -7141.96    36.608582   -7178.5685    38223.757 
  149400    284.67267   -7155.8323    33.093651   -7188.9259   -19601.322 
  149600    270.56917   -7150.9934    31.454097   -7182.4475     27562.06 
  149800    277.87068   -7146.4815    32.302909   -7178.7844    4321.9146 
  150000     309.6793    -7150.445    36.000711   -7186.4457    1498.2347 
  150200    258.87407    -7154.744    30.094522   -7184.8385    1487.9248 
  150400     315.9809   -7138.3721    36.733282   -7175.1054     17696.25 
  150600    288.05448    -7150.963    33.486792   -7184.4498    3826.9198 
  150800    298.14997   -7148.5133    34.660409   -7183.1737    4415.2586 
  151000    360.40963   -7138.4034    41.898193   -7180.3016   -12876.304 
  151200    343.27596   -7144.9507    39.906376   -7184.8571   -578.79834 
  151400    237.44561   -7153.9166    27.603431     -7181.52   -11324.907 
  151600    359.80795   -7146.4375    41.828247   -7188.2657    21543.778 
  151800    307.66129   -7145.7537    35.766114   -7181.5199    -16113.22 
  152000    290.55447   -7148.7903    33.777419   -7182.5677    -6649.638 
  152200    223.75311   -7154.8634    26.011655   -7180.8751   -29676.795 
  152400    276.23322   -7146.5566    32.112552   -7178.6691    22162.641 
  152600    290.47295   -7152.9425    33.767943   -7186.7104    5203.1252 
  152800    301.11968   -7152.5656    35.005642   -7187.5712    12126.503 
  153000    339.93863   -7138.7986    39.518407    -7178.317    6783.1553 
  153200    297.89834   -7150.6467    34.631156   -7185.2778   -1003.9484 
  153400    342.48146   -7149.7624    39.814015   -7189.5764    19368.054 
  153600     241.2018   -7146.6062    28.040093   -7174.6463    11021.375 
  153800    360.16471   -7128.6884    41.869721   -7170.5581   -23240.698 
  154000    359.66137   -7146.2024    41.811207   -7188.0136   -1453.8883 
  154200    278.49833   -7152.0921    32.375875    -7184.468   -9239.0507 
  154400    277.68094   -7136.7745    32.280851   -7169.0554    20425.466 
  154600    341.79983   -7141.1926    39.734774   -7180.9274   -48909.667 
  154800    335.30816   -7146.2962    38.980107   -7185.2763    10656.063 
  155000    233.83779   -7155.5538    27.184015   -7182.7378   -11048.211 
  155200    316.42938   -7142.2779    36.785419   -7179.0634    14007.843 
  155400     392.3183   -7140.7178    45.607627   -7186.3254    12702.823 
  155600     300.5879   -7147.6838    34.943822   -7182.6277   -23573.532 
  155800    299.24066   -7151.7578    34.787203    -7186.545    24598.633 
  156000     280.6109   -7150.4824    32.621464   -7183.1038   -2438.2493 
  156200    354.57345   -7140.2358    41.219728   -7181.4555   -770.38221 
  156400    281.52068   -7146.0283    32.727227   -7178.7555    8214.9191 
  156600    233.62499   -7154.2388    27.159277   -7181.3981    24587.146 
  156800     312.8867   -7148.7181    36.373577   -7185.0917    5907.6104 
  157000    281.11012    -7148.845    32.679499   -7181.5245   -2593.4705 
  157200    333.55985   -7138.0057    38.776863   -7176.7826   -3601.7708 
  157400    311.00698   -7144.7347    36.155057   -7180.8898    27911.843 
  157600    273.35931    -7151.098    31.778455   -7182.8765    12160.906 
  157800    276.49597   -7148.4564    32.143097   -7180.5995   -12085.355 
  158000    347.07025   -7138.5507    40.347469   -7178.8981    3277.3338 
  158200    290.31748   -7152.3339    33.749869   -7186.0838   -11492.153 
  158400    327.79937   -7147.4676    38.107198   -7185.5748    11772.765 
  158600    263.21211   -7149.7317    30.598827   -7180.3305   -17684.034 
  158800    345.13961   -7141.0038     40.12303   -7181.1268    6791.6447 
  159000     269.3825    -7144.169    31.316145   -7175.4851    -792.0852 
  159200    256.98708   -7151.8362    29.875157   -7181.7114     509.9128 
  159400    324.49342   -7142.9994    37.722877   -7180.7222   -17818.025 
  159600    287.02529   -7146.0897    33.367147   -7179.4569    -26499.62 
  159800    291.44982   -7151.4116    33.881506   -7185.2931   -25599.107 
  160000    275.60988   -7141.3748    32.040087   -7173.4148   -2911.8047 
  160200    282.11522   -7147.5001    32.796343   -7180.2965    -16222.29 
  160400    285.68452   -7152.8617    33.211281    -7186.073   -9648.3937 
  160600    282.67208   -7156.2787    32.861079   -7189.1398    -6407.956 
  160800    342.31539    -7138.806    39.794708   -7178.6007   -25178.497 
  161000    295.77301   -7151.1889    34.384084   -7185.5729    -9681.539 
  161200    299.47629    -7152.339    34.814596   -7187.1536    21814.048 
  161400    413.30611   -7134.1025    48.047494     -7182.15    7493.1254 
  161600    345.55368   -7145.3199    40.171165   -7185.4911    8901.2563 
  161800    304.04288   -7148.4875    35.345469    -7183.833    12608.904 
  162000    273.23704   -7150.8053    31.764241   -7182.5695   -18895.287 
  162200    232.42955   -7163.8179    27.020305   -7190.8382   -13885.519 
  162400    287.60592   -7149.2584    33.434647   -7182.6931    17840.381 
  162600    352.16621    -7139.946    40.939882   -7180.8859   -25115.203 
  162800     258.8439   -7154.4511    30.091016   -7184.5421     13891.47 
  163000     321.2258   -7148.0664    37.343011   -7185.4094    17745.358 
  163200    249.69387   -7145.1532     29.02731   -7174.1805    41024.795 
  163400    269.90371   -7154.2486    31.376736   -7185.6254    26953.846 
  163600    355.52956   -7139.1244    41.330878   -7180.4553   -33751.696 
  163800    311.07063   -7145.9753    36.162456   -7182.1377    24056.591 
  164000    318.72826   -7150.9105    37.052668   -7187.9632    -37386.81 
  164200     310.0169    -7143.721    36.039958    -7179.761    31362.138 
  164400    308.04504   -7130.8597    35.810726   -7166.6705   -31772.621 
  164600    323.10078   -7145.5005     37.56098   -7183.0615    17787.899 
  164800    321.59447   -7152.7119    37.385869   -7190.0977   -6656.2716 
  165000    236.69027   -7158.1937    27.515621   -7185.7093   -14059.264 
  165200    262.70043   -7143.4359    30.539343   -7173.9753   -15015.066 
  165400    225.84578   -7146.9272    26.254931   -7173.1821   -2202.4555 
  165600    292.37882   -7156.4449    33.989504   -7190.4344   -10204.773 
  165800     328.0519   -7147.6727    38.136555   -7185.8093   -4202.3417 
  166000    250.15381    -7150.546    29.080778   -7179.6268   -17631.651 
  166200    237.13281   -7164.6074    27.567066   -7192.1744   -20319.024 
  166400    298.16632   -7151.6143    34.662309   -7186.2766   -20523.278 
  166600    354.30478   -7142.4282    41.188495   -7183.6167   -3681.2219 
  166800     265.2295   -7156.9404    30.833352   -7187.7737   -39234.665 
  167000    257.47369    -7150.492    29.931726   -7180.4238   -29643.632 
  167200    304.50974    -7147.239    35.399742   -7182.6387    -7805.823 
  167400    411.03669   -7129.9403    47.783669   -7177.7239    27723.454 
  167600    295.28769   -7147.0424    34.327664     -7181.37    10361.706 
  167800    271.12536   -7152.2298    31.518755   -7183.7486    6790.1827 
  168000    317.30054   -7139.1613    36.886693    -7176.048    461.26668 
  168200    318.42878   -7144.6781    37.017852   -7181.6959    12578.415 
  168400    280.74051   -7150.3706    32.636531   -7183.0071   -17503.531 
  168600    293.74362   -7145.2835    34.148164   -7179.4317    34248.515 
  168800     266.0578   -7156.7688    30.929642   -7187.6985   -14659.003 
  169000    300.11778    -7152.896     34.88917   -7187.7852    5455.0592 
  169200     312.4746   -7144.0655     36.32567   -7180.3912    290.42155 
  169400    244.84867   -7154.7339    28.464047    -7183.198    30061.185 
  169600    298.44135   -7149.3766    34.694282   -7184.0709   -5632.9383 
  169800    261.32852   -7147.0544    30.379856   -7177.4342    21438.575 
  170000    393.29135   -7128.9163    45.720745   -7174.6371   -9551.2372 
  170200    301.96144   -7148.3408    35.103498   -7183.4443    10638.813 
  170400    328.39859   -7146.8319    38.176859   -7185.0087    19045.712 
  170600    264.67183   -7148.9124    30.768522    -7179.681   -5560.9815 
  170800    316.58163   -7144.6515    36.803119   -7181.4546   -13290.435 
  171000    277.20711   -7157.4814    32.225767   -7189.7072    9317.4128 
  171200    345.30618   -7145.0154    40.142393   -7185.1578    6597.8052 
  171400    342.33889   -7140.6268    39.797441   -7180.4243   -22106.254 
  171600    216.40737   -7156.0726    25.157702   -7181.2303   -27680.916 
  171800    359.65492   -7146.8199    41.810457   -7188.6304   -41814.821 
  172000    231.05901   -7148.2687    26.860977   -7175.1297    14314.506 
  172200    303.76431   -7146.4931    35.313085   -7181.8061   -1528.4577 
  172400    261.35193   -7153.1699    30.382578   -7183.5525   -3201.9202 
  172600    304.32119   -7146.2878    35.377823   -7181.6657   -20225.578 
  172800    239.12362   -7150.6353    27.798501   -7178.4338   -10373.289 
  173000    272.46846   -7156.3295    31.674892   -7188.0044   -1714.1281 
  173200    331.45304   -7142.1211    38.531943    -7180.653    6294.6002 
  173400    336.14418   -7143.5108    39.077296   -7182.5881    5585.8178 
  173600    274.46657   -7154.3023    31.907175   -7186.2094   -1068.9377 
  173800    379.37972   -7143.0522    44.103496   -7187.1557   -21452.191 
  174000    311.77769    -7148.554    36.244652   -7184.7986    17872.227 
  174200     379.7248   -7140.6787    44.143613   -7184.8223    5178.6425 
  174400    300.66377   -7143.9916    34.952642   -7178.9442   -6064.5452 
  174600    285.20623   -7152.9597    33.155679   -7186.1153   -7023.8296 
  174800    263.47223   -7150.4501    30.629066   -7181.0792    17440.136 
  175000    277.68167   -7144.4101    32.280937   -7176.6911    12308.665 
  175200    290.19038   -7146.5565    33.735094   -7180.2916    3820.6178 
  175400    309.71183    -7145.465    36.004494   -7181.4695   -15110.724 
  175600    251.20212   -7153.9745    29.202646   -7183.1772    25285.237 
  175800    298.10037   -7144.1415    34.654643   -7178.7962   -7540.5435 
  176000    359.20106   -7138.9451    41.757695   -7180.7028   -3009.5069 
  176200    282.47882   -7153.3827    32.838612   -7186.2213    20030.668 
  176400    329.70132   -7142.3939    38.328303   -7180.7222   -3753.5341 
  176600     370.1764    -7144.461    43.033596   -7187.4946    5061.6193 
  176800    281.11627   -7158.5802    32.680213   -7191.2604   -20799.426 
  177000    291.41325   -7143.8781    33.877255   -7177.7553    54513.535 
  177200    253.92248   -7148.0166    29.518892   -7177.5354    15429.432 
  177400    255.97125    -7161.706    29.757066    -7191.463    3134.0156 
  177600    278.23344   -7151.1595    32.345081   -7183.5046    13167.781 
  177800    312.08614   -7145.9801    36.280511   -7182.2606      15628.5 
  178000    277.34907   -7152.7248    32.242271   -7184.9671   -14987.785 
  178200    223.09836    -7155.504     25.93554   -7181.4396    17147.455 
  178400    319.51784   -7143.3144    37.144457   -7180.4588     4898.185 
  178600    285.81487    -7153.903    33.226434   -7187.1295   -8516.9238 
  178800    243.89023   -7163.0805    28.352627   -7191.4331   -5331.9219 
  179000    299.65631   -7151.2001    34.835523   -7186.0356   -26647.917 
  179200    356.57489   -7139.8493    41.452399   -7181.3017    27084.527 
  179400    302.18567   -7153.3967    35.129565   -7188.5262    9951.2371 
  179600    259.76715   -7154.3375    30.198344   -7184.5358   -17762.334 
  179800    282.52545   -7149.5195    32.844034   -7182.3635   -17447.058 
[...]
  950000    251.33101   -7146.7176    29.217631   -7175.9352   -9422.0426 
  950200    297.15949   -7146.4232    34.545264   -7180.9685     219.3374 
  950400    262.21215   -7160.4771    30.482579   -7190.9597     12421.79 
  950600    246.72312   -7151.1282    28.681956   -7179.8101    11384.219 
  950800     271.5577   -7148.7978    31.569015   -7180.3668    9560.3301 
  951000    278.67667   -7155.6063    32.396607   -7188.0029    9251.7932 
  951200    300.43828    -7149.642    34.926428   -7184.5684    3821.1768 
  951400    337.73942   -7142.9507    39.262745   -7182.2135    28579.644 
  951600    275.09313   -7157.0442    31.980014   -7189.0242    -30297.57 
  951800    302.59407   -7151.5191    35.177043   -7186.6962    24499.013 
  952000    284.06821   -7142.9387    33.023381   -7175.9621    1925.0577 
  952200    281.70223   -7147.1162    32.748333   -7179.8645   -13393.177 
  952400    308.96823   -7152.0065    35.918048   -7187.9245     2747.605 
  952600    264.65547   -7151.6894    30.766619    -7182.456   -12709.929 
  952800    383.52613   -7135.2122    44.585523   -7179.7978    5212.3726 
  953000    267.17689   -7150.7102    31.059739     -7181.77    3397.3162 
  953200    279.00524   -7148.4064    32.434804   -7180.8412    11376.019 
  953400    347.01387   -7139.2357    40.340915   -7179.5766   -15479.505 
  953600    294.33098   -7153.9209    34.216445   -7188.1374     11592.23 
  953800    250.11956   -7149.7569    29.076797   -7178.8337   -27754.994 
  954000    265.05801   -7142.5435    30.813415   -7173.3569    39216.524 
  954200     302.4165   -7146.8737    35.156399   -7182.0301   -45163.592 
  954400     257.5304   -7159.6775    29.938319   -7189.6158    38758.797 
  954600    252.59894   -7156.2886    29.365029   -7185.6536    -10724.86 
  954800    363.68381   -7144.9897    42.278822   -7187.2685    16437.338 
  955000    271.32932   -7150.1025    31.542465    -7181.645   -9015.1731 
  955200    250.82132   -7159.5874    29.158378   -7188.7458   -7739.9789 
  955400    352.52135   -7144.5326    40.981169   -7185.5137   -17033.963 
  955600    322.23558    -7152.553    37.460399   -7190.0134   -14577.505 
  955800    247.99068   -7155.6785    28.829311   -7184.5078   -7946.8166 
  956000    329.27235   -7140.3591    38.278435   -7178.6376     3135.702 
  956200    342.50284     -7149.56      39.8165   -7189.3765    -10268.14 
  956400    218.58399   -7160.7845    25.410737   -7186.1953   -3527.1106 
  956600    255.10543   -7153.7087    29.656413   -7183.3651    14180.274 
  956800    374.93804   -7141.8465    43.587144   -7185.4337   -6965.3672 
  957000    254.98007   -7150.5086    29.641839   -7180.1504    3569.6679 
  957200    209.15388   -7150.6823    24.314472   -7174.9968   -2789.9938 
  957400     335.3504   -7143.3125    38.985018   -7182.2975    15069.926 
  957600    329.53278   -7154.0142    38.308711   -7192.3229    7581.7503 
  957800    294.57562   -7154.1914    34.244885   -7188.4362    22292.472 
  958000    303.31519   -7144.8384    35.260874   -7180.0992   -7854.6455 
  958200    283.72421   -7149.6795    32.983391   -7182.6629   -455.65789 
  958400    299.54647   -7151.4543    34.822754    -7186.277     32063.32 
  958600    337.55622   -7132.6086    39.241448     -7171.85   -14698.417 
  958800    251.23839   -7149.2407    29.206863   -7178.4476   -26590.535 
  959000     248.8871   -7150.3014    28.933522    -7179.235   -6702.1457 
  959200    410.69139    -7137.569    47.743528   -7185.3126     29990.02 
  959400    321.34941   -7149.5731    37.357381   -7186.9304    592.03416 
  959600    234.84542   -7152.1954    27.301154   -7179.4965   -16682.713 
  959800    325.72045   -7147.3019    37.865521   -7185.1675   -8382.2905 
  960000    335.80182   -7142.1794    39.037497   -7181.2169    2917.1801 
  960200    334.47412   -7148.4228    38.883149    -7187.306    30283.411 
  960400    275.86496   -7157.8522    32.069741   -7189.9219   -11784.789 
  960600    276.04915   -7148.4581    32.091153   -7180.5492    15924.699 
  960800    291.91487    -7146.969    33.935568   -7180.9046    13987.149 
  961000    332.95428   -7153.5453    38.706465   -7192.2518    12270.474 
  961200    324.09373    -7132.033    37.676412   -7169.7094    22830.323 
  961400    276.99073   -7150.0103    32.200613   -7182.2109    -11934.64 
  961600    319.04785   -7146.8547    37.089821   -7183.9445   -7315.2071 
  961800     341.4785   -7138.5052    39.697419   -7178.2027   -38471.706 
  962000    249.88789   -7147.9481    29.049865    -7176.998   -41084.475 
  962200    247.11818   -7150.0349    28.727882   -7178.7628    26393.339 
  962400    382.45864   -7135.1839    44.461426   -7179.6453   -7623.5414 
  962600    305.35998   -7148.6562    35.498583   -7184.1547    37359.501 
  962800    315.11443    -7148.679    36.632554   -7185.3116   -16540.988 
  963000    364.84525   -7133.8264    42.413841   -7176.2402    14421.864 
  963200    272.16981   -7144.3315    31.640173   -7175.9716   -5330.2463 
  963400    283.02351   -7149.3153    32.901934   -7182.2173    1248.7365 
  963600    273.00835   -7150.1394    31.737655    -7181.877   -20101.152 
  963800    309.12492   -7140.8521    35.936264   -7176.7884    527.96526 
  964000    280.12932   -7153.5943    32.565479   -7186.1598    3220.7685 
  964200     277.2746   -7153.6002    32.233614   -7185.8338    20333.096 
  964400    294.31198   -7148.2768    34.214236   -7182.4911   -11172.108 
  964600    330.55421   -7144.7864    38.427453   -7183.2138    13308.655 
  964800    260.75282    -7157.183     30.31293   -7187.4959   -9705.5727 
  965000     313.5129   -7143.5233    36.446374   -7179.9697   -9191.3014 
  965200    256.17029   -7143.3501    29.780205   -7173.1303   -13726.848 
  965400    289.13171   -7149.2066    33.612022   -7182.8186   -7726.5037 
  965600    274.65509   -7157.8386    31.929092   -7189.7677    5580.5979 
  965800    275.54682   -7150.2728    32.032756   -7182.3055   -25480.161 
  966000    288.77569   -7143.8287    33.570633   -7177.3993   -8387.0654 
  966200    267.43432   -7157.7261    31.089666   -7188.8158    4266.6075 
  966400    262.45405    -7159.982    30.510701   -7190.4927   -29899.613 
  966600    302.97958   -7148.3191    35.221858    -7183.541    25041.447 
  966800    300.60209   -7143.6423    34.945471   -7178.5877   -30942.697 
  967000    350.94949   -7147.9823    40.798437   -7188.7807    31437.912 
  967200    291.14254   -7153.4931    33.845784   -7187.3389    13329.144 
  967400    283.10257   -7142.8444    32.911124   -7175.7555    8631.1872 
  967600    250.62093   -7152.9673    29.135082   -7182.1024    17072.636 
  967800     284.0875   -7156.7824    33.025624    -7189.808   -7253.6301 
  968000    307.92186   -7140.9165    35.796407   -7176.7129   -19601.201 
  968200    261.30683   -7149.3993    30.377335   -7179.7766     -6906.99 
  968400    291.27689   -7152.8686    33.861403     -7186.73    35357.424 
  968600    299.21486    -7148.675    34.784204   -7183.4592   -38237.082 
  968800    344.02282   -7128.4719      39.9932   -7168.4651    10017.586 
  969000    329.96243    -7141.384    38.358658   -7179.7427   -24049.839 
  969200    294.41221   -7148.0571    34.225889    -7182.283    6993.3511 
  969400    273.84275   -7157.1505    31.834656   -7188.9852   -31690.588 
  969600    314.44752   -7150.9252    36.555025   -7187.4802    15915.537 
  969800    299.19589   -7141.6819    34.781999   -7176.4639    7001.5305 
  970000    306.51733   -7150.9717    35.633127   -7186.6048   -30901.379 
  970200    213.79522   -7162.9819    24.854034    -7187.836   -19856.784 
  970400    318.60556   -7149.4289    37.038403   -7186.4673    19478.447 
  970600    262.89257   -7151.2993    30.561679    -7181.861    17190.501 
  970800    316.60368   -7136.2385    36.805681   -7173.0442   -244.27634 
  971000    341.95647   -7141.3625    39.752984   -7181.1155     36853.18 
  971200    363.61206   -7146.6375    42.270481    -7188.908    1779.1155 
  971400    288.89734   -7156.8234    33.584776   -7190.4082    251.37916 
  971600    308.57358   -7136.6695     35.87217   -7172.5416   -22578.819 
  971800     266.7536   -7146.2661     31.01053   -7177.2766    11130.976 
  972000    329.15784   -7148.2735    38.265123   -7186.5386    16136.805 
  972200    314.37689    -7156.009    36.546814   -7192.5558    20976.403 
  972400    238.11383   -7155.6977    27.681112   -7183.3788   -6113.4858 
  972600     238.3168   -7144.5322    27.704708   -7172.2369    2422.2625 
  972800    300.22155   -7147.0489    34.901233   -7181.9501    13511.129 
  973000    288.48382   -7156.6268    33.536703   -7190.1635   -21173.864 
  973200    306.02216   -7149.4952    35.575563   -7185.0707    36179.534 
  973400    255.93439   -7156.5922     29.75278    -7186.345   -22754.906 
  973600    249.45811   -7157.5846    28.999903   -7186.5845    5291.1001 
  973800     358.3299   -7142.4139    41.656421   -7184.0704    1157.5605 
  974000    298.67758   -7151.6268    34.721745   -7186.3485   -5539.9212 
  974200    277.14354   -7153.8753    32.218377   -7186.0937    32790.154 
  974400    327.56836   -7144.9417    38.080343   -7183.0221   -27937.328 
  974600    305.28209   -7145.2982    35.489529   -7180.7878    14880.962 
  974800    318.52805   -7148.0743    37.029392   -7185.1037    3212.5996 
  975000    320.30221   -7153.3983    37.235642   -7190.6339    -24297.12 
  975200    333.38498   -7145.2329    38.756535   -7183.9894   -29682.419 
  975400    356.65793    -7130.762    41.462052    -7172.224    6503.4379 
  975600    257.72799   -7148.8019    29.961289   -7178.7632    50443.353 
  975800    273.30547   -7150.3009    31.772196   -7182.0731   -41217.713 
  976000    360.97512   -7145.1368    41.963932   -7187.1007   -21432.773 
  976200    322.69846   -7155.1088     37.51421    -7192.623    13401.164 
  976400    332.57369   -7137.6266    38.662221   -7176.2888    35183.141 
  976600     266.9867    -7148.327    31.037629   -7179.3647    19161.135 
  976800    306.68361   -7154.5197    35.652458   -7190.1722    5768.9766 
  977000    286.50717   -7157.2156    33.306914   -7190.5226   -45519.402 
  977200    313.34586   -7141.3189    36.426955   -7177.7459    4160.9928 
  977400     260.8084   -7147.9402    30.319392   -7178.2596     1414.376 
  977600    222.16146    -7161.681    25.826623   -7187.5076    29250.064 
  977800    346.07834   -7147.8476    40.232158   -7188.0798   -29650.009 
  978000    294.72521   -7154.7392    34.262275   -7189.0015   -23180.309 
  978200    308.55375   -7144.0971    35.869865    -7179.967    41160.032 
  978400    343.09393   -7139.2161    39.885215   -7179.1013    13063.223 
  978600     330.0663   -7148.0622    38.370733   -7186.4329   -12467.812 
  978800    284.29546   -7152.2468    33.049799   -7185.2966   -19828.922 
  979000    286.12001   -7147.6223    33.261907   -7180.8842    13798.987 
  979200    331.04609   -7138.9286    38.484635   -7177.4132    12991.575 
  979400    239.04093   -7152.2459    27.788889   -7180.0348   -21354.636 
  979600    282.44339   -7141.7781    32.834494   -7174.6126    4329.5967 
  979800    300.21424   -7146.8372    34.900384   -7181.7376    3296.1414 
  980000    297.61165   -7150.8365    34.597828   -7185.4343   -21977.756 
  980200    343.78703   -7136.4073     39.96579   -7176.3731     14407.09 
  980400    339.16485   -7141.7801    39.428454   -7181.2086    508.87338 
  980600    327.52125   -7153.0812    38.074866    -7191.156    15746.612 
  980800    309.13399   -7146.8961    35.937319   -7182.8334    10572.378 
  981000    280.43144    -7139.875    32.600602   -7172.4756   -44816.882 
  981200     292.2544   -7150.2987    33.975039   -7184.2738    17213.707 
  981400    277.81684   -7148.2767    32.296649   -7180.5734   -8854.8045 
  981600    345.75366   -7151.3555    40.194413   -7191.5499    1711.5309 
  981800    248.96892   -7158.6117    28.943034   -7187.5548    23705.002 
  982000    310.06244   -7140.7716    36.045252   -7176.8168    -2835.348 
  982200    323.53785   -7140.2049     37.61179   -7177.8167    73324.406 
  982400    267.50872   -7155.3229    31.098314   -7186.4212   -8468.1192 
  982600     310.2739   -7146.4587    36.069835   -7182.5285   -82.182856 
  982800    286.03423   -7149.0581    33.251934   -7182.3101   -9720.2676 
  983000     291.6434   -7155.0663    33.904009   -7188.9703    7359.1753 
  983200    341.12246   -7142.5011    39.656029   -7182.1572   -32390.789 
  983400    281.50591    -7155.755    32.725511   -7188.4805   -4845.4558 
  983600     253.9117   -7155.8304     29.51764    -7185.348   -28177.472 
  983800    339.02181   -7145.1411    39.411825   -7184.5529    32484.903 
  984000    270.06615   -7143.0142     31.39562   -7174.4098   -3755.2541 
  984200    334.62194   -7141.9994    38.900333   -7180.8997   -10746.989 
  984400    308.47768   -7155.4586    35.861022   -7191.3196   -4723.6677 
  984600    354.75467   -7142.3383    41.240795   -7183.5791    1852.3855 
  984800    349.11476   -7142.8367    40.585146   -7183.4219   -2523.1094 
  985000    295.34262   -7152.2689     34.33405    -7186.603   -7429.2577 
  985200    229.46342   -7165.4893    26.675488   -7192.1648    13759.854 
  985400    300.01393   -7152.5359    34.877097    -7187.413   -5001.1845 
  985600    321.38106   -7145.6676    37.361059   -7183.0286    13937.627 
  985800    316.20012   -7136.0176    36.758768   -7172.7763    27229.836 
  986000     299.0799   -7149.7952    34.768514   -7184.5637   -30900.334 
  986200    246.53418   -7157.0477    28.659991   -7185.7076   -23630.319 
  986400    345.08159   -7143.7342    40.116285   -7183.8504    504.32928 
  986600    343.29171   -7151.1397    39.908207   -7191.0479    3558.9862 
  986800    288.19324   -7148.9445    33.502922   -7182.4475   -790.75541 
  987000    347.78709   -7141.0079    40.430802   -7181.4387    -12847.49 
  987200    270.78442   -7152.2403     31.47912   -7183.7195   -3925.3605 
  987400    304.17161   -7147.7768    35.360433   -7183.1373     26560.73 
  987600    357.97863    -7137.815    41.615586   -7179.4305    21919.454 
  987800    277.56858   -7145.9093    32.267789   -7178.1771     3153.803 
  988000    294.41149   -7153.6131    34.225804   -7187.8389    23690.908 
  988200    322.45189   -7140.4457    37.485545   -7177.9313   -3949.9317 
  988400    307.81376   -7145.9451    35.783839    -7181.729   -358.43492 
  988600    318.68682   -7150.7867     37.04785   -7187.8346    12544.688 
  988800    325.14719   -7149.4237    37.798879   -7187.2225   -7247.5174 
  989000     319.1021    -7144.198    37.096127   -7181.2941    3663.0608 
  989200    251.66714   -7141.9358    29.256706   -7171.1925    28465.418 
  989400    287.95414   -7155.2504    33.475127   -7188.7255    27190.036 
  989600    333.50396   -7144.2537    38.770366   -7183.0241    28826.511 
  989800    320.81116   -7142.7649    37.294808   -7180.0597   -10470.311 
  990000    216.08131   -7154.1099    25.119796   -7179.2297    -4311.365 
  990200    273.83601   -7146.7379    31.833872   -7178.5718   -14629.618 
  990400    316.45693   -7146.7064    36.788622    -7183.495   -58932.527 
  990600    255.83835    -7160.712    29.741615   -7190.4536   -1530.1774 
  990800    285.12362   -7148.7519    33.146075    -7181.898    9225.4199 
  991000    323.21208   -7145.5924    37.573919   -7183.1663    17523.724 
  991200    260.59187   -7152.5345     30.29422   -7182.8287   -9808.9173 
  991400    281.08656   -7153.4214     32.67676   -7186.0982    20744.214 
  991600    320.77276   -7144.1579    37.290344   -7181.4483   -41475.491 
  991800    293.88783   -7151.2707    34.164929   -7185.4357    21995.203 
  992000    283.50721   -7153.5997    32.958165   -7186.5578   -23421.084 
  992200    372.52269   -7139.7878    43.306355   -7183.0942    20037.424 
  992400    298.42873   -7153.4469    34.692815   -7188.1397    3796.8972 
  992600    251.74842   -7151.0191    29.266155   -7180.2853   -18556.997 
  992800    283.87922   -7146.9488    33.001411   -7179.9502   -310.24122 
  993000    324.81973   -7139.3307    37.760811   -7177.0915    8785.6864 
  993200    283.93614   -7146.2653    33.008028   -7179.2734    7721.6104 
  993400    279.04873   -7153.5785     32.43986   -7186.0183     27115.11 
  993600    367.83408   -7137.5047    42.761298    -7180.266     15152.29 
  993800    351.20042   -7146.2868    40.827608   -7187.1144   -10839.755 
  994000    331.71969   -7152.0471    38.562942   -7190.6101    9148.0766 
  994200    370.92017   -7139.7313    43.120061   -7182.8513   -33821.327 
  994400    290.28176   -7153.2864    33.745716   -7187.0321     16986.11 
  994600    244.42986   -7149.7659    28.415361   -7178.1813   -10373.008 
  994800    307.62485   -7143.0343    35.761879   -7178.7962    24206.758 
  995000    272.20031   -7158.4716    31.643719   -7190.1153   -4001.8495 
  995200    283.17861   -7155.4072    32.919964   -7188.3272   -577.23704 
  995400    318.61543   -7142.0361    37.039552   -7179.0757   -21192.855 
  995600    278.33909    -7150.114    32.357362   -7182.4714    4768.5552 
  995800    176.81633   -7168.6282    20.555179   -7189.1834    18660.318 
  996000    288.88522     -7158.25    33.583366   -7191.8334    7921.9088 
  996200    355.63949   -7145.6678    41.343657   -7187.0114    -7260.065 
  996400    309.81641    -7146.273    36.016651   -7182.2897    -4004.955 
  996600    241.77857   -7155.1715    28.107144   -7183.2786    7362.2622 
  996800    301.97807   -7145.6713    35.105432   -7180.7767   -14650.282 
  997000    286.67625   -7153.2659     33.32657   -7186.5925    15314.852 
  997200    315.72581   -7142.8813    36.703628   -7179.5849   -11207.239 
  997400    320.84934   -7134.8087    37.299247   -7172.1079   -14471.482 
  997600    285.19753   -7146.9313    33.154667   -7180.0859   -10332.158 
  997800    243.00135   -7153.5531    28.249294   -7181.8024    18967.556 
  998000    306.25046   -7149.0444    35.602104   -7184.6465   -10126.179 
  998200    329.94985   -7155.0631    38.357195   -7193.4203   -2088.7912 
  998400    308.67203   -7142.5014    35.883615    -7178.385   -7411.5739 
  998600    294.98538   -7143.0051     34.29252   -7177.2976    1751.8847 
  998800    275.08742   -7161.7274     31.97935   -7193.7068    -16309.16 
  999000     327.6579   -7148.1214    38.090752   -7186.2122    24694.659 
  999200    251.99567   -7146.0503    29.294898   -7175.3452   -2688.9726 
  999400    291.73228   -7136.6154    33.914341   -7170.5297    76.014857 
  999600    321.46035   -7147.5629    37.370278   -7184.9332    3374.6463 
  999800    324.51046   -7152.1889    37.724858   -7189.9137    16634.813 
 1000000    312.94366   -7143.8729    36.380199   -7180.2531    10781.285 
Loop time of 16146.5 on 8 procs for 1000000 steps with 40 atoms

Performance: 1.338 ns/day, 17.941 hours/ns, 61.933 timesteps/s
99.7% CPU use with 8 MPI tasks x no OpenMP threads

MPI task timing breakdown:
Section |  min time  |  avg time  |  max time  |%varavg| %total
---------------------------------------------------------------
Pair    | 13594      | 14022      | 14464      | 236.0 | 86.84
Neigh   | 0          | 0          | 0          |   0.0 |  0.00
Comm    | 202.83     | 646.81     | 1073.6     |1100.3 |  4.01
Output  | 0.30765    | 0.33568    | 0.46444    |   8.5 |  0.00
Modify  | 1456.1     | 1457.3     | 1458.9     |   2.4 |  9.03
Other   |            | 20.49      |            |       |  0.13

Nlocal:    5 ave 5 max 5 min
Histogram: 8 0 0 0 0 0 0 0 0 0
Nghost:    1075 ave 1075 max 1075 min
Histogram: 8 0 0 0 0 0 0 0 0 0
Neighs:    1388 ave 1388 max 1388 min
Histogram: 8 0 0 0 0 0 0 0 0 0

Total # of neighbors = 11104
Ave neighs/atom = 277.6
Neighbor list builds = 0
Dangerous builds = 0

unfix 1
unfix output
undump 1

Please see the log.cite file for references relevant to this simulation

Total wall time: 4:29:19
