ITEM: TIMESTEP
0
ITEM: NUMBER OF ATOMS
40
ITEM: BOX BOUNDS pp pp pp
0.0000000000000000e+00 9.6058000000000003e+00
0.0000000000000000e+00 9.6058000000000003e+00
0.0000000000000000e+00 9.6058000000000003e+00
ITEM: ATOMS id type x y z 
1 1 1.20073 1.20073 1.20073 
2 1 0.348306 0.348306 0.348306 
3 1 2.05314 2.05314 0.348306 
4 1 0.348306 2.05314 2.05314 
5 1 2.05314 0.348306 2.05314 
11 1 3.60217 3.60217 8.40508 
12 1 2.74976 2.74976 9.25749 
13 1 4.45459 4.45459 9.25749 
14 1 4.45459 2.74976 7.55266 
15 1 2.74976 4.45459 7.55266 
16 1 3.60217 8.40508 3.60217 
17 1 2.74976 9.25749 2.74976 
18 1 4.45459 7.55266 2.74976 
19 1 4.45459 9.25749 4.45459 
20 1 2.74976 7.55266 4.45459 
31 1 1.20073 6.00363 6.00363 
32 1 0.348306 5.15121 5.15121 
33 1 2.05314 6.85604 5.15121 
34 1 0.348306 6.85604 6.85604 
35 1 2.05314 5.15121 6.85604 
26 1 8.40508 3.60217 3.60217 
27 1 9.25749 2.74976 2.74976 
28 1 7.55266 4.45459 2.74976 
29 1 7.55266 2.74976 4.45459 
30 1 9.25749 4.45459 4.45459 
36 1 6.00363 1.20073 6.00363 
37 1 6.85604 0.348306 6.85604 
38 1 5.15121 0.348306 5.15121 
39 1 5.15121 2.05314 6.85604 
40 1 6.85604 2.05314 5.15121 
21 1 6.00363 6.00363 1.20073 
22 1 5.15121 6.85604 2.05314 
23 1 6.85604 5.15121 2.05314 
24 1 5.15121 5.15121 0.348306 
25 1 6.85604 6.85604 0.348306 
6 1 8.40508 8.40508 8.40508 
7 1 9.25749 9.25749 9.25749 
8 1 7.55266 7.55266 9.25749 
9 1 7.55266 9.25749 7.55266 
10 1 9.25749 7.55266 7.55266 
ITEM: TIMESTEP
3
ITEM: NUMBER OF ATOMS
40
ITEM: BOX BOUNDS pp pp pp
0.0000000000000000e+00 9.6058000000000003e+00
0.0000000000000000e+00 9.6058000000000003e+00
0.0000000000000000e+00 9.6058000000000003e+00
ITEM: ATOMS id type x y z 
1 1 1.20076 1.20076 1.20076 
2 1 0.352709 0.352709 0.352681 
3 1 2.04869 2.04869 0.352639 
4 1 0.35264 2.04869 2.04869 
5 1 2.04869 0.35264 2.04869 
11 1 3.60215 3.60215 8.40504 
12 1 2.75421 2.75421 9.25316 
13 1 4.45021 4.45021 9.25308 
14 1 4.45025 2.75419 7.55711 
15 1 2.75419 4.45025 7.55711 
16 1 3.60215 8.40504 3.60215 
17 1 2.75421 9.25316 2.7542 
18 1 4.45025 7.55711 2.75419 
19 1 4.45021 9.25309 4.4502 
20 1 2.7542 7.55711 4.45025 
31 1 1.20075 6.00367 6.00366 
32 1 0.352727 5.15558 5.1556 
33 1 2.0487 6.85159 5.15555 
34 1 0.352641 6.85159 6.85159 
35 1 2.0487 5.15555 6.85159 
26 1 8.40504 3.60215 3.60215 
27 1 9.25316 2.75421 2.7542 
28 1 7.55711 4.45025 2.75419 
29 1 7.55711 2.7542 4.45025 
30 1 9.25309 4.45021 4.4502 
36 1 6.00367 1.20075 6.00366 
37 1 6.85159 0.352641 6.85159 
38 1 5.15558 0.352727 5.1556 
39 1 5.15555 2.0487 6.85159 
40 1 6.85159 2.0487 5.15555 
21 1 6.00366 6.00366 1.20075 
22 1 5.15555 6.85159 2.0487 
23 1 6.85159 5.15555 2.0487 
24 1 5.15558 5.15558 0.352735 
25 1 6.85159 6.85159 0.352642 
6 1 8.40505 8.40505 8.40503 
7 1 9.25309 9.25309 9.25313 
8 1 7.55711 7.55711 9.25316 
9 1 7.55711 9.25316 7.55711 
10 1 9.25316 7.55711 7.55711 
ITEM: TIMESTEP
4
ITEM: NUMBER OF ATOMS
40
ITEM: BOX BOUNDS pp pp pp
0.0000000000000000e+00 9.6058000000000003e+00
0.0000000000000000e+00 9.6058000000000003e+00
0.0000000000000000e+00 9.6058000000000003e+00
ITEM: ATOMS id type x y z 
1 1 1.20076 1.20076 1.20076 
2 1 0.352709 0.352709 0.352681 
3 1 2.04869 2.04869 0.352639 
4 1 0.35264 2.04869 2.04869 
5 1 2.04869 0.35264 2.04869 
11 1 3.60215 3.60215 8.40504 
12 1 2.75421 2.75421 9.25316 
13 1 4.45021 4.45021 9.25308 
14 1 4.45025 2.75419 7.55711 
15 1 2.75419 4.45025 7.55711 
16 1 3.60215 8.40504 3.60215 
17 1 2.75421 9.25316 2.7542 
18 1 4.45025 7.55711 2.75419 
19 1 4.45021 9.25309 4.4502 
20 1 2.7542 7.55711 4.45025 
31 1 1.20075 6.00367 6.00366 
32 1 0.352727 5.15558 5.1556 
33 1 2.0487 6.85159 5.15555 
34 1 0.352641 6.85159 6.85159 
35 1 2.0487 5.15555 6.85159 
26 1 8.40504 3.60215 3.60215 
27 1 9.25316 2.75421 2.7542 
28 1 7.55711 4.45025 2.75419 
29 1 7.55711 2.7542 4.45025 
30 1 9.25309 4.45021 4.4502 
36 1 6.00367 1.20075 6.00366 
37 1 6.85159 0.352641 6.85159 
38 1 5.15558 0.352727 5.1556 
39 1 5.15555 2.0487 6.85159 
40 1 6.85159 2.0487 5.15555 
21 1 6.00366 6.00366 1.20075 
22 1 5.15555 6.85159 2.0487 
23 1 6.85159 5.15555 2.0487 
24 1 5.15558 5.15558 0.352735 
25 1 6.85159 6.85159 0.352642 
6 1 8.40505 8.40505 8.40503 
7 1 9.25309 9.25309 9.25313 
8 1 7.55711 7.55711 9.25316 
9 1 7.55711 9.25316 7.55711 
10 1 9.25316 7.55711 7.55711 
ITEM: TIMESTEP
10
ITEM: NUMBER OF ATOMS
40
ITEM: BOX BOUNDS pp pp pp
-2.8817399999999998e-03 9.6086817400000033e+00
-2.8817399999999998e-03 9.6086817400000033e+00
-2.8817399999999998e-03 9.6086817400000033e+00
ITEM: ATOMS id type x y z 
1 1 1.1986 1.1986 1.1986 
2 1 0.350025 0.350025 0.349997 
3 1 2.04705 2.04705 0.349955 
4 1 0.349956 2.04705 2.04706 
5 1 2.04705 0.349956 2.04706 
11 1 3.60143 3.60143 8.4072 
12 1 2.75296 2.75296 9.25584 
13 1 4.45001 4.45001 9.25577 
14 1 4.45005 2.75295 7.55875 
15 1 2.75295 4.45005 7.55875 
16 1 3.60143 8.4072 3.60143 
17 1 2.75297 9.25584 2.75296 
18 1 4.45005 7.55875 2.75295 
19 1 4.45002 9.25577 4.45 
20 1 2.75295 7.55875 4.45005 
31 1 1.19859 6.00439 6.00438 
32 1 0.350043 5.15577 5.1558 
33 1 2.04706 6.85283 5.15575 
34 1 0.349957 6.85283 6.85283 
35 1 2.04706 5.15575 6.85283 
26 1 8.4072 3.60143 3.60143 
27 1 9.25584 2.75297 2.75296 
28 1 7.55875 4.45005 2.75295 
29 1 7.55875 2.75295 4.45005 
30 1 9.25577 4.45002 4.45 
36 1 6.00439 1.19859 6.00438 
37 1 6.85283 0.349957 6.85283 
38 1 5.15577 0.350043 5.1558 
39 1 5.15575 2.04706 6.85283 
40 1 6.85283 2.04706 5.15575 
21 1 6.00439 6.00439 1.19858 
22 1 5.15575 6.85284 2.04706 
23 1 6.85284 5.15575 2.04706 
24 1 5.15578 5.15578 0.350051 
25 1 6.85283 6.85283 0.349957 
6 1 8.40721 8.40721 8.40719 
7 1 9.25577 9.25577 9.25582 
8 1 7.55875 7.55875 9.25584 
9 1 7.55875 9.25584 7.55875 
10 1 9.25584 7.55875 7.55875 
ITEM: TIMESTEP
20
ITEM: NUMBER OF ATOMS
40
ITEM: BOX BOUNDS pp pp pp
-7.6846399999999961e-03 9.6134846400000082e+00
-7.6846399999999961e-03 9.6134846400000082e+00
-7.6846399999999961e-03 9.6134846400000082e+00
ITEM: ATOMS id type x y z 
1 1 1.195 1.195 1.195 
2 1 0.344621 0.344621 0.344595 
3 1 2.04526 2.04526 0.344547 
4 1 0.344548 2.04526 2.04526 
5 1 2.04526 0.344548 2.04526 
11 1 3.60023 3.60023 8.4108 
12 1 2.74996 2.74996 9.26125 
13 1 4.45061 4.45061 9.26117 
14 1 4.45066 2.74994 7.56054 
15 1 2.74994 4.45066 7.56054 
16 1 3.60023 8.4108 3.60023 
17 1 2.74996 9.26125 2.74995 
18 1 4.45066 7.56054 2.74994 
19 1 4.45062 9.26118 4.4506 
20 1 2.74994 7.56054 4.45066 
31 1 1.19498 6.00559 6.00558 
32 1 0.344637 5.15517 5.1552 
33 1 2.04527 6.85584 5.15514 
34 1 0.344547 6.85584 6.85584 
35 1 2.04527 5.15514 6.85584 
26 1 8.4108 3.60023 3.60023 
27 1 9.26125 2.74996 2.74995 
28 1 7.56054 4.45066 2.74994 
29 1 7.56054 2.74994 4.45066 
30 1 9.26118 4.45062 4.4506 
36 1 6.00559 1.19498 6.00558 
37 1 6.85584 0.344547 6.85584 
38 1 5.15517 0.344637 5.1552 
39 1 5.15514 2.04527 6.85584 
40 1 6.85584 2.04527 5.15514 
21 1 6.00558 6.00558 1.19498 
22 1 5.15514 6.85584 2.04527 
23 1 6.85584 5.15514 2.04527 
24 1 5.15518 5.15518 0.344644 
25 1 6.85584 6.85584 0.344547 
6 1 8.41081 8.41081 8.41079 
7 1 9.26118 9.26118 9.26122 
8 1 7.56054 7.56054 9.26125 
9 1 7.56054 9.26125 7.56054 
10 1 9.26125 7.56054 7.56054 
ITEM: TIMESTEP
30
ITEM: NUMBER OF ATOMS
40
ITEM: BOX BOUNDS pp pp pp
-1.2247394999999993e-02 9.6180473950000120e+00
-1.2247394999999993e-02 9.6180473950000120e+00
-1.2247394999999993e-02 9.6180473950000120e+00
ITEM: ATOMS id type x y z 
1 1 1.19157 1.19157 1.19158 
2 1 0.339833 0.339833 0.339809 
3 1 2.04321 2.04321 0.339758 
4 1 0.339759 2.0432 2.04321 
5 1 2.0432 0.339759 2.04321 
11 1 3.59909 3.59909 8.41422 
12 1 2.74745 2.74745 9.26604 
13 1 4.45083 4.45083 9.26596 
14 1 4.45088 2.74743 7.56259 
15 1 2.74743 4.45088 7.56259 
16 1 3.59909 8.41422 3.59909 
17 1 2.74745 9.26604 2.74744 
18 1 4.45088 7.56259 2.74743 
19 1 4.45084 9.26597 4.45082 
20 1 2.74744 7.56259 4.45088 
31 1 1.19156 6.00673 6.00672 
32 1 0.339848 5.15495 5.15497 
33 1 2.04321 6.85835 5.15492 
34 1 0.339759 6.85835 6.85835 
35 1 2.04322 5.15492 6.85835 
26 1 8.41422 3.59909 3.59909 
27 1 9.26604 2.74745 2.74744 
28 1 7.56259 4.45088 2.74743 
29 1 7.56259 2.74744 4.45088 
30 1 9.26597 4.45084 4.45082 
36 1 6.00673 1.19156 6.00672 
37 1 6.85835 0.339759 6.85835 
38 1 5.15495 0.339848 5.15497 
39 1 5.15492 2.04322 6.85835 
40 1 6.85835 2.04321 5.15492 
21 1 6.00672 6.00672 1.19156 
22 1 5.15492 6.85835 2.04322 
23 1 6.85835 5.15492 2.04322 
24 1 5.15496 5.15496 0.339856 
25 1 6.85835 6.85835 0.339758 
6 1 8.41423 8.41423 8.41421 
7 1 9.26596 9.26596 9.266 
8 1 7.5626 7.5626 9.26604 
9 1 7.5626 9.26604 7.5626 
10 1 9.26604 7.5626 7.5626 
ITEM: TIMESTEP
40
ITEM: NUMBER OF ATOMS
40
ITEM: BOX BOUNDS pp pp pp
-1.7050294999999983e-02 9.6228502950000170e+00
-1.7050294999999983e-02 9.6228502950000170e+00
-1.7050294999999983e-02 9.6228502950000170e+00
ITEM: ATOMS id type x y z 
1 1 1.18797 1.18797 1.18797 
2 1 0.335129 0.335129 0.335105 
3 1 2.04071 2.04071 0.335054 
4 1 0.335055 2.04071 2.04071 
5 1 2.04071 0.335055 2.04071 
11 1 3.59789 3.59789 8.41783 
12 1 2.74514 2.74514 9.27074 
13 1 4.45073 4.45073 9.27067 
14 1 4.45078 2.74513 7.56509 
15 1 2.74513 4.45078 7.56509 
16 1 3.59789 8.41783 3.59789 
17 1 2.74515 9.27074 2.74514 
18 1 4.45078 7.56509 2.74513 
19 1 4.45074 9.27067 4.45072 
20 1 2.74513 7.56509 4.45078 
31 1 1.18796 6.00793 6.00792 
32 1 0.335144 5.15505 5.15507 
33 1 2.04071 6.86066 5.15501 
34 1 0.335054 6.86066 6.86065 
35 1 2.04072 5.15502 6.86066 
26 1 8.41783 3.59789 3.59789 
27 1 9.27074 2.74515 2.74514 
28 1 7.56509 4.45078 2.74513 
29 1 7.56509 2.74513 4.45078 
30 1 9.27067 4.45074 4.45072 
36 1 6.00793 1.18796 6.00792 
37 1 6.86066 0.335054 6.86065 
38 1 5.15505 0.335144 5.15507 
39 1 5.15502 2.04072 6.86066 
40 1 6.86066 2.04071 5.15501 
21 1 6.00793 6.00793 1.18796 
22 1 5.15502 6.86066 2.04072 
23 1 6.86066 5.15502 2.04072 
24 1 5.15506 5.15506 0.335151 
25 1 6.86066 6.86066 0.335054 
6 1 8.41783 8.41783 8.41782 
7 1 9.27067 9.27067 9.27071 
8 1 7.5651 7.5651 9.27075 
9 1 7.5651 9.27075 7.5651 
10 1 9.27075 7.5651 7.5651 
ITEM: TIMESTEP
50
ITEM: NUMBER OF ATOMS
40
ITEM: BOX BOUNDS pp pp pp
-2.1613049999999964e-02 9.6274130500000208e+00
-2.1613049999999964e-02 9.6274130500000208e+00
-2.1613049999999964e-02 9.6274130500000208e+00
ITEM: ATOMS id type x y z 
1 1 1.18455 1.18455 1.18455 
2 1 0.330314 0.330314 0.330291 
3 1 2.03868 2.03868 0.330239 
4 1 0.33024 2.03868 2.03868 
5 1 2.03868 0.33024 2.03868 
11 1 3.59675 3.59675 8.42125 
12 1 2.74261 2.74261 9.27556 
13 1 4.45099 4.45099 9.27548 
14 1 4.45103 2.7426 7.56712 
15 1 2.7426 4.45103 7.56712 
16 1 3.59675 8.42125 3.59675 
17 1 2.74261 9.27556 2.74261 
18 1 4.45103 7.56712 2.7426 
19 1 4.45099 9.27549 4.45098 
20 1 2.7426 7.56712 4.45104 
31 1 1.18454 6.00907 6.00906 
32 1 0.330328 5.1548 5.15482 
33 1 2.03869 6.86319 5.15476 
34 1 0.330239 6.86319 6.86319 
35 1 2.03869 5.15476 6.86319 
26 1 8.42125 3.59675 3.59675 
27 1 9.27556 2.74261 2.74261 
28 1 7.56712 4.45103 2.7426 
29 1 7.56712 2.7426 4.45104 
30 1 9.27549 4.45099 4.45098 
36 1 6.00907 1.18454 6.00906 
37 1 6.86319 0.330239 6.86319 
38 1 5.1548 0.330328 5.15482 
39 1 5.15476 2.03869 6.86319 
40 1 6.86319 2.03869 5.15476 
21 1 6.00907 6.00907 1.18454 
22 1 5.15476 6.86319 2.03869 
23 1 6.86319 5.15476 2.03869 
24 1 5.15481 5.15481 0.330336 
25 1 6.86319 6.86319 0.330239 
6 1 8.42126 8.42126 8.42124 
7 1 9.27548 9.27548 9.27552 
8 1 7.56712 7.56712 9.27556 
9 1 7.56712 9.27556 7.56712 
10 1 9.27556 7.56712 7.56712 
ITEM: TIMESTEP
60
ITEM: NUMBER OF ATOMS
40
ITEM: BOX BOUNDS pp pp pp
-2.6415949999999942e-02 9.6322159500000257e+00
-2.6415949999999942e-02 9.6322159500000257e+00
-2.6415949999999942e-02 9.6322159500000257e+00
ITEM: ATOMS id type x y z 
1 1 1.18095 1.18095 1.18095 
2 1 0.324742 0.324742 0.324722 
3 1 2.03705 2.03705 0.324668 
4 1 0.324669 2.03705 2.03705 
5 1 2.03705 0.324669 2.03705 
11 1 3.59555 3.59555 8.42485 
12 1 2.73944 2.73944 9.28113 
13 1 4.45175 4.45175 9.28106 
14 1 4.4518 2.73942 7.56875 
15 1 2.73942 4.4518 7.56875 
16 1 3.59555 8.42485 3.59555 
17 1 2.73944 9.28113 2.73943 
18 1 4.4518 7.56875 2.73942 
19 1 4.45176 9.28106 4.45174 
20 1 2.73943 7.56875 4.4518 
31 1 1.18094 6.01027 6.01026 
32 1 0.324755 5.15403 5.15405 
33 1 2.03705 6.86636 5.154 
34 1 0.324668 6.86636 6.86636 
35 1 2.03706 5.154 6.86636 
26 1 8.42485 3.59555 3.59555 
27 1 9.28113 2.73944 2.73943 
28 1 7.56875 4.4518 2.73942 
29 1 7.56875 2.73943 4.4518 
30 1 9.28106 4.45176 4.45174 
36 1 6.01027 1.18094 6.01026 
37 1 6.86636 0.324668 6.86636 
38 1 5.15403 0.324755 5.15405 
39 1 5.154 2.03706 6.86636 
40 1 6.86636 2.03705 5.154 
21 1 6.01026 6.01026 1.18093 
22 1 5.154 6.86636 2.03706 
23 1 6.86636 5.154 2.03706 
24 1 5.15404 5.15404 0.324762 
25 1 6.86636 6.86636 0.324668 
6 1 8.42486 8.42486 8.42484 
7 1 9.28105 9.28105 9.28109 
8 1 7.56875 7.56875 9.28113 
9 1 7.56876 9.28113 7.56875 
10 1 9.28113 7.56876 7.56875 
ITEM: TIMESTEP
70
ITEM: NUMBER OF ATOMS
40
ITEM: BOX BOUNDS pp pp pp
-3.0978704999999922e-02 9.6367787050000295e+00
-3.0978704999999922e-02 9.6367787050000295e+00
-3.0978704999999922e-02 9.6367787050000295e+00
ITEM: ATOMS id type x y z 
1 1 1.17752 1.17752 1.17752 
2 1 0.320042 0.320042 0.320022 
3 1 2.0349 2.0349 0.319968 
4 1 0.319969 2.0349 2.03491 
5 1 2.0349 0.319969 2.03491 
11 1 3.59441 3.59441 8.42827 
12 1 2.73702 2.73702 9.28583 
13 1 4.45189 4.45189 9.28576 
14 1 4.45194 2.737 7.5709 
15 1 2.737 4.45194 7.5709 
16 1 3.59441 8.42828 3.59441 
17 1 2.73702 9.28583 2.73701 
18 1 4.45194 7.5709 2.73701 
19 1 4.4519 9.28576 4.45188 
20 1 2.73701 7.5709 4.45194 
31 1 1.17751 6.01141 6.0114 
32 1 0.320054 5.15389 5.15392 
33 1 2.03491 6.86878 5.15386 
34 1 0.319968 6.86878 6.86878 
35 1 2.03491 5.15386 6.86878 
26 1 8.42828 3.59441 3.59441 
27 1 9.28583 2.73702 2.73701 
28 1 7.5709 4.45194 2.73701 
29 1 7.5709 2.73701 4.45194 
30 1 9.28576 4.4519 4.45188 
36 1 6.01141 1.17751 6.0114 
37 1 6.86878 0.319968 6.86878 
38 1 5.15389 0.320054 5.15392 
39 1 5.15386 2.03491 6.86878 
40 1 6.86878 2.03491 5.15386 
21 1 6.0114 6.0114 1.17751 
22 1 5.15386 6.86878 2.03491 
23 1 6.86878 5.15386 2.03491 
24 1 5.1539 5.1539 0.320061 
25 1 6.86878 6.86878 0.319968 
6 1 8.42828 8.42828 8.42827 
7 1 9.28575 9.28575 9.28579 
8 1 7.5709 7.5709 9.28583 
9 1 7.5709 9.28583 7.5709 
10 1 9.28583 7.5709 7.5709 
ITEM: TIMESTEP
80
ITEM: NUMBER OF ATOMS
40
ITEM: BOX BOUNDS pp pp pp
-3.5781604999999932e-02 9.6415816050000345e+00
-3.5781604999999932e-02 9.6415816050000345e+00
-3.5781604999999932e-02 9.6415816050000345e+00
ITEM: ATOMS id type x y z 
1 1 1.17392 1.17392 1.17392 
2 1 0.315295 0.315295 0.315275 
3 1 2.03245 2.03245 0.315221 
4 1 0.315222 2.03245 2.03245 
5 1 2.03245 0.315222 2.03245 
11 1 3.59321 3.59321 8.43188 
12 1 2.73467 2.73467 9.29058 
13 1 4.45183 4.45183 9.2905 
14 1 4.45188 2.73466 7.57335 
15 1 2.73466 4.45188 7.57335 
16 1 3.59321 8.43188 3.59321 
17 1 2.73467 9.29057 2.73467 
18 1 4.45188 7.57335 2.73466 
19 1 4.45184 9.29051 4.45183 
20 1 2.73466 7.57335 4.45189 
31 1 1.17391 6.01261 6.0126 
32 1 0.315306 5.15395 5.15397 
33 1 2.03245 6.87113 5.15391 
34 1 0.315221 6.87113 6.87113 
35 1 2.03246 5.15391 6.87113 
26 1 8.43188 3.59321 3.59321 
27 1 9.29057 2.73467 2.73467 
28 1 7.57335 4.45188 2.73466 
29 1 7.57335 2.73466 4.45189 
30 1 9.29051 4.45184 4.45183 
36 1 6.01261 1.17391 6.0126 
37 1 6.87113 0.315221 6.87113 
38 1 5.15395 0.315306 5.15397 
39 1 5.15391 2.03246 6.87113 
40 1 6.87113 2.03245 5.15391 
21 1 6.0126 6.0126 1.17391 
22 1 5.15391 6.87113 2.03246 
23 1 6.87113 5.15391 2.03246 
24 1 5.15396 5.15396 0.315313 
25 1 6.87113 6.87113 0.315221 
6 1 8.43188 8.43188 8.43187 
7 1 9.2905 9.2905 9.29054 
8 1 7.57335 7.57335 9.29058 
9 1 7.57336 9.29058 7.57335 
10 1 9.29058 7.57336 7.57335 
ITEM: TIMESTEP
90
ITEM: NUMBER OF ATOMS
40
ITEM: BOX BOUNDS pp pp pp
-4.0224287499999942e-02 9.6460242875000386e+00
-4.0224287499999942e-02 9.6460242875000386e+00
-4.0224287499999942e-02 9.6460242875000386e+00
ITEM: ATOMS id type x y z 
1 1 1.17059 1.17059 1.17059 
2 1 0.310644 0.310644 0.310626 
3 1 2.03043 2.03043 0.310571 
4 1 0.310572 2.03043 2.03043 
5 1 2.03043 0.310572 2.03043 
11 1 3.5921 3.5921 8.43521 
12 1 2.73224 2.73224 9.29523 
13 1 4.45204 4.45204 9.29516 
14 1 4.45209 2.73223 7.57537 
15 1 2.73223 4.45209 7.57537 
16 1 3.5921 8.43521 3.5921 
17 1 2.73224 9.29522 2.73224 
18 1 4.45209 7.57537 2.73223 
19 1 4.45205 9.29516 4.45203 
20 1 2.73223 7.57537 4.45209 
31 1 1.17058 6.01372 6.01371 
32 1 0.310656 5.15374 5.15376 
33 1 2.03044 6.87356 5.15371 
34 1 0.310572 6.87356 6.87356 
35 1 2.03044 5.15371 6.87356 
26 1 8.43521 3.5921 3.5921 
27 1 9.29522 2.73224 2.73224 
28 1 7.57537 4.45209 2.73223 
29 1 7.57537 2.73223 4.45209 
30 1 9.29516 4.45205 4.45203 
36 1 6.01372 1.17058 6.01371 
37 1 6.87356 0.310572 6.87356 
38 1 5.15374 0.310656 5.15376 
39 1 5.15371 2.03044 6.87356 
40 1 6.87356 2.03044 5.15371 
21 1 6.01371 6.01371 1.17058 
22 1 5.15371 6.87356 2.03044 
23 1 6.87356 5.15371 2.03044 
24 1 5.15375 5.15375 0.310662 
25 1 6.87356 6.87356 0.310571 
6 1 8.43522 8.43522 8.4352 
7 1 9.29515 9.29515 9.29519 
8 1 7.57537 7.57537 9.29523 
9 1 7.57537 9.29523 7.57537 
10 1 9.29523 7.57537 7.57537 
ITEM: TIMESTEP
100
ITEM: NUMBER OF ATOMS
40
ITEM: BOX BOUNDS pp pp pp
-4.4700242727037862e-02 9.6505002427270803e+00
-4.4700242727037862e-02 9.6505002427270803e+00
-4.4700242727037862e-02 9.6505002427270803e+00
ITEM: ATOMS id type x y z 
1 1 1.16723 1.16723 1.16723 
2 1 0.305883 0.305883 0.305866 
3 1 2.02848 2.02848 0.305811 
4 1 0.305812 2.02848 2.02848 
5 1 2.02848 0.305812 2.02848 
11 1 3.59098 3.59098 8.43857 
12 1 2.72972 2.72972 9.29999 
13 1 4.45232 4.45232 9.29992 
14 1 4.45238 2.72971 7.57732 
15 1 2.72971 4.45238 7.57732 
16 1 3.59098 8.43857 3.59098 
17 1 2.72972 9.29998 2.72972 
18 1 4.45238 7.57732 2.72971 
19 1 4.45233 9.29992 4.45232 
20 1 2.72971 7.57732 4.45238 
31 1 1.16722 6.01483 6.01483 
32 1 0.305894 5.15346 5.15348 
33 1 2.02849 6.87608 5.15342 
34 1 0.305812 6.87608 6.87608 
35 1 2.02849 5.15342 6.87608 
26 1 8.43857 3.59098 3.59098 
27 1 9.29998 2.72972 2.72972 
28 1 7.57732 4.45238 2.72971 
29 1 7.57732 2.72971 4.45238 
30 1 9.29992 4.45233 4.45232 
36 1 6.01483 1.16722 6.01483 
37 1 6.87608 0.305812 6.87608 
38 1 5.15346 0.305894 5.15348 
39 1 5.15342 2.02849 6.87608 
40 1 6.87608 2.02849 5.15342 
21 1 6.01483 6.01483 1.16722 
22 1 5.15342 6.87608 2.02849 
23 1 6.87608 5.15342 2.02849 
24 1 5.15347 5.15347 0.3059 
25 1 6.87608 6.87608 0.305811 
6 1 8.43857 8.43857 8.43856 
7 1 9.29991 9.29991 9.29995 
8 1 7.57732 7.57732 9.29999 
9 1 7.57732 9.29999 7.57732 
10 1 9.29999 7.57732 7.57732 
ITEM: TIMESTEP
110
ITEM: NUMBER OF ATOMS
40
ITEM: BOX BOUNDS pp pp pp
-4.9100123549684474e-02 9.6549001235497318e+00
-4.9100123549684474e-02 9.6549001235497318e+00
-4.9100123549684474e-02 9.6549001235497318e+00
ITEM: ATOMS id type x y z 
1 1 1.16393 1.16393 1.16393 
2 1 0.301267 0.301267 0.301251 
3 1 2.0265 2.0265 0.301196 
4 1 0.301197 2.0265 2.0265 
5 1 2.0265 0.301197 2.0265 
11 1 3.58988 3.58988 8.44187 
12 1 2.7273 2.7273 9.3046 
13 1 4.45254 4.45254 9.30454 
14 1 4.45259 2.72729 7.5793 
15 1 2.72729 4.45259 7.5793 
16 1 3.58988 8.44187 3.58988 
17 1 2.7273 9.3046 2.7273 
18 1 4.45259 7.5793 2.72729 
19 1 4.45255 9.30454 4.45253 
20 1 2.72729 7.5793 4.45259 
31 1 1.16392 6.01593 6.01593 
32 1 0.301277 5.15324 5.15326 
33 1 2.0265 6.8785 5.15321 
34 1 0.301196 6.8785 6.8785 
35 1 2.02651 5.15321 6.8785 
26 1 8.44187 3.58988 3.58988 
27 1 9.3046 2.7273 2.7273 
28 1 7.5793 4.45259 2.72729 
29 1 7.5793 2.72729 4.45259 
30 1 9.30454 4.45255 4.45253 
36 1 6.01593 1.16392 6.01593 
37 1 6.8785 0.301196 6.8785 
38 1 5.15324 0.301277 5.15326 
39 1 5.15321 2.02651 6.8785 
40 1 6.8785 2.0265 5.15321 
21 1 6.01593 6.01593 1.16392 
22 1 5.15321 6.8785 2.0265 
23 1 6.8785 5.15321 2.0265 
24 1 5.15325 5.15325 0.301283 
25 1 6.8785 6.8785 0.301196 
6 1 8.44187 8.44187 8.44186 
7 1 9.30453 9.30453 9.30456 
8 1 7.5793 7.5793 9.3046 
9 1 7.5793 9.3046 7.5793 
10 1 9.3046 7.5793 7.5793 
ITEM: TIMESTEP
120
ITEM: NUMBER OF ATOMS
40
ITEM: BOX BOUNDS pp pp pp
-5.2691554282067093e-02 9.6584915542821186e+00
-5.2691554282067093e-02 9.6584915542821186e+00
-5.2691554282067093e-02 9.6584915542821186e+00
ITEM: ATOMS id type x y z 
1 1 1.16123 1.16123 1.16123 
2 1 0.29487 0.29487 0.294862 
3 1 2.02751 2.02751 0.294807 
4 1 0.294808 2.02751 2.02751 
5 1 2.02751 0.294808 2.02751 
11 1 3.58899 3.58899 8.44456 
12 1 2.7227 2.7227 9.31099 
13 1 4.45534 4.45534 9.31094 
14 1 4.45539 2.72269 7.57829 
15 1 2.72269 4.45539 7.57829 
16 1 3.58899 8.44457 3.58898 
17 1 2.7227 9.31099 2.7227 
18 1 4.45539 7.57829 2.72269 
19 1 4.45534 9.31094 4.45534 
20 1 2.72269 7.57829 4.45539 
31 1 1.16123 6.01682 6.01682 
32 1 0.294877 5.15045 5.15046 
33 1 2.02751 6.8831 5.15041 
34 1 0.294807 6.8831 6.8831 
35 1 2.02752 5.15041 6.8831 
26 1 8.44457 3.58899 3.58898 
27 1 9.31099 2.7227 2.7227 
28 1 7.57829 4.45539 2.72269 
29 1 7.57829 2.72269 4.45539 
30 1 9.31094 4.45534 4.45534 
36 1 6.01682 1.16123 6.01682 
37 1 6.8831 0.294807 6.8831 
38 1 5.15045 0.294877 5.15046 
39 1 5.15041 2.02752 6.8831 
40 1 6.8831 2.02751 5.15041 
21 1 6.01682 6.01682 1.16123 
22 1 5.15041 6.8831 2.02751 
23 1 6.8831 5.15041 2.02751 
24 1 5.15045 5.15045 0.294879 
25 1 6.8831 6.8831 0.294806 
6 1 8.44457 8.44457 8.44456 
7 1 9.31093 9.31093 9.31095 
8 1 7.57829 7.57829 9.31099 
9 1 7.57829 9.31099 7.57829 
10 1 9.31099 7.57829 7.57829 
ITEM: TIMESTEP
130
ITEM: NUMBER OF ATOMS
40
ITEM: BOX BOUNDS pp pp pp
-5.7494454282067037e-02 9.6632944542821235e+00
-5.7494454282067037e-02 9.6632944542821235e+00
-5.7494454282067037e-02 9.6632944542821235e+00
ITEM: ATOMS id type x y z 
1 1 1.15763 1.15763 1.15763 
2 1 0.29041 0.29041 0.290403 
3 1 2.02477 2.02477 0.290347 
4 1 0.290348 2.02477 2.02477 
5 1 2.02477 0.290348 2.02477 
11 1 3.58779 3.58779 8.44817 
12 1 2.72064 2.72064 9.31545 
13 1 4.45499 4.45499 9.3154 
14 1 4.45504 2.72063 7.58103 
15 1 2.72063 4.45504 7.58103 
16 1 3.58778 8.44817 3.58778 
17 1 2.72064 9.31545 2.72064 
18 1 4.45504 7.58103 2.72063 
19 1 4.455 9.31539 4.45499 
20 1 2.72063 7.58103 4.45505 
31 1 1.15763 6.01803 6.01802 
32 1 0.290418 5.15079 5.15081 
33 1 2.02477 6.88516 5.15075 
34 1 0.290348 6.88516 6.88516 
35 1 2.02477 5.15075 6.88516 
26 1 8.44817 3.58778 3.58778 
27 1 9.31545 2.72064 2.72064 
28 1 7.58103 4.45504 2.72063 
29 1 7.58103 2.72063 4.45505 
30 1 9.31539 4.455 4.45499 
36 1 6.01803 1.15763 6.01802 
37 1 6.88516 0.290348 6.88516 
38 1 5.15079 0.290418 5.15081 
39 1 5.15075 2.02477 6.88516 
40 1 6.88516 2.02477 5.15075 
21 1 6.01802 6.01802 1.15762 
22 1 5.15075 6.88516 2.02477 
23 1 6.88516 5.15075 2.02477 
24 1 5.1508 5.1508 0.290419 
25 1 6.88516 6.88516 0.290347 
6 1 8.44817 8.44817 8.44816 
7 1 9.31539 9.31539 9.31541 
8 1 7.58104 7.58104 9.31545 
9 1 7.58104 9.31545 7.58104 
10 1 9.31545 7.58104 7.58104 
ITEM: TIMESTEP
140
ITEM: NUMBER OF ATOMS
40
ITEM: BOX BOUNDS pp pp pp
-6.2297354282066980e-02 9.6680973542821285e+00
-6.2297354282066980e-02 9.6680973542821285e+00
-6.2297354282066980e-02 9.6680973542821285e+00
ITEM: ATOMS id type x y z 
1 1 1.15403 1.15403 1.15403 
2 1 0.285948 0.285948 0.285941 
3 1 2.02202 2.02202 0.285885 
4 1 0.285886 2.02202 2.02202 
5 1 2.02202 0.285886 2.02202 
11 1 3.58658 3.58658 8.45177 
12 1 2.71858 2.71858 9.31991 
13 1 4.45465 4.45465 9.31986 
14 1 4.4547 2.71857 7.58377 
15 1 2.71857 4.4547 7.58377 
16 1 3.58658 8.45177 3.58658 
17 1 2.71858 9.31991 2.71858 
18 1 4.4547 7.58377 2.71857 
19 1 4.45466 9.31986 4.45465 
20 1 2.71857 7.58377 4.4547 
31 1 1.15402 6.01923 6.01922 
32 1 0.285956 5.15113 5.15115 
33 1 2.02203 6.88722 5.15109 
34 1 0.285886 6.88722 6.88722 
35 1 2.02203 5.15109 6.88722 
26 1 8.45177 3.58658 3.58658 
27 1 9.31991 2.71858 2.71858 
28 1 7.58377 4.4547 2.71857 
29 1 7.58377 2.71857 4.4547 
30 1 9.31986 4.45466 4.45465 
36 1 6.01923 1.15402 6.01922 
37 1 6.88722 0.285886 6.88722 
38 1 5.15113 0.285956 5.15115 
39 1 5.15109 2.02203 6.88722 
40 1 6.88722 2.02203 5.15109 
21 1 6.01922 6.01922 1.15402 
22 1 5.15109 6.88722 2.02203 
23 1 6.88722 5.15109 2.02203 
24 1 5.15114 5.15114 0.285958 
25 1 6.88722 6.88722 0.285885 
6 1 8.45178 8.45178 8.45177 
7 1 9.31985 9.31985 9.31987 
8 1 7.58378 7.58378 9.31991 
9 1 7.58378 9.31991 7.58378 
10 1 9.31991 7.58378 7.58378 
ITEM: TIMESTEP
150
ITEM: NUMBER OF ATOMS
40
ITEM: BOX BOUNDS pp pp pp
-6.7100254282066923e-02 9.6729002542821334e+00
-6.7100254282066923e-02 9.6729002542821334e+00
-6.7100254282066923e-02 9.6729002542821334e+00
ITEM: ATOMS id type x y z 
1 1 1.15043 1.15043 1.15042 
2 1 0.281483 0.281483 0.281476 
3 1 2.01928 2.01928 0.28142 
4 1 0.281421 2.01928 2.01928 
5 1 2.01928 0.281421 2.01928 
11 1 3.58538 3.58538 8.45537 
12 1 2.71652 2.71652 9.32438 
13 1 4.45432 4.45432 9.32433 
14 1 4.45437 2.71651 7.58651 
15 1 2.71651 4.45437 7.58651 
16 1 3.58538 8.45537 3.58538 
17 1 2.71652 9.32438 2.71652 
18 1 4.45437 7.58651 2.71651 
19 1 4.45432 9.32432 4.45432 
20 1 2.71651 7.58651 4.45437 
31 1 1.15042 6.02043 6.02042 
32 1 0.281491 5.15147 5.15148 
33 1 2.01929 6.88929 5.15143 
34 1 0.281421 6.88928 6.88928 
35 1 2.01929 5.15143 6.88929 
26 1 8.45537 3.58538 3.58538 
27 1 9.32438 2.71652 2.71652 
28 1 7.58651 4.45437 2.71651 
29 1 7.58651 2.71651 4.45437 
30 1 9.32432 4.45432 4.45432 
36 1 6.02043 1.15042 6.02042 
37 1 6.88928 0.281421 6.88928 
38 1 5.15147 0.281491 5.15148 
39 1 5.15143 2.01929 6.88929 
40 1 6.88929 2.01929 5.15143 
21 1 6.02042 6.02042 1.15042 
22 1 5.15143 6.88929 2.01929 
23 1 6.88929 5.15143 2.01929 
24 1 5.15148 5.15148 0.281492 
25 1 6.88928 6.88928 0.28142 
6 1 8.45538 8.45538 8.45537 
7 1 9.32431 9.32431 9.32434 
8 1 7.58652 7.58652 9.32438 
9 1 7.58652 9.32438 7.58652 
10 1 9.32438 7.58652 7.58652 
ITEM: TIMESTEP
160
ITEM: NUMBER OF ATOMS
40
ITEM: BOX BOUNDS pp pp pp
-7.1903154282066867e-02 9.6777031542821383e+00
-7.1903154282066867e-02 9.6777031542821383e+00
-7.1903154282066867e-02 9.6777031542821383e+00
ITEM: ATOMS id type x y z 
1 1 1.14682 1.14682 1.14682 
2 1 0.277014 0.277014 0.277007 
3 1 2.01655 2.01655 0.276952 
4 1 0.276953 2.01655 2.01655 
5 1 2.01655 0.276953 2.01655 
11 1 3.58418 3.58418 8.45897 
12 1 2.71445 2.71445 9.32885 
13 1 4.45398 4.45398 9.32879 
14 1 4.45403 2.71444 7.58925 
15 1 2.71444 4.45403 7.58925 
16 1 3.58418 8.45898 3.58418 
17 1 2.71445 9.32884 2.71445 
18 1 4.45403 7.58925 2.71444 
19 1 4.45399 9.32879 4.45398 
20 1 2.71444 7.58925 4.45403 
31 1 1.14682 6.02163 6.02162 
32 1 0.277022 5.1518 5.15182 
33 1 2.01655 6.89135 5.15177 
34 1 0.276952 6.89135 6.89135 
35 1 2.01655 5.15177 6.89135 
26 1 8.45898 3.58418 3.58418 
27 1 9.32884 2.71445 2.71445 
28 1 7.58925 4.45403 2.71444 
29 1 7.58925 2.71444 4.45403 
30 1 9.32879 4.45399 4.45398 
36 1 6.02163 1.14682 6.02162 
37 1 6.89135 0.276952 6.89135 
38 1 5.1518 0.277022 5.15182 
39 1 5.15177 2.01655 6.89135 
40 1 6.89135 2.01655 5.15177 
21 1 6.02163 6.02163 1.14682 
22 1 5.15177 6.89135 2.01655 
23 1 6.89135 5.15177 2.01655 
24 1 5.15181 5.15181 0.277024 
25 1 6.89135 6.89135 0.276951 
6 1 8.45898 8.45898 8.45897 
7 1 9.32878 9.32878 9.3288 
8 1 7.58925 7.58925 9.32885 
9 1 7.58925 9.32885 7.58925 
10 1 9.32885 7.58925 7.58925 
ITEM: TIMESTEP
170
ITEM: NUMBER OF ATOMS
40
ITEM: BOX BOUNDS pp pp pp
-7.6106280138998186e-02 9.6819062801390725e+00
-7.6106280138998186e-02 9.6819062801390725e+00
-7.6106280138998186e-02 9.6819062801390725e+00
ITEM: ATOMS id type x y z 
1 1 1.14367 1.14367 1.14367 
2 1 0.272806 0.272806 0.272803 
3 1 2.01445 2.01445 0.272747 
4 1 0.272748 2.01445 2.01445 
5 1 2.01445 0.272748 2.01445 
11 1 3.58313 3.58313 8.46213 
12 1 2.71234 2.71234 9.33305 
13 1 4.45399 4.45399 9.333 
14 1 4.45403 2.71233 7.59135 
15 1 2.71233 4.45403 7.59135 
16 1 3.58313 8.46213 3.58313 
17 1 2.71234 9.33305 2.71234 
18 1 4.45403 7.59135 2.71233 
19 1 4.45399 9.333 4.45399 
20 1 2.71234 7.59135 4.45403 
31 1 1.14367 6.02268 6.02267 
32 1 0.272814 5.1518 5.15181 
33 1 2.01446 6.89346 5.15177 
34 1 0.272748 6.89346 6.89346 
35 1 2.01446 5.15177 6.89346 
26 1 8.46213 3.58313 3.58313 
27 1 9.33305 2.71234 2.71234 
28 1 7.59135 4.45403 2.71233 
29 1 7.59135 2.71234 4.45403 
30 1 9.333 4.45399 4.45399 
36 1 6.02268 1.14367 6.02267 
37 1 6.89346 0.272748 6.89346 
38 1 5.1518 0.272814 5.15181 
39 1 5.15177 2.01446 6.89346 
40 1 6.89346 2.01446 5.15177 
21 1 6.02267 6.02267 1.14366 
22 1 5.15177 6.89346 2.01446 
23 1 6.89346 5.15177 2.01446 
24 1 5.15181 5.15181 0.272816 
25 1 6.89346 6.89346 0.272747 
6 1 8.46213 8.46213 8.46213 
7 1 9.33299 9.33299 9.33301 
8 1 7.59135 7.59135 9.33305 
9 1 7.59135 9.33305 7.59135 
10 1 9.33305 7.59135 7.59135 
ITEM: TIMESTEP
180
ITEM: NUMBER OF ATOMS
40
ITEM: BOX BOUNDS pp pp pp
-7.9328645023225536e-02 9.6851286450233030e+00
-7.9328645023225536e-02 9.6851286450233030e+00
-7.9328645023225536e-02 9.6851286450233030e+00
ITEM: ATOMS id type x y z 
1 1 1.14124 1.14124 1.14122 
2 1 0.266438 0.266438 0.266485 
3 1 2.01599 2.01599 0.266427 
4 1 0.266428 2.01599 2.01599 
5 1 2.01599 0.266428 2.01599 
11 1 3.58234 3.58234 8.46458 
12 1 2.70758 2.70758 9.33937 
13 1 4.45712 4.45712 9.33935 
14 1 4.45713 2.70758 7.5898 
15 1 2.70758 4.45713 7.5898 
16 1 3.58235 8.46457 3.58233 
17 1 2.70758 9.33937 2.70758 
18 1 4.45713 7.58981 2.70758 
19 1 4.45709 9.33935 4.45714 
20 1 2.70758 7.58981 4.45713 
31 1 1.14124 6.02345 6.02346 
32 1 0.266448 5.1487 5.14867 
33 1 2.01599 6.89822 5.14867 
34 1 0.266428 6.89822 6.89822 
35 1 2.01599 5.14867 6.89822 
26 1 8.46457 3.58235 3.58233 
27 1 9.33937 2.70758 2.70758 
28 1 7.58981 4.45713 2.70758 
29 1 7.58981 2.70758 4.45713 
30 1 9.33935 4.45709 4.45714 
36 1 6.02345 1.14124 6.02346 
37 1 6.89822 0.266428 6.89822 
38 1 5.1487 0.266448 5.14867 
39 1 5.14867 2.01599 6.89822 
40 1 6.89822 2.01599 5.14867 
21 1 6.02345 6.02345 1.14124 
22 1 5.14867 6.89822 2.01599 
23 1 6.89822 5.14867 2.01599 
24 1 5.14868 5.14868 0.266451 
25 1 6.89822 6.89822 0.266427 
6 1 8.46457 8.46457 8.46457 
7 1 9.33936 9.33936 9.33933 
8 1 7.58981 7.58981 9.33937 
9 1 7.58981 9.33937 7.58981 
10 1 9.33937 7.58981 7.58981 