ITEM: TIMESTEP
0
ITEM: NUMBER OF ATOMS
161
ITEM: BOX BOUNDS xy xz yz pp pp pp
-6.7755000000000001e+00 1.3552000000000000e+01 -6.7755000000000001e+00
0.0000000000000000e+00 1.1735510246683001e+01 0.0000000000000000e+00
0.0000000000000000e+00 2.2149999999999999e+01 0.0000000000000000e+00
ITEM: ATOMS id type x y z 
8 1 -2.486 5.297 9.849 
87 1 3.001 4.231 10.696 
90 1 2.733 5.481 9.824 
109 1 -2.486 5.297 0.765 
158 1 2.733 5.481 0.79 
11 1 4.24 4.139 20.131 
14 1 3.031 4.094 19.728 
18 1 1.299 5.827 18.554 
33 1 2.266 4.151 20.924 
43 1 4.343 3.96 21.647 
47 1 3.32 5.732 17.88 
52 1 4.24 4.139 12.633 
76 1 2.552 4.924 14.209 
85 1 4.343 3.96 11.117 
89 1 3.32 5.732 14.883 
91 1 1.036 5.037 11.84 
102 1 3.031 4.094 13.035 
105 1 1.299 5.827 14.209 
114 1 2.266 4.151 11.84 
150 1 2.552 4.924 18.554 
156 1 3.001 4.231 22.068 
159 1 1.036 5.037 20.924 
5 1 -5.049 10.63 8.653 
9 1 -3.317 8.897 7.479 
19 1 -1.707 7.414 10.572 
21 1 -2.66 8.795 10.993 
23 1 -3.31 7.532 6.805 
25 1 -4.284 10.573 9.849 
32 1 1.503 6.367 0.79 
36 1 -1.869 7.426 9.056 
38 1 -2.209 6.086 8.653 
54 1 0.3 8.576 10.696 
57 1 1.291 8.001 9.824 
60 1 -1.707 7.414 0.042 
65 1 -3.31 7.532 3.808 
78 1 -1.869 7.426 1.558 
80 1 -2.566 8.842 1.961 
84 1 -4.57 9.799 3.135 
99 1 -3.054 9.687 0.765 
100 1 -2.96 6.142 3.135 
107 1 -5.049 10.63 1.961 
110 1 -3.317 8.897 3.135 
111 1 0.642 5.929 10.696 
113 1 1.503 6.367 9.824 
119 1 -4.284 10.573 0.765 
127 1 -2.209 6.086 1.961 
131 1 -2.318 6.148 10.993 
138 1 1.291 8.001 0.79 
142 1 -2.566 8.842 8.653 
145 1 -4.57 9.799 7.479 
151 1 -5.019 10.493 10.993 
154 1 -3.054 9.687 9.849 
155 1 -2.96 6.142 7.479 
12 1 2.53 7.1 17.202 
17 1 0.468 9.427 20.924 
24 1 -3.52 8.357 11.865 
27 1 -0.31 7.31 21.647 
29 1 0.642 5.929 22.068 
31 1 1.292 7.192 17.88 
44 1 -0.148 7.298 20.131 
46 1 0.191 8.638 19.728 
51 1 -0.31 7.31 11.117 
53 1 2.53 7.1 15.561 
56 1 1.292 7.192 14.883 
63 1 -2.318 6.148 21.771 
66 1 -3.309 6.723 20.899 
70 1 -0.148 7.298 12.633 
72 1 0.548 5.882 13.035 
92 1 0.942 8.582 14.209 
95 1 -5.019 10.493 21.771 
98 1 -4.751 9.243 20.899 
104 1 0.468 9.427 11.84 
116 1 -2.66 8.795 21.771 
118 1 -3.52 8.357 20.899 
122 1 0.191 8.638 13.035 
133 1 -3.309 6.723 11.865 
136 1 0.3 8.576 22.068 
147 1 0.548 5.882 19.728 
153 1 -4.751 9.243 11.865 
160 1 0.942 8.582 18.554 
1 1 7.976 4.694 10.572 
4 1 9.274 4.77 10.993 
20 1 8.034 4.861 9.056 
42 1 9.55 5.41 7.479 
67 1 10.043 4.578 0.765 
77 1 7.976 4.694 0.042 
94 1 8.035 4.861 1.558 
96 1 9.278 4.635 1.961 
121 1 4.688 5.417 10.696 
130 1 9.55 5.41 3.135 
134 1 10.043 4.578 9.849 
152 1 9.278 4.635 8.653 
45 1 4.688 5.417 22.068 
55 1 4.788 5.329 13.035 
106 1 9.274 4.77 21.771 
137 1 4.788 5.329 19.728 
2 1 7.294 10.585 9.056 
3 1 9.004 7.624 6.127 
6 1 8.556 6.347 6.805 
16 1 2.314 8.72 0.79 
22 1 7.166 6.156 8.653 
26 1 7.226 8.565 7.479 
35 1 7.191 10.764 10.572 
37 1 6.846 9.307 10.993 
39 1 8.214 8.992 6.805 
41 1 6.677 7.002 9.849 
48 1 3.775 6.213 0.79 
61 1 7.294 10.585 1.558 
62 1 9.004 7.624 4.487 
64 1 6.747 9.395 1.961 
68 1 7.437 6.931 3.135 
71 1 4.29 8.493 10.696 
74 1 3.567 7.818 9.824 
81 1 8.556 6.347 3.808 
83 1 6.47 8.606 0.765 
93 1 7.191 10.764 0.042 
97 1 8.214 8.992 3.808 
101 1 2.261 9.954 10.696 
103 1 2.314 8.72 9.824 
117 1 7.166 6.156 1.961 
120 1 7.226 8.565 3.135 
123 1 3.775 6.213 9.824 
129 1 6.677 7.002 0.765 
132 1 6.747 9.395 8.653 
135 1 7.437 6.931 7.479 
141 1 7.244 6.231 10.993 
144 1 6.47 8.606 9.849 
148 1 3.567 7.818 0.79 
7 1 9.22 6.004 11.865 
10 1 3.558 10.029 21.647 
13 1 2.261 9.954 22.068 
15 1 2.978 8.376 17.88 
28 1 3.5 9.862 20.131 
30 1 4.369 8.568 19.728 
34 1 4.308 6.159 18.554 
40 1 7.76 8.511 11.865 
49 1 4.857 7.722 20.924 
50 1 1.984 9.314 18.554 
58 1 1.491 10.146 11.84 
59 1 4.097 7.793 14.209 
69 1 3.558 10.029 11.117 
73 1 2.978 8.376 14.883 
75 1 5.064 6.118 11.84 
79 1 7.244 6.231 21.771 
82 1 7.967 6.906 20.899 
86 1 3.5 9.862 12.633 
88 1 2.256 10.089 13.035 
108 1 9.22 6.004 20.899 
112 1 4.369 8.568 13.035 
115 1 4.308 6.159 14.209 
124 1 4.857 7.722 11.84 
125 1 1.984 9.314 14.209 
126 1 6.846 9.307 21.771 
128 1 7.76 8.511 20.899 
139 1 1.491 10.146 20.924 
140 1 4.097 7.793 18.554 
143 1 7.967 6.906 11.865 
146 1 4.29 8.493 22.068 
149 1 5.064 6.118 20.924 
157 1 2.256 10.089 19.728 
161 2 6.068 6.479 12.064 
ITEM: TIMESTEP
10
ITEM: NUMBER OF ATOMS
161
ITEM: BOX BOUNDS xy xz yz pp pp pp
-6.7755000000000001e+00 1.3552000000000000e+01 -6.7755000000000001e+00
0.0000000000000000e+00 1.1735510246683001e+01 0.0000000000000000e+00
0.0000000000000000e+00 2.2149999999999999e+01 0.0000000000000000e+00
ITEM: ATOMS id type x y z 
8 1 -2.41305 5.35371 9.86638 
87 1 2.95793 4.2545 10.6218 
90 1 2.64634 5.53654 9.78355 
109 1 -2.40598 5.3516 0.768921 
158 1 2.64145 5.46203 0.842057 
11 1 4.29406 4.18399 20.1462 
14 1 2.92382 4.11632 19.6819 
18 1 1.32992 5.85073 18.5856 
33 1 2.13771 4.20469 20.9005 
43 1 4.33903 4.12322 21.5889 
47 1 3.25236 5.79295 17.8249 
52 1 4.29827 4.15399 12.6293 
76 1 2.42528 4.92218 14.1968 
85 1 4.30516 4.13414 11.1524 
89 1 3.24084 5.79177 14.9414 
91 1 0.997474 5.05047 11.8628 
102 1 2.90186 4.10509 13.0884 
105 1 1.32809 5.85647 14.1863 
114 1 2.14189 4.20423 11.855 
150 1 2.43408 4.9124 18.576 
156 1 2.96139 4.2398 22.1361 
159 1 0.9923 5.05886 20.9092 
5 1 -4.93648 10.6017 8.61063 
9 1 -3.34793 8.86237 7.51395 
19 1 -1.74768 7.4545 10.5648 
21 1 -2.60786 8.76795 10.8957 
23 1 -3.31678 7.55209 6.84895 
25 1 -4.17654 10.5162 9.83444 
32 1 1.58835 6.34622 0.770905 
36 1 -1.88225 7.5194 9.05964 
38 1 -2.15326 6.18298 8.62567 
54 1 0.293911 8.53593 10.6485 
57 1 1.32135 7.90557 9.77847 
60 1 -1.73924 7.49039 0.0606621 
65 1 -3.31785 7.54883 3.77758 
78 1 -1.88347 7.49761 1.54365 
80 1 -2.53546 8.80407 1.81933 
84 1 -4.45441 9.81111 3.10912 
99 1 -3.02609 9.67356 0.764971 
100 1 -2.91944 6.25907 3.18218 
107 1 -4.93363 10.6008 1.99221 
110 1 -3.34793 8.86644 3.11985 
111 1 0.577091 5.94994 10.8163 
113 1 1.51845 6.35946 9.84861 
119 1 -4.16013 10.5083 0.799485 
127 1 -2.15249 6.19666 1.98004 
131 1 -2.32339 6.20355 11.0138 
138 1 1.30378 7.95337 0.827963 
142 1 -2.55743 8.79776 8.75898 
145 1 -4.44987 9.79718 7.50418 
151 1 -4.99991 10.4422 11.0472 
154 1 -3.02436 9.67871 9.82165 
155 1 -2.93138 6.26903 7.4218 
12 1 2.57648 7.07728 17.1327 
17 1 0.389153 9.38256 20.9324 
24 1 -3.54559 8.3698 11.8367 
27 1 -0.272213 7.23801 21.6311 
29 1 0.589082 5.96355 21.9443 
31 1 1.29167 7.17759 17.9066 
44 1 -0.131998 7.19595 20.1438 
46 1 0.129764 8.53331 19.6992 
51 1 -0.287444 7.24514 11.1327 
53 1 2.56673 7.08093 15.6285 
56 1 1.29288 7.16401 14.8469 
63 1 -2.31046 6.19932 21.7343 
66 1 -3.32331 6.76327 20.8619 
70 1 -0.133996 7.19746 12.6273 
72 1 0.531624 5.92727 12.9032 
92 1 0.913402 8.46366 14.2637 
95 1 -4.99437 10.4753 21.7106 
98 1 -4.67808 9.26613 20.8459 
104 1 0.391211 9.38515 11.8437 
116 1 -2.59237 8.77409 21.937 
118 1 -3.61108 8.37091 20.9016 
122 1 0.133453 8.53432 13.0668 
133 1 -3.36194 6.77628 11.8944 
136 1 0.291854 8.51852 22.1044 
147 1 0.523141 5.92761 19.8488 
153 1 -4.67542 9.19956 11.8938 
160 1 0.912861 8.47389 18.501 
1 1 7.88159 4.86949 10.5237 
4 1 9.1951 4.77782 11.0506 
20 1 7.87855 4.94505 9.04299 
42 1 9.46639 5.43253 7.42091 
67 1 9.99692 4.53246 0.767036 
77 1 7.87329 4.91547 0.0847513 
94 1 7.88046 4.94854 1.54576 
96 1 9.20307 4.64137 2.00138 
121 1 4.66953 5.40517 10.5978 
130 1 9.46609 5.42372 3.18344 
134 1 10.0058 4.53807 9.84583 
152 1 9.20417 4.64198 8.60985 
45 1 4.71293 5.42767 22.0314 
55 1 4.78957 5.43322 13.1217 
106 1 9.17102 4.79503 21.7097 
137 1 4.81996 5.47572 19.7 
2 1 7.24769 10.5402 9.08806 
3 1 8.97035 7.65573 6.06871 
6 1 8.52695 6.39761 6.82883 
16 1 2.4027 8.72946 0.835619 
22 1 7.1652 6.17597 8.71277 
26 1 7.1823 8.42525 7.55072 
35 1 7.23435 10.5804 10.5142 
37 1 6.85917 9.26495 10.9966 
39 1 8.27379 8.92462 6.75735 
41 1 6.74181 7.02123 9.80155 
48 1 3.72095 6.36069 0.847135 
61 1 7.24025 10.5439 1.54529 
62 1 8.96368 7.65407 4.55547 
64 1 6.71791 9.24267 1.98593 
68 1 7.39702 6.96395 3.053 
71 1 4.28384 8.54006 10.7536 
74 1 3.60808 7.76082 9.82852 
81 1 8.52366 6.39333 3.79008 
83 1 6.54034 8.44393 0.795953 
93 1 7.20713 10.5915 0.110637 
97 1 8.26467 8.9283 3.8581 
101 1 2.35412 9.92978 10.6286 
103 1 2.42292 8.68916 9.77009 
117 1 7.15998 6.19154 1.883 
120 1 7.17566 8.42532 3.0609 
123 1 3.78786 6.33243 9.80952 
129 1 6.74502 7.01626 0.783219 
132 1 6.71445 9.24187 8.63008 
135 1 7.40308 6.96426 7.55736 
141 1 7.35159 6.21095 10.8255 
144 1 6.54143 8.44927 9.81824 
148 1 3.61726 7.81927 0.774206 
7 1 9.19899 6.05238 11.9248 
10 1 3.65908 9.8077 21.6098 
13 1 2.36318 9.92905 22.1233 
15 1 3.00852 8.33336 17.9044 
28 1 3.6526 9.77792 20.1415 
30 1 4.36902 8.53993 19.7898 
34 1 4.36023 6.30128 18.6271 
40 1 7.74551 8.40068 11.8632 
49 1 4.80102 7.70603 20.9054 
50 1 2.07248 9.29455 18.5069 
58 1 1.53413 10.1931 11.8458 
59 1 4.12346 7.7541 14.1381 
69 1 3.66462 9.84878 11.1576 
73 1 3.02152 8.34235 14.8581 
75 1 5.0527 6.25905 11.8679 
79 1 7.23889 6.18018 21.8717 
82 1 7.91454 6.90727 20.9126 
86 1 3.63793 9.79675 12.6231 
88 1 2.3261 10.0835 13.0829 
108 1 9.13232 5.99587 20.85 
112 1 4.3742 8.56074 12.9934 
115 1 4.34133 6.28693 14.1633 
124 1 4.77349 7.79198 11.8531 
125 1 2.07445 9.2888 14.2591 
126 1 6.83703 9.31056 21.8036 
128 1 7.82102 8.3634 20.843 
139 1 1.54604 10.1908 20.9247 
140 1 4.13341 7.76603 18.6334 
143 1 7.9268 6.97796 11.8424 
146 1 4.28723 8.55282 21.9854 
149 1 5.00005 6.26478 20.9026 
157 1 2.32374 10.0806 19.6844 
161 2 6.03287 6.54622 12.238 
ITEM: TIMESTEP
20
ITEM: NUMBER OF ATOMS
161
ITEM: BOX BOUNDS xy xz yz pp pp pp
-6.7755000000000001e+00 1.3552000000000000e+01 -6.7755000000000001e+00
0.0000000000000000e+00 1.1735510246683001e+01 0.0000000000000000e+00
0.0000000000000000e+00 2.2149999999999999e+01 0.0000000000000000e+00
ITEM: ATOMS id type x y z 
8 1 -2.4163 5.36671 9.84914 
87 1 2.95734 4.28013 10.6318 
90 1 2.64369 5.5308 9.7958 
109 1 -2.41986 5.37067 0.767046 
158 1 2.66289 5.46504 0.831715 
11 1 4.28493 4.1984 20.1334 
14 1 2.91258 4.13383 19.6893 
18 1 1.32121 5.8614 18.5949 
33 1 2.14005 4.21553 20.9069 
43 1 4.31664 4.14836 21.5949 
47 1 3.25982 5.79654 17.8379 
52 1 4.27768 4.18408 12.6289 
76 1 2.42932 4.92486 14.1832 
85 1 4.28373 4.16503 11.1601 
89 1 3.24498 5.79089 14.9443 
91 1 0.996644 5.05393 11.8615 
102 1 2.89963 4.12277 13.0805 
105 1 1.31376 5.85656 14.1714 
114 1 2.14246 4.21295 11.8555 
150 1 2.43731 4.92689 18.5834 
156 1 2.97213 4.26579 22.116 
159 1 0.994127 5.06096 20.9081 
5 1 -4.93031 10.592 8.61139 
9 1 -3.33733 8.86555 7.52257 
19 1 -1.73867 7.46776 10.5477 
21 1 -2.60802 8.77851 10.8802 
23 1 -3.30821 7.55455 6.84481 
25 1 -4.16229 10.5079 9.83406 
32 1 1.58054 6.36709 0.763757 
36 1 -1.88697 7.51498 9.06289 
38 1 -2.15746 6.20657 8.63336 
54 1 0.308763 8.51882 10.6669 
57 1 1.30504 7.90193 9.78976 
60 1 -1.7381 7.49234 0.068023 
65 1 -3.3142 7.55425 3.76895 
78 1 -1.88593 7.51808 1.54806 
80 1 -2.54503 8.79266 1.84409 
84 1 -4.45415 9.7919 3.10633 
99 1 -3.01215 9.66534 0.779893 
100 1 -2.93201 6.2664 3.17695 
107 1 -4.92969 10.5891 1.99931 
110 1 -3.33679 8.86371 3.09226 
111 1 0.575013 5.93676 10.8123 
113 1 1.51228 6.36875 9.85239 
119 1 -4.16248 10.5099 0.783561 
127 1 -2.16023 6.19976 1.97513 
131 1 -2.32561 6.1985 11.0171 
138 1 1.30295 7.93837 0.816389 
142 1 -2.55273 8.79096 8.7774 
145 1 -4.45654 9.79292 7.509 
151 1 -4.98733 10.4306 11.0478 
154 1 -3.01866 9.67174 9.82489 
155 1 -2.931 6.26955 7.43438 
12 1 2.56724 7.07485 17.1463 
17 1 0.402584 9.35443 20.9223 
24 1 -3.54088 8.3616 11.8323 
27 1 -0.276582 7.23149 21.6199 
29 1 0.599505 5.95417 21.9464 
31 1 1.29443 7.17195 17.9184 
44 1 -0.1314 7.20567 20.1398 
46 1 0.141332 8.52046 19.715 
51 1 -0.28356 7.25626 11.1444 
53 1 2.5628 7.07828 15.62 
56 1 1.29554 7.16974 14.844 
63 1 -2.32575 6.20617 21.7378 
66 1 -3.32112 6.78525 20.8744 
70 1 -0.132739 7.20737 12.6242 
72 1 0.533603 5.93027 12.9138 
92 1 0.914058 8.45623 14.2522 
95 1 -4.99753 10.4583 21.7207 
98 1 -4.6804 9.25486 20.8528 
104 1 0.401672 9.35377 11.8357 
116 1 -2.61479 8.76816 21.8955 
118 1 -3.59589 8.35795 20.926 
122 1 0.14156 8.5164 13.0535 
133 1 -3.37815 6.78308 11.8963 
136 1 0.307515 8.51863 22.1001 
147 1 0.530042 5.92857 19.845 
153 1 -4.66375 9.20267 11.8922 
160 1 0.914293 8.45767 18.5114 
1 1 7.8778 4.85842 10.5306 
4 1 9.19079 4.80609 11.0291 
20 1 7.87892 4.93692 9.04157 
42 1 9.46421 5.43858 7.43089 
67 1 9.98698 4.55548 0.768518 
77 1 7.85839 4.91651 0.0861022 
94 1 7.87506 4.94099 1.54927 
96 1 9.20396 4.65712 1.99552 
121 1 4.66215 5.42071 10.6085 
130 1 9.4655 5.44036 3.17589 
134 1 9.98415 4.54939 9.85345 
152 1 9.20025 4.65714 8.60998 
45 1 4.67635 5.44997 22.0457 
55 1 4.77757 5.43787 13.1144 
106 1 9.16933 4.80526 21.7209 
137 1 4.81299 5.49184 19.6997 
2 1 7.25375 10.5294 9.06888 
3 1 8.97036 7.65513 6.07158 
6 1 8.52363 6.39253 6.82296 
16 1 2.41568 8.72438 0.830754 
22 1 7.15291 6.1741 8.70772 
26 1 7.19129 8.42816 7.54904 
35 1 7.23875 10.5723 10.517 
37 1 6.84835 9.24999 11.0051 
39 1 8.27147 8.92585 6.75897 
41 1 6.7344 7.01589 9.80382 
48 1 3.70831 6.35675 0.824166 
61 1 7.24508 10.5334 1.56103 
62 1 8.96474 7.65231 4.54348 
64 1 6.71969 9.23177 1.98817 
68 1 7.39801 6.96475 3.05712 
71 1 4.28999 8.5435 10.7528 
74 1 3.60299 7.77445 9.81621 
81 1 8.5226 6.3922 3.78847 
83 1 6.54362 8.44858 0.787569 
93 1 7.22198 10.5725 0.106828 
97 1 8.26983 8.92718 3.85026 
101 1 2.36255 9.90439 10.6433 
103 1 2.43565 8.69449 9.7859 
117 1 7.14863 6.19463 1.89143 
120 1 7.18803 8.4253 3.06462 
123 1 3.78938 6.3205 9.81493 
129 1 6.73717 7.01122 0.78013 
132 1 6.71733 9.23186 8.62568 
135 1 7.3966 6.96493 7.55252 
141 1 7.34099 6.22567 10.8469 
144 1 6.5378 8.44245 9.80868 
148 1 3.60264 7.80275 0.786374 
7 1 9.19369 6.04952 11.9156 
10 1 3.67535 9.80698 21.6034 
13 1 2.36622 9.92057 22.1178 
15 1 3.01372 8.33448 17.9019 
28 1 3.65716 9.78272 20.141 
30 1 4.38565 8.52936 19.7973 
34 1 4.3428 6.2972 18.6246 
40 1 7.74471 8.39174 11.8704 
49 1 4.79757 7.71436 20.9086 
50 1 2.07096 9.28483 18.5127 
58 1 1.54731 10.1691 11.8365 
59 1 4.12717 7.74682 14.1395 
69 1 3.67157 9.85066 11.1578 
73 1 3.02299 8.33861 14.8644 
75 1 5.05613 6.266 11.8698 
79 1 7.23464 6.18405 21.8624 
82 1 7.92978 6.91825 20.901 
86 1 3.64352 9.80365 12.6184 
88 1 2.32475 10.0732 13.0756 
108 1 9.11762 5.9978 20.8564 
112 1 4.38746 8.55674 12.9948 
115 1 4.33484 6.28555 14.156 
124 1 4.76864 7.79162 11.8524 
125 1 2.07079 9.28157 14.2508 
126 1 6.86031 9.27785 21.791 
128 1 7.8295 8.36361 20.8624 
139 1 1.54774 10.1681 20.922 
140 1 4.13627 7.75746 18.6317 
143 1 7.94074 6.97028 11.8424 
146 1 4.30077 8.53863 21.979 
149 1 4.99495 6.27692 20.9022 
157 1 2.32882 10.0678 19.6928 
161 2 6.0472 6.53567 12.2421 
ITEM: TIMESTEP
30
ITEM: NUMBER OF ATOMS
161
ITEM: BOX BOUNDS xy xz yz pp pp pp
-6.7755000000000001e+00 1.3552000000000000e+01 -6.7755000000000001e+00
0.0000000000000000e+00 1.1735510246683001e+01 0.0000000000000000e+00
0.0000000000000000e+00 2.2149999999999999e+01 0.0000000000000000e+00
ITEM: ATOMS id type x y z 
8 1 -2.43125 5.40371 9.84353 
87 1 2.9347 4.32237 10.6263 
90 1 2.61821 5.55589 9.80274 
109 1 -2.43687 5.41994 0.760718 
158 1 2.62545 5.46335 0.829452 
11 1 4.27573 4.23969 20.1244 
14 1 2.89512 4.14496 19.7064 
18 1 1.30033 5.86432 18.5969 
33 1 2.1095 4.21064 20.9086 
43 1 4.29098 4.22705 21.5681 
47 1 3.24263 5.80617 17.824 
52 1 4.25286 4.23486 12.6355 
76 1 2.41579 4.93038 14.1834 
85 1 4.25486 4.25513 11.1671 
89 1 3.22549 5.79378 14.9609 
91 1 0.950349 5.03124 11.8561 
102 1 2.87031 4.13602 13.0678 
105 1 1.29411 5.86176 14.1692 
114 1 2.10561 4.20544 11.8538 
150 1 2.42638 4.93153 18.5811 
156 1 2.96544 4.28141 22.1211 
159 1 0.958954 5.04194 20.9186 
5 1 -4.90902 10.5766 8.6247 
9 1 -3.32307 8.86353 7.52356 
19 1 -1.72213 7.48784 10.5435 
21 1 -2.57411 8.7975 10.8871 
23 1 -3.29911 7.55607 6.83642 
25 1 -4.12879 10.509 9.83725 
32 1 1.58142 6.3894 0.755258 
36 1 -1.84154 7.53512 9.05646 
38 1 -2.14453 6.23576 8.63211 
54 1 0.323112 8.48022 10.6651 
57 1 1.30525 7.88273 9.77681 
60 1 -1.714 7.52825 0.066231 
65 1 -3.30765 7.55682 3.7745 
78 1 -1.83277 7.5399 1.57317 
80 1 -2.51572 8.78278 1.83829 
84 1 -4.43847 9.78021 3.10875 
99 1 -2.96407 9.69006 0.76661 
100 1 -2.93408 6.27983 3.16424 
107 1 -4.91672 10.5747 1.9947 
110 1 -3.31991 8.86203 3.08861 
111 1 0.530608 5.90657 10.809 
113 1 1.47015 6.38527 9.85927 
119 1 -4.15065 10.544 0.784887 
127 1 -2.15506 6.22678 1.97757 
131 1 -2.33274 6.21767 11.0162 
138 1 1.31002 7.91555 0.830439 
142 1 -2.52923 8.79716 8.7832 
145 1 -4.44277 9.78693 7.50981 
151 1 -4.97511 10.3852 11.0426 
154 1 -2.9779 9.69155 9.83554 
155 1 -2.93646 6.28532 7.43847 
12 1 2.56964 7.06803 17.1489 
17 1 0.423653 9.30739 20.9293 
24 1 -3.52001 8.33646 11.8232 
27 1 -0.299099 7.19817 21.608 
29 1 0.586227 5.93971 21.956 
31 1 1.28452 7.17406 17.9117 
44 1 -0.182457 7.18564 20.1272 
46 1 0.130928 8.49288 19.7163 
51 1 -0.303489 7.22327 11.1608 
53 1 2.56652 7.06407 15.6169 
56 1 1.28845 7.17305 14.8514 
63 1 -2.33885 6.2446 21.7412 
66 1 -3.32551 6.81209 20.8601 
70 1 -0.182839 7.18637 12.6441 
72 1 0.507192 5.92572 12.9119 
92 1 0.919006 8.44511 14.2448 
95 1 -4.99196 10.4435 21.7044 
98 1 -4.64713 9.25146 20.8543 
104 1 0.423845 9.30397 11.8279 
116 1 -2.59016 8.76323 21.8944 
118 1 -3.60164 8.33552 20.933 
122 1 0.132419 8.49733 13.0459 
133 1 -3.38204 6.81154 11.8918 
136 1 0.318145 8.47539 22.0966 
147 1 0.506434 5.92371 19.8501 
153 1 -4.63907 9.18121 11.9035 
160 1 0.91791 8.44296 18.519 
1 1 7.80172 4.87313 10.5363 
4 1 9.14458 4.85428 11.0117 
20 1 7.83104 4.93784 9.05332 
42 1 9.44745 5.46225 7.436 
67 1 9.9553 4.59788 0.765877 
77 1 7.78645 4.91461 0.0959912 
94 1 7.81643 4.93942 1.55662 
96 1 9.15867 4.69568 1.99124 
121 1 4.66143 5.4821 10.6173 
130 1 9.44778 5.45924 3.16928 
134 1 9.96433 4.58709 9.83946 
152 1 9.15847 4.68659 8.60892 
45 1 4.63769 5.51514 22.0863 
55 1 4.76775 5.48004 13.1145 
106 1 9.10791 4.82189 21.7385 
137 1 4.81705 5.52954 19.6947 
2 1 7.2657 10.4806 9.05705 
3 1 8.96951 7.66145 6.07094 
6 1 8.51419 6.39583 6.80379 
16 1 2.44509 8.72615 0.837991 
22 1 7.10015 6.15595 8.68144 
26 1 7.20183 8.40498 7.53085 
35 1 7.24994 10.5078 10.504 
37 1 6.85084 9.20814 11.0127 
39 1 8.28978 8.92196 6.74735 
41 1 6.71156 6.9826 9.81011 
48 1 3.67657 6.37158 0.818076 
61 1 7.25551 10.4889 1.57166 
62 1 8.96396 7.6589 4.53835 
64 1 6.7139 9.19236 1.98768 
68 1 7.37789 6.95465 3.06622 
71 1 4.31742 8.56035 10.7397 
74 1 3.63841 7.79294 9.7761 
81 1 8.51679 6.39868 3.80154 
83 1 6.5412 8.41055 0.792898 
93 1 7.24803 10.4871 0.130234 
97 1 8.28359 8.91972 3.86565 
101 1 2.42171 9.86999 10.655 
103 1 2.45587 8.66989 9.79328 
117 1 7.09848 6.18092 1.91276 
120 1 7.20209 8.40562 3.08393 
123 1 3.78541 6.34578 9.80577 
129 1 6.69994 6.98961 0.777148 
132 1 6.71798 9.19527 8.61799 
135 1 7.38031 6.95315 7.5374 
141 1 7.28677 6.22367 10.8841 
144 1 6.5268 8.40991 9.80078 
148 1 3.61844 7.82422 0.826827 
7 1 9.18761 6.05661 11.912 
10 1 3.74563 9.8097 21.5939 
13 1 2.42731 9.90222 22.0978 
15 1 3.01993 8.33153 17.889 
28 1 3.71782 9.786 20.1347 
30 1 4.4366 8.54382 19.7756 
34 1 4.332 6.31779 18.6066 
40 1 7.75509 8.39651 11.8939 
49 1 4.83689 7.73964 20.9113 
50 1 2.09009 9.26746 18.5194 
58 1 1.57183 10.1148 11.8303 
59 1 4.14246 7.75965 14.146 
69 1 3.74588 9.8567 11.162 
73 1 3.0256 8.32902 14.8757 
75 1 5.10463 6.32004 11.8818 
79 1 7.20859 6.18563 21.8329 
82 1 7.91364 6.90357 20.8612 
86 1 3.70024 9.81084 12.6258 
88 1 2.36496 10.0378 13.0636 
108 1 9.08859 5.9952 20.8506 
112 1 4.42605 8.56907 13.0052 
115 1 4.31615 6.29801 14.1662 
124 1 4.76237 7.80758 11.8507 
125 1 2.09012 9.26303 14.2415 
126 1 6.89457 9.20478 21.7537 
128 1 7.8628 8.3524 20.8727 
139 1 1.5777 10.1241 20.9251 
140 1 4.15587 7.76664 18.6205 
143 1 7.94905 6.95948 11.8648 
146 1 4.32628 8.54055 22.0091 
149 1 4.99961 6.31638 20.8969 
157 1 2.37266 10.0289 19.6983 
161 2 6.10235 6.49134 12.2624 
ITEM: TIMESTEP
40
ITEM: NUMBER OF ATOMS
161
ITEM: BOX BOUNDS xy xz yz pp pp pp
-6.7755000000000001e+00 1.3552000000000000e+01 -6.7755000000000001e+00
0.0000000000000000e+00 1.1735510246683001e+01 0.0000000000000000e+00
0.0000000000000000e+00 2.2149999999999999e+01 0.0000000000000000e+00
ITEM: ATOMS id type x y z 
8 1 -2.43695 5.41307 9.83747 
87 1 2.92535 4.33911 10.6249 
90 1 2.61399 5.56367 9.80505 
109 1 -2.44984 5.42811 0.764084 
158 1 2.62325 5.46851 0.830184 
11 1 4.27381 4.24928 20.1174 
14 1 2.88725 4.15431 19.704 
18 1 1.29656 5.8639 18.6014 
33 1 2.10548 4.21139 20.9087 
43 1 4.28446 4.24149 21.5622 
47 1 3.24201 5.80238 17.8261 
52 1 4.24577 4.2457 12.6376 
76 1 2.408 4.93475 14.1814 
85 1 4.25063 4.26556 11.1721 
89 1 3.22103 5.78817 14.9623 
91 1 0.939805 5.02452 11.854 
102 1 2.86222 4.1425 13.0675 
105 1 1.29081 5.86254 14.1658 
114 1 2.09821 4.20572 11.8506 
150 1 2.42035 4.93922 18.5853 
156 1 2.95731 4.28891 22.1246 
159 1 0.952986 5.03551 20.9192 
5 1 -4.90464 10.5694 8.62636 
9 1 -3.31926 8.86191 7.52787 
19 1 -1.72242 7.49316 10.5394 
21 1 -2.56298 8.79963 10.8833 
23 1 -3.29923 7.5574 6.83761 
25 1 -4.12163 10.5072 9.83813 
32 1 1.57476 6.39333 0.757188 
36 1 -1.83293 7.54343 9.05799 
38 1 -2.1446 6.23741 8.6309 
54 1 0.32272 8.47122 10.6609 
57 1 1.306 7.8747 9.773 
60 1 -1.71771 7.53326 0.0827859 
65 1 -3.30201 7.553 3.77455 
78 1 -1.82562 7.54682 1.56217 
80 1 -2.51853 8.80122 1.83929 
84 1 -4.43795 9.78318 3.10289 
99 1 -2.97294 9.68381 0.769081 
100 1 -2.93806 6.28434 3.16576 
107 1 -4.90462 10.5703 1.98988 
110 1 -3.31741 8.86183 3.08594 
111 1 0.520362 5.9041 10.8132 
113 1 1.46487 6.38251 9.86128 
119 1 -4.12632 10.514 0.779217 
127 1 -2.15058 6.23325 1.9737 
131 1 -2.33356 6.22344 11.0149 
138 1 1.31672 7.91271 0.829347 
142 1 -2.52462 8.79966 8.78209 
145 1 -4.43744 9.78463 7.51196 
151 1 -4.9733 10.3767 11.0431 
154 1 -2.96722 9.69457 9.83636 
155 1 -2.93654 6.28567 7.44234 
12 1 2.56726 7.06728 17.1527 
17 1 0.432686 9.29609 20.9258 
24 1 -3.51046 8.33495 11.8238 
27 1 -0.299291 7.19165 21.604 
29 1 0.577881 5.93779 21.9489 
31 1 1.2839 7.17214 17.9147 
44 1 -0.191898 7.17787 20.1272 
46 1 0.131944 8.49045 19.7153 
51 1 -0.304186 7.21516 11.166 
53 1 2.56525 7.06065 15.6174 
56 1 1.28624 7.17214 14.8489 
63 1 -2.34272 6.25558 21.7397 
66 1 -3.33441 6.81049 20.8606 
70 1 -0.192932 7.18107 12.6438 
72 1 0.501328 5.9229 12.9131 
92 1 0.920461 8.44398 14.2416 
95 1 -4.97733 10.4354 21.7103 
98 1 -4.64103 9.25417 20.8555 
104 1 0.428294 9.29724 11.8304 
116 1 -2.59343 8.78349 21.8921 
118 1 -3.59223 8.33105 20.9321 
122 1 0.130573 8.49094 13.0503 
133 1 -3.38052 6.81128 11.8923 
136 1 0.325077 8.46869 22.0993 
147 1 0.502513 5.92163 19.8509 
153 1 -4.63554 9.18002 11.9066 
160 1 0.920086 8.44056 18.5227 
1 1 7.79556 4.87327 10.5331 
4 1 9.13395 4.86246 11.0046 
20 1 7.81953 4.93631 9.05759 
42 1 9.44569 5.46676 7.43991 
67 1 9.94564 4.61374 0.767344 
77 1 7.76906 4.91147 0.0971888 
94 1 7.80411 4.93885 1.55608 
96 1 9.15129 4.70289 1.98671 
121 1 4.65882 5.50022 10.6166 
130 1 9.44494 5.46506 3.16699 
134 1 9.95192 4.59951 9.83862 
152 1 9.15009 4.69478 8.61119 
45 1 4.63512 5.53153 22.0865 
55 1 4.76551 5.48662 13.1164 
106 1 9.10161 4.83168 21.7401 
137 1 4.81617 5.54096 19.6971 
2 1 7.26911 10.4724 9.05174 
3 1 8.9699 7.66348 6.07185 
6 1 8.51241 6.39787 6.80124 
16 1 2.45176 8.72531 0.83841 
22 1 7.08454 6.15371 8.67618 
26 1 7.20284 8.40124 7.52636 
35 1 7.25533 10.4929 10.4984 
37 1 6.85365 9.19832 11.0149 
39 1 8.29245 8.92446 6.74961 
41 1 6.70393 6.9806 9.80659 
48 1 3.67067 6.36695 0.823022 
61 1 7.25787 10.4776 1.5783 
62 1 8.96639 7.65713 4.53695 
64 1 6.71587 9.18308 1.99409 
68 1 7.37506 6.95185 3.07226 
71 1 4.33006 8.55589 10.7355 
74 1 3.64088 7.80154 9.76857 
81 1 8.50973 6.39697 3.80309 
83 1 6.53843 8.40267 0.791597 
93 1 7.25399 10.4772 0.135265 
97 1 8.29263 8.92376 3.86236 
101 1 2.42522 9.85626 10.6564 
103 1 2.46634 8.67009 9.79316 
117 1 7.0829 6.17653 1.9181 
120 1 7.20121 8.40418 3.08438 
123 1 3.78182 6.34597 9.80284 
129 1 6.69338 6.97705 0.77529 
132 1 6.71886 9.18481 8.61746 
135 1 7.37771 6.94931 7.53201 
141 1 7.27262 6.2222 10.8908 
144 1 6.52617 8.3985 9.80136 
148 1 3.61638 7.83651 0.832925 
7 1 9.18399 6.05926 11.9109 
10 1 3.76482 9.81222 21.5925 
13 1 2.4326 9.89227 22.0987 
15 1 3.02448 8.32838 17.8859 
28 1 3.72958 9.7848 20.1334 
30 1 4.45137 8.54781 19.7706 
34 1 4.3313 6.31813 18.6032 
40 1 7.75556 8.39146 11.898 
49 1 4.84235 7.74856 20.9138 
50 1 2.08917 9.26021 18.522 
58 1 1.58579 10.1044 11.8285 
59 1 4.1452 7.76473 14.1495 
69 1 3.76791 9.87413 11.1623 
73 1 3.0292 8.32714 14.878 
75 1 5.11213 6.32729 11.8789 
79 1 7.19782 6.18494 21.8312 
82 1 7.9176 6.88593 20.8547 
86 1 3.71075 9.81014 12.6278 
88 1 2.37505 10.031 13.0615 
108 1 9.08275 5.99867 20.8502 
112 1 4.43588 8.57387 13.0097 
115 1 4.31427 6.30369 14.1715 
124 1 4.76791 7.81023 11.8528 
125 1 2.08989 9.25814 14.2377 
126 1 6.89877 9.19336 21.7508 
128 1 7.86709 8.35487 20.8645 
139 1 1.58846 10.1109 20.9225 
140 1 4.15852 7.77249 18.6167 
143 1 7.94854 6.96109 11.871 
146 1 4.33742 8.53928 22.0087 
149 1 4.99837 6.32264 20.8976 
157 1 2.38281 10.0219 19.703 
161 2 6.11121 6.48364 12.2698 
ITEM: TIMESTEP
50
ITEM: NUMBER OF ATOMS
161
ITEM: BOX BOUNDS xy xz yz pp pp pp
-6.7755000000000001e+00 1.3552000000000000e+01 -6.7755000000000001e+00
0.0000000000000000e+00 1.1735510246683001e+01 0.0000000000000000e+00
0.0000000000000000e+00 2.2149999999999999e+01 0.0000000000000000e+00
ITEM: ATOMS id type x y z 
8 1 -2.46389 5.45361 9.82188 
87 1 2.90378 4.39537 10.6302 
90 1 2.59571 5.601 9.79655 
109 1 -2.48859 5.48078 0.767802 
158 1 2.59812 5.48276 0.848007 
11 1 4.2578 4.30143 20.0984 
14 1 2.86418 4.17388 19.7123 
18 1 1.28785 5.86658 18.6055 
33 1 2.07906 4.21568 20.9193 
43 1 4.25026 4.31687 21.5321 
47 1 3.22499 5.79648 17.8333 
52 1 4.21403 4.30136 12.6449 
76 1 2.37654 4.93486 14.1815 
85 1 4.225 4.33535 11.1877 
89 1 3.19716 5.7793 14.9649 
91 1 0.878084 4.99197 11.8523 
102 1 2.82209 4.16386 13.0517 
105 1 1.2692 5.86956 14.1609 
114 1 2.05383 4.20852 11.8421 
150 1 2.38867 4.94712 18.5897 
156 1 2.93951 4.31963 22.1282 
159 1 0.912488 5.01351 20.9223 
5 1 -4.8803 10.5465 8.64241 
9 1 -3.3021 8.85489 7.5355 
19 1 -1.71596 7.51929 10.5237 
21 1 -2.51691 8.82218 10.8838 
23 1 -3.30008 7.55726 6.83601 
25 1 -4.09045 10.4978 9.84862 
32 1 1.54544 6.4008 0.765994 
36 1 -1.78709 7.56964 9.04748 
38 1 -2.12657 6.26193 8.62622 
54 1 0.334602 8.43443 10.655 
57 1 1.30834 7.85415 9.76433 
60 1 -1.71818 7.56897 0.104094 
65 1 -3.30161 7.54955 3.77735 
78 1 -1.77676 7.57572 1.57156 
80 1 -2.48781 8.82471 1.84135 
84 1 -4.40787 9.78189 3.10036 
99 1 -2.93041 9.71145 0.767463 
100 1 -2.93525 6.28652 3.15585 
107 1 -4.87774 10.5562 1.97838 
110 1 -3.29975 8.85548 3.08391 
111 1 0.465937 5.87526 10.8164 
113 1 1.4175 6.3818 9.86108 
119 1 -4.10861 10.4982 0.773984 
127 1 -2.1344 6.26368 1.97014 
131 1 -2.34084 6.24577 11.0091 
138 1 1.33293 7.90062 0.838191 
142 1 -2.48675 8.81806 8.78289 
145 1 -4.41019 9.78221 7.51351 
151 1 -4.95909 10.3353 11.0439 
154 1 -2.9145 9.72037 9.84249 
155 1 -2.93598 6.28889 7.44852 
12 1 2.5676 7.05867 17.1508 
17 1 0.470742 9.24286 20.9218 
24 1 -3.472 8.33093 11.8221 
27 1 -0.301394 7.15808 21.5873 
29 1 0.541587 5.9172 21.9443 
31 1 1.28291 7.17435 17.9152 
44 1 -0.238545 7.14749 20.1163 
46 1 0.117024 8.46144 19.7184 
51 1 -0.306144 7.18239 11.1858 
53 1 2.56381 7.04182 15.6169 
56 1 1.28219 7.17552 14.851 
63 1 -2.36588 6.29485 21.7384 
66 1 -3.34948 6.8182 20.8516 
70 1 -0.242958 7.15604 12.6607 
72 1 0.457405 5.90324 12.9161 
92 1 0.920074 8.44056 14.2325 
95 1 -4.95742 10.404 21.7058 
98 1 -4.61537 9.24091 20.8379 
104 1 0.458456 9.24565 11.8308 
116 1 -2.56267 8.80602 21.8938 
118 1 -3.55993 8.32235 20.9214 
122 1 0.114757 8.46542 13.0488 
133 1 -3.37167 6.82042 11.8967 
136 1 0.348538 8.42909 22.1002 
147 1 0.466975 5.90091 19.8465 
153 1 -4.60796 9.15604 11.9253 
160 1 0.917883 8.43727 18.5336 
1 1 7.73047 4.88989 10.53 
4 1 9.08619 4.90008 10.997 
20 1 7.74884 4.94543 9.05714 
42 1 9.42886 5.48852 7.45001 
67 1 9.89563 4.6725 0.766566 
77 1 7.68506 4.8799 0.096525 
94 1 7.73674 4.94843 1.56272 
96 1 9.09036 4.73868 1.98421 
121 1 4.6396 5.56019 10.6196 
130 1 9.42527 5.48619 3.15404 
134 1 9.90659 4.65534 9.82819 
152 1 9.09292 4.72918 8.61463 
45 1 4.60341 5.58529 22.0942 
55 1 4.75116 5.53441 13.1262 
106 1 9.04462 4.86044 21.7543 
137 1 4.81491 5.58798 19.691 
2 1 7.28191 10.4254 9.03171 
3 1 8.96877 7.67604 6.07008 
6 1 8.50469 6.40616 6.78703 
16 1 2.4803 8.73123 0.858808 
22 1 7.01822 6.13182 8.64461 
26 1 7.20613 8.37691 7.50332 
35 1 7.28472 10.4162 10.4649 
37 1 6.86623 9.15435 11.0256 
39 1 8.30699 8.92796 6.75638 
41 1 6.66463 6.93979 9.79795 
48 1 3.64007 6.39181 0.852592 
61 1 7.27732 10.4213 1.59437 
62 1 8.96683 7.6689 4.53341 
64 1 6.71543 9.1341 1.99463 
68 1 7.35226 6.93418 3.08676 
71 1 4.37843 8.57755 10.732 
74 1 3.67868 7.82914 9.74098 
81 1 8.50102 6.40664 3.81448 
83 1 6.53565 8.36274 0.788602 
93 1 7.28223 10.4118 0.159517 
97 1 8.30753 8.92381 3.85551 
101 1 2.5057 9.82221 10.6724 
103 1 2.49227 8.65141 9.77459 
117 1 7.01102 6.1527 1.95272 
120 1 7.20445 8.38238 3.10801 
123 1 3.7758 6.38041 9.77726 
129 1 6.6503 6.93977 0.782051 
132 1 6.72274 9.13625 8.61238 
135 1 7.35602 6.92659 7.51454 
141 1 7.21043 6.20989 10.9167 
144 1 6.51778 8.3624 9.8019 
148 1 3.63842 7.85915 0.862353 
7 1 9.17007 6.07603 11.9079 
10 1 3.84925 9.84396 21.5922 
13 1 2.4895 9.86256 22.086 
15 1 3.03221 8.3175 17.8756 
28 1 3.79761 9.77619 20.1271 
30 1 4.52348 8.57172 19.7357 
34 1 4.33074 6.34468 18.5854 
40 1 7.77119 8.38226 11.9247 
49 1 4.88543 7.78821 20.9068 
50 1 2.10691 9.23787 18.5354 
58 1 1.63042 10.0417 11.8327 
59 1 4.16281 7.78556 14.1659 
69 1 3.85225 9.90148 11.166 
73 1 3.03473 8.3159 14.8917 
75 1 5.15193 6.36362 11.8839 
79 1 7.1473 6.18073 21.809 
82 1 7.8961 6.86574 20.8262 
86 1 3.76971 9.80712 12.5976 
88 1 2.42949 10.0015 13.0576 