ITEM: TIMESTEP
0
ITEM: NUMBER OF ATOMS
59
ITEM: BOX BOUNDS pp pp pp
0.0000000000000000e+00 3.2808000000000000e+01
0.0000000000000000e+00 1.7780000000000001e+01
0.0000000000000000e+00 2.4729999999999999e+00
ITEM: ATOMS id type x y z 
13 1 7.043 0.849 2.464 
29 1 7.397 1.432 1.228 
37 1 8.035 2.733 1.228 
57 2 3.973 0.968 1.228 
58 2 3.07 2.182 1.186 
59 3 3.753 2.868 1.246 
1 1 6.173 17.398 2.464 
5 1 5.371 17.398 1.228 
9 1 3.973 17.398 1.228 
16 1 7.043 16.167 2.464 
32 1 7.397 15.584 1.228 
40 1 8.035 14.283 1.228 
45 1 3.236 17.398 2.464 
49 1 1.81 17.398 2.464 
53 1 1.083 17.398 1.228 
4 1 10.968 8.508 2.464 
8 1 11.771 8.508 1.228 
12 1 13.168 8.508 1.228 
18 1 10.098 7.277 2.464 
21 1 8.308 3.392 2.464 
26 1 8.833 4.734 2.464 
34 1 9.745 6.694 1.228 
42 1 9.106 5.393 1.228 
48 1 13.906 8.508 2.464 
52 1 15.331 8.508 2.464 
56 1 16.058 8.508 1.228 
19 1 10.098 9.739 2.464 
24 1 8.308 13.624 2.464 
27 1 8.833 12.282 2.464 
35 1 9.745 10.322 1.228 
43 1 9.106 11.623 1.228 
3 1 22.577 8.508 2.464 
7 1 21.775 8.508 1.228 
11 1 20.377 8.508 1.228 
20 1 23.447 7.277 2.464 
36 1 23.801 6.694 1.228 
44 1 24.439 5.393 1.228 
47 1 19.64 8.508 2.464 
51 1 18.214 8.508 2.464 
55 1 17.487 8.508 1.228 
17 1 23.447 9.739 2.464 
33 1 23.801 10.322 1.228 
41 1 24.439 11.623 1.228 
15 1 26.502 0.849 2.464 
23 1 25.237 3.392 2.464 
28 1 24.712 4.734 2.464 
31 1 26.149 1.432 1.228 
39 1 25.511 2.733 1.228 
2 1 27.373 17.398 2.464 
6 1 28.175 17.398 1.228 
10 1 29.572 17.398 1.228 
14 1 26.502 16.167 2.464 
22 1 25.237 13.624 2.464 
25 1 24.712 12.282 2.464 
30 1 26.149 15.584 1.228 
38 1 25.511 14.283 1.228 
46 1 30.31 17.398 2.464 
50 1 31.735 17.398 2.464 
54 1 32.462 17.398 1.228 
ITEM: TIMESTEP
10
ITEM: NUMBER OF ATOMS
59
ITEM: BOX BOUNDS pp pp pp
0.0000000000000000e+00 3.2808000000000000e+01
0.0000000000000000e+00 1.7780000000000001e+01
0.0000000000000000e+00 2.4729999999999999e+00
ITEM: ATOMS id type x y z 
13 1 7.08074 0.830126 2.46421 
29 1 7.43504 1.42529 1.22791 
37 1 8.05156 2.69457 1.22783 
57 2 3.93161 1.06321 1.23012 
58 2 3.04536 2.23882 1.18434 
59 3 3.75122 2.82844 1.2457 
1 1 6.13066 17.4042 2.46402 
5 1 5.33565 17.278 1.22782 
9 1 3.93773 17.6419 1.22782 
16 1 7.12385 16.1867 2.4642 
32 1 7.445 15.5845 1.22787 
40 1 8.05442 14.3185 1.2278 
45 1 3.25467 17.1979 2.46408 
49 1 1.85867 17.3874 2.46418 
53 1 1.10078 17.4051 1.22784 
4 1 10.9717 8.50807 2.46413 
8 1 11.7933 8.50791 1.22781 
12 1 13.2031 8.50801 1.22781 
18 1 10.0479 7.2913 2.46418 
21 1 8.31064 3.36658 2.46414 
26 1 8.82602 4.7493 2.46414 
34 1 9.69467 6.67737 1.22787 
42 1 9.08749 5.43292 1.22784 
48 1 13.9053 8.508 2.46419 
52 1 15.3198 8.508 2.4642 
56 1 16.0517 8.508 1.22779 
19 1 10.0484 9.72356 2.46418 
24 1 8.31411 13.6436 2.46417 
27 1 8.83381 12.2461 2.46414 
35 1 9.69539 10.3373 1.22787 
43 1 9.08835 11.58 1.22784 
3 1 22.574 8.508 2.46412 
7 1 21.7525 8.508 1.22781 
11 1 20.3425 8.508 1.22781 
20 1 23.4974 7.2913 2.46418 
36 1 23.8512 6.67762 1.22787 
44 1 24.4572 5.43302 1.22784 
47 1 19.6446 8.508 2.46419 
51 1 18.2291 8.508 2.46421 
55 1 17.4863 8.508 1.2278 
17 1 23.4974 9.7247 2.46418 
33 1 23.8512 10.3384 1.22787 
41 1 24.4572 11.583 1.22784 
15 1 26.4495 0.836402 2.46418 
23 1 25.2333 3.36842 2.46414 
28 1 24.715 4.75863 2.46414 
31 1 26.0975 1.45102 1.22787 
39 1 25.4928 2.69308 1.22784 
2 1 27.3687 17.398 2.46413 
6 1 28.1954 17.398 1.22782 
10 1 29.5911 17.398 1.2278 
14 1 26.4495 16.1796 2.46418 
22 1 25.2333 13.6476 2.46414 
25 1 24.715 12.2574 2.46414 
30 1 26.0975 15.565 1.22787 
38 1 25.4928 14.3229 1.22784 
46 1 30.3362 17.3979 2.46419 
50 1 31.7752 17.398 2.46418 
54 1 32.4546 17.3995 1.22779 
ITEM: TIMESTEP
20
ITEM: NUMBER OF ATOMS
59
ITEM: BOX BOUNDS pp pp pp
0.0000000000000000e+00 3.2808000000000000e+01
0.0000000000000000e+00 1.7780000000000001e+01
0.0000000000000000e+00 2.4729999999999999e+00
ITEM: ATOMS id type x y z 
13 1 7.05189 0.813925 2.46433 
29 1 7.43896 1.41035 1.22776 
37 1 8.05712 2.67954 1.2277 
57 2 3.93717 1.05281 1.23113 
58 2 3.02183 2.2682 1.18262 
59 3 3.7537 2.83488 1.24627 
1 1 6.12602 17.3846 2.46422 
5 1 5.35472 17.2772 1.22758 
9 1 3.92588 17.6725 1.22779 
16 1 7.11748 16.2141 2.46431 
32 1 7.46451 15.5869 1.22774 
40 1 8.06153 14.3274 1.22771 
45 1 3.28146 17.1858 2.46432 
49 1 1.87939 17.3654 2.46428 
53 1 1.134 17.4155 1.22772 
4 1 10.9707 8.50472 2.46425 
8 1 11.7782 8.50709 1.22768 
12 1 13.1987 8.50808 1.22773 
18 1 10.0419 7.293 2.46431 
21 1 8.31386 3.36005 2.46428 
26 1 8.81868 4.74662 2.46428 
34 1 9.68073 6.68255 1.22774 
42 1 9.07436 5.43007 1.2277 
48 1 13.9196 8.50803 2.46427 
52 1 15.314 8.508 2.46427 
56 1 16.0424 8.508 1.22773 
19 1 10.0421 9.7201 2.46431 
24 1 8.31805 13.6475 2.46426 
27 1 8.82231 12.2586 2.46428 
35 1 9.6819 10.3297 1.22773 
43 1 9.07744 11.5762 1.2277 
3 1 22.5752 8.508 2.46425 
7 1 21.766 8.508 1.22768 
11 1 20.3465 8.508 1.22773 
20 1 23.5036 7.29448 2.46431 
36 1 23.8645 6.68501 1.22774 
44 1 24.4667 5.4406 1.2277 
47 1 19.6301 8.508 2.46427 
51 1 18.2472 8.508 2.46427 
55 1 17.4836 8.508 1.22773 
17 1 23.5036 9.72152 2.46431 
33 1 23.8645 10.331 1.22774 
41 1 24.4667 11.5754 1.2277 
15 1 26.4414 0.833357 2.46431 
23 1 25.2263 3.36901 2.46428 
28 1 24.7212 4.75997 2.46428 
31 1 26.0855 1.44101 1.22774 
39 1 25.4821 2.68851 1.2277 
2 1 27.3662 17.398 2.46425 
6 1 28.191 17.398 1.22769 
10 1 29.581 17.398 1.22772 
14 1 26.4414 16.1826 2.46431 
22 1 25.2263 13.647 2.46428 
25 1 24.7212 12.256 2.46428 
30 1 26.0855 15.575 1.22774 
38 1 25.4821 14.3275 1.2277 
46 1 30.3311 17.3976 2.46427 
50 1 31.7768 17.3977 2.46426 
54 1 32.4888 17.4034 1.22772 
ITEM: TIMESTEP
30
ITEM: NUMBER OF ATOMS
59
ITEM: BOX BOUNDS pp pp pp
0.0000000000000000e+00 3.2808000000000000e+01
0.0000000000000000e+00 1.7780000000000001e+01
0.0000000000000000e+00 2.4729999999999999e+00
ITEM: ATOMS id type x y z 
13 1 7.02146 0.818957 2.46426 
29 1 7.44431 1.3839 1.22776 
37 1 8.07476 2.65932 1.22774 
57 2 3.93752 1.06564 1.23256 
58 2 2.98326 2.32655 1.17972 
59 3 3.75365 2.8453 1.24704 
1 1 6.11607 17.3651 2.46416 
5 1 5.34174 17.2694 1.22764 
9 1 3.92691 17.6996 1.22833 
16 1 7.14524 16.2219 2.46424 
32 1 7.49897 15.6054 1.22774 
40 1 8.08053 14.34 1.22774 
45 1 3.31173 17.1622 2.46458 
49 1 1.90515 17.3253 2.46426 
53 1 1.16562 17.4307 1.22775 
4 1 10.9601 8.50125 2.46425 
8 1 11.7575 8.50509 1.22773 
12 1 13.1824 8.50835 1.22774 
18 1 10.0264 7.29171 2.46426 
21 1 8.32096 3.34524 2.46426 
26 1 8.80147 4.73597 2.46426 
34 1 9.65266 6.6924 1.22775 
42 1 9.04666 5.42506 1.22774 
48 1 13.9533 8.50817 2.46425 
52 1 15.321 8.50802 2.46426 
56 1 16.0256 8.50799 1.22774 
19 1 10.028 9.71553 2.46426 
24 1 8.32661 13.6565 2.46425 
27 1 8.80795 12.2586 2.46426 
35 1 9.65509 10.3146 1.22775 
43 1 9.05124 11.5744 1.22774 
3 1 22.5798 8.508 2.46425 
7 1 21.791 8.508 1.22773 
11 1 20.3558 8.508 1.22774 
20 1 23.5185 7.29754 2.46426 
36 1 23.8938 6.69744 1.22775 
44 1 24.4912 5.44948 1.22774 
47 1 19.5884 8.508 2.46426 
51 1 18.2394 8.508 2.46425 
55 1 17.4984 8.508 1.22775 
17 1 23.5185 9.71846 2.46426 
33 1 23.8938 10.3186 1.22775 
41 1 24.4912 11.5665 1.22774 
15 1 26.4304 0.824217 2.46426 
23 1 25.2137 3.36434 2.46426 
28 1 24.734 4.76451 2.46426 
31 1 26.0593 1.42375 1.22775 
39 1 25.4572 2.68205 1.22774 
2 1 27.3702 17.398 2.46425 
6 1 28.1911 17.3981 1.22773 
10 1 29.5874 17.3978 1.22774 
14 1 26.4304 16.1918 2.46426 
22 1 25.2137 13.6517 2.46426 
25 1 24.734 12.2515 2.46426 
30 1 26.0593 15.5923 1.22775 
38 1 25.4572 14.334 1.22774 
46 1 30.3388 17.3965 2.46425 
50 1 31.784 17.3979 2.46425 
54 1 32.5228 17.4135 1.22773 
ITEM: TIMESTEP
40
ITEM: NUMBER OF ATOMS
59
ITEM: BOX BOUNDS pp pp pp
0.0000000000000000e+00 3.2808000000000000e+01
0.0000000000000000e+00 1.7780000000000001e+01
0.0000000000000000e+00 2.4729999999999999e+00
ITEM: ATOMS id type x y z 
13 1 7.01423 0.821706 2.46425 
29 1 7.44504 1.38069 1.22775 
37 1 8.08558 2.65128 1.22775 
57 2 3.93047 1.08034 1.23272 
58 2 2.97284 2.3478 1.17879 
59 3 3.75155 2.84834 1.24725 
1 1 6.1192 17.3622 2.46416 
5 1 5.34307 17.2594 1.22767 
9 1 3.93043 17.6935 1.22859 
16 1 7.15526 16.2264 2.46423 
32 1 7.51462 15.6144 1.22774 
40 1 8.09278 14.3429 1.22774 
45 1 3.3115 17.1607 2.46484 
49 1 1.90522 17.3128 2.46427 
53 1 1.16816 17.432 1.22778 
4 1 10.9541 8.49958 2.46424 
8 1 11.7473 8.50347 1.22774 
12 1 13.179 8.50863 1.22775 
18 1 10.0196 7.29022 2.46426 
21 1 8.32607 3.33957 2.46425 
26 1 8.79486 4.73447 2.46425 
34 1 9.64068 6.69401 1.22776 
42 1 9.03448 5.42556 1.22775 
48 1 13.9463 8.50836 2.46425 
52 1 15.2992 8.50805 2.46425 
56 1 16.0337 8.50798 1.22775 
19 1 10.0214 9.7146 2.46425 
24 1 8.33144 13.6578 2.46424 
27 1 8.80212 12.2552 2.46425 
35 1 9.64347 10.3104 1.22776 
43 1 9.04022 11.5696 1.22775 
3 1 22.5838 8.508 2.46424 
7 1 21.7928 8.508 1.22774 
11 1 20.3597 8.508 1.22775 
20 1 23.5244 7.29801 2.46426 
36 1 23.9059 6.70345 1.22776 
44 1 24.5049 5.45153 1.22775 
47 1 19.5928 8.508 2.46425 
51 1 18.2427 8.508 2.46425 
55 1 17.5077 8.50799 1.22775 
17 1 23.5244 9.71799 2.46426 
33 1 23.9059 10.3125 1.22776 
41 1 24.5049 11.5645 1.22775 
15 1 26.4305 0.821648 2.46426 
23 1 25.2082 3.36026 2.46425 
28 1 24.741 4.76437 2.46425 
31 1 26.0489 1.41642 1.22776 
39 1 25.4464 2.6753 1.22775 
2 1 27.371 17.398 2.46424 
6 1 28.1962 17.3981 1.22774 
10 1 29.5911 17.3976 1.22774 
14 1 26.4305 16.1944 2.46426 
22 1 25.2082 13.6557 2.46425 
25 1 24.741 12.2516 2.46425 
30 1 26.049 15.5996 1.22776 
38 1 25.4464 14.3407 1.22775 
46 1 30.3417 17.3954 2.46424 
50 1 31.7893 17.3986 2.46424 
54 1 32.524 17.4204 1.22774 
ITEM: TIMESTEP
50
ITEM: NUMBER OF ATOMS
59
ITEM: BOX BOUNDS pp pp pp
0.0000000000000000e+00 3.2808000000000000e+01
0.0000000000000000e+00 1.7780000000000001e+01
0.0000000000000000e+00 2.4729999999999999e+00
ITEM: ATOMS id type x y z 
13 1 6.90981 0.846996 2.46418 
29 1 7.43239 1.32041 1.22766 
37 1 8.24632 2.54745 1.22774 
57 2 3.87353 1.14483 1.23561 
58 2 2.81159 2.64539 1.16383 
59 3 3.73181 2.89049 1.25142 
1 1 6.13278 17.3025 2.46459 
5 1 5.36064 17.1653 1.22833 
9 1 3.97709 17.6881 1.23163 
16 1 7.28801 16.3076 2.46418 
32 1 7.74132 15.7535 1.22766 
40 1 8.27768 14.389 1.22773 
45 1 3.34927 17.1624 2.46796 
49 1 1.92748 17.1495 2.46475 
53 1 1.2214 17.4315 1.2282 
4 1 10.8569 8.47344 2.46429 
8 1 11.6802 8.47759 1.22775 
12 1 13.0832 8.51303 1.22773 
18 1 9.91584 7.2749 2.46424 
21 1 8.41984 3.26643 2.46426 
26 1 8.68672 4.68865 2.46427 
34 1 9.47166 6.72863 1.22773 
42 1 8.84291 5.4207 1.22775 
48 1 13.8504 8.51248 2.46426 
52 1 15.2837 8.50877 2.46426 
56 1 16.0403 8.50765 1.22774 
19 1 9.92573 9.68512 2.46424 
24 1 8.40881 13.6707 2.46424 
27 1 8.69524 12.2429 2.46426 
35 1 9.48111 10.2322 1.22773 
43 1 8.86079 11.5164 1.22774 
3 1 22.6558 8.50804 2.46429 
7 1 21.8378 8.50801 1.22776 
11 1 20.4321 8.508 1.22773 
20 1 23.6032 7.31617 2.46424 
36 1 24.077 6.78887 1.22773 
44 1 24.7143 5.47363 1.22775 
47 1 19.6683 8.50801 2.46426 
51 1 18.2337 8.508 2.46425 
55 1 17.4781 8.50786 1.22774 
17 1 23.6032 9.69988 2.46424 
33 1 24.077 10.2272 1.22773 
41 1 24.7143 11.5425 1.22775 
15 1 26.43 0.795003 2.46424 
23 1 25.1136 3.32248 2.46426 
28 1 24.8557 4.74804 2.46427 
31 1 25.9178 1.2926 1.22774 
39 1 25.2674 2.59634 1.22775 
2 1 27.3952 17.3982 2.46429 
6 1 28.2232 17.3996 1.22774 
10 1 29.6177 17.3909 1.22773 
14 1 26.4307 16.2209 2.46424 
22 1 25.1137 13.6937 2.46426 
25 1 24.8558 12.2681 2.46427 
30 1 25.9182 15.7236 1.22774 
38 1 25.2675 14.4198 1.22775 
46 1 30.3723 17.377 2.46425 
50 1 31.8244 17.4211 2.46427 
54 1 32.5848 17.5178 1.22777 
ITEM: TIMESTEP
60
ITEM: NUMBER OF ATOMS
59
ITEM: BOX BOUNDS pp pp pp
0.0000000000000000e+00 3.2808000000000000e+01
0.0000000000000000e+00 1.7780000000000001e+01
0.0000000000000000e+00 2.4729999999999999e+00
ITEM: ATOMS id type x y z 
13 1 6.92674 0.840884 2.46426 
29 1 7.42213 1.33809 1.22772 
37 1 8.23875 2.54574 1.22775 
57 2 3.89867 1.12049 1.23574 
58 2 2.82319 2.66103 1.16417 
59 3 3.71412 2.86919 1.25044 
1 1 6.1324 17.2986 2.46488 
5 1 5.36782 17.1881 1.22854 
9 1 3.97453 17.6857 1.23129 
16 1 7.2905 16.3123 2.46425 
32 1 7.74969 15.758 1.22772 
40 1 8.2886 14.4045 1.22773 
45 1 3.33226 17.1821 2.46759 
49 1 1.91619 17.1771 2.46495 
53 1 1.1929 17.3931 1.2284 
4 1 10.8709 8.46058 2.46426 
8 1 11.6939 8.47383 1.22777 
12 1 13.0905 8.50977 1.22775 
18 1 9.90942 7.27907 2.46424 
21 1 8.43547 3.2672 2.46425 
26 1 8.6812 4.69079 2.46425 
34 1 9.4762 6.724 1.22774 
42 1 8.83888 5.41867 1.22776 
48 1 13.8505 8.51441 2.46425 
52 1 15.2958 8.50956 2.46425 
56 1 16.0386 8.50777 1.22775 
19 1 9.92564 9.66271 2.46424 
24 1 8.41912 13.6748 2.46423 
27 1 8.67859 12.2452 2.46425 
35 1 9.49118 10.2155 1.22774 
43 1 8.83939 11.5278 1.22775 
3 1 22.6484 8.50814 2.46426 
7 1 21.8285 8.50806 1.22777 
11 1 20.4286 8.508 1.22775 
20 1 23.6149 7.32482 2.46424 
36 1 24.0647 6.78245 1.22774 
44 1 24.7144 5.47288 1.22776 
47 1 19.6716 8.50802 2.46425 
51 1 18.2295 8.50796 2.46425 
55 1 17.4849 8.50772 1.22775 
17 1 23.6149 9.69137 2.46424 
33 1 24.0647 10.2338 1.22774 
41 1 24.7143 11.5434 1.22776 
15 1 26.4194 0.784422 2.46424 
23 1 25.1029 3.32015 2.46425 
28 1 24.8665 4.75085 2.46425 
31 1 25.9352 1.30225 1.22774 
39 1 25.2624 2.59892 1.22776 
2 1 27.4047 17.3985 2.46425 
6 1 28.2251 17.3983 1.22776 
10 1 29.6215 17.386 1.22775 
14 1 26.4201 16.2315 2.46424 
22 1 25.103 13.696 2.46425 
25 1 24.8666 12.2655 2.46425 
30 1 25.936 15.7138 1.22774 
38 1 25.2627 14.4173 1.22776 
46 1 30.3737 17.3814 2.46425 
50 1 31.8172 17.442 2.4643 
54 1 32.567 17.5059 1.22781 
ITEM: TIMESTEP
70
ITEM: NUMBER OF ATOMS
59
ITEM: BOX BOUNDS pp pp pp
0.0000000000000000e+00 3.2808000000000000e+01
0.0000000000000000e+00 1.7780000000000001e+01
0.0000000000000000e+00 2.4729999999999999e+00
ITEM: ATOMS id type x y z 
13 1 6.94023 0.836212 2.46439 
29 1 7.41341 1.35554 1.22784 
37 1 8.24201 2.55102 1.22775 
57 2 3.92567 1.10839 1.23553 
58 2 2.8075 2.67641 1.16124 
59 3 3.72244 2.85269 1.25252 
1 1 6.15332 17.2918 2.46511 
5 1 5.37496 17.1933 1.22878 
9 1 3.98685 17.6903 1.23099 
16 1 7.30318 16.3001 2.46438 
32 1 7.76498 15.7521 1.22785 
40 1 8.3077 14.3975 1.22774 
45 1 3.34583 17.1915 2.46731 
49 1 1.92163 17.1831 2.46523 
53 1 1.18411 17.3613 1.22864 
4 1 10.871 8.46906 2.46426 
8 1 11.6859 8.47126 1.22775 
12 1 13.091 8.50643 1.22775 
18 1 9.90721 7.28465 2.46425 
21 1 8.45369 3.26258 2.46425 
26 1 8.67752 4.70213 2.46425 
34 1 9.48156 6.7299 1.22774 
42 1 8.82739 5.41418 1.22775 
48 1 13.8501 8.51614 2.46426 
52 1 15.2882 8.51132 2.46425 
56 1 16.0389 8.50801 1.22774 
19 1 9.91431 9.66464 2.46424 
24 1 8.43445 13.6708 2.46424 
27 1 8.65976 12.2447 2.46425 
35 1 9.49203 10.2242 1.22774 
43 1 8.84011 11.5177 1.22774 
3 1 22.6474 8.50818 2.46426 
7 1 21.8322 8.50812 1.22775 
11 1 20.4275 8.50802 1.22775 
20 1 23.6195 7.32535 2.46425 
36 1 24.0634 6.77884 1.22774 
44 1 24.7247 5.48493 1.22775 
47 1 19.6669 8.50802 2.46426 
51 1 18.2294 8.50785 2.46425 
55 1 17.4804 8.50745 1.22774 
17 1 23.6196 9.69091 2.46425 
33 1 24.0635 10.2375 1.22774 
41 1 24.7246 11.5315 1.22775 
15 1 26.4124 0.796065 2.46425 
23 1 25.0855 3.32404 2.46426 
28 1 24.8803 4.75316 2.46426 
31 1 25.9345 1.31353 1.22774 
39 1 25.2415 2.59594 1.22775 
2 1 27.3915 17.3988 2.46427 
6 1 28.2059 17.3962 1.22774 
10 1 29.6114 17.3803 1.22775 
14 1 26.4129 16.22 2.46425 
22 1 25.0858 13.6923 2.46426 
25 1 24.8803 12.2632 2.46426 
30 1 25.9357 15.7025 1.22774 
38 1 25.242 14.4203 1.22775 
46 1 30.3751 17.384 2.46426 
50 1 31.808 17.4639 2.46436 
54 1 32.558 17.5059 1.22789 
ITEM: TIMESTEP
80
ITEM: NUMBER OF ATOMS
59
ITEM: BOX BOUNDS pp pp pp
0.0000000000000000e+00 3.2808000000000000e+01
0.0000000000000000e+00 1.7780000000000001e+01
0.0000000000000000e+00 2.4729999999999999e+00
ITEM: ATOMS id type x y z 
13 1 6.94538 0.837179 2.46446 
29 1 7.41015 1.35855 1.22791 
37 1 8.24399 2.5524 1.22776 
57 2 3.93616 1.10831 1.23547 
58 2 2.80983 2.68607 1.16068 
59 3 3.71701 2.84442 1.25263 
1 1 6.15257 17.2915 2.46519 
5 1 5.38353 17.1926 1.2288 
9 1 3.98885 17.6843 1.23087 
16 1 7.3042 16.3018 2.46444 
32 1 7.77313 15.7553 1.22791 
40 1 8.32168 14.4028 1.22775 
45 1 3.33273 17.202 2.46721 
49 1 1.91856 17.1887 2.46532 
53 1 1.17571 17.345 1.22875 
4 1 10.8713 8.46596 2.46425 
8 1 11.6926 8.47036 1.22775 
12 1 13.0922 8.50547 1.22775 
18 1 9.90627 7.28268 2.46425 
21 1 8.46156 3.26505 2.46425 
26 1 8.67428 4.69448 2.46425 
34 1 9.47585 6.72541 1.22775 
42 1 8.8248 5.42395 1.22775 
48 1 13.8503 8.51633 2.46425 
52 1 15.2927 8.51224 2.46425 
56 1 16.0378 8.50838 1.22775 
19 1 9.91586 9.66122 2.46424 
24 1 8.44015 13.6744 2.46424 
27 1 8.65239 12.2383 2.46424 
35 1 9.49089 10.2192 1.22774 
43 1 8.82602 11.5206 1.22775 
3 1 22.6497 8.50817 2.46425 
7 1 21.83 8.50814 1.22775 
11 1 20.4292 8.50804 1.22775 
20 1 23.6196 7.32579 2.46425 
36 1 24.0621 6.77862 1.22775 
44 1 24.7311 5.48054 1.22775 
47 1 19.6715 8.50802 2.46425 
51 1 18.2288 8.50774 2.46425 
55 1 17.4836 8.5073 1.22775 
17 1 23.6197 9.6905 2.46425 
33 1 24.0621 10.2377 1.22775 
41 1 24.731 11.5358 1.22775 
15 1 26.4104 0.793758 2.46425 
23 1 25.0792 3.32027 2.46425 
28 1 24.8846 4.75743 2.46425 
31 1 25.9393 1.31822 1.22775 
39 1 25.236 2.59692 1.22775 
2 1 27.3894 17.3989 2.46425 
6 1 28.2079 17.3944 1.22775 
10 1 29.6083 17.3787 1.22776 
14 1 26.4107 16.2225 2.46425 
22 1 25.0795 13.696 2.46425 
25 1 24.8845 12.2589 2.46425 
30 1 25.9404 15.6978 1.22775 
38 1 25.2365 14.4193 1.22775 
46 1 30.3666 17.389 2.46427 
50 1 31.8048 17.4726 2.46441 
54 1 32.5519 17.4997 1.22794 
ITEM: TIMESTEP
90
ITEM: NUMBER OF ATOMS
59
ITEM: BOX BOUNDS pp pp pp
0.0000000000000000e+00 3.2808000000000000e+01
0.0000000000000000e+00 1.7780000000000001e+01
0.0000000000000000e+00 2.4729999999999999e+00
ITEM: ATOMS id type x y z 
13 1 6.95052 0.83525 2.46454 
29 1 7.40844 1.36184 1.228 
37 1 8.24533 2.55527 1.22778 
57 2 3.94771 1.10847 1.23545 
58 2 2.80719 2.6977 1.15924 
59 3 3.71662 2.83559 1.25347 
1 1 6.15883 17.2887 2.46523 
5 1 5.3884 17.1907 1.22884 
9 1 3.99651 17.6807 1.23073 
16 1 7.31012 16.2971 2.46453 
32 1 7.78055 15.7532 1.22799 
40 1 8.33448 14.4034 1.22777 
45 1 3.33104 17.2136 2.46711 
49 1 1.91697 17.1901 2.46543 
53 1 1.17012 17.3278 1.22886 
4 1 10.8711 8.46791 2.46425 
8 1 11.691 8.47069 1.22775 
12 1 13.0921 8.50446 1.22775 
18 1 9.90625 7.28367 2.46425 
21 1 8.46777 3.26403 2.46427 
26 1 8.67407 4.69852 2.46425 
34 1 9.47529 6.72774 1.22775 
42 1 8.82064 5.42559 1.22775 
48 1 13.851 8.51591 2.46425 
52 1 15.2926 8.51333 2.46425 
56 1 16.039 8.50914 1.22775 
19 1 9.91534 9.66261 2.46425 
24 1 8.44809 13.6734 2.46426 
27 1 8.64564 12.2363 2.46425 
35 1 9.48887 10.2202 1.22775 
43 1 8.81943 11.5168 1.22774 
3 1 22.6503 8.50808 2.46425 
7 1 21.8319 8.50814 1.22775 
11 1 20.43 8.50807 1.22775 
20 1 23.62 7.32472 2.46425 
36 1 24.0616 6.7775 1.22775 
44 1 24.7356 5.4836 1.22775 
47 1 19.6711 8.50799 2.46425 
51 1 18.2301 8.50754 2.46425 
55 1 17.4837 8.50716 1.22775 
17 1 23.62 9.69148 2.46425 
33 1 24.0616 10.2387 1.22775 
41 1 24.7355 11.5326 1.22775 
15 1 26.4074 0.796429 2.46425 
23 1 25.071 3.32116 2.46425 
28 1 24.8894 4.75873 2.46425 
31 1 25.9409 1.32378 1.22775 
39 1 25.2293 2.59666 1.22775 
2 1 27.3838 17.3989 2.46425 
6 1 28.2019 17.392 1.22775 
10 1 29.6029 17.3782 1.22778 
14 1 26.4069 16.2201 2.46425 
22 1 25.0711 13.695 2.46425 
25 1 24.8894 12.2575 2.46425 
30 1 25.9414 15.6922 1.22775 
38 1 25.2296 14.4194 1.22775 
46 1 30.362 17.3956 2.46428 
50 1 31.7994 17.4815 2.46447 
54 1 32.5483 17.4936 1.228 
ITEM: TIMESTEP
100
ITEM: NUMBER OF ATOMS
59
ITEM: BOX BOUNDS pp pp pp
0.0000000000000000e+00 3.2808000000000000e+01
0.0000000000000000e+00 1.7780000000000001e+01
0.0000000000000000e+00 2.4729999999999999e+00
ITEM: ATOMS id type x y z 
13 1 6.96221 0.831177 2.4647 
29 1 7.40723 1.36647 1.22816 
37 1 8.24345 2.56043 1.22783 
57 2 3.97138 1.10803 1.23555 
58 2 2.80133 2.72278 1.15582 
59 3 3.71755 2.81888 1.25554 
1 1 6.16877 17.2828 2.46528 
5 1 5.39919 17.1875 1.22887 
9 1 4.00909 17.6763 1.23045 
16 1 7.31943 16.2904 2.46469 
32 1 7.79397 15.75 1.22815 
40 1 8.36041 14.4035 1.22782 
45 1 3.32542 17.2383 2.46689 
49 1 1.91262 17.1913 2.46562 
53 1 1.16054 17.2944 1.22906 
4 1 10.8715 8.47029 2.46425 
8 1 11.6913 8.47205 1.22775 
12 1 13.0925 8.50256 1.22775 
18 1 9.90557 7.28592 2.46425 
21 1 8.4762 3.26684 2.46432 
26 1 8.67398 4.7011 2.46426 
34 1 9.47404 6.73059 1.22775 
42 1 8.81631 5.42968 1.22775 
48 1 13.8512 8.51457 2.46425 
52 1 15.2927 8.51524 2.46425 
56 1 16.039 8.51108 1.22775 
19 1 9.91506 9.66433 2.46425 
24 1 8.46533 13.6736 2.46431 
27 1 8.63349 12.2306 2.46425 
35 1 9.48572 10.2197 1.22775 
43 1 8.8036 11.5122 1.22775 
3 1 22.6515 8.50777 2.46425 
7 1 21.8324 8.50804 1.22775 
11 1 20.4307 8.50811 1.22775 
20 1 23.6196 7.32335 2.46425 
36 1 24.0614 6.77602 1.22775 
44 1 24.7457 5.48792 1.22775 
47 1 19.6713 8.50785 2.46425 
51 1 18.2303 8.50704 2.46425 
55 1 17.4836 8.50711 1.22775 
17 1 23.6195 9.69247 2.46425 
33 1 24.0613 10.2397 1.22775 
41 1 24.7459 11.5276 1.22775 
15 1 26.4034 0.801014 2.46425 
23 1 25.056 3.32141 2.46425 
28 1 24.897 4.76183 2.46425 
31 1 25.9437 1.33252 1.22775 
39 1 25.2165 2.59684 1.22775 
2 1 27.3743 17.3982 2.46425 
6 1 28.1931 17.3871 1.22776 
10 1 29.5942 17.3813 1.22782 
14 1 26.4003 16.2161 2.46425 
22 1 25.0558 13.6941 2.46425 
25 1 24.897 12.2537 2.46425 
30 1 25.9421 15.6836 1.22775 
38 1 25.2157 14.4187 1.22775 
46 1 30.3532 17.4117 2.46433 
50 1 31.7912 17.4944 2.46462 
54 1 32.5403 17.4779 1.22816 
ITEM: TIMESTEP
110
ITEM: NUMBER OF ATOMS
59
ITEM: BOX BOUNDS pp pp pp
0.0000000000000000e+00 3.2808000000000000e+01
0.0000000000000000e+00 1.7780000000000001e+01
0.0000000000000000e+00 2.4729999999999999e+00
ITEM: ATOMS id type x y z 
13 1 6.96552 0.827381 2.46475 
29 1 7.40812 1.36504 1.22821 
37 1 8.2408 2.56319 1.22786 
57 2 3.97911 1.10801 1.23567 
58 2 2.80133 2.73337 1.1543 
59 3 3.7174 2.81516 1.25646 
1 1 6.17087 17.28 2.46528 
5 1 5.40144 17.1871 1.22886 
9 1 4.01273 17.6757 1.23036 
16 1 7.32192 16.287 2.46473 
32 1 7.7969 15.7484 1.2282 
40 1 8.36837 14.4039 1.22785 
45 1 3.32262 17.2473 2.46682 
49 1 1.91111 17.1896 2.46567 
53 1 1.15731 17.2853 1.2291 
4 1 10.8713 8.47175 2.46425 
8 1 11.6908 8.47304 1.22775 
12 1 13.0925 8.50201 1.22775 
18 1 9.90542 7.28759 2.46425 
21 1 8.47429 3.26728 2.46435 
26 1 8.67492 4.70215 2.46426 
34 1 9.4741 6.73175 1.22775 
42 1 8.81722 5.42988 1.22776 
48 1 13.8513 8.51383 2.46425 
52 1 15.293 8.51571 2.46425 
56 1 16.0398 8.51196 1.22775 
19 1 9.91413 9.66627 2.46425 
24 1 8.47229 13.6737 2.46434 
27 1 8.63042 12.2306 2.46426 
35 1 9.48364 10.2205 1.22775 
43 1 8.79899 11.5095 1.22776 
3 1 22.6517 8.5075 2.46425 
7 1 21.8334 8.50788 1.22775 
11 1 20.4312 8.50807 1.22775 
20 1 23.6199 7.32264 2.46425 
36 1 24.061 6.77585 1.22775 
44 1 24.7472 5.48821 1.22775 
47 1 19.6717 8.50771 2.46425 
51 1 18.2312 8.50687 2.46425 
55 1 17.484 8.50733 1.22775 
17 1 23.6197 9.69277 2.46425 
33 1 24.0609 10.2394 1.22775 
41 1 24.7476 11.5267 1.22775 
15 1 26.4027 0.802239 2.46425 
23 1 25.0528 3.32232 2.46425 
28 1 24.8976 4.76205 2.46425 
31 1 25.9443 1.33461 1.22775 
39 1 25.2151 2.59701 1.22775 
2 1 27.3721 17.3974 2.46426 
6 1 28.1904 17.3862 1.22777 
10 1 29.5923 17.3869 1.22784 
14 1 26.3978 16.215 2.46425 
22 1 25.0521 13.6927 2.46425 
25 1 24.8979 12.2529 2.46425 
30 1 25.9407 15.6816 1.22775 
38 1 25.2133 14.4182 1.22775 
46 1 30.3512 17.4192 2.46436 
50 1 31.7895 17.4931 2.46469 
54 1 32.5382 17.4696 1.22823 
ITEM: TIMESTEP
120
ITEM: NUMBER OF ATOMS
59
ITEM: BOX BOUNDS pp pp pp
0.0000000000000000e+00 3.2808000000000000e+01
0.0000000000000000e+00 1.7780000000000001e+01
0.0000000000000000e+00 2.4729999999999999e+00
ITEM: ATOMS id type x y z 
13 1 6.97439 0.818307 2.46485 
29 1 7.41043 1.36027 1.22832 
37 1 8.23186 2.56706 1.22795 
57 2 3.99743 1.10941 1.236 
58 2 2.8006 2.76076 1.14989 
59 3 3.7194 2.80892 1.2593 
1 1 6.17543 17.2724 2.46527 
5 1 5.40631 17.1841 1.22884 
9 1 4.01987 17.6769 1.23015 
16 1 7.32719 16.2777 2.46484 
32 1 7.8046 15.7432 1.22831 
40 1 8.38876 14.4052 1.22794 
45 1 3.31602 17.2671 2.46665 
49 1 1.90968 17.1855 2.46577 
53 1 1.15072 17.2622 1.2292 
4 1 10.871 8.47783 2.46425 
8 1 11.6904 8.47618 1.22775 
12 1 13.0923 8.50065 1.22775 
18 1 9.90551 7.29245 2.46425 
21 1 8.46779 3.26945 2.46443 
26 1 8.6774 4.70512 2.46429 
34 1 9.47547 6.73612 1.22775 
42 1 8.82038 5.4302 1.22778 
48 1 13.852 8.5119 2.46425 
52 1 15.2924 8.51682 2.46425 
56 1 16.04 8.51411 1.22775 
19 1 9.913 9.66927 2.46425 
24 1 8.48997 13.673 2.46442 
27 1 8.62396 12.2296 2.46428 
35 1 9.4781 10.2223 1.22775 
43 1 8.78698 11.5054 1.22778 
3 1 22.6523 8.50682 2.46425 
7 1 21.8335 8.50735 1.22775 
11 1 20.4314 8.50782 1.22775 
20 1 23.6197 7.32161 2.46425 
36 1 24.0617 6.77531 1.22775 
44 1 24.7518 5.48893 1.22775 
47 1 19.6725 8.5073 2.46425 
51 1 18.2311 8.50663 2.46425 
55 1 17.484 8.50806 1.22775 
17 1 23.6193 9.69267 2.46425 
33 1 24.0614 10.2387 1.22775 
41 1 24.7529 11.5241 1.22775 
15 1 26.4017 0.803663 2.46426 
23 1 25.0462 3.32098 2.46425 
28 1 24.899 4.76301 2.46425 
31 1 25.9465 1.3379 1.22776 
39 1 25.2112 2.59706 1.22775 
2 1 27.3665 17.3949 2.46428 
6 1 28.1831 17.3852 1.22779 
10 1 29.5866 17.4031 1.22792 
14 1 26.3921 16.2137 2.46426 
22 1 25.0441 13.6925 2.46425 
25 1 24.8999 12.2503 2.46425 
30 1 25.9372 15.6785 1.22776 
38 1 25.206 14.4171 1.22775 
46 1 30.3475 17.4383 2.46445 
50 1 31.7836 17.4878 2.46486 
54 1 32.535 17.4474 1.22841 
ITEM: TIMESTEP
130
ITEM: NUMBER OF ATOMS
59
ITEM: BOX BOUNDS pp pp pp
0.0000000000000000e+00 3.2808000000000000e+01
0.0000000000000000e+00 1.7780000000000001e+01
0.0000000000000000e+00 2.4729999999999999e+00
ITEM: ATOMS id type x y z 
13 1 6.97659 0.814891 2.46487 
29 1 7.41106 1.35808 1.22834 
37 1 8.22745 2.56787 1.22798 
57 2 4.00116 1.11052 1.23612 
58 2 2.8021 2.76948 1.14821 
59 3 3.72025 2.81035 1.26045 
1 1 6.17589 17.2698 2.46526 
5 1 5.40661 17.183 1.22883 
9 1 4.02082 17.6783 1.23011 
16 1 7.32674 16.2748 2.46486 
32 1 7.80632 15.7422 1.22833 
40 1 8.39523 14.4058 1.22796 
45 1 3.31486 17.2712 2.46661 
49 1 1.9097 17.184 2.46578 
53 1 1.14964 17.2559 1.22921 
4 1 10.8709 8.47947 2.46425 
8 1 11.6903 8.47759 1.22775 
12 1 13.0922 8.50037 1.22775 
18 1 9.90582 7.29388 2.46426 
21 1 8.46345 3.27043 2.46446 
26 1 8.67809 4.70541 2.4643 
34 1 9.47645 6.7368 1.22776 
42 1 8.82264 5.42967 1.2278 
48 1 13.8525 8.51135 2.46425 
52 1 15.2923 8.51699 2.46425 
56 1 16.0398 8.51461 1.22775 
19 1 9.91206 9.67039 2.46425 
24 1 8.49544 13.6736 2.46445 
27 1 8.62267 12.2292 2.4643 
35 1 9.47613 10.2221 1.22775 
43 1 8.78322 11.505 1.22779 
3 1 22.6525 8.50664 2.46425 
7 1 21.8337 8.50711 1.22775 
11 1 20.4314 8.5076 1.22775 
20 1 23.62 7.32141 2.46425 
36 1 24.0619 6.77515 1.22775 
44 1 24.7519 5.48842 1.22775 
47 1 19.6729 8.50714 2.46425 
51 1 18.2309 8.50677 2.46425 
55 1 17.4841 8.50844 1.22775 
17 1 23.6196 9.69247 2.46425 
33 1 24.0618 10.2384 1.22775 
41 1 24.7533 11.5241 1.22775 
15 1 26.4013 0.803131 2.46426 
23 1 25.0457 3.32039 2.46425 
28 1 24.8988 4.76282 2.46425 
31 1 25.9471 1.33803 1.22776 
39 1 25.2113 2.59704 1.22775 
2 1 27.3657 17.3939 2.46429 
6 1 28.1821 17.386 1.2278 
10 1 29.5855 17.4096 1.22796 
14 1 26.3906 16.2139 2.46426 
22 1 25.0429 13.6926 2.46425 
25 1 24.9 12.2499 2.46425 
30 1 25.9358 15.6784 1.22776 
38 1 25.2048 14.4168 1.22775 
46 1 30.3467 17.4438 2.46448 
50 1 31.7826 17.4836 2.4649 
54 1 32.5339 17.4393 1.22846 
ITEM: TIMESTEP
140
ITEM: NUMBER OF ATOMS
59
ITEM: BOX BOUNDS pp pp pp
0.0000000000000000e+00 3.2808000000000000e+01
0.0000000000000000e+00 1.7780000000000001e+01
0.0000000000000000e+00 2.4729999999999999e+00
ITEM: ATOMS id type x y z 
13 1 6.99179 0.788675 2.465 
29 1 7.41442 1.34172 1.22848 
37 1 8.19335 2.57699 1.22818 
57 2 4.0276 1.11906 1.23716 
58 2 2.81314 2.83517 1.13424 
59 3 3.72948 2.82356 1.27031 
1 1 6.17667 17.2507 2.46523 
5 1 5.40664 17.1772 1.22877 
9 1 4.02728 17.6872 1.22983 
16 1 7.32464 16.2509 2.465 
32 1 7.81773 15.7315 1.22848 
40 1 8.44329 14.4098 1.22816 
45 1 3.31093 17.304 2.46641 
49 1 1.90699 17.1715 2.46587 
53 1 1.14704 17.2084 1.22933 
4 1 10.87 8.49103 2.46426 
8 1 11.6896 8.48883 1.22776 
12 1 13.0921 8.49887 1.22775 
18 1 9.90811 7.30276 2.46429 
21 1 8.42899 3.27836 2.46466 
26 1 8.68288 4.70681 2.46442 
34 1 9.48592 6.74029 1.22779 
42 1 8.84317 5.42833 1.2279 
48 1 13.8514 8.50722 2.46425 
52 1 15.2916 8.51793 2.46425 
56 1 16.0392 8.51812 1.22775 
19 1 9.90368 9.67812 2.46428 
24 1 8.53675 13.6781 2.46465 
27 1 8.61389 12.2279 2.4644 
35 1 9.46155 10.2216 1.22779 
43 1 8.75726 11.5016 1.22789 
3 1 22.6524 8.50546 2.46425 
7 1 21.834 8.50537 1.22775 
11 1 20.4308 8.50583 1.22775 
20 1 23.6214 7.32071 2.46425 
36 1 24.0633 6.7747 1.22775 
44 1 24.752 5.48853 1.22775 
47 1 19.672 8.50592 2.46425 
51 1 18.231 8.50805 2.46425 
55 1 17.4837 8.5114 1.22775 
17 1 23.6213 9.69038 2.46425 
33 1 24.0641 10.2356 1.22775 
41 1 24.756 11.5199 1.22775 
15 1 26.3988 0.801385 2.46429 
23 1 25.0414 3.31858 2.46426 
28 1 24.8976 4.76103 2.46425 
31 1 25.9491 1.33783 1.22779 
39 1 25.2099 2.59622 1.22776 
2 1 27.3623 17.3868 2.46438 
6 1 28.1791 17.393 1.22791 
10 1 29.5803 17.4579 1.22821 
14 1 26.3805 16.2122 2.46429 
22 1 25.0336 13.6912 2.46426 
25 1 24.9007 12.2478 2.46425 
30 1 25.9245 15.6784 1.22779 
38 1 25.1934 14.4158 1.22776 
46 1 30.341 17.4847 2.46475 
50 1 31.7795 17.4514 2.46524 
54 1 32.5262 17.3779 1.22878 
ITEM: TIMESTEP
150
ITEM: NUMBER OF ATOMS
59
ITEM: BOX BOUNDS pp pp pp
0.0000000000000000e+00 3.2808000000000000e+01
0.0000000000000000e+00 1.7780000000000001e+01
0.0000000000000000e+00 2.4729999999999999e+00
ITEM: ATOMS id type x y z 
13 1 6.9917 0.78269 2.46499 
29 1 7.40769 1.33378 1.22848 
37 1 8.17586 2.58145 1.22821 
57 2 4.02844 1.12326 1.2381 
58 2 2.82566 2.85665 1.12231 
59 3 3.73532 2.8366 1.28035 
1 1 6.1717 17.2408 2.46521 
5 1 5.40175 17.1778 1.22877 
9 1 4.02621 17.6975 1.22979 
16 1 7.32056 16.2402 2.46499 
32 1 7.81417 15.7233 1.22847 
40 1 8.45337 14.4155 1.22819 
45 1 3.30345 17.3076 2.46638 