ITEM: TIMESTEP
0
ITEM: NUMBER OF ATOMS
33
ITEM: BOX BOUNDS pp pp pp
0.0000000000000000e+00 7.0970000000000004e+00
0.0000000000000000e+00 7.0970000000000004e+00
0.0000000000000000e+00 2.4588000000000001e+01
ITEM: ATOMS id type x y z 
2 1 3.339 1.632 13.319 
5 1 4.651 1.581 18.133 
7 1 3.391 1.602 15.981 
8 1 2.166 1.581 18.134 
18 1 3.408 1.581 17.416 
21 1 3.338 2.875 12.602 
23 1 3.367 1.619 14.753 
24 1 3.338 0.39 12.601 
17 1 7.023 2.875 24.28 
19 1 6.997 1.619 22.129 
20 1 7.023 0.39 24.281 
22 1 6.957 1.581 19.466 
25 1 5.714 1.581 18.748 
27 1 6.974 1.602 20.9 
28 1 1.102 1.581 18.748 
30 1 7.024 1.631 23.563 
10 1 6.954 5.232 5.122 
13 1 7.023 3.938 0.307 
15 1 6.994 5.194 2.459 
16 1 7.023 6.423 0.307 
26 1 7.022 5.181 1.025 
29 1 5.711 5.232 5.839 
31 1 6.97 5.211 3.688 
32 1 1.098 5.232 5.84 
1 1 4.647 5.232 6.454 
3 1 3.388 5.211 8.606 
4 1 2.163 5.232 6.454 
6 1 3.338 5.182 11.269 
9 1 3.338 3.939 11.986 
11 1 3.365 5.194 9.834 
12 1 3.338 6.423 11.987 
14 1 3.404 5.232 7.171 
33 2 3.539 5.636 13.064 
ITEM: TIMESTEP
10
ITEM: NUMBER OF ATOMS
33
ITEM: BOX BOUNDS pp pp pp
0.0000000000000000e+00 7.0970000000000004e+00
0.0000000000000000e+00 7.0970000000000004e+00
0.0000000000000000e+00 2.4588000000000001e+01
ITEM: ATOMS id type x y z 
2 1 3.33858 1.63162 13.2929 
5 1 4.65128 1.58086 18.134 
7 1 3.3916 1.60055 15.9897 
8 1 2.16627 1.57475 18.1358 
18 1 3.40772 1.58466 17.4329 
21 1 3.33769 2.8725 12.5897 
23 1 3.36832 1.6138 14.767 
24 1 3.33655 0.437098 12.6092 
17 1 7.02312 2.87426 24.2798 
19 1 6.99664 1.61896 22.1284 
20 1 7.02319 0.390437 24.2808 
22 1 6.95777 1.57991 19.465 
25 1 5.71486 1.58219 18.7488 
27 1 6.97377 1.60177 20.9005 
28 1 1.10047 1.58632 18.7469 
30 1 7.02344 1.63195 23.5631 
10 1 6.95437 5.22895 5.12101 
13 1 7.02237 3.93855 0.307496 
15 1 6.99363 5.19396 2.45801 
16 1 7.02242 6.42236 0.307166 
26 1 7.02184 5.18064 1.02465 
29 1 5.70956 5.2392 5.83811 
31 1 6.97023 5.21092 3.68807 
32 1 1.09861 5.23198 5.84005 
1 1 4.64718 5.22534 6.45422 
3 1 3.38738 5.20896 8.61303 
4 1 2.16269 5.2321 6.45457 
6 1 3.33878 5.11993 11.2317 
9 1 3.33813 3.92103 11.9409 
11 1 3.36443 5.18022 9.84456 
12 1 3.32849 6.49874 11.9335 
14 1 3.40401 5.23572 7.19008 
33 2 3.5516 5.61476 13.1543 
ITEM: TIMESTEP
20
ITEM: NUMBER OF ATOMS
33
ITEM: BOX BOUNDS pp pp pp
0.0000000000000000e+00 7.0970000000000004e+00
0.0000000000000000e+00 7.0970000000000004e+00
0.0000000000000000e+00 2.4588000000000001e+01
ITEM: ATOMS id type x y z 
2 1 3.33571 1.62416 13.2776 
5 1 4.65203 1.59652 18.1365 
7 1 3.39459 1.6055 16.0036 
8 1 2.16935 1.5592 18.1418 
18 1 3.40766 1.58294 17.4321 
21 1 3.33579 2.83354 12.5815 
23 1 3.36753 1.61882 14.7762 
24 1 3.36804 0.329822 12.767 
17 1 7.02031 2.87805 24.2791 
19 1 6.99633 1.62104 22.1326 
20 1 7.02094 0.38948 24.2838 
22 1 6.95735 1.58202 19.4712 
25 1 5.71223 1.5667 18.7542 
27 1 6.97371 1.5994 20.9035 
28 1 1.0998 1.60171 18.744 
30 1 7.0265 1.63122 23.5656 
10 1 6.95368 5.22892 5.12188 
13 1 7.02028 3.93623 0.312289 
15 1 6.9953 5.19494 2.45963 
16 1 7.02117 6.4211 0.305538 
26 1 7.02311 5.18218 1.0245 
29 1 5.71007 5.25059 5.83227 
31 1 6.96989 5.20789 3.68655 
32 1 1.09325 5.21716 5.84306 
1 1 4.6555 5.2156 6.458 
3 1 3.38778 5.19876 8.59782 
4 1 2.15813 5.24979 6.4511 
6 1 3.34384 5.10317 11.2142 
9 1 3.33587 3.88686 11.923 
11 1 3.36777 5.15831 9.82595 
12 1 3.32713 6.53919 11.8894 
14 1 3.40352 5.23941 7.18758 
33 2 3.52284 5.79479 13.0829 
ITEM: TIMESTEP
30
ITEM: NUMBER OF ATOMS
33
ITEM: BOX BOUNDS pp pp pp
0.0000000000000000e+00 7.0970000000000004e+00
0.0000000000000000e+00 7.0970000000000004e+00
0.0000000000000000e+00 2.4588000000000001e+01
ITEM: ATOMS id type x y z 
2 1 3.33615 1.61938 13.3242 
5 1 4.6541 1.5897 18.1382 
7 1 3.39398 1.60582 15.983 
8 1 2.16678 1.56506 18.1453 
18 1 3.40915 1.58395 17.434 
21 1 3.33455 2.84363 12.5574 
23 1 3.36774 1.62505 14.7534 
24 1 3.37672 0.272987 12.7847 
17 1 7.02138 2.87638 24.2791 
19 1 6.9974 1.61921 22.1331 
20 1 7.02284 0.391296 24.2836 
22 1 6.95769 1.58154 19.4705 
25 1 5.71559 1.57263 18.7581 
27 1 6.97283 1.60231 20.9049 
28 1 1.09564 1.59571 18.7472 
30 1 7.02365 1.63193 23.5659 
10 1 6.95373 5.22765 5.11683 
13 1 7.02008 3.93685 0.312407 
15 1 6.99339 5.19321 2.45796 
16 1 7.02136 6.42087 0.305352 
26 1 7.02244 5.18151 1.02573 
29 1 5.70727 5.24463 5.83325 
31 1 6.97103 5.20987 3.68757 
32 1 1.09467 5.22318 5.84471 
1 1 4.65243 5.2223 6.46157 
3 1 3.38874 5.19353 8.60099 
4 1 2.16156 5.24432 6.45328 
6 1 3.34274 5.10294 11.2241 
9 1 3.33718 3.89147 11.913 
11 1 3.36724 5.15179 9.83883 
12 1 3.32519 6.53313 11.8529 
14 1 3.4038 5.24155 7.17894 
33 2 3.51793 5.84965 13.0961 
ITEM: TIMESTEP
40
ITEM: NUMBER OF ATOMS
33
ITEM: BOX BOUNDS pp pp pp
0.0000000000000000e+00 7.0970000000000004e+00
0.0000000000000000e+00 7.0970000000000004e+00
0.0000000000000000e+00 2.4588000000000001e+01
ITEM: ATOMS id type x y z 
2 1 3.33999 1.60517 13.3264 
5 1 4.65119 1.5775 18.1367 
7 1 3.39239 1.60962 15.9785 
8 1 2.16969 1.58439 18.1431 
18 1 3.40919 1.5815 17.4153 
21 1 3.33546 2.83255 12.554 
23 1 3.36786 1.63214 14.7437 
24 1 3.38023 0.235504 12.7794 
17 1 7.02287 2.87536 24.2814 
19 1 6.99752 1.61903 22.1323 
20 1 7.02453 0.390486 24.2831 
22 1 6.95732 1.58318 19.4707 
25 1 5.71116 1.58549 18.7563 
27 1 6.97315 1.60313 20.9046 
28 1 1.10048 1.57648 18.7463 
30 1 7.02101 1.63229 23.5661 
10 1 6.95303 5.22829 5.11908 
13 1 7.02065 3.93807 0.310476 
15 1 6.99195 5.19298 2.45884 
16 1 7.0206 6.42154 0.30661 
26 1 7.02162 5.18098 1.02532 
29 1 5.70715 5.22804 5.83441 
31 1 6.97205 5.20977 3.68754 
32 1 1.09626 5.23607 5.84381 
1 1 4.6526 5.23977 6.46063 
3 1 3.38824 5.18954 8.60853 
4 1 2.16018 5.23266 6.45419 
6 1 3.33883 5.11975 11.2271 
9 1 3.33753 3.88567 11.9193 
11 1 3.36674 5.14853 9.83885 
12 1 3.32556 6.50265 11.832 
14 1 3.40429 5.23948 7.18031 
33 2 3.51567 5.92738 13.1412 
ITEM: TIMESTEP
50
ITEM: NUMBER OF ATOMS
33
ITEM: BOX BOUNDS pp pp pp
0.0000000000000000e+00 7.0970000000000004e+00
0.0000000000000000e+00 7.0970000000000004e+00
0.0000000000000000e+00 2.4588000000000001e+01
ITEM: ATOMS id type x y z 
2 1 3.34175 1.60683 13.3215 
5 1 4.65082 1.58168 18.1344 
7 1 3.39152 1.61113 15.9744 
8 1 2.17006 1.58007 18.1399 
18 1 3.40845 1.58249 17.4081 
21 1 3.33707 2.81853 12.5587 
23 1 3.3684 1.63539 14.7427 
24 1 3.37903 0.241232 12.7673 
17 1 7.022 2.87535 24.2813 
19 1 6.99537 1.61997 22.1315 
20 1 7.0216 0.391126 24.2842 
22 1 6.95732 1.58309 19.469 
25 1 5.71003 1.58121 18.7562 
27 1 6.97444 1.60287 20.903 
28 1 1.10223 1.58115 18.7469 
30 1 7.02301 1.63153 23.5654 
10 1 6.95334 5.22835 5.11976 
13 1 7.02123 3.93761 0.310134 
15 1 6.99394 5.19265 2.45901 
16 1 7.02313 6.42148 0.30586 
26 1 7.01974 5.18151 1.02592 
29 1 5.70802 5.23287 5.83485 
31 1 6.97076 5.20904 3.68757 
32 1 1.09562 5.23211 5.84387 
1 1 4.65172 5.23528 6.46041 
3 1 3.38908 5.18906 8.59821 
4 1 2.16086 5.23701 6.45429 
6 1 3.33718 5.1323 11.2336 
9 1 3.33621 3.87813 11.9278 
11 1 3.36449 5.14574 9.83135 
12 1 3.32842 6.48082 11.837 
14 1 3.40421 5.23851 7.17944 
33 2 3.51597 5.94888 13.1725 
ITEM: TIMESTEP
60
ITEM: NUMBER OF ATOMS
33
ITEM: BOX BOUNDS pp pp pp
0.0000000000000000e+00 7.0970000000000004e+00
0.0000000000000000e+00 7.0970000000000004e+00
0.0000000000000000e+00 2.4588000000000001e+01
ITEM: ATOMS id type x y z 
2 1 3.34469 1.59842 13.3149 
5 1 4.65043 1.58318 18.1313 
7 1 3.39096 1.61311 15.9702 
8 1 2.16836 1.58134 18.1337 
18 1 3.4077 1.58323 17.4035 
21 1 3.33804 2.81041 12.5584 
23 1 3.36934 1.63805 14.7374 
24 1 3.37853 0.246485 12.7598 
17 1 7.02654 2.87518 24.2809 
19 1 6.99477 1.62012 22.1292 
20 1 7.01797 0.391476 24.2835 
22 1 6.95736 1.58205 19.4661 
25 1 5.70883 1.58164 18.7527 
27 1 6.97477 1.60277 20.9004 
28 1 1.10572 1.58165 18.748 
30 1 7.02262 1.63194 23.5637 
10 1 6.95322 5.22877 5.12028 
13 1 7.01634 3.93683 0.309918 
15 1 6.99394 5.19277 2.45867 
16 1 7.02594 6.42195 0.306549 
26 1 7.02013 5.18098 1.02494 
29 1 5.71072 5.23309 5.8373 
31 1 6.97057 5.20893 3.68743 
32 1 1.09563 5.23236 5.84166 
1 1 4.65015 5.2347 6.45679 
3 1 3.38811 5.18687 8.59408 
4 1 2.16021 5.2356 6.45513 
6 1 3.33482 5.13265 11.2414 
9 1 3.33587 3.87693 11.9373 
11 1 3.36286 5.14321 9.83026 
12 1 3.33453 6.4541 11.85 
14 1 3.40454 5.23832 7.17249 
33 2 3.51282 5.98591 13.2082 
ITEM: TIMESTEP
70
ITEM: NUMBER OF ATOMS
33
ITEM: BOX BOUNDS pp pp pp
0.0000000000000000e+00 7.0970000000000004e+00
0.0000000000000000e+00 7.0970000000000004e+00
0.0000000000000000e+00 2.4588000000000001e+01
ITEM: ATOMS id type x y z 
2 1 3.34511 1.59829 13.3155 
5 1 4.64985 1.58272 18.1306 
7 1 3.3908 1.61391 15.9688 
8 1 2.16858 1.58176 18.1327 
18 1 3.40787 1.58361 17.4031 
21 1 3.3381 2.81192 12.5569 
23 1 3.36964 1.63791 14.7373 
24 1 3.37806 0.248338 12.7549 
17 1 7.02232 2.8752 24.28 
19 1 6.996 1.62022 22.1285 
20 1 7.02209 0.391695 24.284 
22 1 6.95755 1.58192 19.4658 
25 1 5.70911 1.58203 18.7519 
27 1 6.97401 1.60268 20.9 
28 1 1.10545 1.58172 18.7478 
30 1 7.02184 1.63165 23.5633 
10 1 6.95333 5.22896 5.12015 
13 1 7.02068 3.9365 0.310539 
15 1 6.99339 5.19267 2.45862 
16 1 7.0219 6.42199 0.305706 
26 1 7.02007 5.18121 1.02503 
29 1 5.71097 5.2323 5.83745 
31 1 6.9708 5.20917 3.68704 
32 1 1.09576 5.23257 5.8416 
1 1 4.65013 5.2354 6.45616 
3 1 3.38775 5.18641 8.59748 
4 1 2.16001 5.23505 6.4546 
6 1 3.3346 5.13335 11.2428 
9 1 3.33596 3.87668 11.9387 
11 1 3.36266 5.14289 9.82839 
12 1 3.33582 6.45021 11.853 
14 1 3.40439 5.23801 7.1719 
33 2 3.51243 5.98606 13.2157 
ITEM: TIMESTEP
80
ITEM: NUMBER OF ATOMS
33
ITEM: BOX BOUNDS pp pp pp
0.0000000000000000e+00 7.0970000000000004e+00
0.0000000000000000e+00 7.0970000000000004e+00
0.0000000000000000e+00 2.4588000000000001e+01
ITEM: ATOMS id type x y z 
2 1 3.34626 1.5974 13.3143 
5 1 4.64936 1.58283 18.1293 
7 1 3.39089 1.61464 15.9673 
8 1 2.16835 1.58273 18.1305 
18 1 3.40768 1.58512 17.4014 
21 1 3.33852 2.8097 12.5571 
23 1 3.37031 1.6382 14.7363 
24 1 3.37809 0.251621 12.752 
17 1 7.02352 2.87458 24.2797 
19 1 6.99608 1.62004 22.127 
20 1 7.02143 0.391101 24.2823 
22 1 6.95758 1.58171 19.4643 
25 1 5.7096 1.58238 18.7495 
27 1 6.97383 1.60245 20.8988 
28 1 1.10548 1.5821 18.7467 
30 1 7.02137 1.63194 23.5621 
10 1 6.95358 5.22939 5.11977 
13 1 7.01931 3.93663 0.309677 
15 1 6.9933 5.19276 2.45803 
16 1 7.02174 6.42311 0.306515 
26 1 7.02044 5.18087 1.02433 
29 1 5.71163 5.23194 5.83758 
31 1 6.97063 5.20929 3.68639 
32 1 1.09558 5.23185 5.84104 
1 1 4.64951 5.23526 6.45484 
3 1 3.38688 5.18535 8.59739 
4 1 2.16052 5.23559 6.45344 
6 1 3.33429 5.13322 11.2459 
9 1 3.33604 3.877 11.942 
11 1 3.36188 5.14171 9.82811 
12 1 3.33961 6.4407 11.8609 
14 1 3.4041 5.23678 7.17021 
33 2 3.50964 5.99504 13.2314 
ITEM: TIMESTEP
90
ITEM: NUMBER OF ATOMS
33
ITEM: BOX BOUNDS pp pp pp
0.0000000000000000e+00 7.0970000000000004e+00
0.0000000000000000e+00 7.0970000000000004e+00
0.0000000000000000e+00 2.4588000000000001e+01
ITEM: ATOMS id type x y z 
2 1 3.34685 1.59697 13.3136 
5 1 4.64924 1.58375 18.1288 
7 1 3.39101 1.61504 15.9667 
8 1 2.16802 1.5833 18.1294 
18 1 3.40762 1.58564 17.4007 
21 1 3.33874 2.80886 12.5572 
23 1 3.37068 1.63826 14.7357 
24 1 3.37856 0.252042 12.7536 
17 1 7.02146 2.87481 24.279 
19 1 6.99567 1.61991 22.1262 
20 1 7.02162 0.391198 24.2817 
22 1 6.9576 1.58154 19.4633 
25 1 5.70981 1.58213 18.748 
27 1 6.97395 1.60244 20.8979 
28 1 1.10553 1.58233 18.7458 
30 1 7.02193 1.63177 23.5615 
10 1 6.95369 5.2291 5.11963 
13 1 7.02148 3.93613 0.309695 
15 1 6.99335 5.19276 2.45768 
16 1 7.02092 6.42324 0.306367 
26 1 7.01987 5.18106 1.02396 
29 1 5.71144 5.23231 5.8374 
31 1 6.97051 5.20935 3.68598 
32 1 1.09551 5.23282 5.84106 
1 1 4.64953 5.23455 6.45432 
3 1 3.38635 5.18469 8.59726 
4 1 2.16092 5.23438 6.45225 
6 1 3.33427 5.13243 11.2474 
9 1 3.33617 3.87613 11.944 
11 1 3.36152 5.14118 9.82686 
12 1 3.34176 6.43629 11.8656 
14 1 3.40394 5.23672 7.16977 
33 2 3.50747 6.00185 13.2374 
ITEM: TIMESTEP
100
ITEM: NUMBER OF ATOMS
33
ITEM: BOX BOUNDS pp pp pp
0.0000000000000000e+00 7.0970000000000004e+00
0.0000000000000000e+00 7.0970000000000004e+00
0.0000000000000000e+00 2.4588000000000001e+01
ITEM: ATOMS id type x y z 
2 1 3.34732 1.59634 13.3132 
5 1 4.64947 1.58388 18.1278 
7 1 3.39117 1.61534 15.9665 
8 1 2.16782 1.58382 18.1285 
18 1 3.40744 1.58641 17.4006 
21 1 3.33896 2.80852 12.5574 
23 1 3.37099 1.63836 14.7355 
24 1 3.37872 0.253056 12.7527 
17 1 7.02201 2.87434 24.2793 
19 1 6.99595 1.61985 22.1256 
20 1 7.02136 0.391109 24.2811 
22 1 6.95763 1.5814 19.4626 
25 1 5.70989 1.58249 18.7472 
27 1 6.97369 1.60231 20.8972 
28 1 1.1054 1.58242 18.745 
30 1 7.02157 1.63195 23.5606 
10 1 6.95358 5.22959 5.11933 
13 1 7.02065 3.93637 0.308721 
15 1 6.99302 5.19278 2.45736 
16 1 7.02089 6.42358 0.306425 
26 1 7.0202 5.18084 1.02367 
29 1 5.71159 5.23205 5.83738 
31 1 6.97063 5.20941 3.68572 
32 1 1.09572 5.23192 5.84036 
1 1 4.64927 5.23431 6.4538 
3 1 3.38587 5.18428 8.59742 
4 1 2.16085 5.23515 6.45226 
6 1 3.3344 5.13218 11.2482 
9 1 3.33631 3.87653 11.9449 
11 1 3.36121 5.14071 9.82727 
12 1 3.34339 6.43408 11.8687 
14 1 3.40409 5.23594 7.1688 
33 2 3.50596 6.00368 13.2448 
ITEM: TIMESTEP
110
ITEM: NUMBER OF ATOMS
33
ITEM: BOX BOUNDS pp pp pp
0.0000000000000000e+00 7.0970000000000004e+00
0.0000000000000000e+00 7.0970000000000004e+00
0.0000000000000000e+00 2.4588000000000001e+01
ITEM: ATOMS id type x y z 
2 1 3.34778 1.59647 13.3131 
5 1 4.64961 1.58448 18.127 
7 1 3.39131 1.61571 15.9663 
8 1 2.16759 1.58423 18.1277 
18 1 3.40742 1.58704 17.4002 
21 1 3.33919 2.80814 12.5576 
23 1 3.37133 1.6384 14.7354 
24 1 3.37918 0.253375 12.7542 
17 1 7.02137 2.87406 24.2792 
19 1 6.99571 1.61979 22.1249 
20 1 7.02173 0.391161 24.2807 
22 1 6.9576 1.58123 19.4619 
25 1 5.71008 1.58256 18.7463 
27 1 6.97374 1.60223 20.8965 
28 1 1.10517 1.58267 18.7442 
30 1 7.02165 1.63189 23.5601 
10 1 6.95358 5.22968 5.1191 
13 1 7.02089 3.93647 0.308006 
15 1 6.99316 5.19273 2.45702 
16 1 7.02014 6.42362 0.305999 
26 1 7.02025 5.18097 1.02341 
29 1 5.71165 5.232 5.83728 
31 1 6.97045 5.20953 3.68535 
32 1 1.09587 5.23239 5.83983 
1 1 4.64912 5.23398 6.4533 
3 1 3.38542 5.18385 8.5974 
4 1 2.16089 5.23409 6.4519 
6 1 3.33461 5.13204 11.2492 
9 1 3.33651 3.87641 11.9459 
11 1 3.36096 5.14035 9.82692 
12 1 3.34514 6.43062 11.8723 
14 1 3.40399 5.23575 7.16856 
33 2 3.5039 6.00708 13.2494 
ITEM: TIMESTEP
120
ITEM: NUMBER OF ATOMS
33
ITEM: BOX BOUNDS pp pp pp
0.0000000000000000e+00 7.0970000000000004e+00
0.0000000000000000e+00 7.0970000000000004e+00
0.0000000000000000e+00 2.4588000000000001e+01
ITEM: ATOMS id type x y z 
2 1 3.35139 1.59568 13.3121 
5 1 4.65123 1.58848 18.1198 
7 1 3.39245 1.61858 15.9651 
8 1 2.16587 1.58792 18.1216 
18 1 3.40712 1.59239 17.3979 
21 1 3.34122 2.80602 12.5595 
23 1 3.37385 1.63914 14.7342 
24 1 3.38223 0.2552 12.7596 
17 1 7.01902 2.8724 24.2784 
19 1 6.9953 1.61942 22.1199 
20 1 7.02154 0.390999 24.2763 
22 1 6.95727 1.58008 19.4567 
25 1 5.71146 1.5839 18.7398 
27 1 6.97328 1.60145 20.8916 
28 1 1.10319 1.58417 18.738 
30 1 7.02022 1.63145 23.556 
10 1 6.9537 5.23147 5.11667 
13 1 7.01991 3.93755 0.303036 
15 1 6.99231 5.19262 2.45466 
16 1 7.02158 6.42484 0.304041 
26 1 7.0187 5.18057 1.0187 
29 1 5.71211 5.23161 5.83644 
31 1 6.97009 5.21034 3.68274 
32 1 1.09734 5.23119 5.83484 
1 1 4.64762 5.23174 6.44977 
3 1 3.38205 5.1808 8.59766 
4 1 2.1607 5.23121 6.45077 
6 1 3.33677 5.13159 11.2557 
9 1 3.33834 3.87764 11.9514 
11 1 3.3593 5.13794 9.82742 
12 1 3.35818 6.41049 11.8995 
14 1 3.40333 5.23174 7.16586 
33 2 3.48831 6.02437 13.2903 
ITEM: TIMESTEP
130
ITEM: NUMBER OF ATOMS
33
ITEM: BOX BOUNDS pp pp pp
0.0000000000000000e+00 7.0970000000000004e+00
0.0000000000000000e+00 7.0970000000000004e+00
0.0000000000000000e+00 2.4588000000000001e+01
ITEM: ATOMS id type x y z 
2 1 3.35158 1.59595 13.3123 
5 1 4.65121 1.58805 18.1199 
7 1 3.3925 1.61883 15.965 
8 1 2.16578 1.58809 18.1215 
18 1 3.4072 1.59304 17.3978 
21 1 3.34139 2.80657 12.5594 
23 1 3.37394 1.63929 14.7343 
24 1 3.38253 0.255138 12.761 
17 1 7.01972 2.87247 24.2777 
19 1 6.99492 1.61941 22.1199 
20 1 7.02091 0.391094 24.2764 
22 1 6.95721 1.5801 19.4566 
25 1 5.71167 1.58428 18.7394 
27 1 6.97343 1.60144 20.8917 
28 1 1.10308 1.58431 18.7377 
30 1 7.0206 1.63154 23.5558 
10 1 6.95377 5.23129 5.11691 
13 1 7.01958 3.93708 0.302743 
15 1 6.99245 5.19264 2.454 
16 1 7.0206 6.42464 0.303767 
26 1 7.01927 5.18097 1.01927 
29 1 5.71172 5.23153 5.83608 
31 1 6.96992 5.21027 3.6822 
32 1 1.09732 5.23141 5.83493 
1 1 4.64782 5.23148 6.44994 
3 1 3.38198 5.18069 8.59823 
4 1 2.16083 5.23157 6.4502 
6 1 3.33709 5.13155 11.2554 
9 1 3.33864 3.87719 11.9514 
11 1 3.35943 5.13823 9.82705 
12 1 3.35846 6.41008 11.9002 
14 1 3.40314 5.231 7.16623 
33 2 3.4873 6.0238 13.2912 
ITEM: TIMESTEP
140
ITEM: NUMBER OF ATOMS
33
ITEM: BOX BOUNDS pp pp pp
0.0000000000000000e+00 7.0970000000000004e+00
0.0000000000000000e+00 7.0970000000000004e+00
0.0000000000000000e+00 2.4588000000000001e+01
ITEM: ATOMS id type x y z 
2 1 3.35219 1.59629 13.3128 
5 1 4.65114 1.58862 18.1199 
7 1 3.39267 1.61961 15.9651 
8 1 2.16561 1.58892 18.121 
18 1 3.4073 1.59401 17.3977 
21 1 3.34209 2.80699 12.5595 
23 1 3.3742 1.63984 14.7343 
24 1 3.38333 0.254107 12.7641 
17 1 7.02029 2.87345 24.2753 
19 1 6.99499 1.61932 22.1197 
20 1 7.01973 0.391176 24.2762 
22 1 6.95715 1.58011 19.4563 
25 1 5.71222 1.58435 18.7384 
27 1 6.97319 1.60143 20.8914 
28 1 1.10277 1.58472 18.7369 
30 1 7.02052 1.63133 23.5553 
10 1 6.95385 5.23198 5.11618 
13 1 7.02012 3.93613 0.303579 
15 1 6.99251 5.19265 2.45339 
16 1 7.01944 6.42422 0.302791 
26 1 7.01924 5.18138 1.01901 
29 1 5.71085 5.23126 5.83491 
31 1 6.96968 5.21039 3.68165 
32 1 1.09683 5.23096 5.83541 
1 1 4.64809 5.23068 6.45062 
3 1 3.38182 5.18069 8.59845 
4 1 2.16144 5.23063 6.44883 
6 1 3.33814 5.1318 11.2553 
9 1 3.33941 3.87722 11.9508 
11 1 3.35982 5.13885 9.82746 
12 1 3.35933 6.40951 11.903 
14 1 3.40283 5.23035 7.16662 
33 2 3.4842 6.022 13.2939 
ITEM: TIMESTEP
150
ITEM: NUMBER OF ATOMS
33
ITEM: BOX BOUNDS pp pp pp
0.0000000000000000e+00 7.0970000000000004e+00
0.0000000000000000e+00 7.0970000000000004e+00
0.0000000000000000e+00 2.4588000000000001e+01
ITEM: ATOMS id type x y z 
2 1 3.35261 1.59634 13.3128 
5 1 4.65117 1.58934 18.1197 
7 1 3.39277 1.62011 15.9652 
8 1 2.16549 1.58926 18.1207 
18 1 3.40728 1.59448 17.3977 
21 1 3.34256 2.80706 12.5595 
23 1 3.37441 1.64028 14.7344 
24 1 3.38367 0.253438 12.7659 
17 1 7.02016 2.87359 24.2749 
19 1 6.99476 1.61923 22.1194 
20 1 7.02005 0.391083 24.2759 
22 1 6.9572 1.58006 19.456 
25 1 5.71237 1.5845 18.738 
27 1 6.9732 1.60134 20.8911 
28 1 1.10267 1.58496 18.7366 
30 1 7.0202 1.63149 23.555 
10 1 6.95348 5.23171 5.11598 
13 1 7.01964 3.93634 0.303155 
15 1 6.99231 5.19276 2.45324 
16 1 7.01958 6.42407 0.302234 
26 1 7.01908 5.18103 1.01896 
29 1 5.71079 5.23115 5.83478 
31 1 6.96972 5.21047 3.68151 
32 1 1.09687 5.2313 5.83505 
1 1 4.648 5.23049 6.4505 
3 1 3.38171 5.18063 8.5986 
4 1 2.16138 5.2304 6.44861 
6 1 3.33876 5.13204 11.2556 
9 1 3.3399 3.8772 11.9506 
11 1 3.3601 5.1393 9.82762 
12 1 3.35988 6.40897 11.9045 
14 1 3.40289 5.22933 7.16661 
33 2 3.48231 6.02123 13.2956 
ITEM: TIMESTEP
160
ITEM: NUMBER OF ATOMS
33
ITEM: BOX BOUNDS pp pp pp
0.0000000000000000e+00 7.0970000000000004e+00
0.0000000000000000e+00 7.0970000000000004e+00
0.0000000000000000e+00 2.4588000000000001e+01
ITEM: ATOMS id type x y z 
2 1 3.35783 1.59641 13.3139 
5 1 4.65139 1.59234 18.118 
7 1 3.39372 1.62614 15.9651 
8 1 2.16456 1.59411 18.1175 
18 1 3.40757 1.60237 17.3961 
21 1 3.34819 2.80671 12.558 
23 1 3.37701 1.64566 14.7341 
24 1 3.38673 0.246608 12.7841 
17 1 7.01923 2.87416 24.2711 
19 1 6.99361 1.61827 22.1168 
20 1 7.0195 0.389735 24.2715 
22 1 6.95737 1.57968 19.4534 
25 1 5.71398 1.58831 18.7341 
27 1 6.97251 1.60079 20.8885 
28 1 1.10129 1.58752 18.7326 
30 1 7.01821 1.63203 23.5513 
10 1 6.95178 5.23238 5.11437 
13 1 7.0176 3.93804 0.297703 
15 1 6.9909 5.19312 2.45145 
16 1 7.01746 6.42274 0.297356 
26 1 7.01831 5.18008 1.01652 
29 1 5.70933 5.22947 5.83406 
31 1 6.96907 5.21221 3.67966 
32 1 1.09753 5.23002 5.83118 
1 1 4.64616 5.22701 6.44936 
3 1 3.38005 5.17427 8.60021 
4 1 2.16093 5.22706 6.44652 
6 1 3.34586 5.13428 11.2588 
9 1 3.34594 3.87681 11.9489 
11 1 3.36385 5.14776 9.82981 
12 1 3.36632 6.40346 11.9214 
14 1 3.40261 5.22324 7.16716 
33 2 3.4606 6.0122 13.3154 
ITEM: TIMESTEP
170
ITEM: NUMBER OF ATOMS
33
ITEM: BOX BOUNDS pp pp pp
0.0000000000000000e+00 7.0970000000000004e+00
0.0000000000000000e+00 7.0970000000000004e+00
0.0000000000000000e+00 2.4588000000000001e+01
ITEM: ATOMS id type x y z 
2 1 3.35838 1.59624 13.3138 
5 1 4.65201 1.59382 18.1168 
7 1 3.39386 1.62683 15.9646 
8 1 2.16481 1.59456 18.1172 
18 1 3.40716 1.60262 17.3966 
21 1 3.34879 2.80626 12.5574 
23 1 3.37727 1.64619 14.7336 
24 1 3.38646 0.245993 12.785 
17 1 7.0178 2.87389 24.2712 
19 1 6.99363 1.61835 22.1163 
20 1 7.01865 0.389983 24.2714 
22 1 6.95746 1.57995 19.453 
25 1 5.71294 1.58759 18.7353 
27 1 6.97246 1.60085 20.8881 
28 1 1.10164 1.58765 18.7326 
30 1 7.01868 1.63145 23.5519 
10 1 6.95213 5.23353 5.11413 
13 1 7.01871 3.93804 0.297056 
15 1 6.99124 5.19362 2.4512 
16 1 7.01798 6.42257 0.297105 
26 1 7.01749 5.18077 1.01648 
29 1 5.70945 5.22955 5.83426 
31 1 6.96845 5.2112 3.6795 
32 1 1.09728 5.2295 5.83182 
1 1 4.64638 5.22597 6.44952 
3 1 3.38046 5.17982 8.60082 
4 1 2.16132 5.22604 6.4461 
6 1 3.34666 5.13439 11.259 
9 1 3.34653 3.87661 11.949 
11 1 3.36372 5.14432 9.83 
12 1 3.36669 6.40236 11.9223 
14 1 3.40145 5.22134 7.16705 
33 2 3.45906 6.01317 13.3157 
ITEM: TIMESTEP
180
ITEM: NUMBER OF ATOMS
33
ITEM: BOX BOUNDS pp pp pp
0.0000000000000000e+00 7.0970000000000004e+00
0.0000000000000000e+00 7.0970000000000004e+00
0.0000000000000000e+00 2.4588000000000001e+01
ITEM: ATOMS id type x y z 
2 1 3.35864 1.59616 13.3136 
5 1 4.65187 1.59457 18.1169 
7 1 3.39386 1.62721 15.9647 
8 1 2.16468 1.59471 18.1171 
18 1 3.40738 1.60276 17.3962 
21 1 3.34907 2.80601 12.5572 
23 1 3.37745 1.64643 14.7336 
24 1 3.38631 0.245903 12.785 
17 1 7.0183 2.87417 24.2708 
19 1 6.99353 1.6184 22.1164 
20 1 7.01831 0.389862 24.2712 
22 1 6.95733 1.58007 19.4531 
25 1 5.71305 1.58727 18.7351 
27 1 6.97253 1.6008 20.8881 
28 1 1.10165 1.58783 18.7327 
30 1 7.01854 1.63129 23.5519 
10 1 6.95228 5.23348 5.11436 
13 1 7.01807 3.9378 0.297503 
15 1 6.99093 5.1933 2.45117 
16 1 7.01817 6.42268 0.297326 
26 1 7.01765 5.18087 1.01601 
29 1 5.70919 5.22926 5.83402 
31 1 6.96847 5.21178 3.6794 
32 1 1.09716 5.22938 5.83173 
1 1 4.64644 5.22566 6.44978 
3 1 3.38103 5.17995 8.6008 
4 1 2.16118 5.22585 6.44614 
6 1 3.34693 5.13415 11.2591 
9 1 3.34689 3.87653 11.949 
11 1 3.36361 5.14446 9.82998 
12 1 3.36686 6.40216 11.9228 
14 1 3.40133 5.22123 7.16721 
33 2 3.45831 6.013 13.3163 
ITEM: TIMESTEP
190
ITEM: NUMBER OF ATOMS
33
ITEM: BOX BOUNDS pp pp pp
0.0000000000000000e+00 7.0970000000000004e+00
0.0000000000000000e+00 7.0970000000000004e+00
0.0000000000000000e+00 2.4588000000000001e+01
ITEM: ATOMS id type x y z 
2 1 3.35881 1.59613 13.3136 
5 1 4.65181 1.59461 18.1169 
7 1 3.39391 1.62737 15.9646 
8 1 2.16465 1.59485 18.1171 
18 1 3.4074 1.60304 17.3961 
21 1 3.34929 2.80585 12.557 
23 1 3.37754 1.64664 14.7336 
24 1 3.38623 0.245847 12.7852 
17 1 7.01829 2.87427 24.2706 
19 1 6.99355 1.61839 22.1164 
20 1 7.01826 0.389815 24.2711 
22 1 6.95727 1.57999 19.453 
25 1 5.71309 1.5875 18.7349 
27 1 6.97251 1.60081 20.8881 
28 1 1.10169 1.58795 18.7327 
30 1 7.01845 1.63126 23.5518 
10 1 6.95223 5.23347 5.11437 
13 1 7.01797 3.93769 0.297628 
15 1 6.99093 5.19336 2.45112 
16 1 7.01817 6.42275 0.297404 
26 1 7.01757 5.18086 1.01596 
29 1 5.70912 5.22926 5.83398 
31 1 6.96839 5.21171 3.67935 
32 1 1.09715 5.22931 5.83172 
1 1 4.64642 5.22556 6.44983 
3 1 3.38112 5.17992 8.60085 
4 1 2.16113 5.22574 6.44619 
6 1 3.34707 5.13402 11.2592 
9 1 3.34711 3.87645 11.949 
11 1 3.3638 5.1446 9.83003 
12 1 3.36697 6.40184 11.923 
14 1 3.40134 5.22104 7.16724 
33 2 3.45777 6.01304 13.3166 
ITEM: TIMESTEP
200
ITEM: NUMBER OF ATOMS
33
ITEM: BOX BOUNDS pp pp pp
0.0000000000000000e+00 7.0970000000000004e+00
0.0000000000000000e+00 7.0970000000000004e+00
0.0000000000000000e+00 2.4588000000000001e+01
ITEM: ATOMS id type x y z 
2 1 3.35887 1.59612 13.3135 
5 1 4.65177 1.59461 18.1169 
7 1 3.39393 1.62743 15.9645 
8 1 2.16465 1.59491 18.117 
18 1 3.4074 1.60315 17.3961 
21 1 3.34936 2.8058 12.557 
23 1 3.37757 1.64671 14.7335 
24 1 3.38621 0.245806 12.7852 
17 1 7.01819 2.8743 24.2705 
19 1 6.99355 1.61839 22.1164 
20 1 7.01834 0.389807 24.2711 
22 1 6.95726 1.57998 19.453 
25 1 5.71311 1.5876 18.7349 
27 1 6.97251 1.60081 20.8881 
28 1 1.1017 1.58797 18.7327 
30 1 7.01847 1.63126 23.5518 
10 1 6.95221 5.23348 5.11436 
13 1 7.01794 3.93765 0.29766 
15 1 6.99092 5.19338 2.45112 
16 1 7.01803 6.42275 0.297401 
26 1 7.01764 5.18086 1.01596 
29 1 5.7091 5.22922 5.83397 
31 1 6.96837 5.2117 3.67933 
32 1 1.09714 5.22929 5.83172 
1 1 4.64641 5.22555 6.44985 
3 1 3.38114 5.1799 8.60085 
4 1 2.16111 5.2257 6.44621 
6 1 3.34712 5.13399 11.2592 
9 1 3.34718 3.87642 11.949 
11 1 3.36387 5.14465 9.83004 
12 1 3.36701 6.40177 11.9231 
14 1 3.40134 5.22099 7.16725 
33 2 3.45759 6.01304 13.3167 
ITEM: TIMESTEP
210
ITEM: NUMBER OF ATOMS
33
ITEM: BOX BOUNDS pp pp pp
0.0000000000000000e+00 7.0970000000000004e+00
0.0000000000000000e+00 7.0970000000000004e+00
0.0000000000000000e+00 2.4588000000000001e+01
ITEM: ATOMS id type x y z 
2 1 3.35979 1.59581 13.3133 
5 1 4.65153 1.59556 18.117 
7 1 3.39419 1.62853 15.9643 
8 1 2.16454 1.59576 18.1167 
18 1 3.40737 1.60438 17.3958 
21 1 3.35053 2.805 12.5563 
23 1 3.37813 1.64765 14.7333 
24 1 3.38584 0.245284 12.7859 
17 1 7.01799 2.87439 24.2701 
19 1 6.99339 1.61838 22.1161 
20 1 7.01803 0.389685 24.2707 
22 1 6.9572 1.57995 19.4529 
25 1 5.71321 1.58817 18.7344 
27 1 6.9725 1.60077 20.8878 
28 1 1.10182 1.58845 18.7327 
30 1 7.01834 1.63126 23.5514 
10 1 6.95199 5.23338 5.11427 
13 1 7.01751 3.93744 0.29776 
15 1 6.99062 5.19348 2.45095 
16 1 7.01752 6.42291 0.297476 
26 1 7.01765 5.18082 1.0159 
29 1 5.70883 5.22893 5.83384 
31 1 6.96815 5.21177 3.67919 
32 1 1.09684 5.22894 5.83186 
1 1 4.64631 5.22498 6.45 
3 1 3.38171 5.17967 8.60096 
4 1 2.16079 5.22516 6.44636 
6 1 3.34785 5.13365 11.2594 
9 1 3.34827 3.87589 11.9488 
11 1 3.36495 5.14527 9.83016 
12 1 3.36752 6.40062 11.9244 
14 1 3.40139 5.22017 7.16735 
33 2 3.45472 6.0129 13.3185 
ITEM: TIMESTEP
220
ITEM: NUMBER OF ATOMS
33
ITEM: BOX BOUNDS pp pp pp
0.0000000000000000e+00 7.0970000000000004e+00
0.0000000000000000e+00 7.0970000000000004e+00
0.0000000000000000e+00 2.4588000000000001e+01
ITEM: ATOMS id type x y z 
2 1 3.3602 1.59565 13.3132 
5 1 4.65148 1.59596 18.117 
7 1 3.39432 1.62903 15.9642 
8 1 2.16453 1.59617 18.1166 
18 1 3.4073 1.60497 17.3957 
21 1 3.35105 2.80469 12.556 
23 1 3.37839 1.64804 14.7332 
24 1 3.38571 0.245045 12.7863 
17 1 7.01779 2.87444 24.2699 
19 1 6.99335 1.61838 22.116 
20 1 7.01789 0.389686 24.2706 
22 1 6.95723 1.57996 19.4528 
25 1 5.71321 1.58841 18.7342 
27 1 6.97245 1.60076 20.8877 
28 1 1.10183 1.58868 18.7327 
30 1 7.01813 1.63123 23.5513 
10 1 6.95184 5.23336 5.11432 
13 1 7.01753 3.93737 0.297802 
15 1 6.99053 5.1935 2.45093 
16 1 7.01763 6.42289 0.29735 
26 1 7.01731 5.18084 1.01587 
29 1 5.70878 5.22873 5.83377 
31 1 6.96803 5.21183 3.67915 
32 1 1.09681 5.2288 5.8318 
1 1 4.64624 5.22472 6.45003 
3 1 3.38165 5.17967 8.60099 
4 1 2.1606 5.22487 6.4465 
6 1 3.34824 5.13355 11.2595 
9 1 3.34873 3.87565 11.9487 
11 1 3.36559 5.14543 9.83019 
12 1 3.36771 6.40011 11.9249 
14 1 3.40153 5.21981 7.16735 
33 2 3.45342 6.01279 13.3193 
ITEM: TIMESTEP
230
ITEM: NUMBER OF ATOMS
33
ITEM: BOX BOUNDS pp pp pp
0.0000000000000000e+00 7.0970000000000004e+00
0.0000000000000000e+00 7.0970000000000004e+00
0.0000000000000000e+00 2.4588000000000001e+01
ITEM: ATOMS id type x y z 
2 1 3.3607 1.59551 13.3132 
5 1 4.65143 1.59646 18.1169 
7 1 3.39447 1.62961 15.9641 
8 1 2.16452 1.59665 18.1165 
18 1 3.4073 1.60573 17.3957 
21 1 3.3516 2.80434 12.5557 
23 1 3.37872 1.64846 14.7331 
24 1 3.38557 0.244735 12.7868 
17 1 7.01766 2.8744 24.2699 
19 1 6.99321 1.61835 22.1159 
20 1 7.01742 0.389677 24.2705 
22 1 6.95719 1.57997 19.4526 
25 1 5.71322 1.58869 18.7341 
27 1 6.97245 1.60077 20.8876 
28 1 1.10183 1.58899 18.7326 
30 1 7.01829 1.63124 23.5511 
10 1 6.95181 5.23331 5.11416 
13 1 7.01733 3.93736 0.297697 
15 1 6.99036 5.1936 2.45088 
16 1 7.01729 6.42289 0.297274 
26 1 7.01742 5.18083 1.01582 
29 1 5.70868 5.22859 5.83375 
31 1 6.9679 5.21175 3.67912 
32 1 1.0967 5.22856 5.83196 
1 1 4.64617 5.22451 6.44999 
3 1 3.3822 5.17963 8.60103 
4 1 2.16057 5.22457 6.44657 
6 1 3.34897 5.1334 11.2596 
9 1 3.34935 3.87535 11.9484 
11 1 3.36566 5.14562 9.83023 
12 1 3.36792 6.39957 11.9256 
14 1 3.40126 5.21929 7.16736 
33 2 3.45184 6.01259 13.3202 
ITEM: TIMESTEP
240
ITEM: NUMBER OF ATOMS
33
ITEM: BOX BOUNDS pp pp pp
0.0000000000000000e+00 7.0970000000000004e+00
0.0000000000000000e+00 7.0970000000000004e+00
0.0000000000000000e+00 2.4588000000000001e+01
ITEM: ATOMS id type x y z 
2 1 3.3701 1.59269 13.3123 
5 1 4.65105 1.60631 18.115 
7 1 3.39733 1.64068 15.9626 
8 1 2.16492 1.60589 18.1158 
18 1 3.40705 1.62031 17.3941 
21 1 3.36235 2.79789 12.5499 
23 1 3.38482 1.65625 14.7315 
24 1 3.383 0.238636 12.7959 
17 1 7.01542 2.87452 24.2675 
19 1 6.9918 1.61796 22.1137 
20 1 7.01403 0.391075 24.2714 
22 1 6.95695 1.58063 19.4508 
25 1 5.71312 1.59431 18.7316 
27 1 6.97163 1.60079 20.8852 
28 1 1.10072 1.594 18.7291 
30 1 7.01515 1.63065 23.5481 
10 1 6.95131 5.23182 5.11307 
13 1 7.01521 3.93643 0.296813 
15 1 6.98783 5.19458 2.44973 
16 1 7.01391 6.42172 0.293809 
26 1 7.01409 5.18105 1.01514 
29 1 5.70677 5.2252 5.83259 
31 1 6.96534 5.21165 3.67811 
32 1 1.09404 5.2252 5.83429 
1 1 4.64492 5.21902 6.44974 
3 1 3.38594 5.17748 8.60169 
4 1 2.15868 5.21907 6.44756 
6 1 3.36078 5.1308 11.261 
9 1 3.36114 3.86979 11.9442 
11 1 3.3734 5.14951 9.83103 
12 1 3.37205 6.38939 11.9386 