ITEM: TIMESTEP
0
ITEM: NUMBER OF ATOMS
49
ITEM: BOX BOUNDS pp pp pp
0.0000000000000000e+00 1.1000000000000000e+01
0.0000000000000000e+00 1.1002000000000001e+01
0.0000000000000000e+00 1.1000000000000000e+01
ITEM: ATOMS id type x y z 
10 1 4.603 4.603 4.603 
11 1 3.085 3.085 3.085 
12 1 3.796 3.796 3.796 
46 1 0.726 0.725 0.725 
47 1 2.26 2.259 2.26 
48 1 1.551 1.55 1.55 
19 1 4.546 4.545 6.226 
20 1 3.013 3.013 7.764 
21 1 3.721 3.721 7.053 
31 1 0.668 0.667 10.103 
32 1 2.187 2.187 8.589 
33 1 1.476 1.475 9.298 
16 1 4.546 6.225 4.546 
17 1 3.013 7.765 3.013 
18 1 3.721 7.053 3.722 
25 1 0.668 10.103 0.668 
26 1 2.188 8.589 2.188 
27 1 1.476 9.298 1.476 
4 1 4.608 6.169 6.169 
5 1 3.086 7.684 7.684 
6 1 3.799 6.974 6.974 
37 1 0.729 10.046 10.046 
38 1 2.259 8.509 8.508 
39 1 1.552 9.219 9.219 
13 1 6.225 4.546 4.546 
14 1 7.764 3.013 3.013 
15 1 7.053 3.721 3.722 
28 1 10.102 0.667 0.668 
29 1 8.589 2.187 2.188 
30 1 9.298 1.475 1.476 
1 1 6.168 4.608 6.169 
2 1 7.684 3.086 7.684 
3 1 6.974 3.799 6.974 
40 1 10.045 0.728 10.046 
41 1 8.508 2.259 8.508 
42 1 9.218 1.551 9.218 
7 1 6.169 6.169 4.608 
8 1 7.684 7.684 3.086 
9 1 6.974 6.974 3.799 
43 1 10.046 10.047 0.729 
44 1 8.508 8.509 2.259 
45 1 9.219 9.219 1.552 
22 1 6.229 6.229 6.229 
23 1 7.764 7.765 7.765 
24 1 7.055 7.056 7.055 
34 1 10.108 10.108 10.107 
35 1 8.59 8.59 8.59 
36 1 9.301 9.301 9.3 
49 2 6.717 6.629 8.002 
ITEM: TIMESTEP
10
ITEM: NUMBER OF ATOMS
49
ITEM: BOX BOUNDS pp pp pp
0.0000000000000000e+00 1.1000000000000000e+01
0.0000000000000000e+00 1.1002000000000001e+01
0.0000000000000000e+00 1.1000000000000000e+01
ITEM: ATOMS id type x y z 
10 1 4.59217 4.59114 4.59234 
11 1 3.08048 3.07882 3.08214 
12 1 3.78939 3.7924 3.78625 
46 1 0.737794 0.736373 0.737715 
47 1 2.27434 2.27291 2.27511 
48 1 1.56467 1.56461 1.56227 
19 1 4.5289 4.52975 6.23505 
20 1 2.99678 2.99818 7.77933 
21 1 3.70775 3.70499 7.06771 
31 1 0.677315 0.6779 10.0917 
32 1 2.19179 2.19248 8.58674 
33 1 1.48068 1.47854 9.28846 
16 1 4.52414 6.2337 4.52849 
17 1 2.99954 7.7803 2.99868 
18 1 3.70484 7.06515 3.70757 
25 1 0.680379 10.0924 0.678261 
26 1 2.19322 8.5869 2.19236 
27 1 1.47952 9.28885 1.48106 
4 1 4.58869 6.1753 6.17515 
5 1 3.0834 7.69372 7.69326 
6 1 3.7807 6.97835 6.97934 
37 1 0.750078 10.0359 10.0342 
38 1 2.27135 8.49612 8.49411 
39 1 1.56594 9.20684 9.20883 
13 1 6.23399 4.52463 4.52813 
14 1 7.78019 2.9994 2.99785 
15 1 7.06493 3.70368 3.70789 
28 1 10.0884 0.676749 0.677007 
29 1 8.58347 2.18961 2.19236 
30 1 9.29449 1.48427 1.48167 
1 1 6.17509 4.58876 6.17575 
2 1 7.69371 3.08346 7.69313 
3 1 6.97809 3.78077 6.97957 
40 1 10.034 0.748324 10.0351 
41 1 8.49463 2.27015 8.49543 
42 1 9.20862 1.5654 9.20703 
7 1 6.17551 6.17625 4.58356 
8 1 7.69503 7.69524 3.08209 
9 1 6.98025 6.98014 3.77767 
43 1 10.0347 10.0348 0.750438 
44 1 8.49541 8.49502 2.27094 
45 1 9.20694 9.20928 1.56619 
22 1 6.22193 6.22313 6.19431 
23 1 7.85701 7.86452 7.80284 
24 1 7.08113 7.08616 7.0302 
34 1 10.095 10.0941 10.0957 
35 1 8.60843 8.60286 8.58034 
36 1 9.31405 9.32123 9.30882 
49 2 6.63013 6.5304 8.08779 
ITEM: TIMESTEP
20
ITEM: NUMBER OF ATOMS
49
ITEM: BOX BOUNDS pp pp pp
0.0000000000000000e+00 1.1000000000000000e+01
0.0000000000000000e+00 1.1002000000000001e+01
0.0000000000000000e+00 1.1000000000000000e+01
ITEM: ATOMS id type x y z 
10 1 4.59567 4.5952 4.59571 
11 1 3.08149 3.08122 3.08139 
12 1 3.78832 3.78835 3.78843 
46 1 0.735248 0.734188 0.734682 
47 1 2.26959 2.26881 2.26936 
48 1 1.56311 1.56222 1.5627 
19 1 4.53139 4.53186 6.23304 
20 1 3.0024 3.0021 7.77535 
21 1 3.70487 3.70482 7.0668 
31 1 0.673653 0.672339 10.097 
32 1 2.18886 2.18859 8.58764 
33 1 1.48042 1.48042 9.29276 
16 1 4.521 6.22878 4.52983 
17 1 3.0022 7.77775 3.00186 
18 1 3.70221 7.06555 3.70491 
25 1 0.675879 10.0982 0.673546 
26 1 2.18914 8.58799 2.18915 
27 1 1.48136 9.2939 1.48043 
4 1 4.59061 6.16745 6.16897 
5 1 3.08399 7.68851 7.68843 
6 1 3.78717 6.9789 6.97952 
37 1 0.752635 10.0417 10.041 
38 1 2.26754 8.49835 8.49752 
39 1 1.56869 9.20946 9.20942 
13 1 6.22887 4.52123 4.52917 
14 1 7.77765 3.00184 3.00176 
15 1 7.0648 3.70236 3.70454 
28 1 10.0975 0.674676 0.67315 
29 1 8.58784 2.1887 2.18957 
30 1 9.29278 1.48032 1.48071 
1 1 6.16785 4.59024 6.16948 
2 1 7.6887 3.08395 7.68843 
3 1 6.9787 3.78718 6.97962 
40 1 10.0402 0.752232 10.0414 
41 1 8.49829 2.26655 8.49881 
42 1 9.20858 1.56778 9.20769 
7 1 6.16965 6.16962 4.57977 
8 1 7.69101 7.69137 3.08163 
9 1 6.98087 6.98086 3.78171 
43 1 10.0414 10.0421 0.753681 
44 1 8.49934 8.49923 2.2665 
45 1 9.20934 9.21098 1.56736 
22 1 6.22933 6.22714 6.17559 
23 1 7.86568 7.87197 7.73845 
24 1 7.05701 7.06709 7.11415 
34 1 10.1113 10.1121 10.113 
35 1 8.61189 8.61171 8.58576 
36 1 9.32177 9.32011 9.30793 
49 2 6.6112 6.51197 8.07869 
ITEM: TIMESTEP
30
ITEM: NUMBER OF ATOMS
49
ITEM: BOX BOUNDS pp pp pp
0.0000000000000000e+00 1.1000000000000000e+01
0.0000000000000000e+00 1.1002000000000001e+01
0.0000000000000000e+00 1.1000000000000000e+01
ITEM: ATOMS id type x y z 
10 1 4.5945 4.59278 4.59451 
11 1 3.08251 3.08065 3.08164 
12 1 3.78805 3.79084 3.79035 
46 1 0.738995 0.73858 0.73744 
47 1 2.27313 2.27244 2.27227 
48 1 1.56453 1.56377 1.56527 
19 1 4.5351 4.53403 6.2373 
20 1 3.00007 2.99896 7.7771 
21 1 3.70619 3.70791 7.06599 
31 1 0.673609 0.674128 10.0964 
32 1 2.19012 2.18812 8.58748 
33 1 1.47845 1.48139 9.29315 
16 1 4.51124 6.22404 4.52943 
17 1 2.99897 7.78169 2.99795 
18 1 3.69811 7.06299 3.70513 
25 1 0.679427 10.0979 0.67411 
26 1 2.18838 8.58735 2.18836 
27 1 1.48319 9.29869 1.47999 
4 1 4.6101 6.16996 6.16583 
5 1 3.08762 7.68315 7.68413 
6 1 3.79312 6.97508 6.97444 
37 1 0.757303 10.0419 10.0408 
38 1 2.27243 8.49379 8.49373 
39 1 1.5734 9.20807 9.20688 
13 1 6.22333 4.51178 4.52822 
14 1 7.78033 2.99871 2.99629 
15 1 7.06475 3.69828 3.70775 
28 1 10.0987 0.679327 0.671466 
29 1 8.58884 2.18846 2.18983 
30 1 9.29406 1.48103 1.47831 
1 1 6.17009 4.60999 6.16603 
2 1 7.68253 3.0876 7.68372 
3 1 6.97511 3.79356 6.97407 
40 1 10.0419 0.755283 10.0421 
41 1 8.49653 2.26901 8.49594 
42 1 9.20734 1.57274 9.20845 
7 1 6.16886 6.17038 4.57974 
8 1 7.68997 7.69151 3.07833 
9 1 6.98088 6.97861 3.78049 
43 1 10.0434 10.0445 0.755884 
44 1 8.49714 8.49817 2.26853 
45 1 9.21249 9.21223 1.56993 
22 1 6.2387 6.2413 6.16266 
23 1 7.87693 7.89184 7.68508 
24 1 7.0156 7.01265 7.2029 
34 1 10.1136 10.1141 10.1162 
35 1 8.61532 8.61246 8.56193 
36 1 9.32113 9.32549 9.29649 
49 2 6.59296 6.49274 8.11787 
ITEM: TIMESTEP
40
ITEM: NUMBER OF ATOMS
49
ITEM: BOX BOUNDS pp pp pp
0.0000000000000000e+00 1.1000000000000000e+01
0.0000000000000000e+00 1.1002000000000001e+01
0.0000000000000000e+00 1.1000000000000000e+01
ITEM: ATOMS id type x y z 
10 1 4.59357 4.59363 4.60172 
11 1 3.08485 3.08366 3.08165 
12 1 3.78726 3.7886 3.79708 
46 1 0.740101 0.740787 0.735911 
47 1 2.26938 2.26988 2.27241 
48 1 1.56726 1.56444 1.56003 
19 1 4.54469 4.54224 6.24478 
20 1 3.00504 3.00373 7.77046 
21 1 3.71117 3.71294 7.06667 
31 1 0.669435 0.67164 10.0952 
32 1 2.18961 2.18827 8.58786 
33 1 1.47908 1.48105 9.29155 
16 1 4.51593 6.22479 4.52943 
17 1 3.00148 7.77739 3.00311 
18 1 3.6973 7.05671 3.70638 
25 1 0.6829 10.102 0.664538 
26 1 2.18985 8.58947 2.18447 
27 1 1.48094 9.30101 1.48316 
4 1 4.63097 6.17588 6.16467 
5 1 3.08929 7.67574 7.67732 
6 1 3.80671 6.9762 6.97385 
37 1 0.74601 10.0436 10.0368 
38 1 2.27391 8.49554 8.49586 
39 1 1.57421 9.20567 9.20493 
13 1 6.2304 4.51668 4.53643 
14 1 7.78295 3.00044 3.00892 
15 1 7.04727 3.69757 3.69525 
28 1 10.1 0.677731 0.664362 
29 1 8.58802 2.18475 2.18801 
30 1 9.30157 1.48825 1.47603 
1 1 6.17586 4.63448 6.16536 
2 1 7.67634 3.0905 7.67766 
3 1 6.97546 3.8041 6.97314 
40 1 10.0426 0.745073 10.0389 
41 1 8.49686 2.27307 8.49949 
42 1 9.20616 1.56986 9.20282 
7 1 6.16896 6.17095 4.5857 
8 1 7.68633 7.68615 3.07607 
9 1 6.97768 6.97865 3.7804 
43 1 10.0445 10.0444 0.742428 
44 1 8.50628 8.50464 2.26679 
45 1 9.2115 9.21619 1.56394 
22 1 6.2492 6.25449 6.1705 
23 1 7.86547 7.88131 7.64127 
24 1 6.98028 6.9643 7.28991 
34 1 10.1032 10.1012 10.1045 
35 1 8.63326 8.63547 8.5201 
36 1 9.32287 9.33409 9.26788 
49 2 6.565 6.46087 8.19231 
ITEM: TIMESTEP
50
ITEM: NUMBER OF ATOMS
49
ITEM: BOX BOUNDS pp pp pp
0.0000000000000000e+00 1.1000000000000000e+01
0.0000000000000000e+00 1.1002000000000001e+01
0.0000000000000000e+00 1.1000000000000000e+01
ITEM: ATOMS id type x y z 
10 1 4.59487 4.59385 4.60612 
11 1 3.08377 3.08339 3.08404 
12 1 3.78943 3.78882 3.79518 
46 1 0.739626 0.7389 0.732234 
47 1 2.27179 2.2715 2.27255 
48 1 1.56685 1.5657 1.56264 
19 1 4.54561 4.54484 6.24506 
20 1 3.00379 3.00378 7.77086 
21 1 3.71332 3.71278 7.06891 
31 1 0.670347 0.67112 10.0929 
32 1 2.18983 2.19112 8.58642 
33 1 1.48224 1.47922 9.28905 
16 1 4.51904 6.2222 4.52994 
17 1 2.99824 7.77597 3.00186 
18 1 3.69918 7.05991 3.7061 
25 1 0.6807 10.1033 0.66411 
26 1 2.18923 8.59129 2.18838 
27 1 1.48423 9.29763 1.47712 
4 1 4.63766 6.17932 6.16605 
5 1 3.08835 7.67573 7.67865 
6 1 3.80919 6.97994 6.97476 
37 1 0.746692 10.0411 10.0348 
38 1 2.27478 8.49531 8.49629 
39 1 1.57303 9.2055 9.20342 
13 1 6.22456 4.52131 4.53287 
14 1 7.7787 2.99836 3.00481 
15 1 7.05343 3.69736 3.70111 
28 1 10.1012 0.678993 0.664127 
29 1 8.59037 2.18817 2.18865 
30 1 9.29816 1.48515 1.47693 
1 1 6.18006 4.63987 6.16662 
2 1 7.67593 3.08872 7.67849 
3 1 6.97935 3.80895 6.97472 
40 1 10.0395 0.744952 10.0344 
41 1 8.49478 2.27482 8.49635 
42 1 9.20445 1.57196 9.20281 
7 1 6.17206 6.17355 4.59186 
8 1 7.68706 7.68723 3.07211 
9 1 6.98064 6.98084 3.78057 
43 1 10.0437 10.0447 0.739752 
44 1 8.50484 8.50508 2.26755 
45 1 9.21277 9.21406 1.56426 
22 1 6.2526 6.25854 6.17997 
23 1 7.86266 7.87901 7.64363 
24 1 6.97353 6.95452 7.30787 
34 1 10.1038 10.1038 10.1021 
35 1 8.62939 8.63763 8.49022 
36 1 9.3195 9.32172 9.25185 
49 2 6.55411 6.4485 8.2169 
ITEM: TIMESTEP
60
ITEM: NUMBER OF ATOMS
49
ITEM: BOX BOUNDS pp pp pp
0.0000000000000000e+00 1.1000000000000000e+01
0.0000000000000000e+00 1.1002000000000001e+01
0.0000000000000000e+00 1.1000000000000000e+01
ITEM: ATOMS id type x y z 
10 1 4.59519 4.59425 4.60722 
11 1 3.08385 3.08341 3.08486 
12 1 3.78971 3.78894 3.7957 
46 1 0.739302 0.738547 0.730702 
47 1 2.27158 2.27105 2.27174 
48 1 1.56607 1.56549 1.5623 
19 1 4.54722 4.54611 6.24607 
20 1 3.0048 3.00474 7.77047 
21 1 3.71453 3.71397 7.06908 
31 1 0.670192 0.670054 10.0915 
32 1 2.19081 2.19073 8.58552 
33 1 1.48124 1.4809 9.28833 
16 1 4.52182 6.22384 4.5305 
17 1 2.99806 7.77483 3.0024 
18 1 3.70011 7.06004 3.70666 
25 1 0.680254 10.1027 0.663573 
26 1 2.18909 8.5916 2.18864 
27 1 1.48467 9.29724 1.47626 
4 1 4.63884 6.18128 6.16637 
5 1 3.08894 7.67641 7.67917 
6 1 3.81003 6.98066 6.97544 
37 1 0.745029 10.0406 10.0339 
38 1 2.27463 8.49546 8.49654 
39 1 1.57218 9.20535 9.20292 
13 1 6.22405 4.52334 4.53143 
14 1 7.7745 2.99786 3.00309 
15 1 7.05835 3.69939 3.70616 
28 1 10.1012 0.67916 0.662985 
29 1 8.59143 2.1889 2.18896 
30 1 9.2967 1.48421 1.47631 
1 1 6.18148 4.6411 6.16676 
2 1 7.67605 3.08906 7.67877 
3 1 6.98078 3.81096 6.97532 
40 1 10.0393 0.743301 10.0337 
41 1 8.49485 2.27466 8.49647 
42 1 9.20444 1.57097 9.20268 
7 1 6.17426 6.17578 4.5951 
8 1 7.68712 7.68716 3.07084 
9 1 6.98151 6.982 3.78159 
43 1 10.0431 10.0443 0.736953 
44 1 8.50521 8.50577 2.26722 
45 1 9.21333 9.214 1.56284 
22 1 6.25313 6.25798 6.18346 
23 1 7.85939 7.8741 7.64468 
24 1 6.96897 6.94862 7.31901 
34 1 10.1009 10.1001 10.0985 
35 1 8.63039 8.64027 8.48099 
36 1 9.32107 9.32575 9.24133 
49 2 6.54939 6.44315 8.22699 
ITEM: TIMESTEP
70
ITEM: NUMBER OF ATOMS
49
ITEM: BOX BOUNDS pp pp pp
0.0000000000000000e+00 1.1000000000000000e+01
0.0000000000000000e+00 1.1002000000000001e+01
0.0000000000000000e+00 1.1000000000000000e+01
ITEM: ATOMS id type x y z 
10 1 4.59533 4.59433 4.60728 
11 1 3.08394 3.0834 3.08488 
12 1 3.78951 3.78893 3.79593 
46 1 0.739167 0.738464 0.730515 
47 1 2.27154 2.27103 2.27171 
48 1 1.56605 1.56544 1.56214 
19 1 4.54746 4.54631 6.24616 
20 1 3.00496 3.00489 7.77045 
21 1 3.71468 3.71413 7.06909 
31 1 0.67014 0.670067 10.0913 
32 1 2.19089 2.19069 8.58543 
33 1 1.48118 1.48107 9.28818 
16 1 4.52221 6.22405 4.53062 
17 1 2.99798 7.77466 3.00249 
18 1 3.70033 7.06011 3.70668 
25 1 0.680177 10.1026 0.663469 
26 1 2.18919 8.59159 2.1886 
27 1 1.48455 9.29721 1.47633 
4 1 4.63896 6.18145 6.16648 
5 1 3.08902 7.67639 7.67933 
6 1 3.81019 6.98102 6.97538 
37 1 0.744814 10.0405 10.0338 
38 1 2.27482 8.49537 8.49647 
39 1 1.57185 9.20535 9.20286 
13 1 6.22405 4.52357 4.53139 
14 1 7.77399 2.99763 3.00295 
15 1 7.05905 3.69994 3.70665 
28 1 10.1012 0.679154 0.662773 
29 1 8.59155 2.18899 2.18892 
30 1 9.29644 1.48406 1.47634 
1 1 6.1817 4.64125 6.16677 
2 1 7.67611 3.08918 7.67883 
3 1 6.98098 3.81114 6.97542 
40 1 10.0392 0.742976 10.0336 
41 1 8.49494 2.2745 8.4965 
42 1 9.2044 1.57096 9.20272 
7 1 6.17461 6.17607 4.59551 
8 1 7.68712 7.68706 3.07065 
9 1 6.98166 6.98235 3.7818 
43 1 10.0431 10.0442 0.736498 
44 1 8.50548 8.50599 2.26708 
45 1 9.2132 9.21396 1.56254 
22 1 6.2533 6.25798 6.18405 
23 1 7.85879 7.87344 7.64498 
24 1 6.96821 6.94761 7.32076 
34 1 10.1005 10.0998 10.098 
35 1 8.63079 8.64069 8.47934 
36 1 9.32119 9.32616 9.23975 
49 2 6.54862 6.44228 8.22866 
ITEM: TIMESTEP
80
ITEM: NUMBER OF ATOMS
49
ITEM: BOX BOUNDS pp pp pp
0.0000000000000000e+00 1.1000000000000000e+01
0.0000000000000000e+00 1.1002000000000001e+01
0.0000000000000000e+00 1.1000000000000000e+01
ITEM: ATOMS id type x y z 
10 1 4.59748 4.59827 4.61588 
11 1 3.07914 3.07991 3.09438 
12 1 3.79627 3.7927 3.78513 
46 1 0.735344 0.735519 0.722972 
47 1 2.26862 2.26814 2.26868 
48 1 1.56448 1.56431 1.55855 
19 1 4.55403 4.55301 6.24837 
20 1 3.01025 3.00964 7.77016 
21 1 3.72041 3.72011 7.07059 
31 1 0.670609 0.67026 10.086 
32 1 2.19253 2.19244 8.58129 
33 1 1.48232 1.48243 9.28245 
16 1 4.53925 6.23209 4.53468 
17 1 2.99771 7.77058 3.00578 
18 1 3.70383 7.05903 3.70841 
25 1 0.676068 10.1025 0.660756 
26 1 2.18931 8.5913 2.19058 
27 1 1.48716 9.29436 1.47289 
4 1 4.64527 6.19088 6.16759 
5 1 3.09144 7.67966 7.68318 
6 1 3.81775 6.98932 6.9786 
37 1 0.735707 10.0377 10.028 
38 1 2.27546 8.49667 8.49794 
39 1 1.56478 9.20198 9.19888 
13 1 6.22772 4.53725 4.5341 
14 1 7.76024 2.99357 3.00255 
15 1 7.07737 3.71406 3.71598 
28 1 10.0997 0.676389 0.659919 
29 1 8.58926 2.1895 2.18916 
30 1 9.29431 1.48467 1.47662 
1 1 6.19067 4.64888 6.16676 
2 1 7.67942 3.09446 7.68311 
3 1 6.98797 3.81725 6.97716 
40 1 10.0356 0.735365 10.0282 
41 1 8.49463 2.27544 8.49724 
42 1 9.20232 1.56397 9.19702 
7 1 6.18773 6.18926 4.61531 
8 1 7.68843 7.68848 3.06454 
9 1 6.98859 6.98891 3.78636 
43 1 10.0393 10.0403 0.716623 
44 1 8.50835 8.50867 2.26294 
45 1 9.21464 9.21622 1.5548 
22 1 6.25894 6.25855 6.20675 
23 1 7.83544 7.84786 7.65642 
24 1 6.93653 6.90687 7.38791 
34 1 10.0909 10.0929 10.0725 
35 1 8.64657 8.66207 8.40361 
36 1 9.32101 9.32836 9.19512 
49 2 6.51819 6.4079 8.29554 
ITEM: TIMESTEP
90
ITEM: NUMBER OF ATOMS
49
ITEM: BOX BOUNDS pp pp pp
0.0000000000000000e+00 1.1000000000000000e+01
0.0000000000000000e+00 1.1002000000000001e+01
0.0000000000000000e+00 1.1000000000000000e+01
ITEM: ATOMS id type x y z 
10 1 4.60128 4.60083 4.60911 
11 1 3.0835 3.08266 3.08944 
12 1 3.79084 3.79011 3.7965 
46 1 0.734891 0.735479 0.722644 
47 1 2.2685 2.26865 2.26973 
48 1 1.56493 1.56394 1.55886 
19 1 4.55293 4.55397 6.24528 
20 1 3.01205 3.01118 7.77054 
21 1 3.72067 3.72089 7.06942 
31 1 0.670478 0.670139 10.0861 
32 1 2.19314 2.19262 8.5802 
33 1 1.48221 1.48295 9.28214 
16 1 4.53902 6.23129 4.53434 
17 1 2.99756 7.76944 3.00586 
18 1 3.70642 7.0608 3.70935 
25 1 0.676138 10.1014 0.659272 
26 1 2.18968 8.59069 2.18822 
27 1 1.48416 9.29482 1.47601 
4 1 4.64828 6.19035 6.16797 
5 1 3.0942 7.68105 7.68306 
6 1 3.81723 6.98833 6.9788 
37 1 0.734039 10.0375 10.0267 
38 1 2.27387 8.49528 8.49701 
39 1 1.56597 9.20416 9.20022 
13 1 6.23376 4.54192 4.53521 
14 1 7.76806 2.99731 3.00495 
15 1 7.06616 3.70935 3.71154 
28 1 10.0994 0.675756 0.660447 
29 1 8.58876 2.1884 2.18834 
30 1 9.29295 1.48295 1.47584 
1 1 6.19016 4.64905 6.1672 
2 1 7.6813 3.09582 7.68299 
3 1 6.98744 3.81782 6.97859 
40 1 10.0359 0.733648 10.0265 
41 1 8.49435 2.2737 8.49608 
42 1 9.20281 1.56581 9.19931 
7 1 6.19037 6.19196 4.61805 
8 1 7.6894 7.68892 3.06414 
9 1 6.99044 6.99123 3.78867 
43 1 10.0392 10.0405 0.715358 
44 1 8.50934 8.50994 2.26199 
45 1 9.2134 9.21515 1.55075 
22 1 6.25804 6.26026 6.20989 
23 1 7.83111 7.84202 7.65803 
24 1 6.93107 6.90056 7.399 
34 1 10.0894 10.0914 10.07 
35 1 8.64715 8.66368 8.39584 
36 1 9.32282 9.33121 9.18455 
49 2 6.51423 6.40315 8.30804 
ITEM: TIMESTEP
100
ITEM: NUMBER OF ATOMS
49
ITEM: BOX BOUNDS pp pp pp
0.0000000000000000e+00 1.1000000000000000e+01
0.0000000000000000e+00 1.1002000000000001e+01
0.0000000000000000e+00 1.1000000000000000e+01
ITEM: ATOMS id type x y z 
10 1 4.60166 4.60106 4.60907 
11 1 3.08359 3.08277 3.08974 
12 1 3.79091 3.79014 3.7965 
46 1 0.734981 0.735249 0.722584 
47 1 2.26875 2.26857 2.2697 
48 1 1.56466 1.56422 1.55895 
19 1 4.5531 4.55396 6.24436 
20 1 3.01228 3.01156 7.77092 
21 1 3.7209 3.72091 7.06861 
31 1 0.670202 0.670489 10.0863 
32 1 2.19295 2.19291 8.58005 
33 1 1.48293 1.48274 9.28191 
16 1 4.53943 6.23112 4.53407 
17 1 2.99743 7.76916 3.00593 
18 1 3.707 7.06151 3.70919 
25 1 0.676287 10.1013 0.659479 
26 1 2.18947 8.59042 2.1882 
27 1 1.48418 9.29501 1.47593 
4 1 4.64806 6.19047 6.16828 
5 1 3.09479 7.6814 7.68314 
6 1 3.81707 6.98794 6.97862 
37 1 0.733793 10.0376 10.0266 
38 1 2.27376 8.49525 8.49705 
39 1 1.566 9.20424 9.20011 
13 1 6.23461 4.54263 4.53549 
14 1 7.76931 2.99805 3.00585 
15 1 7.0638 3.70874 3.7102 
28 1 10.0997 0.675718 0.660131 
29 1 8.58854 2.18826 2.18839 
30 1 9.29282 1.483 1.4758 
1 1 6.18976 4.64872 6.1676 
2 1 7.68111 3.09612 7.68307 
3 1 6.9879 3.81825 6.97818 
40 1 10.0361 0.733473 10.0264 
41 1 8.49448 2.27356 8.49622 
42 1 9.20295 1.56564 9.19943 
7 1 6.19078 6.1925 4.61885 
8 1 7.68967 7.68932 3.06438 
9 1 6.9909 6.99152 3.78884 
43 1 10.0389 10.0404 0.714776 
44 1 8.50918 8.51001 2.26188 
45 1 9.21321 9.21447 1.55001 
22 1 6.2583 6.26046 6.2109 
23 1 7.83053 7.8412 7.65918 
24 1 6.92956 6.8988 7.40136 
34 1 10.0886 10.0906 10.0697 
35 1 8.64657 8.66289 8.39514 
36 1 9.32423 9.33348 9.17986 
49 2 6.51342 6.40216 8.31111 
ITEM: TIMESTEP
110
ITEM: NUMBER OF ATOMS
49
ITEM: BOX BOUNDS pp pp pp
0.0000000000000000e+00 1.1000000000000000e+01
0.0000000000000000e+00 1.1002000000000001e+01
0.0000000000000000e+00 1.1000000000000000e+01
ITEM: ATOMS id type x y z 
10 1 4.60208 4.60143 4.60851 
11 1 3.08374 3.0829 3.0897 
12 1 3.79079 3.79004 3.79696 
46 1 0.735046 0.735096 0.72255 
47 1 2.26894 2.2686 2.26965 
48 1 1.56444 1.56429 1.55909 
19 1 4.55303 4.55374 6.24367 
20 1 3.0124 3.01171 7.77101 
21 1 3.72097 3.72096 7.06857 
31 1 0.670376 0.670473 10.0862 
32 1 2.19301 2.19286 8.57974 
33 1 1.4831 1.48306 9.28212 
16 1 4.53996 6.23128 4.53396 
17 1 2.99749 7.76919 3.00602 
18 1 3.70723 7.06154 3.70908 
25 1 0.676142 10.1015 0.659643 
26 1 2.18937 8.59042 2.18825 
27 1 1.48405 9.29473 1.47576 
4 1 4.64804 6.19064 6.16831 
5 1 3.09503 7.68152 7.6832 
6 1 3.81723 6.98805 6.97862 
37 1 0.73363 10.0376 10.0266 
38 1 2.27371 8.49532 8.4971 
39 1 1.56595 9.20414 9.19999 
13 1 6.23477 4.54293 4.53535 
14 1 7.76961 2.99829 3.00623 
15 1 7.06319 3.70884 3.70973 
28 1 10.0997 0.675414 0.660066 
29 1 8.58833 2.18817 2.18833 
30 1 9.29287 1.48299 1.47592 
1 1 6.18998 4.64884 6.16768 
2 1 7.68132 3.09638 7.68301 
3 1 6.98776 3.81835 6.97831 
40 1 10.0361 0.733326 10.0263 
41 1 8.49445 2.27354 8.4962 
42 1 9.20291 1.56574 9.1994 
7 1 6.19108 6.1929 4.61956 
8 1 7.68985 7.68951 3.06446 
9 1 6.99125 6.99193 3.78931 
43 1 10.0388 10.0403 0.714134 
44 1 8.50917 8.51005 2.26155 
45 1 9.21327 9.21441 1.54939 
22 1 6.25827 6.26046 6.21163 
23 1 7.82979 7.84028 7.66001 
24 1 6.92832 6.89738 7.40312 
34 1 10.0888 10.0907 10.0681 
35 1 8.64713 8.66352 8.39295 
36 1 9.32372 9.3332 9.17933 
49 2 6.51279 6.40139 8.31356 
ITEM: TIMESTEP
120
ITEM: NUMBER OF ATOMS
49
ITEM: BOX BOUNDS pp pp pp
0.0000000000000000e+00 1.1000000000000000e+01
0.0000000000000000e+00 1.1002000000000001e+01
0.0000000000000000e+00 1.1000000000000000e+01
ITEM: ATOMS id type x y z 
10 1 4.60209 4.60145 4.60849 
11 1 3.08374 3.0829 3.08971 
12 1 3.7908 3.79004 3.79696 
46 1 0.735042 0.73509 0.722555 
47 1 2.26894 2.26861 2.26965 
48 1 1.56444 1.56428 1.55909 
19 1 4.55303 4.55374 6.24364 
20 1 3.01242 3.01175 7.77102 
21 1 3.72097 3.72094 7.06855 
31 1 0.670398 0.670494 10.0863 
32 1 2.19301 2.19286 8.57973 
33 1 1.48311 1.48306 9.28212 
16 1 4.54 6.2313 4.53395 
17 1 2.99749 7.76919 3.00602 
18 1 3.70725 7.06155 3.70908 
25 1 0.67611 10.1015 0.659656 
26 1 2.18937 8.59042 2.18825 
27 1 1.48404 9.29472 1.47577 
4 1 4.64803 6.19062 6.16831 
5 1 3.09502 7.68151 7.6832 
6 1 3.8173 6.9881 6.97863 
37 1 0.733627 10.0377 10.0266 
38 1 2.27372 8.49532 8.4971 
39 1 1.56594 9.20412 9.19999 
13 1 6.23472 4.54292 4.53531 
14 1 7.76955 2.99826 3.00621 
15 1 7.0633 3.70893 3.70977 
28 1 10.0997 0.675381 0.660072 
29 1 8.58832 2.18817 2.18832 
30 1 9.29287 1.48298 1.47592 
1 1 6.18997 4.64885 6.16769 
2 1 7.68133 3.09639 7.68301 
3 1 6.98777 3.81836 6.97831 
40 1 10.0361 0.733325 10.0263 
41 1 8.49445 2.27355 8.4962 
42 1 9.2029 1.56574 9.19938 
7 1 6.19111 6.19294 4.61961 
8 1 7.68986 7.68952 3.06448 
9 1 6.99127 6.99195 3.78934 
43 1 10.0388 10.0403 0.714108 
44 1 8.50921 8.51008 2.26153 
45 1 9.21324 9.2144 1.54929 
22 1 6.25826 6.26045 6.21168 
23 1 7.82973 7.8402 7.66006 
24 1 6.92824 6.89729 7.40326 
34 1 10.0888 10.0907 10.0681 
35 1 8.64714 8.66349 8.3929 
36 1 9.32376 9.33331 9.17912 
49 2 6.51275 6.40134 8.31373 
ITEM: TIMESTEP
130
ITEM: NUMBER OF ATOMS
49
ITEM: BOX BOUNDS pp pp pp
0.0000000000000000e+00 1.1000000000000000e+01
0.0000000000000000e+00 1.1002000000000001e+01
0.0000000000000000e+00 1.1000000000000000e+01
ITEM: ATOMS id type x y z 
10 1 4.60915 4.60716 4.59919 
11 1 3.08403 3.08279 3.09366 
12 1 3.7923 3.79183 3.79619 
46 1 0.734288 0.732632 0.72334 
47 1 2.26974 2.26905 2.26937 
48 1 1.56442 1.56435 1.55949 
19 1 4.55212 4.55061 6.2317 
20 1 3.01595 3.01615 7.77361 
21 1 3.72379 3.72308 7.06379 
31 1 0.67294 0.672697 10.0876 
32 1 2.19277 2.19472 8.57575 
33 1 1.48888 1.48419 9.28295 
16 1 4.5535 6.23867 4.53167 
17 1 2.9994 7.76869 3.00728 
18 1 3.71332 7.06463 3.70788 
25 1 0.671094 10.1017 0.660106 
26 1 2.18677 8.58735 2.18753 
27 1 1.48169 9.29275 1.47598 
4 1 4.65182 6.19318 6.16791 
5 1 3.10402 7.68778 7.68646 
6 1 3.81378 6.98689 6.97678 
37 1 0.72987 10.0389 10.0241 
38 1 2.27296 8.49611 8.49788 
39 1 1.56436 9.20383 9.19857 
13 1 6.22851 4.54565 4.52894 
14 1 7.76145 2.99375 3.00836 
15 1 7.0787 3.72842 3.70915 
28 1 10.1005 0.669849 0.659724 
29 1 8.58594 2.18626 2.18767 
30 1 9.29059 1.48055 1.47624 
1 1 6.18809 4.6502 6.16865 
2 1 7.68272 3.09938 7.68448 
3 1 6.9944 3.82509 6.97798 
40 1 10.0368 0.730713 10.0242 
41 1 8.49397 2.27439 8.49654 
42 1 9.20256 1.56525 9.1979 
7 1 6.20038 6.20413 4.63717 
8 1 7.69462 7.69537 3.0684 
9 1 6.99954 7.00037 3.79907 
43 1 10.0358 10.0365 0.695457 
44 1 8.50908 8.50961 2.2517 
45 1 9.21378 9.21437 1.53658 
22 1 6.25533 6.25843 6.22828 
23 1 7.808 7.81389 7.68073 
24 1 6.90028 6.86452 7.4518 
34 1 10.0883 10.0913 10.039 
35 1 8.6537 8.67442 8.34931 
36 1 9.32527 9.33488 9.14598 
49 2 6.49767 6.38295 8.37583 
ITEM: TIMESTEP
140
ITEM: NUMBER OF ATOMS
49
ITEM: BOX BOUNDS pp pp pp
0.0000000000000000e+00 1.1000000000000000e+01
0.0000000000000000e+00 1.1002000000000001e+01
0.0000000000000000e+00 1.1000000000000000e+01
ITEM: ATOMS id type x y z 
10 1 4.60995 4.60854 4.59697 
11 1 3.08252 3.0817 3.09433 
12 1 3.79339 3.79229 3.79363 
46 1 0.733505 0.732396 0.723448 
47 1 2.26934 2.26908 2.26903 
48 1 1.5647 1.56359 1.55997 
19 1 4.5524 4.55093 6.23039 
20 1 3.01774 3.018 7.77296 
21 1 3.7236 3.72305 7.06347 
31 1 0.674919 0.673524 10.0888 
32 1 2.19514 2.19486 8.57611 
33 1 1.48673 1.48596 9.28094 
16 1 4.55789 6.243 4.53175 
17 1 2.99918 7.76866 3.00657 
18 1 3.71607 7.067 3.70802 
25 1 0.669254 10.1006 0.660539 
26 1 2.18615 8.5867 2.18709 
27 1 1.47985 9.29161 1.4763 
4 1 4.64899 6.19064 6.16614 
5 1 3.10291 7.68732 7.68569 
6 1 3.81964 6.99064 6.97869 
37 1 0.729079 10.0388 10.0223 
38 1 2.27395 8.49531 8.49758 
39 1 1.56408 9.20459 9.19813 
13 1 6.23343 4.55309 4.53037 
14 1 7.76357 2.99511 3.00743 
15 1 7.07859 3.72832 3.70825 
28 1 10.0992 0.668223 0.659407 
29 1 8.58491 2.18491 2.18749 
30 1 9.28976 1.47907 1.47636 
1 1 6.18944 4.65189 6.16677 
2 1 7.68594 3.10309 7.68389 
3 1 6.99051 3.82285 6.97891 
40 1 10.0372 0.730179 10.0229 
41 1 8.49411 2.27445 8.49691 
42 1 9.20292 1.56495 9.19788 
7 1 6.20428 6.20697 4.6419 
8 1 7.69675 7.69738 3.0701 
9 1 7.00195 7.00353 3.80197 
43 1 10.0349 10.0358 0.690064 
44 1 8.51026 8.51053 2.24891 
45 1 9.21149 9.21218 1.53133 
22 1 6.25569 6.2577 6.23564 
23 1 7.80174 7.80674 7.68908 
24 1 6.89184 6.85443 7.46644 
34 1 10.0873 10.0908 10.0331 
35 1 8.6532 8.67321 8.33768 
36 1 9.32542 9.33781 9.13092 
49 2 6.49362 6.37794 8.39548 
ITEM: TIMESTEP
150
ITEM: NUMBER OF ATOMS
49
ITEM: BOX BOUNDS pp pp pp
0.0000000000000000e+00 1.1000000000000000e+01
0.0000000000000000e+00 1.1002000000000001e+01
0.0000000000000000e+00 1.1000000000000000e+01
ITEM: ATOMS id type x y z 
10 1 4.61041 4.60971 4.59684 
11 1 3.08247 3.08152 3.09381 
12 1 3.7935 3.79287 3.79266 
46 1 0.732596 0.731645 0.723017 
47 1 2.26843 2.26808 2.26865 
48 1 1.56384 1.56287 1.55963 
19 1 4.55236 4.55228 6.23046 
20 1 3.01779 3.0177 7.77248 
21 1 3.7233 3.72327 7.06326 
31 1 0.675014 0.673851 10.0892 
32 1 2.19534 2.19514 8.57674 
33 1 1.48684 1.48592 9.28117 
16 1 4.55884 6.24419 4.53288 
17 1 2.99961 7.76888 3.00613 
18 1 3.71661 7.06781 3.70819 
25 1 0.668193 10.0998 0.659737 
26 1 2.18551 8.5867 2.18701 
27 1 1.4792 9.29129 1.47594 
4 1 4.64843 6.1904 6.16612 
5 1 3.10282 7.68672 7.68497 
6 1 3.82089 6.99081 6.97877 
37 1 0.729124 10.0391 10.0214 
38 1 2.27454 8.49548 8.4977 
39 1 1.56427 9.20473 9.19786 
13 1 6.24077 4.5598 4.53225 
14 1 7.76825 2.99967 3.00654 
15 1 7.07201 3.7218 3.70802 
28 1 10.0977 0.667597 0.659107 
29 1 8.58409 2.18348 2.18705 
30 1 9.29063 1.47846 1.47674 
1 1 6.18938 4.65091 6.16603 
2 1 7.68577 3.10362 7.68381 
3 1 6.99033 3.82274 6.97835 
40 1 10.0376 0.730321 10.022 
41 1 8.49414 2.27508 8.49685 
42 1 9.20311 1.56524 9.19756 
7 1 6.20576 6.20789 4.64269 
8 1 7.69746 7.69826 3.07096 
9 1 7.00303 7.00414 3.80277 
43 1 10.034 10.0351 0.688342 
44 1 8.50999 8.51025 2.24823 
45 1 9.21101 9.21176 1.53031 
22 1 6.25559 6.25725 6.23838 
23 1 7.79998 7.80516 7.69163 
24 1 6.89075 6.85309 7.46848 
34 1 10.0871 10.0908 10.0311 
35 1 8.65223 8.67185 8.33695 
36 1 9.32436 9.33655 9.13052 
49 2 6.49408 6.37836 8.39883 
ITEM: TIMESTEP
160
ITEM: NUMBER OF ATOMS
49
ITEM: BOX BOUNDS pp pp pp
0.0000000000000000e+00 1.1000000000000000e+01
0.0000000000000000e+00 1.1002000000000001e+01
0.0000000000000000e+00 1.1000000000000000e+01
ITEM: ATOMS id type x y z 
10 1 4.61071 4.61015 4.59669 
11 1 3.08265 3.08174 3.09367 
12 1 3.7935 3.7928 3.79287 
46 1 0.732507 0.731476 0.723092 
47 1 2.26847 2.26799 2.26881 
48 1 1.56376 1.56302 1.55963 
19 1 4.55219 4.55223 6.23005 
20 1 3.01782 3.01772 7.77231 
21 1 3.72329 3.72327 7.0633 
31 1 0.674937 0.673729 10.089 
32 1 2.1954 2.19509 8.5767 
33 1 1.48691 1.48618 9.2814 
16 1 4.5589 6.24411 4.53289 
17 1 2.99977 7.76894 3.00616 
18 1 3.71666 7.06782 3.70815 
25 1 0.668102 10.0996 0.659538 
26 1 2.18545 8.58675 2.187 
27 1 1.47902 9.29109 1.47586 
4 1 4.64841 6.19033 6.16607 
5 1 3.10263 7.68663 7.68495 
6 1 3.82117 6.9911 6.97891 
37 1 0.729028 10.0391 10.0212 
38 1 2.27456 8.49551 8.49775 
39 1 1.56441 9.2048 9.19779 
13 1 6.2414 4.56022 4.53216 
14 1 7.76872 3.00034 3.00658 
15 1 7.07109 3.72103 3.70799 
28 1 10.0981 0.667672 0.659249 
29 1 8.58473 2.18368 2.18748 
30 1 9.2893 1.47787 1.47598 
1 1 6.18941 4.6509 6.16597 
2 1 7.6858 3.10359 7.68382 
3 1 6.99036 3.82274 6.97839 
40 1 10.0376 0.730263 10.0218 
41 1 8.49416 2.27513 8.4969 
42 1 9.20324 1.56531 9.19752 
7 1 6.20606 6.2081 4.64297 
8 1 7.69769 7.69837 3.07102 
9 1 7.00313 7.00445 3.80299 
43 1 10.0337 10.0349 0.687951 
44 1 8.50991 8.5102 2.24802 
45 1 9.21104 9.21176 1.53022 
22 1 6.25549 6.25716 6.23867 
23 1 7.79974 7.80491 7.69199 
24 1 6.89046 6.85277 7.46893 
34 1 10.087 10.0908 10.0308 
35 1 8.6521 8.67167 8.337 
36 1 9.32431 9.33649 9.13037 
49 2 6.49413 6.3784 8.3995 
ITEM: TIMESTEP
170
ITEM: NUMBER OF ATOMS
49
ITEM: BOX BOUNDS pp pp pp
0.0000000000000000e+00 1.1000000000000000e+01
0.0000000000000000e+00 1.1002000000000001e+01
0.0000000000000000e+00 1.1000000000000000e+01
ITEM: ATOMS id type x y z 
10 1 4.61072 4.61018 4.59668 
11 1 3.08266 3.08176 3.09367 
12 1 3.79352 3.7928 3.79288 
46 1 0.732496 0.731466 0.723095 
47 1 2.26847 2.26799 2.26882 
48 1 1.56376 1.56302 1.55963 
19 1 4.55219 4.55224 6.23004 
20 1 3.01783 3.01774 7.77233 
21 1 3.72327 3.72324 7.06324 
31 1 0.67494 0.673737 10.089 
32 1 2.19541 2.1951 8.57671 
33 1 1.4869 1.48617 9.28138 
16 1 4.5589 6.24411 4.53289 
17 1 2.99978 7.76895 3.00615 
18 1 3.71667 7.06782 3.70816 
25 1 0.668088 10.0996 0.659528 
26 1 2.18545 8.58676 2.187 
27 1 1.47901 9.29109 1.47586 
4 1 4.64841 6.19033 6.16608 
5 1 3.10263 7.68664 7.68495 
6 1 3.82116 6.9911 6.97892 
37 1 0.729032 10.0391 10.0212 
38 1 2.27458 8.49551 8.49774 
39 1 1.5644 9.20479 9.19778 
13 1 6.24145 4.56025 4.53215 
14 1 7.76877 3.00039 3.00657 
15 1 7.07101 3.72098 3.70799 
28 1 10.0981 0.667655 0.659237 
29 1 8.58472 2.18367 2.18748 
30 1 9.2893 1.47786 1.47598 
1 1 6.18941 4.65089 6.16597 
2 1 7.68581 3.1036 7.68383 
3 1 6.99035 3.82272 6.97839 
40 1 10.0376 0.730251 10.0218 
41 1 8.49415 2.27512 8.49691 
42 1 9.20327 1.56534 9.19751 
7 1 6.20608 6.20812 4.64298 
8 1 7.6977 7.69838 3.07103 
9 1 7.00314 7.00446 3.80299 
43 1 10.0337 10.0349 0.68793 
44 1 8.50991 8.5102 2.24801 
45 1 9.21104 9.21175 1.5302 
22 1 6.25549 6.25716 6.23869 
23 1 7.79973 7.80489 7.69202 