LAMMPS (3 Mar 2020)
# Alpha
clear
units		real
dimension 3
boundary        p p p
atom_style	charge
newton on
read_data       OH_12.lmp
  orthogonal box = (0 0 0) to (11 11.002 11)
  2 by 2 by 2 MPI processor grid
  reading atoms ...
  50 atoms
  read_data CPU = 0.0140676 secs

timestep 0.25

# ---------- Define Interatomic Potential ---------------------
pair_style      reax/c NULL checkqeq no
pair_coeff      * * ffield.reax C H O
fix             2 all qeq/reax 1 0.0 10.0 1.0e-6 reax/c

#------------ Equilibration of the system -------------------------
reset_timestep 0

dump 1 all custom 10 min.lammpstrj id type x y z

minimize 1.0e-8 1.0e-8 100000 100000
WARNING: Using 'neigh_modify every 1 delay 0 check yes' setting during minimization (../min.cpp:190)
WARNING: Total cutoff < 2*bond cutoff. May need to use an increased neighbor list skin. (../pair_reaxc.cpp:413)
Neighbor list info ...
  update every 1 steps, delay 0 steps, check yes
  max neighbors/atom: 2000, page size: 100000
  master list distance cutoff = 9.5
  ghost atom cutoff = 9.5
  binsize = 4.75, bins = 3 3 3
  2 neighbor lists, perpetual/occasional/extra = 2 0 0
  (1) pair reax/c, perpetual
      attributes: half, newton off, ghost
      pair build: half/bin/newtoff/ghost
      stencil: half/ghost/bin/3d/newtoff
      bin: standard
  (2) fix qeq/reax, perpetual, copy from (1)
      attributes: half, newton off, ghost
      pair build: copy
      stencil: none
      bin: none
Per MPI rank memory allocation (min/avg/max) = 18.89 | 18.98 | 19.12 Mbytes
Step Temp E_pair E_mol TotEng Press 
       0            0   -8709.8869            0   -8709.8869    682.91612 
     114            0   -8755.2627            0   -8755.2627   -2039.5319 
Loop time of 2.22795 on 8 procs for 114 steps with 50 atoms

99.4% CPU use with 8 MPI tasks x no OpenMP threads

Minimization stats:
  Stopping criterion = energy tolerance
  Energy initial, next-to-last, final = 
         -8709.8868534     -8755.26268096     -8755.26270502
  Force two-norm initial, final = 269.289 42.8213
  Force max component initial, final = 140.951 9.29421
  Final line search alpha, max atom move = 9.76265e-05 0.00090736
  Iterations, force evaluations = 114 847

MPI task timing breakdown:
Section |  min time  |  avg time  |  max time  |%varavg| %total
---------------------------------------------------------------
Pair    | 1.7004     | 1.7173     | 1.7307     |   0.8 | 77.08
Neigh   | 0          | 0          | 0          |   0.0 |  0.00
Comm    | 0.01719    | 0.030251   | 0.047067   |   5.8 |  1.36
Output  | 0.00021118 | 0.00027414 | 0.00041131 |   0.0 |  0.01
Modify  | 0.47516    | 0.47539    | 0.47555    |   0.0 | 21.34
Other   |            | 0.004693   |            |       |  0.21

Nlocal:    6.25 ave 8 max 6 min
Histogram: 7 0 0 0 0 0 0 0 0 1
Nghost:    608 ave 614 max 603 min
Histogram: 3 0 0 0 1 0 0 3 0 1
Neighs:    803.875 ave 1012 max 767 min
Histogram: 7 0 0 0 0 0 0 0 0 1

Total # of neighbors = 6431
Ave neighs/atom = 128.62
Neighbor list builds = 0
Dangerous builds = 0

###
min_style cg
minimize 1.0e-8 1.0e-8 100000 100000
WARNING: Using 'neigh_modify every 1 delay 0 check yes' setting during minimization (../min.cpp:190)
WARNING: Total cutoff < 2*bond cutoff. May need to use an increased neighbor list skin. (../pair_reaxc.cpp:413)
Per MPI rank memory allocation (min/avg/max) = 18.89 | 18.98 | 19.12 Mbytes
Step Temp E_pair E_mol TotEng Press 
     114            0   -8755.2627            0   -8755.2627   -2039.5319 
     213            0   -8757.5839            0   -8757.5839    -5707.572 
Loop time of 2.70094 on 8 procs for 99 steps with 50 atoms

99.4% CPU use with 8 MPI tasks x no OpenMP threads

Minimization stats:
  Stopping criterion = energy tolerance
  Energy initial, next-to-last, final = 
        -8755.26270502     -8757.58386689     -8757.58394818
  Force two-norm initial, final = 42.8213 34.5771
  Force max component initial, final = 9.29421 10.035
  Final line search alpha, max atom move = 7.32245e-07 7.3481e-06
  Iterations, force evaluations = 99 1076

MPI task timing breakdown:
Section |  min time  |  avg time  |  max time  |%varavg| %total
---------------------------------------------------------------
Pair    | 2.1285     | 2.1458     | 2.1671     |   0.9 | 79.45
Neigh   | 0          | 0          | 0          |   0.0 |  0.00
Comm    | 0.018616   | 0.039946   | 0.057095   |   6.5 |  1.48
Output  | 0.00019222 | 0.00026849 | 0.0004184  |   0.0 |  0.01
Modify  | 0.50886    | 0.5092     | 0.50949    |   0.0 | 18.85
Other   |            | 0.005735   |            |       |  0.21

Nlocal:    6.25 ave 8 max 6 min
Histogram: 7 0 0 0 0 0 0 0 0 1
Nghost:    604.875 ave 611 max 597 min
Histogram: 1 1 0 0 1 2 0 1 0 2
Neighs:    810.875 ave 1028 max 772 min
Histogram: 7 0 0 0 0 0 0 0 0 1

Total # of neighbors = 6487
Ave neighs/atom = 129.74
Neighbor list builds = 0
Dangerous builds = 0

###
fix 1 all box/relax aniso 0.0
min_style cg
minimize 1.0e-8 1.0e-8 100000 100000
WARNING: Using 'neigh_modify every 1 delay 0 check yes' setting during minimization (../min.cpp:190)
WARNING: Total cutoff < 2*bond cutoff. May need to use an increased neighbor list skin. (../pair_reaxc.cpp:413)
Per MPI rank memory allocation (min/avg/max) = 18.89 | 18.98 | 19.12 Mbytes
Step Temp E_pair E_mol TotEng Press Volume 
     213            0   -8757.5839            0   -8757.5839    -5707.572     1331.242 
     328            0   -8757.9791            0   -8757.9791    1215.7197    1328.7039 
Loop time of 0.636359 on 8 procs for 115 steps with 50 atoms

99.4% CPU use with 8 MPI tasks x no OpenMP threads

Minimization stats:
  Stopping criterion = energy tolerance
  Energy initial, next-to-last, final = 
        -8757.58394818     -8757.97905899     -8757.97905902
  Force two-norm initial, final = 196.298 55.3155
  Force max component initial, final = 127.316 25.32
  Final line search alpha, max atom move = 5.66772e-06 0.000143507
  Iterations, force evaluations = 115 271

MPI task timing breakdown:
Section |  min time  |  avg time  |  max time  |%varavg| %total
---------------------------------------------------------------
Pair    | 0.53904    | 0.54377    | 0.54751    |   0.4 | 85.45
Neigh   | 0          | 0          | 0          |   0.0 |  0.00
Comm    | 0.0058348  | 0.0095219  | 0.014199   |   2.9 |  1.50
Output  | 0.0001894  | 0.00023376 | 0.00034527 |   0.0 |  0.04
Modify  | 0.078286   | 0.078331   | 0.078381   |   0.0 | 12.31
Other   |            | 0.004503   |            |       |  0.71

Nlocal:    6.25 ave 8 max 6 min
Histogram: 7 0 0 0 0 0 0 0 0 1
Nghost:    607.375 ave 611 max 603 min
Histogram: 2 0 1 0 0 0 1 2 0 2
Neighs:    812.625 ave 1028 max 774 min
Histogram: 7 0 0 0 0 0 0 0 0 1

Total # of neighbors = 6501
Ave neighs/atom = 130.02
Neighbor list builds = 0
Dangerous builds = 0

unfix 1
###
min_style cg
minimize 1.0e-8 1.0e-8 100000 100000
WARNING: Using 'neigh_modify every 1 delay 0 check yes' setting during minimization (../min.cpp:190)
WARNING: Total cutoff < 2*bond cutoff. May need to use an increased neighbor list skin. (../pair_reaxc.cpp:413)
Per MPI rank memory allocation (min/avg/max) = 18.89 | 18.98 | 19.12 Mbytes
Step Temp E_pair E_mol TotEng Press 
     328            0   -8757.9791            0   -8757.9791    1215.7197 
     590            0   -8795.9039            0   -8795.9039    74881.772 
Loop time of 5.62941 on 8 procs for 262 steps with 50 atoms

99.4% CPU use with 8 MPI tasks x no OpenMP threads

Minimization stats:
  Stopping criterion = energy tolerance
  Energy initial, next-to-last, final = 
        -8757.97905902     -8795.90391855     -8795.90394942
  Force two-norm initial, final = 37.2587 528.775
  Force max component initial, final = 8.24813 225.44
  Final line search alpha, max atom move = 8.78324e-05 0.0198009
  Iterations, force evaluations = 262 2160

MPI task timing breakdown:
Section |  min time  |  avg time  |  max time  |%varavg| %total
---------------------------------------------------------------
Pair    | 4.3145     | 4.3762     | 4.4338     |   1.9 | 77.74
Neigh   | 0          | 0          | 0          |   0.0 |  0.00
Comm    | 0.036497   | 0.093853   | 0.15582    |  12.7 |  1.67
Output  | 0.00048358 | 0.00059363 | 0.00087986 |   0.0 |  0.01
Modify  | 1.1469     | 1.1472     | 1.1476     |   0.0 | 20.38
Other   |            | 0.01157    |            |       |  0.21

Nlocal:    6.25 ave 8 max 6 min
Histogram: 7 0 0 0 0 0 0 0 0 1
Nghost:    611.125 ave 621 max 600 min
Histogram: 1 0 0 1 2 0 2 0 1 1
Neighs:    817.375 ave 1028 max 777 min
Histogram: 7 0 0 0 0 0 0 0 0 1

Total # of neighbors = 6539
Ave neighs/atom = 130.78
Neighbor list builds = 0
Dangerous builds = 0

###
fix 1 all box/relax aniso 0.0
min_style cg
minimize 1.0e-8 1.0e-8 100000 100000
WARNING: Using 'neigh_modify every 1 delay 0 check yes' setting during minimization (../min.cpp:190)
WARNING: Total cutoff < 2*bond cutoff. May need to use an increased neighbor list skin. (../pair_reaxc.cpp:413)
Per MPI rank memory allocation (min/avg/max) = 18.89 | 18.98 | 19.12 Mbytes
Step Temp E_pair E_mol TotEng Press Volume 
     590            0   -8795.9039            0   -8795.9039    74881.772    1328.7039 
    1557            0   -8828.1688            0   -8828.1688    335.29812    1352.1736 
Loop time of 3.25093 on 8 procs for 967 steps with 50 atoms

99.4% CPU use with 8 MPI tasks x no OpenMP threads

Minimization stats:
  Stopping criterion = energy tolerance
  Energy initial, next-to-last, final = 
        -8795.90394942     -8828.16875866     -8828.16878951
  Force two-norm initial, final = 2570.02 24.8778
  Force max component initial, final = 1522.62 8.56928
  Final line search alpha, max atom move = 5.48043e-06 4.69634e-05
  Iterations, force evaluations = 967 1382

MPI task timing breakdown:
Section |  min time  |  avg time  |  max time  |%varavg| %total
---------------------------------------------------------------
Pair    | 2.728      | 2.7566     | 2.7846     |   1.2 | 84.79
Neigh   | 0          | 0          | 0          |   0.0 |  0.00
Comm    | 0.023925   | 0.051502   | 0.079857   |   8.4 |  1.58
Output  | 0.0015423  | 0.0018828  | 0.0027558  |   0.8 |  0.06
Modify  | 0.41615    | 0.41635    | 0.41654    |   0.0 | 12.81
Other   |            | 0.02458    |            |       |  0.76

Nlocal:    6.25 ave 8 max 6 min
Histogram: 7 0 0 0 0 0 0 0 0 1
Nghost:    604.875 ave 611 max 598 min
Histogram: 1 1 1 1 0 0 1 0 1 2
Neighs:    828.375 ave 1044 max 785 min
Histogram: 7 0 0 0 0 0 0 0 0 1

Total # of neighbors = 6627
Ave neighs/atom = 132.54
Neighbor list builds = 0
Dangerous builds = 0

unfix 1
###
min_style cg
minimize 1.0e-8 1.0e-8 100000 100000
WARNING: Using 'neigh_modify every 1 delay 0 check yes' setting during minimization (../min.cpp:190)
WARNING: Total cutoff < 2*bond cutoff. May need to use an increased neighbor list skin. (../pair_reaxc.cpp:413)
Per MPI rank memory allocation (min/avg/max) = 18.89 | 18.98 | 19.12 Mbytes
Step Temp E_pair E_mol TotEng Press 
    1557            0   -8828.1688            0   -8828.1688    335.29812 
    1633            0   -8828.9466            0   -8828.9466    441.22151 
Loop time of 1.96821 on 8 procs for 76 steps with 50 atoms

99.4% CPU use with 8 MPI tasks x no OpenMP threads

Minimization stats:
  Stopping criterion = energy tolerance
  Energy initial, next-to-last, final = 
        -8828.16878951     -8828.94650889     -8828.94655229
  Force two-norm initial, final = 21.7872 16.9489
  Force max component initial, final = 7.45927 7.3479
  Final line search alpha, max atom move = 2.52344e-07 1.8542e-06
  Iterations, force evaluations = 76 817

MPI task timing breakdown:
Section |  min time  |  avg time  |  max time  |%varavg| %total
---------------------------------------------------------------
Pair    | 1.5406     | 1.566      | 1.5842     |   1.0 | 79.56
Neigh   | 0          | 0          | 0          |   0.0 |  0.00
Comm    | 0.016446   | 0.034167   | 0.059314   |   6.8 |  1.74
Output  | 0.00015228 | 0.00019186 | 0.00029273 |   0.0 |  0.01
Modify  | 0.36348    | 0.36366    | 0.36383    |   0.0 | 18.48
Other   |            | 0.00421    |            |       |  0.21

Nlocal:    6.25 ave 8 max 6 min
Histogram: 7 0 0 0 0 0 0 0 0 1
Nghost:    584.25 ave 590 max 578 min
Histogram: 2 0 0 0 0 2 2 0 1 1
Neighs:    805.875 ave 1006 max 765 min
Histogram: 7 0 0 0 0 0 0 0 0 1

Total # of neighbors = 6447
Ave neighs/atom = 128.94
Neighbor list builds = 0
Dangerous builds = 0

undump 1
#############
#----------- Thermo ------------
reset_timestep 0
thermo  200

thermo_style    custom step temp etotal ke pe press
velocity all create 300 12345 mom yes rot yes
fix 1 all npt temp 300 300 25.0 iso 0.0 0.0 250.0

variable vpe equal pe
variable vtemp equal temp
variable vstep equal step

fix output all print 2500 "${vstep} ${vtemp} ${vpe}" file temp-tpdh-Pt.dat screen no

dump 1 all custom 2500 thermo-tpdh-Pt.lammpstrj id type x y z

run 1000000
WARNING: Total cutoff < 2*bond cutoff. May need to use an increased neighbor list skin. (../pair_reaxc.cpp:413)
Per MPI rank memory allocation (min/avg/max) = 17.77 | 17.86 | 17.99 Mbytes
Step Temp TotEng KinEng PotEng Press 
       0          300   -8785.1286    43.817908   -8828.9466    1922.5522 
     200    191.59649   -8766.6867    27.984524   -8794.6712    26309.501 
     400    327.24625   -8739.6105    47.797486    -8787.408   -5208.2477 
     600    309.48047   -8736.9808    45.202622   -8782.1834   -51273.084 
     800    305.61603    -8748.955    44.638184   -8793.5932   -9876.1521 
    1000    237.61564   -8752.2721    34.706068   -8786.9782    5313.8879 
    1200    350.29579   -8734.2429    51.164095    -8785.407   -18026.866 
    1400    276.56931   -8741.4064    40.395628    -8781.802    16867.887 
    1600    287.51905   -8755.1861    41.994944   -8797.1811   -17037.776 
    1800     354.8725   -8737.1518    51.832568   -8788.9844     13308.55 
    2000    322.54892   -8742.4314    47.111396   -8789.5428    -37706.62 
    2200     301.7896   -8740.5723    44.079296   -8784.6516    6046.3654 
    2400    279.70496    -8732.541    40.853621   -8773.3946   -830.17827 
    2600    320.19735   -8742.2455    46.767927   -8789.0134   -5832.8098 
    2800     269.7863   -8754.5904    39.404905   -8793.9954   -66089.555 
    3000    312.33248   -8737.7846    45.619186   -8783.4038   -5847.8532 
    3200    316.72631    -8741.549    46.260947     -8787.81    -47257.15 
    3400    267.12847   -8749.3159    39.016702   -8788.3326   -33694.714 
    3600    305.26536   -8744.4751    44.586964   -8789.0621    6185.2285 
    3800    371.76679   -8726.4436    54.300143   -8780.7438   -1252.7835 
    4000    386.41677   -8735.8771    56.439915   -8792.3171   -19696.435 
    4200    268.31961   -8750.6941     39.19068   -8789.8848    18156.012 
    4400      322.476   -8742.3859    47.100746   -8789.4867    29939.505 
    4600    284.95966   -8735.2398     41.62112   -8776.8609   -11990.477 
    4800     258.1203   -8741.8191    37.700971   -8779.5201     12353.85 
    5000    229.53846   -8759.8426    33.526316   -8793.3689   -24679.231 
    5200    318.88031    -8743.107     46.57556   -8789.6825    2548.0165 
    5400    316.03687   -8742.2915    46.160249   -8788.4518    33357.355 
    5600    285.60727   -8756.4563    41.715711    -8798.172   -23724.259 
    5800    283.96319   -8741.7733    41.475576   -8783.2488    12244.788 
    6000    297.98493   -8739.7105    43.523587   -8783.2341   -3991.7811 
    6200    275.66571   -8749.6322    40.263649   -8789.8958   -27525.357 
    6400    291.82152   -8750.4446    42.623362   -8793.0679    -13356.68 
    6600    311.18894   -8737.5347    45.452161   -8782.9869    18845.428 
    6800    256.39086   -8755.2057     37.44837    -8792.654   -25018.103 
    7000    236.87332   -8744.7522    34.597644   -8779.3498    2120.5789 
    7200    300.95646    -8738.147    43.957608   -8782.1046     21451.26 
    7400    239.14279   -8756.0341    34.929122   -8790.9632    14360.656 
    7600    263.47513   -8751.2008    38.483097   -8789.6839    3016.3624 
    7800    326.66525   -8743.5217    47.712625   -8791.2343    6563.2128 
    8000    271.75166   -8742.8292    39.691963   -8782.5212   -18631.998 
    8200    322.60444   -8733.2429    47.119506   -8780.3624   -14247.731 
    8400    236.96202   -8748.9749    34.610599   -8783.5855      16537.7 
    8600    289.24159   -8745.2044    42.246537   -8787.4509    22031.235 
    8800    349.28175    -8720.733    51.015984    -8771.749   -17171.834 
    9000    324.90304    -8739.882    47.455238   -8787.3373   -29155.455 
    9200    303.08092   -8748.3761    44.267906    -8792.644   -18936.976 
    9400    323.66902    -8730.501    47.274998    -8777.776   -28712.262 
    9600    249.80982   -8740.5249    36.487146   -8777.0121    18092.002 
    9800    298.26884   -8743.4678    43.565055   -8787.0328   -812.39772 
   10000    238.26592   -8759.1865    34.801047   -8793.9876   -5381.2423 
   10200    288.65096   -8750.9504    42.160271   -8793.1107    2783.4054 
   10400    331.69489   -8739.3976    48.447254   -8787.8449   -148.44101 
   10600    240.35681   -8747.4731    35.106441   -8782.5796     9636.419 
   10800    287.14673   -8745.2364    41.940563    -8787.177   -27343.659 
   11000    357.90526   -8734.9584    52.275531   -8787.2339   -22452.345 
   11200    282.66489   -8751.4412    41.285947   -8792.7271   -52719.505 
   11400    271.75901   -8740.0481    39.693038   -8779.7412   -38742.857 
   11600     266.1559   -8731.0708    38.874649   -8769.9455   -5743.4005 
   11800    309.21526   -8738.8163    45.163886   -8783.9802     8403.515 
   12000    241.54259   -8746.9164    35.279637   -8782.1961    15408.396 
   12200    324.83938   -8730.1299    47.445941   -8777.5758   -35327.496 
   12400    301.36003   -8746.8695    44.016553   -8790.8861    191.59134 
   12600    321.01893   -8744.1797    46.887926   -8791.0676    4450.8188 
   12800    392.70939   -8728.1747    57.359012   -8785.5337    18938.233 
   13000    269.14664   -8746.5075    39.311476    -8785.819    5496.3171 
   13200    266.43758   -8740.5876    38.915792   -8779.5034   -1093.0609 
   13400    308.59127   -8744.7223    45.072746   -8789.7951   -38602.631 
   13600    281.36268   -8754.9983    41.095747   -8796.0941   -787.57339 
   13800    365.90027   -8738.6477    53.443281   -8792.0909   -1512.0166 
   14000    270.66864   -8749.7449    39.533779   -8789.2787    22385.389 
   14200    308.85698   -8745.9782    45.111556   -8791.0898   -14160.115 
   14400    340.19696   -8735.2406    49.689063   -8784.9297   -18899.202 
   14600    294.22989   -8751.8093    42.975127   -8794.7844   -21485.595 
   14800    302.09447   -8751.3099    44.123825   -8795.4337    33477.025 
   15000    349.64954    -8729.941    51.069705   -8781.0107    10824.241 
   15200    287.29729   -8741.9793    41.962553   -8783.9418    5881.2844 
   15400    286.78908   -8750.5466    41.888325   -8792.4349   -5824.4342 
   15600    271.75174   -8753.3249    39.691976   -8793.0168    36286.711 
   15800    328.11183   -8741.9592    47.923912   -8789.8831   -8303.8575 
   16000    274.95801   -8745.2696    40.160283   -8785.4299    2601.3942 
   16200    249.84234   -8756.1131    36.491896    -8792.605    39447.515 
   16400     307.2387   -8745.3185     44.87519   -8790.1937    20040.048 
   16600    275.87214   -8739.0765      40.2938   -8779.3703   -9683.0577 
   16800     297.5335   -8728.4474    43.457651   -8771.9051    1.8806178 
   17000    287.80108    -8746.189    42.036138   -8788.2251    23702.354 
   17200    259.70552   -8754.5818    37.932509   -8792.5143      40344.1 
   17400     393.2801   -8735.5254     57.44237   -8792.9677    -18939.55 
   17600    298.79283   -8742.9526    43.641588   -8786.5941   -36812.258 
   17800    243.14841   -8755.8723    35.514182   -8791.3865   -3585.2156 
   18000     271.1131   -8748.3155    39.598696   -8787.9142    3303.3026 
   18200    307.46606   -8736.6631    44.908398   -8781.5715   -66327.404 
   18400    316.58907   -8754.5989    46.240903   -8800.8398    7689.8329 
   18600    330.27944   -8749.2003    48.240514   -8797.4408   -3863.3105 
   18800    349.85268   -8738.7195    51.099375   -8789.8189    -1812.241 
   19000    295.91057   -8746.1409    43.220607   -8789.3615   -7159.1726 
   19200    284.55571   -8752.3911    41.562119   -8793.9532    30073.969 
   19400    342.72195   -8737.6036    50.057862   -8787.6614   -38395.782 
   19600    256.96964   -8753.2813    37.532907   -8790.8142   -33369.268 
   19800    260.00794   -8751.4148     37.97668   -8789.3915     20832.52 
   20000    322.34409   -8743.1777    47.081479   -8790.2592   -17474.072 
   20200    295.48618   -8747.7803     43.15862   -8790.9389    -23153.68 
   20400    248.30326    -8760.254    36.267097   -8796.5211    26247.341 
   20600    280.98344   -8753.1678    41.040354   -8794.2082   -23524.856 
   20800    334.25321   -8740.8923    48.820921   -8789.7132    23483.214 
   21000    280.91234   -8751.5241    41.029969   -8792.5541     8461.459 
   21200    292.54307   -8750.9439    42.728751   -8793.6727   -23615.923 
   21400    245.75462   -8745.8079    35.894844   -8781.7027   -8232.6466 
   21600    355.10341   -8744.9491    51.866295   -8796.8154   -33550.437 
   21800    287.79911   -8755.7897    42.035849   -8797.8255    17417.008 
   22000    310.61327   -8745.6398    45.368078   -8791.0078   -26682.939 
   22200     318.0661   -8739.4541    46.456637   -8785.9107   -3662.7229 
   22400    258.51757   -8753.0275    37.758997   -8790.7865   -24204.655 
   22600    282.62663   -8751.3001    41.280358   -8792.5805   -23586.258 
   22800    327.37159   -8738.5994    47.815794   -8786.4152    178.62703 
   23000    264.91116   -8754.7444    38.692843   -8793.4373    8992.6743 
   23200    305.29098   -8752.4694    44.590707   -8797.0601   -843.01337 
   23400     346.5188   -8742.2589     50.61243   -8792.8714   -17952.197 
   23600     232.6772   -8742.9878     33.98476   -8776.9726   -18343.359 
   23800    264.96393   -8754.4643     38.70055   -8793.1648   -26366.014 
   24000    331.90513   -8740.2756    48.477961   -8788.7536   -14889.829 
   24200    230.05334   -8757.9938     33.60152   -8791.5954   -20085.204 
   24400    319.56614   -8747.1302    46.675732   -8793.8059   -52620.782 
   24600    312.51396   -8740.0484    45.645693   -8785.6941    75217.855 
   24800    352.62977   -8729.5833    51.504995   -8781.0883    7026.7781 
   25000    295.04113   -8748.8843    43.093616   -8791.9779   -18728.639 
   25200    265.40274   -8747.3885    38.764643   -8786.1532   -19596.378 
   25400     321.9691   -8734.4061    47.026708   -8781.4328    11488.815 
   25600    264.62775   -8750.3164    38.651448   -8788.9679   -943.00886 
   25800    256.89504   -8754.3639    37.522011   -8791.8859   -36223.724 
   26000    365.82154   -8728.9121    53.431781   -8782.3439   -7651.4028 
   26200      302.328   -8742.8489    44.157934   -8787.0069   -21305.969 
   26400    255.73189   -8747.3654    37.352121   -8784.7175   -31223.162 
   26600    282.75094   -8745.5099    41.298515   -8786.8085    79979.987 
   26800    316.77379   -8743.5229    46.267883   -8789.7908   -35849.596 
   27000    265.55901   -8754.8259    38.787467   -8793.6134    5566.0606 
   27200    336.82016   -8738.0324    49.195848   -8787.2282   -26167.927 
   27400    300.07113   -8740.5289    43.828296   -8784.3572    7181.4387 
   27600    320.89388   -8749.8923    46.869661    -8796.762   -12698.534 
   27800     312.0181   -8740.2863    45.573268   -8785.8595    -32179.18 
   28000    320.63817   -8737.9177    46.832313   -8784.7501    -39522.01 
   28200    291.32956   -8750.4569    42.551506   -8793.0084   -7381.9052 
   28400    283.13266   -8747.4407    41.354269    -8788.795   -14131.585 
   28600    317.96953   -8732.0686    46.442532   -8778.5111    9293.8379 
   28800    270.65667   -8749.6168     39.53203   -8789.1489   -32921.241 
   29000    354.89665   -8745.1018    51.836096   -8796.9379   -36538.553 
   29200    366.94104   -8728.3123    53.595296   -8781.9076     3692.937 
   29400    273.71543   -8752.4536    39.978791   -8792.4324    3685.8261 
   29600    285.38885   -8747.7477    41.683808   -8789.4315   -26032.911 
   29800    368.73387   -8735.7876    53.857155   -8789.6448   -10242.162 
   30000     253.0165    -8753.664    36.955512   -8790.6195    -18408.81 
   30200    341.51462   -8746.6539     49.88152   -8796.5354    10967.328 
   30400     331.0827   -8740.6889    48.357837   -8789.0467    1803.3955 
   30600    300.61288   -8750.9159    43.907424   -8794.8233    31470.801 
   30800    281.37648    -8758.928    41.097762   -8800.0258    10008.527 
   31000    297.21557   -8744.8644    43.411215   -8788.2756   -3384.5092 
   31200    279.33112   -8745.7864    40.799018   -8786.5854    5055.8066 
   31400    253.03441   -8760.7561    36.958128   -8797.7142    36559.935 
   31600    316.01995   -8748.1498    46.157776   -8794.3075    30639.221 
   31800    329.40806   -8741.7826     48.11324   -8789.8959    27765.273 
   32000    280.50743   -8745.5254    40.970829   -8786.4962   -4441.1133 
   32200    269.36465   -8754.8526    39.343317   -8794.1959   -17906.746 
   32400    326.17733   -8736.1263    47.641361   -8783.7677   -36053.911 
   32600    345.76376   -8745.0162    50.502149   -8795.5184   -3033.3925 
   32800    234.29527    -8753.583    34.221095   -8787.8041    10244.107 
   33000    227.54033   -8762.3957     33.23447   -8795.6302    19352.571 
   33200    337.10402   -8744.6537     49.23731    -8793.891    388.70642 
   33400    308.64793   -8747.2304    45.081022   -8792.3115    14976.735 
   33600    236.41705   -8760.4963    34.531002   -8795.0273    2600.9599 
   33800    324.09567   -8741.1484    47.337314   -8788.4857     7544.043 
   34000    324.70797   -8745.5497    47.426747   -8792.9764   -30454.262 
   34200    270.87065   -8759.8446    39.563284   -8799.4079   -33570.646 
   34400    282.88222   -8739.4352     41.31769   -8780.7529   -5951.7482 
   34600    323.09501   -8746.1673    47.191158   -8793.3585   -15529.294 
   34800    265.45171   -8753.2886    38.771795   -8792.0604    20201.577 
   35000    387.25192    -8733.603    56.561896   -8790.1649   -25286.718 
   35200    315.68438   -8749.1849    46.108763   -8795.2936   -33414.059 
   35400     279.9013   -8752.1781    40.882299   -8793.0604   -12456.387 
   35600    341.79075   -8739.6489    49.921852   -8789.5707   -10313.766 
   35800    347.29196   -8731.0331    50.725357   -8781.7584    27946.599 
   36000    263.32213   -8749.7281    38.460749   -8788.1888    13702.102 
   36200    300.63806     -8749.46    43.911102   -8793.3711   -9266.6925 
   36400    382.63677    -8729.736    55.887809   -8785.6238    77134.777 
   36600    329.70774   -8743.9312    48.157011   -8792.0882    39034.535 
   36800    306.76189   -8750.7487    44.805547   -8795.5543    22216.885 
   37000    320.01296   -8747.3773    46.740994   -8794.1183   -10531.503 
   37200    361.04561   -8736.4153    52.734211   -8789.1495    5473.1111 
   37400    284.29413   -8751.3565    41.523913   -8792.8804    5482.0038 
   37600    352.14156   -8745.0361    51.433688   -8796.4697   -11512.043 
   37800    302.47586   -8747.0253    44.179532   -8791.2049    22427.708 
   38000    278.59675   -8751.9692    40.691755   -8792.6609    12232.867 
   38200    348.04532   -8736.0982    50.835392   -8786.9336    3447.9668 
   38400    350.23259   -8746.9662    51.154864    -8798.121   -8690.5668 
   38600    240.55602    -8752.689    35.135539   -8787.8245    19692.058 
   38800    363.97065   -8737.1512    53.161441   -8790.3126   -24399.141 
   39000     267.3468   -8744.8033    39.048591   -8783.8519   -721.40661 
   39200    338.64641   -8747.7688     49.46259   -8797.2314    20363.398 
   39400    240.75719   -8751.0251    35.164921     -8786.19    -760.7934 
   39600     310.8857   -8745.0467     45.40787   -8790.4546     6222.665 
   39800    302.19441    -8734.635    44.138422   -8778.7734   -9698.0396 
   40000    312.89938   -8754.6877    45.701987   -8800.3897   -10348.121 
   40200    297.53217   -8743.7748    43.457458   -8787.2322   -11448.263 
   40400     318.9267   -8735.3233    46.582335   -8781.9056   -28198.302 
   40600    330.69524   -8744.9447    48.301245   -8793.2459    17999.972 
   40800    281.62068   -8754.5921     41.13343   -8795.7255   -27403.864 
   41000    386.73466   -8738.7535    56.486346   -8795.2398    32424.485 
   41200    313.36086   -8745.1086    45.769391    -8790.878    4417.1303 
   41400    232.04454   -8765.3598    33.892355   -8799.2522   -18774.629 
   41600    304.78448   -8753.9141    44.516727   -8798.4308   -30179.732 
   41800     369.8784   -8741.9518    54.024326   -8795.9761    50005.324 
   42000    306.19545   -8752.5594    44.722814   -8797.2822    45293.057 
   42200    228.30744   -8768.1258    33.346514   -8801.4723    25748.141 
   42400    302.60767   -8753.0652    44.198783    -8797.264    31310.283 
   42600    338.59301   -8738.8041    49.454791   -8788.2589   -5245.4455 
   42800    302.06067   -8750.5151    44.118888    -8794.634    21488.874 
   43000    264.09113    -8758.512    38.573069   -8797.0851    19853.431 
   43200     358.5418   -8740.0307    52.368505   -8792.3992    14149.017 
   43400    303.57786   -8752.5757    44.340489   -8796.9162   -40070.718 
   43600    256.75483   -8752.0498    37.501531   -8789.5513    20010.211 
   43800    355.17478   -8739.6379    51.876719   -8791.5147    21151.174 
   44000    263.80169   -8754.6599    38.530794   -8793.1907    2241.2879 
   44200    299.27145   -8749.2091    43.711496   -8792.9206   -41283.395 
   44400    278.19768   -8747.3952    40.633467   -8788.0287    -3131.544 
   44600    313.86379   -8743.4574    45.842848   -8789.3002   -28717.036 
   44800    279.33882   -8737.8551    40.800141   -8778.6552   -16676.595 
   45000    277.31198   -8753.9685    40.504103   -8794.4726   -1425.7346 
   45200    334.92874   -8743.2847    48.919589   -8792.2043    26130.238 
   45400    387.74494    -8728.174    56.633907    -8784.808   -3984.5846 
   45600    301.29098   -8745.1065    44.006468    -8789.113    33764.517 
   45800     236.0649    -8754.701    34.479567   -8789.1805    36067.411 
   46000    302.61337   -8736.0383    44.199616   -8780.2379   -28098.953 
   46200    276.95984   -8746.7099    40.452669   -8787.1626   -44857.981 
   46400    264.43135   -8750.9482    38.622762    -8789.571   -39362.586 
   46600    312.11051   -8745.9799    45.586766   -8791.5667    20564.645 
   46800    344.23323   -8746.6698    50.278599   -8796.9484   -8021.5247 
   47000    232.99898   -8757.9599    34.031759   -8791.9916   -8478.6425 
   47200    263.81731   -8749.0281    38.533076   -8787.5611    33866.622 
   47400    287.70999   -8741.6891    42.022833    -8783.712   -35736.937 
   47600    304.76689   -8751.7183    44.514158   -8796.2325   -9594.7161 
   47800    240.10016   -8763.5782    35.068955   -8798.6472   -7209.1539 
   48000    291.97013   -8750.9995    42.645067   -8793.6446    13952.888 
   48200     340.5343   -8739.8538    49.738335   -8789.5922    1182.4645 
   48400    264.56973   -8754.6525    38.642973   -8793.2955    -7851.782 
   48600    319.61525   -8747.0649    46.682904   -8793.7478    26427.869 
   48800    296.95901   -8738.6165    43.373742   -8781.9902   -12409.357 
   49000    310.84672    -8739.296    45.402176   -8784.6981   -3604.0638 
   49200    228.78181   -8752.1053    33.415802   -8785.5211   -17002.405 
   49400    329.71396    -8740.935     48.15792   -8789.0929    -5424.463 
   49600    345.61397   -8737.8935     50.48027   -8788.3738   -31539.575 
   49800    302.96757   -8750.8869     44.25135   -8795.1383   -34398.845 
   50000    310.05881    -8744.075    45.287094   -8789.3621     9393.432 
   50200    273.65401   -8740.9814    39.969821   -8780.9512    31094.868 
   50400    288.84244   -8758.1417    42.188239   -8800.3299   -9626.2827 
   50600    280.51703   -8746.6736     40.97223   -8787.6458     22478.51 
   50800    260.91219   -8742.4712    38.108754     -8780.58   -23184.904 
   51000    245.18737   -8755.0091    35.811993   -8790.8211   -13944.648 
   51200    339.53033   -8746.3973    49.591695    -8795.989    21213.594 
   51400    290.33651   -8741.6063    42.406461   -8784.0127   -21909.874 
   51600    252.56955   -8756.7228    36.890231    -8793.613   -6413.4049 
   51800    286.81325   -8748.9259    41.891854   -8790.8178    11906.152 
   52000    278.41785   -8743.8553    40.665625   -8784.5209   -32071.906 
   52200    331.64206     -8744.73    48.439538   -8793.1695    14728.917 
   52400    293.76904   -8756.2054    42.907816   -8799.1133    21276.064 
   52600    320.02604   -8744.9156    46.742905   -8791.6585   -27813.298 
   52800    307.81497   -8740.2702    44.959359   -8785.2296    21126.812 
   53000    307.21617    -8751.153    44.871899   -8796.0249    14902.151 
   53200    392.95083   -8727.0939    57.394278   -8784.4881    2199.7125 
   53400    293.10736    -8740.504    42.811171   -8783.3152    7326.8449 
   53600    274.98601   -8750.8329    40.164372   -8790.9973   -1420.9713 
   53800     293.3977   -8750.5777    42.853578   -8793.4313    3656.0398 
   54000    260.96235   -8736.8206     38.11608   -8774.9366   -27337.106 
   54200    302.62874   -8753.1001    44.201861    -8797.302    6321.4825 
   54400    300.27725   -8751.8792    43.858402   -8795.7376    6886.2991 
   54600    296.15642   -8744.1868    43.256515   -8787.4433     14920.18 
   54800    255.12451    -8747.454    37.263408   -8784.7174   -15647.988 
   55000      277.831   -8752.7324     40.57991   -8793.3124   -4179.7303 
   55200    302.26589   -8746.0646    44.148863   -8790.2134   -22620.767 
   55400    321.68803   -8734.9806    46.985655   -8781.9663   -1396.3481 
   55600    267.11586   -8756.0398     39.01486   -8795.0547   -9576.8089 
   55800    376.78239    -8745.681     55.03272   -8800.7137    16047.628 
   56000    371.68527   -8731.0847    54.288236   -8785.3729    7750.4044 
   56200    292.38102   -8749.7387    42.705082   -8792.4438    9741.2803 
   56400    369.81505   -8739.1809    54.015073    -8793.196    3562.1503 
   56600    252.26536   -8747.4434    36.845801   -8784.2892    17054.215 
   56800    256.71216   -8757.3029    37.495299   -8794.7982    -13252.71 
   57000    239.45611   -8749.2029    34.974885   -8784.1778    37983.397 
   57200    331.98652   -8734.6947    48.489848   -8783.1846   -5083.4768 
   57400    332.34903   -8736.3921    48.542798   -8784.9349   -30307.949 
   57600    246.83995   -8750.3793    36.053367   -8786.4327   -20761.137 
   57800    321.24612   -8749.0095     46.92111   -8795.9306   -580.07917 
   58000    311.64921   -8734.9267    45.519388   -8780.4461   -11130.018 
   58200    281.07842   -8755.3224    41.054228   -8796.3767   -4922.0146 
   58400    324.95473   -8749.4142    47.462788    -8796.877   -76.010409 
   58600    319.86215   -8731.5142    46.718968   -8778.2331   -14055.863 
   58800    300.95698   -8750.0621    43.957684   -8794.0198    220.97639 
   59000    367.82948   -8749.4058     53.72506   -8803.1309   -7879.2318 
   59200    308.01346     -8737.13    44.988351   -8782.1184    15954.746 
   59400    291.26732   -8744.9498    42.542415   -8787.4922    31526.487 
   59600    289.79596   -8752.9416    42.327508   -8795.2692    22664.959 
   59800    362.58011   -8737.0761     52.95834   -8790.0345   -49252.695 
   60000    388.92714   -8726.1899    56.806578   -8782.9965    30592.044 
   60200    318.91135   -8748.6118    46.580094   -8795.1919    25738.666 
   60400    292.55452   -8747.8525    42.730423   -8790.5829    50277.655 
   60600    275.58388   -8739.0976    40.251696   -8779.3493   -6066.8249 
   60800    343.06554   -8749.9931    50.108047   -8800.1012   -25662.891 
   61000    278.24571   -8752.0294    40.640483   -8792.6699   -5757.5411 
   61200    307.91309   -8735.8507    44.973691   -8780.8244   -2810.0076 
   61400    390.25959    -8726.771    57.001196   -8783.7722   -30067.936 
   61600    270.70008   -8747.9914    39.538371   -8787.5298   -5392.0185 
   61800    293.60398   -8753.4789    42.883707   -8796.3627   -1695.1283 
   62000     304.0167   -8736.1063    44.404585   -8780.5109    -22878.76 
   62200    259.58334   -8745.9496    37.914663   -8783.8643    16290.063 
   62400    288.81189   -8747.6279    42.183775   -8789.8116   -13764.062 
   62600    323.52078   -8740.9126    47.253346   -8788.1659   -33455.827 
   62800    331.63705   -8735.2899    48.438805   -8783.7287    35034.251 
   63000    292.38523   -8753.3503    42.705697    -8796.056     29091.96 
   63200    271.11196   -8745.0419    39.598529   -8784.6404   -8267.5978 
   63400    353.02919   -8721.8285    51.563335   -8773.3918    8941.4284 
   63600    406.79687   -8728.9766    59.416625   -8788.3932    11701.753 
   63800     296.6824   -8745.4615     43.33334   -8788.7948   -8731.4642 
   64000    284.33096   -8756.4712    41.529293   -8798.0005    19923.283 
   64200    338.41081   -8740.0618    49.428179     -8789.49   -27321.469 
   64400    290.11539   -8744.9127    42.374164   -8787.2868   -493.45367 
   64600    307.23744   -8753.9319    44.875006   -8798.8069   -2708.8884 
   64800    329.91008   -8730.7596    48.186565   -8778.9461   -2887.7876 
   65000    265.63716   -8747.9957    38.798882   -8786.7946    -12996.78 
   65200    287.18534   -8749.3863    41.946202   -8791.3325   -7631.9084 
   65400    366.31845   -8730.8894     53.50436   -8784.3938    7103.4886 
   65600    308.42592   -8753.4543    45.048595   -8798.5029    26368.232 
   65800    345.12911   -8745.9214    50.409451   -8796.3309   -15404.693 
   66000     309.0915   -8733.5001    45.145809   -8778.6459   -12993.587 
   66200    273.06565   -8752.3589    39.883884   -8792.2428   -15457.701 
   66400    273.85659   -8748.5278    39.999409   -8788.5272    10349.103 
   66600    370.95495   -8734.3807    54.181565   -8788.5622    -8600.305 
   66800    297.08621   -8745.7925     43.39232   -8789.1849    28869.069 
   67000    309.85241   -8751.1922    45.256948   -8796.4492   -13339.213 
   67200     263.2514   -8757.1812    38.450418   -8795.6316     16576.59 
   67400    274.03041   -8740.8439    40.024798   -8780.8687   -5.4719618 
   67600    346.94119   -8741.4163    50.674124   -8792.0905    2412.9792 
   67800    283.62312   -8756.6221    41.425906    -8798.048   -6320.2741 
   68000    329.46842   -8741.9266    48.122056   -8790.0486    22753.978 
   68200    317.97219   -8751.4165     46.44292   -8797.8594   -101.95018 
   68400    301.05935    -8757.675    43.972636   -8801.6476    23964.047 
   68600    331.06262   -8742.1888    48.354904   -8790.5437    19538.698 
   68800    302.47468   -8750.0751    44.179358   -8794.2544    6584.4693 
   69000    266.38164    -8753.343     38.90762   -8792.2506    9854.8168 
   69200    337.21357    -8737.598     49.25331   -8786.8513    1315.9756 
   69400    291.25904   -8749.7108    42.541206    -8792.252    33853.538 
   69600    273.39829   -8750.6777     39.93247   -8790.6101    48910.945 
   69800    315.42326   -8740.5546    46.070624   -8786.6252    -26123.09 
   70000    334.56323   -8738.0597    48.866202   -8786.9259   -24109.049 
   70200    287.09614   -8753.2459    41.933174   -8795.1791    1767.6046 
   70400    294.92823   -8741.1746    43.077127   -8784.2517   -32623.192 
   70600    357.29863   -8737.4939    52.186928   -8789.6808   -14843.522 
   70800    318.40459   -8747.7642    46.506077   -8794.2702    3486.1195 
   71000    311.43461    -8746.383    45.488043   -8791.8711    16265.789 
   71200    305.84348   -8751.9715    44.671404   -8796.6429   -35729.014 
   71400    309.72224   -8736.7506    45.237935   -8781.9885    11707.867 
   71600    333.54205   -8747.7913     48.71705   -8796.5083    463.83759 
   71800    280.39795   -8750.0295    40.954838   -8790.9844    14977.078 
   72000    283.08228   -8745.1948    41.346911   -8786.5417   -44782.927 
   72200      261.127   -8738.9259    38.140129    -8777.066    29950.844 
   72400    247.27638   -8753.8858    36.117112   -8790.0029   -14430.703 
   72600    354.02568   -8741.6736    51.708882   -8793.3824     8850.672 
   72800    333.12099   -8731.2007    48.655549   -8779.8562    12758.852 
   73000    306.52165   -8745.3589    44.770457   -8790.1294    16163.073 
   73200    291.35172   -8749.1817    42.554743   -8791.7365   -21341.492 
   73400    311.64839   -8730.5632    45.519268   -8776.0824   -2533.1455 
   73600    280.55262   -8745.8187     40.97743   -8786.7961    -20576.06 
   73800    282.84271   -8752.6935     41.31192   -8794.0054    25549.173 
   74000    353.60033   -8736.5923    51.646755    -8788.239   -9193.8786 
   74200    275.53991   -8751.9136    40.245275   -8792.1588   -21882.465 
   74400    260.85817   -8758.3768    38.100864   -8796.4776   -17276.468 
   74600    321.15815     -8741.51    46.908261   -8788.4183    22641.155 
   74800    323.07185   -8745.9988    47.187775   -8793.1866    -42774.13 
   75000    273.03875   -8751.8424    39.879956   -8791.7224    10319.586 
   75200    284.75037    -8749.523    41.590551   -8791.1135    39787.814 
   75400    308.58402   -8731.2813    45.071687    -8776.353    5415.8127 
   75600    318.28367   -8743.7424    46.488415   -8790.2308    3747.0742 
   75800    264.29249   -8750.9917     38.60248   -8789.5942   -10925.465 
   76000    356.39048   -8737.5962    52.054284   -8789.6505    17089.982 
   76200    341.79476   -8750.0171    49.922438   -8799.9396    41367.968 
   76400    316.75083   -8752.4267    46.264528   -8798.6912   -3046.7849 
   76600    313.82547   -8739.4427    45.837252     -8785.28   -16775.655 
   76800    232.68178   -8758.3181    33.985429   -8792.3035    11528.815 
   77000    264.45099   -8748.5494     38.62563    -8787.175    7365.9945 
   77200    340.56044   -8742.3958    49.742153    -8792.138    -26428.43 
   77400    273.60269   -8754.2792    39.962324   -8794.2415   -12909.778 
   77600    304.69097   -8749.9538    44.503069   -8794.4569     26708.48 
   77800    352.86302   -8737.1018    51.539065   -8788.6409   -2708.4799 
   78000    313.08688    -8748.038    45.729373   -8793.7673   -4066.2313 
   78200    318.36686   -8751.2866    46.500565   -8797.7872    8846.5944 
   78400    339.99525    -8735.927    49.659602   -8785.5866   -4875.6221 
   78600    327.08897   -8741.0241    47.774515   -8788.7986    1907.9785 
   78800    272.94328   -8752.5083    39.866011   -8792.3743   -20584.906 
   79000    339.49671   -8744.9329    49.586785   -8794.5197    25583.267 
   79200    333.95271   -8738.9232     48.77703   -8787.7003   -29106.825 
   79400    279.39668   -8752.4351    40.808594   -8793.2437    13290.052 
   79600     312.9031   -8751.0865     45.70253   -8796.7891    -8106.296 
   79800    356.16152   -8735.8354    52.020842   -8787.8562    602.31572 
   80000    282.64832     -8752.83    41.283527   -8794.1135     70950.51 
   80200    305.72512   -8754.1862    44.654117   -8798.8404    4895.9454 
   80400    332.57938   -8737.3925    48.576442   -8785.9689   -3927.5937 
   80600     297.1652   -8750.7113    43.403857   -8794.1152   -27056.493 
   80800    260.66002   -8748.4031    38.071923    -8786.475     30187.24 
   81000    294.13405   -8736.2724    42.961129   -8779.2335    25009.975 
   81200    363.08922   -8732.3476    53.032699   -8785.3803   -35343.797 
   81400    261.39505   -8752.0463    38.179281   -8790.2256   -37249.012 
   81600    234.82264   -8747.3984    34.298123   -8781.6965   -96.760255 
   81800    298.85789   -8737.3232    43.651091   -8780.9742   -1314.1882 
   82000    265.26964   -8757.7798    38.745202    -8796.525   -5430.8265 
   82200    321.91125   -8746.1422    47.018259   -8793.1605    6708.5327 
   82400    314.09646   -8742.9411    45.876833   -8788.8179   -8129.2036 
   82600    294.52046   -8761.1377    43.017568   -8804.1552    1758.4092 
   82800    323.81861   -8744.9512    47.296846   -8792.2481    461.19158 
   83000    316.70724   -8745.6684    46.258161   -8791.9265    14488.618 
   83200    245.43949     -8755.91    35.848817   -8791.7589   -441.32288 
   83400    300.48766   -8738.8287    43.889136   -8782.7179    -23147.33 
   83600    331.21354   -8745.6956    48.376947   -8794.0725    22467.669 
   83800    269.78089   -8753.8519    39.404115    -8793.256     31785.78 
   84000    336.59394   -8730.3694    49.162807   -8779.5323   -37060.963 
   84200    328.36073   -8744.1349    47.960267   -8792.0951   -12715.095 
   84400    313.86601   -8753.6663    45.843172   -8799.5095   -41891.961 
   84600    403.47345   -8734.5378    58.931208    -8793.469   -8707.8399 
   84800    276.57937    -8744.225    40.397098   -8784.6221   -14426.209 
   85000    256.41653   -8753.9291     37.45212   -8791.3813    12772.091 
   85200    241.89637   -8766.2658     35.33131   -8801.5971   -10750.523 
   85400    294.32758   -8748.8872    42.989397   -8791.8766    14538.055 
   85600    280.76433   -8737.6041    41.008352   -8778.6124   -52290.716 
   85800    275.84577   -8748.4203    40.289948   -8788.7103   -15769.912 
   86000    310.43691   -8753.3434    45.342319   -8798.6857   -1752.2578 
   86200    336.14256   -8735.8137    49.096878   -8784.9106    35573.847 
   86400    291.82573   -8740.4755    42.623976   -8783.0994    26868.359 
   86600    325.63788   -8747.7473    47.562568   -8795.3099   -11638.429 
   86800    294.88609   -8749.5082    43.070972   -8792.5791   -17432.777 
   87000    291.03341   -8743.2956     42.50825   -8785.8038     17642.71 
   87200    295.73848   -8744.8965    43.195471    -8788.092    35788.855 
   87400     207.4521   -8758.2874    30.300391   -8788.5878   -36294.051 
   87600    377.63875   -8740.0091    55.157799   -8795.1669   -8590.1722 
   87800    284.56756   -8745.1888     41.56385   -8786.7527    8794.4925 
   88000    309.95937   -8741.9755    45.272571    -8787.248    29697.583 
   88200    383.89221   -8731.5257    56.071178   -8787.5969     25420.87 
   88400    283.47843   -8749.9824    41.404772   -8791.3872   -7996.4844 
   88600    299.58264   -8750.0838    43.756948   -8793.8408   -33629.198 
   88800    296.97762   -8739.0449     43.37646   -8782.4213   -9616.5998 
   89000    283.27795   -8746.2597    41.375491   -8787.6352    14367.654 
   89200    290.27315   -8763.1558    42.397207    -8805.553    5931.1478 
   89400    353.73613   -8753.5591     51.66659   -8805.2256   -2084.6458 
   89600    352.34087   -8742.3016    51.462799   -8793.7644   -7489.9783 
   89800    266.82246   -8750.2521    38.972006   -8789.2241   -18846.451 
   90000    270.82831    -8759.693      39.5571   -8799.2501    25227.932 
   90200    296.06521   -8746.0057    43.243194   -8789.2489    27568.588 
   90400     301.7143   -8747.1656    44.068298   -8791.2339    48035.746 
   90600    339.46885   -8748.2375    49.582716   -8797.8202     37294.51 
   90800    259.88418   -8752.8144    37.958604    -8790.773   -5554.0327 
   91000    353.04316    -8737.929    51.565375   -8789.4944   -12081.234 
   91200     286.0691   -8754.2798    41.783165   -8796.0629    167.10714 
   91400    238.46952   -8754.6917    34.830784   -8789.5225    4002.3874 
   91600    277.33332   -8743.5745    40.507219   -8784.0817   -23225.587 
   91800    311.38836   -8746.1873    45.481288   -8791.6686   -15007.725 
   92000     253.6048   -8748.7865    37.041438    -8785.828    13347.629 
   92200    272.07608   -8748.5298    39.739349   -8788.2691   -19866.684 
   92400    395.88939   -8741.1476    57.823483   -8798.9711   -31906.965 
   92600    304.26883   -8733.2956    44.441411    -8777.737    42975.615 
   92800    320.11483   -8744.0697    46.755873   -8790.8256    15701.905 
   93000    265.95691   -8755.0454    38.845584   -8793.8909   -18427.504 
   93200    308.59117   -8750.3468    45.072731   -8795.4195    7002.1608 
   93400     315.6498   -8743.7256    46.103712   -8789.8294   -5906.0777 
   93600    412.46351   -8726.7324    60.244293   -8786.9767     2832.523 
   93800     267.9825   -8746.6397    39.141441   -8785.7811   -20377.331 
   94000    306.15625   -8751.9733    44.717088   -8796.6904    17943.088 
   94200    290.14069   -8753.3206     42.37786   -8795.6984    4564.4693 
   94400    362.45992   -8737.5702    52.940785    -8790.511   -21600.121 
   94600    267.40909   -8753.9999    39.057689   -8793.0576    3250.0255 
   94800    289.03735   -8751.7135    42.216707   -8793.9302    9375.7466 
   95000    333.44004   -8740.4522     48.70215   -8789.1543     14596.91 
   95200    337.43846   -8742.4461    49.286158   -8791.7322   -42508.082 
   95400    327.66345   -8747.5234    47.858422   -8795.3818   -14105.778 
   95600    274.30142   -8752.5205    40.064381   -8792.5848   -15286.791 
   95800    392.21644   -8737.4524    57.287013   -8794.7394      13173.4 
   96000    314.15768   -8747.8699    45.885774   -8793.7557    1526.8824 
   96200    295.26508   -8748.0245    43.126327   -8791.1508   -18576.379 
   96400    267.40415    -8749.106    39.056968   -8788.1629   -3745.2735 
   96600    347.86503   -8732.0197    50.809059   -8782.8288    27204.717 
   96800    310.81642    -8748.765    45.397751   -8794.1627   -1798.1508 
   97000    289.13642   -8748.3899    42.231177   -8790.6211    -21427.86 
   97200    333.94909   -8740.6861    48.776501   -8789.4626    23893.066 
   97400    271.85952   -8749.9719    39.707718   -8789.6796   -11350.803 
   97600    280.85417   -8749.8489    41.021474   -8790.8703   -33100.775 
   97800    272.20789   -8747.7214    39.758601     -8787.48   -21179.495 
   98000    240.26299    -8753.864    35.092739   -8788.9567   -14795.287 
   98200    329.17893   -8739.5343    48.079773   -8787.6141   -10067.731 
   98400     298.5538   -8743.3634    43.606676     -8786.97   -9213.0699 
   98600    279.73341   -8759.6331    40.857776   -8800.4909    8034.8431 
   98800    298.68233    -8748.599     43.62545   -8792.2245    -36722.77 
   99000    342.99304   -8745.2378    50.097458   -8795.3353    2020.7822 
   99200    350.46873   -8734.6995    51.189355   -8785.8889   -49040.372 
   99400    266.33504    -8748.503    38.900815   -8787.4038   -3337.2645 
   99600    254.17605   -8757.7158    37.124876   -8794.8406    37422.927 
   99800    215.61303   -8761.2579    31.492373   -8792.7503    -20019.32 
  100000    322.64435   -8747.6295    47.125334   -8794.7548   -9175.2324 
  100200    291.75207   -8745.1873    42.613218   -8787.8005     61307.53 
  100400    317.53808    -8736.519    46.379514   -8782.8985    36108.552 
  100600    283.79913   -8753.6959    41.451614   -8795.1475    7576.8631 
  100800     368.7936   -8742.3736    53.865879   -8796.2395     38651.01 
  101000    299.90711   -8748.6196     43.80434   -8792.4239   -47419.187 
  101200    305.38939   -8749.6362    44.605081   -8794.2412   -9012.6013 
  101400    347.82458   -8742.6833    50.803152   -8793.4865    22268.758 
  101600    226.85163   -8747.3687    33.133879   -8780.5026    15430.739 
  101800    284.22511   -8749.2957    41.513832   -8790.8095    5238.9877 
  102000     348.7851    -8744.901    50.943444   -8795.8444     2198.185 
  102200    306.28221   -8743.2915    44.735485   -8788.0269   -9174.8351 
  102400    249.51675   -8757.6773    36.444339   -8794.1217    11460.525 
  102600    294.64699   -8749.7506    43.036049   -8792.7867   -12826.158 
  102800    346.20498   -8744.7708    50.566594   -8795.3374    893.75686 
  103000    396.18443   -8728.4853    57.866575   -8786.3519    1326.9365 
  103200    305.33953   -8753.2801    44.597798   -8797.8779    -34773.71 
  103400    274.41506    -8745.324     40.08098    -8785.405    8849.3829 
  103600    335.01501   -8742.1081     48.93219   -8791.0403   -26854.229 
  103800    253.02736   -8756.5004    36.957098   -8793.4575     34614.38 
  104000    295.30667   -8741.5377    43.132401   -8784.6701   -14219.759 
  104200     288.6462   -8745.5394    42.159575    -8787.699   -27264.662 
  104400    274.29566   -8764.7323    40.063539   -8804.7959   -50593.918 
  104600    319.11634   -8751.4492    46.610034   -8798.0592   -18581.572 
  104800    305.54473   -8746.6793    44.627769   -8791.3071   -9887.4553 
  105000    279.78732   -8746.9159    40.865649   -8787.7816    23449.242 
  105200     345.9961   -8739.7033    50.536084   -8790.2394    36088.766 
  105400    294.48013   -8748.8243    43.011677    -8791.836   -10188.284 
  105600    298.03283   -8753.7233    43.530584   -8797.2538    55209.784 
  105800    358.10182   -8735.1105    52.304241   -8787.4147    12262.506 
  106000    263.77008    -8752.809    38.526177   -8791.3352    16298.782 
  106200    345.19625   -8744.4731    50.419258   -8794.8923   -29011.773 
  106400    333.37975   -8724.6663    48.693343   -8773.3596    14075.307 
  106600     338.1846   -8744.6079    49.395138    -8794.003    1591.8796 
  106800    273.99147   -8755.7033     40.01911   -8795.7224    -7751.737 
  107000     297.0081   -8744.4258    43.380912   -8787.8067    27218.741 
  107200     318.1174   -8746.2859    46.464129     -8792.75    20495.228 
  107400    264.70517    -8750.545    38.662755   -8789.2078     25941.86 
  107600    295.71702   -8744.4108    43.192337   -8787.6031   -4250.6824 
  107800    336.36919    -8730.522    49.129981   -8779.6519    32.323609 
  108000    323.56265    -8751.159    47.259461   -8798.4185   -30047.884 
  108200    312.82685   -8747.1392    45.691393   -8792.8306    2980.9513 
  108400    297.16415   -8741.1726    43.403704   -8784.5764    40544.937 
  108600    235.39778   -8756.2548    34.382128   -8790.6369    10227.156 
  108800    328.20512    -8745.071    47.937538   -8793.0085    21046.794 
  109000    331.65672   -8743.4851    48.441678   -8791.9268    2477.7761 
  109200    250.44204   -8752.7963    36.579487   -8789.3758   -16247.968 
  109400    373.70308   -8731.1854    54.582957   -8785.7683   -3299.9632 
  109600    295.37048   -8752.2073    43.141721    -8795.349   -13323.176 
  109800    280.46719   -8748.5424    40.964951   -8789.5073    14386.465 
  110000     367.6787   -8735.1145    53.703038   -8788.8175   -29539.344 
  110200    297.89233   -8745.1168    43.510062   -8788.6269   -12693.882 
  110400      323.485   -8747.0231     47.24812   -8794.2712    21621.188 
  110600    310.33126   -8750.1305    45.326889   -8795.4574      32820.2 
  110800    271.90316   -8756.7113    39.714091   -8796.4254   -1526.3185 
  111000    335.07353   -8740.1532    48.940737   -8789.0939   -20716.135 
  111200    296.30242   -8746.6452     43.27784   -8789.9231   -38057.849 
  111400    247.08236   -8759.7156    36.088774   -8795.8043    7.7618499 
  111600    359.95637   -8738.8002    52.575117   -8791.3753    29705.987 
  111800    293.71904   -8753.9195    42.900512     -8796.82    21354.925 
  112000    286.82151   -8751.5615    41.893062   -8793.4546    -22777.48 
  112200    333.92849   -8730.9994    48.773492   -8779.7729    6437.8813 
  112400    317.69045   -8746.0833    46.401769    -8792.485   -11904.773 
  112600    293.21564   -8747.7131    42.826987   -8790.5401    663.39819 
  112800    367.69457   -8733.7144    53.705356   -8787.4198    10323.521 
  113000    298.62774   -8746.7065    43.617476    -8790.324   -235.80908 
  113200    308.09329   -8750.7981    45.000011   -8795.7981   -43603.388 
  113400    241.54406   -8763.2195    35.279852   -8798.4993   -387.25678 
  113600    292.10312    -8743.802    42.664492   -8786.4665   -23155.503 
  113800     332.7961    -8745.741    48.608095   -8794.3491    -21470.67 
  114000     257.1192   -8761.7363    37.554751   -8799.2911    45508.998 
  114200    253.09092   -8750.2193    36.966381   -8787.1857   -4404.7451 
  114400    276.58541   -8750.3146     40.39798   -8790.7126   -19229.596 
  114600    389.79103   -8737.2771    56.932757   -8794.2099   -50292.084 
  114800    310.12495   -8745.1307    45.296755   -8790.4275    28413.137 
  115000    322.63064   -8750.6849    47.123332   -8797.8082   -4947.3759 
  115200    235.31884   -8754.3804    34.370597    -8788.751    59601.651 
  115400    364.27575   -8736.4568    53.206004   -8789.6628    -47872.22 
  115600    243.43873   -8750.2333    35.556587   -8785.7898   -6947.7339 
  115800    349.83927   -8744.6949    51.097417   -8795.7923   -7693.2203 
  116000    303.18819   -8737.1373    44.283574   -8781.4209    -43148.97 
  116200     351.7111   -8746.0538    51.370815   -8797.4246   -31631.779 
  116400    299.45928    -8752.235    43.738931   -8795.9739   -3145.2289 
  116600    347.69879   -8740.5078    50.784778   -8791.2926   -15336.452 
  116800    371.16732   -8742.1091    54.212584   -8796.3217    25659.139 
  117000    240.07989   -8751.4531    35.065995   -8786.5191   -21790.602 
  117200     316.0813   -8737.2709    46.166737   -8783.4376    -12342.75 
  117400    274.35187   -8745.6084    40.071749   -8785.6801   -18715.491 
  117600    287.41872   -8749.8895     41.98029   -8791.8698   -9780.0768 
  117800    334.80205   -8749.7084    48.901084   -8798.6095   -1053.2302 
  118000    296.85836   -8745.7461     43.35904   -8789.1052    3326.7704 
  118200    245.90117   -8752.1579     35.91625   -8788.0742   -37919.953 
  118400    319.95489   -8749.8537    46.732512   -8796.5862    40067.698 
  118600    279.91582   -8739.8775    40.884419   -8780.7619     31029.88 
  118800    282.81154   -8759.5444    41.307367   -8800.8518   -18720.074 
  119000    298.62469   -8753.1147     43.61703   -8796.7317     -9935.92 
  119200    336.36436   -8743.2192    49.129275   -8792.3485     3520.724 
  119400    276.21133   -8750.2777    40.343342    -8790.621   -3579.6569 
  119600    264.16674   -8761.6356    38.584113   -8800.2197    -25324.52 
  119800    307.54368   -8743.7509    44.919735   -8788.6707   -14891.473 
  120000    263.59501    -8748.571    38.500606   -8787.0716    15543.047 
  120200    261.13126   -8759.2746    38.140752   -8797.4154   -10963.379 
  120400    335.82057   -8740.4052    49.049849    -8789.455   -48005.406 
  120600    288.77533   -8743.6717    42.178436   -8785.8501    27056.417 
  120800    262.62907   -8760.6739    38.359521   -8799.0334    17727.829 
  121000    271.31013   -8753.4125    39.627475   -8793.0399    16810.923 
  121200    331.87107   -8743.0189    48.472987   -8791.4919    32935.228 
  121400    252.56516   -8751.6326    36.889589   -8788.5221   -17397.302 
  121600     276.9176   -8758.1296    40.446499   -8798.5761   -14309.476 
  121800    310.06878   -8740.3725     45.28855   -8785.6611    8929.2927 
  122000     308.0845   -8745.8771    44.998727   -8790.8759   -7704.1437 
  122200     284.8087   -8756.8944    41.599071   -8798.4935    3601.5434 
  122400    297.48813    -8744.645    43.451025    -8788.096    26523.885 
  122600     282.3218   -8745.7454    41.235835   -8786.9812    13693.756 
  122800    289.08867   -8746.4763    42.224202   -8788.7005   -18983.231 
  123000    297.73972   -8752.0223    43.487771   -8795.5101     21043.54 
  123200    280.66168   -8759.7103    40.993359   -8800.7037    27467.438 
  123400    339.33846   -8742.5447    49.563671   -8792.1084    62665.111 
  123600    333.27105   -8740.7073    48.677467   -8789.3848   -22297.012 
  123800    295.11268   -8750.6247    43.104067   -8793.7287    10281.838 
  124000    260.25397   -8753.3258    38.012615   -8791.3384   -19709.517 
  124200    365.73686    -8740.338    53.419413   -8793.7574   -42231.991 
  124400    247.64027   -8753.1174    36.170261   -8789.2876   -10839.314 
  124600    376.43795   -8737.0911    54.982411   -8792.0735    5213.4799 
  124800    287.81588   -8745.4897    42.038298    -8787.528     20578.98 
  125000    303.40551   -8746.2075    44.315316   -8790.5228    57705.358 
  125200    285.13039   -8762.3731    41.646058   -8804.0191    38306.372 
  125400    331.80131   -8747.4003    48.462798   -8795.8631    32356.921 
  125600    332.06574   -8749.5083     48.50142   -8798.0097   -3944.6073 
  125800    262.38773   -8761.0913    38.324271   -8799.4156    13973.286 
  126000    333.58108   -8741.3249    48.722751   -8790.0477    13877.661 
  126200    270.94123   -8749.4054    39.573593    -8788.979   -2891.7914 
  126400    292.98722   -8743.7371    42.793624   -8786.5307    7333.9225 
  126600    296.92379   -8749.5011    43.368597   -8792.8697    36308.025 
  126800    316.07386   -8747.5027    46.165651   -8793.6684    8396.7721 
  127000     332.9909   -8750.3774    48.636549   -8799.0139   -23149.242 
  127200    346.28362    -8738.214    50.578079    -8788.792   -920.82586 
  127400    262.73175   -8757.1489    38.374518   -8795.5234   -39647.626 
  127600     338.5171   -8747.1578    49.443704   -8796.6015   -6608.1136 
  127800     342.1239    -8744.119    49.970511   -8794.0895    22459.717 
  128000    238.94742   -8762.1341    34.900587   -8797.0347   -25825.168 
  128200    306.90572    -8747.906    44.826556   -8792.7325   -9996.7503 
  128400    353.77405   -8742.5667    51.672129   -8794.2388    40359.332 
  128600    261.35616    -8754.999    38.173601   -8793.1726    30518.343 
  128800    212.23939   -8765.7227     30.99962   -8796.7223    2600.3907 
  129000     335.7096   -8744.7349    49.033641   -8793.7685    1498.4887 
  129200    262.28239   -8740.6109    38.308885   -8778.9198    2054.2776 
  129400    271.96402   -8753.0075    39.722981   -8792.7305   -19036.828 
  129600    309.35678   -8751.2207    45.184556   -8796.4053   -32375.922 
  129800    314.05397   -8742.0004    45.870626    -8787.871    32541.248 
  130000    279.65428   -8749.8881    40.846218   -8790.7344   -9317.4543 
  130200    296.70008   -8759.0034    43.335922   -8802.3393   -2578.1784 
  130400    279.44538   -8753.2827    40.815706   -8794.0984   -41248.783 
  130600    354.02672   -8742.7079    51.709033    -8794.417   -16563.992 
  130800    285.35893   -8752.2746    41.679437    -8793.954   -22288.374 
  131000    355.37651   -8733.6258    51.906183   -8785.5319    40800.917 
  131200    296.07207   -8744.5701    43.244195   -8787.8143    13416.219 
  131400    304.17711   -8755.0256    44.428016   -8799.4536    3433.7715 
  131600    334.80573   -8745.0154    48.901622   -8793.9171    27349.662 
  131800    320.73383   -8739.0237    46.846285     -8785.87    3838.2084 
  132000    311.36689   -8754.2234    45.478153   -8799.7016    6583.7744 
  132200    336.42623   -8743.5641    49.138312   -8792.7025    -11468.78 
  132400     331.3334    -8742.663    48.394454   -8791.0575   -13403.383 
  132600    314.96104   -8748.5168    46.003112   -8794.5199     22535.17 
  132800    276.89394   -8764.6114    40.443044   -8805.0544    4644.9236 
  133000    302.34683   -8746.2311    44.160684   -8790.3918    -14982.81 
  133200     325.2848   -8741.5754    47.510998   -8789.0864    19860.638 
  133400    231.42848   -8755.5288    33.802372   -8789.3312    13971.123 
  133600    266.66065   -8752.3526    38.948372    -8791.301   -1712.3131 
  133800    350.25147   -8739.5693    51.157623   -8790.7269    -16164.04 
  134000     326.5212   -8751.8087    47.691586   -8799.5003   -6799.9613 
  134200    243.83335   -8755.2105    35.614224   -8790.8247   -30361.441 
  134400    339.32415   -8739.1596    49.561581   -8788.7212    1096.1085 
  134600    308.67547   -8751.1382    45.085045   -8796.2232   -9183.9886 
  134800    284.77163   -8739.0811    41.593657   -8780.6747    31373.289 
  135000    292.23829   -8737.7393    42.684234   -8780.4235    26605.082 
  135200    305.40853    -8753.848    44.607875   -8798.4559   -18377.047 
  135400    284.24483   -8753.1353    41.516712    -8794.652    7451.5373 
  135600    298.31463   -8731.4081    43.571743   -8774.9798   -2104.0873 
  135800    327.51005   -8746.9566    47.836017   -8794.7926    4628.3559 
  136000    283.95088   -8754.3311    41.473779   -8795.8049    12721.072 
  136200    323.48965    -8736.411    47.248798   -8783.6598   -17280.534 
  136400    276.70609   -8742.9539    40.415607   -8783.3695   -14775.085 
  136600    329.00197   -8749.0936    48.053927   -8797.1475   -7842.1192 
  136800    232.40351   -8751.4852    33.944785     -8785.43    796.61362 
  137000    329.91784   -8736.1666    48.187698   -8784.3543   -11768.419 
  137200      333.261   -8750.4039    48.675999   -8799.0799    1359.9169 
  137400    317.59792   -8747.4997    46.388255    -8793.888   -12959.383 
  137600    375.64309    -8725.367    54.866314   -8780.2333    10072.562 
  137800    321.03732   -8740.6838    46.890612   -8787.5744   -11780.211 
  138000    303.81358   -8752.6972    44.374919   -8797.0721    8658.9625 
  138200    369.95756   -8738.1587    54.035887   -8792.1946    4136.4815 
  138400    248.91933   -8748.2382    36.357081   -8784.5953   -20149.426 
  138600    321.27602   -8741.8675    46.925477    -8788.793    -10552.33 
  138800    289.94374    -8754.777    42.349093   -8797.1261   -12069.374 
  139000     331.8423   -8749.9688    48.468784   -8798.4376   -10423.683 
  139200    286.59777   -8743.9039    41.860382   -8785.7642    27619.991 
  139400    262.11638   -8751.4925    38.284637   -8789.7771   -2881.1628 
  139600     350.5985   -8736.8833    51.208309   -8788.0916   -6742.7221 
  139800     285.2428   -8742.9921    41.662476   -8784.6546    28643.517 
  140000    303.60491   -8760.1835     44.34444    -8804.528   -437.93423 
  140200    297.90461   -8758.6205    43.511856   -8802.1323   -12085.032 
  140400     357.1358   -8745.5594    52.163145   -8797.7226   -4483.2668 
  140600    229.50512   -8756.4766    33.521448    -8789.998     19573.15 
  140800    312.84608   -8747.4066    45.694202   -8793.1008   -28583.567 
  141000    313.10942   -8743.6862    45.732665   -8789.4189   -14729.962 
  141200    254.42484    -8752.009    37.161214   -8789.1702    37323.673 
  141400     318.2493   -8745.1657    46.483394   -8791.6491    1456.1337 
  141600    298.41869   -8747.5888    43.586942   -8791.1757   -18554.258 
  141800    375.71529   -8744.0209     54.87686   -8798.8977   -46785.044 
  142000    283.89681   -8755.1548    41.465881   -8796.6207   -28829.957 
  142200    297.94518   -8741.1517    43.517782   -8784.6695    1262.4313 
  142400    291.01677   -8747.5047     42.50582   -8790.0105   -6786.4331 
  142600    221.59747   -8761.6596    32.366458   -8794.0261   -3833.8855 
  142800    265.61947    -8756.117    38.796298   -8794.9133   -2090.1069 
  143000    315.14948   -8741.7599    46.030636   -8787.7906   -42096.181 
  143200    323.04667   -8752.1379    47.184097    -8799.322    35730.238 
  143400    309.28756   -8750.8202    45.174445   -8795.9946   -35861.152 
  143600    276.87108   -8748.0977    40.439705   -8788.5374    6272.7489 
  143800    354.05185   -8734.0076    51.712704   -8785.7203    14850.725 
  144000    342.58158   -8743.6293    50.037361   -8793.6667    10732.588 
  144200    332.80062   -8748.0087    48.608756   -8796.6175    1267.9995 
  144400    332.17676   -8742.4995    48.517636   -8791.0172   -30573.885 
  144600     302.6609   -8737.6457    44.206558   -8781.8523    -4861.279 
  144800    306.95754   -8753.3503    44.834124   -8798.1844   -6197.2258 
  145000    312.89079   -8748.5399    45.700732   -8794.2406    14373.384 
  145200    350.23284   -8737.7005    51.154901   -8788.8554    49011.067 
  145400    291.38096   -8747.1338    42.559014   -8789.6928   -31417.536 
  145600    272.34594   -8745.0852    39.778764   -8784.8639   -7375.3013 
  145800    297.19296   -8744.4405    43.407913   -8787.8484     9050.832 
  146000    291.13457   -8755.9673    42.523026   -8798.4903     18167.51 
  146200    291.74751   -8751.0619    42.612552   -8793.6745   -6837.1938 
  146400    366.62213   -8737.1794    53.548715   -8790.7281   -37317.094 
  146600    331.94294   -8754.1738    48.483484   -8802.6573   -34826.201 
  146800    269.72039   -8755.2543    39.395277   -8794.6495    24340.949 
  147000    332.71425   -8742.1759    48.596141    -8790.772    6429.7945 
  147200    287.11504   -8752.8475    41.935935   -8794.7834   -41940.073 
  147400    268.27149   -8763.6871    39.183651   -8802.8707   -27248.514 
  147600    330.60297   -8746.3854    48.287768   -8794.6732   -24608.224 
  147800    304.43015   -8743.8746    44.464974   -8788.3395    33752.209 
  148000    397.95522   -8734.2897    58.125217   -8792.4149    12997.623 
  148200    257.02829   -8751.9715    37.541473   -8789.5129    -11928.74 
  148400    336.60062   -8745.4091    49.163783   -8794.5729    7904.8639 
  148600    302.22474   -8751.8141    44.142853   -8795.9569   -7645.9213 
  148800    274.59382   -8751.2973    40.107089   -8791.4044   -17609.695 
  149000    295.01983   -8739.7441    43.090505   -8782.8346   -455.06051 
  149200    228.27498   -8759.3173    33.341773   -8792.6591     16992.79 
  149400     255.5816   -8755.6974    37.330169   -8793.0276   -22472.914 
  149600    336.78537   -8745.0723    49.190768   -8794.2631    13476.243 
  149800    312.18041   -8749.4554    45.596974   -8795.0524   -19655.119 
  150000    270.39166   -8759.2531    39.493323   -8798.7465   -11418.428 
  150200     284.4015   -8747.0224    41.539595    -8788.562    7938.5618 
  150400    290.62443   -8746.3866    42.448515   -8788.8351    34686.915 
  150600    271.99307   -8753.8058    39.727224    -8793.533   -16826.577 
  150800    278.87268   -8753.0547    40.732058   -8793.7868    25961.672 
  151000    340.35994   -8736.0753    49.712869   -8785.7881    11628.892 
  151200    335.87841   -8749.4674    49.058298   -8798.5257    28548.296 
  151400    275.81678   -8752.4655    40.285714   -8792.7512   -522.79691 
  151600      336.714   -8739.1988    49.180344   -8788.3791   -23763.519 
  151800    288.06998    -8757.079    42.075413   -8799.1544   -3010.1128 
  152000    220.99942   -8758.9883    32.279107   -8791.2674   -6646.9204 
  152200    350.56027     -8743.41    51.202725   -8794.6127    17483.395 
  152400    304.86682   -8750.9408    44.528754   -8795.4696   -43571.028 
  152600    277.95446   -8761.5063    40.597943   -8802.1043   -11105.095 
  152800    312.97345   -8744.9099    45.712806   -8790.6227   -10668.137 
  153000    320.58502   -8745.9855     46.82455     -8792.81    17967.411 
  153200    241.66091   -8756.5293    35.296919   -8791.8262    22517.612 
  153400    279.80913   -8750.1626    40.868836   -8791.0314    63381.852 
  153600    291.74934   -8743.6429    42.612818   -8786.2557    24945.536 
  153800    264.98782   -8756.2266     38.70404   -8794.9307   -5524.9285 
  154000    269.92872   -8752.4404    39.425706   -8791.8661    14408.517 
  154200    284.23662   -8743.9102    41.515514   -8785.4257    4111.9889 
  154400    267.50044   -8749.4767    39.071032   -8788.5478    892.66469 
  154600    342.52884    -8732.103    50.029658   -8782.1327    9536.0747 
  154800    282.91724   -8751.5499    41.322805   -8792.8727    32835.039 
  155000     322.8291   -8749.1521    47.152319   -8796.3045    -2511.369 
  155200    212.63484   -8760.8466     31.05738    -8791.904   -20950.801 
  155400    317.22477   -8743.5244    46.333753   -8789.8581     16488.09 
  155600    270.96199   -8750.4154    39.576625   -8789.9921   -15068.643 
  155800    287.70941   -8734.8172    42.022748   -8776.8399    70239.058 
  156000    334.84996   -8741.8533    48.908083   -8790.7614   -26504.934 
  156200    248.92021   -8750.2029    36.357209   -8786.5602   -25475.477 
  156400    315.09319   -8745.6562    46.022414   -8791.6786   -15677.243 
  156600    237.91946   -8758.1963    34.750444   -8792.9467    -3051.868 
  156800    328.78069   -8741.3504    48.021607    -8789.372   -1287.9471 
  157000    287.00393   -8747.4917    41.919706   -8789.4114   -5921.4508 
  157200    297.58322   -8741.5112    43.464913   -8784.9761    25809.602 
  157400    255.81154   -8748.1237    37.363755   -8785.4875    29593.578 
  157600     296.9702    -8748.566    43.375376   -8791.9414   -1035.1125 
  157800     211.7851   -8749.1585    30.933267   -8780.0918   -11486.951 
  158000    382.89199   -8738.1868    55.925086   -8794.1119    4056.1493 
  158200    285.67059   -8747.2695    41.724958   -8788.9944    3436.8029 
  158400    231.71924   -8757.5453     33.84484   -8791.3901    -5188.015 
  158600    350.23934   -8746.4543     51.15585   -8797.6102    14948.777 
  158800    328.41437   -8746.1777    47.968102   -8794.1458     23645.57 
  159000    282.11284   -8739.0204    41.205314   -8780.2257   -7976.5742 
  159200    310.98689   -8751.0802    45.422649   -8796.5028    47085.578 
  159400    320.07661   -8746.4198    46.750292     -8793.17   -1048.1128 
  159600    358.96493    -8729.775    52.430307   -8782.2053   -20152.668 
  159800    350.07172   -8740.2663    51.131368   -8791.3977    15455.218 
  160000    263.50122   -8753.2284    38.486907   -8791.7153    -27691.24 
  160200    303.77641    -8743.345    44.369489   -8787.7145   -23110.783 
  160400    353.61029    -8735.773     51.64821   -8787.4212     30393.33 
  160600    296.86738    -8752.273    43.360359   -8795.6333    17988.009 
  160800    302.61189   -8751.7024    44.199399   -8795.9018    -12758.67 
  161000    336.97933   -8736.7788    49.219098   -8785.9979   -17238.985 
  161200    264.44745   -8756.6302    38.625114   -8795.2554   -6645.0511 
  161400     320.0075   -8747.0175    46.740197   -8793.7577   -3964.1731 
  161600    265.12399   -8739.8365    38.723929   -8778.5604    11650.672 
  161800    274.26655   -8758.8283    40.059288   -8798.8876    13489.576 
  162000    297.57306   -8749.2952     43.46343   -8792.7587    14371.717 
  162200    315.81869   -8744.9011    46.128381   -8791.0295   -3293.2403 
  162400    279.44199   -8746.5111    40.815211   -8787.3263    12614.404 
  162600     299.1261   -8760.7463    43.690266   -8804.4366    4540.1885 
  162800    321.28962   -8745.6059    46.927463   -8792.5334    37282.445 
  163000    323.14291   -8746.6875    47.198154   -8793.8856   -19095.999 
  163200    264.17529   -8760.6044    38.585361   -8799.1898   -2076.8425 
  163400    340.14373   -8746.1533    49.681289   -8795.8346    5045.3705 
  163600    299.15884   -8747.1811    43.695048   -8790.8762     -15442.6 
  163800    364.73064   -8733.1886    53.272446   -8786.4611    28660.186 
  164000    304.49982   -8747.5427     44.47515   -8792.0178   -13648.651 
  164200     314.4923   -8745.1732    45.934648   -8791.1079    23208.198 
  164400    251.10441    -8759.772    36.676233   -8796.4482    16613.558 
  164600    238.35138   -8752.3257    34.813529   -8787.1393   -24991.075 
  164800    321.01201   -8746.4387    46.886916   -8793.3256    53882.484 
  165000     377.9903   -8737.6909    55.209147      -8792.9   -3557.3378 
  165200    329.63572   -8740.1673    48.146491   -8788.3138   -13686.297 
  165400    299.38905   -8753.8763    43.728673    -8797.605    8630.5729 
  165600    354.32721   -8738.4436    51.752924   -8790.1966    5462.3783 
  165800    273.13679   -8747.4733    39.894276   -8787.3676     6608.654 
  166000    341.53822    -8744.432    49.884967    -8794.317    14519.383 
  166200    248.47337   -8757.4682    36.291943   -8793.7602      15879.7 
  166400    283.30099   -8745.8159    41.378856   -8787.1948   -4296.3823 
  166600    337.92697    -8747.736     49.35751   -8797.0935    -5995.793 
  166800    280.79477   -8754.7371    41.012798   -8795.7499   -20375.635 
  167000    308.35239   -8739.1567    45.037855   -8784.1946    12836.996 
  167200    261.69386   -8750.3863    38.222925   -8788.6093    37191.766 
  167400    284.65386    -8745.908    41.576456   -8787.4845    3751.4718 
  167600    266.91647   -8743.0636    38.985738   -8782.0493   -2591.2509 
  167800    258.64135   -8756.2098    37.777076   -8793.9869   -27757.776 
  168000     228.8805   -8756.9379    33.430215   -8790.3681   -22840.558 
  168200    300.92553   -8740.5233     43.95309   -8784.4764    14923.058 
  168400    308.02139   -8750.9909    44.989509   -8795.9804   -31570.437 
  168600    246.90891   -8755.5695     36.06344   -8791.6329    11741.115 
  168800    354.28997   -8742.4352    51.747484   -8794.1826    3456.6447 
  169000    287.55608   -8750.4677    42.000352    -8792.468    9314.9476 
  169200    198.73449   -8764.7566    29.027099   -8793.7837   -19419.387 
  169400    300.26584   -8744.9987    43.856736   -8788.8554     23352.07 
  169600    289.46067   -8740.7087    42.278536   -8782.9872   -8595.2164 
  169800    306.69248   -8756.1591    44.795409   -8800.9545   -26052.624 
  170000    311.58011   -8746.7761    45.509295   -8792.2854   -26793.157 
  170200    329.01355   -8738.3602    48.055618   -8786.4158    -20669.08 
  170400    271.92189   -8753.8104    39.716827   -8793.5272   -4180.4325 
  170600    325.10418   -8747.1433    47.484616   -8794.6279   -1253.0419 
  170800    298.11953   -8742.5575    43.543247   -8786.1007    8085.5116 
  171000    318.47498   -8745.9093    46.516357   -8792.4256   -11558.738 
  171200     308.7589   -8744.8922     45.09723   -8789.9895    24568.289 
  171400    268.78689   -8749.6871    39.258931    -8788.946   -8684.2448 
  171600     293.6228   -8745.1943    42.886456   -8788.0807   -13372.255 
  171800    328.94194   -8749.1343    48.045158   -8797.1795    19995.751 
  172000    307.66762   -8747.4703    44.937838   -8792.4082    4562.2739 
  172200    342.28501    -8746.872    49.994043    -8796.866    9564.4362 
  172400    250.38199   -8755.6642    36.570716   -8792.2349    33314.359 
  172600    330.47774   -8744.4158    48.269476   -8792.6853   -17572.174 
  172800    293.66994   -8747.0941    42.893341   -8789.9874    15562.591 
  173000    318.01783   -8745.3054    46.449587    -8791.755    6921.9021 
  173200      320.269    -8739.711    46.778392   -8786.4894    25542.847 
  173400    305.00876   -8752.2767    44.549485   -8796.8261   -3510.8679 
  173600    256.01111   -8762.1132    37.392904   -8799.5061    29190.977 
  173800    269.67568   -8749.3736    39.388746   -8788.7624   -59486.884 
  174000     362.2658   -8741.7962    52.912431   -8794.7087    9037.1698 
  174200     295.9068   -8756.6672    43.220057   -8799.8873    4423.4617 
  174400    284.71737   -8749.7171    41.585732   -8791.3028    -11649.21 
  174600    248.51742   -8749.8746    36.298378    -8786.173   -39231.276 
  174800    301.07275   -8745.4286    43.974593   -8789.4032   -741.10104 
  175000    298.64116   -8742.3786    43.619436    -8785.998    485.54153 
  175200    250.39078   -8756.0557       36.572   -8792.6277   -20755.324 
  175400    326.21302   -8749.4909    47.646574   -8797.1375    6921.0881 
  175600    283.05772    -8747.711    41.343323   -8789.0544    12978.452 
  175800    307.02426   -8749.1114    44.843869   -8793.9553    9558.7094 
  176000    268.87919   -8761.1315    39.272412   -8800.4039    473.59241 
  176200    340.01565   -8745.4302    49.662581   -8795.0928   -4234.0075 
  176400    311.49477   -8743.5995    45.496831   -8789.0964   -12099.507 
  176600    298.15777   -8750.0165    43.548832   -8793.5653   -23364.892 
  176800    296.42507   -8752.5304    43.295755   -8795.8261    7106.2849 
  177000    367.30804    -8738.779      53.6489   -8792.4279   -15921.426 
  177200    298.86786   -8751.4957    43.652548   -8795.1483   -24180.574 
  177400    345.30656   -8748.9339    50.435371   -8799.3692    9826.2443 
  177600    245.54755   -8750.3015    35.864599   -8786.1661   -17305.139 
  177800    284.49966   -8751.6436    41.553934   -8793.1975    665.03037 
  178000    305.19233   -8744.0241    44.576298   -8788.6004    3389.3676 
[...]
  950000    287.90293   -8780.5626    42.051013   -8822.6136   -7532.6067 
  950200    236.17237   -8797.3313    34.495264   -8831.8265    14721.935 
  950400    302.38888   -8780.8942    44.166827    -8825.061   -19122.657 
  950600    340.72313     -8772.19    49.765915    -8821.956    29216.691 
  950800    256.92637   -8772.3729    37.526586   -8809.8995    21648.168 
  951000    285.46209   -8784.2631    41.694505   -8825.9576    40311.754 
  951200    254.86816   -8795.1055    37.225965   -8832.3314    15368.279 
  951400    339.15506   -8777.4976    49.536884   -8827.0345    -14661.57 
  951600    272.20768   -8781.6137    39.758569   -8821.3723   -3002.7639 
  951800    223.61375    -8791.107    32.660955    -8823.768   -655.37574 
  952000    344.45601   -8774.3118    50.311139   -8824.6229   -24019.873 
  952200    273.66914   -8781.2474    39.972031   -8821.2194   -794.90011 
  952400    376.41958   -8763.0346    54.979728   -8818.0143   -12622.357 
  952600    341.30629   -8773.2171    49.851092   -8823.0682    18612.215 
  952800    255.37767   -8785.2602    37.300383   -8822.5606   -8522.9062 
  953000    366.45401   -8770.0125     53.52416   -8823.5366    13760.382 
  953200    295.51785   -8778.0157    43.163246    -8821.179   -4345.5283 
  953400    272.03673   -8779.3945    39.733601   -8819.1281   -26221.486 
  953600    329.57014    -8764.535    48.136914    -8812.672    9594.5233 
  953800     277.6798   -8777.0099    40.557826   -8817.5678   -18540.304 
  954000    301.56826   -8779.9008    44.046967   -8823.9478    20540.629 
  954200    297.85562   -8775.7836      43.5047   -8819.2883    21288.701 
  954400    233.80153   -8786.9967     34.14898   -8821.1457    6933.8391 
  954600    363.10266   -8775.6408    53.034663   -8828.6755    2267.5001 
  954800    300.85002   -8780.1856    43.942062   -8824.1276    6040.1192 
  955000    346.05374   -8757.9831    50.544503   -8808.5276    26888.976 
  955200    315.45018    -8774.215    46.074556   -8820.2895    -10582.61 
  955400    279.09149   -8783.7208    40.764018   -8824.4848     16557.35 
  955600    361.41554   -8771.8542    52.788242   -8824.6424   -23984.191 
  955800     296.7469   -8773.8821    43.342761   -8817.2249   -23173.625 
  956000     332.4861   -8782.3307    48.562818   -8830.8935    11210.983 
  956200    302.88031   -8776.2597    44.238605   -8820.4983    2645.2641 
  956400    310.30645   -8766.8115    45.323265   -8812.1348   -17554.817 
  956600    258.94392   -8777.4502    37.821269   -8815.2714    15077.972 
  956800    299.54819   -8784.6416    43.751917   -8828.3935    46951.656 
  957000    304.66249   -8788.0115    44.498909   -8832.5104   -2650.8769 
  957200    299.46551   -8770.3394     43.73984   -8814.0792    20884.105 
  957400    292.47148   -8784.7115    42.718295   -8827.4298   -9501.4113 
  957600    305.42503   -8784.5236    44.610286   -8829.1339   -725.90035 
  957800    292.47398   -8778.3116     42.71866   -8821.0302    26334.773 
  958000     334.0855   -8771.3706    48.796426    -8820.167   -9727.5494 
  958200    282.00849   -8783.5584    41.190074   -8824.7484   -28145.476 
  958400    285.84307   -8783.0577    41.750151   -8824.8078     17523.29 
  958600     295.2142   -8769.4472    43.118895   -8812.5661    12821.111 
  958800    295.67639   -8781.4908    43.186402   -8824.6772   -6428.2091 
  959000      326.723   -8777.1798    47.721061   -8824.9009    23588.363 
  959200    394.61761   -8761.0484    57.637727   -8818.6861   -1160.2953 
  959400     332.5185   -8773.1105     48.56755   -8821.6781    -10584.42 
  959600    315.60449   -8787.5193    46.097095   -8833.6164   -11041.922 
  959800    347.40333   -8774.3957    50.741623   -8825.1373   -14323.838 
  960000    306.24575   -8771.1492     44.73016   -8815.8794   -2559.3672 
  960200    279.31148   -8786.6725    40.796148   -8827.4687    -23198.66 
  960400    264.79644    -8785.244    38.676087   -8823.9201    13845.508 
  960600    278.19485   -8776.4894    40.633055   -8817.1224    10137.321 
  960800    296.61742   -8784.9745     43.32385   -8828.2984    8072.0737 
  961000    298.18925   -8786.5548    43.553431   -8830.1082   -7806.0478 
  961200    275.15704    -8776.447    40.189352   -8816.6364    35809.789 
  961400    293.81265   -8782.2903    42.914185   -8825.2044    9509.1327 
  961600    259.89589   -8789.7813    37.960314   -8827.7416    14210.499 
  961800      336.861   -8773.7988    49.201814   -8823.0006    5875.1812 
  962000     293.6153   -8781.9666    42.885361   -8824.8519    7781.6011 
  962200    253.61619   -8795.1003    37.043103   -8832.1434    18749.135 
  962400    310.84042   -8779.9928    45.401257    -8825.394   -2195.7647 
  962600    321.97028   -8770.4193     47.02688   -8817.4461   -2217.5652 
  962800     251.1254   -8788.5013    36.679298   -8825.1806    6823.1894 
  963000    283.88653   -8779.0785    41.464379   -8820.5428   -13710.643 
  963200    313.73371   -8774.7053     45.82385   -8820.5292   -3047.0084 
  963400    254.82006    -8791.652    37.218939    -8828.871   -23032.196 
  963600    301.97106   -8776.6228      44.1058   -8820.7286   -4982.8819 
  963800    305.17576   -8776.5112    44.573878   -8821.0851    5738.6165 
  964000    270.38668   -8790.8551    39.492596   -8830.3477   -52777.856 
  964200    256.38214   -8789.4659    37.447097    -8826.913   -1965.8097 
  964400    343.51969   -8774.8594     50.17438   -8825.0338    8993.6026 
  964600    239.79919   -8786.3076    35.024996   -8821.3326   -2146.1858 
  964800    331.65195   -8771.8526    48.440982   -8820.2935    13126.456 
  965000    357.95208     -8771.55    52.282371   -8823.8324    661.99218 
  965200    340.74948   -8780.2304    49.769764   -8830.0002    14876.066 
  965400    260.46237   -8792.3871    38.043054   -8830.4301   -3304.0124 
  965600    194.86397   -8789.3687    28.461772   -8817.8305    14901.761 
  965800    384.96161   -8775.0257    56.227375   -8831.2531   -30849.268 
  966000    250.03259   -8784.7807    36.519684   -8821.3004      43643.1 
  966200    353.19464   -8768.6745      51.5875    -8820.262     2542.222 
  966400    263.49983   -8779.3126    38.486704   -8817.7993   -10106.618 
  966600    270.14435   -8791.7831    39.457201   -8831.2403     2195.769 
  966800    331.00113   -8777.0162    48.345923   -8825.3622   -8423.1669 
  967000     235.1185   -8782.9515    34.341336   -8817.2928    154.23556 
  967200    344.35979   -8767.3483    50.297085   -8817.6453   -30783.504 
  967400    303.99623   -8777.5718    44.401596   -8821.9734   -19519.174 
  967600    289.59737    -8778.715    42.298502   -8821.0135    3240.7553 
  967800     375.3664   -8768.2972    54.825902   -8823.1231    22332.826 
  968000    280.47506   -8784.1491    40.966101   -8825.1152    8236.7801 
  968200    273.76379   -8783.5098    39.985855   -8823.4957    20095.033 
  968400    327.48083   -8772.9218    47.831749   -8820.7535    39257.084 
  968600     231.0147   -8791.6263    33.741937   -8825.3683    25814.141 
  968800    309.64619   -8775.2302    45.226827   -8820.4571   -9171.5876 
  969000    321.22696   -8775.6664    46.918312   -8822.5847   -22325.716 
  969200    270.01177   -8786.8792    39.437836   -8826.3171   -16689.072 
  969400    329.24647   -8772.7449    48.089639   -8820.8345    1138.1788 
  969600    291.37668    -8775.858    42.558388   -8818.4164   -6974.3505 
  969800    362.36015   -8774.4473    52.926212   -8827.3735    15022.755 
  970000    253.46402    -8786.968    37.020877   -8823.9889   -15441.925 
  970200    330.63864   -8773.1271    48.292979   -8821.4201    4961.7463 
  970400    297.14038   -8780.1476    43.400232   -8823.5478   -6738.5007 
  970600    234.20465   -8780.6729    34.207859   -8814.8808     27382.24 
  970800    305.56414   -8761.8107    44.630604   -8806.4413    17138.248 
  971000    346.07681   -8766.7179    50.547873   -8817.2657    4200.6501 
  971200     328.6916   -8781.2704    48.008593    -8829.279   -10111.663 
  971400    285.42474   -8783.8456     41.68905   -8825.5347    8023.1984 
  971600    353.60787   -8766.5408    51.647857   -8818.1887     4606.548 
  971800    324.65746   -8778.8507    47.419369   -8826.2701    13732.225 
  972000    260.55772   -8785.3801     38.05698   -8823.4371    19391.428 
  972200    317.92677    -8772.038    46.436286   -8818.4742    39544.114 
  972400    253.24397   -8775.3651    36.988737   -8812.3538    44324.578 
  972600    263.34292   -8779.9013    38.463785   -8818.3651    41929.186 
  972800    339.50851   -8776.0773    49.588509   -8825.6658   -559.73481 
  973000    315.98084   -8777.6403    46.152064   -8823.7923   -19157.623 
  973200    266.79818   -8783.7148     38.96846   -8822.6833    439.59626 
  973400    318.65808   -8774.5362    46.543102   -8821.0793   -12240.216 
  973600    364.14357   -8762.4987    53.186698   -8815.6854   -2695.5547 
  973800    326.30158   -8779.3845    47.659509    -8827.044    8806.8555 
  974000    276.33672   -8786.2886    40.361657   -8826.6502   -1928.0845 
  974200    259.32633   -8788.5881    37.877124   -8826.4652    15621.496 
  974400     322.2946   -8774.9552     47.07425   -8822.0295    32259.453 
  974600     268.1867   -8786.8652    39.171267   -8826.0364    -10055.85 
  974800    259.96454   -8791.8301    37.970341   -8829.8005    7505.1372 
  975000    315.91133   -8779.2289    46.141912   -8825.3709   -7359.2326 
  975200    294.33165   -8772.2526     42.98999   -8815.2426   -3693.0581 
  975400    276.07199    -8789.948     40.32299    -8830.271    -21056.01 
  975600    324.58718   -8783.6305    47.409104   -8831.0396    35127.699 
  975800     297.8415   -8779.6067    43.502638   -8823.1094   -2890.8537 
  976000    318.62225   -8765.6558    46.537868   -8812.1937    22772.461 
  976200    249.11741   -8784.6501    36.386012   -8821.0361    14396.156 
  976400    332.43103   -8774.7051    48.554774   -8823.2598    9902.9724 
  976600    335.75741   -8781.3374    49.040624    -8830.378    3074.9959 
  976800    292.27529   -8788.6524    42.689639   -8831.3421    16967.109 
  977000    325.80543   -8777.0131    47.587041   -8824.6001   -555.94793 
  977200    226.32826   -8782.7424    33.057435   -8815.7999    14748.566 
  977400     281.7595   -8789.0736    41.153705   -8830.2273    24181.874 
  977600    259.11891   -8770.8734    37.846828   -8808.7202    8405.9264 
  977800    341.81703   -8770.9857     49.92569   -8820.9114   -11302.196 
  978000     313.6031   -8789.6257    45.804772   -8835.4305    3031.3201 
  978200    319.87633   -8780.1067    46.721038   -8826.8278     12879.43 
  978400    341.47485   -8760.7005    49.875711   -8810.5762    1395.5775 
  978600    290.02278   -8783.2115    42.360638   -8825.5722    6667.4957 
  978800    316.54569    -8780.664    46.234567   -8826.8986   -18521.183 
  979000    332.43628   -8767.3505    48.555541   -8815.9061    26870.319 
  979200    293.12219   -8785.1557    42.813337    -8827.969   -12285.626 
  979400    347.78359   -8780.9499    50.797164    -8831.747   -8781.0126 
  979600     329.6279   -8777.3428     48.14535   -8825.4882   -949.98299 
  979800    290.82742   -8790.5381    42.478164   -8833.0162     28535.71 
  980000    332.71846   -8778.8003    48.596755   -8827.3971   -9269.7193 
  980200     320.5591   -8772.8919    46.820763   -8819.7127   -14437.258 
  980400    279.23755   -8781.0098     40.78535   -8821.7952   -5125.7833 
  980600    306.45408   -8788.5991    44.760588   -8833.3597   -478.67414 
  980800    319.51309    -8770.816    46.667983   -8817.4839    41888.622 
  981000    374.79068   -8774.3107    54.741811   -8829.0525    20876.253 
  981200    286.32979   -8785.9369    41.821241   -8827.7582    5102.3052 
  981400    317.42384    -8771.726    46.362828   -8818.0889   -5834.6548 
  981600    340.52299   -8774.2198    49.736683   -8823.9565     6783.029 
  981800    260.45334    -8782.599    38.041735   -8820.6407    1548.6644 
  982000    390.40274    -8768.742    57.022104   -8825.7641    6565.4044 
  982200    266.33285    -8778.841    38.900494   -8817.7415    9749.6735 
  982400    310.54173   -8775.4249     45.35763   -8820.7825   -4245.9652 
  982600    283.42395   -8781.3348    41.396815   -8822.7316   -1719.6621 
  982800    263.09805   -8785.0429    38.428021   -8823.4709   -22923.861 
  983000    358.70575   -8769.0323    52.392451   -8821.4247   -13536.004 
  983200    269.84201   -8781.5888    39.413041   -8821.0019   -9217.2479 
  983400    265.44329   -8782.4786    38.770565   -8821.2492    1253.6223 
  983600    310.77715   -8774.2423    45.392015   -8819.6343   -3288.5349 
  983800    389.02586   -8752.0763    56.820997   -8808.8973   -3185.3999 
  984000    307.06885   -8770.4683    44.850382   -8815.3187   -31501.875 
  984200     277.1909   -8783.7511    40.486417   -8824.2375   -39485.396 
  984400    282.86414   -8786.7873    41.315049   -8828.1023    -8600.625 
  984600    335.97984   -8769.2872    49.073112   -8818.3604   -29934.491 
  984800    290.49241   -8781.0441    42.429232   -8823.4734    5757.6654 
  985000    318.22616   -8778.8967    46.480016   -8825.3767     36130.91 
  985200    345.53351   -8773.1726    50.468518   -8823.6411    16235.014 
  985400      302.728   -8777.8651    44.216359   -8822.0814    11987.662 
  985600    303.93627   -8778.2846    44.392838   -8822.6774   -7242.8413 
  985800    289.59545   -8794.5481    42.298223   -8836.8463    22798.914 
  986000    299.04899   -8779.6555    43.679004   -8823.3345    10908.038 
  986200    308.06366   -8777.9521    44.995683   -8822.9478    7912.8393 
  986400    275.04951   -8781.7609    40.173646   -8821.9346    23853.982 
  986600    324.29378   -8776.0916     47.36625   -8823.4579    -7351.641 
  986800    329.64869   -8769.2507    48.148386   -8817.3991    5186.2672 
  987000    290.30081   -8784.6969    42.401246   -8827.0981   -10279.393 
  987200    344.12729   -8778.1565    50.263126   -8828.4197   -24854.492 
  987400       339.89   -8761.7856    49.644229   -8811.4298    18082.499 
  987600    267.36279   -8778.3017    39.050927   -8817.3526    13358.508 
  987800    305.71007   -8782.3673    44.651919   -8827.0192   -956.03359 
  988000    296.53648   -8766.7148    43.312027   -8810.0268   -20172.186 
  988200    262.52202   -8781.6753    38.343885   -8820.0192    7787.4249 
  988400     306.1029   -8784.7035    44.709296   -8829.4128   -23333.233 
  988600    298.05297   -8766.6723    43.533526   -8810.2058   -9460.8298 
  988800    286.46447   -8771.5343    41.840913   -8813.3752   -10037.528 
  989000    312.66794   -8777.8227    45.668183   -8823.4909   -7120.5121 
  989200    251.97023   -8779.5859    36.802694   -8816.3886     24668.85 
  989400    323.57363   -8767.9379    47.261066    -8815.199    8792.1771 
  989600    302.54007   -8786.0464    44.188909   -8830.2353    12005.949 
  989800    272.57603   -8784.3237     39.81237   -8824.1361   -8707.9862 
  990000    315.05977     -8764.64    46.017534   -8810.6575    17014.615 
  990200    328.76189   -8778.4966    48.018861   -8826.5155   -19614.337 
  990400    296.82694   -8777.4484    43.354452   -8820.8029   -15357.288 
  990600     387.7449   -8750.4784    56.633901   -8807.1123    39236.128 
  990800     299.0978   -8770.4384    43.686132   -8814.1245   -16054.964 
  991000    285.67107   -8788.0788    41.725029   -8829.8038   -14308.947 
  991200      312.381    -8776.913    45.626272   -8822.5393    24577.332 
  991400     274.8233    -8774.788    40.140606   -8814.9286    16897.213 
  991600    285.04894   -8784.0463    41.634161   -8825.6805    8656.7226 
  991800     282.0782   -8792.9067    41.200256    -8834.107    7611.1529 
  992000    347.46988   -8775.7455    50.751344   -8826.4968   -6209.9032 
  992200    246.84778   -8783.7427     36.05451   -8819.7972   -14191.397 
  992400    274.96091   -8797.0471    40.160706   -8837.2078    10193.897 
  992600    306.74343   -8776.6255    44.802851   -8821.4284    33507.026 
  992800     356.1812   -8768.1648    52.023717   -8820.1885    24803.575 
  993000    285.89255   -8782.6705    41.757377   -8824.4279   -11268.873 
  993200    291.40459    -8776.851    42.562465   -8819.4134    37795.433 
  993400    294.53594   -8779.8601    43.019829   -8822.8799    7777.6923 
  993600    279.37583   -8784.9803    40.805547   -8825.7858     26827.01 
  993800    269.17817   -8776.7111    39.316081   -8816.0271   -7033.1507 
  994000    316.73071   -8769.4623     46.26159   -8815.7239   -24857.347 
  994200    266.32108   -8787.6811    38.898775   -8826.5799   -14617.787 
  994400    251.01445   -8784.7195    36.663093   -8821.3826   -19184.208 
  994600     311.5603    -8770.123    45.506401   -8815.6294   -14231.491 
  994800    275.37869   -8785.9166    40.221726   -8826.1383   -20320.863 
  995000    286.19483   -8780.0625    41.801529    -8821.864    14343.279 
  995200    312.80406   -8771.3887    45.688065   -8817.0767   -5111.9044 
  995400    247.03619   -8784.6958    36.082029   -8820.7778   -10864.039 
  995600     335.8634   -8778.5379    49.056104    -8827.594    8653.0758 
  995800    325.21038   -8769.0379    47.500128    -8816.538    46866.214 
  996000    261.70741   -8783.0628    38.224903   -8821.2877     43677.91 
  996200    270.93381   -8780.8668    39.572509   -8820.4394    8568.7404 
  996400    317.79104   -8765.1464    46.416461   -8811.5629   -2931.6215 
  996600    298.54385   -8777.4319    43.605222   -8821.0371    49002.003 
  996800     265.7587   -8780.4421    38.816633   -8819.2587    73501.832 
  997000    318.82379   -8771.4514    46.567305   -8818.0187    1516.9874 
  997200    286.64677   -8789.3729    41.867539   -8831.2404   -7528.9291 
  997400    323.53381   -8776.3449    47.255249   -8823.6001   -45743.416 
  997600    322.24619   -8777.2509     47.06718   -8824.3181   -46674.973 
  997800    289.90785   -8775.9275    42.343852   -8818.2713    18714.177 
  998000    277.61544   -8777.6221    40.548426   -8818.1705   -11618.711 
  998200    328.87655   -8775.2413    48.035608   -8823.2769   -6881.0509 
  998400    238.17047   -8784.1396    34.787106   -8818.9267    7252.8067 
  998600    328.98748   -8775.5302     48.05181    -8823.582    3218.5064 
  998800    273.97128   -8777.0751    40.016161   -8817.0913    7606.8301 
  999000    304.56676   -8782.5864    44.484927   -8827.0713     35589.62 
  999200    277.94749   -8770.9753    40.596924   -8811.5722   -12433.998 
  999400    391.82208   -8760.9752    57.229412   -8818.2047   -4250.9521 
  999600    285.35197   -8777.1151    41.678422   -8818.7935    4062.3993 
  999800    295.44048   -8784.4201    43.151946   -8827.5721    8477.3551 
 1000000    255.26752   -8791.4194    37.284295   -8828.7037   -15037.901 
Loop time of 2325.54 on 8 procs for 1000000 steps with 50 atoms

Performance: 9.288 ns/day, 2.584 hours/ns, 430.007 timesteps/s
99.4% CPU use with 8 MPI tasks x no OpenMP threads

MPI task timing breakdown:
Section |  min time  |  avg time  |  max time  |%varavg| %total
---------------------------------------------------------------
Pair    | 1957.9     | 1995.1     | 2020.3     |  46.3 | 85.79
Neigh   | 0.44691    | 0.45382    | 0.47039    |   1.1 |  0.02
Comm    | 24.085     | 49.216     | 86.456     | 294.0 |  2.12
Output  | 0.07676    | 0.083486   | 0.12253    |   5.1 |  0.00
Modify  | 278.87     | 279.07     | 279.23     |   0.7 | 12.00
Other   |            | 1.604      |            |       |  0.07

Nlocal:    6.25 ave 7 max 6 min
Histogram: 6 0 0 0 0 0 0 0 0 2
Nghost:    595.5 ave 604 max 586 min
Histogram: 2 0 0 0 2 0 2 0 0 2
Neighs:    813.75 ave 898 max 777 min
Histogram: 4 2 0 0 0 0 0 0 0 2

Total # of neighbors = 6510
Ave neighs/atom = 130.2
Neighbor list builds = 675
Dangerous builds = 0

unfix 1
unfix output
undump 1

Please see the log.cite file for references relevant to this simulation

Total wall time: 0:39:02
