ITEM: TIMESTEP
0
ITEM: NUMBER OF ATOMS
50
ITEM: BOX BOUNDS pp pp pp
0.0000000000000000e+00 1.1000000000000000e+01
0.0000000000000000e+00 1.1002000000000001e+01
0.0000000000000000e+00 1.1000000000000000e+01
ITEM: ATOMS id type x y z 
10 1 4.603 4.603 4.603 
11 1 3.085 3.085 3.085 
12 1 3.796 3.796 3.796 
46 1 0.726 0.725 0.725 
47 1 2.26 2.259 2.26 
48 1 1.551 1.55 1.55 
19 1 4.546 4.545 6.226 
20 1 3.013 3.013 7.764 
21 1 3.721 3.721 7.053 
31 1 0.668 0.667 10.103 
32 1 2.187 2.187 8.589 
33 1 1.476 1.475 9.298 
16 1 4.546 6.225 4.546 
17 1 3.013 7.765 3.013 
18 1 3.721 7.053 3.722 
25 1 0.668 10.103 0.668 
26 1 2.188 8.589 2.188 
27 1 1.476 9.298 1.476 
4 1 4.608 6.169 6.169 
5 1 3.086 7.684 7.684 
6 1 3.799 6.974 6.974 
37 1 0.729 10.046 10.046 
38 1 2.259 8.509 8.508 
39 1 1.552 9.219 9.219 
13 1 6.225 4.546 4.546 
14 1 7.764 3.013 3.013 
15 1 7.053 3.721 3.722 
28 1 10.102 0.667 0.668 
29 1 8.589 2.187 2.188 
30 1 9.298 1.475 1.476 
1 1 6.168 4.608 6.169 
2 1 7.684 3.086 7.684 
3 1 6.974 3.799 6.974 
40 1 10.045 0.728 10.046 
41 1 8.508 2.259 8.508 
42 1 9.218 1.551 9.218 
7 1 6.169 6.169 4.608 
8 1 7.684 7.684 3.086 
9 1 6.974 6.974 3.799 
43 1 10.046 10.047 0.729 
44 1 8.508 8.509 2.259 
45 1 9.219 9.219 1.552 
22 1 6.229 6.229 6.229 
23 1 7.764 7.765 7.765 
24 1 7.055 7.056 7.055 
34 1 10.108 10.108 10.107 
35 1 8.59 8.59 8.59 
36 1 9.301 9.301 9.3 
49 2 6.457 6.974 8.272 
50 3 6.457 6.974 9.248 
ITEM: TIMESTEP
10
ITEM: NUMBER OF ATOMS
50
ITEM: BOX BOUNDS pp pp pp
0.0000000000000000e+00 1.1000000000000000e+01
0.0000000000000000e+00 1.1002000000000001e+01
0.0000000000000000e+00 1.1000000000000000e+01
ITEM: ATOMS id type x y z 
10 1 4.60731 4.60673 4.60756 
11 1 3.08571 3.0857 3.08671 
12 1 3.79755 3.79701 3.79549 
46 1 0.726206 0.725459 0.72588 
47 1 2.26065 2.2598 2.26111 
48 1 1.55253 1.55185 1.55077 
19 1 4.53266 4.53562 6.22291 
20 1 3.01169 3.01149 7.7666 
21 1 3.72062 3.72037 7.05105 
31 1 0.664509 0.664127 10.1041 
32 1 2.18509 2.18645 8.59057 
33 1 1.47498 1.472 9.29888 
16 1 4.5312 6.22175 4.5354 
17 1 3.01185 7.76659 3.01152 
18 1 3.72061 7.05162 3.72183 
25 1 0.664894 10.1041 0.664372 
26 1 2.18649 8.59128 2.1869 
27 1 1.47398 9.29844 1.47377 
4 1 4.61522 6.16749 6.1689 
5 1 3.08455 7.68259 7.68349 
6 1 3.80277 6.97727 6.97562 
37 1 0.728114 10.0466 10.0457 
38 1 2.25773 8.51035 8.50892 
39 1 1.55184 9.21974 9.22072 
13 1 6.22076 4.53123 4.5312 
14 1 7.76579 3.01182 3.01143 
15 1 7.05174 3.72055 3.7225 
28 1 10.1022 0.663688 0.664091 
29 1 8.58995 2.18526 2.18575 
30 1 9.30044 1.47345 1.47522 
1 1 6.16855 4.61369 6.16967 
2 1 7.68471 3.08307 7.68452 
3 1 6.97725 3.80077 6.97838 
40 1 10.0455 0.72754 10.0465 
41 1 8.50931 2.25874 8.50915 
42 1 9.21922 1.54954 9.2194 
7 1 6.17077 6.16976 4.61416 
8 1 7.68423 7.68498 3.08257 
9 1 6.97944 6.97778 3.80136 
43 1 10.046 10.0474 0.728972 
44 1 8.50901 8.51013 2.25789 
45 1 9.2202 9.2203 1.55142 
22 1 6.19485 6.18607 6.17706 
23 1 7.83038 7.80921 7.76686 
24 1 7.04547 7.09901 7.14067 
34 1 10.0966 10.0975 10.0965 
35 1 8.59156 8.58657 8.58394 
36 1 9.30483 9.3027 9.3025 
49 2 6.47282 6.96642 8.25499 
50 3 6.4356 6.96737 9.26065 
ITEM: TIMESTEP
20
ITEM: NUMBER OF ATOMS
50
ITEM: BOX BOUNDS pp pp pp
0.0000000000000000e+00 1.1000000000000000e+01
0.0000000000000000e+00 1.1002000000000001e+01
0.0000000000000000e+00 1.1000000000000000e+01
ITEM: ATOMS id type x y z 
10 1 4.6079 4.60653 4.60452 
11 1 3.08532 3.0855 3.08624 
12 1 3.79685 3.79571 3.79495 
46 1 0.727054 0.725997 0.726117 
47 1 2.26063 2.25978 2.26051 
48 1 1.55146 1.55109 1.55071 
19 1 4.52847 4.53236 6.22026 
20 1 3.01086 3.01026 7.76846 
21 1 3.7157 3.71708 7.04989 
31 1 0.665617 0.663299 10.1041 
32 1 2.1848 2.18511 8.59139 
33 1 1.47375 1.47214 9.30017 
16 1 4.5228 6.21704 4.53264 
17 1 3.0118 7.76938 3.01076 
18 1 3.71403 7.048 3.71811 
25 1 0.666888 10.1046 0.663869 
26 1 2.18587 8.59247 2.18617 
27 1 1.47348 9.29915 1.47256 
4 1 4.61877 6.16567 6.16455 
5 1 3.08854 7.68298 7.68316 
6 1 3.80212 6.97521 6.97438 
37 1 0.732159 10.0468 10.0467 
38 1 2.25884 8.50897 8.50862 
39 1 1.55331 9.21965 9.21931 
13 1 6.21444 4.52229 4.52723 
14 1 7.76986 3.01106 3.01124 
15 1 7.04682 3.71394 3.71609 
28 1 10.1033 0.665548 0.665047 
29 1 8.59114 2.18495 2.18562 
30 1 9.30039 1.47309 1.47358 
1 1 6.16854 4.61642 6.16833 
2 1 7.68505 3.08626 7.68507 
3 1 6.9764 3.80031 6.97744 
40 1 10.0455 0.7311 10.0464 
41 1 8.50883 2.25856 8.50876 
42 1 9.21929 1.55161 9.21957 
7 1 6.17309 6.17146 4.61358 
8 1 7.68674 7.68764 3.08375 
9 1 6.98015 6.97812 3.7986 
43 1 10.0459 10.0469 0.733042 
44 1 8.50892 8.50972 2.25773 
45 1 9.22038 9.22117 1.55226 
22 1 6.18806 6.17507 6.16073 
23 1 7.84659 7.82186 7.7511 
24 1 7.01004 7.10519 7.21514 
34 1 10.1021 10.1039 10.1051 
35 1 8.60912 8.59377 8.57734 
36 1 9.31532 9.30839 9.30351 
49 2 6.4972 6.96574 8.24684 
50 3 6.41583 6.96019 9.25475 
ITEM: TIMESTEP
30
ITEM: NUMBER OF ATOMS
50
ITEM: BOX BOUNDS pp pp pp
0.0000000000000000e+00 1.1000000000000000e+01
0.0000000000000000e+00 1.1002000000000001e+01
0.0000000000000000e+00 1.1000000000000000e+01
ITEM: ATOMS id type x y z 
10 1 4.60772 4.60558 4.60231 
11 1 3.08444 3.08518 3.08513 
12 1 3.79648 3.79417 3.79468 
46 1 0.727421 0.726725 0.726343 
47 1 2.2603 2.25992 2.25985 
48 1 1.55129 1.55021 1.5514 
19 1 4.52776 4.53164 6.21998 
20 1 3.01017 3.01009 7.76809 
21 1 3.71516 3.71657 7.0488 
31 1 0.665814 0.663262 10.1041 
32 1 2.18503 2.18574 8.592 
33 1 1.4742 1.47115 9.29939 
16 1 4.52096 6.21516 4.53149 
17 1 3.01065 7.7692 3.01038 
18 1 3.71242 7.04659 3.71712 
25 1 0.667868 10.1042 0.662828 
26 1 2.1861 8.59227 2.1861 
27 1 1.47442 9.30031 1.47275 
4 1 4.62042 6.16329 6.1624 
5 1 3.09078 7.68136 7.68234 
6 1 3.80381 6.97473 6.97222 
37 1 0.734538 10.0477 10.0472 
38 1 2.25951 8.50859 8.5076 
39 1 1.55546 9.2188 9.21987 
13 1 6.21106 4.52033 4.52564 
14 1 7.76937 3.01015 3.01056 
15 1 7.04506 3.71225 3.71494 
28 1 10.1033 0.666261 0.664744 
29 1 8.59121 2.18503 2.18584 
30 1 9.30145 1.47417 1.47373 
1 1 6.16729 4.61853 6.16725 
2 1 7.68381 3.08825 7.68428 
3 1 6.97578 3.80237 6.97606 
40 1 10.0458 0.733157 10.0473 
41 1 8.50787 2.25891 8.50852 
42 1 9.22013 1.55326 9.2193 
7 1 6.17356 6.17137 4.61529 
8 1 7.68605 7.6869 3.0849 
9 1 6.97979 6.9777 3.8005 
43 1 10.0463 10.0477 0.734903 
44 1 8.50843 8.50977 2.25784 
45 1 9.22117 9.22101 1.55338 
22 1 6.18932 6.17553 6.15907 
23 1 7.84728 7.82334 7.7446 
24 1 6.99819 7.10694 7.23549 
34 1 10.104 10.1056 10.1084 
35 1 8.61949 8.59824 8.56894 
36 1 9.32053 9.31072 9.30109 
49 2 6.50321 6.96371 8.25717 
50 3 6.40374 6.95535 9.25196 
ITEM: TIMESTEP
40
ITEM: NUMBER OF ATOMS
50
ITEM: BOX BOUNDS pp pp pp
0.0000000000000000e+00 1.1000000000000000e+01
0.0000000000000000e+00 1.1002000000000001e+01
0.0000000000000000e+00 1.1000000000000000e+01
ITEM: ATOMS id type x y z 
10 1 4.60931 4.59873 4.58877 
11 1 3.08105 3.07963 3.07885 
12 1 3.79015 3.78982 3.79025 
46 1 0.72789 0.729099 0.729977 
47 1 2.25721 2.25899 2.25941 
48 1 1.5499 1.54673 1.54775 
19 1 4.52547 4.52762 6.2188 
20 1 3.0072 3.00876 7.76276 
21 1 3.71309 3.71672 7.04638 
31 1 0.664145 0.660988 10.0987 
32 1 2.1859 2.18821 8.59298 
33 1 1.47731 1.4682 9.29721 
16 1 4.51193 6.20492 4.5243 
17 1 3.00534 7.76372 3.00939 
18 1 3.7055 7.03931 3.71538 
25 1 0.672215 10.1014 0.65765 
26 1 2.18641 8.59269 2.18737 
27 1 1.48123 9.30315 1.46986 
4 1 4.63065 6.15105 6.14869 
5 1 3.1024 7.67302 7.67683 
6 1 3.81436 6.972 6.96246 
37 1 0.747413 10.0523 10.0503 
38 1 2.2662 8.50539 8.50312 
39 1 1.56766 9.21517 9.22034 
13 1 6.19494 4.50977 4.51612 
14 1 7.76373 3.00539 3.00875 
15 1 7.03207 3.70423 3.7088 
28 1 10.1026 0.670441 0.659573 
29 1 8.59257 2.18647 2.18592 
30 1 9.30629 1.47811 1.47516 
1 1 6.15981 4.63498 6.16325 
2 1 7.67788 3.0982 7.68132 
3 1 6.97554 3.81288 6.96997 
40 1 10.0494 0.742272 10.0528 
41 1 8.50473 2.26255 8.50842 
42 1 9.22108 1.563 9.21641 
7 1 6.17524 6.17317 4.632 
8 1 7.68418 7.68536 3.09091 
9 1 6.98003 6.97603 3.80775 
43 1 10.0483 10.0517 0.74078 
44 1 8.5067 8.51037 2.26029 
45 1 9.22369 9.21985 1.559 
22 1 6.19686 6.18008 6.1566 
23 1 7.85357 7.84032 7.72387 
24 1 6.94451 7.11804 7.31906 
34 1 10.1136 10.1121 10.1239 
35 1 8.67876 8.62236 8.50792 
36 1 9.35219 9.32399 9.27574 
49 2 6.52651 6.94841 8.32958 
50 3 6.3213 6.92134 9.26468 
ITEM: TIMESTEP
50
ITEM: NUMBER OF ATOMS
50
ITEM: BOX BOUNDS pp pp pp
0.0000000000000000e+00 1.1000000000000000e+01
0.0000000000000000e+00 1.1002000000000001e+01
0.0000000000000000e+00 1.1000000000000000e+01
ITEM: ATOMS id type x y z 
10 1 4.60839 4.59853 4.58979 
11 1 3.07822 3.07891 3.08019 
12 1 3.79328 3.78919 3.78571 
46 1 0.727718 0.727092 0.728706 
47 1 2.25762 2.25773 2.25815 
48 1 1.54783 1.54739 1.5484 
19 1 4.52731 4.52933 6.22001 
20 1 3.00739 3.01009 7.76313 
21 1 3.71396 3.71653 7.04495 
31 1 0.664641 0.65964 10.0962 
32 1 2.18751 2.18632 8.59213 
33 1 1.47432 1.47105 9.29659 
16 1 4.51424 6.20579 4.52513 
17 1 3.00449 7.76282 3.01015 
18 1 3.7063 7.03846 3.71496 
25 1 0.672801 10.1017 0.657161 
26 1 2.18821 8.59391 2.18674 
27 1 1.4783 9.30035 1.47025 
4 1 4.63167 6.15319 6.14814 
5 1 3.10272 7.67589 7.67492 
6 1 3.81309 6.9684 6.96547 
37 1 0.74741 10.0507 10.051 
38 1 2.26836 8.50418 8.50521 
39 1 1.5678 9.21632 9.21736 
13 1 6.19524 4.51162 4.51609 
14 1 7.76123 3.00438 3.00807 
15 1 7.03261 3.70538 3.7097 
28 1 10.1036 0.670545 0.660106 
29 1 8.59485 2.18755 2.18798 
30 1 9.30146 1.47714 1.4721 
1 1 6.16137 4.63639 6.16369 
2 1 7.67971 3.09799 7.67979 
3 1 6.9731 3.81389 6.97389 
40 1 10.0506 0.741621 10.0504 
41 1 8.50686 2.264 8.50779 
42 1 9.21885 1.56173 9.21922 
7 1 6.176 6.17341 4.6338 
8 1 7.68442 7.68427 3.08998 
9 1 6.98026 6.97901 3.81069 
43 1 10.0493 10.0493 0.737789 
44 1 8.50922 8.51036 2.26111 
45 1 9.22127 9.22169 1.55689 
22 1 6.19799 6.18251 6.16163 
23 1 7.84849 7.84066 7.72645 
24 1 6.95443 7.12139 7.30911 
34 1 10.1127 10.1109 10.122 
35 1 8.68023 8.62267 8.50343 
36 1 9.35546 9.32436 9.26795 
49 2 6.52329 6.9471 8.33419 
50 3 6.30986 6.91555 9.28176 
ITEM: TIMESTEP
60
ITEM: NUMBER OF ATOMS
50
ITEM: BOX BOUNDS pp pp pp
0.0000000000000000e+00 1.1000000000000000e+01
0.0000000000000000e+00 1.1002000000000001e+01
0.0000000000000000e+00 1.1000000000000000e+01
ITEM: ATOMS id type x y z 
10 1 4.61016 4.59825 4.58809 
11 1 3.07818 3.07866 3.07958 
12 1 3.79402 3.78865 3.78437 
46 1 0.72486 0.724895 0.727387 
47 1 2.25577 2.25608 2.25691 
48 1 1.54568 1.54607 1.54767 
19 1 4.52953 4.53026 6.21916 
20 1 3.0077 3.01064 7.76151 
21 1 3.71701 3.71819 7.04705 
31 1 0.663812 0.659045 10.0931 
32 1 2.18756 2.18677 8.59047 
33 1 1.47396 1.47129 9.29418 
16 1 4.51754 6.20614 4.52606 
17 1 3.00357 7.76035 3.01143 
18 1 3.7095 7.03884 3.71466 
25 1 0.671584 10.1007 0.656878 
26 1 2.18824 8.59286 2.18678 
27 1 1.47795 9.2989 1.47029 
4 1 4.6312 6.1546 6.14994 
5 1 3.10254 7.67608 7.67506 
6 1 3.81373 6.96863 6.96585 
37 1 0.747688 10.0495 10.0489 
38 1 2.27075 8.50481 8.50593 
39 1 1.56874 9.21668 9.21713 
13 1 6.19603 4.51573 4.51722 
14 1 7.75857 3.00381 3.00837 
15 1 7.03204 3.707 3.70995 
28 1 10.1028 0.669055 0.659201 
29 1 8.59386 2.18703 2.18715 
30 1 9.30105 1.4768 1.47194 
1 1 6.16227 4.63816 6.16758 
2 1 7.68051 3.09832 7.68048 
3 1 6.97375 3.81555 6.97587 
40 1 10.0501 0.740125 10.0491 
41 1 8.50737 2.26582 8.50805 
42 1 9.21899 1.56198 9.21895 
7 1 6.17756 6.17602 4.6376 
8 1 7.68515 7.68497 3.09086 
9 1 6.98164 6.9807 3.81287 
43 1 10.0477 10.0478 0.731891 
44 1 8.51058 8.51138 2.26131 
45 1 9.22109 9.22159 1.55446 
22 1 6.1999 6.18475 6.16546 
23 1 7.84678 7.8434 7.72832 
24 1 6.95966 7.12197 7.30492 
34 1 10.1129 10.108 10.1153 
35 1 8.68421 8.62577 8.49528 
36 1 9.36001 9.3254 9.26026 
49 2 6.51971 6.94632 8.34155 
50 3 6.2905 6.90473 9.30367 
ITEM: TIMESTEP
70
ITEM: NUMBER OF ATOMS
50
ITEM: BOX BOUNDS pp pp pp
0.0000000000000000e+00 1.1000000000000000e+01
0.0000000000000000e+00 1.1002000000000001e+01
0.0000000000000000e+00 1.1000000000000000e+01
ITEM: ATOMS id type x y z 
10 1 4.61159 4.59843 4.58734 
11 1 3.07789 3.07855 3.07957 
12 1 3.79507 3.78834 3.78297 
46 1 0.72415 0.723564 0.727149 
47 1 2.25539 2.2555 2.2568 
48 1 1.5446 1.54598 1.54754 
19 1 4.53084 4.531 6.21987 
20 1 3.00912 3.01165 7.76229 
21 1 3.71635 3.71772 7.04511 
31 1 0.663301 0.659325 10.0919 
32 1 2.18749 2.18695 8.58989 
33 1 1.47346 1.47111 9.29265 
16 1 4.51896 6.20629 4.52621 
17 1 3.0044 7.76017 3.01116 
18 1 3.70862 7.038 3.71543 
25 1 0.67056 10.1001 0.657439 
26 1 2.1876 8.59198 2.18676 
27 1 1.47804 9.29867 1.47013 
4 1 4.63226 6.15462 6.15008 
5 1 3.10286 7.67606 7.67522 
6 1 3.81414 6.96886 6.96588 
37 1 0.74833 10.0495 10.0485 
38 1 2.27203 8.50437 8.50579 
39 1 1.56974 9.21716 9.2167 
13 1 6.19587 4.5165 4.51724 
14 1 7.75791 3.00376 3.00848 
15 1 7.03148 3.70731 3.70954 
28 1 10.1024 0.668574 0.659117 
29 1 8.59317 2.18699 2.18694 
30 1 9.29993 1.47621 1.47192 
1 1 6.16247 4.63985 6.16917 
2 1 7.681 3.09886 7.68101 
3 1 6.97398 3.81632 6.97698 
40 1 10.0503 0.740536 10.0481 
41 1 8.50772 2.26622 8.50869 
42 1 9.21963 1.56213 9.21834 
7 1 6.17882 6.17753 4.63904 
8 1 7.68618 7.68596 3.09115 
9 1 6.98275 6.9821 3.81381 
43 1 10.0472 10.0469 0.730121 
44 1 8.51076 8.51194 2.2609 
45 1 9.22157 9.22103 1.55361 
22 1 6.20005 6.18545 6.167 
23 1 7.84709 7.84372 7.72613 
24 1 6.95755 7.12098 7.31055 
34 1 10.1147 10.108 10.1132 
35 1 8.68575 8.62692 8.49076 
36 1 9.36092 9.32599 9.25678 
49 2 6.51813 6.94601 8.34758 
50 3 6.2819 6.8993 9.30742 
ITEM: TIMESTEP
80
ITEM: NUMBER OF ATOMS
50
ITEM: BOX BOUNDS pp pp pp
0.0000000000000000e+00 1.1000000000000000e+01
0.0000000000000000e+00 1.1002000000000001e+01
0.0000000000000000e+00 1.1000000000000000e+01
ITEM: ATOMS id type x y z 
10 1 4.61242 4.59847 4.58674 
11 1 3.07822 3.07841 3.07916 
12 1 3.79464 3.78835 3.78318 
46 1 0.723548 0.723509 0.727147 
47 1 2.25479 2.25559 2.25668 
48 1 1.54499 1.54535 1.54758 
19 1 4.53107 4.53097 6.21974 
20 1 3.00917 3.01163 7.76222 
21 1 3.71675 3.7181 7.04511 
31 1 0.66306 0.659233 10.0913 
32 1 2.18742 2.18686 8.58932 
33 1 1.47352 1.47144 9.29284 
16 1 4.51933 6.20636 4.52622 
17 1 3.00448 7.76006 3.01117 
18 1 3.70873 7.0377 3.7156 
25 1 0.670623 10.1001 0.657449 
26 1 2.18782 8.5919 2.18653 
27 1 1.47734 9.29819 1.47053 
4 1 4.63225 6.15475 6.15 
5 1 3.10306 7.67617 7.67517 
6 1 3.81421 6.96866 6.96602 
37 1 0.748582 10.0497 10.0481 
38 1 2.27234 8.50467 8.50578 
39 1 1.57001 9.21676 9.21673 
13 1 6.1958 4.5169 4.51705 
14 1 7.75754 3.00388 3.00835 
15 1 7.03149 3.70726 3.70978 
28 1 10.1023 0.66837 0.659156 
29 1 8.59295 2.18687 2.18689 
30 1 9.29964 1.47608 1.47177 
1 1 6.1625 4.64006 6.16965 
2 1 7.68117 3.09908 7.68116 
3 1 6.97393 3.81665 6.97734 
40 1 10.0506 0.740464 10.0477 
41 1 8.50783 2.2664 8.50844 
42 1 9.21966 1.56231 9.21873 
7 1 6.1792 6.17806 4.63939 
8 1 7.68646 7.68627 3.09148 
9 1 6.98295 6.98235 3.81396 
43 1 10.0473 10.0466 0.729581 
44 1 8.51104 8.51181 2.26093 
45 1 9.22126 9.22132 1.55307 
22 1 6.20058 6.18602 6.16764 
23 1 7.84715 7.84383 7.72552 
24 1 6.95702 7.12077 7.31249 
34 1 10.1152 10.1077 10.1124 
35 1 8.6864 8.62728 8.4893 
36 1 9.36103 9.3263 9.25562 
49 2 6.51754 6.94584 8.34953 
50 3 6.27905 6.89751 9.3087 
ITEM: TIMESTEP
90
ITEM: NUMBER OF ATOMS
50
ITEM: BOX BOUNDS pp pp pp
0.0000000000000000e+00 1.1000000000000000e+01
0.0000000000000000e+00 1.1002000000000001e+01
0.0000000000000000e+00 1.1000000000000000e+01
ITEM: ATOMS id type x y z 
10 1 4.61923 4.59874 4.58114 
11 1 3.07838 3.07833 3.07774 
12 1 3.7978 3.78702 3.77952 
46 1 0.719641 0.720416 0.728053 
47 1 2.25228 2.25412 2.25611 
48 1 1.54228 1.54314 1.54819 
19 1 4.53535 4.53202 6.21929 
20 1 3.01172 3.01359 7.76145 
21 1 3.71986 3.71938 7.04416 
31 1 0.662318 0.659369 10.0866 
32 1 2.18911 2.18722 8.58671 
33 1 1.46907 1.47355 9.28569 
16 1 4.5238 6.20731 4.52713 
17 1 3.00522 7.75799 3.01167 
18 1 3.70984 7.03562 3.71583 
25 1 0.667852 10.0986 0.659399 
26 1 2.18706 8.58894 2.18626 
27 1 1.47511 9.29506 1.47164 
4 1 4.63537 6.15511 6.1498 
5 1 3.10548 7.67604 7.67506 
6 1 3.81695 6.96851 6.96621 
37 1 0.750503 10.0503 10.0452 
38 1 2.2768 8.50491 8.50586 
39 1 1.5731 9.21739 9.21573 
13 1 6.19605 4.52188 4.51662 
14 1 7.75492 3.00469 3.00783 
15 1 7.02861 3.70729 3.7097 
28 1 10.1015 0.666025 0.658894 
29 1 8.59045 2.1859 2.18588 
30 1 9.29427 1.47293 1.47046 
1 1 6.16209 4.64679 6.17597 
2 1 7.68242 3.10224 7.68306 
3 1 6.97475 3.82166 6.98178 
40 1 10.053 0.739975 10.0451 
41 1 8.50933 2.26857 8.50935 
42 1 9.22142 1.56346 9.21752 
7 1 6.18397 6.18482 4.64746 
8 1 7.6898 7.69041 3.09469 
9 1 6.98775 6.98608 3.81824 
43 1 10.0466 10.0442 0.721682 
44 1 8.51294 8.5135 2.25989 
45 1 9.22084 9.2203 1.54746 
22 1 6.20436 6.19022 6.17441 
23 1 7.8468 7.845 7.71816 
24 1 6.94992 7.11669 7.33562 
34 1 10.1205 10.1065 10.1018 
35 1 8.69215 8.63291 8.47028 
36 1 9.36761 9.32778 9.2391 
49 2 6.50877 6.9428 8.37473 
50 3 6.24109 6.87375 9.32587 
ITEM: TIMESTEP
100
ITEM: NUMBER OF ATOMS
50
ITEM: BOX BOUNDS pp pp pp
0.0000000000000000e+00 1.1000000000000000e+01
0.0000000000000000e+00 1.1002000000000001e+01
0.0000000000000000e+00 1.1000000000000000e+01
ITEM: ATOMS id type x y z 
10 1 4.62047 4.59872 4.58021 
11 1 3.07852 3.07772 3.07742 
12 1 3.79785 3.78729 3.77813 
46 1 0.718731 0.719071 0.727948 
47 1 2.25162 2.25349 2.25574 
48 1 1.54141 1.54265 1.5482 
19 1 4.53584 4.53196 6.21926 
20 1 3.0122 3.01373 7.76079 
21 1 3.7208 3.71987 7.04454 
31 1 0.661144 0.659939 10.0857 
32 1 2.18654 2.18793 8.58437 
33 1 1.47322 1.47276 9.28859 
16 1 4.52432 6.2069 4.52715 
17 1 3.00478 7.75658 3.01153 
18 1 3.71148 7.03704 3.71629 
25 1 0.667487 10.0997 0.659951 
26 1 2.186 8.58819 2.18642 
27 1 1.47579 9.29553 1.47143 
4 1 4.6361 6.15524 6.14942 
5 1 3.10625 7.67598 7.67513 
6 1 3.81736 6.96849 6.96595 
37 1 0.750533 10.0506 10.0451 
38 1 2.27706 8.50512 8.50612 
39 1 1.57366 9.21764 9.21535 
13 1 6.19579 4.5219 4.51657 
14 1 7.75354 3.00341 3.00808 
15 1 7.02984 3.70989 3.70856 
28 1 10.1003 0.664803 0.659092 
29 1 8.58737 2.18387 2.18444 
30 1 9.29898 1.47527 1.47241 
1 1 6.16188 4.64797 6.17704 
2 1 7.68254 3.10307 7.68338 
3 1 6.97457 3.8226 6.98243 
40 1 10.0532 0.740406 10.0441 
41 1 8.50917 2.26946 8.50888 
42 1 9.22159 1.56377 9.2172 
7 1 6.18491 6.18538 4.64921 
8 1 7.6901 7.69012 3.09521 
9 1 6.98795 6.98763 3.82036 
43 1 10.0462 10.0434 0.720209 
44 1 8.51244 8.51305 2.25898 
45 1 9.22181 9.22077 1.54836 
22 1 6.20526 6.19158 6.1751 
23 1 7.84649 7.84498 7.7177 
24 1 6.949 7.11577 7.33868 
34 1 10.122 10.1053 10.0989 
35 1 8.69303 8.6335 8.46669 
36 1 9.36737 9.3276 9.23719 
49 2 6.50642 6.94133 8.37794 
50 3 6.2351 6.87005 9.32845 
ITEM: TIMESTEP
110
ITEM: NUMBER OF ATOMS
50
ITEM: BOX BOUNDS pp pp pp
0.0000000000000000e+00 1.1000000000000000e+01
0.0000000000000000e+00 1.1002000000000001e+01
0.0000000000000000e+00 1.1000000000000000e+01
ITEM: ATOMS id type x y z 
10 1 4.62115 4.59891 4.57928 
11 1 3.07866 3.07784 3.07717 
12 1 3.79836 3.78715 3.77794 
46 1 0.718636 0.71898 0.728441 
47 1 2.25163 2.25365 2.25607 
48 1 1.54145 1.5426 1.54854 
19 1 4.53659 4.53214 6.21927 
20 1 3.01229 3.01377 7.76075 
21 1 3.72084 3.71993 7.04423 
31 1 0.661101 0.660186 10.0854 
32 1 2.18706 2.1882 8.58469 
33 1 1.47245 1.47261 9.28731 
16 1 4.52501 6.20749 4.52755 
17 1 3.00531 7.7569 3.01189 
18 1 3.71094 7.03581 3.71573 
25 1 0.667117 10.0993 0.660212 
26 1 2.18589 8.58797 2.1864 
27 1 1.47531 9.29521 1.47162 
4 1 4.63634 6.15528 6.14915 
5 1 3.10655 7.67586 7.67515 
6 1 3.81783 6.96872 6.96591 
37 1 0.750301 10.0507 10.0446 
38 1 2.27755 8.5051 8.50609 
39 1 1.57366 9.21784 9.2152 
13 1 6.19616 4.52289 4.51636 
14 1 7.75334 3.00396 3.00737 
15 1 7.02927 3.70879 3.70916 
28 1 10.1011 0.664843 0.659339 
29 1 8.58861 2.18456 2.18508 
30 1 9.296 1.47344 1.47124 
1 1 6.16151 4.64842 6.17766 
2 1 7.68227 3.1034 7.68353 
3 1 6.97495 3.82364 6.98265 
40 1 10.0535 0.740116 10.0439 
41 1 8.50952 2.2694 8.5091 
42 1 9.22199 1.56406 9.21703 
7 1 6.18556 6.1859 4.65017 
8 1 7.69054 7.69046 3.09554 
9 1 6.98826 6.98841 3.82087 
43 1 10.0465 10.0436 0.719903 
44 1 8.51314 8.51353 2.25939 
45 1 9.22117 9.22018 1.54659 
22 1 6.2058 6.1922 6.1761 
23 1 7.8463 7.84491 7.71724 
24 1 6.94828 7.11513 7.34076 
34 1 10.1227 10.1054 10.0979 
35 1 8.69351 8.6341 8.46477 
36 1 9.3677 9.3274 9.23604 
49 2 6.50492 6.94037 8.37987 
50 3 6.23144 6.86778 9.32988 
ITEM: TIMESTEP
114
ITEM: NUMBER OF ATOMS
50
ITEM: BOX BOUNDS pp pp pp
0.0000000000000000e+00 1.1000000000000000e+01
0.0000000000000000e+00 1.1002000000000001e+01
0.0000000000000000e+00 1.1000000000000000e+01
ITEM: ATOMS id type x y z 
10 1 4.62155 4.59894 4.57892 
11 1 3.07888 3.07784 3.07708 
12 1 3.79837 3.78724 3.77786 
46 1 0.718495 0.718738 0.728518 
47 1 2.25148 2.25346 2.25603 
48 1 1.5412 1.54253 1.54852 
19 1 4.53681 4.53221 6.21929 
20 1 3.01238 3.01393 7.76066 
21 1 3.72096 3.71987 7.04408 
31 1 0.661081 0.660274 10.0854 
32 1 2.18707 2.18823 8.58457 
33 1 1.47246 1.47268 9.28723 
16 1 4.52505 6.2072 4.52745 
17 1 3.00513 7.75653 3.01166 
18 1 3.71136 7.03629 3.71613 
25 1 0.667158 10.0994 0.660184 
26 1 2.18593 8.58776 2.18619 
27 1 1.47499 9.29531 1.47212 
4 1 4.63641 6.15519 6.14911 
5 1 3.10663 7.67574 7.67525 
6 1 3.81809 6.969 6.96576 
37 1 0.75036 10.0508 10.0444 
38 1 2.27773 8.50533 8.50612 
39 1 1.57369 9.21754 9.21509 
13 1 6.19611 4.52272 4.51658 
14 1 7.75303 3.00359 3.0076 
15 1 7.0295 3.70952 3.70855 
28 1 10.1009 0.664603 0.659336 
29 1 8.58821 2.18427 2.18489 
30 1 9.29643 1.47361 1.47143 
1 1 6.16161 4.649 6.17795 
2 1 7.68259 3.1039 7.68367 
3 1 6.97446 3.8233 6.98278 
40 1 10.0537 0.740154 10.0436 
41 1 8.50958 2.2697 8.50883 
42 1 9.22192 1.56398 9.21721 
7 1 6.18579 6.18627 4.65061 
8 1 7.69066 7.69074 3.09572 
9 1 6.98855 6.9885 3.82111 
43 1 10.0463 10.0434 0.719391 
44 1 8.51304 8.51343 2.25903 
45 1 9.22145 9.2203 1.54697 
22 1 6.20604 6.19251 6.17649 
23 1 7.84616 7.84485 7.71701 
24 1 6.94802 7.11489 7.34172 
34 1 10.1229 10.1048 10.0977 
35 1 8.69357 8.6338 8.46455 
36 1 9.3681 9.32833 9.2344 
49 2 6.50425 6.93993 8.38073 
50 3 6.22981 6.86677 9.3305 
ITEM: TIMESTEP
120
ITEM: NUMBER OF ATOMS
50
ITEM: BOX BOUNDS pp pp pp
0.0000000000000000e+00 1.1000000000000000e+01
0.0000000000000000e+00 1.1002000000000001e+01
0.0000000000000000e+00 1.1000000000000000e+01
ITEM: ATOMS id type x y z 
10 1 4.62195 4.59898 4.57864 
11 1 3.07895 3.07779 3.07702 
12 1 3.79852 3.78729 3.7776 
46 1 0.718338 0.718564 0.728779 
47 1 2.25137 2.2534 2.25624 
48 1 1.54129 1.54261 1.54841 
19 1 4.53698 4.5323 6.21934 
20 1 3.01244 3.01407 7.76058 
21 1 3.72113 3.71983 7.04397 
31 1 0.660911 0.660249 10.085 
32 1 2.18706 2.18817 8.58434 
33 1 1.4725 1.47292 9.28734 
16 1 4.52525 6.20725 4.52751 
17 1 3.00518 7.75638 3.01168 
18 1 3.71146 7.03631 3.71614 
25 1 0.666982 10.0994 0.660324 
26 1 2.18583 8.58765 2.18622 
27 1 1.47489 9.2952 1.47213 
4 1 4.63653 6.15525 6.149 
5 1 3.1068 7.67576 7.67525 
6 1 3.8182 6.96897 6.96575 
37 1 0.750298 10.0508 10.0443 
38 1 2.27787 8.50532 8.50612 
39 1 1.5738 9.21763 9.21501 
13 1 6.19619 4.52297 4.51654 
14 1 7.75289 3.00362 3.0075 
15 1 7.02944 3.7096 3.7086 
28 1 10.1009 0.664482 0.659365 
29 1 8.58825 2.18422 2.18491 
30 1 9.29598 1.47331 1.47122 
1 1 6.1615 4.64926 6.17822 
2 1 7.68263 3.10413 7.68383 
3 1 6.97448 3.82342 6.98287 
40 1 10.0539 0.740158 10.0435 
41 1 8.50975 2.26975 8.50896 
42 1 9.22201 1.56405 9.21702 
7 1 6.18606 6.1865 4.65104 
8 1 7.69077 7.69088 3.0959 
9 1 6.98871 6.98871 3.82139 
43 1 10.0462 10.0433 0.718931 
44 1 8.51296 8.51337 2.25881 
45 1 9.22178 9.22047 1.54705 
22 1 6.20626 6.19285 6.17675 
23 1 7.84606 7.84479 7.71682 
24 1 6.94776 7.11466 7.34265 
34 1 10.1232 10.1049 10.097 
35 1 8.69383 8.63414 8.46358 
36 1 9.36809 9.32805 9.23417 
49 2 6.50359 6.9395 8.38155 
50 3 6.22825 6.86579 9.33109 
ITEM: TIMESTEP
130
ITEM: NUMBER OF ATOMS
50
ITEM: BOX BOUNDS pp pp pp
0.0000000000000000e+00 1.1000000000000000e+01
0.0000000000000000e+00 1.1002000000000001e+01
0.0000000000000000e+00 1.1000000000000000e+01
ITEM: ATOMS id type x y z 
10 1 4.62602 4.6004 4.57444 
11 1 3.07979 3.07871 3.07534 
12 1 3.8006 3.7856 3.77713 
46 1 0.716881 0.717018 0.729906 
47 1 2.2503 2.25319 2.25633 
48 1 1.5405 1.54108 1.54983 
19 1 4.53906 4.53282 6.21903 
20 1 3.01277 3.01486 7.75895 
21 1 3.72354 3.72046 7.04428 
31 1 0.660093 0.661085 10.0834 
32 1 2.18723 2.18888 8.58323 
33 1 1.47257 1.47329 9.28574 
16 1 4.52779 6.20796 4.52778 
17 1 3.00602 7.75535 3.01128 
18 1 3.71147 7.03579 3.71692 
25 1 0.666116 10.0999 0.660952 
26 1 2.18551 8.58622 2.18537 
27 1 1.47217 9.29452 1.47458 
4 1 4.63857 6.15488 6.14941 
5 1 3.1092 7.67489 7.67691 
6 1 3.81842 6.97087 6.96261 
37 1 0.749925 10.0511 10.0425 
38 1 2.27954 8.50561 8.50617 
39 1 1.57475 9.2181 9.21411 
13 1 6.197 4.52497 4.51676 
14 1 7.75143 3.00334 3.00708 
15 1 7.02916 3.71136 3.70734 
28 1 10.1004 0.663427 0.658769 
29 1 8.58667 2.18372 2.18323 
30 1 9.29447 1.46978 1.47278 
1 1 6.1603 4.65223 6.181 
2 1 7.68305 3.10627 7.68492 
3 1 6.97441 3.82584 6.98484 
40 1 10.0555 0.740304 10.0419 
41 1 8.51065 2.27112 8.50884 
42 1 9.22325 1.56493 9.21606 
7 1 6.18867 6.18981 4.65576 
8 1 7.69154 7.69312 3.09747 
9 1 6.99216 6.99029 3.82484 
43 1 10.0467 10.0429 0.716745 
44 1 8.51458 8.51426 2.25909 
45 1 9.22078 9.21945 1.54303 
22 1 6.20845 6.19596 6.18007 
23 1 7.84492 7.84429 7.71472 
24 1 6.94466 7.11183 7.35284 
34 1 10.1257 10.1033 10.0919 
35 1 8.69491 8.63551 8.45613 
36 1 9.37104 9.32905 9.22542 
49 2 6.49607 6.93451 8.39065 
50 3 6.21064 6.85482 9.33762 
ITEM: TIMESTEP
140
ITEM: NUMBER OF ATOMS
50
ITEM: BOX BOUNDS pp pp pp
0.0000000000000000e+00 1.1000000000000000e+01
0.0000000000000000e+00 1.1002000000000001e+01
0.0000000000000000e+00 1.1000000000000000e+01
ITEM: ATOMS id type x y z 
10 1 4.62655 4.59985 4.57475 
11 1 3.07993 3.07773 3.07632 
12 1 3.80102 3.78744 3.77488 
46 1 0.716856 0.716553 0.730128 
47 1 2.25027 2.25287 2.25651 
48 1 1.54018 1.54138 1.54963 
19 1 4.53988 4.5329 6.21948 
20 1 3.01338 3.0149 7.75932 
21 1 3.7229 3.72056 7.04342 
31 1 0.659866 0.661175 10.0833 
32 1 2.18729 2.18893 8.58307 
33 1 1.47238 1.47347 9.28542 
16 1 4.52755 6.20775 4.52818 
17 1 3.00548 7.75492 3.01166 
18 1 3.71276 7.03616 3.71626 
25 1 0.665374 10.1001 0.662032 
26 1 2.18448 8.58601 2.18631 
27 1 1.47366 9.29438 1.47307 
4 1 4.63835 6.1557 6.14805 
5 1 3.10889 7.67581 7.67558 
6 1 3.81952 6.96951 6.96494 
37 1 0.749737 10.0513 10.0421 
38 1 2.27986 8.50566 8.50624 
39 1 1.57477 9.21804 9.21408 
13 1 6.19715 4.52566 4.51629 
14 1 7.75129 3.00379 3.00645 
15 1 7.02918 3.71071 3.70795 
28 1 10.1003 0.662266 0.659513 
29 1 8.58621 2.1823 2.18425 
30 1 9.29449 1.47175 1.47085 
1 1 6.1602 4.65265 6.18149 
2 1 7.68312 3.10656 7.68503 
3 1 6.97432 3.82627 6.98527 
40 1 10.0559 0.740234 10.0417 
41 1 8.51091 2.27129 8.50888 
42 1 9.22355 1.56496 9.21603 
7 1 6.18971 6.18988 4.65652 
8 1 7.69257 7.69291 3.0979 
9 1 6.99135 6.99172 3.82511 
43 1 10.046 10.0425 0.715535 
44 1 8.51405 8.51394 2.25827 
45 1 9.22154 9.2198 1.54422 
22 1 6.20875 6.19629 6.18069 
23 1 7.84472 7.8442 7.71449 
24 1 6.94418 7.11135 7.35432 
34 1 10.1267 10.1037 10.0901 
35 1 8.69551 8.63619 8.45434 
36 1 9.37061 9.32826 9.22567 
49 2 6.49484 6.93364 8.39192 
50 3 6.20797 6.85314 9.33848 
ITEM: TIMESTEP
150
ITEM: NUMBER OF ATOMS
50
ITEM: BOX BOUNDS pp pp pp
0.0000000000000000e+00 1.1000000000000000e+01
0.0000000000000000e+00 1.1002000000000001e+01
0.0000000000000000e+00 1.1000000000000000e+01
ITEM: ATOMS id type x y z 
10 1 4.62695 4.59993 4.57443 
11 1 3.08 3.07778 3.07625 
12 1 3.80133 3.78743 3.77464 
46 1 0.716771 0.716312 0.730217 
47 1 2.25023 2.2528 2.25656 
48 1 1.54005 1.54133 1.54977 
19 1 4.54013 4.53291 6.21942 
20 1 3.01349 3.01498 7.75914 
21 1 3.72311 3.72067 7.04347 
31 1 0.659864 0.66124 10.0832 
32 1 2.18733 2.18893 8.58293 
33 1 1.4723 1.47365 9.28534 
16 1 4.52773 6.20783 4.5282 
17 1 3.0055 7.75487 3.0116 
18 1 3.71273 7.0361 3.71629 
25 1 0.66519 10.1001 0.662187 
26 1 2.18436 8.58583 2.18628 
27 1 1.47357 9.29444 1.47322 
4 1 4.63839 6.15585 6.14785 
5 1 3.10895 7.67593 7.6754 
6 1 3.81985 6.96939 6.96528 
37 1 0.749648 10.0513 10.0419 
38 1 2.28003 8.5057 8.50623 
39 1 1.57482 9.21809 9.21398 
13 1 6.19716 4.52587 4.5162 
14 1 7.75111 3.00372 3.00638 
15 1 7.02926 3.7109 3.70789 
28 1 10.1002 0.662016 0.659517 
29 1 8.58603 2.18219 2.18411 
30 1 9.29437 1.47153 1.47089 
1 1 6.16007 4.65297 6.18183 
2 1 7.68322 3.1068 7.68515 
3 1 6.97423 3.82642 6.98552 
40 1 10.056 0.740301 10.0416 
41 1 8.51104 2.27146 8.50889 
42 1 9.22365 1.56502 9.21588 
7 1 6.19011 6.19021 4.65699 
8 1 7.6927 7.69312 3.09809 
9 1 6.99165 6.9919 3.82544 
43 1 10.0459 10.0423 0.714906 
44 1 8.51397 8.51381 2.25778 
45 1 9.22194 9.2202 1.54472 
22 1 6.20894 6.19653 6.18104 
23 1 7.84457 7.84412 7.71432 
24 1 6.94387 7.11104 7.3553 
34 1 10.1271 10.1035 10.0895 
35 1 8.69565 8.63628 8.4536 
36 1 9.37071 9.32832 9.22501 
49 2 6.49403 6.93306 8.39274 
50 3 6.20622 6.85204 9.33903 
ITEM: TIMESTEP
160
ITEM: NUMBER OF ATOMS
50
ITEM: BOX BOUNDS pp pp pp
0.0000000000000000e+00 1.1000000000000000e+01
0.0000000000000000e+00 1.1002000000000001e+01
0.0000000000000000e+00 1.1000000000000000e+01
ITEM: ATOMS id type x y z 
10 1 4.6379 4.60327 4.56546 
11 1 3.08263 3.07834 3.07456 
12 1 3.80808 3.78821 3.76779 
46 1 0.714536 0.710285 0.73309 
47 1 2.24839 2.25117 2.25795 
48 1 1.53807 1.53882 1.55305 
19 1 4.54723 4.53386 6.21971 
20 1 3.01631 3.01705 7.75698 
21 1 3.72732 3.72164 7.0418 
31 1 0.658051 0.664371 10.0798 
32 1 2.18814 2.19035 8.57976 
33 1 1.47108 1.47647 9.28164 
16 1 4.53198 6.20916 4.53017 
17 1 3.00566 7.75205 3.01159 
18 1 3.71445 7.03527 3.71653 
25 1 0.661943 10.1028 0.66633 
26 1 2.18196 8.58271 2.18579 
27 1 1.47012 9.29383 1.47664 
4 1 4.64144 6.15882 6.14467 
5 1 3.11318 7.6772 7.67581 
6 1 3.82281 6.9699 6.96522 
37 1 0.747642 10.0509 10.0367 
38 1 2.28398 8.5066 8.50597 
39 1 1.57649 9.21911 9.21094 
13 1 6.19966 4.53329 4.51405 
14 1 7.74808 3.00321 3.00519 
15 1 7.0275 3.71288 3.7054 