 # File generated with Atomsk by ana on 2024-09-05 17:52:21
  
          50  atoms
           3  atom types
 
      0.000000000000      11.000000000000  xlo xhi
      0.000000000000      11.002000000000  ylo yhi
      0.000000000000      11.000000000000  zlo zhi
 
Masses
 
            1   12.01100000             # C
            2   15.99900000             # O
            3   1.00800000              # H
 
Atoms # charge
 
         1    1   0.000000        6.168000000000       4.608000000000       6.169000000000
         2    1   0.000000        7.684000000000       3.086000000000       7.684000000000
         3    1   0.000000        6.974000000000       3.799000000000       6.974000000000
         4    1   0.000000        4.608000000000       6.169000000000       6.169000000000
         5    1   0.000000        3.086000000000       7.684000000000       7.684000000000
         6    1   0.000000        3.799000000000       6.974000000000       6.974000000000
         7    1   0.000000        6.169000000000       6.169000000000       4.608000000000
         8    1   0.000000        7.684000000000       7.684000000000       3.086000000000
         9    1   0.000000        6.974000000000       6.974000000000       3.799000000000
        10    1   0.000000        4.603000000000       4.603000000000       4.603000000000
        11    1   0.000000        3.085000000000       3.085000000000       3.085000000000
        12    1   0.000000        3.796000000000       3.796000000000       3.796000000000
        13    1   0.000000        6.225000000000       4.546000000000       4.546000000000
        14    1   0.000000        7.764000000000       3.013000000000       3.013000000000
        15    1   0.000000        7.053000000000       3.721000000000       3.722000000000
        16    1   0.000000        4.546000000000       6.225000000000       4.546000000000
        17    1   0.000000        3.013000000000       7.765000000000       3.013000000000
        18    1   0.000000        3.721000000000       7.053000000000       3.722000000000
        19    1   0.000000        4.546000000000       4.545000000000       6.226000000000
        20    1   0.000000        3.013000000000       3.013000000000       7.764000000000
        21    1   0.000000        3.721000000000       3.721000000000       7.053000000000
        22    1   0.000000        6.229000000000       6.229000000000       6.229000000000
        23    1   0.000000        7.764000000000       7.765000000000       7.765000000000
        24    1   0.000000        7.055000000000       7.056000000000       7.055000000000
        25    1   0.000000        0.668000000000      10.103000000000       0.668000000000
        26    1   0.000000        2.188000000000       8.589000000000       2.188000000000
        27    1   0.000000        1.476000000000       9.298000000000       1.476000000000
        28    1   0.000000       10.102000000000       0.667000000000       0.668000000000
        29    1   0.000000        8.589000000000       2.187000000000       2.188000000000
        30    1   0.000000        9.298000000000       1.475000000000       1.476000000000
        31    1   0.000000        0.668000000000       0.667000000000      10.103000000000
        32    1   0.000000        2.187000000000       2.187000000000       8.589000000000
        33    1   0.000000        1.476000000000       1.475000000000       9.298000000000
        34    1   0.000000       10.108000000000      10.108000000000      10.107000000000
        35    1   0.000000        8.590000000000       8.590000000000       8.590000000000
        36    1   0.000000        9.301000000000       9.301000000000       9.300000000000
        37    1   0.000000        0.729000000000      10.046000000000      10.046000000000
        38    1   0.000000        2.259000000000       8.509000000000       8.508000000000
        39    1   0.000000        1.552000000000       9.219000000000       9.219000000000
        40    1   0.000000       10.045000000000       0.728000000000      10.046000000000
        41    1   0.000000        8.508000000000       2.259000000000       8.508000000000
        42    1   0.000000        9.218000000000       1.551000000000       9.218000000000
        43    1   0.000000       10.046000000000      10.047000000000       0.729000000000
        44    1   0.000000        8.508000000000       8.509000000000       2.259000000000
        45    1   0.000000        9.219000000000       9.219000000000       1.552000000000
        46    1   0.000000        0.726000000000       0.725000000000       0.725000000000
        47    1   0.000000        2.260000000000       2.259000000000       2.260000000000
        48    1   0.000000        1.551000000000       1.550000000000       1.550000000000
        49    2   0.000000        6.457000000000       6.974000000000       8.272000000000
        50    3   0.000000        6.457000000000       6.974000000000       9.248000000000
