LAMMPS (3 Mar 2020)
# Alpha
clear
units		real
dimension 3
boundary        p p p
atom_style	charge
newton on
read_data       H_5.lmp
  orthogonal box = (0 0 0) to (16.114 16.113 16.112)
  2 by 2 by 2 MPI processor grid
  reading atoms ...
  201 atoms
  read_data CPU = 0.0138994 secs

timestep 0.25

# ---------- Define Interatomic Potential ---------------------
pair_style      reax/c NULL checkqeq no
pair_coeff      * * ffield.reax C H
WARNING: Changed valency_val to valency_boc for X (../reaxc_ffield.cpp:315)
fix             2 all qeq/reax 1 0.0 10.0 1.0e-6 reax/c

#------------ Equilibration of the system -------------------------
reset_timestep 0

dump 1 all custom 10 min.lammpstrj id type x y z

minimize 1.0e-8 1.0e-8 100000 100000
WARNING: Using 'neigh_modify every 1 delay 0 check yes' setting during minimization (../min.cpp:190)
Neighbor list info ...
  update every 1 steps, delay 0 steps, check yes
  max neighbors/atom: 2000, page size: 100000
  master list distance cutoff = 12
  ghost atom cutoff = 12
  binsize = 6, bins = 3 3 3
  2 neighbor lists, perpetual/occasional/extra = 2 0 0
  (1) pair reax/c, perpetual
      attributes: half, newton off, ghost
      pair build: half/bin/newtoff/ghost
      stencil: half/ghost/bin/3d/newtoff
      bin: standard
  (2) fix qeq/reax, perpetual, copy from (1)
      attributes: half, newton off, ghost
      pair build: copy
      stencil: none
      bin: none
Per MPI rank memory allocation (min/avg/max) = 36.97 | 36.98 | 36.99 Mbytes
Step Temp E_pair E_mol TotEng Press 
       0            0   -37643.805            0   -37643.805    674319.16 
      94            0   -38655.317            0   -38655.317    62855.188 
Loop time of 5.14384 on 8 procs for 94 steps with 201 atoms

98.8% CPU use with 8 MPI tasks x no OpenMP threads

Minimization stats:
  Stopping criterion = energy tolerance
  Energy initial, next-to-last, final = 
         -37643.804541     -38655.3170445     -38655.3173353
  Force two-norm initial, final = 1443.47 12.7345
  Force max component initial, final = 150.728 2.33321
  Final line search alpha, max atom move = 0.0026089 0.00608712
  Iterations, force evaluations = 94 336

MPI task timing breakdown:
Section |  min time  |  avg time  |  max time  |%varavg| %total
---------------------------------------------------------------
Pair    | 4.465      | 4.5015     | 4.5678     |   1.3 | 87.51
Neigh   | 0          | 0          | 0          |   0.0 |  0.00
Comm    | 0.023855   | 0.090173   | 0.12661    |   9.2 |  1.75
Output  | 0.00042503 | 0.00053142 | 0.00093953 |   0.0 |  0.01
Modify  | 0.5451     | 0.54523    | 0.54535    |   0.0 | 10.60
Other   |            | 0.006374   |            |       |  0.12

Nlocal:    25.125 ave 28 max 23 min
Histogram: 1 0 3 0 0 0 3 0 0 1
Nghost:    1582.88 ave 1585 max 1580 min
Histogram: 1 0 0 0 3 0 0 0 3 1
Neighs:    8344.5 ave 9266 max 7636 min
Histogram: 1 0 3 0 0 0 3 0 0 1

Total # of neighbors = 66756
Ave neighs/atom = 332.119
Neighbor list builds = 0
Dangerous builds = 0

###
min_style cg
minimize 1.0e-8 1.0e-8 100000 100000
WARNING: Using 'neigh_modify every 1 delay 0 check yes' setting during minimization (../min.cpp:190)
Per MPI rank memory allocation (min/avg/max) = 36.97 | 36.98 | 37 Mbytes
Step Temp E_pair E_mol TotEng Press 
      94            0   -38655.317            0   -38655.317    62855.188 
     111            0   -38655.432            0   -38655.432    62805.656 
Loop time of 1.15821 on 8 procs for 17 steps with 201 atoms

98.8% CPU use with 8 MPI tasks x no OpenMP threads

Minimization stats:
  Stopping criterion = energy tolerance
  Energy initial, next-to-last, final = 
         -38655.317335     -38655.4318845     -38655.4321394
  Force two-norm initial, final = 12.7345 11.2423
  Force max component initial, final = 2.33321 2.86187
  Final line search alpha, max atom move = 0.0201675 0.0577168
  Iterations, force evaluations = 17 75

MPI task timing breakdown:
Section |  min time  |  avg time  |  max time  |%varavg| %total
---------------------------------------------------------------
Pair    | 1.008      | 1.0158     | 1.0316     |   0.7 | 87.70
Neigh   | 0          | 0          | 0          |   0.0 |  0.00
Comm    | 0.0059291  | 0.021762   | 0.029564   |   5.1 |  1.88
Output  | 0.00012177 | 0.0001494  | 0.00026    |   0.0 |  0.01
Modify  | 0.11886    | 0.11889    | 0.11893    |   0.0 | 10.27
Other   |            | 0.001612   |            |       |  0.14

Nlocal:    25.125 ave 29 max 24 min
Histogram: 6 0 0 0 0 0 0 0 1 1
Nghost:    1582.88 ave 1584 max 1579 min
Histogram: 1 0 1 0 0 0 0 0 0 6
Neighs:    8347.25 ave 9595 max 7975 min
Histogram: 6 0 0 0 0 0 0 1 0 1

Total # of neighbors = 66778
Ave neighs/atom = 332.229
Neighbor list builds = 0
Dangerous builds = 0

###
fix 1 all box/relax aniso 0.0
min_style cg
minimize 1.0e-8 1.0e-8 100000 100000
WARNING: Using 'neigh_modify every 1 delay 0 check yes' setting during minimization (../min.cpp:190)
Per MPI rank memory allocation (min/avg/max) = 36.97 | 36.98 | 37 Mbytes
Step Temp E_pair E_mol TotEng Press Volume 
     111            0   -38655.432            0   -38655.432    62805.654    4183.3983 
    2550            0   -38824.637            0   -38824.637    121.59458    4498.4782 
Loop time of 41.8921 on 8 procs for 2439 steps with 201 atoms

99.0% CPU use with 8 MPI tasks x no OpenMP threads

Minimization stats:
  Stopping criterion = energy tolerance
  Energy initial, next-to-last, final = 
        -38655.4321411     -38824.6369463     -38824.6371494
  Force two-norm initial, final = 6636.9 16.429
  Force max component initial, final = 3833.64 7.83651
  Final line search alpha, max atom move = 2.45712e-05 0.000192553
  Iterations, force evaluations = 2439 2956

MPI task timing breakdown:
Section |  min time  |  avg time  |  max time  |%varavg| %total
---------------------------------------------------------------
Pair    | 38.458     | 38.752     | 39.333     |   4.4 | 92.51
Neigh   | 0          | 0          | 0          |   0.0 |  0.00
Comm    | 0.20204    | 0.78187    | 1.0756     |  31.2 |  1.87
Output  | 0.010331   | 0.012757   | 0.021946   |   3.1 |  0.03
Modify  | 2.2032     | 2.2045     | 2.2066     |   0.1 |  5.26
Other   |            | 0.1405     |            |       |  0.34

Nlocal:    25.125 ave 29 max 24 min
Histogram: 6 0 0 0 0 0 0 0 1 1
Nghost:    1582.88 ave 1584 max 1579 min
Histogram: 1 0 1 0 0 0 0 0 0 6
Neighs:    8347 ave 9599 max 7974 min
Histogram: 6 0 0 0 0 0 0 1 0 1

Total # of neighbors = 66776
Ave neighs/atom = 332.219
Neighbor list builds = 0
Dangerous builds = 0

unfix 1
###
min_style cg
minimize 1.0e-8 1.0e-8 100000 100000
WARNING: Using 'neigh_modify every 1 delay 0 check yes' setting during minimization (../min.cpp:190)
Per MPI rank memory allocation (min/avg/max) = 36.96 | 36.97 | 36.98 Mbytes
Step Temp E_pair E_mol TotEng Press 
    2550            0   -38824.637            0   -38824.637    121.59772 
    2557            0   -38824.749            0   -38824.749    2196.0161 
Loop time of 0.213866 on 8 procs for 7 steps with 201 atoms

99.0% CPU use with 8 MPI tasks x no OpenMP threads

Minimization stats:
  Stopping criterion = energy tolerance
  Energy initial, next-to-last, final = 
        -38824.6371469     -38824.7488394      -38824.748867
  Force two-norm initial, final = 9.38174 9.43115
  Force max component initial, final = 1.23023 1.39877
  Final line search alpha, max atom move = 0.0952741 0.133267
  Iterations, force evaluations = 7 14

MPI task timing breakdown:
Section |  min time  |  avg time  |  max time  |%varavg| %total
---------------------------------------------------------------
Pair    | 0.18274    | 0.18455    | 0.18735    |   0.3 | 86.29
Neigh   | 0          | 0          | 0          |   0.0 |  0.00
Comm    | 0.00095802 | 0.003749   | 0.0055531  |   2.3 |  1.75
Output  | 0          | 0          | 0          |   0.0 |  0.00
Modify  | 0.025144   | 0.025156   | 0.025166   |   0.0 | 11.76
Other   |            | 0.0004112  |            |       |  0.19

Nlocal:    25.125 ave 28 max 23 min
Histogram: 1 0 1 0 4 0 1 0 0 1
Nghost:    1486.88 ave 1489 max 1484 min
Histogram: 1 0 0 0 1 0 4 0 1 1
Neighs:    7810.25 ave 8627 max 7170 min
Histogram: 1 0 1 0 4 0 1 0 0 1

Total # of neighbors = 62482
Ave neighs/atom = 310.856
Neighbor list builds = 0
Dangerous builds = 0

###
fix 1 all box/relax aniso 0.0
min_style cg
minimize 1.0e-8 1.0e-8 100000 100000
WARNING: Using 'neigh_modify every 1 delay 0 check yes' setting during minimization (../min.cpp:190)
Per MPI rank memory allocation (min/avg/max) = 36.96 | 36.97 | 36.98 Mbytes
Step Temp E_pair E_mol TotEng Press Volume 
    2557            0   -38824.749            0   -38824.749     2196.017    4498.4782 
    2567            0   -38824.853            0   -38824.853    75.668653    4501.5074 
Loop time of 0.252145 on 8 procs for 10 steps with 201 atoms

99.0% CPU use with 8 MPI tasks x no OpenMP threads

Minimization stats:
  Stopping criterion = energy tolerance
  Energy initial, next-to-last, final = 
         -38824.748866     -38824.8528743     -38824.8529957
  Force two-norm initial, final = 249.717 11.6108
  Force max component initial, final = 144.248 5.17071
  Final line search alpha, max atom move = 1.86498e-05 9.6433e-05
  Iterations, force evaluations = 10 18

MPI task timing breakdown:
Section |  min time  |  avg time  |  max time  |%varavg| %total
---------------------------------------------------------------
Pair    | 0.22929    | 0.23124    | 0.23475    |   0.3 | 91.71
Neigh   | 0          | 0          | 0          |   0.0 |  0.00
Comm    | 0.0010727  | 0.0045901  | 0.0065519  |   2.4 |  1.82
Output  | 4.28e-05   | 5.4364e-05 | 9.9106e-05 |   0.0 |  0.02
Modify  | 0.01533    | 0.015337   | 0.015345   |   0.0 |  6.08
Other   |            | 0.0009189  |            |       |  0.36

Nlocal:    25.125 ave 28 max 23 min
Histogram: 1 0 1 0 4 0 1 0 0 1
Nghost:    1486.88 ave 1489 max 1484 min
Histogram: 1 0 0 0 1 0 4 0 1 1
Neighs:    7809.75 ave 8625 max 7170 min
Histogram: 1 0 1 0 4 0 1 0 0 1

Total # of neighbors = 62478
Ave neighs/atom = 310.836
Neighbor list builds = 0
Dangerous builds = 0

unfix 1
###
min_style cg
minimize 1.0e-8 1.0e-8 100000 100000
WARNING: Using 'neigh_modify every 1 delay 0 check yes' setting during minimization (../min.cpp:190)
Per MPI rank memory allocation (min/avg/max) = 36.96 | 36.97 | 36.98 Mbytes
Step Temp E_pair E_mol TotEng Press 
    2567            0   -38824.853            0   -38824.853    75.669669 
    2575            0   -38824.909            0   -38824.909     1329.574 
Loop time of 0.242513 on 8 procs for 8 steps with 201 atoms

98.6% CPU use with 8 MPI tasks x no OpenMP threads

Minimization stats:
  Stopping criterion = energy tolerance
  Energy initial, next-to-last, final = 
        -38824.8529944     -38824.9090539     -38824.9094057
  Force two-norm initial, final = 7.78377 10.5403
  Force max component initial, final = 1.07187 1.98379
  Final line search alpha, max atom move = 0.131154 0.260182
  Iterations, force evaluations = 8 16

MPI task timing breakdown:
Section |  min time  |  avg time  |  max time  |%varavg| %total
---------------------------------------------------------------
Pair    | 0.20736    | 0.20898    | 0.2122     |   0.3 | 86.17
Neigh   | 0          | 0          | 0          |   0.0 |  0.00
Comm    | 0.0010567  | 0.0042821  | 0.0058987  |   2.2 |  1.77
Output  | 4.252e-05  | 5.3575e-05 | 9.8815e-05 |   0.0 |  0.02
Modify  | 0.028701   | 0.028706   | 0.028711   |   0.0 | 11.84
Other   |            | 0.0004922  |            |       |  0.20

Nlocal:    25.125 ave 28 max 23 min
Histogram: 1 0 1 0 4 0 1 0 0 1
Nghost:    1486.88 ave 1489 max 1484 min
Histogram: 1 0 0 0 1 0 4 0 1 1
Neighs:    7807.25 ave 8621 max 7168 min
Histogram: 1 0 1 0 4 0 1 0 0 1

Total # of neighbors = 62458
Ave neighs/atom = 310.736
Neighbor list builds = 0
Dangerous builds = 0

undump 1
#############
#----------- Thermo ------------
reset_timestep 0
thermo  200

thermo_style    custom step temp etotal ke pe press
velocity all create 300 12345 mom yes rot yes
fix 1 all npt temp 300 300 25.0 iso 0.0 0.0 250.0

variable vpe equal pe
variable vtemp equal temp
variable vstep equal step

fix output all print 2500 "${vstep} ${vtemp} ${vpe}" file temp-tpdh-Pt.dat screen no

dump 1 all custom 2500 thermo-tpdh-Pt.lammpstrj id type x y z

run 1000000
Per MPI rank memory allocation (min/avg/max) = 35.84 | 35.85 | 35.86 Mbytes
Step Temp TotEng KinEng PotEng Press 
       0          300   -38646.061     178.8486   -38824.909    3145.7617 
     200    200.52242   -38588.765    119.54385   -38708.309   -962.41118 
     400    284.99026   -38497.064    169.90037   -38666.965    2135.5996 
     600      326.708   -38438.688     194.7709   -38633.459   -1929.3989 
     800    299.18671   -38466.068    178.36375   -38644.432   -11724.984 
    1000    295.05286   -38494.544    175.89931   -38670.443   -8054.2463 
    1200    316.86328   -38463.942    188.90185   -38652.844   -175.68596 
    1400    305.83818     -38467.6     182.3291   -38649.929    -2736.753 
    1600    324.17241   -38473.725    193.25927   -38666.984    -1295.996 
    1800    308.65818   -38479.292    184.01028   -38663.303    1060.3915 
    2000    318.03003   -38446.675    189.59742   -38636.272   -187.77999 
    2200     261.0716   -38481.378    155.64097   -38637.018   -191.70679 
    2400     316.8107   -38467.633     188.8705   -38656.503    1128.1286 
    2600    296.40346   -38457.359    176.70448   -38634.063    6947.6025 
    2800    311.26865   -38469.906    185.56654   -38655.473   -4936.3246 
    3000    311.53657   -38485.145    185.72627   -38670.872     4913.672 
    3200    287.12395   -38470.126    171.17239   -38641.298    9218.6457 
    3400    285.98452   -38472.382    170.49311   -38642.875    9036.7528 
    3600    300.59934   -38470.354    179.20591    -38649.56    5937.2444 
    3800    279.27403    -38483.99    166.49257   -38650.483    4467.6289 
    4000    290.92401   -38486.542    173.43784    -38659.98   -4251.3844 
    4200    326.37836   -38453.279    194.57438   -38647.854    10984.839 
    4400    281.23158   -38469.859    167.65958   -38637.518    3350.8414 
    4600    271.79169   -38502.884    162.03188   -38664.916   -11484.222 
    4800     277.1904   -38497.558    165.25039   -38662.808   -9325.3509 
    5000     297.2307   -38470.227    177.19765   -38647.424     142.7892 
    5200     318.0887   -38453.526     189.6324   -38643.159    6807.0263 
    5400    292.53521   -38487.654    174.39838   -38662.053    3976.3047 
    5600    337.02639   -38466.703    200.92233   -38667.625   -3392.7275 
    5800    317.04743   -38464.943    189.01163   -38653.955    1049.3452 
    6000     301.4482   -38491.399    179.71197   -38671.111   -1162.0861 
    6200    310.44869   -38460.947    185.07771   -38646.025    3087.9499 
    6400    322.81954   -38459.235    192.45275   -38651.688    2995.3153 
    6600    332.95037   -38473.307    198.49236     -38671.8   -6141.7468 
    6800    300.43657   -38475.197    179.10887   -38654.306   -10512.665 
    7000    296.90835   -38488.559    177.00548   -38665.564   -14889.151 
    7200    274.96953   -38482.041    163.92639   -38645.967   -473.08263 
    7400    294.46708   -38460.166    175.55009   -38635.716     13796.06 
    7600    297.84538   -38482.295     177.5641   -38659.859    14440.543 
    7800    270.08432   -38488.642    161.01401   -38649.656    3126.4167 
    8000    298.59694   -38467.217    178.01215   -38645.229    2137.2835 
    8200    308.33917    -38469.79     183.8201    -38653.61    3694.0843 
    8400    298.26908   -38471.393    177.81669    -38649.21    2252.1323 
    8600    283.46686   -38481.413    168.99218   -38650.405   -1850.6269 
    8800    306.33642   -38475.877    182.62613   -38658.503   -6147.1776 
    9000    290.09094   -38460.287     172.9412   -38633.228     2794.947 
    9200    269.07355   -38497.833    160.41143   -38658.244   -646.87586 
    9400    282.63718   -38475.913    168.49755    -38644.41   -2272.6141 
    9600    332.57842   -38464.164    198.27062   -38662.434     617.3274 
    9800    280.97228   -38483.429      167.505   -38650.934    13093.128 
   10000    318.91673   -38442.221    190.12604   -38632.347   -47.518429 
   10200    302.78422   -38462.411    180.50845    -38642.92   -2940.9081 
   10400    283.74289   -38484.842    169.15673   -38653.998    2261.4954 
   10600    322.45969   -38460.138    192.23822   -38652.376   -2346.4535 
   10800    285.75173   -38468.128    170.35432   -38638.482    1442.6031 
   11000     287.4741   -38479.381    171.38114   -38650.762    1170.7637 
   11200    287.51034   -38468.031    171.40274   -38639.434   -4273.0559 
   11400    291.92343    -38450.04    174.03366   -38624.073    5225.9937 
   11600     293.6738   -38481.574    175.07716   -38656.651   -25.943118 
   11800    286.67789   -38481.765    170.90647   -38652.672   -11642.373 
   12000    307.52156   -38445.918    183.33267   -38629.251   -3190.1409 
   12200    317.66401   -38465.906    189.37921   -38655.286    1243.2856 
   12400    310.72253   -38477.657    185.24097   -38662.898    3834.5299 
   12600     288.1481   -38498.653    171.78295   -38670.436     8053.209 
   12800    298.69331   -38470.516     178.0696   -38648.585    10664.606 
   13000     293.4118   -38462.172    174.92097   -38637.093     563.7956 
   13200    264.13161   -38489.042    157.46523   -38646.507   -4397.4544 
   13400    290.12755   -38481.937    172.96302   -38654.901   -14104.838 
   13600    302.83843   -38469.342    180.54077   -38649.883   -3900.1993 
   13800    307.76055   -38468.145    183.47515    -38651.62    5473.7647 
   14000     327.2255   -38446.467    195.07941   -38641.547   -2122.4196 
   14200    278.84837   -38483.531     166.2388    -38649.77   -3071.2668 
   14400    293.18652    -38477.77    174.78666   -38652.557   -4792.4134 
   14600    325.41298   -38434.665    193.99885   -38628.664   -3644.9155 
   14800    323.31864   -38459.225    192.75029   -38651.975   -4884.2605 
   15000    306.17599   -38476.951    182.53049   -38659.482   -9567.8722 
   15200    290.49724   -38483.392    173.18342   -38656.576   -1529.1439 
   15400    320.17571   -38470.092    190.87659   -38660.968   -5247.1588 
   15600     297.3682   -38464.727    177.27963   -38642.006   -1643.6546 
   15800    265.49701   -38498.019    158.27923   -38656.298   -5196.7062 
   16000     295.9263   -38473.914    176.42001   -38650.334    7759.9173 
   16200    342.20338   -38460.206    204.00865   -38664.215    8766.0938 
   16400    281.66438   -38495.784     167.9176   -38663.702    5292.2351 
   16600    313.19759   -38473.986    186.71651   -38660.702   -961.93794 
   16800     316.1738   -38463.508    188.49081   -38651.999    4848.5745 
   17000    305.98899   -38485.218    182.41901   -38667.638    7007.1144 
   17200    295.07258   -38487.142    175.91106   -38663.053    13356.861 
   17400    341.28037   -38455.981    203.45839   -38659.439   -5968.8997 
   17600    282.53889   -38478.804    168.43895   -38647.243   -9497.6844 
   17800    319.10073   -38446.198    190.23573   -38636.434   -5988.3013 
   18000    313.44682   -38462.373    186.86509   -38649.239   -3170.3301 
   18200    319.47633   -38477.777    190.45965   -38668.236   -12240.182 
   18400     320.6675   -38464.639    191.16978   -38655.808   -17511.978 
   18600    341.30721   -38433.754    203.47439   -38637.229   -5896.5895 
   18800    320.84239    -38470.64    191.27405   -38661.914    6146.4063 
   19000     310.1457   -38477.096    184.89708   -38661.993    16.137638 
   19200    294.16409   -38478.043    175.36945   -38653.413    3928.8405 
   19400    310.37907   -38455.112    185.03621   -38640.148   -1001.8686 
   19600    292.82504   -38477.842    174.57116   -38652.413    784.62686 
   19800    293.23411   -38478.355    174.81504    -38653.17   -7511.9189 
   20000    323.64077   -38465.488    192.94233    -38658.43    -4194.938 
   20200    294.26949   -38475.903    175.43229   -38651.335   -6665.2561 
   20400    304.18332   -38470.969    181.34254   -38652.312   -3756.6662 
   20600    322.74277   -38447.247    192.40698   -38639.654   -13191.457 
   20800    310.60815   -38470.936    185.17278   -38656.108    2050.4202 
   21000    318.84186    -38479.67     190.0814   -38669.751    10139.015 
   21200    295.21883   -38453.224    175.99825   -38629.223    19733.702 
   21400    317.29839   -38465.055    189.16125   -38654.216     889.9819 
   21600    273.34551   -38477.096    162.95821   -38640.055    2723.2917 
   21800    306.10704   -38460.093    182.48939   -38642.582     12883.45 
   22000    291.29326   -38497.749    173.65797   -38671.406     2084.019 
   22200    319.88041   -38471.233    190.70055   -38661.934    9812.2828 
   22400    292.93261   -38466.545    174.63529   -38641.181     1860.559 
   22600    280.26238   -38478.899    167.08178   -38645.981   -3991.3817 
   22800    257.84876    -38489.23    153.71963    -38642.95    1631.7655 
   23000    312.74662   -38456.617    186.44765   -38643.065   -438.35535 
   23200    287.89879   -38488.537    171.63432   -38660.172   -829.52428 
   23400    297.98342   -38490.221     177.6464   -38667.867    910.22784 
   23600    304.64836   -38464.009    181.61978   -38645.629    5438.2517 
   23800    287.09999    -38476.28    171.15811   -38647.438    6278.4204 
   24000    280.24735   -38496.641    167.07282   -38663.714    3815.1322 
   24200    299.18303   -38466.891    178.36156   -38645.252    4099.6652 
   24400    296.28929    -38468.96    176.63642   -38645.597   -3171.9549 
   24600    304.02151   -38450.688    181.24607   -38631.934   -15865.868 
   24800     282.0971   -38488.227    168.17558   -38656.403   -16063.471 
   25000    301.42664   -38473.823    179.69911   -38653.522    1547.0099 
   25200      303.454   -38447.297    180.90775   -38628.204    -2411.916 
   25400    304.89375   -38470.539    181.76607   -38652.305   -10853.681 
   25600    293.28602   -38482.555    174.84598     -38657.4   -3858.2522 
   25800    275.99378   -38487.372    164.53701   -38651.909   -5214.8037 
   26000    301.23028   -38458.116    179.58205   -38637.698   -6316.3998 
   26200    295.00686   -38485.601    175.87188   -38661.473    -10212.59 
   26400    296.25612   -38487.124    176.61664    -38663.74    2202.7462 
   26600    315.47244   -38468.751    188.07268   -38656.823    2031.2546 
   26800    272.55868   -38481.096    162.48913   -38643.585    3009.8151 
   27000     277.3601   -38499.619    165.35155    -38664.97    8984.0455 
   27200      302.511   -38464.746    180.34556   -38645.092   -170.01433 
   27400    304.43527   -38467.589    181.49274   -38649.082   -14264.281 
   27600    277.90661    -38489.75    165.67736   -38655.427    -8434.534 
   27800    321.22528   -38475.823    191.50231   -38667.326    2074.4799 
   28000    316.46123   -38454.914    188.66217   -38643.576    488.30412 
   28200    285.96803   -38467.459    170.48328   -38637.943    5866.5804 
   28400    287.95698   -38484.874    171.66901   -38656.543    3588.2773 
   28600    266.14347    -38500.06    158.66462   -38658.724    5171.5583 
   28800    312.25447   -38469.363    186.15425   -38655.517    12879.863 
   29000    321.09503   -38465.436    191.42466    -38656.86    4254.9953 
   29200    267.88166    -38492.78    159.70087   -38652.481   -69.630542 
   29400    304.01403   -38460.858    181.24162     -38642.1    -5466.722 
   29600    317.99835   -38470.218    189.57854   -38659.797   -8901.1856 
   29800    287.36556   -38482.686    171.31643   -38654.003   -2886.5527 
   30000     296.8086    -38472.17    176.94601   -38649.116   -2650.4007 
   30200    314.96347   -38462.311    187.76925    -38650.08   -2797.6384 
   30400    286.43485   -38497.602    170.76158   -38668.364   -3327.1465 
   30600    287.36199   -38457.599     171.3143   -38628.913   -3059.4143 
   30800    287.31198   -38474.058    171.28449   -38645.343   -2872.1952 
   31000    288.18774    -38468.95    171.80658   -38640.757   -8550.8263 
   31200    305.76506   -38446.037    182.28551   -38628.323   -1388.0269 
   31400    277.39457   -38492.689     165.3721   -38658.061   -1770.0191 
   31600    301.22925   -38463.572    179.58144   -38643.153   -6263.6019 
   31800    311.72444   -38466.975    185.83827   -38652.813   -8158.3814 
   32000    303.28126   -38479.996    180.80477   -38660.801   -1105.6961 
   32200    312.37549   -38459.907     186.2264   -38646.134    6320.8649 
   32400    310.20258   -38484.019    184.93099    -38668.95   -8892.5298 
   32600    296.14397   -38486.868    176.54978   -38663.417    6245.2187 
   32800    311.52936   -38460.868    185.72197    -38646.59    17151.391 
   33000    278.98906   -38467.429    166.32268   -38633.751    6257.2881 
   33200    285.98508   -38478.292    170.49344   -38648.785   -1662.6429 
   33400     284.6015   -38497.154    169.66861   -38666.822   -12206.048 
   33600    304.23023   -38461.683    181.37051   -38643.053   -2642.9449 
   33800    300.51289   -38469.342    179.15437   -38648.496   -7728.3395 
   34000    274.85233   -38504.672    163.85652   -38668.529    -244.8728 
   34200    300.53905   -38462.139    179.16996   -38641.309    10163.116 
   34400    307.28372   -38476.894    183.19088   -38660.085   -1520.1794 
   34600    290.93482   -38487.663    173.44429   -38661.108   -2430.2906 
   34800    326.86339   -38451.535    194.86353   -38646.398   -8853.8771 
   35000    313.87092   -38478.106    187.11792   -38665.224    5625.8853 
   35200      296.851    -38484.49    176.97129   -38661.461   -3236.9992 
   35400    295.33822    -38475.09    176.06942    -38651.16   -7586.3599 
   35600    305.98072   -38451.848    182.41408   -38634.263   -9626.9682 
   35800    304.14094   -38486.581    181.31727   -38667.899    7578.8802 
   36000    273.14699   -38463.021    162.83986   -38625.861    11889.667 
   36200    322.18677   -38464.679    192.07551   -38656.754    4702.3462 
   36400    283.93762   -38485.124    169.27282   -38654.397    1674.0482 
   36600    320.62924   -38453.468    191.14697   -38644.615    9837.6858 
   36800    319.15721   -38480.675    190.26941   -38670.945    10636.647 
   37000    247.74811   -38495.678    147.69801   -38643.376    14917.253 
   37200    298.67294   -38473.767    178.05746   -38651.824    14159.583 
   37400    298.61649   -38464.204    178.02381   -38642.228    2184.9946 
   37600    301.41444   -38474.646    179.69184   -38654.338    -7236.874 
   37800    300.00487   -38478.019     178.8515   -38656.871    4281.2433 
   38000    322.22656   -38448.185    192.09923   -38640.285    1819.5461 
   38200    304.76638   -38485.964    181.69014   -38667.654   -8962.5641 
   38400    283.33519   -38475.868    168.91368   -38644.781   -9741.3193 
   38600     318.9362   -38451.959    190.13765   -38642.097    1171.3373 
   38800    319.81748   -38467.239    190.66303   -38657.902    2814.7162 
   39000    303.05021   -38476.527    180.66702   -38657.194    4615.9746 
   39200    298.81037   -38476.242    178.13939   -38654.381    5790.1421 
   39400    294.04042   -38470.403    175.29573   -38645.699    8060.1746 
   39600    274.64555   -38467.249    163.73324   -38630.982   -522.47444 
   39800    330.63796   -38446.071    197.11379   -38643.185    -571.7483 
   40000    296.88022   -38484.417    176.98871   -38661.406    1719.4528 
   40200    309.83034   -38474.535    184.70908   -38659.244    8660.6202 
   40400    293.44088   -38440.662     174.9383     -38615.6    2855.1871 
   40600    312.47078   -38436.607    186.28321    -38622.89   -1148.2737 
   40800    308.20569   -38479.878    183.74052   -38663.618    -4647.211 
   41000    299.70054   -38474.985    178.67008   -38653.655   -7668.0234 
   41200    273.59349   -38471.856    163.10604   -38634.962   -6163.4372 
   41400    306.09524   -38469.318    182.48235   -38651.801   -1132.6248 
   41600     314.4506   -38467.451     187.4635   -38654.914    -3499.055 
   41800    309.88063    -38475.72    184.73906   -38660.459   -938.56745 
   42000    295.28927   -38486.187    176.04024   -38662.227    2482.2928 
   42200    300.31688   -38461.339    179.03751   -38640.377   -2480.4031 
   42400    326.67512   -38468.891     194.7513   -38663.642   -3636.8199 
   42600     294.0802    -38474.89    175.31944   -38650.209    6228.2935 
   42800    352.27387   -38433.995     210.0123   -38644.008    7288.7483 
   43000    289.76667   -38478.165    172.74788   -38650.913   -6191.5132 
   43200    286.39157   -38473.611    170.73577   -38644.347   -8142.2628 
   43400    316.89316    -38438.04    188.91966   -38626.959   -738.73161 
   43600    294.91303   -38464.034    175.81595    -38639.85   -7516.5803 
   43800    284.21848   -38483.648    169.44026   -38653.088    5743.8478 
   44000    289.69232   -38488.942    172.70356   -38661.645    4810.9099 
   44200     324.2299   -38453.562    193.29355   -38646.855   -1082.7554 
   44400    309.45524   -38479.159    184.48546   -38663.644   -4061.8876 
   44600    289.00341   -38469.042    172.29286   -38641.335    6449.6166 
   44800    332.25824   -38452.604    198.07974   -38650.684     6413.105 
   45000    283.97291   -38483.224    169.29386   -38652.518    2651.1389 
   45200    312.14655    -38465.11    186.08992     -38651.2   -6696.2256 
   45400    300.62383   -38456.865    179.22051   -38636.085   -17231.581 
   45600    290.80492   -38490.631    173.36684   -38663.998    -12305.46 
   45800    311.78054   -38464.349    185.87172   -38650.221   -2033.2998 
   46000    308.28805   -38464.957    183.78962   -38648.746   -2013.9159 
   46200    286.68262   -38484.135    170.90929   -38655.044   -5771.3531 
   46400    283.82649   -38498.856    169.20657   -38668.062   -152.32987 
   46600    310.36608   -38465.618    185.02846   -38650.646    5748.1782 
   46800    312.52448   -38480.297    186.31522   -38666.612    735.81542 
   47000    282.93682   -38494.403    168.67618   -38663.079    5533.0565 
   47200    296.17745   -38459.749    176.56975   -38636.319     5279.321 
   47400    302.61263   -38483.502    180.40616   -38663.908   -7329.8079 
   47600    286.80372   -38469.038    170.98148    -38640.02    3338.9274 
   47800     297.7267   -38460.316    177.49335    -38637.81   -2177.5953 
   48000    289.58361   -38489.196    172.63875   -38661.835    6660.2332 
   48200    287.18788   -38478.036     171.2105   -38649.246   -12686.651 
   48400    305.76122   -38462.027    182.28322   -38644.311   -5076.1263 
   48600    291.93668   -38489.113    174.04156   -38663.154    4078.0836 
   48800    283.36846   -38479.889    168.93351   -38648.823    1819.0173 
   49000    325.38154   -38460.166    193.98011   -38654.146   -1470.5659 
   49200    287.55891   -38487.903     171.4317   -38659.334    -14808.14 
   49400    284.48832   -38473.254    169.60113   -38642.855   -10760.816 
   49600    296.08521   -38460.394    176.51475   -38636.908   -7192.5803 
   49800    282.65729   -38486.846    168.50954   -38655.356     6394.519 
   50000    291.44785   -38503.066    173.75014   -38676.816    6001.9517 
   50200    309.11496   -38465.714     184.2826   -38649.997    -1431.425 
   50400    291.53977    -38472.92    173.80493   -38646.725    6259.2581 
   50600    270.54839   -38497.785    161.29067   -38659.076    9049.9857 
   50800    299.20117   -38475.011    178.37237   -38653.383    6159.5735 
   51000    323.40232   -38455.653    192.80017   -38648.453    1708.0953 
   51200    297.32616   -38481.571    177.25456   -38658.825    12313.927 
   51400    305.61333   -38483.054    182.19506   -38665.249    13298.754 
   51600    288.99039   -38459.262    172.28509   -38631.547     726.0407 
   51800    285.27103   -38468.741    170.06775   -38638.809    2289.0288 
   52000    293.75677   -38476.101    175.12663   -38651.228    2392.3005 
   52200    307.72075   -38464.437    183.45142   -38647.888    4360.1956 
   52400    281.10719    -38469.83    167.58543   -38637.415   -2829.9863 
   52600    283.73891   -38488.508    169.15436   -38657.663    1600.6477 
   52800    327.27212   -38448.966    195.10721   -38644.073   -4855.6762 
   53000     302.9301   -38479.047    180.59542   -38659.643   -9827.3491 
   53200    284.66262   -38474.558    169.70504   -38644.263   -1785.2451 
   53400    332.26366   -38447.593    198.08297   -38645.676    3229.4284 
   53600    326.86342   -38449.588    194.86355   -38644.451    3066.8051 
   53800    288.61642   -38478.449    172.06214   -38650.511    2119.7972 
   54000    290.04839   -38471.015    172.91583   -38643.931   -962.76854 
   54200    327.35836   -38451.595    195.15862   -38646.753   -4402.2357 
   54400    277.34382   -38481.902    165.34185   -38647.244   -10654.014 
   54600    306.64214   -38465.201     182.8084   -38648.009   -2762.1566 
   54800    328.81653   -38446.794    196.02792   -38642.822    8012.2678 
   55000    299.06277   -38474.494    178.28986   -38652.784    7394.1726 
   55200    293.41311   -38474.685    174.92175   -38649.606    4497.8415 
   55400    321.53872   -38446.568    191.68917   -38638.257    2400.2317 
   55600    297.50661   -38481.812    177.36214   -38659.175    1056.2395 
   55800    283.06843   -38476.403    168.75464   -38645.157    5611.7824 
   56000    327.60035   -38456.113    195.30288   -38651.415    7581.9103 
   56200    305.89246   -38494.127    182.36146   -38676.488     6593.422 
   56400    323.17564   -38463.888    192.66504   -38656.553    9291.4801 
   56600    321.42166   -38462.509    191.61938   -38654.129    9579.3503 
   56800    282.69102   -38497.895    168.52965   -38666.425   -3890.0566 
   57000    302.28351   -38476.055    180.20994   -38656.264   -9598.5951 
   57200    303.29787   -38465.423    180.81467   -38646.237   -5602.9663 
   57400    289.78142   -38470.361    172.75667   -38643.118   -4431.5951 
   57600    289.67318   -38470.625    172.69214   -38643.317    1573.0799 
   57800     298.7398   -38473.988    178.09732   -38652.085    14385.393 
   58000    291.04631   -38502.548    173.51075   -38676.058    456.39008 
   58200    312.83701     -38466.7    186.50154   -38653.202   -7090.3127 
   58400    304.45028   -38465.679    181.50169   -38647.181     5495.606 
   58600    263.86358   -38498.911    157.30544   -38656.216    8752.8021 
   58800    318.64036   -38464.443    189.96128   -38654.404   -5312.6611 
   59000    306.45148   -38469.941    182.69473   -38652.635   -6355.9662 
   59200    297.45361   -38487.104    177.33054   -38664.434    1248.9294 
   59400    319.50603   -38450.181    190.47736   -38640.659    545.11516 
   59600    273.14875   -38475.795    162.84091   -38638.636   -6607.9566 
   59800    313.48887   -38479.582    186.89016   -38666.472   -848.57425 
   60000    311.74325   -38460.117    185.84948   -38645.967    13200.365 
   60200    296.53337    -38469.15    176.78193   -38645.932    3266.0039 
   60400    283.19611   -38486.563    168.83076   -38655.394   -2282.1192 
   60600     276.5379    -38476.29    164.86139   -38641.151    1514.6057 
   60800    310.96316   -38464.333    185.38442   -38649.717    2414.7781 
   61000    312.37841   -38461.591    186.22814   -38647.819   -146.27477 
   61200    280.75733   -38486.155    167.37685   -38653.532    464.58791 
   61400    306.64335   -38451.091    182.80912     -38633.9   -1013.4574 
   61600    308.75013   -38463.851     184.0651   -38647.916    3849.4501 
   61800    299.02816   -38477.041    178.26923   -38655.311    4433.0104 
   62000    301.79462   -38467.379    179.91849   -38647.297    5557.6839 
   62200    334.37622   -38437.543     199.3424   -38636.885    7845.6383 
   62400    311.64886   -38468.032    185.79321   -38653.825    5266.6117 
   62600    282.88973    -38486.33    168.64811   -38654.978    2938.2955 
   62800     302.9184   -38483.066    180.58844   -38663.654    7480.8853 
   63000    285.44086   -38457.212      170.169   -38627.381    14623.499 
   63200    278.45047   -38485.828    166.00159    -38651.83    1991.1545 
   63400    301.73682   -38483.112    179.88403   -38662.996   -8579.9104 
   63600    279.47602   -38467.568    166.61299   -38634.181   -2134.6556 
   63800    274.92703   -38479.731    163.90105   -38643.632   -2297.6716 
   64000    314.87576   -38464.057    187.71697   -38651.773   -1605.1687 
   64200    302.49821   -38446.187    180.33794   -38626.525    16394.793 
   64400    302.76215   -38483.993    180.49529   -38664.489    12386.491 
   64600    304.44332   -38471.311    181.49754   -38652.809    10762.917 
   64800    323.37121   -38450.751    192.78163   -38643.532     -4783.24 
   65000     309.3322   -38470.304     184.4121   -38654.717   -6303.1673 
   65200    306.47983   -38471.979    182.71163   -38654.691   -2165.0475 
   65400    319.92023   -38455.209    190.72429   -38645.933    3676.0694 
   65600    294.88653   -38482.029    175.80014   -38657.829   -624.83798 
   65800    291.82031   -38480.405    173.97218   -38654.377   -3861.2024 
   66000    312.99414   -38457.701    186.59521   -38644.296    5191.7013 
   66200    306.45687   -38477.545    182.69794   -38660.243    1589.2606 
   66400    283.52445   -38482.878    169.02651   -38651.904   -111.32769 
   66600    288.20983   -38456.189    171.81975   -38628.008   -233.39897 
   66800     302.0728    -38482.07    180.08433   -38662.154   -5842.0757 
   67000    306.16599   -38457.092    182.52453   -38639.617    130.78773 
   67200    291.93677   -38457.617    174.04161   -38631.658    7110.4794 
   67400     265.5277   -38481.916    158.29753   -38640.214    13954.794 
   67600    308.10768   -38476.485     183.6821   -38660.167    5560.9982 
   67800    318.43638   -38460.951    189.83967   -38650.791   -232.68263 
   68000    269.03804   -38497.483    160.39026   -38657.874    -213.5202 
   68200    294.60173   -38471.882    175.63036   -38647.512   -3727.0183 
   68400    314.16675   -38458.936    187.29428    -38646.23    1569.5989 
   68600    287.07656   -38496.471    171.14414   -38667.615    -8728.087 
   68800    281.32744   -38472.698    167.71673   -38640.415   -11868.816 
   69000    327.69534   -38466.293    195.35951   -38661.652   -502.98233 
   69200    271.92255   -38497.183    162.10989   -38659.293    14888.421 
   69400    318.89451   -38463.381    190.11279   -38653.494    12705.624 
   69600    328.89818   -38459.009     196.0766   -38655.086    16407.614 
   69800    299.84854   -38489.644    178.75831   -38668.403    13307.697 
   70000    272.72542   -38462.796    162.58854   -38625.385   -5896.5835 
   70200    291.18195   -38465.351    173.59162   -38638.943   -1365.2272 
   70400    289.55493   -38481.776    172.62165   -38654.397   -12339.209 
   70600     313.9443   -38473.994    187.16166   -38661.156    1781.8195 
   70800    335.57952   -38444.217    200.05976   -38644.277   -1881.4164 
   71000    312.58907   -38469.843    186.35373   -38656.197    4802.7976 
   71200    309.97474     -38479.8    184.79516   -38664.595    2652.1406 
   71400    293.85456   -38466.001    175.18492   -38641.186      2942.39 
   71600    304.03151   -38464.253    181.25203   -38645.505    8634.7648 
   71800    293.06394   -38479.114    174.71359   -38653.827    339.43735 
   72000    321.71623   -38472.302    191.79499   -38664.097   -10947.451 
   72200    300.32058   -38471.708    179.03972   -38650.748    936.10931 
   72400     265.6697   -38488.596    158.38218   -38646.978    -1011.818 
   72600    315.25866   -38461.287    187.94524   -38649.232    2815.0529 
   72800    284.97115   -38471.137    169.88897   -38641.026   -3776.2009 
   73000    276.66866   -38492.867    164.93934   -38657.806   -621.56385 
   73200    308.96388   -38461.238    184.19253    -38645.43     1812.274 
   73400    289.50966   -38467.709    172.59466   -38640.303   -1864.7459 
   73600    272.40338   -38496.698    162.39655   -38659.095    917.29044 
   73800    313.51309   -38480.308    186.90459   -38667.212    8025.3579 
   74000    305.02947   -38463.228    181.84698   -38645.075    4414.1405 
   74200    292.51956   -38485.892    174.38905   -38660.281    6400.9074 
   74400    294.86445   -38479.535    175.78699   -38655.322    2713.5374 
   74600    295.92669   -38458.116    176.42025   -38634.536    5332.2405 
   74800    302.41832   -38486.096    180.29032   -38666.386    6334.6212 
   75000    311.25007   -38463.665    185.55547   -38649.221    4821.9526 
   75200    305.25587   -38460.248    181.98195    -38642.23    2182.1121 
   75400    298.49864   -38485.883    177.95355   -38663.837   -1092.0975 
   75600    298.69097   -38453.956    178.06821   -38632.024   -4189.1256 
   75800     300.2209   -38470.747    178.98029   -38649.727   -1000.0384 
   76000    307.84618   -38480.555     183.5262   -38664.082    7918.3945 
   76200    327.94748   -38448.642    195.50983   -38644.151    8352.6092 
   76400    336.50886   -38445.075     200.6138   -38645.688   -3088.0475 
   76600    298.38606   -38480.623    177.88643   -38658.509   -6811.8243 
   76800    293.50338   -38476.503    174.97556   -38651.479    -8575.454 
   77000    310.05309   -38446.989    184.84187    -38631.83    6572.4425 
   77200    287.21346   -38482.471    171.22575   -38653.697    901.54425 
   77400    297.08653   -38465.603     177.1117   -38642.715   -5678.6434 
   77600    311.78593   -38452.654    185.87493   -38638.529     2500.997 
   77800    290.87613   -38488.298     173.4093   -38661.707    11049.074 
   78000    325.75884   -38462.224    194.20505   -38656.429    7514.3045 
   78200    299.16591   -38461.433    178.35135   -38639.784    4332.8662 
   78400    279.76017   -38497.394    166.78238   -38664.177     4341.719 
   78600    307.46274    -38463.04    183.29761   -38646.338    1495.0496 
   78800    299.60851   -38482.004    178.61521   -38660.619     40.34767 
   79000    320.24172   -38457.796    190.91595   -38648.712   -648.02055 
   79200    315.74026   -38461.646    188.23235   -38649.878     -10586.8 
   79400    302.58093   -38481.833    180.38726    -38662.22    -16225.96 
   79600    309.69223   -38469.147    184.62674   -38653.774   -12062.959 
   79800    292.41131   -38475.329    174.32451   -38649.653   -9190.3053 
   80000    263.80854   -38490.511    157.27263   -38647.784     -9285.28 
   80200    316.32191   -38458.966     188.5791   -38647.545   -1305.2431 
   80400    298.96711   -38477.574    178.23283   -38655.807    1973.0166 
   80600    298.37116   -38486.957    177.87755   -38664.834    1925.1774 
   80800    294.83225   -38457.455    175.76778   -38633.222    11520.183 
   81000    313.36567   -38463.927    186.81671   -38650.743    4369.5505 
   81200    286.45679   -38478.724    170.77466   -38649.498    4069.5066 
   81400    319.16221   -38450.014    190.27238   -38640.286   -4327.0863 
   81600     289.0944   -38475.718     172.3471   -38648.066    5203.2779 
   81800    296.27492   -38481.675    176.62785   -38658.303    10631.866 
   82000    324.58499   -38441.378    193.50524   -38634.883    3080.5657 
   82200    300.36991   -38472.923    179.06913   -38651.992   -2316.8043 
   82400    268.66461   -38484.508    160.16764   -38644.676   -13020.523 
   82600    304.22921   -38460.647     181.3699   -38642.017   -17094.765 
   82800    292.03115   -38467.997    174.09788   -38642.095   -13547.089 
   83000    297.97197   -38484.664    177.63957   -38662.303   -6048.3114 
   83200    292.96435   -38490.143    174.65422   -38664.797   -2504.8683 
   83400    297.97891    -38461.45     177.6437   -38639.094   -4803.7396 
   83600    280.98229   -38490.031    167.51097   -38657.542    2406.1278 
   83800    282.95752   -38489.018    168.68852   -38657.707    -144.2189 
   84000    300.96841   -38466.141    179.42593   -38645.567    119.68489 
   84200    305.98811   -38465.698    182.41849   -38648.116    8067.7397 
   84400    319.54789    -38492.81    190.50231   -38683.312    5395.0933 
   84600    299.14005   -38467.329    178.33593   -38645.665     13207.56 
   84800    293.74294   -38464.459    175.11838   -38639.577    5220.9019 
   85000    276.83452   -38499.552    165.03822    -38664.59    4700.3088 
   85200     269.8011   -38505.358    160.84517   -38666.203    8099.0489 
   85400     293.2264   -38472.904    174.81044   -38647.714    8726.3195 
   85600    315.88112   -38463.629    188.31632   -38651.946    4702.8066 
   85800    290.04877   -38499.609    172.91606   -38672.525    -9397.085 
   86000    302.59407   -38467.186    180.39509   -38647.581   -11382.425 
   86200    294.58162   -38471.813    175.61837   -38647.432   -7873.6111 
   86400    259.48183   -38489.494    154.69321   -38644.187    319.40824 
   86600    309.11181   -38463.052    184.28072   -38647.333    3696.7203 
   86800     308.0636   -38460.574    183.65581    -38644.23   -5885.1192 
   87000    284.83378   -38498.161    169.80708   -38667.968   -7473.2787 
   87200    305.50657   -38480.139    182.13141    -38662.27   -2228.4836 
   87400    309.73917   -38466.609    184.65473   -38651.264    2511.8424 
   87600    280.73839   -38479.996    167.36556   -38647.362    8285.3284 
   87800    278.71759   -38494.971    166.16084   -38661.132    751.26231 
   88000    313.06151   -38460.145    186.63538    -38646.78   -5369.7154 
   88200    317.02584   -38471.161    188.99876    -38660.16   -70.525225 
   88400    292.80551   -38488.197    174.55952   -38662.756    3333.4114 
   88600     313.7159   -38463.376     187.0255   -38650.401    9501.4076 
   88800    291.75209   -38473.424    173.93151   -38647.356    623.44617 
   89000    281.88163   -38503.402    168.04712   -38671.449   -4456.8783 
   89200    292.86104   -38476.094    174.59263   -38650.687    1417.0686 
   89400     287.8871   -38468.682    171.62735    -38640.31    12893.913 
   89600    299.70993   -38482.569    178.67568   -38661.244    6080.7089 
   89800     303.9205   -38482.517    181.18586   -38663.703    4922.3567 
   90000    311.56587   -38458.255    185.74374   -38643.998   -2465.0811 
   90200    289.06428   -38481.788    172.32914   -38654.117   -456.46892 
   90400     323.1017   -38471.151    192.62096   -38663.772   -1939.1942 
   90600    316.51583   -38452.824    188.69471   -38641.519   -11562.495 
   90800    328.37824   -38446.948    195.76663   -38642.715    -3525.827 
   91000    291.34527   -38481.169    173.68898   -38654.858   -6683.2419 
   91200    300.29047   -38456.959    179.02177   -38635.981   -5094.1236 
   91400    267.27211   -38477.701    159.33748   -38637.039   -8854.9004 
   91600    277.44081   -38482.895    165.39967   -38648.295    -5896.409 
   91800    293.62751   -38468.294    175.04957   -38643.343   -5068.5553 
   92000    296.04467   -38479.701    176.49059   -38656.192   -6135.7027 
   92200    283.74273   -38499.976    169.15664   -38669.133   -1405.4735 
   92400    303.76465    -38465.14    181.09294   -38646.233    2339.6356 
   92600     299.9175   -38469.299    178.79942   -38648.098   -1834.1722 
   92800    281.59988   -38498.708    167.87915   -38666.588   -13522.508 
   93000    308.69155   -38461.574    184.03017   -38645.605   -2701.5968 
   93200    294.78595   -38469.134    175.74018   -38644.875     4444.558 
   93400    297.02703   -38486.489    177.07623   -38663.566   -796.12197 
   93600    313.74871    -38447.01    187.04506   -38634.055    2266.1031 
   93800    288.27294   -38474.394    171.85737   -38646.252   -884.17707 
   94000    282.08882   -38480.357    168.17064   -38648.527   -9504.3185 
   94200    279.44751   -38460.528    166.59599   -38627.124   -2205.8906 
   94400    316.90286   -38486.184    188.92545    -38675.11    553.48431 
   94600     302.8123     -38485.5    180.52519   -38666.025   -7758.7221 
   94800     316.1676   -38461.401    188.48711   -38649.888   -5459.6545 
   95000    311.43465   -38474.249    185.66551   -38659.915   -8040.0895 
   95200    298.04576    -38469.69    177.68356   -38647.374     1671.537 
   95400     326.8075   -38434.763    194.83021   -38629.593    5356.2272 
   95600    318.80423   -38480.025    190.05897   -38670.084    1144.2196 
   95800    307.96538   -38482.684    183.59726   -38666.281   -2986.6264 
   96000    326.90801   -38443.424    194.89013   -38638.314   -11953.069 
   96200    318.13748   -38462.771    189.66148   -38652.432   -16563.042 
   96400    327.99356   -38470.297     195.5373   -38665.834    -4120.438 
   96600    317.85258    -38450.71    189.49163   -38640.201   -5820.1788 
   96800    281.30976   -38470.333    167.70619   -38638.039   -5679.5386 
   97000    275.67727   -38484.762    164.34832    -38649.11   -2840.5649 
   97200    312.26133   -38449.296    186.15834   -38635.454    209.54031 
   97400    296.76326   -38466.149    176.91898   -38643.068   -2015.1511 
   97600    295.65061   -38485.445    176.25566   -38661.701    2301.8597 
   97800    321.99853   -38446.973    191.96329   -38638.936    6681.1024 
   98000    307.92274    -38469.01    183.57184   -38652.582    12608.295 
   98200    286.85215   -38480.183    171.01035   -38651.194    11449.693 
   98400    301.00082   -38470.528    179.44525   -38649.974    12498.754 
   98600    296.85013   -38482.294    176.97077   -38659.265   -4240.6945 
   98800    298.62961   -38476.796    178.03163   -38654.828   -8850.8919 
   99000    345.82378   -38450.476      206.167   -38656.643   -16989.985 
   99200    289.41882   -38489.221     172.5405   -38661.762   -15273.115 
   99400    288.95534   -38475.022    172.26419   -38647.286   -4690.7379 
   99600    341.62832    -38450.01    203.66582   -38653.675    1229.9162 
   99800    300.09203       -38472    178.90347   -38650.904    8062.2882 
  100000    271.59889   -38485.616    161.91694   -38647.532   -3828.9389 
  100200    329.52538   -38447.781    196.45052   -38644.231    11553.541 
  100400     315.3884   -38475.838    188.02258   -38663.861    5475.8858 
  100600      285.575   -38481.183    170.24897   -38651.432    2418.9004 
  100800    347.84878   -38431.588    207.37423   -38638.963    1503.0241 
  101000    310.06584   -38454.016    184.84948   -38638.865    321.12165 
  101200    287.16211   -38481.779    171.19514   -38652.974   -14372.305 
  101400    308.90414   -38457.693    184.15692   -38641.849   -25173.881 
  101600    307.48214   -38445.934    183.30917   -38629.243   -9838.3797 
  101800    304.11927   -38476.619    181.30435   -38657.924    616.68449 
  102000    308.55558   -38464.226    183.94912   -38648.176    3730.5207 
  102200    302.67577   -38450.826    180.44379   -38631.269   -726.36045 
  102400    292.97795   -38478.492    174.66232   -38653.154    4289.0164 
  102600    316.77008   -38471.898    188.84629   -38660.745    1103.3371 
  102800    325.79254   -38454.042    194.22514   -38648.267    4975.0531 
  103000    321.34215   -38462.366    191.57198   -38653.938    -2062.927 
  103200    297.56652   -38489.115    177.39786   -38666.513    10648.161 
  103400    323.14615   -38455.279    192.64746   -38647.926    8.1842503 
  103600    287.32761   -38469.703    171.29381   -38640.997   -18350.099 
  103800    288.19848   -38483.505    171.81299   -38655.318   -2442.4513 
  104000    265.83938    -38507.94    158.48334   -38666.424   -3552.3281 
  104200    310.64894   -38474.282     185.1971   -38659.479   -4240.6225 
  104400    323.15749   -38457.376    192.65422   -38650.031   -7835.0134 
  104600    332.52286   -38451.007     198.2375   -38649.245   -17682.678 
  104800    297.71087   -38476.569    177.48391   -38654.053   -8296.9292 
  105000    294.61113   -38473.765    175.63597   -38649.401    8063.6599 
  105200    332.49059   -38448.624    198.21826   -38646.842   -690.93461 
  105400    298.31974   -38483.606    177.84689   -38661.453   -6777.7614 
  105600    317.35232   -38457.844     189.1934   -38647.037   -7340.8546 
  105800    300.10415   -38486.972    178.91069   -38665.882    10272.856 
  106000    285.85507   -38488.551    170.41593   -38658.967    5133.1442 
  106200    303.06578   -38466.395    180.67631   -38647.071    3893.4103 
  106400     293.0575   -38480.503    174.70975   -38655.212   -59.405277 
  106600    294.47046   -38483.825     175.5521   -38659.377   -5169.9745 
  106800    296.38534    -38466.74    176.69368   -38643.433   -5152.3339 
  107000     288.0253   -38493.963    171.70974   -38665.672    10326.905 
  107200    294.49333   -38474.279    175.56574   -38649.845    10935.332 
  107400    320.61123   -38465.146    191.13623   -38656.282    1676.2809 
  107600    300.64858   -38479.127    179.23526   -38658.363   -7224.1086 
  107800    277.88316   -38485.414    165.66338   -38651.078   -1447.8354 
  108000    326.85035   -38458.558    194.85576   -38653.414    8979.6122 
  108200    285.70808   -38487.467     170.3283   -38657.795    14229.207 
  108400    309.64398   -38475.963    184.59798   -38660.561    8807.4998 
  108600    310.43579   -38460.019    185.07002   -38645.089    2101.8086 
  108800    310.96686   -38484.385    185.38663   -38669.772    3971.0131 
  109000    291.94339   -38482.135    174.04556    -38656.18    8634.5993 
  109200    323.55582   -38464.885    192.89169   -38657.777    788.96117 
  109400    303.51389   -38466.218    180.94345   -38647.162   -6494.6482 
  109600    273.89335   -38479.095    163.28481    -38642.38   -14147.785 
  109800    269.24182   -38488.284    160.51174   -38648.796   -2575.9941 
  110000    306.47821    -38460.02    182.71066   -38642.731   -6774.2499 
  110200    283.38606   -38496.182      168.944   -38665.126    2066.6222 
  110400     278.8487   -38484.519      166.239   -38650.758   -1398.6163 
  110600    302.28484   -38468.666    180.21074   -38648.877    -5083.701 
  110800    294.70358   -38480.384    175.69108   -38656.075   -10642.653 
  111000    292.89847   -38484.287    174.61494   -38658.902   -7006.0262 
  111200    305.49534   -38453.732    182.12472   -38635.856   -8905.4262 
  111400    284.51995    -38484.75    169.61998    -38654.37    -8743.905 
  111600    295.00269   -38480.743     175.8694   -38656.612   -185.75808 
  111800    337.71994   -38449.425     201.3358   -38650.761    4989.9638 
  112000    328.92973   -38429.984    196.09541   -38626.079    4664.7394 
  112200    276.18211   -38476.864    164.64928   -38641.513    -3505.522 
  112400    306.36521   -38470.245     182.6433   -38652.888   -17186.579 
  112600    311.98245   -38445.383    185.99209   -38631.375   -15502.536 
  112800    291.53089   -38488.723    173.79964   -38662.523   -1430.1515 
  113000    302.45872   -38464.628     180.3144   -38644.942    12589.089 
  113200    343.42027   -38453.926    204.73412    -38658.66    7228.3213 
  113400    289.79988   -38471.652    172.76768   -38644.419     -1401.65 
  113600    304.10533   -38477.997    181.29604   -38659.293   -5083.6974 
  113800    274.22562   -38507.694     163.4829   -38671.177    6826.4392 
  114000    312.92906   -38470.218    186.55641   -38656.775    283.61238 
  114200    303.04375   -38460.204    180.66317   -38640.867   -7643.8272 
  114400    288.33874   -38483.796     171.8966   -38655.692   -9560.2851 
  114600    291.29688   -38480.765    173.66014   -38654.425    10689.128 
  114800    313.38983   -38456.384    186.83111   -38643.215    11215.657 
  115000     291.9158   -38486.718    174.02911   -38660.747    2371.7846 
  115200    300.45832   -38473.659    179.12184    -38652.78   -295.15494 
  115400    291.72191   -38470.715    173.91352   -38644.629   -7017.0302 
  115600    306.24365   -38461.897    182.57083   -38644.468   -3723.8632 
  115800    281.59811    -38487.39    167.87809   -38655.268    -5075.426 
  116000    302.81919   -38474.045     180.5293   -38654.574   -640.65114 
  116200    302.25621   -38455.004    180.19367   -38635.198    48.579094 
  116400    280.00039   -38486.281    166.92559   -38653.206    6218.0781 
  116600    324.92493   -38479.833     193.7079   -38673.541    7459.8015 
  116800    293.56278   -38471.827    175.01098   -38646.838    1872.1881 
  117000    292.97422   -38464.106     174.6601   -38638.766    2628.0198 
  117200    282.90178   -38469.885     168.6553   -38638.541    2287.0416 
  117400    292.04724   -38480.161    174.10747   -38654.268    5834.8762 
  117600    291.22212    -38478.51    173.61557   -38652.125    11522.246 
  117800    298.55592    -38454.27     177.9877   -38632.258    5043.4492 
  118000    264.22376   -38491.881    157.52017   -38649.401   -5789.8542 
  118200    293.24389   -38477.312    174.82087   -38652.133   -18008.241 
  118400    310.91315   -38458.748    185.35461   -38644.102    -14550.26 
  118600    296.23535   -38469.932    176.60426   -38646.536   -3149.2268 
  118800    295.92809   -38475.678    176.42108     -38652.1   -2777.7355 
  119000    328.29013   -38443.403     195.7141   -38639.117   -7633.1697 
  119200    292.09715   -38477.985    174.13723   -38652.122   -4510.7468 
  119400    302.58588   -38478.027    180.39021   -38658.417   -2472.3073 
  119600    309.82012    -38449.07    184.70299   -38633.773    2110.3172 
  119800    278.77533   -38480.139    166.19526   -38646.335    6877.2581 
  120000    300.27761   -38467.292     179.0141   -38646.306   -2715.4185 
  120200    316.02692   -38460.598    188.40324   -38649.001    2151.6212 
  120400    283.83026    -38486.03    169.20882   -38655.238   -4459.7294 
  120600    297.27415   -38451.059    177.22355   -38628.283   -841.69326 
  120800    290.64729   -38467.476    173.27287   -38640.749   -3526.9172 
  121000    274.65427   -38477.486    163.73844   -38641.225   -6443.7697 
  121200    338.47546   -38434.145    201.78621   -38635.931    7402.1391 
  121400    302.38289   -38472.533    180.26919   -38652.802     6677.058 
  121600    299.14171   -38477.868    178.33692   -38656.205    528.67646 
  121800    358.02864   -38442.724    213.44307   -38656.167    4031.8072 
  122000    316.15894   -38463.435    188.48195   -38651.917   -2197.0386 
  122200     302.3603   -38479.369    180.25572   -38659.624   -1248.0412 
  122400    318.65602   -38466.903    189.97062   -38656.874   -7795.0916 
  122600    320.74495   -38451.419    191.21595   -38642.635    -5103.812 
  122800    286.72927   -38485.713     170.9371    -38656.65   -10398.507 
  123000    285.76898   -38474.507    170.36461   -38644.872   -5318.9471 
  123200     345.1789   -38424.243    205.78255   -38630.025    2488.5304 
  123400    317.85743   -38452.767    189.49452   -38642.261    108.79871 
  123600    294.01875   -38477.457    175.28281    -38652.74    3240.9964 
  123800    285.97084   -38491.787    170.48495   -38662.272   -1778.1004 
  124000    311.70588   -38453.339     185.8272   -38639.166   -3989.4495 
  124200    296.18298   -38474.022    176.57304   -38650.595    2061.6379 
  124400     302.6683   -38486.235    180.43934   -38666.674   -4223.3644 
  124600    299.85141   -38457.561    178.76002   -38636.321   -4138.2242 
  124800    320.59035   -38466.428    191.12379   -38657.551   -4325.9983 
  125000     288.4393   -38494.034    171.95655    -38665.99    14134.036 
  125200    292.53073   -38459.381    174.39571   -38633.777     19386.01 
  125400    287.96885   -38458.176    171.67609   -38629.852    2377.6237 
  125600    278.31382   -38484.327    165.92013   -38650.248   -8955.4092 
  125800     275.6467    -38493.72    164.33009    -38658.05    -13658.89 
  126000    306.60126   -38466.348    182.78403   -38649.132    -5516.118 
  126200    280.51452   -38484.965     167.2321   -38652.197   -1376.2429 
  126400    296.97214    -38480.05    177.04351   -38657.093   -1636.5498 
  126600    304.89045   -38460.044     181.7641   -38641.808    -9500.449 
  126800    284.22674    -38488.99    169.44518   -38658.435   -4367.4539 
  127000      299.764   -38473.797    178.70791   -38652.505    1179.0497 
  127200    304.16248   -38455.743    181.33011   -38637.073    8288.2478 
  127400    309.46248   -38478.246    184.48978   -38662.736    9721.6423 
  127600    310.51209   -38452.678    185.11551   -38637.794    9720.4901 
  127800    301.43872   -38463.717    179.70631   -38643.423    15645.753 
  128000    297.22523    -38484.22    177.19439   -38661.414    9576.4427 
  128200    311.63572   -38459.154    185.78537    -38644.94   -190.77459 
  128400    313.56753    -38452.54    186.93705   -38639.477   -506.16283 
  128600    308.62552   -38478.495    183.99081   -38662.486    3851.1912 
  128800    293.59085   -38473.217    175.02771   -38648.245     6427.692 
  129000     320.9815   -38431.844    191.35698   -38623.201     451.5052 
  129200    302.12953   -38467.431    180.11815   -38647.549    5.3472624 
  129400    289.37891   -38479.848    172.51671   -38652.365    5822.0045 
  129600    312.93778   -38454.896    186.56162   -38641.458    -7228.143 
  129800     305.6096   -38470.115    182.19284   -38652.308   -10448.554 
  130000    294.41061   -38481.471    175.51642   -38656.988   -11320.497 
  130200    307.26971   -38451.552    183.18253   -38634.734   -3466.5739 
  130400    315.19376   -38466.647    187.90654   -38654.553    3224.1019 
  130600    299.51244   -38480.283    178.55794    -38658.84   -1200.5006 
  130800    310.43511   -38464.006    185.06962   -38649.075    10327.424 
  131000    325.01496   -38436.919    193.76157   -38630.681    3920.8532 
  131200    316.51575   -38470.879    188.69466   -38659.574    2049.8813 
  131400    292.23085   -38483.408    174.21693   -38657.625    10614.538 
  131600    272.64152   -38498.145    162.53852   -38660.683    9542.6169 
  131800    277.71843   -38466.109    165.56517   -38631.674    921.23415 
  132000    309.71851   -38465.728    184.64241    -38650.37     5718.937 
  132200    268.88371   -38496.101    160.29826     -38656.4   -1438.3265 
  132400    302.68075   -38466.701    180.44676   -38647.148   -10924.665 
  132600    291.81878   -38477.091    173.97127   -38651.062    2541.4894 
  132800    257.05373    -38507.57    153.24567   -38660.816    14975.222 
  133000    314.77844   -38476.351    187.65894    -38664.01    10520.517 
  133200    307.04848   -38456.931    183.05064   -38639.982   -2964.2936 
  133400    287.13611    -38482.89    171.17964    -38654.07   -4482.9418 
  133600    286.54672   -38490.831    170.82827   -38661.659   -15052.444 
  133800    271.04647   -38466.916    161.58761   -38628.504   -5138.1415 
  134000    277.29842    -38467.45    165.31478   -38632.765   -2507.3785 
  134200    280.75322   -38503.117    167.37441   -38670.491    7035.1532 
  134400    286.02806   -38476.727    170.51907   -38647.246    2720.7273 
  134600    311.81688   -38471.195    185.89338   -38657.088    3712.9824 
  134800    292.64558   -38474.952    174.46418   -38649.416    11018.755 
  135000    328.29296   -38453.912    195.71579   -38649.627    17575.989 
  135200    305.88918   -38467.812    182.35951   -38650.172    12483.364 
  135400    281.42084   -38488.365    167.77241   -38656.138    8416.1576 
  135600    330.62545   -38455.483    197.10633   -38652.589    1875.5858 
  135800     291.5173   -38469.135    173.79154   -38642.927   -1932.0777 
  136000    304.61977   -38474.344    181.60274   -38655.946    -8002.957 
  136200    276.24038   -38507.002    164.68402   -38671.686    -5592.465 
  136400     305.2159   -38475.665    181.95813   -38657.623    -2613.405 
  136600    312.36576   -38463.836     186.2206   -38650.056    8637.9262 
  136800    301.46426    -38481.48    179.72154   -38661.202   -6738.8224 
  137000    291.69828   -38480.795    173.89944   -38654.695   -9399.8044 
  137200    324.59842   -38459.557    193.51325    -38653.07   -8464.7122 
  137400    286.76019   -38476.061    170.95553   -38647.016   -827.48392 
  137600    294.80364   -38469.439    175.75073    -38645.19    -6568.453 
  137800    303.05002   -38437.158    180.66691   -38617.825   -5115.1392 
  138000    311.19679   -38467.262     185.5237   -38652.785   -3582.2484 
  138200    274.24816   -38488.673    163.49634   -38652.169   -2431.0213 
  138400    283.97453   -38484.707    169.29483   -38654.002   -5968.6955 
  138600    305.29685   -38448.678    182.00639   -38630.684   -12588.952 
  138800     258.0991   -38476.101    153.86888   -38629.969   -7181.9231 
  139000    310.08163   -38472.959    184.85888   -38657.818    4255.8365 
  139200     317.9157   -38478.071    189.52926   -38667.601    1950.4263 
  139400    270.50814   -38480.279    161.26668   -38641.546   -1328.8075 
  139600    319.90974   -38450.369    190.71803   -38641.087   -3993.2919 
  139800    290.97664   -38481.497    173.46922   -38654.967     2961.619 
  140000    288.77489   -38481.406    172.15662   -38653.563    288.98492 
  140200    308.59817   -38463.194    183.97451   -38647.168    15572.993 
  140400    300.65392   -38473.239    179.23844   -38652.477    5699.8588 
  140600    296.24647   -38472.376    176.61089   -38648.986    5279.9577 
  140800    332.10014   -38439.966    197.98549   -38637.951    6702.1724 
  141000     272.4419   -38482.346    162.41951   -38644.766   -2619.1629 
  141200    292.54626    -38475.49    174.40496   -38649.895    -10499.48 
  141400     305.5106   -38448.924    182.13382   -38631.058   -4615.0451 
  141600    289.02984    -38482.31    172.30861   -38654.619    -2319.096 
  141800    287.50417   -38476.851    171.39906    -38648.25   -5943.4724 
  142000     304.9221   -38449.293    181.78297   -38631.076   -5482.6626 
  142200    267.44176   -38490.366    159.43862   -38649.805    236.64901 
  142400    282.83716   -38466.308    168.61677   -38634.925   -4143.5878 
  142600    313.55143   -38462.696    186.92745   -38649.624   -4260.5659 
  142800    277.61251   -38473.536    165.50203   -38639.038    2850.4715 
  143000    286.22194   -38482.703    170.63465   -38653.338   -3842.7017 
  143200    297.21889   -38482.741    177.19061   -38659.932   -5289.0404 
  143400     307.6577   -38451.135    183.41383   -38634.549    4740.9148 
  143600    301.36981    -38484.61    179.66523   -38664.275   -3606.1033 
  143800    316.58062   -38473.798    188.73334   -38662.532    3957.5363 
  144000    312.54704   -38469.227    186.32867   -38655.555    8637.9163 
  144200     287.3329   -38476.041    171.29696   -38647.338    5146.3239 
  144400    306.05228   -38459.861    182.45674   -38642.317    6812.4067 
  144600     314.7852   -38456.269    187.66298   -38643.932    5665.4374 
  144800     287.2316   -38493.529    171.23657   -38664.765    3582.8193 
  145000    283.41433    -38468.37    168.96086   -38637.331    7095.6973 
  145200    286.62374   -38472.419    170.87418   -38643.293   -55.341767 
  145400    287.41331   -38495.635    171.34489    -38666.98    3501.5066 
  145600    324.24014   -38461.883    193.29965   -38655.183   -14168.844 
  145800    285.31903    -38479.92    170.09637   -38650.016    1020.0596 
  146000     301.7977   -38482.919    179.92032    -38662.84   -2913.7077 
  146200     307.3616    -38447.87    183.23731   -38631.108   -2297.8489 
  146400      304.447   -38478.301    181.49973     -38659.8   -4475.7519 
  146600    296.63516    -38471.03    176.84261   -38647.872   -4918.5139 
  146800    318.84299   -38460.057    190.08208   -38650.139    143.77868 
  147000    294.81609   -38483.459    175.75815   -38659.217   -2232.4801 
  147200    305.88354    -38461.97    182.35615   -38644.326    3347.1808 
  147400     341.0347   -38451.711    203.31193   -38655.023    -381.3808 
  147600    302.84573    -38473.92    180.54512   -38654.465   -8772.5554 
  147800     288.6262   -38478.375    172.06798   -38650.443    3164.7128 
  148000    325.09746   -38442.766    193.81075   -38636.577     8384.575 
  148200    309.49735   -38470.484    184.51056   -38654.994    1369.3559 
  148400    292.22995   -38479.519     174.2164   -38653.735   -4665.7336 
  148600    310.39103   -38463.243    185.04334   -38648.286    4720.0188 
  148800    319.93088   -38451.844    190.73063   -38642.575   -4699.3118 
  149000    299.18598    -38477.72    178.36332   -38656.083   -4599.5603 
  149200    329.31086   -38453.687    196.32262   -38650.009   -547.60646 
  149400    301.06319   -38456.549    179.48244   -38636.032    1118.3075 
  149600    313.01189   -38484.504     186.6058    -38671.11   -4895.7962 
  149800    298.85763   -38470.676    178.16757   -38648.843    -17271.27 
  150000    304.90086   -38457.799    181.77031   -38639.569   -13951.379 
  150200    288.59145   -38480.965    172.04726   -38653.013   -1776.4036 
  150400     294.1677   -38483.343    175.37161   -38658.715    13714.498 
  150600    329.49833   -38456.339    196.43439   -38652.773    12838.007 
  150800    289.83895   -38484.887    172.79097   -38657.678    4336.7628 
  151000    309.56041    -38461.03    184.54815   -38645.579    2396.3519 
  151200    290.60374   -38462.151    173.24691   -38635.398    2676.6846 
  151400    305.82228    -38485.85    182.31962   -38668.169   -6189.5222 
  151600    274.43161   -38510.711     163.6057   -38674.316   -8941.6131 
  151800    283.94484   -38473.952    169.27713   -38643.229    -9559.355 
  152000    334.16217   -38453.718    199.21479   -38652.932   -7497.0362 
  152200    298.49962   -38482.305    177.95413   -38660.259    6317.3792 
  152400     289.1753   -38478.589    172.39533   -38650.984    11057.493 
  152600    301.46743    -38474.18    179.72343   -38653.903   -4920.4442 
  152800    304.14002    -38467.17    181.31673   -38648.486   -11753.024 
  153000    329.70926     -38441.8    196.56013    -38638.36   -66.070828 
  153200     290.2045   -38479.308     173.0089   -38652.317    905.11597 
  153400     318.0885   -38467.998    189.63228   -38657.631   -1193.8212 
  153600    300.88661   -38455.539    179.37717   -38634.916    1392.8162 
  153800    293.76477   -38483.775    175.13139   -38658.906    3286.9243 
  154000    295.19003   -38456.217    175.98108   -38632.198   -5640.9017 
  154200    278.19496   -38489.562    165.84927   -38655.411   -4840.2098 
  154400    294.17081   -38472.569    175.37346   -38647.942    4333.3743 
  154600    293.30271   -38457.433    174.85593   -38632.289    7550.6247 
  154800    276.19253    -38494.56     164.6555   -38659.216   -60.592343 
  155000    314.70625   -38463.511    187.61591   -38651.127   -3385.5586 
  155200    287.47421    -38479.51     171.3812   -38650.892   -5901.3394 
  155400    281.05609   -38484.018    167.55497   -38651.573   -2020.7612 
  155600     299.9322   -38447.142    178.80818    -38625.95   -4879.5409 
  155800    288.42055   -38484.499    171.94538   -38656.444    549.51796 
  156000    315.80357   -38470.737    188.27009   -38659.007    7039.9794 
  156200    329.39731   -38452.836    196.37416    -38649.21    4008.1832 
  156400     271.2364   -38489.663    161.70084   -38651.363    2780.2887 
  156600    312.37062   -38463.523    186.22349   -38649.746    507.65518 
  156800    311.62852   -38463.064    185.78109   -38648.845   -1454.6054 
  157000    290.57523   -38492.956    173.22991   -38666.186    3941.1991 
  157200    302.24906     -38465.7    180.18941   -38645.889    114.42445 
  157400    285.81735   -38470.182    170.39345   -38640.576   -4913.3848 
  157600     285.5576   -38471.138    170.23859   -38641.376   -10355.045 
  157800    299.47785   -38464.435    178.53732   -38642.972   -14017.849 
  158000    280.77853   -38491.443    167.38949   -38658.833    3386.0706 
  158200    302.93624   -38469.973    180.59908   -38650.572    10406.997 
  158400    331.85299   -38464.133    197.83815   -38661.971    8064.4391 
  158600    301.97702   -38463.778    180.02723   -38643.805    7317.2521 
  158800    300.41945   -38477.009    179.09867   -38656.108   -1023.3828 
  159000    302.33661   -38489.708     180.2416    -38669.95    6788.0985 
  159200    301.53725   -38453.365    179.76505    -38633.13    9266.9894 
  159400    305.87443   -38477.059    182.35072    -38659.41    6872.7696 
  159600    287.85711   -38477.302    171.60948   -38648.912    3876.3856 
  159800       313.48   -38434.624    186.88487   -38621.509    3253.8271 
  160000    304.94782   -38470.256    181.79831   -38652.054    2112.7901 
  160200    296.70207    -38480.12     176.8825   -38657.003   -2086.6565 
  160400    303.21426   -38450.203    180.76483   -38630.968    5767.6604 
  160600    305.98255   -38467.083    182.41517   -38649.498   -4053.4544 
  160800    289.83511   -38485.609    172.78868   -38658.397    1493.5402 
  161000    315.20866   -38456.548    187.91543   -38644.463    1257.6762 
  161200    294.58039   -38462.896    175.61764   -38638.514   -8492.8266 
  161400    299.92492   -38478.656    178.80384    -38657.46    4526.7638 
  161600    282.73705   -38472.397    168.55709   -38640.954    6.6895345 
  161800    334.45448    -38457.78    199.38905   -38657.169   -4034.6967 
  162000    303.43095   -38489.242    180.89401   -38670.136   -8640.6707 
  162200    327.84564   -38465.703    195.44912   -38661.152    2493.0564 
  162400    318.58295   -38460.464    189.92705   -38650.391    7642.0535 
  162600    301.31758   -38475.844    179.63409   -38655.478    769.90509 
  162800    286.86982   -38501.046    171.02089   -38672.067    5770.1395 
  163000    299.32701   -38470.525    178.44739   -38648.973      6173.01 
  163200    326.75588   -38452.369    194.79944   -38647.169   -3014.4392 
  163400    266.85842   -38485.873    159.09085   -38644.964   -2089.8852 
  163600    323.19867   -38466.667    192.67877   -38659.345   -3223.7553 
  163800    327.19652   -38456.185    195.06214   -38651.247    14165.451 
  164000    282.21341   -38484.493    168.24491   -38652.738   -2065.7409 
  164200    323.43355   -38458.867    192.81879   -38651.686   -840.17709 
  164400    283.73744   -38451.687    169.15348    -38620.84    6386.8059 
  164600    295.07048    -38474.27    175.90981    -38650.18   -7794.7427 
  164800    287.21347   -38483.591    171.22576   -38654.816   -2256.6236 
  165000    312.78561   -38448.487     186.4709   -38634.958   -9703.8652 
  165200     299.0777   -38478.567    178.29876   -38656.865   -4999.5531 
  165400    288.68525   -38480.721    172.10318   -38652.824   -5914.6408 
  165600    312.59643   -38449.039    186.35812   -38635.397    1684.9141 
  165800    300.46306   -38484.696    179.12466    -38663.82    872.63053 
  166000    304.53695   -38461.064    181.55336   -38642.618    8625.4179 
  166200    332.76266   -38450.613    198.38046   -38648.993    8670.8188 
  166400    288.64434   -38477.681    172.07879    -38649.76   -9904.2682 
  166600     306.3295   -38472.032    182.62201   -38654.654    -13653.33 
  166800    330.37179   -38446.417    196.95511   -38643.372    143.98465 
  167000    292.35048   -38482.038    174.28825   -38656.326    9221.7892 
  167200    323.72956   -38465.885    192.99526    -38658.88     6895.129 
  167400    351.76141   -38444.857    209.70679   -38654.564    3245.8793 
  167600    278.10816   -38481.201    165.79752   -38646.998    -8390.862 
  167800    314.42052   -38466.487    187.44557   -38653.933   -3755.3305 
  168000    298.54716   -38450.692    177.98248   -38628.675     6607.019 
  168200    277.00263   -38487.895    165.13845   -38653.034    6992.5568 
  168400    312.64565    -38465.37    186.38746   -38651.758    3396.8474 
  168600    282.59059   -38492.837    168.46978   -38661.307     4515.927 
  168800    296.36681   -38477.934    176.68263   -38654.617    3896.8795 
  169000    318.22568    -38461.81    189.71406   -38651.524    -813.1144 
  169200    291.73707    -38491.52    173.92256   -38665.442   -4898.8351 
  169400     280.1635   -38483.531    167.02284   -38650.554   -2002.1193 
  169600    268.20439   -38472.855    159.89327   -38632.748   -6521.0199 
  169800    316.79201   -38461.623    188.85936   -38650.483   -5675.5495 
  170000    307.97633   -38447.974    183.60379   -38631.578    9745.7874 
  170200    285.56602   -38479.136    170.24361    -38649.38    14336.856 
  170400    311.70532   -38471.218    185.82687   -38657.045      8410.36 
  170600    347.10296   -38446.789     206.9296   -38653.719   -6834.8531 
  170800    299.21679   -38480.304    178.38169   -38658.686    -9380.007 
  171000    302.51457   -38478.311     180.3477   -38658.658   -3662.8604 
  171200    319.21007   -38439.899    190.30092     -38630.2   -1229.4194 
  171400    295.99852   -38470.119    176.46308   -38646.582   -5360.8196 
  171600    276.05917   -38481.113    164.57599   -38645.689   -4843.6176 
  171800    308.65638   -38454.999    184.00921   -38639.008   -16204.177 
  172000    330.02496   -38446.039    196.74834   -38642.788   -8919.4516 
  172200    303.69517   -38481.781    181.05152   -38662.832    98.844857 
  172400    296.89438   -38465.284    176.99715   -38642.282   -8364.7752 
  172600    325.01896   -38451.021    193.76395   -38644.785   -4716.9228 
  172800    280.66737   -38486.881    167.32323   -38654.204    1701.1744 
  173000     290.5676   -38460.517    173.22536   -38633.742    -720.7304 
  173200    277.80519    -38475.78     165.6169   -38641.397   -9164.6825 
  173400    286.01391   -38488.515    170.51063   -38659.026   -3383.6565 
  173600    330.44895   -38459.972    197.00111   -38656.973    1390.0212 
  173800    308.32257   -38470.272     183.8102   -38654.083    12535.648 
  174000    280.03321   -38497.465    166.94516    -38664.41    11801.865 
  174200    300.40411   -38467.486    179.08952   -38646.576    5112.7057 
  174400    295.58885   -38467.427    176.21884   -38643.646    4724.7328 
  174600    250.75729   -38498.208    149.49197     -38647.7    7764.2423 
  174800    290.87838   -38466.537    173.41064   -38639.947   -7169.2437 
  175000    306.16715   -38469.709    182.52522   -38652.234    -7219.839 
  175200    301.54531   -38481.661    179.76986   -38661.431   -10360.012 
  175400    330.93875   -38452.951    197.29311   -38650.244   -412.35697 
  175600     287.4223   -38462.073    171.35025   -38633.423   -102.77589 
  175800    300.67155   -38480.159    179.24896   -38659.407     5370.785 
  176000    299.95013   -38461.564    178.81887   -38640.383    725.21422 
  176200     313.9385   -38450.608    187.15821   -38637.766   -5344.0748 
  176400    296.72836   -38477.707    176.89818   -38654.605   -6889.0771 
  176600    307.20715   -38461.465    183.14523    -38644.61   -3003.1041 
  176800     312.5638   -38430.111    186.33867    -38616.45    3153.5135 
  177000    299.25862    -38477.09    178.40662   -38655.497    -1185.319 
  177200    292.33195   -38483.028     174.2772   -38657.305   -3795.6982 
  177400    315.01647   -38451.258    187.80085   -38639.059   -507.35459 
  177600    287.66536    -38486.29    171.49516   -38657.785     9026.713 
  177800    291.83678   -38480.203      173.982   -38654.185     4855.844 
  178000    297.92274   -38462.905    177.61022   -38640.515   -1376.0979 
  178200    278.58792   -38499.327    166.08353    -38665.41    -4270.878 
  178400     304.1585   -38483.274    181.32774   -38664.602   -7156.4513 
  178600    303.67652   -38468.422     181.0404   -38649.463   -2623.2046 
  178800    309.60861   -38462.722    184.57689   -38647.299   -8577.6552 
  179000     276.1716   -38482.169    164.64302   -38646.812     4881.805 
  179200    301.40948   -38473.895    179.68888   -38653.584   -1952.4224 
  179400    301.85251   -38459.235      179.953   -38639.188   -6529.7539 
  179600    288.97627   -38482.368    172.27667   -38654.645    8547.3938 
  179800     307.6668   -38473.429    183.41926   -38656.849    10460.641 
[...]
  950000    297.86231   -38479.042     177.5742   -38656.616    1704.3441 
  950200    302.70347   -38494.041    180.46031   -38674.501    5438.2217 
  950400    324.17711   -38452.818    193.26208    -38646.08    11123.055 
  950600    314.99275   -38464.519    187.78671   -38652.306    519.14199 
  950800    280.96355   -38484.912     167.4998   -38652.412    3683.8158 
  951000    298.25641   -38464.173    177.80914   -38641.982    11783.683 
  951200    343.98486   -38446.113     205.0707   -38651.184    8860.2761 
  951400    282.26344   -38477.675    168.27474    -38645.95    9912.4142 
  951600     286.1472   -38470.369    170.59009   -38640.959   -1767.8759 
  951800    297.77197   -38453.025    177.52033   -38630.546    1076.6044 
  952000    282.51814   -38475.401    168.42658   -38643.828   -13362.697 
  952200    297.26781   -38471.243    177.21978   -38648.463   -1546.3382 
  952400    334.23689   -38443.682    199.25934   -38642.941    1372.0363 
  952600     301.2919   -38480.629    179.61878   -38660.248    -7314.752 
  952800    294.99362   -38477.819    175.86399   -38653.683   -3856.7948 
  953000     314.3877   -38452.771      187.426   -38640.197   -571.24319 
  953200    324.84418   -38448.544    193.65976   -38642.204    8205.4513 
  953400    289.62513   -38480.183     172.6635   -38652.846    14099.455 
  953600    332.29637   -38457.261    198.10247   -38655.363    4668.8341 
  953800    317.52804   -38459.546    189.29816   -38648.844   -3275.3607 
  954000    280.87199   -38481.425    167.44521   -38648.871    2938.3214 
  954200    313.88023   -38454.884    187.12347   -38642.007    8312.5249 
  954400    271.56672   -38487.902    161.89776     -38649.8    8712.0671 
  954600    331.27553   -38468.915    197.49389   -38666.409     6722.316 
  954800    289.95814   -38477.052    172.86203   -38649.914    3622.6532 
  955000     270.6564   -38495.404    161.35507   -38656.759    2135.0469 
  955200    281.70423   -38470.816    167.94136   -38638.757    3579.9389 
  955400    333.39731   -38460.799    198.75881   -38659.558   -5825.7537 
  955600    294.23204   -38485.075    175.40997   -38660.485   -6832.3589 
  955800    305.38278   -38474.194    182.05761   -38656.252   -13054.484 
  956000    299.10073     -38447.2    178.31249   -38625.513   -3142.6701 
  956200    288.36232   -38487.574    171.91066   -38659.485   -2639.4972 
  956400    295.62377   -38485.225    176.23966   -38661.465   -374.36221 
  956600    319.13722   -38463.541    190.25749   -38653.798   -819.28303 
  956800    318.69837   -38462.623    189.99586   -38652.619    754.91456 
  957000    279.72893   -38488.619    166.76376   -38655.383   -2338.2981 
  957200    310.48561   -38466.509    185.09972   -38651.609    -7047.408 
  957400    310.49256    -38461.74    185.10387   -38646.844   -716.97334 
  957600    286.43307   -38480.398    170.76052   -38651.158    46.576727 
  957800    293.95998   -38473.613    175.24777   -38648.861   -2886.3864 
  958000    300.78991   -38467.358    179.31952   -38646.678   -2738.3291 
  958200    339.01364   -38456.402    202.10705   -38658.509   -2102.8813 
  958400    322.29348   -38487.881    192.13913    -38680.02    2341.7897 
  958600    316.46228   -38461.262    188.66279   -38649.925    9934.6741 
  958800    300.80863   -38459.534    179.33068   -38638.865   -6442.1745 
  959000    282.71417   -38486.643    168.54345   -38655.186   -5555.2236 
  959200    280.34453   -38493.302    167.13076   -38660.433    1354.7063 
  959400    311.45178   -38464.872    185.67572   -38650.548    4016.8212 
  959600    314.33041   -38470.945    187.39185   -38658.337    12469.243 
  959800    292.57929   -38474.589    174.42466   -38649.014    5663.3421 
  960000    284.06916   -38485.155    169.35124   -38654.506    8341.0181 
  960200    322.89924   -38452.905    192.50026   -38645.405   -2340.5319 
  960400    313.77811   -38475.875    187.06259   -38662.937    3431.2093 
  960600    266.40754   -38480.477    158.82206     -38639.3    5165.7697 
  960800    310.10029   -38463.692    184.87001   -38648.562    2456.8147 
  961000    279.16753   -38489.498    166.42908   -38655.927   -5107.3607 
  961200    322.68725   -38467.781    192.37388   -38660.155   -14834.779 
  961400    339.73209   -38461.012    202.53537   -38663.547    14324.662 
  961600    272.23847   -38470.946    162.29824   -38633.244    16175.465 
  961800    330.01349   -38442.172    196.74151   -38638.913    -3421.225 
  962000    323.47151   -38483.432    192.84143   -38676.273    2948.6873 
  962200    296.94479   -38480.991     177.0272   -38658.018   -1310.0975 
  962400    314.22569   -38458.591    187.32942    -38645.92    3528.8182 
  962600    272.47484   -38495.412    162.43915   -38657.851     6101.597 
  962800    279.04139   -38485.093    166.35388   -38651.446    1779.0355 
  963000    313.23572   -38464.032    186.73923   -38650.771    6754.2172 
  963200    304.51934   -38485.626    181.54286   -38667.169     2836.624 
  963400    288.08958   -38486.962    171.74806    -38658.71   -5997.2238 
  963600    291.07329   -38462.384    173.52684   -38635.911   -6283.4752 
  963800    305.41665    -38466.68     182.0778   -38648.757   -3345.2963 
  964000    285.34435   -38500.722    170.11146   -38670.833   -4352.0315 
  964200       316.25   -38471.323    188.53624   -38659.859   -12937.893 
  964400    299.31453   -38455.152    178.43995   -38633.592   -1097.9482 
  964600    323.57819   -38439.792    192.90502   -38632.697   -2621.7368 
  964800    298.92559   -38483.307    178.20808   -38661.515   -6714.7477 
  965000    302.28242   -38472.354    180.20929   -38652.563    3985.1023 
  965200    344.90173   -38434.144    205.61731   -38639.761    4737.4792 
  965400    303.62171   -38476.271    181.00773   -38657.278    4390.0485 
  965600    290.69031   -38478.114    173.29852   -38651.412   -973.65573 
  965800    332.12055   -38454.096    197.99765   -38652.094   -2177.3505 
  966000    282.44293   -38490.512    168.38174   -38658.894    3847.3759 
  966200    303.64002   -38471.712    181.01864    -38652.73    4890.4631 
  966400    311.66153   -38465.362    185.80077   -38651.163    3274.3683 
  966600    285.20177   -38467.525    170.02646   -38637.552    11918.509 
  966800    316.37258   -38449.499    188.60931   -38638.108    12564.165 
  967000    282.66213   -38490.347    168.51242   -38658.859    4349.4948 
  967200    288.21183   -38469.618    171.82094   -38641.439    1206.6266 
  967400     314.5611   -38461.006    187.52938   -38648.536    4725.9024 
  967600    331.15019   -38469.438    197.41916   -38666.857    12975.606 
  967800    279.03158   -38487.795    166.34803   -38654.143    13585.084 
  968000    290.90751   -38487.453    173.42801   -38660.881    6024.5031 
  968200    312.59139    -38453.99    186.35511   -38640.345   -421.73025 
  968400    307.24834   -38476.906    183.16979   -38660.075    367.53347 
  968600    304.60085   -38478.293    181.59145   -38659.885    9932.5201 
  968800    317.98494   -38459.722    189.57054   -38649.293    5426.6593 
  969000    319.05714   -38454.904    190.20975   -38645.114   -7150.0019 
  969200    301.26198   -38473.726    179.60095   -38653.327   -6765.1669 
  969400    310.85075   -38463.126    185.31741   -38648.444   -5731.2306 
  969600    330.06627   -38458.013    196.77297   -38654.786    913.79454 
  969800    305.75009   -38488.923    182.27659     -38671.2   -17251.176 
  970000    313.38913   -38459.951     186.8307   -38646.782   -9755.2625 
  970200      318.207   -38460.801    189.70293   -38650.504    4257.7795 
  970400    300.23275   -38487.777    178.98736   -38666.765   -3249.7291 
  970600    280.73583   -38476.776    167.36404    -38644.14    3160.2434 
  970800    319.81682   -38468.166    190.66264   -38658.828    251.71003 
  971000    335.12544   -38453.843    199.78905   -38653.632   -4720.4023 
  971200     277.7458   -38488.754    165.58149   -38654.335   -12247.982 
  971400    285.39503   -38462.957    170.14167   -38633.098   -13752.302 
  971600    327.22863   -38461.616    195.08128   -38656.697   -2821.0753 
  971800    293.23476   -38481.197    174.81542   -38656.013    3876.2713 
  972000    290.28125   -38469.423    173.05466   -38642.478   -6527.8963 
  972200    313.56491   -38445.748    186.93549   -38632.684   -21942.004 
  972400    310.20536   -38474.802    184.93265   -38659.735   -8187.7294 
  972600    295.56139   -38482.635    176.20247   -38658.837     8321.899 
  972800    304.76759   -38446.087    181.69086   -38627.778    230.99535 
  973000     290.0952   -38469.573    172.94373   -38642.517   -12805.688 
  973200    320.52682    -38476.42    191.08591   -38667.505   -3829.2985 
  973400    307.80809   -38471.714    183.50349   -38655.217    10527.709 
  973600    286.87393   -38477.202    171.02334   -38648.225   -4349.0209 
  973800     309.1468   -38462.386    184.30158   -38646.687     4176.303 
  974000    322.51877   -38442.708    192.27344   -38634.982     5326.422 
  974200    300.76171   -38479.234    179.30271   -38658.537   -5019.7437 
  974400    309.29046   -38468.266    184.38722   -38652.653   -6342.4268 
  974600     304.8235   -38469.527    181.72419   -38651.251    6906.1667 
  974800    275.53661   -38486.128    164.26446   -38650.392    3357.2091 
  975000    291.47579   -38460.429    173.76679   -38634.196    1157.8653 
  975200    287.50348   -38480.884    171.39865   -38652.282   -4307.0869 
  975400    300.03341   -38480.859    178.86852   -38659.727      269.922 
  975600    313.78381   -38461.317    187.06599   -38648.383     3.936457 
  975800    326.40183   -38444.096    194.58837   -38638.684   -9573.0781 
  976000    278.05018   -38482.561    165.76296   -38648.324   -11312.578 
  976200     307.9238   -38464.466    183.57247   -38648.039   -17574.914 
  976400    315.34874   -38446.828    187.99894   -38634.827   -5594.2257 
  976600    303.55718   -38469.564    180.96926   -38650.534   -3935.2287 
  976800     318.7254   -38472.225    190.01198   -38662.237    3725.5069 
  977000    307.69279   -38463.943    183.43475   -38647.378     8574.415 
  977200     279.8526   -38476.676    166.83749   -38643.513    1801.0179 
  977400    251.47592   -38494.057    149.92039   -38643.978    1225.2342 
  977600    295.45602   -38456.075    176.13965   -38632.215    2130.8053 
  977800    295.26147   -38477.707    176.02367   -38653.731    -5417.976 
  978000    302.73511   -38475.169    180.47917   -38655.648   -9275.5117 
  978200    308.88198   -38451.201     184.1437   -38635.345   -9835.3107 
  978400    310.36185   -38479.351    185.02594   -38664.377   -7624.7888 
  978600    275.81023   -38477.303    164.42758   -38641.731   -2885.9517 
  978800    307.52184   -38469.147    183.33284    -38652.48   -1092.6165 
  979000    323.61368   -38449.952    192.92618   -38642.878    1694.1259 
  979200     269.6179   -38489.314    160.73595    -38650.05     1243.823 
  979400    311.55092   -38467.492    185.73482   -38653.227    2541.4539 
  979600    304.40728   -38444.725    181.47606   -38626.201    1812.1287 
  979800    327.68822   -38463.257    195.35527   -38658.612   -618.92332 
  980000    286.59869   -38485.621    170.85925   -38656.481   -8489.0825 
  980200    306.63924   -38450.907    182.80666   -38633.713   -1836.4225 
  980400    299.80625   -38464.503     178.7331   -38643.236   -1131.2665 
  980600    307.66969   -38471.725    183.42098   -38655.146   -3115.8318 
  980800    264.32101   -38494.923    157.57815   -38652.501   -7770.8878 
  981000     302.6367   -38485.017     180.4205   -38665.437   -5533.8924 
  981200    310.26678   -38460.964    184.96927   -38645.933    2157.7836 
  981400    282.99933   -38491.602    168.71345   -38660.315   -417.00982 
  981600    292.88554   -38489.832    174.60723   -38664.439   -2412.1526 
  981800     315.2137   -38452.784    187.91843   -38640.703   -4002.8572 
  982000    293.83794   -38481.557    175.17502   -38656.732   -7508.0098 
  982200    291.41929   -38480.112    173.73311   -38653.845    -9384.131 
  982400    300.25809   -38465.759    179.00247   -38644.761   -1964.9965 
  982600    318.44977   -38469.549    189.84766   -38659.397   -4073.2717 
  982800    299.95786   -38475.486    178.82348   -38654.309    4554.9085 
  983000    272.34915   -38492.917    162.36422   -38655.281    5420.8239 
  983200     315.3131   -38461.489    187.97769   -38649.466   -1584.0869 
  983400    306.85105   -38467.125    182.93294   -38650.058    3372.8488 
  983600    279.36188   -38497.622    166.54494   -38664.167    2695.7135 
  983800    304.22797   -38478.227    181.36916   -38659.596   -965.29014 
  984000    285.51059   -38463.172    170.21057   -38633.383   -7520.3193 
  984200    309.59957   -38463.958     184.5715   -38648.529   -2334.9366 
  984400    301.02679   -38484.419    179.46074    -38663.88   -3657.3737 
  984600    302.65617   -38458.703    180.43211   -38639.135   -2019.2803 
  984800     294.9283   -38474.684    175.82505   -38650.509   -1265.7033 
  985000    305.45917   -38473.669    182.10315   -38655.772    7472.7954 
  985200    325.68931   -38459.323    194.16359   -38653.487    8534.1852 
  985400    342.37964   -38440.355    204.11374   -38644.468    2662.6987 
  985600     271.2261   -38484.083     161.6947   -38645.778    1478.4373 
  985800    314.57949   -38464.124    187.54034   -38651.665   -4658.1306 
  986000    291.67652   -38469.411    173.88646   -38643.297   -631.09858 
  986200    279.52719   -38488.633    166.64349   -38655.276   -4009.9391 
  986400    311.06538   -38451.371    185.44536   -38636.816     3723.572 
  986600    330.03115   -38464.225    196.75203   -38660.978   -819.03709 
  986800    294.74495    -38481.34    175.71574   -38657.056   -2582.2792 
  987000    317.36199   -38462.356    189.19916   -38651.555     6592.815 
  987200    330.10691   -38430.585     196.7972   -38627.382   -3092.6584 
  987400    313.06046   -38467.827    186.63475   -38654.462   -3768.2088 
  987600    299.57949   -38484.179    178.59791   -38662.777   -2240.1347 
  987800    312.83526   -38462.284     186.5005   -38648.784     2964.823 
  988000    336.26305   -38450.495    200.46726   -38650.962   -3261.2279 
  988200    276.80666   -38487.001    165.02162   -38652.022    -8093.963 
  988400    305.33124     -38467.2    182.02688   -38649.227   -742.13805 
  988600    287.81876   -38475.647    171.58661   -38647.234    9361.5963 
  988800    281.13332   -38486.765      167.601   -38654.366    12525.391 
  989000     339.9692    -38454.93    202.67672   -38657.607    13675.771 
  989200     298.0125   -38472.993    177.66373   -38650.656    1490.5264 
  989400    269.33011   -38513.257    160.56438   -38673.821    2240.9663 
  989600    281.22104   -38478.314     167.6533   -38645.968    3045.1661 
  989800    302.13414   -38466.195     180.1209   -38646.315   -820.59376 
  990000    268.47863    -38492.58    160.05676   -38652.636    1000.1514 
  990200    316.53052   -38472.689    188.70347   -38661.393     17.70721 
  990400    309.88548    -38460.17    184.74195   -38644.912    7062.8005 
  990600    283.99513   -38499.028    169.30711   -38668.335    5199.9554 
  990800    276.35058   -38482.934    164.74971   -38647.684   -2317.5904 
  991000    331.16052   -38464.081    197.42532   -38661.506   -7945.4522 
  991200    307.27179    -38472.05    183.18377   -38655.233    -9198.765 
  991400    282.89071   -38492.601    168.64869   -38661.249   -7609.1592 
  991600    276.17237    -38466.45    164.64347   -38631.093   -4134.5609 
  991800    306.05798   -38468.555    182.46014   -38651.015   -3980.9218 
  992000    283.10153   -38508.663    168.77438   -38677.437      1650.52 
  992200    283.29871   -38485.148    168.89193    -38654.04    9769.2625 
  992400    303.19458   -38467.736    180.75309   -38648.489   -7879.7179 
  992600    310.22764   -38481.426    184.94593   -38666.372    1439.0006 
  992800    287.92249   -38483.589    171.64845   -38655.238    5029.2061 
  993000    313.44362   -38459.925    186.86318   -38646.788    1083.1338 
  993200    302.37332   -38478.892    180.26349   -38659.156    4322.3588 
  993400     242.0697   -38509.158    144.31276   -38653.471    1411.9887 
  993600    290.01809   -38471.951    172.89777   -38644.848   -2765.9419 
  993800    294.94617   -38461.325     175.8357    -38637.16    2367.4365 
  994000    272.72136   -38494.826    162.58612   -38657.412    7470.1551 
  994200    305.26265   -38478.977    181.98599   -38660.963    2359.5218 
  994400    318.60287   -38460.944    189.93893   -38650.883   -9028.4533 
  994600    294.93548   -38459.793    175.82933   -38635.622    8687.8671 
  994800    300.46393    -38482.87    179.12518   -38661.995    12863.524 
  995000    303.50163   -38446.552    180.93614   -38627.488    5420.6814 
  995200    290.79279   -38467.022    173.35962   -38640.381    5266.3423 
  995400    296.79927     -38472.6    176.94045    -38649.54   -551.94603 
  995600    273.95754   -38498.773    163.32308   -38662.096    7869.1639 
  995800    291.02253   -38464.581    173.49658   -38638.078    1085.0022 
  996000    305.89366    -38472.14    182.36218   -38654.502    5249.3541 
  996200    278.11319   -38493.362    165.80052   -38659.163    2661.3092 
  996400    307.52384   -38454.543    183.33403   -38637.877    -887.4583 
  996600    288.01347   -38484.135    171.70269   -38655.838    3781.3115 
  996800    305.45045    -38475.27    182.09796   -38657.368   -7590.7428 
  997000    316.30418   -38470.319    188.56854   -38658.888   -13966.343 
  997200     299.3567   -38480.014    178.46509   -38658.479   -11289.763 
  997400    288.39369   -38475.358    171.92936   -38647.288   -5517.4645 
  997600    303.21215   -38456.894    180.76357   -38637.658    3365.1276 
  997800    288.46377   -38496.989    171.97114    -38668.96   -800.83982 
  998000     309.0856   -38483.418    184.26509   -38667.683    -2264.108 
  998200    319.84054   -38465.531    190.67678   -38656.208    2325.3431 
  998400     316.1088   -38427.025    188.45206   -38615.478     2165.876 
  998600    303.10276    -38467.41    180.69835   -38648.108   -5253.6035 
  998800     280.8424   -38483.131    167.42757   -38650.558   -9498.8318 
  999000    308.52418   -38470.757     183.9304   -38654.687   -4914.1018 
  999200    306.24408   -38455.448    182.57109   -38638.019   -1509.4421 
  999400    274.97518   -38495.868    163.92976   -38659.798   -2257.2595 
  999600     304.6333    -38468.59     181.6108   -38650.201   -458.81259 
  999800    305.96619   -38466.182    182.40542   -38648.587    494.56806 
 1000000    280.27637   -38483.833    167.09012   -38650.923    646.76845 
Loop time of 13229.1 on 8 procs for 1000000 steps with 201 atoms

Performance: 1.633 ns/day, 14.699 hours/ns, 75.591 timesteps/s
99.1% CPU use with 8 MPI tasks x no OpenMP threads

MPI task timing breakdown:
Section |  min time  |  avg time  |  max time  |%varavg| %total
---------------------------------------------------------------
Pair    | 12179      | 12272      | 12426      |  61.3 | 92.77
Neigh   | 0          | 0          | 0          |   0.0 |  0.00
Comm    | 62.294     | 216.2      | 309.08     | 462.6 |  1.63
Output  | 0.14479    | 0.16655    | 0.30881    |  13.2 |  0.00
Modify  | 732.12     | 732.33     | 732.66     |   0.7 |  5.54
Other   |            | 8.082      |            |       |  0.06

Nlocal:    25.125 ave 28 max 23 min
Histogram: 1 0 1 0 4 0 1 0 0 1
Nghost:    1486.88 ave 1489 max 1484 min
Histogram: 1 0 0 0 1 0 4 0 1 1
Neighs:    7807.25 ave 8621 max 7168 min
Histogram: 1 0 1 0 4 0 1 0 0 1

Total # of neighbors = 62458
Ave neighs/atom = 310.736
Neighbor list builds = 0
Dangerous builds = 0

unfix 1
unfix output
undump 1

Please see the log.cite file for references relevant to this simulation

Total wall time: 3:41:18
