ITEM: TIMESTEP
0
ITEM: NUMBER OF ATOMS
163
ITEM: BOX BOUNDS xy xz yz pp pp pp
-6.7755000000000001e+00 1.3552000000000000e+01 -6.7755000000000001e+00
0.0000000000000000e+00 1.1735510246683001e+01 0.0000000000000000e+00
0.0000000000000000e+00 2.2149999999999999e+01 0.0000000000000000e+00
ITEM: ATOMS id type x y z 
8 1 -2.486 5.297 9.849 
87 1 3.001 4.231 10.696 
90 1 2.733 5.481 9.824 
109 1 -2.486 5.297 0.765 
158 1 2.733 5.481 0.79 
11 1 4.24 4.139 20.131 
14 1 3.031 4.094 19.728 
18 1 1.299 5.827 18.554 
33 1 2.266 4.151 20.924 
43 1 4.343 3.96 21.647 
47 1 3.32 5.732 17.88 
52 1 4.24 4.139 12.633 
76 1 2.552 4.924 14.209 
85 1 4.343 3.96 11.117 
89 1 3.32 5.732 14.883 
91 1 1.036 5.037 11.84 
102 1 3.031 4.094 13.035 
105 1 1.299 5.827 14.209 
114 1 2.266 4.151 11.84 
150 1 2.552 4.924 18.554 
156 1 3.001 4.231 22.068 
159 1 1.036 5.037 20.924 
5 1 -5.049 10.63 8.653 
9 1 -3.317 8.897 7.479 
19 1 -1.707 7.414 10.572 
21 1 -2.66 8.795 10.993 
23 1 -3.31 7.532 6.805 
25 1 -4.284 10.573 9.849 
32 1 1.503 6.367 0.79 
36 1 -1.869 7.426 9.056 
38 1 -2.209 6.086 8.653 
54 1 0.3 8.576 10.696 
57 1 1.291 8.001 9.824 
60 1 -1.707 7.414 0.042 
65 1 -3.31 7.532 3.808 
78 1 -1.869 7.426 1.558 
80 1 -2.566 8.842 1.961 
84 1 -4.57 9.799 3.135 
99 1 -3.054 9.687 0.765 
100 1 -2.96 6.142 3.135 
107 1 -5.049 10.63 1.961 
110 1 -3.317 8.897 3.135 
111 1 0.642 5.929 10.696 
113 1 1.503 6.367 9.824 
119 1 -4.284 10.573 0.765 
127 1 -2.209 6.086 1.961 
131 1 -2.318 6.148 10.993 
138 1 1.291 8.001 0.79 
142 1 -2.566 8.842 8.653 
145 1 -4.57 9.799 7.479 
151 1 -5.019 10.493 10.993 
154 1 -3.054 9.687 9.849 
155 1 -2.96 6.142 7.479 
161 2 1.291 8.001 8.474 
162 2 1.519 8.785 7.206 
163 3 1.862 7.987 6.759 
12 1 2.53 7.1 17.202 
17 1 0.468 9.427 20.924 
24 1 -3.52 8.357 11.865 
27 1 -0.31 7.31 21.647 
29 1 0.642 5.929 22.068 
31 1 1.292 7.192 17.88 
44 1 -0.148 7.298 20.131 
46 1 0.191 8.638 19.728 
51 1 -0.31 7.31 11.117 
53 1 2.53 7.1 15.561 
56 1 1.292 7.192 14.883 
63 1 -2.318 6.148 21.771 
66 1 -3.309 6.723 20.899 
70 1 -0.148 7.298 12.633 
72 1 0.548 5.882 13.035 
92 1 0.942 8.582 14.209 
95 1 -5.019 10.493 21.771 
98 1 -4.751 9.243 20.899 
104 1 0.468 9.427 11.84 
116 1 -2.66 8.795 21.771 
118 1 -3.52 8.357 20.899 
122 1 0.191 8.638 13.035 
133 1 -3.309 6.723 11.865 
136 1 0.3 8.576 22.068 
147 1 0.548 5.882 19.728 
153 1 -4.751 9.243 11.865 
160 1 0.942 8.582 18.554 
1 1 7.976 4.694 10.572 
4 1 9.274 4.77 10.993 
20 1 8.034 4.861 9.056 
42 1 9.55 5.41 7.479 
67 1 10.043 4.578 0.765 
77 1 7.976 4.694 0.042 
94 1 8.035 4.861 1.558 
96 1 9.278 4.635 1.961 
121 1 4.688 5.417 10.696 
130 1 9.55 5.41 3.135 
134 1 10.043 4.578 9.849 
152 1 9.278 4.635 8.653 
45 1 4.688 5.417 22.068 
55 1 4.788 5.329 13.035 
106 1 9.274 4.77 21.771 
137 1 4.788 5.329 19.728 
2 1 7.294 10.585 9.056 
3 1 9.004 7.624 6.127 
6 1 8.556 6.347 6.805 
16 1 2.314 8.72 0.79 
22 1 7.166 6.156 8.653 
26 1 7.226 8.565 7.479 
35 1 7.191 10.764 10.572 
37 1 6.846 9.307 10.993 
39 1 8.214 8.992 6.805 
41 1 6.677 7.002 9.849 
48 1 3.775 6.213 0.79 
61 1 7.294 10.585 1.558 
62 1 9.004 7.624 4.487 
64 1 6.747 9.395 1.961 
68 1 7.437 6.931 3.135 
71 1 4.29 8.493 10.696 
74 1 3.567 7.818 9.824 
81 1 8.556 6.347 3.808 
83 1 6.47 8.606 0.765 
93 1 7.191 10.764 0.042 
97 1 8.214 8.992 3.808 
101 1 2.261 9.954 10.696 
103 1 2.314 8.72 9.824 
117 1 7.166 6.156 1.961 
120 1 7.226 8.565 3.135 
123 1 3.775 6.213 9.824 
129 1 6.677 7.002 0.765 
132 1 6.747 9.395 8.653 
135 1 7.437 6.931 7.479 
141 1 7.244 6.231 10.993 
144 1 6.47 8.606 9.849 
148 1 3.567 7.818 0.79 
7 1 9.22 6.004 11.865 
10 1 3.558 10.029 21.647 
13 1 2.261 9.954 22.068 
15 1 2.978 8.376 17.88 
28 1 3.5 9.862 20.131 
30 1 4.369 8.568 19.728 
34 1 4.308 6.159 18.554 
40 1 7.76 8.511 11.865 
49 1 4.857 7.722 20.924 
50 1 1.984 9.314 18.554 
58 1 1.491 10.146 11.84 
59 1 4.097 7.793 14.209 
69 1 3.558 10.029 11.117 
73 1 2.978 8.376 14.883 
75 1 5.064 6.118 11.84 
79 1 7.244 6.231 21.771 
82 1 7.967 6.906 20.899 
86 1 3.5 9.862 12.633 
88 1 2.256 10.089 13.035 
108 1 9.22 6.004 20.899 
112 1 4.369 8.568 13.035 
115 1 4.308 6.159 14.209 
124 1 4.857 7.722 11.84 
125 1 1.984 9.314 14.209 
126 1 6.846 9.307 21.771 
128 1 7.76 8.511 20.899 
139 1 1.491 10.146 20.924 
140 1 4.097 7.793 18.554 
143 1 7.967 6.906 11.865 
146 1 4.29 8.493 22.068 
149 1 5.064 6.118 20.924 
157 1 2.256 10.089 19.728 
ITEM: TIMESTEP
10
ITEM: NUMBER OF ATOMS
163
ITEM: BOX BOUNDS xy xz yz pp pp pp
-6.7755000000000001e+00 1.3552000000000000e+01 -6.7755000000000001e+00
0.0000000000000000e+00 1.1735510246683001e+01 0.0000000000000000e+00
0.0000000000000000e+00 2.2149999999999999e+01 0.0000000000000000e+00
ITEM: ATOMS id type x y z 
8 1 -2.4111 5.36488 9.84248 
87 1 2.97213 4.27148 10.6407 
90 1 2.67087 5.48882 9.78468 
109 1 -2.41239 5.36584 0.772092 
158 1 2.6788 5.45448 0.831082 
11 1 4.29345 4.19565 20.1362 
14 1 2.91439 4.13151 19.6993 
18 1 1.32988 5.84361 18.5979 
33 1 2.13254 4.24132 20.9001 
43 1 4.31582 4.14246 21.5779 
47 1 3.24874 5.80006 17.853 
52 1 4.28123 4.20282 12.6169 
76 1 2.43148 4.90305 14.1757 
85 1 4.30608 4.14444 11.174 
89 1 3.24321 5.80332 14.9087 
91 1 0.966454 5.08235 11.8706 
102 1 2.92583 4.12765 13.0686 
105 1 1.33819 5.8563 14.1679 
114 1 2.14488 4.22494 11.8593 
150 1 2.4374 4.90524 18.5844 
156 1 2.96821 4.2727 22.1215 
159 1 0.972476 5.09827 20.9077 
5 1 -4.92703 10.6044 8.63666 
9 1 -3.37221 8.86315 7.51402 
19 1 -1.76346 7.52149 10.5526 
21 1 -2.60336 8.7536 10.9179 
23 1 -3.31495 7.51816 6.83159 
25 1 -4.1494 10.4834 9.82394 
32 1 1.57384 6.33423 0.782 
36 1 -1.91359 7.54333 9.05666 
38 1 -2.15302 6.20946 8.6488 
54 1 0.283183 8.52108 10.7182 
57 1 1.348 8.02668 9.62576 
60 1 -1.76038 7.50853 0.0560129 
65 1 -3.31904 7.52027 3.77597 
78 1 -1.91083 7.54025 1.55632 
80 1 -2.56678 8.78056 1.89785 
84 1 -4.4546 9.82834 3.10157 
99 1 -2.99207 9.63125 0.79537 
100 1 -2.92295 6.25294 3.1753 
107 1 -4.93802 10.5968 1.98078 
110 1 -3.36078 8.86604 3.09837 
111 1 0.608814 5.98766 10.7441 
113 1 1.53659 6.27052 9.86834 
119 1 -4.15882 10.4855 0.784131 
127 1 -2.15616 6.20975 1.96522 
131 1 -2.31597 6.20983 11.0116 
138 1 1.35179 8.00373 0.831102 
142 1 -2.56853 8.78227 8.71067 
145 1 -4.45017 9.84059 7.51086 
151 1 -4.98248 10.4513 11.0507 
154 1 -2.98737 9.62548 9.8241 
155 1 -2.92174 6.25113 7.43835 
161 2 1.25227 7.99571 8.52855 
162 2 1.52189 8.79337 7.18191 
163 3 1.85334 7.989 6.78611 
12 1 2.58365 7.07111 17.1206 
17 1 0.392045 9.35826 20.9144 
24 1 -3.58486 8.39408 11.8662 
27 1 -0.259105 7.20464 21.6363 
29 1 0.594632 5.97166 21.9872 
31 1 1.30385 7.20561 17.905 
44 1 -0.110333 7.18787 20.1352 
46 1 0.138579 8.5166 19.7245 
51 1 -0.247568 7.25165 11.1103 
53 1 2.5787 7.07451 15.6396 
56 1 1.30532 7.19721 14.8542 
63 1 -2.31523 6.21415 21.7567 
66 1 -3.381 6.74633 20.8578 
70 1 -0.0993545 7.19136 12.6364 
72 1 0.547374 5.9474 12.9761 
92 1 0.906179 8.47089 14.2523 
95 1 -4.97694 10.4301 21.7173 
98 1 -4.68799 9.22453 20.8762 
104 1 0.38374 9.35277 11.8222 
116 1 -2.61477 8.7466 21.8152 
118 1 -3.5536 8.39786 20.9232 
122 1 0.132245 8.4971 13.0556 
133 1 -3.36932 6.72042 11.9055 
136 1 0.298681 8.51094 22.0883 
147 1 0.548828 5.93379 19.7948 
153 1 -4.69228 9.27036 11.9025 
160 1 0.902937 8.47444 18.5132 
1 1 7.88966 4.95124 10.5262 
4 1 9.17575 4.7808 11.0368 
20 1 7.87734 4.94624 9.06991 
42 1 9.45109 5.42372 7.43266 
67 1 9.97834 4.55309 0.755568 
77 1 7.89039 4.95372 0.0845113 
94 1 7.87869 4.94638 1.54391 
96 1 9.19848 4.64846 1.98904 
121 1 4.67882 5.47017 10.6905 
130 1 9.45122 5.42492 3.18125 
134 1 9.98024 4.55159 9.85547 
152 1 9.19774 4.64853 8.62376 
45 1 4.68426 5.42681 22.0361 
55 1 4.81564 5.48595 13.0663 
106 1 9.17618 4.7893 21.7272 
137 1 4.81183 5.48439 19.7017 
2 1 7.23928 10.5414 9.06081 
3 1 8.95784 7.63981 6.04535 
6 1 8.54126 6.42155 6.84776 
16 1 2.35156 8.6948 0.833462 
22 1 7.15452 6.19076 8.7042 
26 1 7.18316 8.41199 7.55136 
35 1 7.21946 10.5837 10.5107 
37 1 6.84512 9.29701 10.9705 
39 1 8.30271 8.91932 6.78631 
41 1 6.73679 7.01733 9.83702 
48 1 3.71493 6.37149 0.839867 
61 1 7.25407 10.5205 1.54716 
62 1 8.95771 7.64462 4.56574 
64 1 6.72013 9.24098 1.99102 
68 1 7.41484 6.97129 3.05646 
71 1 4.28942 8.54593 10.7817 
74 1 3.63118 7.76009 9.85535 
81 1 8.55018 6.4213 3.76704 
83 1 6.55075 8.43956 0.787965 
93 1 7.22643 10.5872 0.100346 
97 1 8.28821 8.92369 3.82434 
101 1 2.35485 9.92723 10.6418 
103 1 2.36105 8.6816 9.8336 
117 1 7.15388 6.18925 1.90535 
120 1 7.18135 8.42268 3.0596 
123 1 3.7887 6.34383 9.82517 
129 1 6.74025 7.01632 0.773569 
132 1 6.71083 9.23525 8.61608 
135 1 7.41979 6.97085 7.56055 
141 1 7.25519 6.17061 10.91 
144 1 6.54556 8.44089 9.82834 
148 1 3.63238 7.78907 0.766479 
7 1 9.18528 6.02682 11.9079 
10 1 3.6529 9.76636 21.6033 
13 1 2.35566 9.95 22.1201 
15 1 2.98382 8.30358 17.9191 
28 1 3.66147 9.7822 20.1421 
30 1 4.3859 8.52563 19.7859 
34 1 4.35388 6.30252 18.6334 
40 1 7.79777 8.35646 11.917 
49 1 4.79116 7.70463 20.9129 
50 1 2.0828 9.30085 18.5086 
58 1 1.55751 10.1745 11.8374 
59 1 4.12253 7.7544 14.1324 
69 1 3.65586 9.75493 11.1634 
73 1 2.97599 8.30435 14.8461 
75 1 4.98256 6.28796 11.863 
79 1 7.25863 6.1813 21.8519 
82 1 7.89454 6.9717 20.9266 
86 1 3.66405 9.78581 12.6202 
88 1 2.32713 10.0765 13.0637 
108 1 9.19049 6.03178 20.8615 
112 1 4.38735 8.53206 12.9791 
115 1 4.35118 6.30075 14.1331 
124 1 4.79704 7.70959 11.8516 
125 1 2.08435 9.29811 14.2564 
126 1 6.85693 9.26648 21.7747 
128 1 7.76051 8.36706 20.885 
139 1 1.54894 10.1732 20.9252 
140 1 4.1203 7.75585 18.6337 
143 1 7.90143 6.92967 11.8414 
146 1 4.28403 8.55009 21.9818 
149 1 4.98451 6.2828 20.9012 
157 1 2.33048 10.0765 19.6952 
ITEM: TIMESTEP
20
ITEM: NUMBER OF ATOMS
163
ITEM: BOX BOUNDS xy xz yz pp pp pp
-6.7755000000000001e+00 1.3552000000000000e+01 -6.7755000000000001e+00
0.0000000000000000e+00 1.1735510246683001e+01 0.0000000000000000e+00
0.0000000000000000e+00 2.2149999999999999e+01 0.0000000000000000e+00
ITEM: ATOMS id type x y z 
8 1 -2.42476 5.3979 9.84022 
87 1 2.96219 4.30121 10.6556 
90 1 2.6629 5.48793 9.78105 
109 1 -2.42565 5.39622 0.771883 
158 1 2.66147 5.44964 0.838624 
11 1 4.28136 4.21448 20.1231 
14 1 2.89401 4.1491 19.6936 
18 1 1.29489 5.86554 18.5753 
33 1 2.0978 4.26781 20.9091 
43 1 4.29567 4.18676 21.5661 
47 1 3.26285 5.78048 17.8394 
52 1 4.27502 4.22615 12.6277 
76 1 2.4483 4.92326 14.1766 
85 1 4.29145 4.17179 11.1826 
89 1 3.2625 5.78189 14.9261 
91 1 0.972244 5.10888 11.8545 
102 1 2.89337 4.147 13.0664 
105 1 1.30209 5.86065 14.1829 
114 1 2.09538 4.26607 11.8551 
150 1 2.4514 4.92815 18.5873 
156 1 2.95732 4.27189 22.1066 
159 1 0.967496 5.11774 20.9159 
5 1 -4.91829 10.5834 8.62364 
9 1 -3.32972 8.86789 7.50635 
19 1 -1.76549 7.53384 10.5544 
21 1 -2.63496 8.76159 10.9473 
23 1 -3.29491 7.53357 6.82451 
25 1 -4.11201 10.455 9.84051 
32 1 1.60266 6.36302 0.771022 
36 1 -1.89519 7.55415 9.0656 
38 1 -2.15864 6.22521 8.64334 
54 1 0.304874 8.5057 10.7015 
57 1 1.34107 7.99703 9.65009 
60 1 -1.75567 7.50747 0.0636956 
65 1 -3.29856 7.53616 3.78318 
78 1 -1.89217 7.55295 1.54544 
80 1 -2.55286 8.79631 1.89478 
84 1 -4.4677 9.80363 3.10189 
99 1 -2.98729 9.6107 0.77572 
100 1 -2.93718 6.26848 3.17149 
107 1 -4.90895 10.5787 1.99197 
110 1 -3.32035 8.86439 3.10921 
111 1 0.60945 5.94736 10.7427 
113 1 1.53489 6.30303 9.8549 
119 1 -4.11156 10.4569 0.779473 
127 1 -2.15808 6.22549 1.97325 
131 1 -2.32959 6.22962 11.0126 
138 1 1.36194 7.98562 0.819154 
142 1 -2.55392 8.79624 8.71384 
145 1 -4.46295 9.80472 7.51226 
151 1 -4.97489 10.4548 11.0302 
154 1 -2.98477 9.60467 9.84703 
155 1 -2.93383 6.26553 7.44522 
161 2 1.2326 7.99572 8.51491 
162 2 1.52116 8.79929 7.17582 
163 3 1.85418 7.98596 6.78687 
12 1 2.5479 7.0669 17.1583 
17 1 0.407453 9.32568 20.9119 
24 1 -3.62351 8.36669 11.8462 
27 1 -0.252056 7.19744 21.6329 
29 1 0.615602 5.96073 22.0221 
31 1 1.29522 7.19295 17.915 
44 1 -0.126593 7.16802 20.1379 
46 1 0.146964 8.49832 19.7161 
51 1 -0.254007 7.24807 11.1224 
53 1 2.55633 7.06358 15.6088 
56 1 1.28199 7.18426 14.8597 
63 1 -2.3347 6.22612 21.7511 
66 1 -3.39009 6.77774 20.8697 
70 1 -0.119047 7.17274 12.6203 
72 1 0.535668 5.92243 12.9584 
92 1 0.919213 8.4542 14.2471 
95 1 -4.97313 10.4151 21.7277 
98 1 -4.67017 9.20959 20.8669 
104 1 0.394002 9.3314 11.841 
116 1 -2.60566 8.78283 21.8067 
118 1 -3.54786 8.35788 20.9174 
122 1 0.138307 8.48779 13.0555 
133 1 -3.37744 6.73911 11.8917 
136 1 0.314508 8.4988 22.0892 
147 1 0.532028 5.93043 19.8055 
153 1 -4.67872 9.2749 11.9162 
160 1 0.92032 8.43874 18.5133 
1 1 7.86674 4.93249 10.5211 
4 1 9.16597 4.79625 11.0179 
20 1 7.84785 4.94578 9.06325 
42 1 9.46079 5.44563 7.44152 
67 1 9.97067 4.57083 0.761064 
77 1 7.86428 4.93664 0.0879778 
94 1 7.84876 4.9464 1.54748 
96 1 9.18098 4.66903 1.9942 
121 1 4.67853 5.49649 10.6681 
130 1 9.46497 5.44642 3.16948 
134 1 9.97148 4.571 9.84956 
152 1 9.17968 4.6691 8.62328 
45 1 4.65884 5.47957 22.0655 
55 1 4.81736 5.50706 13.0517 
106 1 9.16696 4.81164 21.7385 
137 1 4.81835 5.49968 19.7018 
2 1 7.25608 10.4999 9.05406 
3 1 8.9766 7.64481 6.07741 
6 1 8.50623 6.39062 6.83161 
16 1 2.36155 8.69196 0.849179 
22 1 7.12116 6.1947 8.71014 
26 1 7.20041 8.41524 7.54307 
35 1 7.23813 10.5381 10.4854 
37 1 6.87199 9.24267 10.987 
39 1 8.26977 8.9453 6.76929 
41 1 6.72848 6.99512 9.82952 
48 1 3.69843 6.3573 0.823657 
61 1 7.25876 10.5034 1.54655 
62 1 8.97834 7.65656 4.53565 
64 1 6.71284 9.21748 1.97572 
68 1 7.39924 6.96002 3.05624 
71 1 4.31756 8.52902 10.7631 
74 1 3.59068 7.7753 9.82787 
81 1 8.50972 6.38369 3.78587 
83 1 6.54374 8.42345 0.807962 
93 1 7.2536 10.5432 0.106549 
97 1 8.27155 8.94235 3.84929 
101 1 2.37035 9.89798 10.6546 
103 1 2.38508 8.66021 9.83195 
117 1 7.12076 6.18678 1.9028 
120 1 7.19002 8.42159 3.07284 
123 1 3.7902 6.33609 9.81354 
129 1 6.72404 6.99792 0.785795 
132 1 6.71666 9.22978 8.6294 
135 1 7.40562 6.96406 7.56047 
141 1 7.22191 6.19732 10.9273 
144 1 6.54587 8.43499 9.82964 
148 1 3.5953 7.79079 0.797023 
7 1 9.17377 6.03267 11.9238 
10 1 3.66756 9.78992 21.5972 
13 1 2.36895 9.93006 22.0932 
15 1 3.01791 8.33586 17.9004 
28 1 3.68515 9.78241 20.136 
30 1 4.4163 8.53424 19.7919 
34 1 4.33934 6.30013 18.6183 
40 1 7.84244 8.36434 11.9037 
49 1 4.8067 7.72946 20.9067 
50 1 2.06679 9.27843 18.5182 
58 1 1.56089 10.1551 11.84 
59 1 4.13467 7.76481 14.1335 
69 1 3.68666 9.77833 11.17 
73 1 3.0212 8.34148 14.8603 
75 1 4.99197 6.29968 11.8873 
79 1 7.23225 6.20521 21.8283 
82 1 7.92505 6.9573 20.9007 
86 1 3.69109 9.78086 12.6291 
88 1 2.35181 10.0525 13.0648 
108 1 9.17206 6.05281 20.8499 
112 1 4.41535 8.54078 12.9832 
115 1 4.34129 6.3024 14.1456 
124 1 4.82004 7.72798 11.8658 
125 1 2.06922 9.27885 14.2403 
126 1 6.85091 9.23297 21.7505 
128 1 7.74126 8.38299 20.8838 
139 1 1.56342 10.1533 20.9219 
140 1 4.13815 7.76107 18.6308 
143 1 7.93918 6.93198 11.8707 
146 1 4.31323 8.52434 22.0062 
149 1 4.98923 6.28972 20.907 
157 1 2.35313 10.0542 19.6997 
ITEM: TIMESTEP
30
ITEM: NUMBER OF ATOMS
163
ITEM: BOX BOUNDS xy xz yz pp pp pp
-6.7755000000000001e+00 1.3552000000000000e+01 -6.7755000000000001e+00
0.0000000000000000e+00 1.1735510246683001e+01 0.0000000000000000e+00
0.0000000000000000e+00 2.2149999999999999e+01 0.0000000000000000e+00
ITEM: ATOMS id type x y z 
8 1 -2.44049 5.4326 9.83336 
87 1 2.95282 4.33695 10.6638 
90 1 2.64732 5.51323 9.75898 
109 1 -2.44319 5.42882 0.779481 
158 1 2.64087 5.439 0.850576 
11 1 4.26611 4.24637 20.1148 
14 1 2.87727 4.15457 19.7277 
18 1 1.29437 5.84813 18.5635 
33 1 2.07844 4.27746 20.8984 
43 1 4.27652 4.23834 21.543 
47 1 3.22298 5.82493 17.8168 
52 1 4.25465 4.257 12.6351 
76 1 2.42738 4.93201 14.187 
85 1 4.28755 4.21242 11.1955 
89 1 3.22901 5.8128 14.9433 
91 1 0.939068 5.12215 11.8515 
102 1 2.87578 4.15955 13.047 
105 1 1.30026 5.84347 14.1963 
114 1 2.08175 4.27761 11.8517 
150 1 2.42665 4.91646 18.5744 
156 1 2.94925 4.29331 22.1184 
159 1 0.941464 5.13469 20.9263 
5 1 -4.88305 10.562 8.64334 
9 1 -3.30197 8.87686 7.49118 
19 1 -1.76746 7.55712 10.5682 
21 1 -2.60998 8.76457 10.9745 
23 1 -3.29765 7.54781 6.81256 
25 1 -4.09915 10.4475 9.82336 
32 1 1.60457 6.38605 0.792301 
36 1 -1.86744 7.58342 9.05762 
38 1 -2.15528 6.25405 8.64444 
54 1 0.315943 8.48642 10.6976 
57 1 1.33848 7.97455 9.63932 
60 1 -1.757 7.53215 0.0489364 
65 1 -3.30144 7.54581 3.80268 
78 1 -1.86605 7.58063 1.5553 
80 1 -2.52654 8.80027 1.89888 
84 1 -4.44594 9.78846 3.11336 
99 1 -2.95419 9.59642 0.774151 
100 1 -2.93693 6.2884 3.1692 
107 1 -4.89116 10.5632 1.96848 
110 1 -3.31724 8.88135 3.12501 
111 1 0.575499 5.95121 10.7113 
113 1 1.52307 6.32514 9.83939 
119 1 -4.09666 10.441 0.776032 
127 1 -2.1559 6.25415 1.971 
131 1 -2.33791 6.25086 11.0104 
138 1 1.3765 7.97487 0.822354 
142 1 -2.52522 8.80149 8.713 
145 1 -4.44921 9.78593 7.49562 
151 1 -4.96612 10.4293 11.0441 
154 1 -2.96041 9.58839 9.84506 
155 1 -2.93396 6.28798 7.44412 
161 2 1.20194 7.99619 8.51905 
162 2 1.5215 8.80569 7.16396 
163 3 1.85397 7.98446 6.79024 
12 1 2.56325 7.08382 17.1426 
17 1 0.424544 9.29454 20.9076 
24 1 -3.62063 8.3388 11.8687 
27 1 -0.246277 7.17263 21.6441 
29 1 0.59225 5.96094 22.0462 
31 1 1.28594 7.17444 17.8769 
44 1 -0.154606 7.14365 20.1388 
46 1 0.133279 8.46774 19.7232 
51 1 -0.255453 7.22108 11.1127 
53 1 2.56438 7.08683 15.6215 
56 1 1.28127 7.17753 14.8773 
63 1 -2.34213 6.25071 21.7545 
66 1 -3.39806 6.79454 20.8677 
70 1 -0.146069 7.14288 12.6269 
72 1 0.51068 5.92137 12.9717 
92 1 0.918259 8.43427 14.2434 
95 1 -4.95382 10.3602 21.7253 
98 1 -4.66602 9.18973 20.8467 
104 1 0.415381 9.29721 11.8436 
116 1 -2.55713 8.78126 21.7885 
118 1 -3.51931 8.33872 20.9014 
122 1 0.136026 8.46064 13.0509 
133 1 -3.39081 6.75152 11.894 
136 1 0.323878 8.47872 22.0875 
147 1 0.506704 5.92248 19.7884 
153 1 -4.65747 9.28921 11.9253 
160 1 0.915489 8.44036 18.517 
1 1 7.81912 4.94045 10.5271 
4 1 9.12973 4.82377 11.0017 
20 1 7.81046 4.93678 9.06421 
42 1 9.43713 5.46479 7.44542 
67 1 9.95243 4.60248 0.770898 
77 1 7.81432 4.94311 0.0792243 
94 1 7.81104 4.94485 1.54489 
96 1 9.14751 4.69859 1.99692 
121 1 4.66844 5.52699 10.676 
130 1 9.43788 5.46677 3.16365 
134 1 9.95748 4.59912 9.83753 
152 1 9.1473 4.69723 8.61671 
45 1 4.63482 5.51849 22.0848 
55 1 4.81391 5.54326 13.0732 
106 1 9.13196 4.85244 21.7518 
137 1 4.81671 5.53818 19.6981 
2 1 7.26725 10.487 9.04162 
3 1 8.96507 7.64473 6.06985 
6 1 8.52431 6.39629 6.79069 
16 1 2.3688 8.70166 0.869785 
22 1 7.07704 6.16444 8.70248 
26 1 7.19252 8.42599 7.53375 
35 1 7.26036 10.4867 10.4734 
37 1 6.89985 9.20752 11.0142 
39 1 8.30177 8.9127 6.74088 
41 1 6.69568 6.98946 9.84662 
48 1 3.69872 6.34971 0.838276 
61 1 7.27862 10.4691 1.56702 
62 1 8.96973 7.63891 4.54265 
64 1 6.72231 9.18856 1.99701 
68 1 7.37279 6.96228 3.06253 
71 1 4.33418 8.52567 10.7556 
74 1 3.61138 7.7811 9.81438 
81 1 8.515 6.4006 3.81685 
83 1 6.53737 8.39316 0.800444 
93 1 7.25324 10.5038 0.121968 
97 1 8.30432 8.91032 3.86891 
101 1 2.40772 9.85709 10.6743 
103 1 2.38505 8.6418 9.82739 
117 1 7.08226 6.16938 1.92436 
120 1 7.19725 8.40401 3.07684 
123 1 3.77849 6.35033 9.78665 
129 1 6.69426 6.98201 0.777501 
132 1 6.71448 9.1853 8.61933 
135 1 7.37213 6.9549 7.54193 
141 1 7.21287 6.20456 10.9587 
144 1 6.54113 8.39174 9.81583 
148 1 3.59736 7.81027 0.814606 
7 1 9.16902 6.02459 11.9431 
10 1 3.71428 9.78054 21.5989 
13 1 2.40662 9.9008 22.0761 
15 1 3.02362 8.32375 17.8697 
28 1 3.72641 9.78026 20.1419 
30 1 4.4521 8.54912 19.7687 
34 1 4.33519 6.31766 18.6108 
40 1 7.83259 8.37385 11.9151 
49 1 4.8348 7.73594 20.9166 
50 1 2.09814 9.26259 18.524 
58 1 1.58004 10.1207 11.8504 
59 1 4.16345 7.76347 14.1406 
69 1 3.75015 9.77664 11.1672 
73 1 3.01362 8.32579 14.8902 
75 1 4.99535 6.32977 11.8786 
79 1 7.2114 6.20555 21.8193 
82 1 7.913 6.94927 20.8714 
86 1 3.73181 9.78318 12.6267 
88 1 2.38185 10.0235 13.0628 
108 1 9.15509 6.06174 20.8405 
112 1 4.45558 8.55639 13.0052 
115 1 4.33243 6.31973 14.1523 
124 1 4.85204 7.74293 11.8547 
125 1 2.09557 9.25665 14.2355 
126 1 6.85904 9.20671 21.7521 
128 1 7.74708 8.3754 20.8544 
139 1 1.57877 10.1277 20.9145 
140 1 4.16638 7.76417 18.6325 
143 1 7.93855 6.9107 11.8888 
146 1 4.32185 8.52038 22.0303 
149 1 4.99007 6.32993 20.889 
157 1 2.38856 10.0257 19.6843 
ITEM: TIMESTEP
40
ITEM: NUMBER OF ATOMS
163
ITEM: BOX BOUNDS xy xz yz pp pp pp
-6.7755000000000001e+00 1.3552000000000000e+01 -6.7755000000000001e+00
0.0000000000000000e+00 1.1735510246683001e+01 0.0000000000000000e+00
0.0000000000000000e+00 2.2149999999999999e+01 0.0000000000000000e+00
ITEM: ATOMS id type x y z 
8 1 -2.4506 5.44854 9.8315 
87 1 2.94426 4.35228 10.6613 
90 1 2.6416 5.5221 9.75374 
109 1 -2.45204 5.44525 0.780261 
158 1 2.63686 5.4468 0.866832 
11 1 4.25699 4.26452 20.1012 
14 1 2.85922 4.17859 19.7067 
18 1 1.27653 5.84319 18.5615 
33 1 2.07081 4.28968 20.9074 
43 1 4.26649 4.25672 21.5411 
47 1 3.23346 5.80997 17.8136 
52 1 4.24751 4.27329 12.6403 
76 1 2.42646 4.93695 14.1892 
85 1 4.2753 4.23459 11.1961 
89 1 3.24017 5.79914 14.9343 
91 1 0.927591 5.12326 11.8422 
102 1 2.86189 4.17927 13.0554 
105 1 1.27537 5.85012 14.2029 
114 1 2.06843 4.28945 11.851 
150 1 2.42108 4.93977 18.5772 
156 1 2.93947 4.30242 22.1121 
159 1 0.934831 5.1328 20.9318 
5 1 -4.87868 10.5478 8.63528 
9 1 -3.29373 8.87455 7.48239 
19 1 -1.76427 7.56529 10.5633 
21 1 -2.60636 8.76987 10.9819 
23 1 -3.29798 7.53936 6.81708 
25 1 -4.08727 10.4354 9.83421 
32 1 1.59115 6.38086 0.802735 
36 1 -1.85211 7.59345 9.06213 
38 1 -2.15105 6.2685 8.6416 
54 1 0.32018 8.47339 10.6949 
57 1 1.33808 7.97241 9.6353 
60 1 -1.74927 7.54125 0.0564647 
65 1 -3.296 7.53926 3.79712 
78 1 -1.84957 7.5892 1.55217 
80 1 -2.51443 8.81005 1.91038 
84 1 -4.44272 9.78785 3.11215 
99 1 -2.93787 9.59505 0.763024 
100 1 -2.93679 6.29254 3.1671 
107 1 -4.87559 10.5439 1.97747 
110 1 -3.2955 8.87592 3.13055 
111 1 0.564872 5.94161 10.7006 
113 1 1.51103 6.32823 9.83219 
119 1 -4.08304 10.4272 0.773864 
127 1 -2.1518 6.26703 1.9743 
131 1 -2.34772 6.25997 11.011 
138 1 1.38263 7.9801 0.827633 
142 1 -2.51308 8.81037 8.70245 
145 1 -4.4387 9.78854 7.49774 
151 1 -4.9567 10.4226 11.0387 
154 1 -2.95183 9.58955 9.85265 
155 1 -2.93561 6.29109 7.44681 
161 2 1.18251 7.99709 8.51546 
162 2 1.52184 8.80931 7.15671 
163 3 1.85386 7.98376 6.79211 
12 1 2.56253 7.07382 17.161 
17 1 0.435373 9.27859 20.9054 
24 1 -3.60645 8.34408 11.8786 
27 1 -0.248695 7.16375 21.6393 
29 1 0.588299 5.95728 22.0552 
31 1 1.2865 7.18233 17.8728 
44 1 -0.166661 7.13248 20.1404 
46 1 0.13542 8.45438 19.7155 
51 1 -0.258705 7.21364 11.1171 
53 1 2.56457 7.07255 15.6535 
56 1 1.28208 7.17967 14.8678 
63 1 -2.35028 6.25871 21.753 
66 1 -3.39821 6.79513 20.8644 
70 1 -0.162338 7.13541 12.6247 
72 1 0.497531 5.91148 12.9804 
92 1 0.917573 8.42617 14.2426 
95 1 -4.95385 10.3508 21.7319 
98 1 -4.6555 9.17346 20.8349 
104 1 0.425877 9.28086 11.8432 
116 1 -2.54632 8.79117 21.7793 
118 1 -3.50509 8.34064 20.8919 
122 1 0.131583 8.44707 13.0509 
133 1 -3.39658 6.74674 11.8992 
136 1 0.3347 8.47062 22.0875 
147 1 0.494109 5.9139 19.7805 
153 1 -4.65407 9.27783 11.9432 
160 1 0.919527 8.43693 18.523 
1 1 7.79571 4.93361 10.5248 
4 1 9.11847 4.83428 10.9958 
20 1 7.78785 4.94374 9.06215 
42 1 9.43936 5.47247 7.44704 
67 1 9.93806 4.62326 0.773491 
77 1 7.78852 4.93393 0.0803059 
94 1 7.78942 4.94619 1.54849 
96 1 9.12716 4.70865 1.98954 
121 1 4.66405 5.54276 10.6675 
130 1 9.43862 5.47356 3.16392 
134 1 9.94424 4.61822 9.8333 
152 1 9.12672 4.70835 8.61961 
45 1 4.62855 5.53304 22.0783 
55 1 4.81189 5.55026 13.0675 
106 1 9.11854 4.86865 21.7544 
137 1 4.81496 5.54813 19.6949 
2 1 7.27669 10.4607 9.02549 
3 1 8.96425 7.65558 6.06712 
6 1 8.50335 6.39464 6.80873 
16 1 2.37773 8.70356 0.875946 
22 1 7.05883 6.16909 8.69004 
26 1 7.2006 8.39919 7.52136 
35 1 7.26844 10.4681 10.4697 
37 1 6.90578 9.19019 11.0052 
39 1 8.296 8.92346 6.75164 
41 1 6.68638 6.96487 9.83846 
48 1 3.68744 6.36104 0.856773 
61 1 7.28843 10.4529 1.56369 
62 1 8.96515 7.65551 4.5411 
64 1 6.72238 9.17439 1.99207 
68 1 7.37268 6.94575 3.07554 
71 1 4.35688 8.52284 10.7498 
74 1 3.6118 7.78729 9.79976 
81 1 8.50237 6.39257 3.80686 
83 1 6.53179 8.38699 0.807556 
93 1 7.27014 10.4819 0.122194 
97 1 8.29333 8.92611 3.86433 
101 1 2.42415 9.83758 10.678 
103 1 2.39881 8.63363 9.8277 
117 1 7.05834 6.16285 1.92751 
120 1 7.20149 8.39817 3.09289 
123 1 3.78291 6.35 9.77947 
129 1 6.67912 6.96562 0.782493 
132 1 6.71869 9.17818 8.62152 
135 1 7.374 6.94909 7.54034 
141 1 7.19842 6.2059 10.9593 
144 1 6.541 8.39324 9.8216 
148 1 3.59983 7.80874 0.830776 
7 1 9.15996 6.0226 11.9489 
10 1 3.73724 9.78919 21.599 
13 1 2.41652 9.89124 22.0706 
15 1 3.03553 8.31902 17.8656 
28 1 3.74688 9.77814 20.135 
30 1 4.47857 8.55591 19.7675 
34 1 4.32839 6.32552 18.5983 
40 1 7.84486 8.36233 11.9325 
49 1 4.84784 7.75796 20.913 
50 1 2.09308 9.24415 18.5263 
58 1 1.59764 10.0979 11.8503 
59 1 4.15933 7.7813 14.1562 
69 1 3.77192 9.7957 11.1673 
73 1 3.0275 8.33098 14.8764 
75 1 5.003 6.33823 11.8838 
79 1 7.19621 6.21095 21.8103 
82 1 7.90121 6.94501 20.8568 
86 1 3.75079 9.78137 12.6316 
88 1 2.40596 10.0143 13.0592 
108 1 9.14464 6.06907 20.8391 
112 1 4.48011 8.5635 13.01 
115 1 4.3287 6.32491 14.1712 
124 1 4.86904 7.75897 11.8638 
125 1 2.0964 9.24889 14.2367 
126 1 6.86089 9.18717 21.7441 
128 1 7.74083 8.37073 20.8485 
139 1 1.59222 10.1072 20.9068 
140 1 4.1651 7.77557 18.6165 
143 1 7.93673 6.91459 11.9045 
146 1 4.33611 8.51863 22.035 
149 1 4.99258 6.33079 20.8969 
157 1 2.40687 10.0139 19.6883 
ITEM: TIMESTEP
50
ITEM: NUMBER OF ATOMS
163
ITEM: BOX BOUNDS xy xz yz pp pp pp
-6.7755000000000001e+00 1.3552000000000000e+01 -6.7755000000000001e+00
0.0000000000000000e+00 1.1735510246683001e+01 0.0000000000000000e+00
0.0000000000000000e+00 2.2149999999999999e+01 0.0000000000000000e+00
ITEM: ATOMS id type x y z 
8 1 -2.46912 5.47859 9.82489 
87 1 2.93248 4.38223 10.6575 
90 1 2.62962 5.5475 9.73967 
109 1 -2.47108 5.47465 0.784887 
158 1 2.62594 5.45595 0.886934 
11 1 4.24127 4.29689 20.095 
14 1 2.83964 4.19675 19.7103 
18 1 1.2717 5.84816 18.5546 
33 1 2.06084 4.30062 20.911 
43 1 4.24468 4.29408 21.5258 
47 1 3.21037 5.82604 17.7968 
52 1 4.23151 4.30256 12.6452 
76 1 2.4035 4.94413 14.1989 
85 1 4.25609 4.272 11.2058 
89 1 3.215 5.82947 14.9381 
91 1 0.897694 5.12617 11.8418 
102 1 2.84363 4.19953 13.0501 
105 1 1.26381 5.84856 14.2084 
114 1 2.05604 4.30836 11.8473 
150 1 2.39601 4.94568 18.5662 
156 1 2.92455 4.32496 22.1182 
159 1 0.906835 5.13977 20.9304 
5 1 -4.85715 10.536 8.6414 
9 1 -3.27959 8.8737 7.4751 
19 1 -1.76464 7.58088 10.5647 
21 1 -2.59313 8.77104 10.992 
23 1 -3.29736 7.53743 6.81198 
25 1 -4.0784 10.4238 9.83735 
32 1 1.57848 6.38408 0.824217 
36 1 -1.83041 7.61568 9.05527 
38 1 -2.14359 6.29088 8.64424 
54 1 0.330851 8.44836 10.6897 
57 1 1.3395 7.96625 9.62735 
60 1 -1.74307 7.56007 0.0577373 
65 1 -3.30244 7.53935 3.79985 
78 1 -1.82608 7.61041 1.5622 
80 1 -2.49078 8.82088 1.91635 
84 1 -4.41477 9.7954 3.11976 
99 1 -2.90393 9.59244 0.762417 
100 1 -2.93545 6.28692 3.1638 
107 1 -4.85618 10.5294 1.96294 
110 1 -3.28742 8.87189 3.13801 
111 1 0.540029 5.93434 10.6895 
113 1 1.4902 6.33811 9.81595 
119 1 -4.06769 10.405 0.767482 
127 1 -2.1426 6.28795 1.97053 
131 1 -2.36357 6.28093 11.0106 
138 1 1.39575 7.97565 0.839474 
142 1 -2.49001 8.82353 8.6968 
145 1 -4.41536 9.79434 7.49011 
151 1 -4.94189 10.3984 11.0464 
154 1 -2.92582 9.58645 9.8551 
155 1 -2.93499 6.29116 7.45003 
161 2 1.14362 7.99933 8.51083 
162 2 1.52263 8.81646 7.14207 
163 3 1.85389 7.98243 6.79515 
12 1 2.55378 7.07782 17.1819 
17 1 0.454521 9.24994 20.8963 
24 1 -3.59455 8.34191 11.8996 
27 1 -0.247472 7.15024 21.6389 
29 1 0.576861 5.95609 22.0671 
31 1 1.28981 7.17868 17.8312 
44 1 -0.182926 7.10818 20.1317 
46 1 0.130965 8.43306 19.7206 
51 1 -0.262354 7.19328 11.1198 
53 1 2.55739 7.08027 15.686 
56 1 1.29302 7.16587 14.8861 
63 1 -2.35883 6.28206 21.7534 
66 1 -3.40183 6.80349 20.8565 
70 1 -0.186682 7.11542 12.6319 
72 1 0.472997 5.90036 12.9862 
92 1 0.927409 8.41801 14.2362 
95 1 -4.93982 10.3155 21.7203 
98 1 -4.64589 9.15002 20.8189 
104 1 0.448436 9.24751 11.8472 
116 1 -2.52019 8.79472 21.7686 
118 1 -3.48144 8.33557 20.8731 
122 1 0.13381 8.42572 13.0515 
133 1 -3.40803 6.7515 11.9109 
136 1 0.350828 8.44716 22.0875 
147 1 0.475976 5.89831 19.7729 
153 1 -4.64313 9.26817 11.9634 
160 1 0.916989 8.44326 18.527 
1 1 7.75139 4.91655 10.5313 
4 1 9.08861 4.85378 10.9853 
20 1 7.74965 4.95362 9.05841 
42 1 9.43036 5.48317 7.45471 
67 1 9.91232 4.66257 0.772885 
77 1 7.73562 4.91135 0.0725847 
94 1 7.752 4.95768 1.54859 
96 1 9.09206 4.7299 1.99074 
121 1 4.6555 5.56556 10.6705 
130 1 9.43028 5.48013 3.15387 
134 1 9.92005 4.65164 9.82777 
152 1 9.0933 4.72809 8.61678 
45 1 4.60924 5.56245 22.0792 
55 1 4.80285 5.58189 13.0769 
106 1 9.08395 4.90224 21.7642 
137 1 4.80525 5.58208 19.6821 
2 1 7.29069 10.4301 9.02637 
3 1 8.95899 7.65584 6.08128 
6 1 8.49397 6.39848 6.80522 
16 1 2.3901 8.70585 0.887035 
22 1 7.02123 6.15584 8.67321 
26 1 7.20434 8.38462 7.51667 
35 1 7.28855 10.4313 10.451 
37 1 6.92715 9.16128 11.004 
39 1 8.30347 8.92451 6.75893 
41 1 6.66376 6.95173 9.83639 
48 1 3.67611 6.36813 0.876949 
61 1 7.30128 10.4262 1.57034 
62 1 8.95885 7.65993 4.53719 
64 1 6.73034 9.14576 1.9992 
68 1 7.35379 6.93377 3.07758 
71 1 4.38608 8.51941 10.7478 
74 1 3.63841 7.79418 9.79284 
81 1 8.49676 6.39733 3.80624 
83 1 6.52517 8.36674 0.8083 
93 1 7.29073 10.4337 0.136324 
97 1 8.30671 8.92784 3.85403 
101 1 2.46226 9.80043 10.6922 
103 1 2.40912 8.62058 9.82127 
117 1 7.02445 6.14903 1.94962 
120 1 7.20262 8.37793 3.10078 
123 1 3.77911 6.36407 9.76022 
129 1 6.65074 6.94824 0.788301 
132 1 6.72434 9.14087 8.60803 
135 1 7.35235 6.93894 7.5371 
141 1 7.18332 6.20955 10.9702 
144 1 6.54158 8.36903 9.82114 
148 1 3.61549 7.82166 0.844998 
7 1 9.14807 6.0211 11.9595 
10 1 3.78245 9.805 21.6003 
13 1 2.44544 9.87235 22.0565 
15 1 3.04679 8.30496 17.8323 
28 1 3.78349 9.76729 20.1306 
30 1 4.51657 8.56554 19.7454 