ITEM: TIMESTEP
0
ITEM: NUMBER OF ATOMS
97
ITEM: BOX BOUNDS pp pp pp
0.0000000000000000e+00 1.6524999999999999e+01
0.0000000000000000e+00 1.6526000000000000e+01
0.0000000000000000e+00 1.6526000000000000e+01
ITEM: ATOMS id type x y z 
1 1 1.813 1.813 1.813 
10 1 5.821 5.821 5.821 
17 1 3.388 3.388 3.388 
26 1 4.246 4.246 4.246 
33 1 0.284 2 2 
41 1 2 0.284 2 
49 1 2 2 0.283 
58 1 7.351 5.634 5.634 
66 1 5.634 7.351 5.634 
74 1 5.634 5.634 7.351 
81 1 2.689 2.689 2.689 
90 1 4.945 4.945 4.945 
97 2 0.586 3.058 1.934 
4 1 1.813 1.813 14.084 
11 1 5.821 5.821 10.076 
20 1 3.388 3.388 12.509 
27 1 4.246 4.246 11.651 
36 1 0.284 2 13.897 
46 1 2 0.284 13.897 
56 1 2 2 15.614 
59 1 7.351 5.634 10.263 
69 1 5.634 7.351 10.263 
79 1 5.634 5.634 8.546 
84 1 2.689 2.689 13.208 
91 1 4.945 4.945 10.952 
6 1 1.813 14.084 1.813 
13 1 5.821 10.076 5.821 
22 1 3.388 12.509 3.388 
29 1 4.246 11.651 4.246 
38 1 0.284 13.897 2 
48 1 2 15.614 2 
52 1 2 13.897 0.283 
61 1 7.351 10.263 5.634 
71 1 5.634 8.546 5.634 
75 1 5.634 10.263 7.351 
86 1 2.689 13.208 2.689 
93 1 4.945 10.952 4.945 
7 1 1.813 14.084 14.084 
16 1 5.821 10.076 10.076 
23 1 3.388 12.509 12.509 
32 1 4.246 11.651 11.651 
39 1 0.284 13.897 13.897 
43 1 2 15.614 13.897 
53 1 2 13.897 15.614 
64 1 7.351 10.263 10.263 
68 1 5.634 8.547 10.263 
78 1 5.634 10.263 8.546 
87 1 2.689 13.208 13.208 
96 1 4.945 10.952 10.952 
8 1 14.084 1.813 1.813 
15 1 10.076 5.821 5.821 
24 1 12.509 3.388 3.388 
31 1 11.651 4.246 4.246 
40 1 15.613 2 2 
44 1 13.897 0.284 2 
54 1 13.897 2 0.283 
63 1 8.547 5.634 5.634 
67 1 10.263 7.351 5.634 
77 1 10.263 5.634 7.351 
88 1 13.208 2.689 2.689 
95 1 10.952 4.945 4.945 
5 1 14.084 1.813 14.084 
14 1 10.076 5.821 10.076 
21 1 12.509 3.388 12.509 
30 1 11.651 4.246 11.651 
37 1 15.613 2 13.897 
47 1 13.897 0.284 13.897 
51 1 13.897 2 15.614 
62 1 8.546 5.634 10.263 
72 1 10.263 7.351 10.263 
76 1 10.263 5.634 8.546 
85 1 13.208 2.689 13.208 
94 1 10.952 4.945 10.952 
3 1 14.084 14.084 1.813 
12 1 10.076 10.076 5.821 
19 1 12.509 12.509 3.388 
28 1 11.651 11.651 4.246 
35 1 15.613 13.897 2 
45 1 13.897 15.614 2 
55 1 13.897 13.897 0.283 
60 1 8.547 10.263 5.634 
70 1 10.263 8.547 5.634 
80 1 10.263 10.263 7.351 
83 1 13.208 13.208 2.689 
92 1 10.952 10.952 4.945 
2 1 14.084 14.084 14.084 
9 1 10.076 10.076 10.076 
18 1 12.509 12.509 12.509 
25 1 11.651 11.651 11.651 
34 1 15.613 13.897 13.897 
42 1 13.897 15.614 13.897 
50 1 13.897 13.897 15.614 
57 1 8.546 10.263 10.263 
65 1 10.263 8.546 10.263 
73 1 10.263 10.263 8.547 
82 1 13.208 13.208 13.208 
89 1 10.952 10.952 10.952 
ITEM: TIMESTEP
10
ITEM: NUMBER OF ATOMS
97
ITEM: BOX BOUNDS pp pp pp
0.0000000000000000e+00 1.6524999999999999e+01
0.0000000000000000e+00 1.6526000000000000e+01
0.0000000000000000e+00 1.6526000000000000e+01
ITEM: ATOMS id type x y z 
1 1 1.87539 1.77993 1.80119 
10 1 5.82104 5.82082 5.82081 
17 1 3.38684 3.38808 3.38779 
26 1 4.24325 4.24324 4.24321 
33 1 0.270969 2.01443 2.02384 
41 1 2.00351 0.286053 1.99998 
49 1 2.00354 1.99869 0.286739 
58 1 7.35147 5.6324 5.63242 
66 1 5.6324 7.3511 5.63242 
74 1 5.63241 5.6324 7.35084 
81 1 2.69289 2.68876 2.68982 
90 1 4.93972 4.93979 4.9398 
97 2 0.565141 3.09812 1.93815 
4 1 1.81345 1.81307 14.0852 
11 1 5.82047 5.82079 10.0765 
20 1 3.38986 3.38988 12.5069 
27 1 4.24396 4.24387 11.6532 
36 1 0.2834 2.00163 13.8955 
46 1 2.00164 0.283499 13.8955 
56 1 1.99991 2.00266 15.6172 
59 1 7.35149 5.63226 10.2647 
69 1 5.63229 7.35163 10.2647 
79 1 5.63226 5.63223 8.54523 
84 1 2.69329 2.69324 13.2042 
91 1 4.94064 4.94083 10.9561 
6 1 1.81349 14.0861 1.81308 
13 1 5.82092 10.0764 5.82069 
22 1 3.38996 12.5067 3.39 
29 1 4.24399 11.6529 4.24397 
38 1 0.28303 13.8954 2.00153 
48 1 2.00024 15.6125 2.00235 
52 1 2.00153 13.8954 0.282418 
61 1 7.35163 10.2647 5.63233 
71 1 5.63231 8.54536 5.63236 
75 1 5.63234 10.2646 7.35119 
86 1 2.69347 13.2042 2.69341 
93 1 4.94091 10.9562 4.94093 
7 1 1.81339 14.0838 14.0834 
16 1 5.82041 10.0768 10.0766 
23 1 3.39 12.5069 12.5071 
32 1 4.24382 11.6532 11.6531 
39 1 0.283133 13.8953 13.8953 
43 1 2.0017 15.6148 13.8953 
53 1 2.00165 13.8953 15.6151 
64 1 7.35166 10.2648 10.2648 
68 1 5.63217 8.54557 10.2648 
78 1 5.63218 10.2648 8.54483 
87 1 2.69309 13.2041 13.2038 
96 1 4.94078 10.9561 10.9563 
8 1 14.1087 1.81559 1.81992 
15 1 10.0763 5.82101 5.82083 
24 1 12.5058 3.39052 3.39043 
31 1 11.6523 4.24456 4.24457 
40 1 15.5668 1.98811 1.97699 
44 1 13.8953 0.281141 2.00182 
54 1 13.8954 2.00133 0.282832 
63 1 8.54575 5.63231 5.63235 
67 1 10.2647 7.35164 5.63235 
77 1 10.2646 5.63236 7.35111 
88 1 13.2039 2.69405 2.69412 
95 1 10.9557 4.94159 4.94152 
5 1 14.0839 1.81322 14.0828 
14 1 10.0767 5.82033 10.0767 
21 1 12.5071 3.3899 12.5072 
30 1 11.6533 4.24376 11.6532 
37 1 15.6136 2.00164 13.8954 
47 1 13.8954 0.283317 13.8954 
51 1 13.8949 2.00142 15.6152 
62 1 8.54512 5.63216 10.2648 
72 1 10.2648 7.35161 10.2648 
76 1 10.2648 5.63215 8.5448 
85 1 13.2041 2.69292 13.2038 
94 1 10.9562 4.94076 10.9564 
3 1 14.0835 14.0832 1.81363 
12 1 10.0763 10.0763 5.82108 
19 1 12.5069 12.507 3.39004 
28 1 11.653 11.653 4.24391 
35 1 15.6146 13.8952 2.00171 
45 1 13.8948 15.6142 2.00146 
55 1 13.8953 13.8953 0.282032 
60 1 8.54628 10.2646 5.63238 
70 1 10.2646 8.54626 5.63238 
80 1 10.2646 10.2646 7.35121 
83 1 13.2039 13.2038 2.69312 
92 1 10.9562 10.9562 4.94101 
2 1 14.0838 14.0841 14.084 
9 1 10.0766 10.0766 10.0768 
18 1 12.5071 12.5071 12.507 
25 1 11.6532 11.6532 11.6531 
34 1 15.6134 13.8954 13.8954 
42 1 13.8954 15.6146 13.8955 
50 1 13.8954 13.8954 15.614 
57 1 8.54536 10.2648 10.2648 
65 1 10.2648 8.5455 10.2648 
73 1 10.2648 10.2648 8.54515 
82 1 13.2038 13.2039 13.204 
89 1 10.9562 10.9562 10.9564 
ITEM: TIMESTEP
20
ITEM: NUMBER OF ATOMS
97
ITEM: BOX BOUNDS pp pp pp
0.0000000000000000e+00 1.6524999999999999e+01
0.0000000000000000e+00 1.6526000000000000e+01
0.0000000000000000e+00 1.6526000000000000e+01
ITEM: ATOMS id type x y z 
1 1 1.90669 1.77756 1.79418 
10 1 5.81816 5.81798 5.81796 
17 1 3.38795 3.39253 3.39201 
26 1 4.23954 4.23996 4.23979 
33 1 0.235556 2.05823 2.05978 
41 1 2.0152 0.27802 2.0014 
49 1 2.01479 1.99788 0.284203 
58 1 7.35181 5.62882 5.62891 
66 1 5.62885 7.3521 5.62892 
74 1 5.62892 5.62884 7.35162 
81 1 2.70255 2.68549 2.68855 
90 1 4.93761 4.93772 4.93764 
97 2 0.580529 3.11964 1.94132 
4 1 1.8154 1.81565 14.086 
11 1 5.81792 5.81832 10.0781 
20 1 3.39138 3.39137 12.505 
27 1 4.24205 4.24208 11.6549 
36 1 0.282851 2.0049 13.8923 
46 1 2.00506 0.281715 13.8923 
56 1 1.99906 2.0084 15.6152 
59 1 7.35221 5.62863 10.2684 
69 1 5.62861 7.35302 10.2684 
79 1 5.62861 5.62863 8.54408 
84 1 2.69462 2.69459 13.204 
91 1 4.9396 4.93963 10.9573 
6 1 1.81563 14.086 1.81518 
13 1 5.81953 10.078 5.81851 
22 1 3.39176 12.5045 3.3918 
29 1 4.24255 11.6543 4.24271 
38 1 0.283572 13.892 2.0049 
48 1 2.00004 15.6057 2.00815 
52 1 2.00502 13.892 0.280128 
61 1 7.35249 10.2681 5.6289 
71 1 5.62894 8.54486 5.62902 
75 1 5.6289 10.268 7.352 
86 1 2.69512 13.2036 2.69503 
93 1 4.94027 10.9569 4.93989 
7 1 1.81527 14.0824 14.0816 
16 1 5.8187 10.0784 10.0781 
23 1 3.39165 12.5053 12.5053 
32 1 4.24211 11.6549 11.6549 
39 1 0.28344 13.8919 13.8919 
43 1 2.00496 15.6156 13.8918 
53 1 2.00494 13.8916 15.6157 
64 1 7.35198 10.2683 10.2683 
68 1 5.62876 8.54552 10.2683 
78 1 5.62869 10.2682 8.54456 
87 1 2.69417 13.203 13.2028 
96 1 4.93963 10.9574 10.9573 
8 1 14.1193 1.81939 1.82438 
15 1 10.0777 5.81999 5.81908 
24 1 12.501 3.39395 3.39355 
31 1 11.6515 4.2453 4.24543 
40 1 15.5434 1.95574 1.95118 
44 1 13.8921 0.274191 2.00854 
54 1 13.8919 2.00695 0.278108 
63 1 8.54465 5.62881 5.62888 
67 1 10.2682 7.35302 5.6288 
77 1 10.2681 5.62881 7.35208 
88 1 13.2033 2.69896 2.6993 
95 1 10.9543 4.94292 4.94257 
5 1 14.0816 1.81589 14.0792 
14 1 10.0788 5.81838 10.0788 
21 1 12.5051 3.39181 12.5054 
30 1 11.6551 4.24185 11.6552 
37 1 15.6162 2.0052 13.8915 
47 1 13.8918 0.281404 13.8916 
51 1 13.8892 2.00406 15.6134 
62 1 8.54474 5.62851 10.2685 
72 1 10.2685 7.35229 10.2685 
76 1 10.2685 5.62842 8.54429 
85 1 13.2031 2.69405 13.2025 
94 1 10.9575 4.93961 10.9574 
3 1 14.0807 14.0785 1.81612 
12 1 10.078 10.0781 5.81901 
19 1 12.5047 12.505 3.39227 
28 1 11.6547 11.6546 4.24235 
35 1 15.6162 13.8909 2.0055 
45 1 13.8887 15.6105 2.00433 
55 1 13.8915 13.8912 0.280531 
60 1 8.54509 10.268 5.62906 
70 1 10.2681 8.54569 5.62904 
80 1 10.268 10.2679 7.35171 
83 1 13.2028 13.2021 2.69423 
92 1 10.9571 10.9572 4.9399 
2 1 14.0807 14.0825 14.0817 
9 1 10.0786 10.0788 10.0784 
18 1 12.5053 12.5051 12.5052 
25 1 11.655 11.6548 11.6549 
34 1 15.6154 13.8917 13.8918 
42 1 13.8918 15.6158 13.8919 
50 1 13.8918 13.8918 15.6146 
57 1 8.54446 10.2684 10.2684 
65 1 10.2684 8.54488 10.2684 
73 1 10.2684 10.2684 8.54452 
82 1 13.2025 13.203 13.2027 
89 1 10.9572 10.9574 10.9572 
ITEM: TIMESTEP
24
ITEM: NUMBER OF ATOMS
97
ITEM: BOX BOUNDS pp pp pp
0.0000000000000000e+00 1.6524999999999999e+01
0.0000000000000000e+00 1.6526000000000000e+01
0.0000000000000000e+00 1.6526000000000000e+01
ITEM: ATOMS id type x y z 
1 1 1.90677 1.77746 1.79416 
10 1 5.81802 5.81786 5.81779 
17 1 3.38781 3.39249 3.39199 
26 1 4.23951 4.23993 4.23977 
33 1 0.234608 2.06012 2.06009 
41 1 2.01558 0.277504 2.00142 
49 1 2.01518 1.99786 0.284188 
58 1 7.35157 5.62866 5.62876 
66 1 5.6287 7.35191 5.62877 
74 1 5.62877 5.62868 7.35146 
81 1 2.70292 2.68526 2.68836 
90 1 4.93758 4.93777 4.93763 
97 2 0.581449 3.12042 1.94143 
4 1 1.81563 1.8156 14.086 
11 1 5.81802 5.81839 10.0783 
20 1 3.39139 3.39134 12.505 
27 1 4.24209 4.24208 11.6549 
36 1 0.283298 2.00505 13.8921 
46 1 2.00519 0.281703 13.8921 
56 1 1.99909 2.0086 15.6152 
59 1 7.35256 5.62849 10.2685 
69 1 5.62848 7.35299 10.2686 
79 1 5.62847 5.6285 8.5443 
84 1 2.69459 2.69463 13.204 
91 1 4.93957 4.93965 10.9572 
6 1 1.81555 14.0859 1.81548 
13 1 5.8194 10.0782 5.81839 
22 1 3.39174 12.5046 3.39182 
29 1 4.24255 11.6543 4.24269 
38 1 0.283058 13.8919 2.00504 
48 1 2.00011 15.6063 2.00834 
52 1 2.00519 13.8919 0.281018 
61 1 7.35215 10.2682 5.62874 
71 1 5.62878 8.54491 5.62886 
75 1 5.62874 10.2682 7.35164 
86 1 2.69516 13.2035 2.69501 
93 1 4.94029 10.9569 4.93992 
7 1 1.8154 14.0822 14.0815 
16 1 5.81856 10.0785 10.0783 
23 1 3.39162 12.5052 12.5054 
32 1 4.24212 11.6549 11.6549 
39 1 0.283521 13.8918 13.8917 
43 1 2.00512 15.6158 13.8916 
53 1 2.00511 13.8915 15.6148 
64 1 7.35171 10.2684 10.2684 
68 1 5.6286 8.54523 10.2685 
78 1 5.62853 10.2684 8.54492 
87 1 2.6942 13.2031 13.2028 
96 1 4.93963 10.9574 10.9573 
8 1 14.119 1.81932 1.82367 
15 1 10.0778 5.81992 5.81898 
24 1 12.501 3.39395 3.39354 
31 1 11.6513 4.24546 4.24556 
40 1 15.5438 1.95406 1.95194 
44 1 13.892 0.274375 2.00878 
54 1 13.8917 2.00718 0.277852 
63 1 8.54474 5.62865 5.62871 
67 1 10.2684 7.35276 5.62863 
77 1 10.2683 5.62864 7.35193 
88 1 13.2033 2.69913 2.69948 
95 1 10.9542 4.94294 4.94264 
5 1 14.0815 1.81602 14.0791 
14 1 10.0788 5.81831 10.0789 
21 1 12.5051 3.39185 12.5054 
30 1 11.6551 4.24188 11.6551 
37 1 15.6157 2.00535 13.8913 
47 1 13.8916 0.282067 13.8914 
51 1 13.889 2.00421 15.6135 
62 1 8.54422 5.62836 10.2686 
72 1 10.2686 7.35239 10.2687 
76 1 10.2686 5.62827 8.54464 
85 1 13.2031 2.69401 13.2025 
94 1 10.9574 4.93961 10.9575 
3 1 14.0806 14.0782 1.81621 
12 1 10.0782 10.0783 5.81886 
19 1 12.5047 12.5051 3.39229 
28 1 11.6547 11.6547 4.24232 
35 1 15.6167 13.8908 2.00564 
45 1 13.8885 15.6102 2.00449 
55 1 13.8913 13.8911 0.281103 
60 1 8.54541 10.2682 5.62889 
70 1 10.2682 8.54597 5.62887 
80 1 10.2681 10.2681 7.35161 
83 1 13.2027 13.202 2.6942 
92 1 10.9571 10.9571 4.93994 
2 1 14.0807 14.0823 14.0815 
9 1 10.0787 10.0789 10.0785 
18 1 12.5053 12.505 12.5051 
25 1 11.6549 11.6548 11.6549 
34 1 15.6152 13.8915 13.8916 
42 1 13.8916 15.6151 13.8917 
50 1 13.8916 13.8916 15.6141 
57 1 8.54481 10.2685 10.2686 
65 1 10.2685 8.54477 10.2685 
73 1 10.2686 10.2685 8.54473 
82 1 13.2025 13.203 13.2027 
89 1 10.9573 10.9573 10.9572 
ITEM: TIMESTEP
25
ITEM: NUMBER OF ATOMS
97
ITEM: BOX BOUNDS pp pp pp
0.0000000000000000e+00 1.6524999999999999e+01
0.0000000000000000e+00 1.6526000000000000e+01
0.0000000000000000e+00 1.6526000000000000e+01
ITEM: ATOMS id type x y z 
1 1 1.90677 1.77746 1.79416 
10 1 5.81802 5.81786 5.81779 
17 1 3.38781 3.39249 3.39199 
26 1 4.23951 4.23993 4.23977 
33 1 0.234608 2.06012 2.06009 
41 1 2.01558 0.277504 2.00142 
49 1 2.01518 1.99786 0.284188 
58 1 7.35157 5.62866 5.62876 
66 1 5.6287 7.35191 5.62877 
74 1 5.62877 5.62868 7.35146 
81 1 2.70292 2.68526 2.68836 
90 1 4.93758 4.93777 4.93763 
97 2 0.581449 3.12042 1.94143 
4 1 1.81563 1.8156 14.086 
11 1 5.81802 5.81839 10.0783 
20 1 3.39139 3.39134 12.505 
27 1 4.24209 4.24208 11.6549 
36 1 0.283298 2.00505 13.8921 
46 1 2.00519 0.281703 13.8921 
56 1 1.99909 2.0086 15.6152 
59 1 7.35256 5.62849 10.2685 
69 1 5.62848 7.35299 10.2686 
79 1 5.62847 5.6285 8.5443 
84 1 2.69459 2.69463 13.204 
91 1 4.93957 4.93965 10.9572 
6 1 1.81555 14.0859 1.81548 
13 1 5.8194 10.0782 5.81839 
22 1 3.39174 12.5046 3.39182 
29 1 4.24255 11.6543 4.24269 
38 1 0.283058 13.8919 2.00504 
48 1 2.00011 15.6063 2.00834 
52 1 2.00519 13.8919 0.281018 
61 1 7.35215 10.2682 5.62874 
71 1 5.62878 8.54491 5.62886 
75 1 5.62874 10.2682 7.35164 
86 1 2.69516 13.2035 2.69501 
93 1 4.94029 10.9569 4.93992 
7 1 1.8154 14.0822 14.0815 
16 1 5.81856 10.0785 10.0783 
23 1 3.39162 12.5052 12.5054 
32 1 4.24212 11.6549 11.6549 
39 1 0.283521 13.8918 13.8917 
43 1 2.00512 15.6158 13.8916 
53 1 2.00511 13.8915 15.6148 
64 1 7.35171 10.2684 10.2684 
68 1 5.6286 8.54523 10.2685 
78 1 5.62853 10.2684 8.54492 
87 1 2.6942 13.2031 13.2028 
96 1 4.93963 10.9574 10.9573 
8 1 14.119 1.81932 1.82367 
15 1 10.0778 5.81992 5.81898 
24 1 12.501 3.39395 3.39354 
31 1 11.6513 4.24546 4.24556 
40 1 15.5438 1.95406 1.95194 
44 1 13.892 0.274375 2.00878 
54 1 13.8917 2.00718 0.277852 
63 1 8.54474 5.62865 5.62871 
67 1 10.2684 7.35276 5.62863 
77 1 10.2683 5.62864 7.35193 
88 1 13.2033 2.69913 2.69948 
95 1 10.9542 4.94294 4.94264 
5 1 14.0815 1.81602 14.0791 
14 1 10.0788 5.81831 10.0789 
21 1 12.5051 3.39185 12.5054 
30 1 11.6551 4.24188 11.6551 
37 1 15.6157 2.00535 13.8913 
47 1 13.8916 0.282067 13.8914 
51 1 13.889 2.00421 15.6135 
62 1 8.54422 5.62836 10.2686 
72 1 10.2686 7.35239 10.2687 
76 1 10.2686 5.62827 8.54464 
85 1 13.2031 2.69401 13.2025 
94 1 10.9574 4.93961 10.9575 
3 1 14.0806 14.0782 1.81621 
12 1 10.0782 10.0783 5.81886 
19 1 12.5047 12.5051 3.39229 
28 1 11.6547 11.6547 4.24232 
35 1 15.6167 13.8908 2.00564 
45 1 13.8885 15.6102 2.00449 
55 1 13.8913 13.8911 0.281103 
60 1 8.54541 10.2682 5.62889 
70 1 10.2682 8.54597 5.62887 
80 1 10.2681 10.2681 7.35161 
83 1 13.2027 13.202 2.6942 
92 1 10.9571 10.9571 4.93994 
2 1 14.0807 14.0823 14.0815 
9 1 10.0787 10.0789 10.0785 
18 1 12.5053 12.505 12.5051 
25 1 11.6549 11.6548 11.6549 
34 1 15.6152 13.8915 13.8916 
42 1 13.8916 15.6151 13.8917 
50 1 13.8916 13.8916 15.6141 
57 1 8.54481 10.2685 10.2686 
65 1 10.2685 8.54477 10.2685 
73 1 10.2686 10.2685 8.54473 
82 1 13.2025 13.203 13.2027 
89 1 10.9573 10.9573 10.9572 
ITEM: TIMESTEP
30
ITEM: NUMBER OF ATOMS
97
ITEM: BOX BOUNDS pp pp pp
-2.0459294905996800e-03 1.6527045929490598e+01
-2.9521231579777811e-03 1.6528952123157978e+01
-1.1100549887462104e-03 1.6527110054988746e+01
ITEM: ATOMS id type x y z 
1 1 1.90522 1.77513 1.79329 
10 1 5.81745 5.81703 5.81749 
17 1 3.38658 3.39074 3.39133 
26 1 4.23851 4.2385 4.23924 
33 1 0.232515 2.05821 2.05937 
41 1 2.0141 0.274641 2.00059 
49 1 2.01369 1.99562 0.282971 
58 1 7.35166 5.62771 5.62839 
66 1 5.62803 7.35201 5.62841 
74 1 5.6281 5.62773 7.35155 
81 1 2.70161 2.68323 2.68759 
90 1 4.93675 4.93656 4.93718 
97 2 0.579695 3.11872 1.9406 
4 1 1.81402 1.81331 14.0868 
11 1 5.81738 5.81753 10.0785 
20 1 3.39018 3.3896 12.5055 
27 1 4.2411 4.24065 11.6554 
36 1 0.281138 2.00283 13.8929 
46 1 2.00366 0.278861 13.8929 
56 1 1.99754 2.00639 15.6163 
59 1 7.35221 5.62753 10.2688 
69 1 5.62781 7.35266 10.2689 
79 1 5.6278 5.62753 8.54407 
84 1 2.69323 2.69265 13.2047 
91 1 4.93874 4.93846 10.9576 
6 1 1.814 14.088 1.8146 
13 1 5.81884 10.0788 5.81811 
22 1 3.39053 12.5061 3.39115 
29 1 4.24156 11.6555 4.24215 
38 1 0.28115 13.8939 2.00422 
48 1 1.99857 15.6089 2.00754 
52 1 2.00366 13.8939 0.279917 
61 1 7.35224 10.269 5.62837 
71 1 5.62812 8.54457 5.6285 
75 1 5.62808 10.2689 7.35182 
86 1 2.69379 13.2053 2.69428 
93 1 4.93947 10.9578 4.93948 
7 1 1.81383 14.0843 14.0822 
16 1 5.81797 10.0792 10.0785 
23 1 3.39042 12.5068 12.5059 
32 1 4.24112 11.6561 11.6554 
39 1 0.281225 13.8937 13.8924 
43 1 2.0036 15.6185 13.8923 
53 1 2.00358 13.8934 15.6158 
64 1 7.35185 10.2692 10.2687 
68 1 5.62792 8.54528 10.2688 
78 1 5.62785 10.2691 8.5446 
87 1 2.69282 13.2048 13.2034 
96 1 4.93881 10.9584 10.9576 
8 1 14.1204 1.81701 1.82275 
15 1 10.0782 5.81909 5.81865 
24 1 12.502 3.39221 3.39289 
31 1 11.6522 4.24403 4.24503 
40 1 15.5456 1.95154 1.9511 
44 1 13.8933 0.271533 2.00798 
54 1 13.8931 2.00498 0.276785 
63 1 8.54443 5.62769 5.62834 
67 1 10.2689 7.35271 5.62826 
77 1 10.2688 5.62768 7.35186 
88 1 13.2045 2.69717 2.69875 
95 1 10.9548 4.94178 4.9422 
5 1 14.083 1.81369 14.0799 
14 1 10.0793 5.81743 10.0791 
21 1 12.5061 3.39011 12.5059 
30 1 11.6559 4.24045 11.6556 
37 1 15.6177 2.00313 13.8921 
47 1 13.893 0.278989 13.8922 
51 1 13.8904 2.00199 15.6144 
62 1 8.5444 5.6274 10.2689 
72 1 10.2691 7.3523 10.269 
76 1 10.2691 5.62731 8.54463 
85 1 13.2044 2.69202 13.2031 
94 1 10.9581 4.93842 10.9578 
3 1 14.0821 14.0803 1.81535 
12 1 10.0786 10.0789 5.81851 
19 1 12.5058 12.5066 3.39163 
28 1 11.6555 11.6559 4.24178 
35 1 15.6185 13.8927 2.00483 
45 1 13.8898 15.6128 2.00367 
55 1 13.8927 13.893 0.279894 
60 1 8.54511 10.2689 5.62852 
70 1 10.2688 8.54578 5.6285 
80 1 10.2687 10.2689 7.35177 
83 1 13.204 13.2037 2.69345 
92 1 10.9577 10.9581 4.93949 
2 1 14.0822 14.0844 14.0823 
9 1 10.0791 10.0795 10.0787 
18 1 12.5063 12.5065 12.5057 
25 1 11.6557 11.6561 11.6554 
34 1 15.6172 13.8935 13.8924 
42 1 13.893 15.618 13.8925 
50 1 13.893 13.8937 15.6152 
57 1 8.54458 10.2692 10.2689 
65 1 10.269 8.54472 10.2688 
73 1 10.2691 10.2693 8.54458 
82 1 13.2037 13.2048 13.2034 
89 1 10.9579 10.9583 10.9576 
ITEM: TIMESTEP
31
ITEM: NUMBER OF ATOMS
97
ITEM: BOX BOUNDS pp pp pp
-2.0459294905996800e-03 1.6527045929490598e+01
-2.9521231579777811e-03 1.6528952123157978e+01
-1.1100549887462104e-03 1.6527110054988746e+01
ITEM: ATOMS id type x y z 
1 1 1.90522 1.77513 1.79329 
10 1 5.81745 5.81703 5.81749 
17 1 3.38658 3.39074 3.39133 
26 1 4.23851 4.2385 4.23924 
33 1 0.232515 2.05821 2.05937 
41 1 2.0141 0.274641 2.00059 
49 1 2.01369 1.99562 0.282971 
58 1 7.35166 5.62771 5.62839 
66 1 5.62803 7.35201 5.62841 
74 1 5.6281 5.62773 7.35155 
81 1 2.70161 2.68323 2.68759 
90 1 4.93675 4.93656 4.93718 
97 2 0.579695 3.11872 1.9406 
4 1 1.81402 1.81331 14.0868 
11 1 5.81738 5.81753 10.0785 
20 1 3.39018 3.3896 12.5055 
27 1 4.2411 4.24065 11.6554 
36 1 0.281138 2.00283 13.8929 
46 1 2.00366 0.278861 13.8929 
56 1 1.99754 2.00639 15.6163 
59 1 7.35221 5.62753 10.2688 
69 1 5.62781 7.35266 10.2689 
79 1 5.6278 5.62753 8.54407 
84 1 2.69323 2.69265 13.2047 
91 1 4.93874 4.93846 10.9576 
6 1 1.814 14.088 1.8146 
13 1 5.81884 10.0788 5.81811 
22 1 3.39053 12.5061 3.39115 
29 1 4.24156 11.6555 4.24215 
38 1 0.28115 13.8939 2.00422 
48 1 1.99857 15.6089 2.00754 
52 1 2.00366 13.8939 0.279917 
61 1 7.35224 10.269 5.62837 
71 1 5.62812 8.54457 5.6285 
75 1 5.62808 10.2689 7.35182 
86 1 2.69379 13.2053 2.69428 
93 1 4.93947 10.9578 4.93948 
7 1 1.81383 14.0843 14.0822 
16 1 5.81797 10.0792 10.0785 
23 1 3.39042 12.5068 12.5059 
32 1 4.24112 11.6561 11.6554 
39 1 0.281225 13.8937 13.8924 
43 1 2.0036 15.6185 13.8923 
53 1 2.00358 13.8934 15.6158 
64 1 7.35185 10.2692 10.2687 
68 1 5.62792 8.54528 10.2688 
78 1 5.62785 10.2691 8.5446 
87 1 2.69282 13.2048 13.2034 
96 1 4.93881 10.9584 10.9576 
8 1 14.1204 1.81701 1.82275 
15 1 10.0782 5.81909 5.81865 
24 1 12.502 3.39221 3.39289 
31 1 11.6522 4.24403 4.24503 
40 1 15.5456 1.95154 1.9511 
44 1 13.8933 0.271533 2.00798 
54 1 13.8931 2.00498 0.276785 
63 1 8.54443 5.62769 5.62834 
67 1 10.2689 7.35271 5.62826 
77 1 10.2688 5.62768 7.35186 
88 1 13.2045 2.69717 2.69875 
95 1 10.9548 4.94178 4.9422 
5 1 14.083 1.81369 14.0799 
14 1 10.0793 5.81743 10.0791 
21 1 12.5061 3.39011 12.5059 
30 1 11.6559 4.24045 11.6556 
37 1 15.6177 2.00313 13.8921 
47 1 13.893 0.278989 13.8922 
51 1 13.8904 2.00199 15.6144 
62 1 8.5444 5.6274 10.2689 
72 1 10.2691 7.3523 10.269 
76 1 10.2691 5.62731 8.54463 
85 1 13.2044 2.69202 13.2031 
94 1 10.9581 4.93842 10.9578 
3 1 14.0821 14.0803 1.81535 
12 1 10.0786 10.0789 5.81851 
19 1 12.5058 12.5066 3.39163 
28 1 11.6555 11.6559 4.24178 
35 1 15.6185 13.8927 2.00483 
45 1 13.8898 15.6128 2.00367 
55 1 13.8927 13.893 0.279894 
60 1 8.54511 10.2689 5.62852 
70 1 10.2688 8.54578 5.6285 
80 1 10.2687 10.2689 7.35177 
83 1 13.204 13.2037 2.69345 
92 1 10.9577 10.9581 4.93949 
2 1 14.0822 14.0844 14.0823 
9 1 10.0791 10.0795 10.0787 
18 1 12.5063 12.5065 12.5057 
25 1 11.6557 11.6561 11.6554 
34 1 15.6172 13.8935 13.8924 
42 1 13.893 15.618 13.8925 
50 1 13.893 13.8937 15.6152 
57 1 8.54458 10.2692 10.2689 
65 1 10.269 8.54472 10.2688 
73 1 10.2691 10.2693 8.54458 
82 1 13.2037 13.2048 13.2034 
89 1 10.9579 10.9583 10.9576 
ITEM: TIMESTEP
32
ITEM: NUMBER OF ATOMS
97
ITEM: BOX BOUNDS pp pp pp
-2.0459294905996800e-03 1.6527045929490598e+01
-2.9521231579777811e-03 1.6528952123157978e+01
-1.1100549887462104e-03 1.6527110054988746e+01
ITEM: ATOMS id type x y z 
1 1 1.90522 1.77513 1.79329 
10 1 5.81745 5.81703 5.81749 
17 1 3.38658 3.39074 3.39133 
26 1 4.23851 4.2385 4.23924 
33 1 0.232515 2.05821 2.05937 
41 1 2.0141 0.274641 2.00059 
49 1 2.01369 1.99562 0.282971 
58 1 7.35166 5.62771 5.62839 
66 1 5.62803 7.35201 5.62841 
74 1 5.6281 5.62773 7.35155 
81 1 2.70161 2.68323 2.68759 
90 1 4.93675 4.93656 4.93718 
97 2 0.579695 3.11872 1.9406 
4 1 1.81402 1.81331 14.0868 
11 1 5.81738 5.81753 10.0785 
20 1 3.39018 3.3896 12.5055 
27 1 4.2411 4.24065 11.6554 
36 1 0.281138 2.00283 13.8929 
46 1 2.00366 0.278861 13.8929 
56 1 1.99754 2.00639 15.6163 
59 1 7.35221 5.62753 10.2688 
69 1 5.62781 7.35266 10.2689 
79 1 5.6278 5.62753 8.54407 
84 1 2.69323 2.69265 13.2047 
91 1 4.93874 4.93846 10.9576 
6 1 1.814 14.088 1.8146 
13 1 5.81884 10.0788 5.81811 
22 1 3.39053 12.5061 3.39115 
29 1 4.24156 11.6555 4.24215 
38 1 0.28115 13.8939 2.00422 
48 1 1.99857 15.6089 2.00754 
52 1 2.00366 13.8939 0.279917 
61 1 7.35224 10.269 5.62837 
71 1 5.62812 8.54457 5.6285 
75 1 5.62808 10.2689 7.35182 
86 1 2.69379 13.2053 2.69428 
93 1 4.93947 10.9578 4.93948 
7 1 1.81383 14.0843 14.0822 
16 1 5.81797 10.0792 10.0785 
23 1 3.39042 12.5068 12.5059 
32 1 4.24112 11.6561 11.6554 
39 1 0.281225 13.8937 13.8924 
43 1 2.0036 15.6185 13.8923 
53 1 2.00358 13.8934 15.6158 
64 1 7.35185 10.2692 10.2687 
68 1 5.62792 8.54528 10.2688 
78 1 5.62785 10.2691 8.5446 
87 1 2.69282 13.2048 13.2034 
96 1 4.93881 10.9584 10.9576 
8 1 14.1204 1.81701 1.82275 
15 1 10.0782 5.81909 5.81865 
24 1 12.502 3.39221 3.39289 
31 1 11.6522 4.24403 4.24503 
40 1 15.5456 1.95154 1.9511 
44 1 13.8933 0.271533 2.00798 
54 1 13.8931 2.00498 0.276785 
63 1 8.54443 5.62769 5.62834 
67 1 10.2689 7.35271 5.62826 
77 1 10.2688 5.62768 7.35186 
88 1 13.2045 2.69717 2.69875 
95 1 10.9548 4.94178 4.9422 
5 1 14.083 1.81369 14.0799 
14 1 10.0793 5.81743 10.0791 
21 1 12.5061 3.39011 12.5059 
30 1 11.6559 4.24045 11.6556 
37 1 15.6177 2.00313 13.8921 
47 1 13.893 0.278989 13.8922 
51 1 13.8904 2.00199 15.6144 
62 1 8.5444 5.6274 10.2689 
72 1 10.2691 7.3523 10.269 
76 1 10.2691 5.62731 8.54463 
85 1 13.2044 2.69202 13.2031 
94 1 10.9581 4.93842 10.9578 
3 1 14.0821 14.0803 1.81535 
12 1 10.0786 10.0789 5.81851 
19 1 12.5058 12.5066 3.39163 
28 1 11.6555 11.6559 4.24178 
35 1 15.6185 13.8927 2.00483 
45 1 13.8898 15.6128 2.00367 
55 1 13.8927 13.893 0.279894 
60 1 8.54511 10.2689 5.62852 
70 1 10.2688 8.54578 5.6285 
80 1 10.2687 10.2689 7.35177 
83 1 13.204 13.2037 2.69345 
92 1 10.9577 10.9581 4.93949 
2 1 14.0822 14.0844 14.0823 
9 1 10.0791 10.0795 10.0787 
18 1 12.5063 12.5065 12.5057 
25 1 11.6557 11.6561 11.6554 
34 1 15.6172 13.8935 13.8924 
42 1 13.893 15.618 13.8925 
50 1 13.893 13.8937 15.6152 
57 1 8.54458 10.2692 10.2689 
65 1 10.269 8.54472 10.2688 
73 1 10.2691 10.2693 8.54458 
82 1 13.2037 13.2048 13.2034 
89 1 10.9579 10.9583 10.9576 
ITEM: TIMESTEP
33
ITEM: NUMBER OF ATOMS
97
ITEM: BOX BOUNDS pp pp pp
-2.0459294905996800e-03 1.6527045929490598e+01
-2.9521231579777811e-03 1.6528952123157978e+01
-1.1100549887462104e-03 1.6527110054988746e+01
ITEM: ATOMS id type x y z 
1 1 1.90522 1.77513 1.79329 
10 1 5.81745 5.81703 5.81749 
17 1 3.38658 3.39074 3.39133 
26 1 4.23851 4.2385 4.23924 
33 1 0.232515 2.05821 2.05937 
41 1 2.0141 0.274641 2.00059 
49 1 2.01369 1.99562 0.282971 
58 1 7.35166 5.62771 5.62839 
66 1 5.62803 7.35201 5.62841 
74 1 5.6281 5.62773 7.35155 
81 1 2.70161 2.68323 2.68759 
90 1 4.93675 4.93656 4.93718 
97 2 0.579695 3.11872 1.9406 
4 1 1.81402 1.81331 14.0868 
11 1 5.81738 5.81753 10.0785 
20 1 3.39018 3.3896 12.5055 
27 1 4.2411 4.24065 11.6554 
36 1 0.281138 2.00283 13.8929 
46 1 2.00366 0.278861 13.8929 
56 1 1.99754 2.00639 15.6163 
59 1 7.35221 5.62753 10.2688 
69 1 5.62781 7.35266 10.2689 
79 1 5.6278 5.62753 8.54407 
84 1 2.69323 2.69265 13.2047 
91 1 4.93874 4.93846 10.9576 
6 1 1.814 14.088 1.8146 
13 1 5.81884 10.0788 5.81811 
22 1 3.39053 12.5061 3.39115 
29 1 4.24156 11.6555 4.24215 
38 1 0.28115 13.8939 2.00422 
48 1 1.99857 15.6089 2.00754 
52 1 2.00366 13.8939 0.279917 
61 1 7.35224 10.269 5.62837 
71 1 5.62812 8.54457 5.6285 
75 1 5.62808 10.2689 7.35182 
86 1 2.69379 13.2053 2.69428 
93 1 4.93947 10.9578 4.93948 
7 1 1.81383 14.0843 14.0822 
16 1 5.81797 10.0792 10.0785 
23 1 3.39042 12.5068 12.5059 
32 1 4.24112 11.6561 11.6554 
39 1 0.281225 13.8937 13.8924 
43 1 2.0036 15.6185 13.8923 
53 1 2.00358 13.8934 15.6158 
64 1 7.35185 10.2692 10.2687 
68 1 5.62792 8.54528 10.2688 
78 1 5.62785 10.2691 8.5446 
87 1 2.69282 13.2048 13.2034 
96 1 4.93881 10.9584 10.9576 
8 1 14.1204 1.81701 1.82275 
15 1 10.0782 5.81909 5.81865 
24 1 12.502 3.39221 3.39289 
31 1 11.6522 4.24403 4.24503 
40 1 15.5456 1.95154 1.9511 
44 1 13.8933 0.271533 2.00798 
54 1 13.8931 2.00498 0.276785 
63 1 8.54443 5.62769 5.62834 
67 1 10.2689 7.35271 5.62826 
77 1 10.2688 5.62768 7.35186 
88 1 13.2045 2.69717 2.69875 
95 1 10.9548 4.94178 4.9422 
5 1 14.083 1.81369 14.0799 
14 1 10.0793 5.81743 10.0791 
21 1 12.5061 3.39011 12.5059 
30 1 11.6559 4.24045 11.6556 
37 1 15.6177 2.00313 13.8921 
47 1 13.893 0.278989 13.8922 
51 1 13.8904 2.00199 15.6144 
62 1 8.5444 5.6274 10.2689 
72 1 10.2691 7.3523 10.269 
76 1 10.2691 5.62731 8.54463 
85 1 13.2044 2.69202 13.2031 
94 1 10.9581 4.93842 10.9578 
3 1 14.0821 14.0803 1.81535 
12 1 10.0786 10.0789 5.81851 
19 1 12.5058 12.5066 3.39163 
28 1 11.6555 11.6559 4.24178 
35 1 15.6185 13.8927 2.00483 
45 1 13.8898 15.6128 2.00367 
55 1 13.8927 13.893 0.279894 
60 1 8.54511 10.2689 5.62852 
70 1 10.2688 8.54578 5.6285 
80 1 10.2687 10.2689 7.35177 
83 1 13.204 13.2037 2.69345 
92 1 10.9577 10.9581 4.93949 
2 1 14.0822 14.0844 14.0823 
9 1 10.0791 10.0795 10.0787 
18 1 12.5063 12.5065 12.5057 
25 1 11.6557 11.6561 11.6554 
34 1 15.6172 13.8935 13.8924 
42 1 13.893 15.618 13.8925 
50 1 13.893 13.8937 15.6152 
57 1 8.54458 10.2692 10.2689 
65 1 10.269 8.54472 10.2688 
73 1 10.2691 10.2693 8.54458 
82 1 13.2037 13.2048 13.2034 
89 1 10.9579 10.9583 10.9576 
ITEM: TIMESTEP
34
ITEM: NUMBER OF ATOMS
97
ITEM: BOX BOUNDS pp pp pp
-2.0459294905996800e-03 1.6527045929490598e+01
-2.9521231579777811e-03 1.6528952123157978e+01
-1.1100549887462104e-03 1.6527110054988746e+01
ITEM: ATOMS id type x y z 
1 1 1.90522 1.77513 1.79329 
10 1 5.81745 5.81703 5.81749 
17 1 3.38658 3.39074 3.39133 
26 1 4.23851 4.2385 4.23924 
33 1 0.232515 2.05821 2.05937 
41 1 2.0141 0.274641 2.00059 
49 1 2.01369 1.99562 0.282971 
58 1 7.35166 5.62771 5.62839 
66 1 5.62803 7.35201 5.62841 
74 1 5.6281 5.62773 7.35155 
81 1 2.70161 2.68323 2.68759 
90 1 4.93675 4.93656 4.93718 
97 2 0.579695 3.11872 1.9406 
4 1 1.81402 1.81331 14.0868 
11 1 5.81738 5.81753 10.0785 
20 1 3.39018 3.3896 12.5055 
27 1 4.2411 4.24065 11.6554 
36 1 0.281138 2.00283 13.8929 
46 1 2.00366 0.278861 13.8929 
56 1 1.99754 2.00639 15.6163 
59 1 7.35221 5.62753 10.2688 
69 1 5.62781 7.35266 10.2689 
79 1 5.6278 5.62753 8.54407 
84 1 2.69323 2.69265 13.2047 
91 1 4.93874 4.93846 10.9576 
6 1 1.814 14.088 1.8146 
13 1 5.81884 10.0788 5.81811 
22 1 3.39053 12.5061 3.39115 
29 1 4.24156 11.6555 4.24215 
38 1 0.28115 13.8939 2.00422 
48 1 1.99857 15.6089 2.00754 
52 1 2.00366 13.8939 0.279917 
61 1 7.35224 10.269 5.62837 
71 1 5.62812 8.54457 5.6285 
75 1 5.62808 10.2689 7.35182 
86 1 2.69379 13.2053 2.69428 
93 1 4.93947 10.9578 4.93948 
7 1 1.81383 14.0843 14.0822 
16 1 5.81797 10.0792 10.0785 
23 1 3.39042 12.5068 12.5059 
32 1 4.24112 11.6561 11.6554 
39 1 0.281225 13.8937 13.8924 
43 1 2.0036 15.6185 13.8923 
53 1 2.00358 13.8934 15.6158 
64 1 7.35185 10.2692 10.2687 
68 1 5.62792 8.54528 10.2688 
78 1 5.62785 10.2691 8.5446 
87 1 2.69282 13.2048 13.2034 
96 1 4.93881 10.9584 10.9576 
8 1 14.1204 1.81701 1.82275 
15 1 10.0782 5.81909 5.81865 
24 1 12.502 3.39221 3.39289 
31 1 11.6522 4.24403 4.24503 
40 1 15.5456 1.95154 1.9511 
44 1 13.8933 0.271533 2.00798 
54 1 13.8931 2.00498 0.276785 
63 1 8.54443 5.62769 5.62834 
67 1 10.2689 7.35271 5.62826 
77 1 10.2688 5.62768 7.35186 
88 1 13.2045 2.69717 2.69875 
95 1 10.9548 4.94178 4.9422 
5 1 14.083 1.81369 14.0799 
14 1 10.0793 5.81743 10.0791 
21 1 12.5061 3.39011 12.5059 
30 1 11.6559 4.24045 11.6556 
37 1 15.6177 2.00313 13.8921 
47 1 13.893 0.278989 13.8922 
51 1 13.8904 2.00199 15.6144 
62 1 8.5444 5.6274 10.2689 
72 1 10.2691 7.3523 10.269 
76 1 10.2691 5.62731 8.54463 
85 1 13.2044 2.69202 13.2031 
94 1 10.9581 4.93842 10.9578 
3 1 14.0821 14.0803 1.81535 