ITEM: TIMESTEP
0
ITEM: NUMBER OF ATOMS
33
ITEM: BOX BOUNDS pp pp pp
0.0000000000000000e+00 7.0970000000000004e+00
0.0000000000000000e+00 7.0970000000000004e+00
0.0000000000000000e+00 2.4588000000000001e+01
ITEM: ATOMS id type x y z 
2 1 3.339 1.632 13.319 
5 1 4.651 1.581 18.133 
7 1 3.391 1.602 15.981 
8 1 2.166 1.581 18.134 
18 1 3.408 1.581 17.416 
21 1 3.338 2.875 12.602 
23 1 3.367 1.619 14.753 
24 1 3.338 0.39 12.601 
17 1 7.023 2.875 24.28 
19 1 6.997 1.619 22.129 
20 1 7.023 0.39 24.281 
22 1 6.957 1.581 19.466 
25 1 5.714 1.581 18.748 
27 1 6.974 1.602 20.9 
28 1 1.102 1.581 18.748 
30 1 7.024 1.631 23.563 
10 1 6.954 5.232 5.122 
13 1 7.023 3.938 0.307 
15 1 6.994 5.194 2.459 
16 1 7.023 6.423 0.307 
26 1 7.022 5.181 1.025 
29 1 5.711 5.232 5.839 
31 1 6.97 5.211 3.688 
32 1 1.098 5.232 5.84 
1 1 4.647 5.232 6.454 
3 1 3.388 5.211 8.606 
4 1 2.163 5.232 6.454 
6 1 3.338 5.182 11.269 
9 1 3.338 3.939 11.986 
11 1 3.365 5.194 9.834 
12 1 3.338 6.423 11.987 
14 1 3.404 5.232 7.171 
33 2 3.365 6.544 9.834 
ITEM: TIMESTEP
10
ITEM: NUMBER OF ATOMS
33
ITEM: BOX BOUNDS pp pp pp
0.0000000000000000e+00 7.0970000000000004e+00
0.0000000000000000e+00 7.0970000000000004e+00
0.0000000000000000e+00 2.4588000000000001e+01
ITEM: ATOMS id type x y z 
2 1 3.33864 1.62821 13.3091 
5 1 4.65443 1.58105 18.1343 
7 1 3.391 1.60149 15.9728 
8 1 2.16326 1.58109 18.1366 
18 1 3.40791 1.58113 17.4186 
21 1 3.33819 2.8735 12.6018 
23 1 3.36721 1.61838 14.7581 
24 1 3.33792 0.384103 12.598 
17 1 7.02325 2.87858 24.2813 
19 1 6.99685 1.61927 22.1261 
20 1 7.02348 0.386862 24.284 
22 1 6.95701 1.58109 19.4652 
25 1 5.71055 1.58112 18.7467 
27 1 6.97376 1.60168 20.9028 
28 1 1.10497 1.58087 18.7452 
30 1 7.02382 1.63163 23.5634 
10 1 6.95335 5.23404 5.11308 
13 1 7.02278 3.93399 0.305552 
15 1 6.99397 5.19325 2.45775 
16 1 7.02274 6.42608 0.303889 
26 1 7.02218 5.1809 1.02364 
29 1 5.71746 5.23226 5.83471 
31 1 6.96981 5.21198 3.68308 
32 1 1.09041 5.23151 5.83771 
1 1 4.66042 5.22934 6.44353 
3 1 3.3929 5.27962 8.60056 
4 1 2.15036 5.22812 6.44074 
6 1 3.33596 5.16405 11.3719 
9 1 3.33745 3.93483 11.9921 
11 1 3.36154 5.15246 9.9137 
12 1 3.33825 6.39137 12.0298 
14 1 3.40354 5.22153 7.14911 
33 2 3.36762 6.59761 9.69115 
ITEM: TIMESTEP
20
ITEM: NUMBER OF ATOMS
33
ITEM: BOX BOUNDS pp pp pp
0.0000000000000000e+00 7.0970000000000004e+00
0.0000000000000000e+00 7.0970000000000004e+00
0.0000000000000000e+00 2.4588000000000001e+01
ITEM: ATOMS id type x y z 
2 1 3.3408 1.62533 13.3369 
5 1 4.65553 1.58096 18.1345 
7 1 3.39143 1.60015 15.9842 
8 1 2.16272 1.58112 18.1388 
18 1 3.40796 1.58154 17.4286 
21 1 3.33767 2.84472 12.6112 
23 1 3.36776 1.61715 14.764 
24 1 3.33061 0.393799 12.6058 
17 1 7.02344 2.87639 24.2793 
19 1 6.99655 1.61955 22.1232 
20 1 7.02353 0.389832 24.2833 
22 1 6.95682 1.58118 19.466 
25 1 5.71222 1.58094 18.7486 
27 1 6.9732 1.60179 20.9041 
28 1 1.10331 1.5806 18.7448 
30 1 7.0239 1.63196 23.5613 
10 1 6.95038 5.24183 5.10884 
13 1 7.02301 3.93202 0.304609 
15 1 6.99372 5.1916 2.45516 
16 1 7.0231 6.42708 0.301638 
26 1 7.02243 5.18049 1.01604 
29 1 5.71447 5.23439 5.83239 
31 1 6.96929 5.21425 3.67319 
32 1 1.09491 5.22947 5.83699 
1 1 4.65732 5.21484 6.44456 
3 1 3.39252 5.47419 8.62241 
4 1 2.1568 5.21468 6.44503 
6 1 3.33214 5.16976 11.3645 
9 1 3.33801 3.91725 12.014 
11 1 3.36173 5.08739 9.9595 
12 1 3.34223 6.37995 12.097 
14 1 3.40167 5.19132 7.13921 
33 2 3.37183 6.56544 9.50629 
ITEM: TIMESTEP
30
ITEM: NUMBER OF ATOMS
33
ITEM: BOX BOUNDS pp pp pp
0.0000000000000000e+00 7.0970000000000004e+00
0.0000000000000000e+00 7.0970000000000004e+00
0.0000000000000000e+00 2.4588000000000001e+01
ITEM: ATOMS id type x y z 
2 1 3.33869 1.62189 13.3457 
5 1 4.65857 1.58104 18.137 
7 1 3.3931 1.6006 15.9983 
8 1 2.16279 1.5817 18.146 
18 1 3.4078 1.58079 17.4331 
21 1 3.3373 2.8459 12.6141 
23 1 3.36796 1.61709 14.7779 
24 1 3.33612 0.381087 12.6171 
17 1 7.02411 2.87722 24.2789 
19 1 6.99656 1.61969 22.1249 
20 1 7.02297 0.391094 24.2864 
22 1 6.95696 1.58131 19.4688 
25 1 5.71399 1.58084 18.7509 
27 1 6.97257 1.60219 20.9049 
28 1 1.09838 1.57938 18.7437 
30 1 7.02398 1.63188 23.5612 
10 1 6.95254 5.24927 5.1158 
13 1 7.02274 3.93251 0.304439 
15 1 6.99347 5.19078 2.45607 
16 1 7.02429 6.42399 0.296611 
26 1 7.02228 5.18051 1.01724 
29 1 5.71309 5.22896 5.8377 
31 1 6.96887 5.2168 3.67481 
32 1 1.09649 5.22657 5.83801 
1 1 4.65106 5.20666 6.44099 
3 1 3.39236 5.50646 8.60637 
4 1 2.15916 5.20404 6.44102 
6 1 3.33549 5.15783 11.3447 
9 1 3.33664 3.91457 12.0178 
11 1 3.36187 5.09742 9.93237 
12 1 3.33449 6.37042 12.1043 
14 1 3.40365 5.17419 7.13102 
33 2 3.37264 6.59833 9.48778 
ITEM: TIMESTEP
40
ITEM: NUMBER OF ATOMS
33
ITEM: BOX BOUNDS pp pp pp
0.0000000000000000e+00 7.0970000000000004e+00
0.0000000000000000e+00 7.0970000000000004e+00
0.0000000000000000e+00 2.4588000000000001e+01
ITEM: ATOMS id type x y z 
2 1 3.33645 1.60173 13.3557 
5 1 4.66267 1.58249 18.1409 
7 1 3.39493 1.60215 16.0108 
8 1 2.16386 1.57154 18.1594 
18 1 3.41037 1.58303 17.4441 
21 1 3.33675 2.83466 12.6305 
23 1 3.36826 1.61594 14.7907 
24 1 3.33414 0.337909 12.6596 
17 1 7.0222 2.88388 24.2731 
19 1 6.99667 1.62166 22.134 
20 1 7.02479 0.387974 24.2893 
22 1 6.95563 1.57997 19.478 
25 1 5.71486 1.58103 18.7613 
27 1 6.97095 1.60211 20.9145 
28 1 1.09241 1.58333 18.7434 
30 1 7.02644 1.63146 23.5705 
10 1 6.95301 5.26648 5.12174 
13 1 7.02193 3.93255 0.309917 
15 1 6.99359 5.19014 2.45882 
16 1 7.02343 6.41881 0.296058 
26 1 7.02419 5.17906 1.02049 
29 1 5.71233 5.21595 5.83638 
31 1 6.96768 5.22573 3.67877 
32 1 1.09604 5.21875 5.83859 
1 1 4.64352 5.17497 6.43009 
3 1 3.39198 5.58586 8.57 
4 1 2.16745 5.17689 6.425 
6 1 3.33459 5.1364 11.3135 
9 1 3.3361 3.89826 12.03 
11 1 3.36341 5.16402 9.89478 
12 1 3.33278 6.35165 12.1043 
14 1 3.40473 5.13137 7.11922 
33 2 3.37488 6.68523 9.43269 
ITEM: TIMESTEP
50
ITEM: NUMBER OF ATOMS
33
ITEM: BOX BOUNDS pp pp pp
0.0000000000000000e+00 7.0970000000000004e+00
0.0000000000000000e+00 7.0970000000000004e+00
0.0000000000000000e+00 2.4588000000000001e+01
ITEM: ATOMS id type x y z 
2 1 3.33617 1.58905 13.3559 
5 1 4.65991 1.58098 18.1477 
7 1 3.39275 1.59977 16.0102 
8 1 2.16401 1.57988 18.1588 
18 1 3.40924 1.5819 17.4443 
21 1 3.33677 2.82559 12.6318 
23 1 3.36782 1.61411 14.7895 
24 1 3.33388 0.321953 12.6739 
17 1 7.0251 2.88044 24.2809 
19 1 6.99617 1.62126 22.1365 
20 1 7.02513 0.385602 24.2885 
22 1 6.95685 1.57932 19.48 
25 1 5.71466 1.58031 18.7622 
27 1 6.97187 1.60178 20.9161 
28 1 1.09681 1.57984 18.7518 
30 1 7.02518 1.63121 23.5726 
10 1 6.95352 5.26839 5.12293 
13 1 7.02375 3.93582 0.306543 
15 1 6.99257 5.19342 2.46178 
16 1 7.02397 6.41991 0.301016 
26 1 7.02244 5.17906 1.02379 
29 1 5.71074 5.21355 5.8349 
31 1 6.96848 5.22856 3.6814 
32 1 1.09913 5.21258 5.83426 
1 1 4.63794 5.16247 6.42038 
3 1 3.3926 5.61314 8.55487 
4 1 2.17069 5.16131 6.42268 
6 1 3.33563 5.13106 11.3133 
9 1 3.33318 3.88441 12.0234 
11 1 3.36323 5.22134 9.89135 
12 1 3.33228 6.34373 12.0998 
14 1 3.40467 5.11143 7.12394 
33 2 3.37583 6.71981 9.41911 
ITEM: TIMESTEP
60
ITEM: NUMBER OF ATOMS
33
ITEM: BOX BOUNDS pp pp pp
0.0000000000000000e+00 7.0970000000000004e+00
0.0000000000000000e+00 7.0970000000000004e+00
0.0000000000000000e+00 2.4588000000000001e+01
ITEM: ATOMS id type x y z 
2 1 3.33518 1.5847 13.3584 
5 1 4.65886 1.58102 18.1519 
7 1 3.39178 1.59859 16.0108 
8 1 2.16295 1.58156 18.1588 
18 1 3.40952 1.58297 17.4444 
21 1 3.33584 2.81977 12.6275 
23 1 3.36607 1.61096 14.7899 
24 1 3.33375 0.312418 12.6824 
17 1 7.0243 2.87991 24.2835 
19 1 6.99676 1.62093 22.1389 
20 1 7.02544 0.385352 24.2896 
22 1 6.95714 1.57867 19.4832 
25 1 5.71488 1.58005 18.7642 
27 1 6.97163 1.60157 20.9186 
28 1 1.09973 1.57901 18.7581 
30 1 7.02663 1.63104 23.5738 
10 1 6.95297 5.26892 5.12478 
13 1 7.02356 3.93546 0.308556 
15 1 6.99354 5.19628 2.46472 
16 1 7.02385 6.4204 0.303362 
26 1 7.02298 5.17918 1.02641 
29 1 5.70602 5.20597 5.8314 
31 1 6.96765 5.23012 3.68379 
32 1 1.10163 5.20724 5.8346 
1 1 4.63603 5.15144 6.42131 
3 1 3.39334 5.6398 8.54627 
4 1 2.1745 5.15312 6.41903 
6 1 3.33307 5.1274 11.3038 
9 1 3.33634 3.87164 12.0088 
11 1 3.36324 5.25324 9.88668 
12 1 3.33189 6.33567 12.1057 
14 1 3.40503 5.09818 7.13042 
33 2 3.37687 6.75043 9.4024 
ITEM: TIMESTEP
61
ITEM: NUMBER OF ATOMS
33
ITEM: BOX BOUNDS pp pp pp
0.0000000000000000e+00 7.0970000000000004e+00
0.0000000000000000e+00 7.0970000000000004e+00
0.0000000000000000e+00 2.4588000000000001e+01
ITEM: ATOMS id type x y z 
2 1 3.33518 1.5847 13.3584 
5 1 4.65886 1.58102 18.1519 
7 1 3.39178 1.59859 16.0108 
8 1 2.16295 1.58156 18.1588 
18 1 3.40952 1.58297 17.4444 
21 1 3.33584 2.81977 12.6275 
23 1 3.36607 1.61096 14.7899 
24 1 3.33375 0.312418 12.6824 
17 1 7.0243 2.87991 24.2835 
19 1 6.99676 1.62093 22.1389 
20 1 7.02544 0.385352 24.2896 
22 1 6.95714 1.57867 19.4832 
25 1 5.71488 1.58005 18.7642 
27 1 6.97163 1.60157 20.9186 
28 1 1.09973 1.57901 18.7581 
30 1 7.02663 1.63104 23.5738 
10 1 6.95297 5.26892 5.12478 
13 1 7.02356 3.93546 0.308556 
15 1 6.99354 5.19628 2.46472 
16 1 7.02385 6.4204 0.303362 
26 1 7.02298 5.17918 1.02641 
29 1 5.70602 5.20597 5.8314 
31 1 6.96765 5.23012 3.68379 
32 1 1.10163 5.20724 5.8346 
1 1 4.63603 5.15144 6.42131 
3 1 3.39334 5.6398 8.54627 
4 1 2.1745 5.15312 6.41903 
6 1 3.33307 5.1274 11.3038 
9 1 3.33634 3.87164 12.0088 
11 1 3.36324 5.25324 9.88668 
12 1 3.33189 6.33567 12.1057 
14 1 3.40503 5.09818 7.13042 
33 2 3.37687 6.75043 9.4024 
ITEM: TIMESTEP
62
ITEM: NUMBER OF ATOMS
33
ITEM: BOX BOUNDS pp pp pp
0.0000000000000000e+00 7.0970000000000004e+00
0.0000000000000000e+00 7.0970000000000004e+00
0.0000000000000000e+00 2.4588000000000001e+01
ITEM: ATOMS id type x y z 
2 1 3.33518 1.5847 13.3584 
5 1 4.65886 1.58102 18.1519 
7 1 3.39178 1.59859 16.0108 
8 1 2.16295 1.58156 18.1588 
18 1 3.40952 1.58297 17.4444 
21 1 3.33584 2.81977 12.6275 
23 1 3.36607 1.61096 14.7899 
24 1 3.33375 0.312418 12.6824 
17 1 7.0243 2.87991 24.2835 
19 1 6.99676 1.62093 22.1389 
20 1 7.02544 0.385352 24.2896 
22 1 6.95714 1.57867 19.4832 
25 1 5.71488 1.58005 18.7642 
27 1 6.97163 1.60157 20.9186 
28 1 1.09973 1.57901 18.7581 
30 1 7.02663 1.63104 23.5738 
10 1 6.95297 5.26892 5.12478 
13 1 7.02356 3.93546 0.308556 
15 1 6.99354 5.19628 2.46472 
16 1 7.02385 6.4204 0.303362 
26 1 7.02298 5.17918 1.02641 
29 1 5.70602 5.20597 5.8314 
31 1 6.96765 5.23012 3.68379 
32 1 1.10163 5.20724 5.8346 
1 1 4.63603 5.15144 6.42131 
3 1 3.39334 5.6398 8.54627 
4 1 2.1745 5.15312 6.41903 
6 1 3.33307 5.1274 11.3038 
9 1 3.33634 3.87164 12.0088 
11 1 3.36324 5.25324 9.88668 
12 1 3.33189 6.33567 12.1057 
14 1 3.40503 5.09818 7.13042 
33 2 3.37687 6.75043 9.4024 
ITEM: TIMESTEP
70
ITEM: NUMBER OF ATOMS
33
ITEM: BOX BOUNDS pp pp pp
-1.4004506386172105e-03 7.0984004506386178e+00
-1.2969017402950280e-03 7.0982969017402961e+00
-9.8352000000000023e-03 2.4597835199999999e+01
ITEM: ATOMS id type x y z 
2 1 3.3351 1.58398 13.3592 
5 1 4.65931 1.58031 18.1566 
7 1 3.39171 1.59788 16.0137 
8 1 2.1624 1.58083 18.1635 
18 1 3.40947 1.58225 17.4486 
21 1 3.33576 2.81951 12.6278 
23 1 3.366 1.61025 14.7919 
24 1 3.33366 0.311189 12.6827 
17 1 7.02568 2.87968 24.2931 
19 1 6.99813 1.62022 22.1468 
20 1 7.02681 0.384191 24.2992 
22 1 6.95848 1.57795 19.4889 
25 1 5.71573 1.57932 18.7693 
27 1 6.97298 1.60086 20.9255 
28 1 1.09877 1.5783 18.7632 
30 1 7.028 1.63034 23.5828 
10 1 6.95432 5.26954 5.11905 
13 1 7.02493 3.9356 0.298966 
15 1 6.9949 5.19688 2.45686 
16 1 7.02523 6.42145 0.293767 
26 1 7.02435 5.17977 1.0174 
29 1 5.70687 5.20657 5.82623 
31 1 6.969 5.23073 3.6769 
32 1 1.10067 5.20785 5.82943 
1 1 4.63646 5.15203 6.41661 
3 1 3.39328 5.64057 8.54328 
4 1 2.17395 5.1537 6.41433 
6 1 3.33298 5.12799 11.303 
9 1 3.33625 3.87175 12.0086 
11 1 3.36317 5.25388 9.88475 
12 1 3.33181 6.33672 12.1055 
14 1 3.40497 5.09874 7.12628 
33 2 3.37681 6.75161 9.40009 
ITEM: TIMESTEP
80
ITEM: NUMBER OF ATOMS
33
ITEM: BOX BOUNDS pp pp pp
-3.2928604902262917e-03 7.1002928604902262e+00
-2.8079565565949306e-03 7.0998079565565968e+00
-2.2129200000000012e-02 2.4610129199999996e+01
ITEM: ATOMS id type x y z 
2 1 3.33499 1.58314 13.3603 
5 1 4.65993 1.57948 18.1625 
7 1 3.39163 1.59705 16.0174 
8 1 2.16163 1.57998 18.1694 
18 1 3.40939 1.58142 17.4537 
21 1 3.33565 2.81922 12.6281 
23 1 3.36591 1.60943 14.7945 
24 1 3.33354 0.309665 12.683 
17 1 7.02754 2.87942 24.3051 
19 1 6.99996 1.6194 22.1565 
20 1 7.02866 0.382812 24.3112 
22 1 6.9603 1.57711 19.4961 
25 1 5.71685 1.57847 18.7758 
27 1 6.97481 1.60003 20.9342 
28 1 1.0975 1.57747 18.7697 
30 1 7.02985 1.62952 23.5941 
10 1 6.95613 5.27028 5.11188 
13 1 7.02678 3.93573 0.286964 
15 1 6.99673 5.19759 2.44709 
16 1 7.02709 6.42271 0.281761 
26 1 7.0262 5.18047 1.00614 
29 1 5.70799 5.20727 5.81979 
31 1 6.97083 5.23144 3.66824 
32 1 1.09939 5.20855 5.82298 
1 1 4.63707 5.15271 6.41073 
3 1 3.39319 5.64147 8.53954 
4 1 2.1732 5.15438 6.40845 
6 1 3.33287 5.12869 11.3021 
9 1 3.33613 3.87186 12.0083 
11 1 3.36307 5.25463 9.88234 
12 1 3.3317 6.33802 12.1054 
14 1 3.4049 5.09941 7.12111 
33 2 3.37671 6.75296 9.39719 
ITEM: TIMESTEP
90
ITEM: NUMBER OF ATOMS
33
ITEM: BOX BOUNDS pp pp pp
-4.7737726066949069e-03 7.1017737726066956e+00
-4.3700518835975196e-03 7.1013700518836007e+00
-3.4423200000000022e-02 2.4622423199999993e+01
ITEM: ATOMS id type x y z 
2 1 3.33492 1.58226 13.3614 
5 1 4.66057 1.57864 18.1685 
7 1 3.39155 1.59619 16.0207 
8 1 2.16089 1.57907 18.1753 
18 1 3.40933 1.58057 17.4588 
21 1 3.33556 2.8192 12.6282 
23 1 3.36584 1.60856 14.7973 
24 1 3.33342 0.30762 12.6831 
17 1 7.029 2.87929 24.3172 
19 1 7.0014 1.61854 22.166 
20 1 7.03009 0.381258 24.3233 
22 1 6.96173 1.57625 19.5033 
25 1 5.71758 1.57757 18.7822 
27 1 6.97625 1.59918 20.9432 
28 1 1.09665 1.57664 18.7761 
30 1 7.03129 1.62868 23.6054 
10 1 6.95758 5.27102 5.10469 
13 1 7.02824 3.93574 0.274893 
15 1 6.99814 5.19834 2.43783 
16 1 7.02856 6.42412 0.269689 
26 1 7.02764 5.18119 0.994911 
29 1 5.70856 5.20796 5.81349 
31 1 6.97228 5.23216 3.65913 
32 1 1.09878 5.20925 5.81673 
1 1 4.63788 5.15343 6.40466 
3 1 3.39313 5.64241 8.53585 
4 1 2.17217 5.15507 6.40234 
6 1 3.3328 5.12947 11.3011 
9 1 3.33602 3.87171 12.0082 
11 1 3.36299 5.25552 9.87991 
12 1 3.33162 6.33973 12.1055 
14 1 3.40483 5.10014 7.11592 
33 2 3.37664 6.75429 9.39425 
ITEM: TIMESTEP
100
ITEM: NUMBER OF ATOMS
33
ITEM: BOX BOUNDS pp pp pp
-5.8602583884674510e-03 7.1028602583884668e+00
-5.1754283310865004e-03 7.1021754283310896e+00
-4.0217213149297430e-02 2.4628217213149291e+01
ITEM: ATOMS id type x y z 
2 1 3.33487 1.58181 13.3619 
5 1 4.66107 1.5782 18.1713 
7 1 3.39149 1.59574 16.0221 
8 1 2.16031 1.57859 18.1782 
18 1 3.40929 1.58014 17.4612 
21 1 3.3355 2.81933 12.6282 
23 1 3.36579 1.60811 14.7989 
24 1 3.33332 0.306401 12.6831 
17 1 7.03008 2.8793 24.3229 
19 1 7.00245 1.6181 22.1703 
20 1 7.03114 0.380381 24.3291 
22 1 6.96277 1.5758 19.5068 
25 1 5.71807 1.57711 18.7851 
27 1 6.9773 1.59875 20.9476 
28 1 1.09606 1.57623 18.779 
30 1 7.03235 1.62824 23.6107 
10 1 6.95864 5.27139 5.10129 
13 1 7.02931 3.93568 0.269161 
15 1 6.99917 5.19874 2.43371 
16 1 7.02965 6.42493 0.263959 
26 1 7.02869 5.18156 0.989638 
29 1 5.70898 5.2083 5.81057 
31 1 6.97334 5.23252 3.65464 
32 1 1.09834 5.2096 5.81383 
1 1 4.63847 5.15381 6.40175 
3 1 3.39308 5.64291 8.53413 
4 1 2.17141 5.15542 6.3994 
6 1 3.33276 5.12988 11.3007 
9 1 3.33593 3.8715 12.0082 
11 1 3.36293 5.25605 9.87876 
12 1 3.33157 6.34073 12.1056 
14 1 3.40479 5.10055 7.11348 
33 2 3.37659 6.75493 9.39283 
ITEM: TIMESTEP
110
ITEM: NUMBER OF ATOMS
33
ITEM: BOX BOUNDS pp pp pp
-5.8778078216865284e-03 7.1028778078216854e+00
-5.2134590380040558e-03 7.1022134590380084e+00
-4.0332547941646320e-02 2.4628332547941636e+01
ITEM: ATOMS id type x y z 
2 1 3.33487 1.58179 13.3619 
5 1 4.66108 1.57818 18.1714 
7 1 3.39149 1.59572 16.0221 
8 1 2.16029 1.57856 18.1782 
18 1 3.40928 1.58012 17.4613 
21 1 3.3355 2.81934 12.6282 
23 1 3.36579 1.60809 14.7989 
24 1 3.33332 0.306344 12.6831 
17 1 7.0301 2.8793 24.3231 
19 1 7.00247 1.61807 22.1704 
20 1 7.03116 0.380339 24.3292 
22 1 6.96279 1.57578 19.5068 
25 1 5.71807 1.57709 18.7852 
27 1 6.97732 1.59873 20.9477 
28 1 1.09606 1.57621 18.7791 
30 1 7.03237 1.62822 23.6108 
10 1 6.95866 5.27141 5.10122 
13 1 7.02933 3.93567 0.269044 
15 1 6.99919 5.19876 2.43364 
16 1 7.02967 6.42497 0.263842 
26 1 7.0287 5.18157 0.989534 
29 1 5.70897 5.20832 5.81052 
31 1 6.97336 5.23254 3.65453 
32 1 1.09834 5.20962 5.81378 
1 1 4.63849 5.15383 6.40169 
3 1 3.39308 5.64293 8.5341 
4 1 2.17138 5.15544 6.39934 
6 1 3.33276 5.1299 11.3007 
9 1 3.33593 3.87149 12.0082 
11 1 3.36293 5.25607 9.87874 
12 1 3.33157 6.34078 12.1056 
14 1 3.40479 5.10057 7.11343 
33 2 3.37659 6.75496 9.3928 
ITEM: TIMESTEP
117
ITEM: NUMBER OF ATOMS
33
ITEM: BOX BOUNDS pp pp pp
-5.8807195978704723e-03 7.1028807195978692e+00
-5.2160035084242102e-03 7.1022160035084285e+00
-4.0346354679927567e-02 2.4628346354679920e+01
ITEM: ATOMS id type x y z 
2 1 3.33487 1.58179 13.3619 
5 1 4.66109 1.57818 18.1714 
7 1 3.39149 1.59572 16.0221 
8 1 2.16029 1.57856 18.1782 
18 1 3.40928 1.58012 17.4613 
21 1 3.3355 2.81934 12.6282 
23 1 3.36579 1.60809 14.7989 
24 1 3.33332 0.30634 12.6831 
17 1 7.0301 2.8793 24.3231 
19 1 7.00247 1.61807 22.1704 
20 1 7.03116 0.380336 24.3292 
22 1 6.96279 1.57578 19.5068 
25 1 5.71807 1.57709 18.7852 
27 1 6.97732 1.59873 20.9477 
28 1 1.09606 1.57621 18.7791 
30 1 7.03237 1.62822 23.6108 
10 1 6.95866 5.27141 5.10121 
13 1 7.02933 3.93567 0.26903 
15 1 6.99919 5.19876 2.43363 
16 1 7.02967 6.42497 0.263829 
26 1 7.02871 5.18158 0.989521 
29 1 5.70897 5.20832 5.81051 
31 1 6.97336 5.23254 3.65452 
32 1 1.09834 5.20962 5.81377 
1 1 4.63849 5.15383 6.40168 
3 1 3.39308 5.64293 8.5341 
4 1 2.17138 5.15544 6.39933 
6 1 3.33276 5.1299 11.3007 
9 1 3.33593 3.87149 12.0082 
11 1 3.36293 5.25607 9.87874 
12 1 3.33157 6.34078 12.1056 
14 1 3.40479 5.10057 7.11342 
33 2 3.37659 6.75496 9.3928 
ITEM: TIMESTEP
120
ITEM: NUMBER OF ATOMS
33
ITEM: BOX BOUNDS pp pp pp
-5.8807195978704723e-03 7.1028807195978692e+00
-5.2160035084242102e-03 7.1022160035084285e+00
-4.0346354679927567e-02 2.4628346354679920e+01
ITEM: ATOMS id type x y z 
2 1 3.33499 1.58178 13.3622 
5 1 4.66182 1.57823 18.1718 
7 1 3.39142 1.59571 16.0206 
8 1 2.15955 1.57835 18.1787 
18 1 3.40926 1.58021 17.4612 
21 1 3.3355 2.81976 12.6278 
23 1 3.36584 1.60802 14.8004 
24 1 3.33319 0.305356 12.6827 
17 1 7.03019 2.88002 24.3235 
19 1 7.00245 1.61803 22.1689 
20 1 7.03108 0.379605 24.3296 
22 1 6.96282 1.57574 19.507 
25 1 5.71729 1.57707 18.7848 
27 1 6.97736 1.59875 20.9491 
28 1 1.09685 1.57639 18.7787 
30 1 7.03229 1.62823 23.6106 
10 1 6.95869 5.27129 5.1011 
13 1 7.02937 3.935 0.268684 
15 1 6.99908 5.19888 2.43485 
16 1 7.02979 6.42564 0.263497 
26 1 7.02862 5.18159 0.989722 
29 1 5.70849 5.20815 5.8107 
31 1 6.97345 5.23247 3.6535 
32 1 1.09871 5.20953 5.81386 
1 1 4.63892 5.15383 6.40148 
3 1 3.39307 5.64306 8.53409 
4 1 2.17103 5.15525 6.39926 
6 1 3.33289 5.13014 11.3008 
9 1 3.33578 3.87086 12.0083 
11 1 3.36291 5.2569 9.87883 
12 1 3.33161 6.34137 12.1058 
14 1 3.40479 5.10104 7.11341 
33 2 3.37661 6.75446 9.39236 
ITEM: TIMESTEP
125
ITEM: NUMBER OF ATOMS
33
ITEM: BOX BOUNDS pp pp pp
-5.8807195978704723e-03 7.1028807195978692e+00
-5.2160035084242102e-03 7.1022160035084285e+00
-4.0346354679927567e-02 2.4628346354679920e+01
ITEM: ATOMS id type x y z 
2 1 3.33528 1.5818 13.3625 
5 1 4.66192 1.57836 18.172 
7 1 3.39128 1.59563 16.0206 
8 1 2.15942 1.57797 18.1788 
18 1 3.40917 1.58039 17.4608 
21 1 3.33541 2.81902 12.6277 
23 1 3.36591 1.6078 14.8006 
24 1 3.33305 0.304871 12.6832 
17 1 7.03049 2.88021 24.3238 
19 1 7.00244 1.61796 22.1686 
20 1 7.03096 0.379338 24.3298 
22 1 6.96289 1.57563 19.5073 
25 1 5.71704 1.57709 18.7848 
27 1 6.9774 1.59874 20.9493 
28 1 1.09719 1.57675 18.7788 
30 1 7.03201 1.62825 23.6104 
10 1 6.95866 5.27087 5.10095 
13 1 7.02949 3.93488 0.268784 
15 1 6.99881 5.1992 2.43473 
16 1 7.03006 6.42578 0.263618 
26 1 7.02838 5.18164 0.990438 
29 1 5.70834 5.20763 5.81054 
31 1 6.97366 5.23234 3.65375 
32 1 1.0989 5.20914 5.81356 
1 1 4.63867 5.1538 6.40168 
3 1 3.39306 5.64321 8.53353 
4 1 2.17135 5.15461 6.39985 
6 1 3.33334 5.13087 11.3009 
9 1 3.33535 3.87032 12.0077 
11 1 3.36286 5.25954 9.87947 
12 1 3.33158 6.34097 12.1052 
14 1 3.40468 5.10267 7.11336 
33 2 3.37667 6.75344 9.3909 
ITEM: TIMESTEP
130
ITEM: NUMBER OF ATOMS
33
ITEM: BOX BOUNDS pp pp pp
-6.6328982888789467e-03 7.1036328982888781e+00
-6.0251129772120821e-03 7.1030251129772166e+00
-4.6513527857267534e-02 2.4634513527857251e+01
ITEM: ATOMS id type x y z 
2 1 3.33524 1.58135 13.3631 
5 1 4.66216 1.57791 18.175 
7 1 3.39125 1.59519 16.0224 
8 1 2.15913 1.57753 18.1817 
18 1 3.40914 1.57994 17.4634 
21 1 3.33536 2.81888 12.6278 
23 1 3.36587 1.60735 14.8018 
24 1 3.333 0.30411 12.6834 
17 1 7.03122 2.88006 24.3298 
19 1 7.00317 1.61752 22.1736 
20 1 7.0317 0.378617 24.3358 
22 1 6.96362 1.57518 19.5109 
25 1 5.7175 1.57664 18.7881 
27 1 6.97812 1.5983 20.9536 
28 1 1.09667 1.5763 18.7821 
30 1 7.03275 1.62781 23.6161 
10 1 6.95938 5.27126 5.09735 
13 1 7.03022 3.93497 0.262774 
15 1 6.99954 5.19957 2.42981 
16 1 7.03079 6.42644 0.257605 
26 1 7.02911 5.18201 0.984792 
29 1 5.70878 5.20801 5.80731 
31 1 6.97439 5.23273 3.64942 
32 1 1.0984 5.20951 5.81033 
1 1 4.63892 5.15416 6.39872 
3 1 3.39302 5.64369 8.53164 
4 1 2.17104 5.15497 6.3969 
6 1 3.3333 5.13123 11.3004 
9 1 3.3353 3.87036 12.0075 
11 1 3.36282 5.25995 9.87826 
12 1 3.33153 6.34163 12.1051 
14 1 3.40465 5.10303 7.11077 
33 2 3.37663 6.75417 9.38944 
ITEM: TIMESTEP
140
ITEM: NUMBER OF ATOMS
33
ITEM: BOX BOUNDS pp pp pp
-7.2484156086254888e-03 7.1042484156086250e+00
-7.2019570507936776e-03 7.1042019570507993e+00
-5.6689363599878501e-02 2.4644689363599852e+01
ITEM: ATOMS id type x y z 
2 1 3.33521 1.58069 13.364 
5 1 4.66239 1.57726 18.1798 
7 1 3.39121 1.59454 16.0253 
8 1 2.15885 1.57689 18.1866 
18 1 3.40912 1.57929 17.4677 
21 1 3.33532 2.81896 12.6279 
23 1 3.36584 1.6067 14.8041 
24 1 3.33298 0.302762 12.6836 
17 1 7.03183 2.8799 24.3397 
19 1 7.00377 1.61688 22.1816 
20 1 7.03231 0.377515 24.3457 
22 1 6.96421 1.57453 19.5169 
25 1 5.71783 1.57599 18.7934 
27 1 6.97872 1.59765 20.9609 
28 1 1.09629 1.57563 18.7874 
30 1 7.03334 1.62718 23.6254 
10 1 6.96001 5.27179 5.09143 
13 1 7.03083 3.93505 0.252828 
15 1 7.00013 5.20014 2.42197 
16 1 7.03139 6.42744 0.24766 
26 1 7.02971 5.18255 0.97551 
29 1 5.70894 5.20853 5.80207 
31 1 6.97499 5.23327 3.64204 
32 1 1.09832 5.21001 5.80514 
1 1 4.63936 5.15471 6.39372 
3 1 3.39299 5.64435 8.52854 
4 1 2.1704 5.15552 6.39183 
6 1 3.33328 5.13175 11.2996 
9 1 3.33526 3.87016 12.0075 
11 1 3.36279 5.26064 9.87629 
12 1 3.33149 6.34277 12.105 
14 1 3.40462 5.10362 7.10649 
33 2 3.3766 6.7552 9.38699 
ITEM: TIMESTEP
147
ITEM: NUMBER OF ATOMS
33
ITEM: BOX BOUNDS pp pp pp
-7.6958762812612599e-03 7.1046958762812613e+00
-7.4676850377233444e-03 7.1044676850377284e+00
-5.9252595665130234e-02 2.4647252595665098e+01
ITEM: ATOMS id type x y z 
2 1 3.33519 1.58053 13.3642 
5 1 4.66256 1.57711 18.1811 
7 1 3.39119 1.5944 16.026 
8 1 2.15865 1.57675 18.1878 
18 1 3.4091 1.57914 17.4687 
21 1 3.33529 2.81906 12.6278 
23 1 3.36583 1.60655 14.8047 
24 1 3.33296 0.302371 12.6836 
17 1 7.03227 2.87989 24.3423 
19 1 7.0042 1.61673 22.1836 
20 1 7.03275 0.377239 24.3483 
22 1 6.96464 1.57438 19.5184 
25 1 5.71807 1.57585 18.7948 
27 1 6.97916 1.59751 20.9628 
28 1 1.09601 1.57548 18.7888 
30 1 7.03377 1.62704 23.6277 
10 1 6.96045 5.2719 5.08993 
13 1 7.03127 3.93503 0.250311 
15 1 7.00055 5.20028 2.42007 
16 1 7.03183 6.4277 0.245145 
26 1 7.03015 5.18267 0.973187 
29 1 5.70912 5.20864 5.80076 
31 1 6.97543 5.23339 3.64011 
32 1 1.09813 5.21012 5.80386 
1 1 4.6396 5.15484 6.39244 
3 1 3.39297 5.64449 8.52776 
4 1 2.17008 5.15564 6.39053 
6 1 3.33326 5.13187 11.2994 
9 1 3.33522 3.87004 12.0075 
11 1 3.36277 5.26084 9.8758 
12 1 3.33145 6.34309 12.105 
14 1 3.4046 5.10378 7.10542 
33 2 3.37658 6.75542 9.38635 
ITEM: TIMESTEP
148
ITEM: NUMBER OF ATOMS
33
ITEM: BOX BOUNDS pp pp pp
-7.6958762812612599e-03 7.1046958762812613e+00
-7.4676850377233444e-03 7.1044676850377284e+00
-5.9252595665130234e-02 2.4647252595665098e+01
ITEM: ATOMS id type x y z 
2 1 3.33519 1.58053 13.3642 
5 1 4.66256 1.57711 18.1811 
7 1 3.39119 1.5944 16.026 
8 1 2.15865 1.57675 18.1878 
18 1 3.4091 1.57914 17.4687 
21 1 3.33529 2.81906 12.6278 
23 1 3.36583 1.60655 14.8047 
24 1 3.33296 0.302371 12.6836 
17 1 7.03227 2.87989 24.3423 
19 1 7.0042 1.61673 22.1836 
20 1 7.03275 0.377239 24.3483 
22 1 6.96464 1.57438 19.5184 
25 1 5.71807 1.57585 18.7948 
27 1 6.97916 1.59751 20.9628 
28 1 1.09601 1.57548 18.7888 
30 1 7.03377 1.62704 23.6277 
10 1 6.96045 5.2719 5.08993 
13 1 7.03127 3.93503 0.250311 
15 1 7.00055 5.20028 2.42007 
16 1 7.03183 6.4277 0.245145 
26 1 7.03015 5.18267 0.973187 
29 1 5.70912 5.20864 5.80076 
31 1 6.97543 5.23339 3.64011 
32 1 1.09813 5.21012 5.80386 
1 1 4.6396 5.15484 6.39244 
3 1 3.39297 5.64449 8.52776 
4 1 2.17008 5.15564 6.39053 
6 1 3.33326 5.13187 11.2994 
9 1 3.33522 3.87004 12.0075 
11 1 3.36277 5.26084 9.8758 
12 1 3.33145 6.34309 12.105 
14 1 3.4046 5.10378 7.10542 
33 2 3.37658 6.75542 9.38635 
