LAMMPS (3 Mar 2020)
Reading data file ...
  orthogonal box = (0 0 0) to (11 11.002 11)
  2 by 2 by 2 MPI processor grid
  reading atoms ...
  51 atoms
  read_data CPU = 0.00348152 secs
WARNING: Changed valency_val to valency_boc for X (../reaxc_ffield.cpp:315)
WARNING: Using 'neigh_modify every 1 delay 0 check yes' setting during minimization (../min.cpp:190)
Neighbor list info ...
  update every 1 steps, delay 0 steps, check yes
  max neighbors/atom: 2000, page size: 100000
  master list distance cutoff = 12
  ghost atom cutoff = 12
  binsize = 6, bins = 2 2 2
  2 neighbor lists, perpetual/occasional/extra = 2 0 0
  (1) pair reax/c, perpetual
      attributes: half, newton off, ghost
      pair build: half/bin/newtoff/ghost
      stencil: half/ghost/bin/3d/newtoff
      bin: standard
  (2) fix qeq/reax, perpetual, copy from (1)
      attributes: half, newton off, ghost
      pair build: copy
      stencil: none
      bin: none
Setting up cg style minimization ...
  Unit style    : real
  Current step  : 0
Per MPI rank memory allocation (min/avg/max) = 24.98 | 25.36 | 25.89 Mbytes
Step Temp E_pair E_mol TotEng Press 
       0            0   -8729.7119            0   -8729.7119    118089.89 
     134            0   -8887.1498            0   -8887.1498    35200.173 
Loop time of 6.05091 on 8 procs for 134 steps with 51 atoms

99.1% CPU use with 8 MPI tasks x no OpenMP threads

Minimization stats:
  Stopping criterion = energy tolerance
  Energy initial, next-to-last, final = 
        -8729.71193282     -8887.14972908     -8887.14979259
  Force two-norm initial, final = 1272.79 59.3009
  Force max component initial, final = 365.619 13.5484
  Final line search alpha, max atom move = 4.38986e-07 5.94757e-06
  Iterations, force evaluations = 134 1187

MPI task timing breakdown:
Section |  min time  |  avg time  |  max time  |%varavg| %total
---------------------------------------------------------------
Pair    | 5.0108     | 5.0888     | 5.2072     |   2.5 | 84.10
Neigh   | 0          | 0          | 0          |   0.0 |  0.00
Comm    | 0.067935   | 0.18642    | 0.26419    |  13.2 |  3.08
Output  | 0.00035008 | 0.00045651 | 0.00073444 |   0.0 |  0.01
Modify  | 0.7625     | 0.76334    | 0.76368    |   0.1 | 12.62
Other   |            | 0.0119     |            |       |  0.20

Nlocal:    6.375 ave 9 max 6 min
Histogram: 7 0 0 0 0 0 0 0 0 1
Nghost:    975.625 ave 1004 max 954 min
Histogram: 1 1 2 0 0 2 0 1 0 1
Neighs:    1824.62 ave 2524 max 1716 min
Histogram: 7 0 0 0 0 0 0 0 0 1

Total # of neighbors = 14597
Ave neighs/atom = 286.216
Neighbor list builds = 0
Dangerous builds = 0
WARNING: Using 'neigh_modify every 1 delay 0 check yes' setting during minimization (../min.cpp:190)
Setting up cg style minimization ...
  Unit style    : real
  Current step  : 134
Per MPI rank memory allocation (min/avg/max) = 24.98 | 25.36 | 25.89 Mbytes
Step Temp E_pair E_mol TotEng Press 
     134            0   -8887.1498            0   -8887.1498    35200.157 
     138            0   -8887.1505            0   -8887.1505     35199.47 
Loop time of 0.383664 on 8 procs for 4 steps with 51 atoms

98.7% CPU use with 8 MPI tasks x no OpenMP threads

Minimization stats:
  Stopping criterion = energy tolerance
  Energy initial, next-to-last, final = 
        -8887.14979609     -8887.15043166     -8887.15051152
  Force two-norm initial, final = 59.3009 58.082
  Force max component initial, final = 13.5484 12.9543
  Final line search alpha, max atom move = 3.64301e-08 4.71927e-07
  Iterations, force evaluations = 4 76

MPI task timing breakdown:
Section |  min time  |  avg time  |  max time  |%varavg| %total
---------------------------------------------------------------
Pair    | 0.32547    | 0.33007    | 0.34031    |   0.8 | 86.03
Neigh   | 0          | 0          | 0          |   0.0 |  0.00
Comm    | 0.003841   | 0.014048   | 0.018617   |   3.7 |  3.66
Output  | 0          | 0          | 0          |   0.0 |  0.00
Modify  | 0.038702   | 0.038745   | 0.03879    |   0.0 | 10.10
Other   |            | 0.0007977  |            |       |  0.21

Nlocal:    6.375 ave 9 max 6 min
Histogram: 7 0 0 0 0 0 0 0 0 1
Nghost:    982.5 ave 1004 max 964 min
Histogram: 1 0 2 1 0 0 3 0 0 1
Neighs:    1828.12 ave 2533 max 1717 min
Histogram: 7 0 0 0 0 0 0 0 0 1

Total # of neighbors = 14625
Ave neighs/atom = 286.765
Neighbor list builds = 0
Dangerous builds = 0
WARNING: Using 'neigh_modify every 1 delay 0 check yes' setting during minimization (../min.cpp:190)
Setting up cg style minimization ...
  Unit style    : real
  Current step  : 138
WARNING: Energy due to 3 extra global DOFs will be included in minimizer energies
Per MPI rank memory allocation (min/avg/max) = 24.98 | 25.36 | 25.89 Mbytes
Step Temp E_pair E_mol TotEng Press Volume 
     138            0   -8887.1505            0   -8887.1505    35199.472     1331.242 
     298            0   -8891.7236            0   -8891.7236    153.63216    1346.1597 
Loop time of 1.92888 on 8 procs for 160 steps with 51 atoms

99.0% CPU use with 8 MPI tasks x no OpenMP threads

Minimization stats:
  Stopping criterion = energy tolerance
  Energy initial, next-to-last, final = 
        -8887.15051087      -8891.7234692     -8891.72355141
  Force two-norm initial, final = 1185.09 46.6377
  Force max component initial, final = 684.06 10.7216
  Final line search alpha, max atom move = 1.52794e-07 1.6382e-06
  Iterations, force evaluations = 160 399

MPI task timing breakdown:
Section |  min time  |  avg time  |  max time  |%varavg| %total
---------------------------------------------------------------
Pair    | 1.6799     | 1.7024     | 1.7367     |   1.2 | 88.26
Neigh   | 0          | 0          | 0          |   0.0 |  0.00
Comm    | 0.019313   | 0.053745   | 0.075957   |   6.5 |  2.79
Output  | 0.00035466 | 0.0004627  | 0.00076492 |   0.0 |  0.02
Modify  | 0.16135    | 0.16165    | 0.162      |   0.1 |  8.38
Other   |            | 0.01066    |            |       |  0.55

Nlocal:    6.375 ave 9 max 6 min
Histogram: 7 0 0 0 0 0 0 0 0 1
Nghost:    982.5 ave 1004 max 964 min
Histogram: 1 0 2 1 0 0 3 0 0 1
Neighs:    1828.12 ave 2533 max 1717 min
Histogram: 7 0 0 0 0 0 0 0 0 1

Total # of neighbors = 14625
Ave neighs/atom = 286.765
Neighbor list builds = 0
Dangerous builds = 0
WARNING: Using 'neigh_modify every 1 delay 0 check yes' setting during minimization (../min.cpp:190)
Setting up cg style minimization ...
  Unit style    : real
  Current step  : 298
Per MPI rank memory allocation (min/avg/max) = 24.98 | 25.36 | 25.89 Mbytes
Step Temp E_pair E_mol TotEng Press 
     298            0   -8891.7236            0   -8891.7236    153.62415 
     299            0   -8891.7236            0   -8891.7236    153.64911 
Loop time of 0.0957225 on 8 procs for 1 steps with 51 atoms

99.2% CPU use with 8 MPI tasks x no OpenMP threads

Minimization stats:
  Stopping criterion = energy tolerance
  Energy initial, next-to-last, final = 
        -8891.72355352     -8891.72355352     -8891.72361644
  Force two-norm initial, final = 46.3414 49.4044
  Force max component initial, final = 10.7216 14.4045
  Final line search alpha, max atom move = 7.11588e-08 1.02501e-06
  Iterations, force evaluations = 1 20

MPI task timing breakdown:
Section |  min time  |  avg time  |  max time  |%varavg| %total
---------------------------------------------------------------
Pair    | 0.082003   | 0.082807   | 0.084226   |   0.2 | 86.51
Neigh   | 0          | 0          | 0          |   0.0 |  0.00
Comm    | 0.00099895 | 0.0024247  | 0.0032413  |   1.3 |  2.53
Output  | 0          | 0          | 0          |   0.0 |  0.00
Modify  | 0.010255   | 0.010265   | 0.010275   |   0.0 | 10.72
Other   |            | 0.0002252  |            |       |  0.24

Nlocal:    6.375 ave 9 max 6 min
Histogram: 7 0 0 0 0 0 0 0 0 1
Nghost:    944.25 ave 968 max 922 min
Histogram: 1 0 2 0 1 1 1 1 0 1
Neighs:    1817.88 ave 2508 max 1711 min
Histogram: 7 0 0 0 0 0 0 0 0 1

Total # of neighbors = 14543
Ave neighs/atom = 285.157
Neighbor list builds = 0
Dangerous builds = 0
WARNING: Using 'neigh_modify every 1 delay 0 check yes' setting during minimization (../min.cpp:190)
Setting up cg style minimization ...
  Unit style    : real
  Current step  : 299
WARNING: Energy due to 3 extra global DOFs will be included in minimizer energies
Per MPI rank memory allocation (min/avg/max) = 24.98 | 25.36 | 25.89 Mbytes
Step Temp E_pair E_mol TotEng Press Volume 
     299            0   -8891.7236            0   -8891.7236    153.65481    1346.1597 
     300            0   -8891.7236            0   -8891.7236    141.34577    1346.1604 
Loop time of 0.0621507 on 8 procs for 1 steps with 51 atoms

99.2% CPU use with 8 MPI tasks x no OpenMP threads

Minimization stats:
  Stopping criterion = energy tolerance
  Energy initial, next-to-last, final = 
        -8891.72361547     -8891.72361547     -8891.72362256
  Force two-norm initial, final = 49.6848 47.6891
  Force max component initial, final = 14.4045 10.4283
  Final line search alpha, max atom move = 2.81085e-08 2.93125e-07
  Iterations, force evaluations = 1 13

MPI task timing breakdown:
Section |  min time  |  avg time  |  max time  |%varavg| %total
---------------------------------------------------------------
Pair    | 0.054646   | 0.055082   | 0.056035   |   0.2 | 88.63
Neigh   | 0          | 0          | 0          |   0.0 |  0.00
Comm    | 0.00063524 | 0.0015865  | 0.0020218  |   1.0 |  2.55
Output  | 0          | 0          | 0          |   0.0 |  0.00
Modify  | 0.0051175  | 0.005124   | 0.0051344  |   0.0 |  8.24
Other   |            | 0.000358   |            |       |  0.58

Nlocal:    6.375 ave 9 max 6 min
Histogram: 7 0 0 0 0 0 0 0 0 1
Nghost:    944.25 ave 968 max 922 min
Histogram: 1 0 2 0 1 1 1 1 0 1
Neighs:    1817.88 ave 2508 max 1711 min
Histogram: 7 0 0 0 0 0 0 0 0 1

Total # of neighbors = 14543
Ave neighs/atom = 285.157
Neighbor list builds = 0
Dangerous builds = 0
WARNING: Using 'neigh_modify every 1 delay 0 check yes' setting during minimization (../min.cpp:190)
Setting up cg style minimization ...
  Unit style    : real
  Current step  : 300
Per MPI rank memory allocation (min/avg/max) = 24.98 | 25.36 | 25.89 Mbytes
Step Temp E_pair E_mol TotEng Press 
     300            0   -8891.7236            0   -8891.7236    141.35783 
     301            0   -8891.7237            0   -8891.7237    141.49231 
Loop time of 0.101683 on 8 procs for 1 steps with 51 atoms

98.9% CPU use with 8 MPI tasks x no OpenMP threads

Minimization stats:
  Stopping criterion = energy tolerance
  Energy initial, next-to-last, final = 
        -8891.72361962     -8891.72361962     -8891.72368249
  Force two-norm initial, final = 47.441 47.6698
  Force max component initial, final = 10.4283 10.8872
  Final line search alpha, max atom move = 3.65801e-08 3.98257e-07
  Iterations, force evaluations = 1 21

MPI task timing breakdown:
Section |  min time  |  avg time  |  max time  |%varavg| %total
---------------------------------------------------------------
Pair    | 0.087034   | 0.087853   | 0.089597   |   0.2 | 86.40
Neigh   | 0          | 0          | 0          |   0.0 |  0.00
Comm    | 0.0012735  | 0.003036   | 0.0038752  |   1.3 |  2.99
Output  | 0          | 0          | 0          |   0.0 |  0.00
Modify  | 0.010534   | 0.010548   | 0.010567   |   0.0 | 10.37
Other   |            | 0.0002455  |            |       |  0.24

Nlocal:    6.375 ave 9 max 6 min
Histogram: 7 0 0 0 0 0 0 0 0 1
Nghost:    944.25 ave 968 max 922 min
Histogram: 1 0 2 0 1 1 1 1 0 1
Neighs:    1817.88 ave 2508 max 1711 min
Histogram: 7 0 0 0 0 0 0 0 0 1

Total # of neighbors = 14543
Ave neighs/atom = 285.157
Neighbor list builds = 0
Dangerous builds = 0
Setting up Verlet run ...
  Unit style    : real
  Current step  : 0
  Time step     : 0.25
Per MPI rank memory allocation (min/avg/max) = 23.85 | 24.23 | 24.77 Mbytes
Step Temp TotEng KinEng PotEng Press 
       0          300   -8847.0115    44.712151   -8891.7237    1659.8091 
     200    195.39881   -8828.1773    29.122337   -8857.2996    50753.894 
     400    368.17467    -8800.412    54.872938   -8855.2849   -52056.399 
     600    271.25893   -8813.2005    40.428567   -8853.6291    20982.908 
     800    280.95452   -8814.9552    41.873603   -8856.8288   -502.21916 
    1000     318.3101   -8800.5892    47.441098   -8848.0303   -1291.3146 
    1200    273.65386   -8815.3059    40.785509   -8856.0914   -839.82439 
    1400    248.00029   -8815.9957    36.962087   -8852.9578    28886.822 
    1600    269.14762   -8806.2329    40.113896   -8846.3468    42434.645 
    1800    341.07738   -8791.2216    50.834345   -8842.0559    -4192.149 
    2000    368.78326   -8801.1864    54.963642   -8856.1501     9581.494 
    2200    301.61509   -8809.7425    44.952865   -8854.6953   -12884.567 
    2400    392.12706   -8797.6204    58.442814   -8856.0633   -37245.825 
    2600    272.60919   -8813.7868    40.629811   -8854.4166    52487.557 
    2800    338.07551   -8810.5153    50.386943   -8860.9023     6579.094 
    3000    337.77909   -8798.2394    50.342766   -8848.5822   -32387.281 
    3200    353.45983   -8796.3746    52.679831   -8849.0545   -7446.1833 
    3400    268.00147   -8807.9199    39.943074    -8847.863    46787.858 
    3600    370.39733   -8788.9628    55.204205    -8844.167    66514.809 
    3800    290.94826   -8800.2008    43.363075   -8843.5639    20412.995 
    4000    320.30016    -8804.212    47.737697   -8851.9497   -3838.0614 
    4200    297.22519   -8805.4204    44.298591    -8849.719    64128.359 
    4400    346.15148   -8803.4754     51.59059    -8855.066    -44381.38 
    4600    327.50086   -8804.9061    48.810892    -8853.717    4291.3314 
    4800    306.15327   -8815.2491    45.629238   -8860.8783    28343.543 
    5000     324.2074   -8796.8673    48.320034   -8845.1873    32688.673 
    5200    279.75314     -8801.26    41.694549   -8842.9545    1023.1691 
    5400     263.4454   -8816.6559    39.264035   -8855.9199   -18067.652 
    5600    333.45687   -8807.5332    49.698579   -8857.2318   -3409.5567 
    5800    336.70259   -8804.2591    50.182324   -8854.4415   -17213.063 
    6000    307.58665   -8817.7222    45.842868   -8863.5651    44645.507 
    6200     274.3427    -8802.981    40.888174   -8843.8691    14535.886 
    6400    294.51051   -8800.2191    43.893994   -8844.1131    26878.115 
    6600    318.44786   -8798.9972    47.461629   -8846.4589    28830.257 
    6800    293.36873    -8807.608    43.723822   -8851.3319    3068.1287 
    7000    353.60001   -8793.9671    52.700723   -8846.6679    -26219.08 
    7200    331.66084    -8800.075    49.430898   -8849.5059   -5157.6429 
    7400    261.31802   -8813.5344     38.94697   -8852.4814    41258.284 
    7600    283.14706   -8797.5067    42.200381   -8839.7071     9720.634 
    7800    267.37855   -8801.0823    39.850234   -8840.9325     29824.98 
    8000    294.58762   -8807.7142    43.905486   -8851.6197   -9329.9135 
    8200    272.38126   -8800.7188     40.59584   -8841.3146    -18436.93 
    8400    340.19009   -8793.4741    50.702103   -8844.1762     4968.851 
    8600    282.27651   -8810.3298    42.070633   -8852.4004    31977.019 
    8800    292.98666   -8806.1164    43.666879   -8849.7833   -3678.5175 
    9000    405.64735   -8786.4005    60.457885   -8846.8584     9226.987 
    9200    311.18712   -8805.4132    46.379485   -8851.7927   -14625.011 
    9400    318.47111    -8805.872    47.465094   -8853.3371    15835.073 
    9600    340.10032   -8795.2881    50.688722   -8845.9769    61438.416 
    9800    253.33801   -8809.5097    37.757624   -8847.2674    26518.386 
   10000    281.33779   -8804.9226    41.930726   -8846.8533   -15460.764 
   10200     291.0892   -8797.2361    43.384081   -8840.6202   -16888.197 
   10400    277.60749   -8807.2809     41.37476   -8848.6557    3570.7612 
   10600    266.49877   -8805.9546     39.71911   -8845.6737   -18153.871 
   10800    286.06247   -8805.4381    42.634894    -8848.073     -14413.1 
   11000    272.23496   -8814.4695    40.574035   -8855.0435    1268.5688 
   11200    316.71412   -8801.7403    47.203231   -8848.9435    35317.902 
   11400    300.69609   -8806.6308    44.815896   -8851.4467    24075.611 
   11600    242.21625   -8818.0893    36.100031   -8854.1893    22896.056 
   11800    300.23864   -8800.2915    44.747718   -8845.0392    25667.042 
   12000    287.65947   -8808.7561    42.872911    -8851.629    777.11016 
   12200    290.77354   -8813.2815    43.337035   -8856.6185    6581.6428 
   12400    365.43411   -8797.6364    54.464483   -8852.1009    15394.308 
   12600    316.71652   -8811.2246     47.20359   -8858.4282    -20397.39 
   12800    312.12691   -8808.0986    46.519552   -8854.6182    4408.4303 
   13000    369.19972   -8790.3774    55.025711   -8845.4031    2944.7968 
   13200    318.12575   -8805.2608    47.413621   -8852.6744    50713.562 
   13400    333.92998   -8807.1034    49.769091   -8856.8725     29793.15 
   13600    363.51863   -8793.7047    54.178999   -8847.8837     4185.043 
   13800    336.80602   -8802.6431    50.197738   -8852.8409   -20084.293 
   14000    305.18235   -8807.5069    45.484531   -8852.9915    29587.005 
   14200    364.72633   -8793.4815    54.358996   -8847.8405   -9115.3736 
   14400    293.71223   -8803.1751    43.775018   -8846.9501    37083.375 
   14600    330.63561   -8821.2834    49.278098   -8870.5615    50022.192 
   14800    287.79498   -8836.5958    42.893109   -8879.4889    10987.888 
   15000     314.0464   -8836.3863    46.805634   -8883.1919   -14132.226 
   15200    333.46093   -8825.0894    49.699185   -8874.7885    8362.6452 
   15400     285.4411   -8837.8323    42.542284   -8880.3746    12437.516 
   15600    287.35505   -8838.4291    42.827541   -8881.2567     865.9148 
   15800    303.79153    -8827.011    45.277243   -8872.2883    36890.166 
   16000     290.9045   -8827.7924    43.356553    -8871.149   -959.88144 
   16200    267.79042   -8841.0754    39.911619    -8880.987   -8134.9028 
   16400    287.11114   -8834.0471    42.791189   -8876.8382   -13793.993 
   16600    357.78322   -8818.1074    53.324191   -8871.4316   -10023.798 
   16800    291.15376   -8835.6925    43.393703   -8879.0862   -30864.772 
   17000    314.41418   -8838.1206    46.860447   -8884.9811    10400.714 
   17200    371.76946   -8823.0495    55.408707   -8878.4582    19934.461 
   17400    286.42347   -8835.6471    42.688698   -8878.3358   -10573.208 
   17600    286.34901   -8839.5904    42.677601    -8882.268    29999.454 
   17800    306.84533   -8830.7824    45.732382   -8876.5148   -1889.5249 
   18000    374.38433   -8824.1823    55.798428   -8879.9807   -56265.352 
   18200    296.55286   -8838.0589    44.198388   -8882.2573   -8867.8023 
   18400    285.44123   -8838.3934    42.542304   -8880.9357   -9828.0363 
   18600    323.71274   -8822.6629     48.24631   -8870.9092   -22002.558 
   18800    320.75473   -8836.4454    47.805447   -8884.2509    24361.926 
   19000    270.08062    -8836.834    40.252952   -8877.0869    11633.676 
   19200    347.16544   -8820.8955    51.741711   -8872.6372     -18070.5 
   19400    261.84831    -8839.572    39.026004    -8878.598    10737.779 
   19600    316.64165   -8836.8365    47.192431    -8884.029   -8255.9795 
   19800    345.45815   -8826.7509    51.487257   -8878.2382    17621.392 
   20000    315.13234   -8836.8669    46.967482   -8883.8344   -7974.4041 
   20200    298.96842   -8835.8283    44.558404   -8880.3867    12465.889 
   20400    364.28607   -8825.4644     54.29338   -8879.7577    15043.794 
   20600    247.48482   -8836.7921    36.885262   -8873.6773   -17303.224 
   20800    313.56463   -8832.3858     46.73383   -8879.1197   -20931.028 
   21000    299.23073   -8835.8831    44.597498   -8880.4806   -5151.2308 
   21200    317.98645   -8831.6355     47.39286   -8879.0284   -29037.965 
   21400    250.62766   -8846.1283    37.353672   -8883.4819   -19267.442 
   21600    309.93974   -8827.4843    46.193574   -8873.6779    24163.158 
   21800    296.72606    -8835.059    44.224201   -8879.2832   -12724.032 
   22000    307.41987   -8842.8399    45.818011   -8888.6579   -13263.933 
   22200    338.25944   -8824.9968    50.414357   -8875.4112    5122.3544 
   22400    319.82555   -8833.5911    47.666961   -8881.2581     289.8346 
   22600    289.35378   -8846.3487    43.125433   -8889.4741   -14760.037 
   22800    342.77959   -8837.5693    51.088042   -8888.6574    10488.379 
   23000    336.18237   -8825.7573    50.104789    -8875.862    1808.0312 
   23200    300.96654   -8839.3272    44.856204   -8884.1834   -10494.898 
   23400      244.762   -8843.5646    36.479451    -8880.044     17669.14 
   23600    341.08428   -8828.4505    50.835373   -8879.2858    32498.579 
   23800    293.44885    -8842.963    43.735765   -8886.6988   -26627.073 
   24000    277.75032   -8844.8531    41.396048   -8886.2491    8543.6185 
   24200    270.80775   -8854.7834    40.361323   -8895.1447    19679.235 
   24400    290.91054   -8843.0598    43.357452   -8886.4172   -26636.965 
   24600    296.45829   -8842.5555    44.184293   -8886.7398    -65532.54 
   24800    358.16243   -8827.1739    53.380708   -8880.5546   -2784.6975 
   25000    303.54505   -8842.3672    45.240507   -8887.6077    15058.376 
   25200    340.97434   -8840.9523    50.818986   -8891.7713     6783.159 
   25400    294.38777   -8849.1553    43.875701    -8893.031    7494.3787 
   25600    263.57225   -8848.7671    39.282941   -8888.0501    62267.247 
   25800    297.73347   -8836.2822    44.374346   -8880.6566   -11559.204 
   26000    298.47512   -8847.6322    44.484882   -8892.1171    9447.2609 
   26200    229.93313   -8856.9628     34.26935   -8891.2322   -36142.826 
   26400    349.86906   -8837.0105     52.14466   -8889.1551   -38533.547 
   26600    288.48246   -8838.0723    42.995571   -8881.0678    26086.019 
   26800    266.44027   -8852.2716    39.710392    -8891.982   -3394.3121 
   27000    333.20731   -8836.9793    49.661385   -8886.6407    -7749.425 
   27200    315.63118   -8836.0304     47.04183   -8883.0723   -8150.4423 
   27400    249.92467   -8851.6903    37.248899   -8888.9392    5160.3585 
   27600    208.91715    -8851.431    31.137117   -8882.5681    22343.184 
   27800    345.28064   -8838.8668      51.4608   -8890.3276   -15617.859 
   28000    237.12442   -8850.0743    35.341142   -8885.4154     24688.14 
   28200    290.00749   -8848.0449    43.222861   -8891.2677    15270.583 
   28400    291.22553   -8833.0263      43.4044   -8876.4307   -19655.148 
   28600    272.54471   -8842.9358      40.6202    -8883.556    10199.594 
   28800    302.40003    -8846.064    45.069852   -8891.1338    6547.1033 
   29000    315.63286   -8833.8029     47.04208   -8880.8449   -22088.237 
   29200    251.66779   -8851.5553    37.508694    -8889.064   -28652.027 
   29400    274.22847   -8841.8087    40.871149   -8882.6799    13123.228 
   29600    295.01518   -8834.0564    43.969211   -8878.0256    -27137.52 
   29800    280.79841   -8854.4353    41.850336   -8896.2856    4060.6545 
   30000    281.00375   -8841.7806     41.88094   -8883.6615   -2944.9638 
   30200    321.17505   -8837.9131    47.868091   -8885.7812   -30039.942 
   30400    234.17526    -8854.679    34.901598   -8889.5806   -8019.1662 
   30600    241.11585   -8847.7351    35.936028   -8883.6711    2678.9163 
   30800    309.30158    -8841.138    46.098463   -8887.2364    30480.455 
   31000    363.44002   -8833.9991    54.167283   -8888.1664   -31955.189 
   31200    244.95014   -8839.4249    36.507492   -8875.9324    -28486.44 
   31400    301.53355   -8846.3384    44.940712   -8891.2791    426.11807 
   31600    258.54158   -8832.0792    38.533167   -8870.6124    1323.2035 
   31800     298.8146   -8849.2078    44.535477   -8893.7433     16014.74 
   32000    311.08414   -8845.2109    46.364136    -8891.575    39900.836 
   32200    315.38531   -8837.3275    47.005184   -8884.3327   -16119.938 
   32400    284.74938   -8841.5631    42.439191   -8884.0022   -36065.383 
   32600    304.61029   -8837.9503     45.39927   -8883.3496   -14961.294 
   32800    366.11279   -8820.1783    54.565634    -8874.744   -61501.005 
   33000    307.22267   -8841.7209     45.78862   -8887.5095    2103.4935 
   33200    286.62155   -8847.9665     42.71822   -8890.6847    -40642.93 
   33400    313.73112   -8832.3173    46.758643   -8879.0759    -44482.69 
   33600    309.94846   -8839.5273    46.194875   -8885.7222    7484.1394 
   33800    296.79947   -8844.8185    44.235142   -8889.0536    46916.309 
   34000    333.35925   -8831.8351     49.68403   -8881.5191    15533.211 
   34200    318.28585   -8840.5638    47.437483   -8888.0013     5399.776 
   34400      335.972   -8848.0059    50.073435   -8898.0794    3900.2179 
   34600    328.78564   -8834.5304    49.002377   -8883.5328   -17168.238 
   34800    295.47996   -8843.8935    44.038481    -8887.932   -27545.479 
   35000    307.16155   -8841.5129    45.779512   -8887.2924    21170.762 
   35200    292.85104   -8837.4491    43.646665   -8881.0958    4487.5581 
   35400    289.66151   -8839.0816    43.171296   -8882.2529   -34953.508 
   35600     313.0643   -8848.4974    46.659261   -8895.1566   -15434.891 
   35800    339.27475   -8839.4823    50.565679    -8890.048    24356.094 
   36000    346.25118   -8825.4211    51.605449   -8877.0266   -30974.038 
   36200    258.68773   -8840.4925    38.554949   -8879.0475   -17522.463 
   36400    247.62733   -8847.6527    36.906502   -8884.5592    11855.686 
   36600    309.74704   -8848.7383    46.164855   -8894.9032   -36954.051 
   36800    260.19758   -8834.4567    38.779978   -8873.2366   -25833.514 
   37000    299.21881   -8851.7796    44.595721   -8896.3753   -5814.6965 
   37200    279.52891   -8844.9967     41.66113   -8886.6578     21003.01 
   37400    310.07718   -8834.4477    46.214059   -8880.6618   -19449.392 
   37600    296.86245   -8837.9161    44.244529   -8882.1607    21801.268 
   37800    305.91689   -8841.6088    45.594008   -8887.2028    26363.681 
   38000    374.32754   -8837.0656    55.789964   -8892.8556    2985.8969 
   38200     282.1416   -8853.9316    42.050526   -8895.9822   -379.94709 
   38400    345.28768     -8843.28    51.461849   -8894.7418   -7204.9258 
   38600    296.68441   -8837.7256    44.217993   -8881.9436    1138.7669 
   38800    289.13174   -8846.0955    43.092339   -8889.1878   -697.47181 
   39000    286.30378   -8851.9024    42.670859   -8894.5733   -34639.397 
   39200    309.23957   -8835.8687    46.089221   -8881.9579     17229.18 
   39400    303.77486   -8845.6064    45.274758   -8890.8812   -11599.656 
   39600    246.77237   -8856.7994    36.779078   -8893.5784   -41076.009 
   39800     323.7631   -8837.9861    48.253816   -8886.2399    17291.681 
   40000    274.92069   -8840.2788    40.974318   -8881.2532    8614.0842 
   40200    229.25878    -8855.588    34.168843   -8889.7568    5307.1026 
   40400    313.95025   -8846.6169    46.791303   -8893.4082   -18486.055 
   40600    265.53842    -8839.118     39.57598    -8878.694   -23719.289 
   40800    308.05581   -8840.6396    45.912792   -8886.5524   -11651.481 
   41000    266.31984   -8852.2107    39.692443   -8891.9031    3142.8726 
   41200    343.40922   -8837.1937    51.181882   -8888.3755    1646.3898 
   41400    306.42664   -8841.3744    45.669981   -8887.0444   -15021.145 
   41600    273.96104   -8841.2914    40.831291   -8882.1227    43892.215 
   41800    320.09318    -8838.347    47.706848   -8886.0539   -1357.5325 
   42000    295.93544   -8847.6646    44.106366    -8891.771    8106.3595 
   42200    267.90824   -8834.2119    39.929178   -8874.1411    12692.032 
   42400    324.62067   -8839.3856    48.381628   -8887.7672   -14990.534 
   42600    300.47628   -8847.5047    44.783135   -8892.2879   -30090.303 
   42800    301.51459   -8833.4269    44.937886   -8878.3648   -8204.1471 
   43000    287.26929   -8836.8294     42.81476   -8879.6442   -18878.822 
   43200    297.01138   -8850.8287    44.266725   -8895.0954   -30360.575 
   43400    312.85369   -8836.2863    46.627871   -8882.9142     12095.14 
   43600    418.74637   -8818.3283    62.410169   -8880.7384    56341.734 
   43800    336.33491   -8844.0081    50.127523   -8894.1356   -20330.808 
   44000    242.77998   -8849.5814     36.18405   -8885.7654    -18630.48 
   44200     309.8163   -8832.1838    46.175177    -8878.359    4240.8613 
   44400    326.87054   -8840.6232     48.71695   -8889.3401   -41601.475 
   44600    346.24187   -8845.9847    51.604062   -8897.5888     22348.28 
   44800    342.10171   -8838.2019     50.98701   -8889.1889     523.6552 
   45000     321.9143   -8836.3275    47.978269   -8884.3057   -15257.728 
   45200    257.04277   -8849.8788    38.309783   -8888.1886   -4000.4222 
   45400    313.03179    -8836.636    46.654415   -8883.2905    49237.997 
   45600    249.52039    -8850.602    37.188645   -8887.7906   -12837.985 
   45800    245.62761   -8844.6348    36.608463   -8881.2433   -4191.7185 
   46000    284.28362   -8841.2413    42.369774    -8883.611   -36000.516 
   46200    267.06515   -8844.8668    39.803524   -8884.6703   -42652.614 
   46400    385.38448   -8829.9457    57.437897   -8887.3836    7588.8418 
   46600    274.86903    -8846.991    40.966618   -8887.9576   -24573.423 
   46800    296.90098   -8845.4435    44.250271   -8889.6938   -16000.241 
   47000    411.51163   -8827.0955    61.331901   -8888.4274    11628.559 
   47200    359.23529   -8837.0188    53.540607   -8890.5594    18950.001 
   47400    273.58669   -8849.6857    40.775498   -8890.4612    4042.5467 
   47600    333.97123   -8840.3856     49.77524   -8890.1608   -24482.606 
   47800    337.62463   -8839.0777    50.319744   -8889.3975    32124.472 
   48000    334.22463    -8839.665    49.813008    -8889.478    29968.447 
   48200    313.63494      -8845.3    46.744309   -8892.0443    13372.808 
   48400    230.63255   -8855.5234    34.373592   -8889.8969    29435.032 
   48600    306.46278   -8839.0337    45.675366   -8884.7091    15046.226 
   48800     292.4263   -8843.7992    43.583363   -8887.3826   -8642.0005 
   49000    342.06554   -8837.8522     50.98162   -8888.8338   -8630.8761 
   49200     316.2409   -8835.5414    47.132703   -8882.6741    6384.4402 
   49400    276.22878   -8851.3889    41.169276   -8892.5581   -1614.2735 
   49600    312.53892   -8831.7878    46.580957   -8878.3688    41020.566 
   49800    284.97615   -8841.5312    42.472989   -8884.0042    30245.059 
   50000    278.51526   -8846.3007    41.510055   -8887.8108   -29156.896 
   50200    366.80056   -8826.9636     54.66814   -8881.6317   -3470.4723 
   50400    256.24475      -8840.9    38.190846   -8879.0909    2799.7714 
   50600    335.87589   -8842.9924    50.059112   -8893.0515   -4960.9607 
   50800    210.88871   -8844.9342     31.43096   -8876.3651   -7135.4187 
   51000    325.22232   -8831.7403    48.471297   -8880.2116    15606.864 
   51200    274.01446   -8847.8711    40.839252   -8888.7104   -25771.489 
   51400    290.64704   -8844.6263    43.318182   -8887.9445    13709.004 
   51600    321.34995   -8833.0485    47.894157   -8880.9426    38401.469 
   51800    268.90267   -8840.9531     40.07739   -8881.0305   -17047.113 
   52000     275.5107   -8845.1824    41.062253   -8886.2447    12107.281 
   52200    295.44381    -8843.042    44.033094   -8887.0751   -31736.747 
   52400    288.75488   -8830.8006    43.036173   -8873.8368    3568.5964 
   52600    299.19108   -8850.1732    44.591589   -8894.7648    16612.884 
   52800    280.64608   -8846.7726    41.827633   -8888.6002   -27076.361 
   53000    344.11773   -8834.6364     51.28748   -8885.9239    11984.216 
   53200    280.63266   -8844.6378    41.825633   -8886.4634    6568.9724 
   53400     312.4909   -8847.7731      46.5738   -8894.3469    3829.6918 
   53600    292.19878   -8833.2692    43.549453   -8876.8186   -5675.5953 
   53800    308.35042   -8841.6044    45.956702   -8887.5611    1263.4817 
   54000    312.07056   -8847.4158    46.511152    -8893.927    -16909.93 
   54200    353.25924   -8828.9845    52.649935   -8881.6344    55003.284 
   54400    345.69383   -8834.0595    51.522383   -8885.5819   -11425.861 
   54600    351.44332   -8840.1977    52.379289    -8892.577     29896.85 
   54800    310.15932   -8848.0234    46.226301   -8894.2497   -49398.425 
   55000    271.77905   -8848.6999    40.506087    -8889.206    9131.3579 
   55200    287.55683   -8837.5852    42.857614   -8880.4428   -4930.7456 
   55400    257.43915   -8847.1935     38.36886   -8885.5623    19872.573 
   55600    282.49653   -8849.6397    42.103425   -8891.7431   -12995.537 
   55800    345.45013   -8835.2718    51.486062   -8886.7578   -9778.3528 
   56000    317.43056   -8835.2343    47.310009   -8882.5443    -39451.79 
   56200    295.16307   -8847.2063    43.991253   -8891.1976   -25217.139 
   56400    290.19277   -8849.9854    43.250477   -8893.2359   -3954.2699 
   56600    291.23463   -8836.8847    43.405756   -8880.2904    28389.573 
   56800    267.48257   -8843.6593    39.865737    -8883.525    -3183.839 
   57000    244.45438   -8855.2642    36.433603   -8891.6978     3047.562 
   57200    292.41756    -8837.206    43.582059   -8880.7881   -44761.216 
   57400    300.65734   -8843.4488    44.810121   -8888.2589    23998.674 
   57600    210.09306   -8852.7075    31.312375   -8884.0198   -40666.435 
   57800    291.68447   -8838.1336    43.472801   -8881.6064    105129.08 
   58000     328.3682   -8827.7082    48.940162   -8876.6484    -4538.049 
   58200    308.37224   -8846.5867    45.959953   -8892.5466   -4727.5771 
   58400    271.54908   -8845.6368    40.471811   -8886.1086   -11382.378 
   58600    323.59036   -8830.8286     48.22807   -8879.0567   -30381.614 
   58800     297.8453   -8846.7424    44.391014   -8891.1334    60819.669 
   59000    295.33772   -8841.3041    44.017282   -8885.3214   -37317.087 
   59200    341.02206   -8830.6497      50.8261   -8881.4758    4226.3501 
   59400    302.90236   -8835.7695    45.144719   -8880.9142    26825.095 
   59600    280.79688   -8847.3645    41.850108   -8889.2146    9203.9904 
   59800    334.37056   -8831.6518    49.834756   -8881.4866   -14874.502 
   60000    289.29172   -8838.1789    43.116184   -8881.2951     3139.137 
   60200    255.49315   -8857.6191    38.078828   -8895.6979   -70348.219 
   60400    325.85442   -8841.1062    48.565506   -8889.6717    35109.835 
   60600    275.65291   -8838.1034    41.083448   -8879.1869   -17740.275 
   60800    278.90708   -8843.2298    41.568451   -8884.7982   -9167.1826 
   61000    310.51857    -8847.733    46.279843   -8894.0128   -6770.7678 
   61200     344.9057   -8835.3732    51.404919   -8886.7781    11868.217 
   61400    345.05501   -8835.9663    51.427172   -8887.3935    20479.077 
   61600    287.17154     -8846.53    42.800191   -8889.3302    3225.3963 
   61800     306.7402   -8841.4872    45.716714   -8887.2039   -7771.5715 
   62000    390.77704   -8822.6101    58.241606   -8880.8517    20897.833 
   62200    284.76466   -8837.7998    42.441469   -8880.2413    2563.4636 
   62400    338.00114   -8844.8759     50.37586   -8895.2518    4536.8156 
   62600    292.29027   -8843.7899    43.563089    -8887.353   -36231.501 
   62800    285.12461    -8830.641    42.495116   -8873.1362    -43337.77 
   63000    312.53838   -8843.3502    46.580878    -8889.931    50229.585 
   63200    284.40834   -8839.3886    42.388362   -8881.7769    41555.011 
   63400    305.95519   -8835.6876    45.599715   -8881.2873     -28191.7 
   63600    249.02546   -8849.1826     37.11488   -8886.2975   -4265.1739 
   63800    336.74701   -8836.2312    50.188944   -8886.4201   -25280.856 
   64000    294.04578   -8848.9951    43.824731   -8892.8198   -34943.981 
   64200    311.65535   -8841.9217     46.44927   -8888.3709    -1839.461 
   64400    312.75918   -8840.3822    46.613786    -8886.996   -16130.852 
   64600    281.45252   -8838.1491    41.947825   -8880.0969   -35261.962 
   64800    292.49045   -8832.9234    43.592923   -8876.5163    17336.996 
   65000     262.9602   -8843.2127    39.191721   -8882.4044   -20985.154 
   65200    315.47504   -8837.7356    47.018558   -8884.7541   -50250.099 
   65400    258.64869   -8856.6195    38.549131   -8895.1686   -3296.1052 
   65600    330.32138   -8842.1195    49.231265   -8891.3507    8688.6992 
   65800    295.81417   -8838.1316    44.088292   -8882.2199   -16951.772 
   66000     232.0702   -8855.4182    34.587859   -8890.0061    9991.8747 
   66200    281.24037    -8844.491    41.916206   -8886.4072    6518.7934 
   66400    289.39512   -8839.5639    43.131595   -8882.6955    11762.704 
   66600    334.02663   -8823.0025    49.783496    -8872.786   -11993.053 
   66800     288.4495   -8843.8016    42.990659   -8886.7923    17015.991 
   67000    303.01885   -8836.3543    45.162081   -8881.5164   -3793.9798 
   67200    258.63669   -8849.1404    38.547343   -8887.6878    -13797.82 
   67400    290.63781   -8845.1848    43.316805   -8888.5016    15844.959 
   67600    303.31474   -8839.2392    45.206181   -8884.4454   -384.00654 
   67800    311.22278   -8839.5075      46.3848   -8885.8923    12312.833 
   68000    236.95202   -8854.9003    35.315448   -8890.2157   -11564.356 
   68200    273.47899   -8839.6074    40.759447   -8880.3668     21721.56 
   68400    266.07278   -8843.6622    39.655621   -8883.3178    3040.3952 
   68600    311.26484   -8849.0738    46.391067   -8895.4649    32284.172 
   68800    310.82954   -8837.7683     46.32619   -8884.0945   -15159.697 
   69000    327.27586   -8838.9079    48.777358   -8887.6853   -49447.259 
   69200    272.59568   -8852.2467    40.627798   -8892.8745   -3506.7361 
   69400    335.94513   -8839.5544    50.069431   -8889.6238    11272.836 
   69600    315.00795   -8840.1284    46.948944   -8887.0773   -6038.7096 
   69800    372.58443    -8843.232     55.53017   -8898.7621   -1768.8526 
   70000    271.20147   -8843.9032    40.420003   -8884.3232    40387.659 
   70200    355.70165   -8832.4076    53.013952   -8885.4216    -17068.99 
   70400    258.46644   -8850.3327    38.521969   -8888.8547   -21756.079 
   70600    297.22856   -8840.5727    44.299094   -8884.8718   -15182.584 
   70800    344.96143   -8835.2615    51.413225   -8886.6747   -30699.572 
   71000    422.59948   -8824.6659    62.984439   -8887.6504    9135.5893 
   71200    300.55437   -8842.8887    44.794774   -8887.6834    57906.778 
   71400    367.92645   -8834.9857    54.835943   -8889.8216   -14342.016 
   71600    220.79114   -8851.9531    32.906822   -8884.8599    9007.5178 
   71800    353.26143   -8842.0911    52.650262   -8894.7414   -55504.524 
   72000    291.75908   -8840.1697     43.48392   -8883.6537    35215.628 
   72200    336.86971   -8824.4663    50.207231   -8874.6735    27472.742 
   72400    257.23162   -8843.8365    38.337929   -8882.1744   -7263.9523 
   72600    336.46872   -8833.1791    50.147467   -8883.3266   -36714.578 
   72800    270.70076   -8848.3862    40.345377   -8888.7316    5147.3092 
   73000    364.86719   -8828.9432    54.379989   -8883.3232   -17830.048 
   73200    313.31501   -8836.4314    46.696627   -8883.1281   -8581.8781 
   73400    261.49162    -8847.205    38.972843   -8886.1778   -8225.8515 
   73600    284.90581   -8842.2214    42.462505   -8884.6839    38991.744 
   73800    326.18748   -8840.8915    48.615146   -8889.5066   -20582.768 
   74000    292.05091   -8850.8793    43.527414   -8894.4067   -14595.733 
   74200    299.21475   -8852.3128    44.595116   -8896.9079   -4601.1729 
   74400    323.73204   -8836.3119    48.249186   -8884.5611     13347.75 
   74600    350.44496   -8838.7224    52.230493   -8890.9529   -18383.392 
   74800    267.80344   -8851.7462    39.913559   -8891.6597    369.09755 
   75000    293.62837   -8838.4653    43.762519   -8882.2278    16415.058 
   75200    276.68814    -8842.876     41.23774   -8884.1138   -11698.212 
   75400    358.30291   -8826.5357    53.401646   -8879.9374   -4886.2179 
   75600    253.05016   -8842.2756    37.714723   -8879.9904   -18915.197 
   75800     368.5039   -8839.5367    54.922006   -8894.4587    11119.929 
   76000    242.48691   -8854.4023    36.140372   -8890.5427   -11315.465 
   76200    287.04971   -8842.3197    42.782034   -8885.1017   -23207.403 
   76400     274.8255    -8841.022    40.960131   -8881.9822    32282.264 
   76600    269.62763   -8851.4381    40.185437   -8891.6235   -3392.2306 
   76800     296.1091   -8841.8369    44.132249   -8885.9692    13086.057 
   77000     276.4675   -8834.7083    41.204855   -8875.9132    21980.228 
   77200    214.55929   -8851.1523    31.978024   -8883.1304    4525.1594 
   77400    254.51301   -8843.4311    37.932746   -8881.3639    4491.4745 
   77600     309.2551   -8841.1957    46.091535   -8887.2872    -407.3546 
   77800    252.42611   -8850.7876    37.621715   -8888.4093     8359.193 
   78000    359.53286   -8833.6392    53.584959   -8887.2242   -1777.4565 
   78200    338.30585   -8844.5954    50.421274   -8895.0167    28113.193 
   78400    297.99145   -8841.9628    44.412796   -8886.3756    20799.714 
   78600    341.90219   -8819.4872    50.957274   -8870.4444    23362.273 
   78800    297.70019   -8841.2378    44.369386   -8885.6072    29872.288 
   79000    285.02638   -8848.9812    42.480475   -8891.4616   -27199.295 
   79200    327.66097    -8829.627    48.834756   -8878.4617    25437.983 
   79400    297.27918   -8836.7202    44.306638   -8881.0268    24546.388 
   79600    295.65551   -8844.7743    44.064645    -8888.839      36146.2 
   79800    310.67104   -8848.3634    46.302568    -8894.666    7812.5522 
   80000    356.18843   -8833.3164    53.086503   -8886.4029    -11624.27 
   80200    312.75035    -8844.762    46.612469   -8891.3745   -32145.688 
   80400    290.23661    -8846.116     43.25701    -8889.373    45978.995 
   80600    354.58334   -8834.6232    52.847279   -8887.4705    10464.639 
   80800    233.61572   -8854.1433    34.818205   -8888.9615    24155.178 
   81000    300.45903   -8839.7284    44.780564    -8884.509    4964.6293 
   81200    306.00318   -8839.2589    45.606867   -8884.8658   -26754.302 
   81400    253.78381   -8853.7341    37.824066   -8891.5582    8686.0359 
   81600    325.02002   -8836.6606    48.441147   -8885.1018   -10440.746 
   81800    341.57042   -8842.4722    50.907827     -8893.38    17065.289 
   82000    283.26756   -8848.9528    42.218339   -8891.1711   -21348.873 
   82200     337.4412   -8835.1943    50.292407   -8885.4867    5247.2759 
   82400    274.57592    -8848.178    40.922933    -8889.101    -38089.89 
   82600    307.88881   -8834.8495    45.887903   -8880.7375    18637.588 
   82800     310.3428   -8837.2821    46.253647   -8883.5357   -3969.9769 
   83000    289.37599   -8845.2294    43.128743   -8888.3581   -28487.182 
   83200    371.91606   -8827.7863    55.430557   -8883.2168    23392.937 
   83400    336.44611   -8844.9827    50.144098   -8895.1268   -33027.594 
   83600    331.16269   -8845.2237    49.356653   -8894.5804   -1247.5896 
   83800    301.52122    -8844.832    44.938874   -8889.7709   -570.34436 
   84000     350.9931   -8833.3741    52.312187   -8885.6863    42936.788 
   84200     312.9882   -8848.2954    46.647919   -8894.9434   -1070.2376 
   84400    305.52591   -8844.3801    45.535735   -8889.9159   -7597.8074 
   84600    293.37531   -8841.9296    43.724804   -8885.6544    32796.741 
   84800    321.90695   -8833.2797    47.977173   -8881.2569    8293.4609 
   85000    330.50919   -8832.6646    49.259256   -8881.9239   -24452.426 
   85200    299.05173   -8847.2314     44.57082   -8891.8022   -327.07109 
   85400    312.56389   -8842.3023    46.584679    -8888.887    648.12168 
   85600     316.7213   -8832.8087    47.204302    -8880.013   -26975.392 
   85800    256.26292   -8842.2752    38.193555   -8880.4688   -46315.419 
   86000    345.06135   -8842.8725    51.428117   -8894.3006    61223.207 
   86200     266.7572   -8850.3018    39.757627   -8890.0594    43053.323 
   86400    304.15291   -8835.1909    45.331103    -8880.522   -53821.405 
   86600    285.31162    -8845.377    42.522987   -8887.8999   -21914.315 
   86800    291.41843   -8845.2533    43.433149   -8888.6864    6330.0191 
   87000    316.42869   -8842.2989     47.16069   -8889.4596    46176.497 
   87200     286.2268   -8848.8333    42.659386   -8891.4927     19862.45 
   87400    326.07421   -8834.1868    48.598264   -8882.7851   -8973.7941 
   87600     311.7392   -8844.3274    46.461766   -8890.7892    16491.895 
   87800    235.11246   -8844.5452     35.04128   -8879.5864   -8128.6046 
   88000    308.77614   -8839.4142    46.020151   -8885.4344   -25023.291 
   88200    281.22669   -8836.1428    41.914167   -8878.0569    49465.133 
   88400    322.66661   -8835.3896    48.090393     -8883.48    25762.424 
   88600    269.78866    -8851.341    40.209437   -8891.5504    34240.988 
   88800    315.37221   -8839.4886    47.003233   -8886.4918   -12603.868 
   89000    360.18467   -8836.4464    53.682105   -8890.1285    10768.549 
   89200    292.86369   -8847.1674    43.648552   -8890.8159    20073.863 
   89400    373.58679   -8832.8463    55.679564   -8888.5258    17917.249 
   89600    331.08802   -8839.7335    49.345525    -8889.079     13815.68 
   89800    308.58148   -8846.0163    45.991139   -8892.0075    35708.649 
   90000    338.84989   -8826.4654    50.502358   -8876.9678    -24131.67 
   90200    296.93251   -8842.4361     44.25497   -8886.6911   -1735.8118 
   90400    285.42742   -8847.1372    42.540246   -8889.6775    42144.438 
   90600    247.78311   -8848.0575    36.929719   -8884.9872    11272.105 
   90800     319.0886   -8831.8717    47.557125   -8879.4288   -4975.0435 
   91000    302.00488   -8846.3352    45.010959   -8891.3462    10994.968 
   91200    308.97473   -8840.3864    46.049749   -8886.4361    -51599.37 
   91400    309.89923   -8834.9441    46.187537   -8881.1317    19992.374 
   91600    270.68151    -8851.622    40.342508   -8891.9645   -21895.543 
   91800    291.72425   -8841.0378    43.478728   -8884.5165    20790.978 
   92000    324.45909   -8842.5936    48.357546   -8890.9512    552.32658 
   92200    298.24207   -8852.3104    44.450148   -8896.7606   -2675.0516 
   92400    301.92598   -8850.7639    44.999199   -8895.7631    49412.549 
   92600    338.99733   -8836.8085    50.524333   -8887.3329   -36072.067 
   92800    285.93299   -8839.8466    42.615596   -8882.4622    -12348.55 
   93000    313.05921   -8852.2932    46.658501   -8898.9517    19085.572 
   93200    327.11932   -8835.2409    48.754028   -8883.9949    3649.8928 
   93400    291.06442   -8839.1719    43.380387   -8882.5522    27542.301 
   93600    300.78367   -8847.7979    44.828949   -8892.6269   -16179.822 
   93800    264.46081   -8853.7963    39.415372   -8893.2116   -2459.4129 
   94000    280.07695   -8838.9224    41.742809   -8880.6652     3173.635 
   94200    289.26045   -8842.4642    43.111522   -8885.5757     42476.26 
   94400    304.61065   -8846.7231    45.399324   -8892.1224    21291.752 
   94600    317.28105   -8842.2923    47.287728     -8889.58    30995.191 
   94800    324.63928   -8835.3936    48.384401    -8883.778   -614.84874 
   95000    287.98594   -8845.7437    42.921569   -8888.6653    3556.2926 
   95200    269.24937   -8853.8848    40.129062   -8894.0139    24766.598 
   95400    347.80418   -8838.4422     51.83691   -8890.2791    18221.348 
   95600    306.43791   -8834.2746     45.67166   -8879.9462    -1709.674 
   95800    309.82312   -8839.2043    46.176193   -8885.3805   -3193.4399 
   96000    245.49769   -8853.2397    36.589099   -8889.8288    -28066.54 
   96200    328.68169   -8838.6977    48.986884   -8887.6846    30432.435 
   96400    303.78905   -8842.9013    45.276872   -8888.1782    54127.192 
   96600    304.93105   -8843.4397    45.447076   -8888.8868   -13521.224 
   96800    290.10301   -8835.5797    43.237099   -8878.8168    45823.151 
   97000    278.75362   -8839.7664     41.54558    -8881.312    38618.401 
   97200    255.27334   -8847.5688    38.046067   -8885.6149   -10913.759 
   97400    267.61248   -8855.9936    39.885099   -8895.8787    14279.077 
   97600    324.90313   -8839.2994    48.423725   -8887.7231    3902.6671 
   97800    329.11029   -8842.6895    49.050762   -8891.7402   -6319.0053 
   98000    283.96253   -8849.0575    42.321918   -8891.3794   -21247.786 
   98200    270.99046   -8839.6412    40.388554   -8880.0298   -6139.1272 
   98400    324.67668   -8841.3093    48.389975   -8889.6993    -11500.73 
   98600    233.17637   -8851.6783    34.752723    -8886.431    45777.895 
   98800    268.69601   -8843.5239    40.046588   -8883.5704   -62111.701 
   99000     338.9763   -8837.9732    50.521198   -8888.4944   -7072.8066 
   99200    263.50955   -8844.7433    39.273596   -8884.0169   -26939.582 
   99400    278.32784   -8855.2251    41.482121   -8896.7072    2662.2949 
   99600    280.15264   -8835.7698     41.75409   -8877.5239   -25956.702 
   99800    303.86427   -8836.0069    45.288084    -8881.295    16366.839 
  100000    259.83473   -8851.8974    38.725899   -8890.6233    2793.6033 
  100200    286.97351   -8840.7794    42.770677     -8883.55   -13801.702 
  100400    320.46568   -8837.3429    47.762366   -8885.1053    3269.0526 
  100600    279.80996   -8853.2051    41.703017   -8894.9081   -25427.769 
  100800    305.09352   -8845.8273    45.471291   -8891.2986   -5746.4991 
  101000      292.061    -8839.685    43.528919   -8883.2139    -2269.088 
  101200    333.61431   -8829.1628    49.722045   -8878.8849   -1003.3718 
  101400    298.91351   -8847.8115     44.55022   -8892.3617   -4775.6137 
  101600    294.73443   -8844.4171    43.927367   -8888.3445    16237.619 
  101800    317.98379   -8833.8651    47.392464   -8881.2576    6110.3352 
  102000    279.83991   -8841.9569    41.707481   -8883.6643   -39169.919 
  102200    284.93591   -8849.8069    42.466992   -8892.2738    83.329907 
  102400    335.79375   -8831.6068    50.046869   -8881.6537     20396.04 
  102600    297.24672   -8831.1969      44.3018   -8875.4987    18979.008 
  102800    293.85898   -8853.7671    43.796891    -8897.564   -29353.574 
  103000     268.2507   -8844.3096    39.980219   -8884.2898    4527.1446 
  103200    311.86304    -8833.008    46.480224   -8879.4882   -16067.083 
  103400    273.64057   -8849.1687    40.783529   -8889.9523    45089.424 
  103600    241.82968   -8849.7547    36.042417   -8885.7971   -43894.903 
  103800    294.11625   -8839.2427    43.835234   -8883.0779   -26950.805 
  104000    240.74453   -8851.1345    35.880686   -8887.0152    9369.5385 
  104200    300.58544    -8835.131    44.799406   -8879.9305   -54170.341 
  104400    267.02358   -8844.2874    39.797329   -8884.0847    26726.328 
  104600    301.89506    -8843.143    44.994591   -8888.1376   -9702.4961 
  104800    259.71188   -8835.7211    38.707589   -8874.4287    16762.723 
  105000    270.57283    -8851.207     40.32631   -8891.5333    12902.646 
  105200    305.33348    -8845.666    45.507055   -8891.1731    7135.1455 
  105400    284.58466   -8840.5291    42.414641   -8882.9437   -29564.975 
  105600    329.09017   -8837.7439    49.047764   -8886.7917    815.26174 
  105800    347.11923   -8837.7826    51.734824   -8889.5174    6480.9598 
  106000    280.40372   -8850.5618    41.791511   -8892.3533   -45209.482 
  106200    306.88919   -8835.7935    45.738919   -8881.5324    11316.056 
  106400    279.16504   -8845.6387    41.606898   -8887.2456    26858.674 
  106600     312.1092   -8841.2293    46.516912   -8887.7462    13545.476 
  106800    354.75657   -8833.5724    52.873097   -8886.4455    30813.314 
  107000     280.8324    -8844.957    41.855402   -8886.8124    18958.366 
  107200    303.84232   -8836.8669    45.284812   -8882.1517    15176.587 
  107400    356.81219   -8829.2438    53.179467   -8882.4232   -63363.383 
  107600    259.85295   -8843.9683    38.728614    -8882.697   -27655.853 
  107800     306.5732   -8834.5375    45.691823   -8880.2293   -9962.4989 
  108000    292.71496   -8849.2717    43.626384    -8892.898   -18777.991 
  108200     292.9093   -8845.9587    43.655349   -8889.6141    36018.597 
  108400    356.08784   -8832.1546     53.07151   -8885.2261    6209.8517 
  108600     310.6589   -8840.1744    46.300758   -8886.4752   -30109.958 
  108800    257.43262   -8846.0588    38.367887   -8884.4267   -13548.851 
  109000    347.54761   -8834.7006     51.79867   -8886.4992     67679.35 
  109200    251.57544   -8849.8613     37.49493   -8887.3563   -29510.882 
  109400     310.8196   -8842.4944    46.324709   -8888.8191    10119.527 
  109600    317.43961   -8832.2773     47.31136   -8879.5887   -45649.405 
  109800    273.19246   -8819.9081    40.716741   -8860.6248   -32221.158 
  110000    307.98179   -8842.7163    45.901761   -8888.6181    16215.248 
  110200    362.13381   -8835.5911    53.972604   -8889.5637    22006.252 
  110400    342.87666   -8828.3189     51.10251   -8879.4214   -12404.254 
  110600    286.50561   -8844.1438     42.70094   -8886.8447   -22728.821 
  110800    319.52989   -8833.2713    47.622895   -8880.8942    104733.09 
  111000    313.87465   -8845.7163    46.780035   -8892.4963    64788.554 
  111200    353.41035   -8838.8867    52.672457   -8891.5592    26864.011 
  111400     329.2734   -8836.4834    49.075074   -8885.5585    53762.448 
  111600     307.6977   -8840.1728     45.85942   -8886.0322   -22504.246 
  111800    285.58923   -8840.1032    42.564362   -8882.6676    66168.486 
  112000    276.29304   -8852.7508    41.178854   -8893.9296    17759.464 
  112200     282.7998   -8839.7924    42.148625   -8881.9411    22441.466 
  112400    345.74345    -8835.751    51.529778   -8887.2807    8451.1538 
  112600    319.67613   -8837.7694    47.644692   -8885.4141   -17200.132 
  112800    269.19858   -8854.8118    40.121492   -8894.9333    15012.447 
  113000    283.39046   -8846.6552    42.236657   -8888.8918    20375.639 
  113200    323.91952   -8835.9818    48.277128    -8884.259   -37153.085 
  113400    275.77464   -8850.1383    41.101591   -8891.2399    11631.303 
  113600    264.54915    -8847.851    39.428538   -8887.2796    4372.1728 
  113800    272.86993   -8841.9205    40.668671   -8882.5892    28081.613 
  114000    299.06485   -8843.3939    44.572776   -8887.9667    -10356.15 
  114200    314.82409    -8842.655    46.921541   -8889.5765    1255.1611 
  114400    315.93746   -8829.7457    47.087479   -8876.8331    24331.482 
  114600    286.15401   -8839.4223    42.648537   -8882.0708    32404.806 
  114800    279.70026   -8847.7925    41.686667   -8889.4791    -4309.451 
  115000    351.21051   -8829.9157    52.344591   -8882.2603   -15722.519 
  115200    292.63685   -8842.6193    43.614743    -8886.234   -8813.5604 
  115400    253.81072   -8846.2439    37.828078    -8884.072    168.52536 
  115600    312.11348   -8838.0849     46.51755   -8884.6025   -41439.745 
  115800    350.66558   -8837.4992    52.263374   -8889.7626    27153.865 
  116000    253.48024   -8851.8739    37.778822   -8889.6527    34297.546 
  116200    317.79944   -8845.3286    47.364989   -8892.6936   -4168.8974 
  116400    295.41498   -8839.1555    44.028797   -8883.1843    19128.959 
  116600     277.5426   -8848.1905    41.365089   -8889.5555    190.61119 
  116800    242.67467   -8849.2053    36.168355   -8885.3737   -31380.802 
  117000    314.82261   -8837.6749    46.921319   -8884.5962    -127.7987 
  117200    268.32741   -8850.9439    39.991652   -8890.9355    2741.5391 
  117400    336.03708   -8845.2791    50.083135   -8895.3623    33150.587 
  117600    379.82218   -8835.1465    56.608888   -8891.7554     50656.76 
  117800    282.88948   -8850.5215     42.16199   -8892.6835   -36233.869 
  118000    329.50553   -8833.5183    49.109669    -8882.628   -8065.4522 
  118200    342.24565   -8835.3469    51.008464   -8886.3554    186.49803 
  118400    311.24234      -8848.3    46.387714   -8894.6877   -17082.209 
  118600    225.36536   -8862.7434    33.588566   -8896.3319     6782.561 
  118800    260.69987   -8847.5931     38.85484   -8886.4479    3661.0591 
  119000    306.65163   -8843.3939    45.703514   -8889.0974   -13622.284 
  119200    298.05635   -8842.1624    44.422467   -8886.5849   -14710.827 
  119400    289.76653   -8835.0539     43.18695   -8878.2408   -45114.091 
  119600    275.86283    -8846.303    41.114735   -8887.4177     8449.272 
  119800    288.46985   -8845.8602    42.993692   -8888.8539   -14774.376 
  120000    297.96507    -8838.067    44.408863   -8882.4759    11138.801 
  120200    313.83228   -8843.8992    46.773721    -8890.673   -655.47048 
  120400    365.25826   -8834.2802    54.438275   -8888.7185   -5472.0022 
  120600    243.71985   -8844.6225     36.32413   -8880.9466   -6347.2004 
  120800    311.38065   -8844.0171    46.408328   -8890.4254   -12844.246 
  121000    335.78816   -8826.1177    50.046037   -8876.1637    10872.166 
  121200    336.75563   -8841.6128    50.190228   -8891.8031    1118.3227 
  121400    297.88386   -8842.0129     44.39676   -8886.4096    14348.501 
  121600    297.57051   -8834.1352    44.350058   -8878.4852   -23541.997 
  121800    334.27881   -8840.3647    49.821082   -8890.1858   -21271.553 
  122000    299.80142   -8845.9407    44.682554   -8890.6233   -18813.706 
  122200    264.32886   -8854.5531    39.395706   -8893.9488    17550.107 
  122400    329.81859   -8842.9047    49.156329    -8892.061   -5155.3162 
  122600    306.42343   -8844.5554    45.669502   -8890.2249    28525.227 
  122800    330.84253   -8829.4171    49.308936   -8878.7261   -10153.961 
  123000    310.90511   -8847.0511    46.337454   -8893.3885     5273.828 
  123200    296.66205   -8841.8471    44.214661   -8886.0618   -6191.8704 
  123400     325.3678   -8828.8509    48.492981   -8877.3439    66841.357 
  123600    286.06046   -8842.7395    42.634595   -8885.3741   -7005.2831 
  123800    278.29061   -8843.4296    41.476572   -8884.9061    -14095.02 
  124000    285.88488   -8832.3986    42.608426    -8875.007     19098.97 
  124200    307.32153   -8837.2558    45.803356   -8883.0591   -33628.841 
  124400    262.16202   -8850.2333     39.07276   -8889.3061   -4341.0256 
  124600    298.05948   -8833.9554    44.422935   -8878.3783    -43315.81 
  124800    318.85849   -8841.1582    47.522829    -8888.681    2227.1052 
  125000     275.3629   -8845.9374    41.040225   -8886.9776   -46630.234 
  125200    292.94315    -8843.164    43.660394   -8886.8244    10143.896 
  125400     359.9342   -8828.6623    53.644775   -8882.3071    18332.415 
  125600    280.43577   -8838.0244    41.796287   -8879.8207    8273.2182 
  125800    308.49909   -8845.2706    45.978859   -8891.2494   -58003.058 
  126000    304.81376   -8835.0555    45.429597   -8880.4851    45069.189 
  126200    358.98971    -8831.722    53.504007    -8885.226   -3865.3859 
  126400    274.80309    -8844.733     40.95679   -8885.6898    11239.787 
  126600    321.21895   -8832.8408    47.874634   -8880.7155    1191.5741 
  126800    269.73849   -8847.1531     40.20196    -8887.355    17193.217 
  127000     256.7396    -8845.874    38.264599   -8884.1386   -53619.373 
  127200    283.25516   -8838.2283    42.216491   -8880.4448     11120.91 
  127400    338.44249   -8838.0797    50.441638   -8888.5213   -3445.7746 
  127600    261.94874   -8850.9827    39.040972   -8890.0236    18479.421 
  127800    305.77301   -8845.5367    45.572564   -8891.1092    86157.935 
  128000    292.71691   -8835.9018    43.626676   -8879.5285    2575.3756 
  128200    333.14705   -8841.2909    49.652404   -8890.9433    7305.4892 
  128400    256.83754   -8844.6172    38.279196   -8882.8964     -32595.6 
  128600    328.36594   -8832.6814    48.939824   -8881.6212   -6966.1633 
  128800    235.87596   -8848.7185    35.155072   -8883.8736   -19028.034 
  129000    311.82626   -8838.7278    46.474743   -8885.2026   -22616.077 
  129200    264.65128   -8832.8482     39.44376   -8872.2919    32534.964 
  129400    309.93129   -8839.2793    46.192316   -8885.4716    -41508.89 
  129600    265.70084   -8846.3885    39.600186   -8885.9887   -14728.491 
  129800    352.76282   -8827.9634    52.575948   -8880.5393   -13138.955 
  130000    295.51399   -8840.8433    44.043554   -8884.8869    -12186.32 
  130200    269.77675   -8843.3672    40.207662   -8883.5748   -11094.246 
  130400    320.42862   -8839.2275    47.756843   -8886.9844    4162.7827 
  130600    307.11011   -8838.5085    45.771846   -8884.2803   -14182.832 
  130800    326.80008   -8835.5901    48.706448   -8884.2966    12482.802 
  131000    299.85367   -8842.8979    44.690342   -8887.5882   -26030.321 
  131200     291.7146   -8846.7801    43.477291   -8890.2574    13100.043 
  131400    312.59019   -8829.3345    46.588599   -8875.9231   -23314.573 
  131600    315.13399    -8842.509    46.967728   -8889.4767   -25468.698 
  131800    286.08508   -8844.8802    42.638264   -8887.5185   -32185.829 
  132000    345.14112   -8829.6759    51.440005   -8881.1159   -17323.645 
  132200    279.89941   -8842.5322    41.716349   -8884.2486   -1636.6885 
  132400    266.03064   -8845.6141     39.64934   -8885.2634   -5149.6049 
  132600     220.0639   -8857.5767    32.798434   -8890.3752   -20983.202 
  132800    279.91713   -8839.6764     41.71899   -8881.3954   -40898.922 
  133000    305.29765   -8840.9998    45.501716   -8886.5015     -11508.5 
  133200      251.946   -8844.6249    37.550159   -8882.1751    18801.375 
  133400    321.50247   -8833.3155     47.91689   -8881.2323    10180.042 
  133600    338.82679   -8844.6889    50.498915   -8895.1878    24935.222 
  133800     269.7372   -8853.6818    40.201768   -8893.8836    18206.772 
  134000    291.38998   -8843.8079    43.428909   -8887.2368    33476.889 
  134200    282.16383   -8837.2378    42.053839   -8879.2917   -4073.3826 
  134400    351.12191   -8827.5733    52.331386   -8879.9046    -17390.44 
  134600     270.9454    -8848.403    40.381838   -8888.7849   -13183.958 
  134800      309.375   -8836.8897    46.109406   -8882.9991    30283.132 
  135000    238.47278   -8851.2174    35.542102   -8886.7595     17244.09 
  135200    264.72912   -8842.6337     39.45536   -8882.0891   -9332.4405 
  135400    322.18767   -8841.1165    48.019012   -8889.1355    25845.724 
  135600    293.37899   -8849.9154    43.725352   -8893.6408    10748.928 
  135800    278.08011   -8838.0848    41.445199     -8879.53   -16173.862 
  136000    310.72914   -8837.4141    46.311227   -8883.7254   -16733.643 
  136200    304.05769   -8842.9767     45.31691   -8888.2936   -55772.845 
  136400    386.02447    -8823.742     57.53328   -8881.2753   -6796.8741 
  136600    306.72754   -8833.9101    45.714827   -8879.6249   -12750.039 
  136800    316.11723   -8841.8392     47.11427   -8888.9534    -26312.99 
  137000    284.79295   -8851.8777    42.445685   -8894.3234    -26012.44 
  137200    286.73644   -8841.3206    42.735343   -8884.0559    24330.769 
  137400    270.06677   -8843.0567    40.250887   -8883.3076     13776.52 
  137600    244.76346    -8859.142     36.47967   -8895.6217    1785.9599 
  137800    263.14223   -8843.6907    39.218851   -8882.9096   -34199.254 
  138000    277.09522    -8842.339    41.298411   -8883.6374    6464.0147 
  138200    298.37584   -8841.5574    44.470085   -8886.0275    30446.406 
  138400    339.10287   -8833.3418    50.540063   -8883.8819    36364.486 
  138600     286.7288   -8847.4198    42.734204    -8890.154   -1875.3507 
  138800     322.1419   -8842.0932    48.012191   -8890.1054   -17202.506 
  139000    319.13928   -8844.3383    47.564679    -8891.903   -14206.728 
  139200    354.66214    -8830.599    52.859023    -8883.458   -33184.422 
  139400    324.90026   -8843.4365    48.423299   -8891.8598   -29553.086 
  139600    254.72404   -8846.6956    37.964199   -8884.6598   -32323.489 
  139800    357.71615   -8834.6144    53.314195   -8887.9286   -39263.694 
  140000    262.46839   -8842.9371    39.118421   -8882.0556   -22366.703 
  140200    334.75154   -8841.6909    49.891538   -8891.5824    15166.924 
  140400    220.61443   -8852.7005    32.880485    -8885.581    25151.243 
  140600     282.3833   -8837.7987    42.086549   -8879.8852    35384.081 
  140800    273.11841   -8846.3182    40.705705   -8887.0239   -36556.482 
  141000    352.45045   -8836.6621    52.529392   -8889.1915    72806.851 
  141200    342.93147   -8834.2676    51.110679   -8885.3783    6831.9782 
  141400    308.24888   -8843.0075    45.941569    -8888.949    3815.3989 
  141600    336.49001   -8837.4844    50.150639   -8887.6351    12041.552 
  141800    360.87213   -8831.9328    53.784564   -8885.7174    -13965.58 
  142000    303.68816   -8842.5831    45.261835   -8887.8449    10390.847 
  142200    300.43508   -8850.0289    44.776996   -8894.8059   -23562.177 
  142400    284.36795    -8854.776    42.382343   -8897.1583    7711.3147 
  142600    265.68531   -8842.3583    39.597872   -8881.9562    1169.6288 
  142800    336.69893   -8838.9677    50.181778   -8889.1495   -7157.2196 
  143000    274.95257   -8849.5854     40.97907   -8890.5645   -14744.856 
  143200    269.21462   -8845.2398    40.123883   -8885.3637   -17341.871 
  143400    304.16886   -8831.4757    45.333479   -8876.8092   -18497.058 
  143600     282.5156   -8849.5285    42.106268   -8891.6348    2005.2848 
  143800    329.69205   -8843.3399    49.137469   -8892.4774    2006.0569 
  144000    342.32876   -8832.7919    51.020851   -8883.8128    4921.4626 
  144200    310.39184   -8849.2144    46.260955   -8895.4754    9125.8404 
  144400    290.82233   -8848.6242    43.344306   -8891.9685     21773.95 
  144600    293.47282   -8836.8964    43.739336   -8880.6357   -6311.3684 
  144800    279.15792   -8842.8162    41.605836    -8884.422    20159.001 
  145000    238.66276   -8857.8132    35.570418   -8893.3836   -19148.534 
  145200    273.38248   -8842.8515    40.745062   -8883.5966    3333.8885 
  145400    301.06074    -8839.046    44.870245   -8883.9162    29920.206 
  145600    327.46751   -8826.6569    48.805922   -8875.4629   -14217.675 
  145800    299.25846   -8844.0361    44.601631   -8888.6378    17918.045 
  146000    289.50678   -8844.9771    43.148236   -8888.1253   -2928.8409 
  146200    353.00202   -8825.1897    52.611599   -8877.8013   -23286.359 
  146400    338.68138   -8840.4031    50.477243   -8890.8803   -12614.048 
  146600    271.34964     -8842.55    40.442087   -8882.9921    20390.321 
  146800    370.16261   -8831.1229    55.169221   -8886.2921   -10790.379 
  147000    291.20653   -8841.9243    43.401568   -8885.3259   -12239.105 
  147200    259.01321   -8849.2285    38.603459    -8887.832   -6871.8554 
  147400    324.79904   -8832.4536    48.408212   -8880.8619   -34558.565 
  147600    378.93157   -8824.6795    56.476152   -8881.1556   -31918.908 
  147800    270.68595    -8845.441     40.34317   -8885.7841    13554.581 
  148000    300.07997   -8844.8657    44.724069   -8889.5898    59625.425 
  148200    309.06868     -8830.92    46.063751   -8876.9838    17856.319 
  148400    336.18115   -8838.9855    50.104607   -8889.0902   -62205.019 
  148600    328.33794   -8843.4476    48.935652   -8892.3833    3811.1974 
  148800    266.51074   -8853.7646    39.720894   -8893.4855   -14915.094 
  149000    323.93068   -8834.4103    48.278792   -8882.6891     32006.35 
  149200    300.51119   -8843.8332    44.788339   -8888.6215   -31916.719 
  149400    269.82998   -8854.8539    40.215595   -8895.0695    -17869.15 
  149600     301.7802   -8847.4017    44.977473   -8892.3792   -19521.496 
  149800    346.50196    -8838.731    51.642826   -8890.3738   -16155.633 
  150000    279.74107   -8849.3999    41.692749   -8891.0927   -16059.378 
  150200    276.31897   -8855.2057    41.182718   -8896.3885    10736.869 
  150400    367.29134   -8837.6567    54.741285    -8892.398   -1729.0589 
  150600    325.66145   -8842.7615    48.536747   -8891.2983    9604.5735 
  150800    296.02884   -8852.4012    44.120287   -8896.5215    38759.037 
  151000    292.11924   -8836.0475    43.537598   -8879.5851    41093.754 
  151200    314.61265   -8839.5907    46.890028   -8886.4808    178.96244 
  151400     289.0791   -8847.6554    43.084494   -8890.7399   -18189.803 
  151600    297.75156   -8837.3639    44.377041    -8881.741   -29159.067 
  151800    297.06373   -8833.1369    44.274528   -8877.4114   -15366.254 
  152000    251.80664   -8849.2344    37.529388   -8886.7638    10212.944 
  152200    355.47096    -8837.267     52.97957   -8890.2466   -14864.424 
  152400    309.54549   -8841.9246    46.134815   -8888.0594   -21345.804 
  152600    272.67779   -8852.4529    40.640034   -8893.0929    12116.276 
  152800    351.14994   -8834.1403    52.335563   -8886.4758    -8733.693 
  153000    310.35351   -8839.8351    46.255243   -8886.0904   -13600.172 
  153200    290.57731   -8853.1017    43.307788   -8896.4094    14207.781 
  153400    337.87067   -8832.3921    50.356414   -8882.7485   -3735.1484 
  153600    299.40172   -8842.5957    44.622983   -8887.2187    7541.0409 
  153800    304.67392   -8848.3079    45.408754   -8893.7167    6459.9511 
  154000    326.25304   -8827.0513    48.624917   -8875.6762    9624.3108 
  154200    288.42007   -8840.1703    42.986272   -8883.1566   -20916.986 
  154400     312.2844   -8845.9764    46.543024   -8892.5194    19619.239 
  154600    377.69937   -8833.3453    56.292503   -8889.6378    15910.502 
  154800    300.58738    -8833.269    44.799694   -8878.0687   -7249.6572 
  155000    275.18322   -8842.6593    41.013445   -8883.6727    9740.3118 
  155200    308.03133   -8833.1539    45.909144   -8879.0631   -7820.2731 
  155400    314.33231     -8835.56    46.848245   -8882.4082    16052.846 
  155600     274.5682   -8847.4517    40.921782   -8888.3734    7614.5149 
  155800    318.80046   -8831.8306    47.514181   -8879.3448    28216.126 
  156000    273.72992   -8846.7636    40.796844   -8887.5605   -18792.378 
  156200    288.13027   -8844.7016     42.94308   -8887.6447    2112.2209 
  156400    316.81749   -8832.6024    47.218638    -8879.821    -9191.229 
  156600    260.86645   -8848.0108    38.879667   -8886.8905    45324.317 
  156800    255.94129   -8866.6141    38.145618   -8904.7598   -5072.9358 
  157000    243.10278   -8854.2018     36.23216    -8890.434    23479.372 
  157200    295.76077   -8837.2505    44.080333   -8881.3308   -2965.9791 
  157400    313.65063   -8840.8037    46.746648   -8887.5504    7571.0518 
  157600    288.38274   -8851.5726    42.980709   -8894.5533   -21951.913 
  157800    287.34611    -8830.476    42.826209   -8873.3022    29367.131 
  158000    307.15111   -8844.4984    45.777955   -8890.2764    1001.6757 
  158200    285.62353   -8849.2484    42.569475   -8891.8178    50248.061 
  158400    341.43606   -8829.0024    50.887802   -8879.8902    21901.067 
  158600    255.81245   -8841.9035    38.126417   -8880.0299    20773.385 
  158800    299.75334   -8845.5635    44.675389   -8890.2389   -11962.443 
  159000      278.618   -8836.4839    41.525367   -8878.0092   -46864.963 
  159200    330.20382   -8832.8652    49.213744   -8882.0789   -11704.449 
  159400    243.85885   -8851.5041    36.344845   -8887.8489   -31210.675 
  159600    291.40996    -8838.179    43.431887   -8881.6108    8003.0247 
  159800    322.60039   -8834.9051    48.080525   -8882.9856   -13996.231 
  160000    300.24242    -8845.654    44.748281   -8890.4023    4931.2638 
  160200    344.91326   -8837.6524    51.406046   -8889.0585    40998.467 
  160400    355.19101   -8831.0536    52.937847   -8883.9914    3709.4698 
  160600    294.05193   -8844.9647    43.825648   -8888.7904   -26436.617 
  160800    327.48988   -8837.3819    48.809257   -8886.1912    9512.8332 
  161000      340.898   -8836.5744    50.807609    -8887.382   -27439.067 
  161200    279.52449   -8846.8882    41.660471   -8888.5487   -5789.6648 
  161400    286.51839   -8838.1994    42.702845   -8880.9022   -14259.412 
  161600     317.3689   -8828.2378    47.300821   -8875.5386   -52875.656 
  161800    287.41657   -8844.5531     42.83671   -8887.3898    6014.7502 
  162000    311.66599   -8840.8486    46.450856   -8887.2994   -4058.6504 
  162200    293.17446   -8828.0501    43.694868    -8871.745   -19122.661 
  162400    291.96411   -8840.7609    43.514477   -8884.2754    6096.0799 
  162600    234.64105   -8846.5898     34.97102   -8881.5608    9357.0404 
  162800    316.03025   -8836.8339    47.101307   -8883.9352   -54494.738 
  163000    323.73315   -8835.1083    48.249351   -8883.3576    28916.263 
  163200    282.54137   -8847.1394    42.110108   -8889.2495    65248.055 
  163400    352.58457   -8833.9373    52.549382   -8886.4867    17418.971 
  163600    326.49268   -8843.5921    48.660634   -8892.2528    17349.603 
  163800    330.41352   -8844.0451    49.244997   -8893.2901   -28338.582 
  164000    276.08347   -8837.6519    41.147619   -8878.7995    17414.994 
  164200    289.63432   -8855.4059    43.167245   -8898.5731   -19338.271 
  164400    274.35394   -8842.9912    40.889849    -8883.881   -14336.753 
  164600    281.95899   -8845.1832     42.02331   -8887.2065   -15964.583 
  164800    300.16273   -8845.1196    44.736404    -8889.856   -37387.405 
  165000    320.91899   -8830.9958    47.829928   -8878.8257    11838.244 
  165200    257.05152   -8846.6318    38.311088   -8884.9429   -53226.869 
  165400    342.42279   -8842.9608    51.034865   -8893.9957    5302.5278 
  165600    275.39964   -8856.4413    41.045701    -8897.487   -3415.0627 
  165800    305.48228   -8843.4817    45.529233    -8889.011    1070.6416 
  166000    272.60755   -8840.7338    40.629566   -8881.3634    37841.509 
  166200    318.43756    -8846.704    47.460094   -8894.1641    17472.534 
  166400    359.13727   -8841.2374       53.526   -8894.7634    39590.013 
  166600    315.78662   -8834.8363    47.064996   -8881.9013   -52947.854 
  166800     257.9122   -8850.4154    38.439364   -8888.8548   -39344.497 
  167000    295.03189   -8840.1458    43.971702   -8884.1175    9549.9506 
  167200    281.42908   -8830.0151    41.944331   -8871.9594   -5060.9401 
  167400    244.12427    -8852.641    36.384404   -8889.0254   -35296.248 
  167600    269.60362    -8837.579    40.181858   -8877.7609   -19510.973 
  167800    285.02759     -8836.22    42.480656   -8878.7006   -58085.916 
  168000    237.12045   -8854.1884     35.34055   -8889.5289   -28300.549 
  168200    253.70097   -8846.1951    37.811721   -8884.0069   -4111.6786 
  168400    323.60994   -8835.2576    48.230988   -8883.4886    7344.5795 
  168600    352.49031   -8837.0591    52.535333   -8889.5944    -7182.079 
  168800    263.96836   -8851.4877    39.341976   -8890.8296   -3531.7462 
  169000    346.47479   -8836.1536    51.638777   -8887.7924   -1405.4546 
  169200    367.91652   -8837.1524    54.834463   -8891.9868    8939.9381 
  169400     242.5465   -8854.0539    36.149252   -8890.2032    20315.611 
  169600     279.3474   -8849.9889    41.634077    -8891.623   -19944.824 
  169800    301.49753   -8840.2358    44.935343   -8885.1711   -30597.782 
  170000    305.30073   -8841.3424    45.502175   -8886.8446   -22765.669 
  170200    238.35533   -8852.3885    35.524598   -8887.9131    18269.965 
  170400    324.20157   -8832.9173    48.319165   -8881.2365   -3916.4624 
  170600    296.28348   -8841.3479    44.158239   -8885.5061    6061.1701 
  170800    246.15194   -8848.9981    36.686609   -8885.6847    24676.726 
  171000    320.41301   -8841.3766    47.754516   -8889.1311   -14596.813 
  171200    296.70067   -8832.1581    44.220416   -8876.3785    -31826.39 
  171400    262.49048   -8851.0131    39.121713   -8890.1348    13938.775 
  171600    299.24195   -8839.6333    44.599171   -8884.2325   -14416.186 
  171800    274.03548   -8841.5342    40.842385   -8882.3766    7528.0916 
  172000    225.72576   -8858.3202    33.642281   -8891.9625   -9123.0636 
  172200    327.69186   -8841.1726    48.839359   -8890.0119   -21109.711 
  172400    281.47977   -8838.8083    41.951886   -8880.7602   -13406.211 
  172600    359.44741   -8835.5126    53.572222   -8889.0848    -19557.34 
  172800    297.39801   -8848.2785    44.324349   -8892.6029    34413.467 
  173000    304.78857   -8842.2658    45.425841   -8887.6916   -5268.4981 
  173200    338.51935   -8831.9269    50.453094     -8882.38   -38831.605 
  173400    257.43614   -8850.5571    38.368412   -8888.9255    -7000.299 
  173600    288.12636   -8845.5643    42.942497   -8888.5068    -49092.55 
  173800    396.73548   -8822.9084    59.129655   -8882.0381   -32037.008 
  174000    345.06518   -8831.5305    51.428688   -8882.9592    15859.308 
  174200    324.01422   -8842.2878    48.291242   -8890.5791   -15477.845 
  174400    276.08989   -8848.6038    41.148576   -8889.7524    3913.4434 
  174600    290.65663    -8843.748     43.31961   -8887.0676   -16251.883 
  174800    305.01052   -8832.8754    45.458921   -8878.3344   -30.416992 
  175000    329.45853   -8838.4812    49.102665   -8887.5838   -13255.623 
  175200    263.39598    -8845.449     39.25667   -8884.7057   -18711.302 
  175400    309.98905   -8830.3299    46.200923   -8876.5308    18164.027 
  175600    315.00369   -8840.3687    46.948308    -8887.317   -992.98425 
  175800    346.22062   -8841.9838    51.600896   -8893.5847   -26084.337 
  176000    266.00917   -8846.5701     39.64614   -8886.2163    27103.758 
  176200    353.36792   -8830.1309    52.666133    -8882.797    1761.7138 
  176400    322.15565   -8844.8716     48.01424   -8892.8858    40926.522 
  176600    259.97026   -8842.7796    38.746098   -8881.5257   -8017.2561 
  176800    322.64349   -8830.7622    48.086948   -8878.8492   -33110.838 
  177000    314.73389   -8833.4384    46.908098   -8880.3465   -3950.4456 
  177200    277.78257   -8845.7607    41.400854   -8887.1616     16099.91 
  177400    312.26677   -8838.3668    46.540397   -8884.9072    8720.4645 
  177600    330.20201   -8831.1928    49.213473   -8880.4063    -7449.792 
  177800    271.69872   -8849.3559    40.494114     -8889.85    17847.667 
  178000    350.45439   -8836.3238    52.231899   -8888.5557   -280.60272 
  178200    302.65575   -8833.7441    45.107965   -8878.8521    15670.727 
  178400     254.7042     -8849.07    37.961242   -8887.0312    10893.259 
  178600    294.69976   -8837.1569      43.9222   -8881.0791    -41947.38 
  178800     320.5776    -8825.617    47.779046    -8873.396    3980.0677 
  179000     335.6305   -8841.7401    50.022539   -8891.7626   -4636.1824 
  179200    267.40918   -8850.8975    39.854798   -8890.7523    -4417.318 
  179400    327.28272    -8832.384     48.77838   -8881.1624   -10478.363 
  179600    339.31803   -8840.2957     50.57213   -8890.8678   -8409.9538 
  179800    293.79643   -8850.0645    43.787568   -8893.8521     43704.53 
  180000    303.64358   -8842.7473    45.255192   -8888.0024    37222.008 
  180200    274.75839   -8837.3074    40.950128   -8878.2576    -20386.74 
  180400    263.97745   -8852.7544    39.343331   -8892.0977    -32407.63 
  180600    252.31994   -8849.7993    37.605891   -8887.4052    1092.7543 
  180800    297.17554   -8844.4163    44.291191   -8888.7075    4360.7643 
  181000     316.6531    -8840.251    47.194137   -8887.4452     20453.48 
  181200    297.15648   -8838.6598    44.288351   -8882.9482   -28254.296 
[...]
  950000    231.20981    -8853.593    34.459627   -8888.0526     14122.51 
  950200    303.45964   -8844.0198    45.227778   -8889.2476    47149.747 
  950400    314.25189    -8836.588     46.83626   -8883.4242    5968.0654 
  950600     322.4251   -8836.7549    48.054399   -8884.8093    -3760.204 
  950800     298.2493   -8848.0809    44.451226   -8892.5322    -1803.044 
  951000    323.95904   -8831.3761    48.283017   -8879.6592    -15167.07 
  951200    313.40983   -8838.7788    46.710758   -8885.4895   -23500.394 
  951400    282.59938   -8847.2116    42.118753   -8889.3304    4406.4968 
  951600    227.00758   -8859.7754    33.833324   -8893.6087    11716.494 
  951800    311.37354   -8844.1036    46.407268   -8890.5108    7371.2247 
  952000    311.27953   -8834.1014    46.393258   -8880.4947    3396.1161 
  952200    323.94066   -8842.2571    48.280279   -8890.5374    -16215.17 
  952400    235.71535   -8848.4794    35.131134   -8883.6106   -13914.076 
  952600    287.51193   -8836.8556    42.850922   -8879.7065    -6870.326 
  952800    264.61447   -8841.9247    39.438273   -8881.3629   -2382.5381 
  953000    311.88941   -8857.5397    46.484154   -8904.0239   -17347.671 
  953200    313.12334   -8840.4467    46.668061   -8887.1147   -17255.123 
  953400    335.91646   -8836.3969    50.065159   -8886.4621   -5370.2284 
  953600     239.0172   -8850.9037    35.623244   -8886.5269   -4219.3498 
  953800     326.0241   -8834.8521    48.590796   -8883.4429   -17026.839 
  954000     340.5673   -8841.0807    50.758322    -8891.839   -5877.2975 
  954200    306.37532   -8845.3951    45.662331   -8891.0574   -2110.7585 
  954400    364.79357   -8824.4162    54.369018   -8878.7852    1857.9576 
  954600    360.15225   -8832.8536    53.677272   -8886.5309    21261.766 
  954800    249.83833   -8845.4084     37.23603   -8882.6444   -45035.916 
  955000    283.83556   -8845.0051    42.302994   -8887.3081     13185.09 
  955200    313.00827   -8831.6525    46.650909   -8878.3034    8298.1882 
  955400    270.20709   -8848.2027      40.2718   -8888.4745   -16332.053 
  955600    305.63576   -8839.5505    45.552107   -8885.1026   -23211.293 
  955800    304.87362   -8848.7584    45.438517   -8894.1969    1436.8061 
  956000    305.32159   -8851.7135    45.505283   -8897.2188    34336.031 
  956200    275.21783   -8837.4978    41.018604   -8878.5164    4157.9066 
  956400    318.51579   -8843.4855    47.471753   -8890.9572   -15827.646 
  956600    301.28239   -8847.7538    44.903279   -8892.6571   -51057.193 
  956800    335.73509   -8837.0433    50.038126   -8887.0815    32478.986 
  957000    266.35967   -8837.0793     39.69838   -8876.7777   -13491.925 
  957200    356.90369   -8833.2084    53.193105   -8886.4016    16742.904 
  957400    282.29127   -8839.2396    42.072832   -8881.3125    14424.112 
  957600    280.99886   -8846.8899    41.880212   -8888.7702    16646.563 
  957800     247.3715   -8849.4685    36.868372   -8886.3369   -15342.903 
  958000    377.36742   -8833.7241     56.24303   -8889.9671   -24338.093 
  958200    280.44695   -8845.3974    41.797954   -8887.1953    24234.491 
  958400    296.62697   -8846.3742    44.209433   -8890.5836    42526.872 
  958600    315.11418   -8833.0941    46.964776   -8880.0589   -60612.484 
  958800    305.31177   -8843.0108     45.50382   -8888.5146    5012.2983 
  959000    246.79091    -8852.551    36.781842   -8889.3329    26849.749 
  959200    346.04508   -8831.8597    51.574732   -8883.4345    4649.8972 
  959400    272.00075   -8842.1605    40.539129   -8882.6996   -1031.0381 
  959600     318.6088   -8841.3206    47.485615   -8888.8063   -25603.846 
  959800    332.41368   -8828.8219    49.543102    -8878.365   -49874.876 
  960000    283.59296    -8840.259    42.266837   -8882.5258    35255.368 
  960200    300.75486   -8841.1924    44.824656    -8886.017    11153.474 
  960400    270.64708    -8855.333    40.337376   -8895.6704   -6413.6016 
  960600    320.80059   -8839.4882    47.812282   -8887.3004   -33904.821 
  960800     294.3202    -8838.076    43.865631   -8881.9416    19558.876 
  961000    350.11789   -8832.2197    52.181746   -8884.4014   -17536.593 
  961200    268.00594   -8849.3351     39.94374   -8889.2788   -8150.9839 
  961400    255.74567   -8837.9905    38.116464    -8876.107   -21828.786 
  961600    300.28832   -8834.7631    44.755122   -8879.5182   -15164.769 
  961800    281.45095    -8847.213    41.947591   -8889.1606   -1821.0073 
  962000    257.41351    -8865.749    38.365039   -8904.1141    12406.044 
  962200     312.3483   -8852.1061    46.552548   -8898.6587   -6822.4997 
  962400    319.01384   -8837.7165    47.545983   -8885.2625    38711.331 
  962600    307.59609   -8840.6173    45.844276   -8886.4616    2910.3619 
  962800    286.63087   -8849.4631    42.719609   -8892.1827    51786.562 
  963000    305.68393   -8836.0028    45.559286   -8881.5621    6388.2544 
  963200    326.46396   -8842.9354    48.656353   -8891.5917   -1320.1655 
  963400    280.08382   -8851.4057    41.743833   -8893.1495     56216.04 
  963600    332.63905   -8839.2419    49.576691   -8888.8186    27187.531 
  963800    357.83895   -8841.0429    53.332497   -8894.3754    -11602.18 
  964000    265.85382   -8851.8373    39.622987   -8891.4603    10206.425 
  964200     332.1462   -8834.9476    49.503236   -8884.4508   -22468.299 
  964400    325.10572    -8837.769     48.45392    -8886.223    40218.928 
  964600    275.72576   -8855.0394    41.094305   -8896.1337   -22052.078 
  964800    251.20844   -8851.8457    37.440232   -8889.2859    19616.282 
  965000    296.38133   -8838.9975    44.172822   -8883.1703   -17072.197 
  965200    318.97762   -8841.6333    47.540585   -8889.1739   -14642.314 
  965400    241.81634   -8855.5015     36.04043   -8891.5419    15989.108 
  965600     333.5249   -8837.9552    49.708718   -8887.6639   -18190.876 
  965800    295.89346   -8843.0928     44.10011   -8887.1929     14657.33 
  966000    248.54186   -8851.6269    37.042804   -8888.6697    17395.183 
  966200    370.70822   -8837.9474    55.250539   -8893.1979    27747.553 
  966400    261.05494    -8847.399    38.907759   -8886.3067    27977.909 
  966600    285.78544   -8839.0724    42.593606    -8881.666   -5565.3691 
  966800    290.43587   -8834.6013    43.286708    -8877.888   -11709.108 
  967000     321.6653   -8848.4582    47.941159   -8896.3993   -27771.479 
  967200    329.95547   -8843.3146     49.17673   -8892.4914   -19643.347 
  967400    303.05338   -8844.9829    45.167228   -8890.1501    4234.2805 
  967600    321.64978   -8838.7394    47.938845   -8886.6783   -12394.922 
  967800    301.02268   -8838.3018    44.864571   -8883.1664     57014.94 
  968000    292.02508   -8843.2332    43.523565   -8886.7568   -7265.7813 
  968200     273.6466   -8850.9502    40.784427   -8891.7347    15551.574 
  968400    322.21799   -8851.9175    48.023532    -8899.941   -1124.3886 
  968600    333.90345   -8840.1228    49.765138    -8889.888   -7006.6367 
  968800    309.57332    -8845.678    46.138963    -8891.817     17200.29 
  969000      212.818   -8858.1496    31.718502   -8889.8681    41605.994 
  969200     316.2122   -8840.4679    47.128425   -8887.5963    39205.078 
  969400    298.94103   -8836.2306    44.554321   -8880.7849   -25830.703 
  969600    263.13564   -8851.7801    39.217868    -8890.998    20460.305 
  969800    300.94133   -8841.2218    44.852446   -8886.0743    4562.0216 
  970000    267.14957   -8836.0444    39.816106   -8875.8605    4844.3294 
  970200     267.2587   -8848.0163     39.83237   -8887.8487   -5561.8291 
  970400    250.31852   -8854.4529    37.307598   -8891.7605    12086.686 
  970600    284.67433   -8843.0463    42.428005   -8885.4743    16125.812 
  970800    277.35553   -8840.5455    41.337208   -8881.8827    28056.246 
  971000    372.31805   -8830.7086    55.490469    -8886.199   -11512.654 
  971200     259.9643    -8844.209     38.74521   -8882.9542   -3032.3177 
  971400    270.54235   -8842.5725    40.321768   -8882.8943   -20987.398 
  971600    294.91775    -8831.553     43.95469   -8875.5076    9639.3783 
  971800    278.72578   -8851.3828     41.54143   -8892.9242   -19718.536 
  972000    322.28097   -8840.3396    48.032917   -8888.3726    32079.097 
  972200    361.37993   -8832.4701    53.860246   -8886.3303   -822.66247 
  972400    271.85204   -8853.7141    40.516964    -8894.231    17039.701 
  972600    369.88314   -8838.8598    55.127569   -8893.9873   -3726.4161 
  972800    267.55088    -8841.835    39.875917   -8881.7109   -51822.374 
  973000    247.40676   -8858.5972    36.873628   -8895.4708    18526.222 
  973200    298.76294    -8843.204    44.527779   -8887.7318    49570.449 
  973400     350.2626   -8834.1007    52.203314   -8886.3041   -19989.229 
  973600    337.98197   -8841.1597    50.373002   -8891.5327   -35329.423 
  973800    306.14477   -8854.3086     45.62797   -8899.9365   -8443.5916 
  974000    253.32682   -8839.3477    37.755956   -8877.1037   -15175.341 
  974200    328.24126   -8834.4957    48.921243    -8883.417   -19967.457 
  974400    268.39746   -8850.3318    40.002092   -8890.3339    26769.061 
  974600    269.38875   -8840.3594    40.149835   -8880.5092   -17532.833 
  974800      347.738   -8839.9225    51.827046   -8891.7495   -12701.417 
  975000    221.20657   -8854.3486    32.968738   -8887.3173   -4862.0602 
  975200    290.85527   -8853.2084    43.349216   -8896.5576   -17501.942 
  975400    316.30021   -8842.4856    47.141542   -8889.6271    10025.023 
  975600    360.94428   -8827.2385    53.795317   -8881.0338    9015.9033 
  975800    283.32397   -8848.6865    42.226746   -8890.9133   -18428.653 
  976000    286.13975   -8844.7608    42.646412   -8887.4072   -18697.294 
  976200     291.1835   -8830.4458    43.398135   -8873.8439   -18895.889 
  976400    304.68037   -8846.9548    45.409715   -8892.3645    12067.998 
  976600    251.51932   -8848.5462    37.486565   -8886.0328    45462.688 
  976800    307.19365   -8835.8469    45.784296   -8881.6312    40855.505 
  977000    303.97396   -8841.1102    45.304431   -8886.4146    9419.7498 
  977200    279.22933   -8849.8529     41.61648   -8891.4693    9087.5161 
  977400    322.50476   -8836.2495    48.066272   -8884.3158    43818.747 
  977600    318.59287   -8839.9181    47.483241   -8887.4014    11611.588 
  977800    237.72561   -8857.4883    35.430745    -8892.919    39136.773 
  978000    240.94823   -8849.9418    35.911045   -8885.8528    61611.967 
  978200    362.74751   -8838.4579    54.064071    -8892.522   -21546.482 
  978400    249.24475    -8840.827    37.147563   -8877.9745    27295.596 
  978600    245.47461   -8853.8474     36.58566    -8890.433   -18708.095 
  978800    342.55351   -8837.2527    51.054348    -8888.307    18218.391 
  979000    295.54689   -8839.1347    44.048458   -8883.1831    26371.226 
  979200    256.49697   -8850.1156    38.228437    -8888.344    3252.4902 
  979400    305.44395   -8851.3461    45.523519   -8896.8697   -9767.5458 
  979600    281.14951   -8838.3953    41.902664    -8880.298    -33813.48 
  979800    325.14883   -8839.6623    48.460345   -8888.1226    -10996.17 
  980000    248.23037   -8855.0006    36.996379   -8891.9969   -8053.4681 
  980200    289.67094   -8842.4704    43.172702   -8885.6431   -27167.781 
  980400    274.29537   -8843.2709     40.88112    -8884.152   -14489.623 
  980600    287.94495   -8837.7724    42.915459   -8880.6879   -8053.2555 
  980800    250.95827   -8848.3777    37.402946   -8885.7807   -24415.378 
  981000    300.44835   -8850.6299    44.778973   -8895.4089   -34948.796 
  981200    279.05649   -8836.8458     41.59072   -8878.4366   -15153.094 
  981400    298.34215   -8848.2825    44.465064   -8892.7476    32669.264 
  981600    299.99577   -8835.3861     44.71152   -8880.0976    21612.146 
  981800     329.2668   -8830.9475     49.07409   -8880.0216    49341.121 
  982000    297.61747   -8846.2534    44.357057   -8890.6105    23174.725 
  982200     306.7892   -8840.3519    45.724017   -8886.0759    71173.714 
  982400    343.37838   -8823.5646    51.177287   -8874.7419    42883.498 
  982600    299.15588   -8841.5234    44.586343   -8886.1097    30228.775 
  982800    284.02418   -8848.3649    42.331107    -8890.696   -16757.891 
  983000    277.68165   -8854.4736    41.385813   -8895.8594    44938.237 
  983200    313.16628    -8834.275     46.67446   -8880.9495   -396.55801 
  983400    253.66272    -8847.046     37.80602    -8884.852    7791.5367 
  983600    252.93007   -8843.5462    37.696825    -8881.243    28051.683 
  983800    348.64135   -8835.5243    51.961683    -8887.486    16879.619 
  984000     262.9264   -8837.7455    39.186683   -8876.9321   -10274.003 
  984200    308.21768   -8846.9719    45.936917   -8892.9088   -25037.285 
  984400     256.9911   -8852.7674    38.302082   -8891.0695    -14011.69 
  984600    376.66109    -8832.911    56.137758   -8889.0488    30969.577 
  984800    267.63618   -8846.1779    39.888631   -8886.0665    25044.101 
  985000    295.17934   -8849.6437    43.993677   -8893.6374   -30194.508 
  985200    291.29216   -8841.9912     43.41433   -8885.4056    15634.037 
  985400    389.31159   -8836.3461    58.023194   -8894.3693   -8837.6475 
  985600    282.75533   -8851.7245    42.141997   -8893.8665    6229.6012 
  985800     350.1604   -8839.1889    52.188082    -8891.377   -18673.921 
  986000     312.4308   -8838.6277    46.564843   -8885.1925   -16226.225 
  986200    277.14885   -8843.5659    41.306403   -8884.8723   -42008.176 
  986400    279.70003   -8845.2594    41.686632    -8886.946    7133.1489 
  986600    304.51719   -8838.2647    45.385394   -8883.6501    18124.176 
  986800    284.17909   -8835.9375    42.354194   -8878.2917    4178.1226 
  987000    264.68209    -8850.829    39.448352   -8890.2774   -29996.914 
  987200    295.46819   -8843.2794    44.036728   -8887.3161   -180.27714 
  987400    330.25009   -8833.8277    49.220639   -8883.0483   -13236.929 
  987600    248.52438   -8854.0428    37.040198    -8891.083    10363.069 
  987800     286.2611   -8845.2036    42.664498   -8887.8681   -38551.152 
  988000    258.90346   -8833.9946    38.587102   -8872.5817    23254.011 
  988200    364.58157   -8819.9093     54.33742   -8874.2467    6035.0758 
  988400     252.9731   -8839.1342    37.703238   -8876.8375   -24383.932 
  988600    331.22654   -8831.2464     49.36617   -8880.6126    2826.6178 
  988800    254.83575   -8844.6483    37.980848   -8882.6292    30319.134 
  989000    327.75786   -8843.8064    48.849196   -8892.6556   -22085.812 
  989200    362.51383    -8823.199    54.029243   -8877.2282   -40189.539 
  989400    316.22478   -8843.9372      47.1303   -8891.0675     21082.12 
  989600    324.11865   -8845.7527    48.306807   -8894.0596   -9029.3104 
  989800    361.36447   -8830.9344    53.857942   -8884.7924   -2003.3536 
  990000    322.76761   -8839.2192    48.105447   -8887.3247   -699.90249 
  990200    296.85769    -8846.642    44.243819   -8890.8859    18885.863 
  990400    284.98359   -8836.9208    42.474097   -8879.3949   -20939.252 
  990600    324.94864   -8832.8724    48.430509   -8881.3029   -22896.683 
  990800    296.24999   -8841.2215    44.153247   -8885.3748     9392.247 
  991000    277.27031   -8846.6341    41.324506   -8887.9586   -15478.777 
  991200     375.0618   -8827.0268      55.8994   -8882.9262    14884.431 
  991400    231.31712   -8845.7702    34.475619   -8880.2459   -7728.4525 
  991600    304.32794   -8840.8004    45.357189   -8886.1576    25366.873 
  991800    284.13793   -8825.8999     42.34806   -8868.2479   -10800.347 
  992000    294.37852   -8842.4389    43.874323   -8886.3132    15576.512 
  992200    292.22444   -8843.1874    43.553277   -8886.7406    10940.223 
  992400    355.26967   -8825.9181    52.949571   -8878.8677    9589.1568 
  992600    261.14325   -8842.2291    38.920921   -8881.1501    20660.744 
  992800    298.87704   -8840.4216    44.544784   -8884.9664   -17827.998 
  993000    255.12406   -8855.7189    38.023818   -8893.7427   -596.66979 
  993200    346.01754   -8838.9468    51.570629   -8890.5174   -30198.647 
  993400    284.69774   -8845.5157    42.431494   -8887.9472   -19920.173 
  993600    309.07724   -8844.3599    46.065027   -8890.4249    14691.293 
  993800     317.2252   -8835.6221    47.279404   -8882.9015   -26126.734 
  994000    277.57783   -8845.6604    41.370339   -8887.0308   -24590.689 
  994200     311.5648   -8842.7182    46.435774    -8889.154    -32406.77 
  994400    333.08758   -8836.8177     49.64354   -8886.4613   -36514.607 
  994600    339.85629   -8826.0632    50.652353   -8876.7156    21627.188 
  994800    314.11328   -8843.0742    46.815601   -8889.8898    10914.838 
  995000    270.32896    -8847.982    40.289965    -8888.272    20033.472 
  995200    305.07765   -8840.4682    45.468927   -8885.9371    -31346.03 
  995400    305.57848   -8839.5353     45.54357   -8885.0789   -31302.437 
  995600    291.35437   -8848.3614    43.423601    -8891.785    1208.4876 
  995800    378.98996   -8827.6882    56.484855   -8884.1731   -5488.6831 
  996000      257.121   -8845.4525    38.321443    -8883.774    325.92615 
  996200    293.60779   -8842.5981    43.759452   -8886.3576    12683.237 
  996400    318.90094    -8829.299    47.529156   -8876.8282    28533.879 
  996600    269.32503    -8849.745    40.140337   -8889.8854   -6812.5474 
  996800    275.83118   -8836.9519    41.110017   -8878.0619    5696.2168 
  997000    329.30672   -8837.0595     49.08004   -8886.1395     1059.353 
  997200    283.46205    -8842.045    42.247327   -8884.2924    18455.645 
  997400    329.80244   -8834.4698    49.153921   -8883.6237    13191.659 
  997600    257.23535   -8849.5705    38.338485    -8887.909    1351.1675 
  997800    321.60246   -8837.9416    47.931793   -8885.8734     -32050.2 
  998000    276.51775   -8834.7957    41.212344    -8876.008   -39371.529 
  998200      297.698   -8851.4001    44.369059   -8895.7692    25475.293 
  998400     356.8236    -8840.564    53.181168   -8893.7452    40442.585 
  998600    335.22288   -8835.3035    49.961787   -8885.2653   -28695.246 
  998800    259.39827   -8846.3121    38.660849   -8884.9729   -19998.272 
  999000    268.22012   -8858.0462    39.975661   -8898.0219   -24790.792 
  999200    287.36038   -8846.7323    42.828335   -8889.5607    34160.347 
  999400    296.77671   -8839.7324     44.23175   -8883.9641   -30937.504 
  999600    233.53235   -8853.5087    34.805779   -8888.3145    46972.902 
  999800    349.14028   -8842.0947    52.036042   -8894.1307    5023.6911 
 1000000    354.72786   -8839.9382    52.868818    -8892.807    33769.183 
Loop time of 4579.09 on 8 procs for 1000000 steps with 51 atoms

Performance: 4.717 ns/day, 5.088 hours/ns, 218.384 timesteps/s
99.0% CPU use with 8 MPI tasks x no OpenMP threads

MPI task timing breakdown:
Section |  min time  |  avg time  |  max time  |%varavg| %total
---------------------------------------------------------------
Pair    | 3974.3     | 4054       | 4149.4     |  81.9 | 88.53
Neigh   | 3.342      | 3.4268     | 3.5167     |   3.3 |  0.07
Comm    | 58.171     | 153.32     | 232.56     | 419.2 |  3.35
Output  | 0.089946   | 0.099727   | 0.15829    |   7.0 |  0.00
Modify  | 363.55     | 363.93     | 364.43     |   1.9 |  7.95
Other   |            | 4.274      |            |       |  0.09

Nlocal:    6.375 ave 7 max 6 min
Histogram: 5 0 0 0 0 0 0 0 0 3
Nghost:    955.125 ave 988 max 927 min
Histogram: 2 0 1 1 0 2 0 0 0 2
Neighs:    1844.75 ave 2017 max 1736 min
Histogram: 4 1 0 0 0 0 0 0 0 3

Total # of neighbors = 14758
Ave neighs/atom = 289.373
Neighbor list builds = 1416
Dangerous builds = 0

Please see the log.cite file for references relevant to this simulation

Total wall time: 1:16:27
