
     Program PWSCF v.7.1 starts on 24May2025 at 15:26: 2 

     This program is part of the open-source Quantum ESPRESSO suite
     for quantum simulation of materials; please cite
         "P. Giannozzi et al., J. Phys.:Condens. Matter 21 395502 (2009);
         "P. Giannozzi et al., J. Phys.:Condens. Matter 29 465901 (2017);
         "P. Giannozzi et al., J. Chem. Phys. 152 154105 (2020);
          URL http://www.quantum-espresso.org", 
     in publications or presentations arising from this work. More details at
     http://www.quantum-espresso.org/quote

     Parallel version (MPI), running on    16 processors

     MPI processes distributed on     1 nodes
     153366 MiB available memory on the printing compute node when the environment starts

     Reading input from input.pwi
Warning: card &CELL ignored
Warning: card / ignored
Warning: card &FCP ignored
Warning: card / ignored
Warning: card &RISM ignored
Warning: card / ignored

     Current dimensions of program PWSCF are:
     Max number of different atomic species (ntypx) = 10
     Max number of k-points (npk) =  40000
     Max angular momentum in pseudopotentials (lmaxx) =  4
     file C.pbe-n-kjpaw_psl.1.0.0.UPF: wavefunction(s)  2S 2P renormalized
     file O.pbe-n-kjpaw_psl.0.1.UPF: wavefunction(s)  2P renormalized

     IMPORTANT: XC functional enforced from input :
     Exchange-correlation= PBE
                           (   1   4   3   4   0   0   0)
     Any further DFT definition will be discarded
     Please, verify this is what you really want


     gamma-point specific algorithms are used
     Message from routine  set_nelup_neldw :
     BEWARE: non-integer number of up and down electrons!

     R & G space division:  proc/nbgrp/npool/nimage =      16
     Subspace diagonalization in iterative solution of the eigenvalue problem:
     one sub-group per band group will be used
     custom distributed-memory algorithm (size of sub-group:  2*  2 procs)


     Parallelization info
     --------------------
     sticks:   dense  smooth     PW     G-vecs:    dense   smooth      PW
     Min        1428     714    178               162768    57562    7202
     Max        1430     716    180               162782    57575    7212
     Sum       22877   11441   2869              2604423   921081  115313

     Using Slab Decomposition



     bravais-lattice index     =            0
     lattice parameter (alat)  =      26.8152  a.u.
     unit-cell volume          =   19281.6319 (a.u.)^3
     number of atoms/cell      =           66
     number of atomic types    =            3
     number of electrons       =       263.00 (up: 131.50, down: 131.50)
     number of Kohn-Sham states=          158
     kinetic-energy cutoff     =      50.0000  Ry
     charge density cutoff     =     400.0000  Ry
     scf convergence threshold =      1.0E-06
     mixing beta               =       0.3000
     number of iterations used =            8  plain     mixing
     energy convergence thresh.=      1.0E-04
     force convergence thresh. =      1.0E-03
     Exchange-correlation= PBE
                           (   1   4   3   4   0   0   0)
     nstep                     =         1000


     celldm(1)=  26.815214  celldm(2)=   0.000000  celldm(3)=   0.000000
     celldm(4)=   0.000000  celldm(5)=   0.000000  celldm(6)=   0.000000

     crystal axes: (cart. coord. in units of alat)
               a(1) = (   1.000000   0.000000   0.000000 )  
               a(2) = (   0.000000   1.000000   0.000000 )  
               a(3) = (   0.000000   0.000000   1.000000 )  

     reciprocal axes: (cart. coord. in units 2 pi/alat)
               b(1) = (  1.000000  0.000000  0.000000 )  
               b(2) = (  0.000000  1.000000  0.000000 )  
               b(3) = (  0.000000  0.000000  1.000000 )  


     PseudoPot. # 1 for C  read from file:
     /home/ana.bisette/espresso/pseudo/C.pbe-n-kjpaw_psl.1.0.0.UPF
     MD5 check sum: 5d2aebdfa2cae82b50a7e79e9516da0f
     Pseudo is Projector augmented-wave + core cor, Zval =  4.0
     Generated using "atomic" code by A. Dal Corso  v.5.1
     Shape of augmentation charge: PSQ
     Using radial grid of 1073 points,  4 beta functions with: 
                l(1) =   0
                l(2) =   0
                l(3) =   1
                l(4) =   1
     Q(r) pseudized with 0 coefficients 


     PseudoPot. # 2 for O  read from file:
     /home/ana.bisette/espresso/pseudo/O.pbe-n-kjpaw_psl.0.1.UPF
     MD5 check sum: 0234752ac141de4415c5fc33072bef88
     Pseudo is Projector augmented-wave + core cor, Zval =  6.0
     Generated using "atomic" code by A. Dal Corso  v.5.0.99 svn rev. 10869
     Shape of augmentation charge: BESSEL
     Using radial grid of 1095 points,  4 beta functions with: 
                l(1) =   0
                l(2) =   0
                l(3) =   1
                l(4) =   1
     Q(r) pseudized with 0 coefficients 


     PseudoPot. # 3 for H  read from file:
     /home/ana.bisette/espresso/pseudo/H.pbe-rrkjus_psl.1.0.0.UPF
     MD5 check sum: f52b6d4d1c606e5624b1dc7b2218f220
     Pseudo is Ultrasoft, Zval =  1.0
     Generated using "atomic" code by A. Dal Corso  v.5.1
     Using radial grid of  929 points,  2 beta functions with: 
                l(1) =   0
                l(2) =   0
     Q(r) pseudized with 0 coefficients 


     atomic species   valence    mass     pseudopotential
        C              4.00    12.01100     C ( 1.00)
        O              6.00    15.99900     O ( 1.00)
        H              1.00     1.00800     H ( 1.00)

     Starting magnetic structure 
     atomic species   magnetization
        C            0.000
        O            0.000
        H            0.000

     No symmetry found



   Cartesian axes

     site n.     atom                  positions (alat units)
         1           C   tau(   1) = (   0.0534884   0.6478506   0.6478506  )
         2           C   tau(   2) = (   0.0039464   0.6973925   0.6973925  )
         3           C   tau(   3) = (   0.1478506   0.5534884   0.6478506  )
         4           C   tau(   4) = (   0.1973925   0.5039464   0.6973925  )
         5           C   tau(   5) = (   0.0534884   0.5534884   0.5534884  )
         6           C   tau(   6) = (   0.0039464   0.5039464   0.5039464  )
         7           C   tau(   7) = (   0.1478506   0.6478506   0.5534884  )
         8           C   tau(   8) = (   0.1973925   0.6973925   0.5039464  )
         9           C   tau(   9) = (   0.6478506   0.0534884   0.6478506  )
        10           C   tau(  10) = (   0.6973925   0.0039464   0.6973925  )
        11           C   tau(  11) = (   0.6478506   0.1478506   0.5534884  )
        12           C   tau(  12) = (   0.6973925   0.1973925   0.5039464  )
        13           C   tau(  13) = (   0.5534884   0.0534884   0.5534884  )
        14           C   tau(  14) = (   0.5039464   0.0039464   0.5039464  )
        15           C   tau(  15) = (   0.5534884   0.1478506   0.6478506  )
        16           C   tau(  16) = (   0.5039464   0.1973925   0.6973925  )
        17           C   tau(  17) = (   0.6478506   0.6478506   0.0534884  )
        18           C   tau(  18) = (   0.6973925   0.6973925   0.0039464  )
        19           C   tau(  19) = (   0.5534884   0.6478506   0.1478506  )
        20           C   tau(  20) = (   0.5039464   0.6973925   0.1973925  )
        21           C   tau(  21) = (   0.5534884   0.5534884   0.0534884  )
        22           C   tau(  22) = (   0.5039464   0.5039464   0.0039464  )
        23           C   tau(  23) = (   0.6478506   0.5534884   0.1478506  )
        24           C   tau(  24) = (   0.6973925   0.5039464   0.1973925  )
        25           C   tau(  25) = (   0.3035236   0.8978858   0.3035236  )
        26           C   tau(  26) = (   0.2539817   0.9473573   0.2539817  )
        27           C   tau(  27) = (   0.3978858   0.8034531   0.3035236  )
        28           C   tau(  28) = (   0.4473573   0.7539817   0.2539817  )
        29           C   tau(  29) = (   0.3978858   0.8978858   0.3978858  )
        30           C   tau(  30) = (   0.4473573   0.9473573   0.4473573  )
        31           C   tau(  31) = (   0.3035236   0.8034531   0.3978858  )
        32           C   tau(  32) = (   0.2539817   0.7539817   0.4473573  )
        33           C   tau(  33) = (   0.8978858   0.3035236   0.3035236  )
        34           C   tau(  34) = (   0.9473573   0.2539817   0.2539817  )
        35           C   tau(  35) = (   0.8034531   0.3035236   0.3978858  )
        36           C   tau(  36) = (   0.7539817   0.2539817   0.4473573  )
        37           C   tau(  37) = (   0.8978858   0.3978858   0.3978858  )
        38           C   tau(  38) = (   0.9473573   0.4473573   0.4473573  )
        39           C   tau(  39) = (   0.8034531   0.3978858   0.3035236  )
        40           C   tau(  40) = (   0.7539817   0.4473573   0.2539817  )
        41           C   tau(  41) = (   0.3035236   0.3035236   0.8978858  )
        42           C   tau(  42) = (   0.2539817   0.2539817   0.9473573  )
        43           C   tau(  43) = (   0.3035236   0.3978858   0.8034531  )
        44           C   tau(  44) = (   0.2539817   0.4473573   0.7539817  )
        45           C   tau(  45) = (   0.3978858   0.3978858   0.8978858  )
        46           C   tau(  46) = (   0.4473573   0.4473573   0.9473573  )
        47           C   tau(  47) = (   0.3978858   0.3035236   0.8034531  )
        48           C   tau(  48) = (   0.4473573   0.2539817   0.7539817  )
        49           C   tau(  49) = (   0.8978858   0.8978858   0.8978858  )
        50           C   tau(  50) = (   0.9473573   0.9473573   0.9473573  )
        51           C   tau(  51) = (   0.8978154   0.8034531   0.8034531  )
        52           C   tau(  52) = (   0.9473573   0.7539817   0.7539817  )
        53           C   tau(  53) = (   0.8034531   0.8034531   0.8978858  )
        54           C   tau(  54) = (   0.7539817   0.7539817   0.9473573  )
        55           C   tau(  55) = (   0.8034531   0.8978154   0.8034531  )
        56           C   tau(  56) = (   0.7539817   0.9473573   0.7539817  )
        57           C   tau(  57) = (   0.1478506   0.0534884   0.1478506  )
        58           C   tau(  58) = (   0.1973925   0.0039464   0.1973925  )
        59           C   tau(  59) = (   0.0534884   0.0534884   0.0534884  )
        60           C   tau(  60) = (   0.0039464   0.0039464   0.0039464  )
        61           C   tau(  61) = (   0.0534884   0.1478506   0.1478506  )
        62           C   tau(  62) = (   0.0039464   0.1973925   0.1973925  )
        63           C   tau(  63) = (   0.1478506   0.1478506   0.0534884  )
        64           C   tau(  64) = (   0.1973925   0.1973925   0.0039464  )
        65           O   tau(  65) = (   0.4473573   0.5424947   0.9473573  )
        66           H   tau(  66) = (   0.4473573   0.6112755   0.9473573  )

     number of k points=     1  Gaussian smearing, width (Ry)=  0.0001
                       cart. coord. in units 2pi/alat
        k(    1) = (   0.0000000   0.0000000   0.0000000), wk =   1.0000000

     Dense  grid:  1302212 G-vectors     FFT dimensions: ( 180, 180, 180)

     Smooth grid:   460541 G-vectors     FFT dimensions: ( 125, 125, 125)

     Estimated max dynamical RAM per process >     451.50 MB

     Estimated total dynamical RAM >       7.05 GB

     Check: negative core charge=   -0.000003
     Generating pointlists ...
     new r_m :   0.0353 (alat units)  0.9478 (a.u.) for type    1
     new r_m :   0.0284 (alat units)  0.7608 (a.u.) for type    2
     new r_m :   0.0284 (alat units)  0.7608 (a.u.) for type    3

     Initial potential from superposition of free atoms

     starting charge     262.9973, renormalised to     263.0000

     negative rho (up, down):  6.516E-05 6.516E-05
     Starting wfcs are  261 randomized atomic wfcs
     Checking if some PAW data can be deallocated... 

     total cpu time spent up to now is        5.9 secs

     Self-consistent Calculation

     iteration #  1     ecut=    50.00 Ry     beta= 0.30
     Davidson diagonalization with overlap
     ethr =  1.00E-02,  avg # of iterations =  2.0

     negative rho (up, down):  9.056E-05 9.046E-05

     total cpu time spent up to now is       13.8 secs

     total energy              =   -1214.22370029 Ry
     estimated scf accuracy    <       7.57896269 Ry

     total magnetization       =     0.00 Bohr mag/cell
     absolute magnetization    =     0.14 Bohr mag/cell

     iteration #  2     ecut=    50.00 Ry     beta= 0.30
     Davidson diagonalization with overlap
     ethr =  2.88E-03,  avg # of iterations =  1.5

     negative rho (up, down):  1.258E-04 1.259E-04

     total cpu time spent up to now is       20.0 secs

     total energy              =   -1213.25257066 Ry
     estimated scf accuracy    <       4.03280158 Ry

     total magnetization       =    -0.00 Bohr mag/cell
     absolute magnetization    =     0.15 Bohr mag/cell

     iteration #  3     ecut=    50.00 Ry     beta= 0.30
     Davidson diagonalization with overlap
     ethr =  1.53E-03,  avg # of iterations =  2.0

     negative rho (up, down):  2.146E-04 2.150E-04

     total cpu time spent up to now is       26.4 secs

     total energy              =   -1212.79120936 Ry
     estimated scf accuracy    <      12.56258940 Ry

     total magnetization       =    -0.00 Bohr mag/cell
     absolute magnetization    =     0.08 Bohr mag/cell

     iteration #  4     ecut=    50.00 Ry     beta= 0.30
     Davidson diagonalization with overlap
     ethr =  1.53E-03,  avg # of iterations =  1.0

     negative rho (up, down):  2.629E-04 2.637E-04

     total cpu time spent up to now is       32.4 secs

     total energy              =   -1213.62108235 Ry
     estimated scf accuracy    <       0.21519200 Ry

     total magnetization       =    -0.00 Bohr mag/cell
     absolute magnetization    =     0.07 Bohr mag/cell

     iteration #  5     ecut=    50.00 Ry     beta= 0.30
     Davidson diagonalization with overlap
     ethr =  8.18E-05,  avg # of iterations = 12.5

     negative rho (up, down):  2.652E-04 2.658E-04

     total cpu time spent up to now is       40.7 secs

     total energy              =   -1213.63088903 Ry
     estimated scf accuracy    <       0.50520884 Ry

     total magnetization       =    -0.00 Bohr mag/cell
     absolute magnetization    =     0.05 Bohr mag/cell

     iteration #  6     ecut=    50.00 Ry     beta= 0.30
     Davidson diagonalization with overlap
     ethr =  8.18E-05,  avg # of iterations =  4.0

     negative rho (up, down):  2.723E-04 2.728E-04

     total cpu time spent up to now is       47.3 secs

     total energy              =   -1213.66368294 Ry
     estimated scf accuracy    <       0.09711833 Ry

     total magnetization       =     0.00 Bohr mag/cell
     absolute magnetization    =     0.04 Bohr mag/cell

     iteration #  7     ecut=    50.00 Ry     beta= 0.30
     Davidson diagonalization with overlap
     ethr =  3.69E-05,  avg # of iterations =  2.0

     negative rho (up, down):  2.825E-04 2.826E-04

     total cpu time spent up to now is       53.7 secs

     total energy              =   -1213.66730125 Ry
     estimated scf accuracy    <       0.03015888 Ry

     total magnetization       =    -0.00 Bohr mag/cell
     absolute magnetization    =     0.06 Bohr mag/cell

     iteration #  8     ecut=    50.00 Ry     beta= 0.30
     Davidson diagonalization with overlap
     ethr =  1.15E-05,  avg # of iterations = 17.0

     negative rho (up, down):  2.918E-04 2.916E-04

     total cpu time spent up to now is       61.6 secs

     total energy              =   -1213.66733625 Ry
     estimated scf accuracy    <       0.02783743 Ry

     total magnetization       =    -0.00 Bohr mag/cell
     absolute magnetization    =     0.05 Bohr mag/cell

     iteration #  9     ecut=    50.00 Ry     beta= 0.30
     Davidson diagonalization with overlap
     ethr =  1.06E-05,  avg # of iterations =  1.5

     negative rho (up, down):  3.005E-04 3.002E-04

     total cpu time spent up to now is       67.8 secs

     total energy              =   -1213.66829532 Ry
     estimated scf accuracy    <       0.02728535 Ry

     total magnetization       =    -0.00 Bohr mag/cell
     absolute magnetization    =     0.04 Bohr mag/cell

     iteration # 10     ecut=    50.00 Ry     beta= 0.30
     Davidson diagonalization with overlap
     ethr =  1.04E-05,  avg # of iterations =  1.0

     negative rho (up, down):  3.034E-04 3.030E-04

     total cpu time spent up to now is       73.8 secs

     total energy              =   -1213.66933225 Ry
     estimated scf accuracy    <       0.00911789 Ry

     total magnetization       =     0.00 Bohr mag/cell
     absolute magnetization    =     0.05 Bohr mag/cell

     iteration # 11     ecut=    50.00 Ry     beta= 0.30
     Davidson diagonalization with overlap
     c_bands:  1 eigenvalues not converged
     ethr =  3.47E-06,  avg # of iterations = 18.0

     negative rho (up, down):  3.082E-04 3.078E-04

     total cpu time spent up to now is       81.8 secs

     total energy              =   -1213.66968533 Ry
     estimated scf accuracy    <       0.00959968 Ry

     total magnetization       =     0.00 Bohr mag/cell
     absolute magnetization    =     0.03 Bohr mag/cell

     iteration # 12     ecut=    50.00 Ry     beta= 0.30
     Davidson diagonalization with overlap
     ethr =  3.47E-06,  avg # of iterations =  1.0

     negative rho (up, down):  3.076E-04 3.072E-04

     total cpu time spent up to now is       87.8 secs

     total energy              =   -1213.66995071 Ry
     estimated scf accuracy    <       0.00257577 Ry

     total magnetization       =     0.00 Bohr mag/cell
     absolute magnetization    =     0.09 Bohr mag/cell

     iteration # 13     ecut=    50.00 Ry     beta= 0.30
     Davidson diagonalization with overlap
     ethr =  9.79E-07,  avg # of iterations =  1.5

     negative rho (up, down):  3.084E-04 3.080E-04

     total cpu time spent up to now is       94.0 secs

     total energy              =   -1213.66997371 Ry
     estimated scf accuracy    <       0.00226583 Ry

     total magnetization       =     0.00 Bohr mag/cell
     absolute magnetization    =     0.18 Bohr mag/cell

     iteration # 14     ecut=    50.00 Ry     beta= 0.30
     Davidson diagonalization with overlap
     ethr =  8.62E-07,  avg # of iterations =  1.0

     negative rho (up, down):  3.096E-04 3.093E-04

     total cpu time spent up to now is       99.9 secs

     total energy              =   -1213.67013240 Ry
     estimated scf accuracy    <       0.00054872 Ry

     total magnetization       =     0.00 Bohr mag/cell
     absolute magnetization    =     0.53 Bohr mag/cell

     iteration # 15     ecut=    50.00 Ry     beta= 0.30
     Davidson diagonalization with overlap
     ethr =  2.09E-07,  avg # of iterations =  1.0

     negative rho (up, down):  3.101E-04 3.098E-04

     total cpu time spent up to now is      105.9 secs

     total energy              =   -1213.67022026 Ry
     estimated scf accuracy    <       0.00020309 Ry

     total magnetization       =    -0.00 Bohr mag/cell
     absolute magnetization    =     0.56 Bohr mag/cell

     iteration # 16     ecut=    50.00 Ry     beta= 0.30
     Davidson diagonalization with overlap
     ethr =  7.72E-08,  avg # of iterations =  1.0

     negative rho (up, down):  3.105E-04 3.103E-04

     total cpu time spent up to now is      111.9 secs

     total energy              =   -1213.67033513 Ry
     estimated scf accuracy    <       0.00028039 Ry

     total magnetization       =     0.00 Bohr mag/cell
     absolute magnetization    =     0.62 Bohr mag/cell

     iteration # 17     ecut=    50.00 Ry     beta= 0.30
     Davidson diagonalization with overlap
     ethr =  7.72E-08,  avg # of iterations =  1.0

     negative rho (up, down):  3.109E-04 3.108E-04

     total cpu time spent up to now is      117.9 secs

     total energy              =   -1213.67043965 Ry
     estimated scf accuracy    <       0.00022441 Ry

     total magnetization       =    -0.00 Bohr mag/cell
     absolute magnetization    =     0.65 Bohr mag/cell

     iteration # 18     ecut=    50.00 Ry     beta= 0.30
     Davidson diagonalization with overlap
     ethr =  7.72E-08,  avg # of iterations =  1.5

     negative rho (up, down):  3.117E-04 3.117E-04

     total cpu time spent up to now is      124.1 secs

     total energy              =   -1213.67052297 Ry
     estimated scf accuracy    <       0.00018595 Ry

     total magnetization       =     0.00 Bohr mag/cell
     absolute magnetization    =     0.69 Bohr mag/cell

     iteration # 19     ecut=    50.00 Ry     beta= 0.30
     Davidson diagonalization with overlap
     ethr =  7.07E-08,  avg # of iterations =  1.5

     negative rho (up, down):  3.119E-04 3.119E-04

     total cpu time spent up to now is      130.3 secs

     total energy              =   -1213.67055068 Ry
     estimated scf accuracy    <       0.00013349 Ry

     total magnetization       =     0.00 Bohr mag/cell
     absolute magnetization    =     0.73 Bohr mag/cell

     iteration # 20     ecut=    50.00 Ry     beta= 0.30
     Davidson diagonalization with overlap
     ethr =  5.08E-08,  avg # of iterations =  1.0

     negative rho (up, down):  3.117E-04 3.118E-04

     total cpu time spent up to now is      136.3 secs

     total energy              =   -1213.67058232 Ry
     estimated scf accuracy    <       0.00007827 Ry

     total magnetization       =    -0.00 Bohr mag/cell
     absolute magnetization    =     0.74 Bohr mag/cell

     iteration # 21     ecut=    50.00 Ry     beta= 0.30
     Davidson diagonalization with overlap
     ethr =  2.98E-08,  avg # of iterations =  2.0

     negative rho (up, down):  3.119E-04 3.120E-04

     total cpu time spent up to now is      142.9 secs

     total energy              =   -1213.67060546 Ry
     estimated scf accuracy    <       0.00003118 Ry

     total magnetization       =     0.00 Bohr mag/cell
     absolute magnetization    =     0.77 Bohr mag/cell

     iteration # 22     ecut=    50.00 Ry     beta= 0.30
     Davidson diagonalization with overlap
     ethr =  1.19E-08,  avg # of iterations =  4.0

     negative rho (up, down):  3.121E-04 3.122E-04

     total cpu time spent up to now is      150.5 secs

     total energy              =   -1213.67061964 Ry
     estimated scf accuracy    <       0.00001276 Ry

     total magnetization       =     0.00 Bohr mag/cell
     absolute magnetization    =     0.81 Bohr mag/cell

     iteration # 23     ecut=    50.00 Ry     beta= 0.30
     Davidson diagonalization with overlap
     ethr =  4.85E-09,  avg # of iterations =  3.5

     negative rho (up, down):  3.120E-04 3.121E-04

     total cpu time spent up to now is      157.9 secs

     total energy              =   -1213.67062543 Ry
     estimated scf accuracy    <       0.00000695 Ry

     total magnetization       =    -0.00 Bohr mag/cell
     absolute magnetization    =     0.83 Bohr mag/cell

     iteration # 24     ecut=    50.00 Ry     beta= 0.30
     Davidson diagonalization with overlap
     ethr =  2.64E-09,  avg # of iterations =  2.0

     negative rho (up, down):  3.121E-04 3.122E-04

     total cpu time spent up to now is      164.7 secs

     total energy              =   -1213.67062816 Ry
     estimated scf accuracy    <       0.00000459 Ry

     total magnetization       =     0.00 Bohr mag/cell
     absolute magnetization    =     0.84 Bohr mag/cell

     iteration # 25     ecut=    50.00 Ry     beta= 0.30
     Davidson diagonalization with overlap
     ethr =  1.75E-09,  avg # of iterations =  3.5

     negative rho (up, down):  3.121E-04 3.122E-04

     total cpu time spent up to now is      172.7 secs

     total energy              =   -1213.67063375 Ry
     estimated scf accuracy    <       0.00000227 Ry

     total magnetization       =    -0.00 Bohr mag/cell
     absolute magnetization    =     0.86 Bohr mag/cell

     iteration # 26     ecut=    50.00 Ry     beta= 0.30
     Davidson diagonalization with overlap
     ethr =  8.64E-10,  avg # of iterations =  3.0

     negative rho (up, down):  3.121E-04 3.122E-04

     total cpu time spent up to now is      179.9 secs

     total energy              =   -1213.67063640 Ry
     estimated scf accuracy    <       0.00000209 Ry

     total magnetization       =     0.00 Bohr mag/cell
     absolute magnetization    =     0.86 Bohr mag/cell

     iteration # 27     ecut=    50.00 Ry     beta= 0.30
     Davidson diagonalization with overlap
     ethr =  7.95E-10,  avg # of iterations =  2.0

     negative rho (up, down):  3.121E-04 3.122E-04

     total cpu time spent up to now is      186.5 secs

     total energy              =   -1213.67063769 Ry
     estimated scf accuracy    <       0.00000157 Ry

     total magnetization       =    -0.00 Bohr mag/cell
     absolute magnetization    =     0.86 Bohr mag/cell

     iteration # 28     ecut=    50.00 Ry     beta= 0.30
     Davidson diagonalization with overlap
     ethr =  5.97E-10,  avg # of iterations =  1.5

     negative rho (up, down):  3.121E-04 3.122E-04

     total cpu time spent up to now is      192.7 secs

     total energy              =   -1213.67063979 Ry
     estimated scf accuracy    <       0.00000255 Ry

     total magnetization       =    -0.00 Bohr mag/cell
     absolute magnetization    =     0.86 Bohr mag/cell

     iteration # 29     ecut=    50.00 Ry     beta= 0.30
     Davidson diagonalization with overlap
     ethr =  5.97E-10,  avg # of iterations =  2.0

     negative rho (up, down):  3.121E-04 3.122E-04

     total cpu time spent up to now is      199.6 secs

     total energy              =   -1213.67064116 Ry
     estimated scf accuracy    <       0.00000134 Ry

     total magnetization       =     0.00 Bohr mag/cell
     absolute magnetization    =     0.87 Bohr mag/cell

     iteration # 30     ecut=    50.00 Ry     beta= 0.30
     Davidson diagonalization with overlap
     ethr =  5.10E-10,  avg # of iterations =  1.0

     negative rho (up, down):  3.121E-04 3.122E-04

     total cpu time spent up to now is      205.6 secs

     total energy              =   -1213.67064054 Ry
     estimated scf accuracy    <       0.00000124 Ry

     total magnetization       =    -0.00 Bohr mag/cell
     absolute magnetization    =     0.87 Bohr mag/cell

     iteration # 31     ecut=    50.00 Ry     beta= 0.30
     Davidson diagonalization with overlap
     ethr =  4.70E-10,  avg # of iterations =  1.0

     negative rho (up, down):  3.121E-04 3.122E-04

     total cpu time spent up to now is      211.6 secs

     total energy              =   -1213.67064069 Ry
     estimated scf accuracy    <       0.00000119 Ry

     total magnetization       =     0.00 Bohr mag/cell
     absolute magnetization    =     0.87 Bohr mag/cell

     iteration # 32     ecut=    50.00 Ry     beta= 0.30
     Davidson diagonalization with overlap
     ethr =  4.53E-10,  avg # of iterations =  1.0

     negative rho (up, down):  3.121E-04 3.122E-04

     total cpu time spent up to now is      217.6 secs

     total energy              =   -1213.67063925 Ry
     estimated scf accuracy    <       0.00000125 Ry

     total magnetization       =    -0.00 Bohr mag/cell
     absolute magnetization    =     0.87 Bohr mag/cell

     iteration # 33     ecut=    50.00 Ry     beta= 0.30
     Davidson diagonalization with overlap
     ethr =  4.53E-10,  avg # of iterations =  1.0

     negative rho (up, down):  3.121E-04 3.122E-04

     total cpu time spent up to now is      223.6 secs

     total energy              =   -1213.67063811 Ry
     estimated scf accuracy    <       0.00000135 Ry

     total magnetization       =     0.00 Bohr mag/cell
     absolute magnetization    =     0.87 Bohr mag/cell

     iteration # 34     ecut=    50.00 Ry     beta= 0.30
     Davidson diagonalization with overlap
     ethr =  4.53E-10,  avg # of iterations =  1.0

     negative rho (up, down):  3.121E-04 3.122E-04

     total cpu time spent up to now is      229.6 secs

     total energy              =   -1213.67064067 Ry
     estimated scf accuracy    <       0.00000135 Ry

     total magnetization       =     0.00 Bohr mag/cell
     absolute magnetization    =     0.86 Bohr mag/cell

     iteration # 35     ecut=    50.00 Ry     beta= 0.30
     Davidson diagonalization with overlap
     ethr =  4.53E-10,  avg # of iterations =  2.0

     negative rho (up, down):  3.122E-04 3.122E-04

     total cpu time spent up to now is      236.5 secs

     total energy              =   -1213.67064366 Ry
     estimated scf accuracy    <       0.00000129 Ry

     total magnetization       =     0.00 Bohr mag/cell
     absolute magnetization    =     0.87 Bohr mag/cell

     iteration # 36     ecut=    50.00 Ry     beta= 0.30
     Davidson diagonalization with overlap
     ethr =  4.53E-10,  avg # of iterations =  2.0

     negative rho (up, down):  3.122E-04 3.122E-04

     total cpu time spent up to now is      243.7 secs

     total energy              =   -1213.67064592 Ry
     estimated scf accuracy    <       0.00000145 Ry

     total magnetization       =     0.00 Bohr mag/cell
     absolute magnetization    =     0.87 Bohr mag/cell

     iteration # 37     ecut=    50.00 Ry     beta= 0.30
     Davidson diagonalization with overlap
     ethr =  4.53E-10,  avg # of iterations =  2.0

     negative rho (up, down):  3.122E-04 3.122E-04

     total cpu time spent up to now is      250.4 secs

     total energy              =   -1213.67064422 Ry
     estimated scf accuracy    <       0.00000137 Ry

     total magnetization       =    -0.00 Bohr mag/cell
     absolute magnetization    =     0.88 Bohr mag/cell

     iteration # 38     ecut=    50.00 Ry     beta= 0.30
     Davidson diagonalization with overlap
     ethr =  4.53E-10,  avg # of iterations =  1.0

     negative rho (up, down):  3.122E-04 3.122E-04

     total cpu time spent up to now is      256.4 secs

     total energy              =   -1213.67064332 Ry
     estimated scf accuracy    <       0.00000147 Ry

     total magnetization       =     0.00 Bohr mag/cell
     absolute magnetization    =     0.88 Bohr mag/cell

     iteration # 39     ecut=    50.00 Ry     beta= 0.30
     Davidson diagonalization with overlap
     ethr =  4.53E-10,  avg # of iterations =  1.0

     negative rho (up, down):  3.122E-04 3.122E-04

     total cpu time spent up to now is      262.4 secs

     total energy              =   -1213.67064259 Ry
     estimated scf accuracy    <       0.00000147 Ry

     total magnetization       =     0.00 Bohr mag/cell
     absolute magnetization    =     0.87 Bohr mag/cell

     iteration # 40     ecut=    50.00 Ry     beta= 0.30
     Davidson diagonalization with overlap
     ethr =  4.53E-10,  avg # of iterations =  1.0

     negative rho (up, down):  3.122E-04 3.122E-04

     total cpu time spent up to now is      268.4 secs

     total energy              =   -1213.67064454 Ry
     estimated scf accuracy    <       0.00000143 Ry

     total magnetization       =     0.00 Bohr mag/cell
     absolute magnetization    =     0.87 Bohr mag/cell

     iteration # 41     ecut=    50.00 Ry     beta= 0.30
     Davidson diagonalization with overlap
     ethr =  4.53E-10,  avg # of iterations =  1.0

     negative rho (up, down):  3.122E-04 3.122E-04

     total cpu time spent up to now is      274.4 secs

     total energy              =   -1213.67064515 Ry
     estimated scf accuracy    <       0.00000135 Ry

     total magnetization       =    -0.00 Bohr mag/cell
     absolute magnetization    =     0.88 Bohr mag/cell

     iteration # 42     ecut=    50.00 Ry     beta= 0.30
     Davidson diagonalization with overlap
     ethr =  4.53E-10,  avg # of iterations =  1.0

     negative rho (up, down):  3.122E-04 3.122E-04

     total cpu time spent up to now is      280.4 secs

     total energy              =   -1213.67064236 Ry
     estimated scf accuracy    <       0.00000164 Ry

     total magnetization       =     0.00 Bohr mag/cell
     absolute magnetization    =     0.88 Bohr mag/cell

     iteration # 43     ecut=    50.00 Ry     beta= 0.30
     Davidson diagonalization with overlap
     ethr =  4.53E-10,  avg # of iterations =  1.5

     negative rho (up, down):  3.122E-04 3.122E-04

     total cpu time spent up to now is      286.6 secs

     total energy              =   -1213.67064379 Ry
     estimated scf accuracy    <       0.00000139 Ry

     total magnetization       =     0.00 Bohr mag/cell
     absolute magnetization    =     0.87 Bohr mag/cell

     iteration # 44     ecut=    50.00 Ry     beta= 0.30
     Davidson diagonalization with overlap
     ethr =  4.53E-10,  avg # of iterations =  1.0

     negative rho (up, down):  3.122E-04 3.123E-04

     total cpu time spent up to now is      292.6 secs

     total energy              =   -1213.67064715 Ry
     estimated scf accuracy    <       0.00000148 Ry

     total magnetization       =     0.00 Bohr mag/cell
     absolute magnetization    =     0.88 Bohr mag/cell

     iteration # 45     ecut=    50.00 Ry     beta= 0.30
     Davidson diagonalization with overlap
     ethr =  4.53E-10,  avg # of iterations =  2.5

     negative rho (up, down):  3.122E-04 3.123E-04

     total cpu time spent up to now is      300.3 secs

     total energy              =   -1213.67065025 Ry
     estimated scf accuracy    <       0.00000164 Ry

     total magnetization       =    -0.00 Bohr mag/cell
     absolute magnetization    =     0.88 Bohr mag/cell

     iteration # 46     ecut=    50.00 Ry     beta= 0.30
     Davidson diagonalization with overlap
     ethr =  4.53E-10,  avg # of iterations =  2.0

     negative rho (up, down):  3.122E-04 3.123E-04

     total cpu time spent up to now is      307.1 secs

     total energy              =   -1213.67065381 Ry
     estimated scf accuracy    <       0.00000159 Ry

     total magnetization       =     0.00 Bohr mag/cell
     absolute magnetization    =     0.89 Bohr mag/cell

     iteration # 47     ecut=    50.00 Ry     beta= 0.30
     Davidson diagonalization with overlap
     ethr =  4.53E-10,  avg # of iterations =  3.5

     negative rho (up, down):  3.122E-04 3.122E-04

     total cpu time spent up to now is      315.2 secs

     total energy              =   -1213.67064031 Ry
     estimated scf accuracy    <       0.00000135 Ry

     total magnetization       =     0.00 Bohr mag/cell
     absolute magnetization    =     0.89 Bohr mag/cell

     iteration # 48     ecut=    50.00 Ry     beta= 0.30
     Davidson diagonalization with overlap
     ethr =  4.53E-10,  avg # of iterations =  4.0

     negative rho (up, down):  3.122E-04 3.122E-04

     total cpu time spent up to now is      324.0 secs

     total energy              =   -1213.67063473 Ry
     estimated scf accuracy    <       0.00000137 Ry

     total magnetization       =    -0.00 Bohr mag/cell
     absolute magnetization    =     0.88 Bohr mag/cell

     iteration # 49     ecut=    50.00 Ry     beta= 0.30
     Davidson diagonalization with overlap
     ethr =  4.53E-10,  avg # of iterations =  5.0

     negative rho (up, down):  3.122E-04 3.122E-04

     total cpu time spent up to now is      333.0 secs

     total energy              =   -1213.67063853 Ry
     estimated scf accuracy    <       0.00000156 Ry

     total magnetization       =    -0.00 Bohr mag/cell
     absolute magnetization    =     0.87 Bohr mag/cell

     iteration # 50     ecut=    50.00 Ry     beta= 0.30
     Davidson diagonalization with overlap
     ethr =  4.53E-10,  avg # of iterations =  1.0

     negative rho (up, down):  3.122E-04 3.122E-04

     total cpu time spent up to now is      339.0 secs

     total energy              =   -1213.67063933 Ry
     estimated scf accuracy    <       0.00000209 Ry

     total magnetization       =    -0.00 Bohr mag/cell
     absolute magnetization    =     0.87 Bohr mag/cell

     iteration # 51     ecut=    50.00 Ry     beta= 0.30
     Davidson diagonalization with overlap
     ethr =  4.53E-10,  avg # of iterations =  1.0

     negative rho (up, down):  3.122E-04 3.122E-04

     total cpu time spent up to now is      345.0 secs

     total energy              =   -1213.67063778 Ry
     estimated scf accuracy    <       0.00000158 Ry

     total magnetization       =     0.00 Bohr mag/cell
     absolute magnetization    =     0.87 Bohr mag/cell

     iteration # 52     ecut=    50.00 Ry     beta= 0.30
     Davidson diagonalization with overlap
     ethr =  4.53E-10,  avg # of iterations =  1.0

     negative rho (up, down):  3.122E-04 3.122E-04

     total cpu time spent up to now is      351.0 secs

     total energy              =   -1213.67063321 Ry
     estimated scf accuracy    <       0.00000149 Ry

     total magnetization       =     0.00 Bohr mag/cell
     absolute magnetization    =     0.87 Bohr mag/cell

     iteration # 53     ecut=    50.00 Ry     beta= 0.30
     Davidson diagonalization with overlap
     ethr =  4.53E-10,  avg # of iterations =  2.5

     negative rho (up, down):  3.122E-04 3.122E-04

     total cpu time spent up to now is      358.5 secs

     total energy              =   -1213.67063410 Ry
     estimated scf accuracy    <       0.00000129 Ry

     total magnetization       =     0.00 Bohr mag/cell
     absolute magnetization    =     0.86 Bohr mag/cell

     iteration # 54     ecut=    50.00 Ry     beta= 0.30
     Davidson diagonalization with overlap
     ethr =  4.53E-10,  avg # of iterations =  1.0

     negative rho (up, down):  3.122E-04 3.122E-04

     total cpu time spent up to now is      364.5 secs

     total energy              =   -1213.67063505 Ry
     estimated scf accuracy    <       0.00000125 Ry

     total magnetization       =     0.00 Bohr mag/cell
     absolute magnetization    =     0.86 Bohr mag/cell

     iteration # 55     ecut=    50.00 Ry     beta= 0.30
     Davidson diagonalization with overlap
     ethr =  4.53E-10,  avg # of iterations =  1.0

     negative rho (up, down):  3.122E-04 3.122E-04

     total cpu time spent up to now is      370.5 secs

     total energy              =   -1213.67063241 Ry
     estimated scf accuracy    <       0.00000149 Ry

     total magnetization       =     0.00 Bohr mag/cell
     absolute magnetization    =     0.86 Bohr mag/cell

     iteration # 56     ecut=    50.00 Ry     beta= 0.30
     Davidson diagonalization with overlap
     ethr =  4.53E-10,  avg # of iterations =  2.0

     negative rho (up, down):  3.122E-04 3.122E-04

     total cpu time spent up to now is      377.1 secs

     total energy              =   -1213.67062658 Ry
     estimated scf accuracy    <       0.00000131 Ry

     total magnetization       =    -0.00 Bohr mag/cell
     absolute magnetization    =     0.86 Bohr mag/cell

     iteration # 57     ecut=    50.00 Ry     beta= 0.30
     Davidson diagonalization with overlap
     ethr =  4.53E-10,  avg # of iterations =  4.0

     negative rho (up, down):  3.122E-04 3.122E-04

     total cpu time spent up to now is      385.3 secs

     total energy              =   -1213.67062187 Ry
     estimated scf accuracy    <       0.00000132 Ry

     total magnetization       =    -0.00 Bohr mag/cell
     absolute magnetization    =     0.85 Bohr mag/cell

     iteration # 58     ecut=    50.00 Ry     beta= 0.30
     Davidson diagonalization with overlap
     ethr =  4.53E-10,  avg # of iterations =  3.0

     negative rho (up, down):  3.122E-04 3.122E-04

     Magnetic moment per site  (integrated on atomic sphere of radius R)
     atom   1 (R=0.035)  charge=  1.0974  magn= -0.0041
     atom   2 (R=0.035)  charge=  1.1675  magn=  0.0027
     atom   3 (R=0.035)  charge=  1.1005  magn= -0.0005
     atom   4 (R=0.035)  charge=  1.1656  magn=  0.0002
     atom   5 (R=0.035)  charge=  1.0967  magn= -0.0034
     atom   6 (R=0.035)  charge=  1.1677  magn=  0.0016
     atom   7 (R=0.035)  charge=  1.0972  magn=  0.0081
     atom   8 (R=0.035)  charge=  1.1675  magn= -0.0052
     atom   9 (R=0.035)  charge=  1.0985  magn=  0.0012
     atom  10 (R=0.035)  charge=  1.1672  magn=  0.0022
     atom  11 (R=0.035)  charge=  1.0970  magn=  0.0010
     atom  12 (R=0.035)  charge=  1.1663  magn= -0.0001
     atom  13 (R=0.035)  charge=  1.0973  magn=  0.0068
     atom  14 (R=0.035)  charge=  1.1676  magn=  0.0016
     atom  15 (R=0.035)  charge=  1.0994  magn= -0.0005
     atom  16 (R=0.035)  charge=  1.1672  magn=  0.0021
     atom  17 (R=0.035)  charge=  1.0984  magn=  0.0020
     atom  18 (R=0.035)  charge=  1.1695  magn=  0.0007
     atom  19 (R=0.035)  charge=  1.0983  magn=  0.0019
     atom  20 (R=0.035)  charge=  1.1695  magn=  0.0000
     atom  21 (R=0.035)  charge=  1.1185  magn= -0.0018
     atom  22 (R=0.035)  charge=  1.2531  magn=  0.0030
     atom  23 (R=0.035)  charge=  1.0930  magn= -0.0011
     atom  24 (R=0.035)  charge=  1.1675  magn=  0.0011
     atom  25 (R=0.035)  charge=  1.0981  magn=  0.0032
     atom  26 (R=0.035)  charge=  1.1679  magn= -0.0035
     atom  27 (R=0.035)  charge=  1.1009  magn=  0.0010
     atom  28 (R=0.035)  charge=  1.1679  magn= -0.0012
     atom  29 (R=0.035)  charge=  1.0982  magn= -0.0053
     atom  30 (R=0.035)  charge=  1.1678  magn=  0.0013
     atom  31 (R=0.035)  charge=  1.0984  magn= -0.0046
     atom  32 (R=0.035)  charge=  1.1673  magn=  0.0021
     atom  33 (R=0.035)  charge=  1.0974  magn=  0.0084
     atom  34 (R=0.035)  charge=  1.1678  magn= -0.0061
     atom  35 (R=0.035)  charge=  1.0979  magn= -0.0075
     atom  36 (R=0.035)  charge=  1.1681  magn=  0.0029
     atom  37 (R=0.035)  charge=  1.0992  magn= -0.0019
     atom  38 (R=0.035)  charge=  1.1680  magn= -0.0007
     atom  39 (R=0.035)  charge=  1.0997  magn=  0.0006
     atom  40 (R=0.035)  charge=  1.1669  magn= -0.0017
     atom  41 (R=0.035)  charge=  1.0995  magn=  0.0039
     atom  42 (R=0.035)  charge=  1.1682  magn= -0.0017
     atom  43 (R=0.035)  charge=  1.0915  magn= -0.0002
     atom  44 (R=0.035)  charge=  1.1703  magn=  0.0001
     atom  45 (R=0.035)  charge=  1.1154  magn= -0.0010
     atom  46 (R=0.035)  charge=  1.2058  magn=  0.0012
     atom  47 (R=0.035)  charge=  1.0999  magn= -0.0018
     atom  48 (R=0.035)  charge=  1.1687  magn=  0.0007
     atom  49 (R=0.035)  charge=  1.0981  magn=  0.0052
     atom  50 (R=0.035)  charge=  1.1677  magn= -0.0005
     atom  51 (R=0.035)  charge=  1.0983  magn=  0.0008
     atom  52 (R=0.035)  charge=  1.1673  magn= -0.0009
     atom  53 (R=0.035)  charge=  1.1012  magn= -0.0009
     atom  54 (R=0.035)  charge=  1.1683  magn=  0.0002
     atom  55 (R=0.035)  charge=  1.0983  magn= -0.0026
     atom  56 (R=0.035)  charge=  1.1683  magn=  0.0009
     atom  57 (R=0.035)  charge=  1.0984  magn=  0.0010
     atom  58 (R=0.035)  charge=  1.1672  magn= -0.0030
     atom  59 (R=0.035)  charge=  1.0974  magn= -0.0034
     atom  60 (R=0.035)  charge=  1.1676  magn= -0.0012
     atom  61 (R=0.035)  charge=  1.0970  magn= -0.0061
     atom  62 (R=0.035)  charge=  1.1663  magn=  0.0033
     atom  63 (R=0.035)  charge=  1.0993  magn= -0.0004
     atom  64 (R=0.035)  charge=  1.1672  magn= -0.0010
     atom  65 (R=0.028)  charge=  2.0096  magn=  0.0016
     atom  66 (R=0.028)  charge=  0.3637  magn= -0.0001

     total cpu time spent up to now is      393.7 secs

     End of self-consistent calculation

 ------ SPIN UP ------------


          k = 0.0000 0.0000 0.0000 ( 57657 PWs)   bands (ev):

   -31.1156 -20.3639 -19.4995 -19.4271 -19.2997 -19.2977 -19.2862 -19.2804
   -19.2179 -19.0571 -18.4536 -18.2696 -18.2662 -18.2557 -18.2459 -18.2418
   -18.2393 -18.2365 -18.2272 -17.9008 -17.6857 -17.6724 -17.6641 -17.6567
   -17.4561 -17.2046 -17.0236 -17.0180 -17.0140 -16.9968 -16.9936 -16.9884
   -16.9810 -16.9681 -15.6251 -15.1215 -14.8652 -14.8588 -14.8534 -14.8397
   -14.5732 -13.9449 -13.1964 -13.1919 -13.1830 -13.1792 -13.1748 -13.1699
   -13.1680 -13.1636 -12.8472 -12.6132 -12.5401 -12.3690 -12.3628 -12.3539
   -12.3519 -12.1986 -11.9509 -10.9549  -8.7476  -8.6969  -8.6866  -8.5784
    -8.5385  -8.5058  -8.4924  -8.4868  -8.4814  -8.4770  -8.4739  -8.4671
    -8.4440  -8.3767  -8.3679  -8.3644  -8.3557  -8.3152  -8.2546  -8.2018
    -8.1437  -7.9981  -7.9869  -7.9180  -7.5337  -7.5180  -7.2652  -7.2383
    -7.2327  -7.2292  -7.0643  -7.0080  -6.8702  -6.7837  -6.7768  -6.7078
    -6.7027  -6.6769  -6.4378  -6.3143  -6.2563  -6.0551  -6.0061  -6.0014
    -5.9793  -5.9672  -5.8690  -5.6941  -5.4250  -5.0817  -5.0227  -5.0001
    -4.9693  -4.8444  -4.7273  -4.7097  -4.5939  -4.5871  -4.5180  -4.4494
    -4.3961  -4.2469  -4.1288  -3.4753  -3.4176  -3.3302  -3.2439  -3.0374
    -2.9918  -2.9817  -2.9412  -2.8978  -2.6065  -2.5474  -2.4672  -2.4574
    -2.4299  -2.3039  -1.8061  -1.7889  -1.7052  -1.6720  -1.6620  -1.5534
    -1.3415  -1.2033  -1.1821  -0.9784  -0.5891  -0.3706   0.6883   1.0166
     1.0493   1.1087   1.1173   1.1187   1.1586   1.1826

 ------ SPIN DOWN ----------


          k = 0.0000 0.0000 0.0000 ( 57657 PWs)   bands (ev):

   -31.1109 -20.3611 -19.4977 -19.4265 -19.2995 -19.2985 -19.2867 -19.2822
   -19.2173 -19.0573 -18.4523 -18.2686 -18.2680 -18.2555 -18.2452 -18.2429
   -18.2398 -18.2384 -18.2269 -17.9011 -17.6863 -17.6721 -17.6641 -17.6579
   -17.4560 -17.2056 -17.0234 -17.0179 -17.0136 -16.9975 -16.9963 -16.9882
   -16.9813 -16.9671 -15.6253 -15.1202 -14.8640 -14.8599 -14.8525 -14.8432
   -14.5719 -13.9453 -13.1955 -13.1932 -13.1828 -13.1802 -13.1753 -13.1689
   -13.1681 -13.1645 -12.8481 -12.6127 -12.5263 -12.3687 -12.3630 -12.3537
   -12.3529 -12.1977 -11.9512 -10.9506  -8.7490  -8.6964  -8.6863  -8.5787
    -8.5363  -8.5068  -8.4939  -8.4872  -8.4824  -8.4777  -8.4726  -8.4680
    -8.4450  -8.3779  -8.3705  -8.3635  -8.3567  -8.3146  -8.2541  -8.1983
    -8.1432  -7.9969  -7.9895  -7.9176  -7.5325  -7.5201  -7.2634  -7.2403
    -7.2353  -7.2279  -7.0626  -7.0094  -6.8675  -6.7850  -6.7772  -6.7087
    -6.7016  -6.6783  -6.4387  -6.3134  -6.2578  -6.0539  -6.0076  -6.0028
    -5.9808  -5.9669  -5.8703  -5.6900  -5.4254  -5.0834  -5.0238  -4.9971
    -4.9715  -4.8432  -4.7270  -4.7116  -4.5949  -4.5864  -4.5156  -4.4518
    -4.3963  -4.2507  -4.1228  -3.4729  -3.4205  -3.3298  -3.2451  -3.0350
    -2.9918  -2.9835  -2.9350  -2.9027  -2.5996  -2.5504  -2.4688  -2.4591
    -2.4266  -2.3062  -1.8078  -1.7841  -1.7065  -1.6700  -1.6619  -1.5570
    -1.3412  -1.2035  -1.1843  -0.9801  -0.5865  -0.3719   0.6860   1.0211
     1.0523   1.1088   1.1152   1.1179   1.1581   1.1881

     the spin up/dw Fermi energies are    -2.8978   -2.9027 ev

!    total energy              =   -1213.67062682 Ry
     estimated scf accuracy    <       0.00000091 Ry
     smearing contrib. (-TS)   =      -0.00005642 Ry
     internal energy E=F+TS    =   -1213.67057040 Ry

     The total energy is F=E-TS. E is the sum of the following terms:
     one-electron contribution =   -1841.17857686 Ry
     hartree contribution      =     969.17538986 Ry
     xc contribution           =    -297.03282409 Ry
     ewald contribution        =     359.70856545 Ry
     one-center paw contrib.   =    -404.34312477 Ry

     total magnetization       =     0.00 Bohr mag/cell
     absolute magnetization    =     0.85 Bohr mag/cell

     convergence has been achieved in  58 iterations

     negative rho (up, down):  3.122E-04 3.122E-04

     Forces acting on atoms (cartesian axes, Ry/au):

     atom    1 type  1   force =     0.21601160   -0.22540221   -0.21385344
     atom    2 type  1   force =    -0.22870392    0.22890671    0.22810910
     atom    3 type  1   force =    -0.22065659    0.22836509   -0.22032151
     atom    4 type  1   force =     0.23533018   -0.23906827    0.23537831
     atom    5 type  1   force =     0.21388646    0.22245781    0.21185917
     atom    6 type  1   force =    -0.22370677   -0.22246112   -0.22337586
     atom    7 type  1   force =    -0.21568896   -0.22717848    0.21566291
     atom    8 type  1   force =     0.22859775    0.22986807   -0.22923467
     atom    9 type  1   force =    -0.20597966    0.21181518   -0.21804738
     atom   10 type  1   force =     0.22394792   -0.22164586    0.22379536
     atom   11 type  1   force =    -0.22497732   -0.22656212    0.22613850
     atom   12 type  1   force =     0.23113192    0.22765144   -0.23111304
     atom   13 type  1   force =     0.21705251    0.21682407    0.20734081
     atom   14 type  1   force =    -0.22101650   -0.22026798   -0.22266232
     atom   15 type  1   force =     0.20857795   -0.20242569   -0.21418537
     atom   16 type  1   force =    -0.21953389    0.21685004    0.22029607
     atom   17 type  1   force =    -0.18647044   -0.19174053    0.20585218
     atom   18 type  1   force =     0.21069508    0.21830079   -0.21678810
     atom   19 type  1   force =     0.20669106   -0.19304052   -0.18659416
     atom   20 type  1   force =    -0.21728479    0.21927257    0.21108813
     atom   21 type  1   force =     0.36399744    0.20999250    0.36406963
     atom   22 type  1   force =     0.04106901   -0.29814715    0.04114651
     atom   23 type  1   force =    -0.27213984    0.20748600   -0.27134992
     atom   24 type  1   force =     0.24184496   -0.24099691    0.24178723
     atom   25 type  1   force =     0.20878326   -0.21633272    0.21785797
     atom   26 type  1   force =    -0.22341016    0.22305367   -0.22457458
     atom   27 type  1   force =    -0.20858331    0.21102376    0.21060122
     atom   28 type  1   force =     0.22039060   -0.22119733   -0.22013813
     atom   29 type  1   force =    -0.21984129   -0.22206153   -0.21201830
     atom   30 type  1   force =     0.22335723    0.22397127    0.22695360
     atom   31 type  1   force =     0.22337718    0.22929162   -0.22211257
     atom   32 type  1   force =    -0.23264184   -0.22791331    0.23247266
     atom   33 type  1   force =    -0.22330672    0.22829439    0.21766825
     atom   34 type  1   force =     0.23206944   -0.23412960   -0.23232352
     atom   35 type  1   force =     0.21802897    0.22848576   -0.22433776
     atom   36 type  1   force =    -0.23325935   -0.23499193    0.23290549
     atom   37 type  1   force =    -0.21341379   -0.22315174   -0.21463754
     atom   38 type  1   force =     0.22796715    0.22891397    0.22846005
     atom   39 type  1   force =     0.22452971   -0.23682326    0.22461286
     atom   40 type  1   force =    -0.23944992    0.24711005   -0.23971920
     atom   41 type  1   force =     0.19058973    0.21378098   -0.20728427
     atom   42 type  1   force =    -0.21322963   -0.22328582    0.21827326
     atom   43 type  1   force =     0.24825315   -0.23132475    0.24768248
     atom   44 type  1   force =    -0.23645459    0.24384238   -0.23633342
     atom   45 type  1   force =    -0.26580103   -0.30003378   -0.26409137
     atom   46 type  1   force =     0.13250599   -0.11532149    0.13196774
     atom   47 type  1   force =    -0.20879328    0.21380857    0.19022880
     atom   48 type  1   force =     0.21889513   -0.22397398   -0.21409875
     atom   49 type  1   force =    -0.21261889   -0.22238584   -0.21978975
     atom   50 type  1   force =     0.22694689    0.22358358    0.22334557
     atom   51 type  1   force =    -0.22113413    0.22951816    0.22218006
     atom   52 type  1   force =     0.23153640   -0.22738222   -0.23175294
     atom   53 type  1   force =     0.21121818    0.21229296   -0.20827699
     atom   54 type  1   force =    -0.22050602   -0.22199774    0.22090274
     atom   55 type  1   force =     0.21963670   -0.21755466    0.20988944
     atom   56 type  1   force =    -0.22614783    0.22486860   -0.22517024
     atom   57 type  1   force =    -0.21823356    0.21216234   -0.20493798
     atom   58 type  1   force =     0.22355086   -0.22086192    0.22366012
     atom   59 type  1   force =     0.20749437    0.21733770    0.21580791
     atom   60 type  1   force =    -0.22289261   -0.22070364   -0.22112709
     atom   61 type  1   force =     0.22741340   -0.22707494   -0.22462470
     atom   62 type  1   force =    -0.23172404    0.22803721    0.23166648
     atom   63 type  1   force =    -0.21524470   -0.20322211    0.20854075
     atom   64 type  1   force =     0.22094199    0.21737699   -0.22008800
     atom   65 type  2   force =    -0.22483178    0.45195638   -0.22443658
     atom   66 type  3   force =    -0.02864303    0.03416057   -0.02880188

     Total force =     3.141862     Total SCF correction =     0.000709

     BFGS Geometry Optimization
     Energy error            =      0.0E+00 Ry
     Gradient error          =      4.5E-01 Ry/Bohr

     number of scf cycles    =   1
     number of bfgs steps    =   0

     energy             new  =   -1213.6706268197 Ry

     new trust radius        =       0.5000000000 bohr
     new conv_thr            =       0.0000010000 Ry


ATOMIC_POSITIONS (angstrom)
C             0.8617950580        9.0857361637        9.0912319601
C            -0.0528350471       10.0049315495       10.0045519859
C             1.9929944960        7.9626738060        9.0881539532
C             2.9129883370        7.0372327920       10.0080112387
C             0.8607837518        7.9598626632        7.9548190100
C            -0.0504570172        7.0451357617        7.0447004569
C             1.9953584774        9.0848908736        7.9566291242
C             2.9097845254       10.0053890386        7.0419123787
C             9.0949789143        0.8597980753        9.0892361606
C            10.0025717722       -0.0494762746       10.0024991750
C             9.0859383586        1.9901841888        7.9616142219
C            10.0059904802        2.9093341940        7.0410185089
C             7.9572904014        0.8621816950        7.9526688251
C             7.0458232215       -0.0488205717        7.0450400134
C             7.9532575525        2.0016701712        9.0910740017
C             7.0465287640        2.9041940518       10.0008339404
C             9.1042629134        9.1017549994        0.8569604186
C             9.9962650479        9.9998844309       -0.0471645752
C             7.9523596238        9.1011363618        2.0092040376
C             7.0475990601       10.0003468820        2.9014520916
C             8.0272181899        7.9539307026        0.9322525425
C             7.1705438153        7.0091184823        0.0755806960
C             9.0634947746        7.9527379162        1.9688706798
C            10.0110885724        7.0363149962        2.9160610978
C             4.4063552521       12.6380521275        4.4106737015
C             3.4976841362       13.5491462195        3.4971300142
C             5.5467398998       11.5014214550        4.4072203796
C             6.4528789243       10.5937371700        3.4992412212
C             5.5413824770       12.6353259162        5.5451052634
C             6.4542906791       13.5495828873        6.4560021095
C             4.4133001701       11.5101147226        5.5403016284
C             3.4932909836       10.5905411862        6.4586285076
C            12.6347333573        4.4156401593        4.4105834204
C            13.5534366229        3.4925829913        3.4934424666
C            11.5047550791        4.4157312306        5.5392427116
C            10.5879971279        3.4921726289        6.4588344800
C            12.6394411817        5.5398071123        5.5438588262
C            13.5514844368        6.4569350037        6.4567189937
C            11.5078486361        5.5333011407        4.4138882016
C            10.5850511733        6.4655941107        3.4899230292
C             4.3976973605        4.4087335538       12.6423580806
C             3.5025288207        3.4977433052       13.5468713307
C             4.4251380879        5.5359177596       11.5188665162
C             3.4914765832        6.4640390986       10.5865342473
C             5.5195112714        5.5032206776       12.6153248611
C             6.4110566176        6.2931210998       13.5058004750
C             5.5466399760        4.4087466832       11.4915256039
C             6.4521672661        3.4974158253       10.5971152266
C            12.6398194559       12.6351715857       12.6364070074
C            13.5509989148       13.5493983909       13.5492851281
C            12.6347672468       11.5102225266       11.5067304886
C            13.5531829630       10.5907939189       10.5887139908
C            11.5015139774       11.5020254419       12.6418856683
C            10.5940661504       10.5933562710       13.5481226409
C            11.5055201619       12.6364706328       11.5008816576
C            10.5913813363       13.5500099061       10.5918465495
C             1.9941475620        0.8599632810        2.0004746301
C             2.9073828220       -0.0491032155        2.9074348148
C             0.8577419010        0.8624261169        0.8616981254
C            -0.0500695765       -0.0490278964       -0.0492294067
C             0.8672209159        1.9899401475        1.9911061618
C            -0.0542722521        2.9095177745        2.9112448616
C             1.9955698929        2.0012911705        0.8582398482
C             2.9061413206        2.9044448160       -0.0487349262
O             6.2410076161        7.9130758692       13.3361956857
H             6.3343694276        8.6902562478       13.4292938346



     Writing config-only to output data dir ./pwscf.save/
     NEW-OLD atomic charge density approx. for the potential

     Check: negative core charge=   -0.000003

     negative rho (up, down):  4.987E-04 4.343E-04
     Generating pointlists ...
     new r_m :   0.0288 (alat units)  0.7734 (a.u.) for type    1
     new r_m :   0.0229 (alat units)  0.6145 (a.u.) for type    2
     new r_m :   0.0229 (alat units)  0.6145 (a.u.) for type    3

     total cpu time spent up to now is      400.5 secs

     Self-consistent Calculation

     iteration #  1     ecut=    50.00 Ry     beta= 0.30
     Davidson diagonalization with overlap
     c_bands:  1 eigenvalues not converged
     c_bands:  1 eigenvalues not converged
     ethr =  1.00E-06,  avg # of iterations = 40.0

     negative rho (up, down):  1.099E-03 1.054E-03

     total cpu time spent up to now is      436.6 secs

     total energy              =   -1212.67752748 Ry
     estimated scf accuracy    <       8.33783302 Ry

     total magnetization       =    -0.00 Bohr mag/cell
     absolute magnetization    =     0.25 Bohr mag/cell

     iteration #  2     ecut=    50.00 Ry     beta= 0.30
     Davidson diagonalization with overlap
     ethr =  3.17E-03,  avg # of iterations =  1.0

     negative rho (up, down):  1.079E-03 1.059E-03

     total cpu time spent up to now is      442.6 secs

     total energy              =   -1211.90925600 Ry
     estimated scf accuracy    <       2.07403213 Ry

     total magnetization       =     0.00 Bohr mag/cell
     absolute magnetization    =     0.21 Bohr mag/cell

     iteration #  3     ecut=    50.00 Ry     beta= 0.30
     Davidson diagonalization with overlap
     ethr =  7.89E-04,  avg # of iterations =  2.0

     negative rho (up, down):  9.267E-04 9.003E-04

     total cpu time spent up to now is      450.0 secs

     total energy              =   -1212.18682433 Ry
     estimated scf accuracy    <       0.18459027 Ry

     total magnetization       =     0.00 Bohr mag/cell
     absolute magnetization    =     0.64 Bohr mag/cell

     iteration #  4     ecut=    50.00 Ry     beta= 0.30
     Davidson diagonalization with overlap
     ethr =  7.02E-05,  avg # of iterations =  6.0

     negative rho (up, down):  6.825E-04 6.682E-04

     total cpu time spent up to now is      458.0 secs

     total energy              =   -1212.22037901 Ry
     estimated scf accuracy    <       0.06189020 Ry

     total magnetization       =     0.00 Bohr mag/cell
     absolute magnetization    =     0.23 Bohr mag/cell

     iteration #  5     ecut=    50.00 Ry     beta= 0.30
     Davidson diagonalization with overlap
     ethr =  2.35E-05,  avg # of iterations =  5.0

     negative rho (up, down):  5.673E-04 5.613E-04

     total cpu time spent up to now is      465.2 secs

     total energy              =   -1212.22933436 Ry
     estimated scf accuracy    <       0.00695913 Ry

     total magnetization       =     0.00 Bohr mag/cell
     absolute magnetization    =     0.32 Bohr mag/cell

     iteration #  6     ecut=    50.00 Ry     beta= 0.30
     Davidson diagonalization with overlap
     ethr =  2.65E-06,  avg # of iterations =  7.5

     negative rho (up, down):  5.017E-04 5.005E-04

     total cpu time spent up to now is      474.0 secs

     total energy              =   -1212.22997145 Ry
     estimated scf accuracy    <       0.00163664 Ry

     total magnetization       =     0.00 Bohr mag/cell
     absolute magnetization    =     0.31 Bohr mag/cell

     iteration #  7     ecut=    50.00 Ry     beta= 0.30
     Davidson diagonalization with overlap
     ethr =  6.22E-07,  avg # of iterations =  2.0

     negative rho (up, down):  4.564E-04 4.568E-04

     total cpu time spent up to now is      480.8 secs

     total energy              =   -1212.23018973 Ry
     estimated scf accuracy    <       0.00028834 Ry

     total magnetization       =    -0.00 Bohr mag/cell
     absolute magnetization    =     0.34 Bohr mag/cell

     iteration #  8     ecut=    50.00 Ry     beta= 0.30
     Davidson diagonalization with overlap
     ethr =  1.10E-07,  avg # of iterations =  4.5

     negative rho (up, down):  4.301E-04 4.311E-04

     total cpu time spent up to now is      488.2 secs

     total energy              =   -1212.23029067 Ry
     estimated scf accuracy    <       0.00011369 Ry

     total magnetization       =    -0.00 Bohr mag/cell
     absolute magnetization    =     0.35 Bohr mag/cell

     iteration #  9     ecut=    50.00 Ry     beta= 0.30
     Davidson diagonalization with overlap
     ethr =  4.32E-08,  avg # of iterations =  5.0

     negative rho (up, down):  4.159E-04 4.173E-04

     total cpu time spent up to now is      495.0 secs

     total energy              =   -1212.23034071 Ry
     estimated scf accuracy    <       0.00003587 Ry

     total magnetization       =    -0.00 Bohr mag/cell
     absolute magnetization    =     0.36 Bohr mag/cell

     iteration # 10     ecut=    50.00 Ry     beta= 0.30
     Davidson diagonalization with overlap
     ethr =  1.36E-08,  avg # of iterations =  5.5

     negative rho (up, down):  4.061E-04 4.074E-04

     total cpu time spent up to now is      502.5 secs

     total energy              =   -1212.23037222 Ry
     estimated scf accuracy    <       0.00001264 Ry

     total magnetization       =    -0.00 Bohr mag/cell
     absolute magnetization    =     0.37 Bohr mag/cell

     iteration # 11     ecut=    50.00 Ry     beta= 0.30
     Davidson diagonalization with overlap
     ethr =  4.81E-09,  avg # of iterations =  5.0

     negative rho (up, down):  4.023E-04 4.031E-04

     total cpu time spent up to now is      509.4 secs

     total energy              =   -1212.23038884 Ry
     estimated scf accuracy    <       0.00000912 Ry

     total magnetization       =     0.00 Bohr mag/cell
     absolute magnetization    =     0.38 Bohr mag/cell

     iteration # 12     ecut=    50.00 Ry     beta= 0.30
     Davidson diagonalization with overlap
     ethr =  3.47E-09,  avg # of iterations =  6.5

     negative rho (up, down):  3.997E-04 4.002E-04

     total cpu time spent up to now is      517.7 secs

     total energy              =   -1212.23041145 Ry
     estimated scf accuracy    <       0.00000217 Ry

     total magnetization       =    -0.00 Bohr mag/cell
     absolute magnetization    =     0.40 Bohr mag/cell

     iteration # 13     ecut=    50.00 Ry     beta= 0.30
     Davidson diagonalization with overlap
     ethr =  8.26E-10,  avg # of iterations =  6.0

     negative rho (up, down):  3.988E-04 3.990E-04

     total cpu time spent up to now is      525.3 secs

     total energy              =   -1212.23041373 Ry
     estimated scf accuracy    <       0.00000107 Ry

     total magnetization       =     0.00 Bohr mag/cell
     absolute magnetization    =     0.40 Bohr mag/cell

     iteration # 14     ecut=    50.00 Ry     beta= 0.30
     Davidson diagonalization with overlap
     ethr =  4.06E-10,  avg # of iterations =  7.5

     negative rho (up, down):  3.968E-04 3.970E-04

     Magnetic moment per site  (integrated on atomic sphere of radius R)
     atom   1 (R=0.029)  charge=  0.5966  magn=  0.0001
     atom   2 (R=0.029)  charge=  0.7542  magn= -0.0000
     atom   3 (R=0.029)  charge=  0.5960  magn=  0.0000
     atom   4 (R=0.029)  charge=  0.7657  magn= -0.0000
     atom   5 (R=0.029)  charge=  0.5984  magn=  0.0000
     atom   6 (R=0.029)  charge=  0.7511  magn=  0.0000
     atom   7 (R=0.029)  charge=  0.5967  magn= -0.0001
     atom   8 (R=0.029)  charge=  0.7551  magn= -0.0000
     atom   9 (R=0.029)  charge=  0.5957  magn=  0.0000
     atom  10 (R=0.029)  charge=  0.7480  magn= -0.0000
     atom  11 (R=0.029)  charge=  0.5962  magn= -0.0001
     atom  12 (R=0.029)  charge=  0.7572  magn= -0.0000
     atom  13 (R=0.029)  charge=  0.5973  magn= -0.0002
     atom  14 (R=0.029)  charge=  0.7480  magn=  0.0000
     atom  15 (R=0.029)  charge=  0.5958  magn=  0.0000
     atom  16 (R=0.029)  charge=  0.7420  magn= -0.0007
     atom  17 (R=0.029)  charge=  0.6009  magn= -0.0036
     atom  18 (R=0.029)  charge=  0.7421  magn=  0.0001
     atom  19 (R=0.029)  charge=  0.6008  magn=  0.0036
     atom  20 (R=0.029)  charge=  0.7420  magn= -0.0001
     atom  21 (R=0.029)  charge=  0.6179  magn= -0.0000
     atom  22 (R=0.029)  charge=  0.6247  magn=  0.0001
     atom  23 (R=0.029)  charge=  0.6081  magn= -0.0000
     atom  24 (R=0.029)  charge=  0.7699  magn=  0.0000
     atom  25 (R=0.029)  charge=  0.5965  magn=  0.0000
     atom  26 (R=0.029)  charge=  0.7466  magn=  0.0000
     atom  27 (R=0.029)  charge=  0.5965  magn= -0.0001
     atom  28 (R=0.029)  charge=  0.7409  magn=  0.0005
     atom  29 (R=0.029)  charge=  0.5966  magn=  0.0001
     atom  30 (R=0.029)  charge=  0.7477  magn= -0.0000
     atom  31 (R=0.029)  charge=  0.5967  magn=  0.0001
     atom  32 (R=0.029)  charge=  0.7542  magn= -0.0000
     atom  33 (R=0.029)  charge=  0.5980  magn= -0.0000
     atom  34 (R=0.029)  charge=  0.7561  magn=  0.0000
     atom  35 (R=0.029)  charge=  0.5980  magn=  0.0000
     atom  36 (R=0.029)  charge=  0.7563  magn= -0.0000
     atom  37 (R=0.029)  charge=  0.5977  magn=  0.0000
     atom  38 (R=0.029)  charge=  0.7513  magn= -0.0000
     atom  39 (R=0.029)  charge=  0.5982  magn=  0.0000
     atom  40 (R=0.029)  charge=  0.7691  magn= -0.0000
     atom  41 (R=0.029)  charge=  0.6008  magn=  0.0059
     atom  42 (R=0.029)  charge=  0.7423  magn=  0.0001
     atom  43 (R=0.029)  charge=  0.6000  magn= -0.0000
     atom  44 (R=0.029)  charge=  0.7631  magn=  0.0000
     atom  45 (R=0.029)  charge=  0.6146  magn=  0.0000
     atom  46 (R=0.029)  charge=  0.6294  magn= -0.0000
     atom  47 (R=0.029)  charge=  0.6007  magn= -0.0059
     atom  48 (R=0.029)  charge=  0.7424  magn= -0.0001
     atom  49 (R=0.029)  charge=  0.5965  magn= -0.0001
     atom  50 (R=0.029)  charge=  0.7478  magn=  0.0000
     atom  51 (R=0.029)  charge=  0.5968  magn= -0.0001
     atom  52 (R=0.029)  charge=  0.7534  magn=  0.0000
     atom  53 (R=0.029)  charge=  0.5964  magn=  0.0001
     atom  54 (R=0.029)  charge=  0.7408  magn= -0.0004
     atom  55 (R=0.029)  charge=  0.5966  magn= -0.0000
     atom  56 (R=0.029)  charge=  0.7478  magn= -0.0000
     atom  57 (R=0.029)  charge=  0.5957  magn= -0.0000
     atom  58 (R=0.029)  charge=  0.7467  magn=  0.0000
     atom  59 (R=0.029)  charge=  0.5973  magn=  0.0002
     atom  60 (R=0.029)  charge=  0.7481  magn= -0.0000
     atom  61 (R=0.029)  charge=  0.5963  magn=  0.0001
     atom  62 (R=0.029)  charge=  0.7570  magn=  0.0000
     atom  63 (R=0.029)  charge=  0.5958  magn= -0.0001
     atom  64 (R=0.029)  charge=  0.7419  magn=  0.0007
     atom  65 (R=0.023)  charge=  1.1853  magn=  0.0001
     atom  66 (R=0.023)  charge=  0.3807  magn=  0.0000

     total cpu time spent up to now is      533.8 secs

     End of self-consistent calculation

 ------ SPIN UP ------------


          k = 0.0000 0.0000 0.0000 ( 57657 PWs)   bands (ev):

   -25.0492 -22.7847 -22.3062 -22.1279 -22.0051 -21.9925 -21.9911 -21.9246
   -21.9192 -18.3734 -18.2811 -18.2612 -18.2146 -18.1937 -18.1893 -18.1858
   -18.1817 -18.1546 -18.1513 -18.1273 -18.1205 -18.0926 -18.0845 -18.0786
   -18.0223 -15.1432 -14.3437 -14.2331 -14.1551 -14.1062 -14.0453 -14.0422
   -14.0253 -14.0211 -13.8846 -13.8248 -13.8103 -13.7633 -13.7326 -13.6828
   -13.5311 -13.3032 -13.2156 -13.1913 -13.1558 -13.1216 -13.1140 -13.1081
   -13.0848 -12.7529 -12.2993 -12.0925 -12.0053 -11.9738 -11.9597 -11.9286
   -11.5707 -10.8198  -9.6324  -9.5986  -9.2330  -9.1627  -9.0945  -9.0283
    -9.0073  -8.9679  -8.9472  -8.9417  -8.9160  -8.9055  -8.8618  -8.8339
    -8.8276  -8.8041  -8.7827  -8.7712  -8.7622  -8.7267  -8.6639  -8.5490
    -8.5240  -8.5139  -7.8016  -7.5292  -7.4272  -7.4141  -7.2645  -7.2400
    -7.2306  -7.2184  -7.1407  -7.1323  -7.0353  -6.9987  -6.9736  -6.9353
    -6.9071  -6.8943  -6.8662  -6.8163  -6.8037  -6.7642  -6.7252  -6.7153
    -6.6991  -6.5396  -6.5200  -6.4273  -6.3889  -6.3814  -6.3610  -6.3232
    -6.2887  -6.2595  -5.0060  -4.9811  -4.5715  -4.5395  -4.2302  -4.2061
    -4.1803  -4.1551  -4.1281  -4.0937  -4.0893  -4.0620  -4.0282  -3.9923
    -3.6586  -3.3816  -3.1691  -0.5207  -0.2624   0.4060   0.5638   0.6727
     0.7255   0.7369   0.7690   0.8603   0.8668   0.9539   0.9808   1.1180
     1.1339   1.1459   1.1966   1.2677   1.2883   1.3391   1.4325   1.5764
     1.5888   1.6182   1.6346   1.6563   1.7255   1.8017

 ------ SPIN DOWN ----------


          k = 0.0000 0.0000 0.0000 ( 57657 PWs)   bands (ev):

   -25.0487 -22.7846 -22.3063 -22.1279 -22.0050 -21.9925 -21.9911 -21.9242
   -21.9196 -18.3732 -18.2811 -18.2612 -18.2146 -18.1937 -18.1893 -18.1858
   -18.1817 -18.1548 -18.1512 -18.1273 -18.1205 -18.0926 -18.0845 -18.0786
   -18.0223 -15.1432 -14.3439 -14.2330 -14.1551 -14.1062 -14.0453 -14.0423
   -14.0259 -14.0205 -13.8845 -13.8248 -13.8103 -13.7631 -13.7328 -13.6829
   -13.5311 -13.3033 -13.2156 -13.1913 -13.1558 -13.1216 -13.1139 -13.1081
   -13.0850 -12.7529 -12.2992 -12.0926 -12.0053 -11.9738 -11.9597 -11.9286
   -11.5707 -10.8195  -9.6328  -9.5982  -9.2328  -9.1629  -9.0944  -9.0281
    -9.0076  -8.9679  -8.9472  -8.9416  -8.9161  -8.9055  -8.8618  -8.8339
    -8.8276  -8.8041  -8.7827  -8.7711  -8.7624  -8.7267  -8.6640  -8.5490
    -8.5240  -8.5140  -7.8015  -7.5291  -7.4272  -7.4140  -7.2645  -7.2400
    -7.2305  -7.2185  -7.1408  -7.1322  -7.0353  -6.9987  -6.9736  -6.9353
    -6.9071  -6.8943  -6.8662  -6.8163  -6.8038  -6.7642  -6.7252  -6.7153
    -6.6991  -6.5396  -6.5199  -6.4273  -6.3889  -6.3814  -6.3611  -6.3232
    -6.2887  -6.2595  -5.0056  -4.9814  -4.5705  -4.5405  -4.2301  -4.2055
    -4.1814  -4.1551  -4.1276  -4.0941  -4.0890  -4.0621  -4.0284  -3.9926
    -3.6585  -3.3817  -3.1691  -0.5208  -0.2624   0.4063   0.5638   0.6728
     0.7255   0.7369   0.7690   0.8605   0.8665   0.9539   0.9808   1.1180
     1.1340   1.1458   1.1966   1.2678   1.2882   1.3391   1.4325   1.5764
     1.5888   1.6183   1.6346   1.6563   1.7256   1.8018

     the spin up/dw Fermi energies are    -0.5207   -0.5208 ev

!    total energy              =   -1212.23041662 Ry
     estimated scf accuracy    <       0.00000018 Ry
     smearing contrib. (-TS)   =      -0.00005642 Ry
     internal energy E=F+TS    =   -1212.23036020 Ry

     The total energy is F=E-TS. E is the sum of the following terms:
     one-electron contribution =   -1893.98097742 Ry
     hartree contribution      =     997.61230161 Ry
     xc contribution           =    -300.36235623 Ry
     ewald contribution        =     388.85718978 Ry
     one-center paw contrib.   =    -404.35651794 Ry

     total magnetization       =     0.00 Bohr mag/cell
     absolute magnetization    =     0.41 Bohr mag/cell

     convergence has been achieved in  14 iterations

     negative rho (up, down):  3.968E-04 3.970E-04

     Forces acting on atoms (cartesian axes, Ry/au):

     atom    1 type  1   force =     0.00584104   -0.00414560   -0.00764132
     atom    2 type  1   force =     0.92307842   -0.92580102   -0.92303051
     atom    3 type  1   force =    -0.00294842    0.00013756   -0.00273238
     atom    4 type  1   force =    -1.02361250    1.01959018   -1.02367423
     atom    5 type  1   force =     0.00726374    0.00619290    0.00814203
     atom    6 type  1   force =     0.88383890    0.88472429    0.88353058
     atom    7 type  1   force =    -0.00672205   -0.00287718    0.00548640
     atom    8 type  1   force =    -0.93128951   -0.93409930    0.93105896
     atom    9 type  1   force =    -0.01650805    0.01225820   -0.00905787
     atom   10 type  1   force =    -0.86579322    0.86818313   -0.86788787
     atom   11 type  1   force =    -0.00281579   -0.00188964    0.00333285
     atom   12 type  1   force =    -0.95130750   -0.95271955    0.95174171
     atom   13 type  1   force =     0.00870358    0.00946947    0.01541825
     atom   14 type  1   force =     0.85580177    0.85545538    0.85116440
     atom   15 type  1   force =     0.01381270   -0.01826018   -0.01155759
     atom   16 type  1   force =     0.81381134   -0.81070638   -0.81509222
     atom   17 type  1   force =    -0.00617852    0.00651650    0.02516584
     atom   18 type  1   force =    -0.80212316   -0.80425162    0.80214158
     atom   19 type  1   force =     0.02451374    0.00759005   -0.00570462
     atom   20 type  1   force =     0.80269580   -0.80487854   -0.80268122
     atom   21 type  1   force =    -0.04641656   -0.05015700   -0.04673474
     atom   22 type  1   force =     0.03740840    0.08286325    0.03754805
     atom   23 type  1   force =     0.07988162    0.01395342    0.07948154
     atom   24 type  1   force =    -1.07721121    1.06416170   -1.07701644
     atom   25 type  1   force =     0.01306476   -0.00987084    0.00715761
     atom   26 type  1   force =     0.85582075   -0.85775442    0.85626609
     atom   27 type  1   force =    -0.01281166    0.01373114    0.01119997
     atom   28 type  1   force =    -0.80612692    0.80479982    0.80846171
     atom   29 type  1   force =    -0.00592191   -0.00611977   -0.01087293
     atom   30 type  1   force =    -0.85671697   -0.85681481   -0.85284644
     atom   31 type  1   force =     0.00284099    0.00153905   -0.00451964
     atom   32 type  1   force =     0.93270971    0.93444059   -0.93194989
     atom   33 type  1   force =     0.00096620   -0.00097334    0.00313725
     atom   34 type  1   force =    -0.95037967    0.95147724    0.94920459
     atom   35 type  1   force =     0.00334913   -0.00125509    0.00151749
     atom   36 type  1   force =     0.95135437    0.95371845   -0.95272961
     atom   37 type  1   force =    -0.00580748   -0.00437478   -0.00535043
     atom   38 type  1   force =    -0.88514441   -0.88588174   -0.88511646
     atom   39 type  1   force =    -0.00077056    0.00736140   -0.00138586
     atom   40 type  1   force =     1.07143874   -1.06674569    1.07149056
     atom   41 type  1   force =    -0.00019321   -0.01827265   -0.02461433
     atom   42 type  1   force =     0.81100590    0.81101463   -0.81251650
     atom   43 type  1   force =    -0.03989323    0.00145580   -0.03931934
     atom   44 type  1   force =     1.02582776   -1.02192214    1.02566266
     atom   45 type  1   force =     0.05783016    0.00058587    0.05742286
     atom   46 type  1   force =    -0.03409258   -0.27977120   -0.03416653
     atom   47 type  1   force =    -0.02397499   -0.01843795    0.00017538
     atom   48 type  1   force =    -0.81360434    0.81196133    0.81177153
     atom   49 type  1   force =    -0.01087592   -0.00658582   -0.00618592
     atom   50 type  1   force =    -0.85358145   -0.85745044   -0.85749079
     atom   51 type  1   force =    -0.00436265    0.00155648    0.00406845
     atom   52 type  1   force =    -0.92409565    0.92634313    0.92424250
     atom   53 type  1   force =     0.01158538    0.01310562   -0.01277159
     atom   54 type  1   force =     0.80813650    0.80484416   -0.80603848
     atom   55 type  1   force =     0.00643666   -0.00824675    0.01249407
     atom   56 type  1   force =     0.86792729   -0.86947354    0.86742299
     atom   57 type  1   force =    -0.00895627    0.01195198   -0.01669641
     atom   58 type  1   force =    -0.85660029    0.85707485   -0.85438110
     atom   59 type  1   force =     0.01536082    0.00916858    0.00904965
     atom   60 type  1   force =     0.85180688    0.85624894    0.85639525
     atom   61 type  1   force =     0.00248154   -0.00150341   -0.00248985
     atom   62 type  1   force =     0.94985681   -0.95084380   -0.94943041
     atom   63 type  1   force =    -0.01078638   -0.01767946    0.01323410
     atom   64 type  1   force =    -0.81465835   -0.81016086    0.81317913
     atom   65 type  2   force =    -0.12626394   -0.46709364   -0.12586916
     atom   66 type  3   force =     0.08209391    0.72354307    0.08178664

     Total force =     8.565784     Total SCF correction =     0.000780
     Energy error            =      1.4E+00 Ry
     Gradient error          =      1.1E+00 Ry/Bohr

     number of scf cycles    =   2
     number of bfgs steps    =   1

     energy             old  =   -1213.6706268197 Ry
     energy             new  =   -1212.2304166212 Ry

     CASE: energy            _new > energy            _old

     new trust radius        =       0.2151018867 bohr
     new conv_thr            =       0.0000010000 Ry


ATOMIC_POSITIONS (angstrom)
C             0.8032228218        9.1468546929        9.1492190052
C             0.0091787521        9.9428627636        9.9426994740
C             2.0528262360        7.9007518814        9.1478948351
C             2.8491778051        7.1020569178        9.9441876576
C             0.8027877541        7.8995425172        7.8973727185
C             0.0102017895        7.1054568052        7.1052695354
C             2.0538432297        9.1464910459        7.8981514365
C             2.8477995133        9.9430595772        7.1040700937
C             9.1508309591        0.8023637123        9.1483604048
C             9.9418475785        0.0106237087        9.9418163469
C             9.1469416779        2.0516172312        7.9002960443
C             9.9433183196        2.8476057791        7.1036855475
C             7.8984359204        0.8033891545        7.8964477008
C             7.1057525530        0.0109057945        7.1054156140
C             7.8967009736        2.0565585442        9.1491510510
C             7.1060560801        2.8453944705        9.9410999567
C             9.1548249705        9.1537460564        0.8011429417
C             9.9391344019        9.9406914742        0.0116182105
C             7.8963146813        9.1534799162        2.0597996419
C             7.1065165255        9.9408904224        2.8442148688
C             7.9285191189        7.8969905653        0.8335338975
C             7.1594078231        7.0899620357        0.0644236893
C             9.1372863634        7.8964774241        2.0424480792
C             9.9455115381        7.1016620786        2.8504997184
C             4.3497430044       12.6967114368        4.3516008176
C             3.5582625142       13.4886645042        3.5580241289
C             5.6032979304       11.4442016889        4.3501151855
C             6.3931193090       10.6537155333        3.5589323781
C             5.6009931468       12.6955386104        5.6025947036
[...]
     atom   5 (R=0.029)  charge=  0.6186  magn=  0.0000
     atom   6 (R=0.029)  charge=  0.6389  magn= -0.0000
     atom   7 (R=0.029)  charge=  0.6004  magn= -0.0000
     atom   8 (R=0.029)  charge=  0.6340  magn=  0.0000
     atom   9 (R=0.029)  charge=  0.6099  magn= -0.0000
     atom  10 (R=0.029)  charge=  0.6366  magn=  0.0000
     atom  11 (R=0.029)  charge=  0.6126  magn=  0.0000
     atom  12 (R=0.029)  charge=  0.6362  magn=  0.0000
     atom  13 (R=0.029)  charge=  0.6104  magn=  0.0000
     atom  14 (R=0.029)  charge=  0.6347  magn= -0.0000
     atom  15 (R=0.029)  charge=  0.6095  magn=  0.0000
     atom  16 (R=0.029)  charge=  0.6352  magn= -0.0000
     atom  17 (R=0.029)  charge=  0.6149  magn= -0.0000
     atom  18 (R=0.029)  charge=  0.6367  magn=  0.0000
     atom  19 (R=0.029)  charge=  0.6149  magn= -0.0000
     atom  20 (R=0.029)  charge=  0.6367  magn= -0.0000
     atom  21 (R=0.029)  charge=  0.6135  magn=  0.0000
     atom  22 (R=0.029)  charge=  0.6090  magn= -0.0000
     atom  23 (R=0.029)  charge=  0.6149  magn=  0.0000
     atom  24 (R=0.029)  charge=  0.6405  magn= -0.0000
     atom  25 (R=0.029)  charge=  0.6103  magn=  0.0000
     atom  26 (R=0.029)  charge=  0.6351  magn=  0.0000
     atom  27 (R=0.029)  charge=  0.6120  magn= -0.0000
     atom  28 (R=0.029)  charge=  0.6362  magn=  0.0000
     atom  29 (R=0.029)  charge=  0.6101  magn= -0.0000
     atom  30 (R=0.029)  charge=  0.6361  magn=  0.0000
     atom  31 (R=0.029)  charge=  0.6099  magn=  0.0000
     atom  32 (R=0.029)  charge=  0.6353  magn= -0.0000
     atom  33 (R=0.029)  charge=  0.6114  magn=  0.0000
     atom  34 (R=0.029)  charge=  0.6378  magn= -0.0000
     atom  35 (R=0.029)  charge=  0.6114  magn=  0.0000
     atom  36 (R=0.029)  charge=  0.6378  magn= -0.0000
     atom  37 (R=0.029)  charge=  0.6137  magn= -0.0000
     atom  38 (R=0.029)  charge=  0.6396  magn=  0.0000
     atom  39 (R=0.029)  charge=  0.6166  magn= -0.0000
     atom  40 (R=0.029)  charge=  0.6410  magn=  0.0000
     atom  41 (R=0.029)  charge=  0.6018  magn= -0.0000
     atom  42 (R=0.029)  charge=  0.6342  magn=  0.0000
     atom  43 (R=0.029)  charge=  0.6200  magn= -0.0000
     atom  44 (R=0.029)  charge=  0.6380  magn= -0.0000
     atom  45 (R=0.029)  charge=  0.6184  magn= -0.0000
     atom  46 (R=0.029)  charge=  0.6432  magn=  0.0000
     atom  47 (R=0.029)  charge=  0.6017  magn=  0.0000
     atom  48 (R=0.029)  charge=  0.6343  magn=  0.0000
     atom  49 (R=0.029)  charge=  0.6101  magn= -0.0000
     atom  50 (R=0.029)  charge=  0.6360  magn=  0.0000
     atom  51 (R=0.029)  charge=  0.6099  magn= -0.0000
     atom  52 (R=0.029)  charge=  0.6354  magn=  0.0000
     atom  53 (R=0.029)  charge=  0.6120  magn=  0.0000
     atom  54 (R=0.029)  charge=  0.6361  magn= -0.0000
     atom  55 (R=0.029)  charge=  0.6102  magn=  0.0000
     atom  56 (R=0.029)  charge=  0.6351  magn= -0.0000
     atom  57 (R=0.029)  charge=  0.6099  magn=  0.0000
     atom  58 (R=0.029)  charge=  0.6365  magn= -0.0000
     atom  59 (R=0.029)  charge=  0.6104  magn= -0.0000
     atom  60 (R=0.029)  charge=  0.6347  magn= -0.0000
     atom  61 (R=0.029)  charge=  0.6126  magn=  0.0000
     atom  62 (R=0.029)  charge=  0.6362  magn=  0.0000
     atom  63 (R=0.029)  charge=  0.6096  magn=  0.0000
     atom  64 (R=0.029)  charge=  0.6351  magn= -0.0000
     atom  65 (R=0.023)  charge=  1.1503  magn= -0.0000
     atom  66 (R=0.023)  charge=  0.2473  magn= -0.0000

     total cpu time spent up to now is     4346.5 secs

     End of self-consistent calculation

 ------ SPIN UP ------------


          k = 0.0000 0.0000 0.0000 ( 57657 PWs)   bands (ev):

   -24.7298 -23.0262 -22.9471 -22.9457 -22.9323 -22.9310 -22.8807 -21.1851
   -21.1672 -17.6730 -17.6727 -17.6478 -17.6449 -17.6231 -17.6219 -17.6019
   -17.5794 -17.5666 -17.4840 -17.4655 -17.4649 -17.4217 -17.3686 -17.3112
   -17.1069 -15.9085 -15.5077 -15.4535 -15.4429 -15.4272 -15.4247 -15.4198
   -15.3865 -15.2777 -15.0287 -14.9509 -14.9325 -14.9168 -14.8772 -14.6593
   -14.0878 -13.7495 -13.5454 -13.5427 -13.5409 -13.5373 -13.5370 -13.4982
   -13.3987 -13.1361 -12.7656 -12.7412 -12.7259 -12.6174 -12.5943 -12.3356
   -12.0644 -11.4059 -10.6131 -10.2780 -10.1080  -9.9060  -9.9048  -9.8202
    -9.7595  -9.7379  -9.7334  -9.7148  -9.6259  -9.5940  -9.5352  -9.4998
    -9.4101  -9.3982  -9.3671  -9.3493  -9.2680  -9.1625  -8.6896  -8.5561
    -8.1331  -7.9965  -7.9419  -7.8370  -7.5622  -7.3918  -7.1700  -7.1317
    -6.9847  -6.8939  -6.8886  -6.8681  -6.8513  -6.7301  -6.6708  -6.6302
    -6.3008  -6.1844  -6.0814  -6.0163  -5.9638  -5.9181  -5.8787  -5.8221
    -5.7997  -5.7853  -5.6419  -5.6193  -5.4891  -5.4795  -5.4584  -5.4233
    -5.3665  -5.3409  -5.2060  -4.9824  -4.7821  -4.5684  -4.3776  -4.3313
    -4.2935  -4.1852  -4.0891  -4.0630  -4.0157  -3.9863  -3.8602  -3.7284
    -3.2278  -3.1781  -2.9715  -2.0539  -1.2519  -1.0261  -0.9362  -0.8927
    -0.8122  -0.6527  -0.6082  -0.5982  -0.5458  -0.2452  -0.1979  -0.1694
    -0.1512  -0.1074   0.2385   0.2393   0.3823   0.6192   0.6308   0.6479
     0.7741   0.7906   0.7997   0.9154   1.1464   1.2326

 ------ SPIN DOWN ----------


          k = 0.0000 0.0000 0.0000 ( 57657 PWs)   bands (ev):

   -24.7298 -23.0262 -22.9471 -22.9457 -22.9323 -22.9310 -22.8807 -21.1851
   -21.1672 -17.6730 -17.6727 -17.6478 -17.6449 -17.6231 -17.6219 -17.6019
   -17.5794 -17.5666 -17.4840 -17.4655 -17.4649 -17.4217 -17.3686 -17.3112
   -17.1069 -15.9084 -15.5077 -15.4536 -15.4429 -15.4272 -15.4247 -15.4198
   -15.3864 -15.2777 -15.0287 -14.9509 -14.9325 -14.9167 -14.8772 -14.6593
   -14.0878 -13.7495 -13.5454 -13.5427 -13.5409 -13.5373 -13.5370 -13.4982
   -13.3987 -13.1361 -12.7656 -12.7412 -12.7259 -12.6174 -12.5943 -12.3356
   -12.0644 -11.4059 -10.6131 -10.2780 -10.1080  -9.9060  -9.9048  -9.8202
    -9.7595  -9.7379  -9.7334  -9.7148  -9.6259  -9.5940  -9.5352  -9.4998
    -9.4101  -9.3982  -9.3671  -9.3493  -9.2680  -9.1625  -8.6896  -8.5561
    -8.1331  -7.9965  -7.9419  -7.8370  -7.5622  -7.3919  -7.1700  -7.1317
    -6.9847  -6.8939  -6.8886  -6.8681  -6.8513  -6.7301  -6.6708  -6.6302
    -6.3008  -6.1844  -6.0814  -6.0163  -5.9638  -5.9181  -5.8787  -5.8221
    -5.7997  -5.7853  -5.6419  -5.6193  -5.4891  -5.4795  -5.4584  -5.4233
    -5.3665  -5.3409  -5.2060  -4.9824  -4.7821  -4.5684  -4.3776  -4.3313
    -4.2935  -4.1852  -4.0891  -4.0630  -4.0157  -3.9863  -3.8603  -3.7284
    -3.2277  -3.1781  -2.9715  -2.0537  -1.2519  -1.0261  -0.9362  -0.8927
    -0.8122  -0.6527  -0.6082  -0.5982  -0.5458  -0.2452  -0.1979  -0.1694
    -0.1512  -0.1074   0.2385   0.2393   0.3823   0.6192   0.6308   0.6479
     0.7741   0.7906   0.7997   0.9154   1.1463   1.2326

     the spin up/dw Fermi energies are    -2.0539   -2.0537 ev

!    total energy              =   -1216.92418655 Ry
     estimated scf accuracy    <          9.6E-09 Ry
     smearing contrib. (-TS)   =      -0.00005642 Ry
     internal energy E=F+TS    =   -1216.92413013 Ry

     The total energy is F=E-TS. E is the sum of the following terms:
     one-electron contribution =   -1858.67384299 Ry
     hartree contribution      =     975.63405122 Ry
     xc contribution           =    -295.37820480 Ry
     ewald contribution        =     365.36098310 Ry
     one-center paw contrib.   =    -403.86711666 Ry

     total magnetization       =     0.00 Bohr mag/cell
     absolute magnetization    =     0.00 Bohr mag/cell

     convergence has been achieved in  14 iterations

     negative rho (up, down):  2.538E-04 2.538E-04

     Forces acting on atoms (cartesian axes, Ry/au):

     atom    1 type  1   force =     0.00004719   -0.00047015    0.00001935
     atom    2 type  1   force =     0.00005673   -0.00035675   -0.00031932
     atom    3 type  1   force =    -0.00020120   -0.00013731   -0.00018824
     atom    4 type  1   force =     0.00002747   -0.00009500    0.00002429
     atom    5 type  1   force =    -0.00002873   -0.00014511   -0.00002062
     atom    6 type  1   force =     0.00065621   -0.00028791    0.00065574
     atom    7 type  1   force =     0.00000458   -0.00048338    0.00005674
     atom    8 type  1   force =    -0.00007009   -0.00009570   -0.00018230
     atom    9 type  1   force =    -0.00023642   -0.00021073    0.00006655
     atom   10 type  1   force =    -0.00018153    0.00013015   -0.00003850
     atom   11 type  1   force =    -0.00033864   -0.00029275   -0.00012299
     atom   12 type  1   force =    -0.00030130   -0.00032948   -0.00031076
     atom   13 type  1   force =     0.00003438   -0.00018910    0.00015747
     atom   14 type  1   force =    -0.00026944   -0.00005115   -0.00001157
     atom   15 type  1   force =     0.00011034   -0.00013707    0.00039264
     atom   16 type  1   force =     0.00087444   -0.00077405   -0.00022799
     atom   17 type  1   force =    -0.00005981    0.00010709   -0.00027427
     atom   18 type  1   force =     0.00031613    0.00043248    0.00039267
     atom   19 type  1   force =    -0.00029725    0.00011672   -0.00003928
     atom   20 type  1   force =     0.00060786    0.00023125    0.00011211
     atom   21 type  1   force =     0.00017069    0.00063499    0.00017843
     atom   22 type  1   force =     0.00021992   -0.00003622    0.00021364
     atom   23 type  1   force =     0.00048161    0.00080781    0.00049120
     atom   24 type  1   force =    -0.00019420   -0.00015825   -0.00019472
     atom   25 type  1   force =     0.00002704    0.00024088    0.00014457
     atom   26 type  1   force =    -0.00016446    0.00040430   -0.00030310
     atom   27 type  1   force =    -0.00026251    0.00011049    0.00017854
     atom   28 type  1   force =    -0.00016175   -0.00025870    0.00035357
     atom   29 type  1   force =    -0.00028710    0.00023649    0.00027794
     atom   30 type  1   force =     0.00029263    0.00040886    0.00024927
     atom   31 type  1   force =    -0.00016070    0.00055391    0.00041699
     atom   32 type  1   force =    -0.00033269   -0.00017368   -0.00001787
     atom   33 type  1   force =    -0.00006403    0.00026725   -0.00041876
     atom   34 type  1   force =     0.00048742   -0.00092956   -0.00031035
     atom   35 type  1   force =    -0.00044240    0.00023871   -0.00004478
     atom   36 type  1   force =     0.00003990   -0.00057005    0.00014992
     atom   37 type  1   force =     0.00033408   -0.00064851    0.00034798
     atom   38 type  1   force =     0.00002188   -0.00019354    0.00002540
     atom   39 type  1   force =    -0.00036535   -0.00058600   -0.00035035
     atom   40 type  1   force =     0.00025854    0.00018401    0.00025557
     atom   41 type  1   force =    -0.00015200    0.00031655   -0.00010256
     atom   42 type  1   force =    -0.00056347   -0.00028450    0.00011406
     atom   43 type  1   force =    -0.00028952    0.00038947   -0.00033527
     atom   44 type  1   force =    -0.00006643   -0.00041615   -0.00006083
     atom   45 type  1   force =    -0.00030783   -0.00011844   -0.00035208
     atom   46 type  1   force =     0.00012287    0.00052520    0.00012651
     atom   47 type  1   force =    -0.00004245    0.00024163   -0.00020055
     atom   48 type  1   force =    -0.00089397    0.00080882    0.00044617
     atom   49 type  1   force =     0.00026515    0.00022264   -0.00031860
     atom   50 type  1   force =     0.00050104    0.00066892    0.00054749
     atom   51 type  1   force =     0.00043095    0.00054099   -0.00018873
     atom   52 type  1   force =    -0.00026815    0.00009236   -0.00007613
     atom   53 type  1   force =     0.00018817    0.00012118   -0.00029032
     atom   54 type  1   force =     0.00015211   -0.00045966    0.00004940
     atom   55 type  1   force =     0.00013279    0.00025139   -0.00000174
     atom   56 type  1   force =    -0.00005024    0.00015054    0.00008200
     atom   57 type  1   force =     0.00003135   -0.00019896   -0.00024603
     atom   58 type  1   force =     0.00020800   -0.00012418    0.00007448
     atom   59 type  1   force =     0.00017102   -0.00017521    0.00006352
     atom   60 type  1   force =    -0.00026517   -0.00031197   -0.00052453
     atom   61 type  1   force =    -0.00011617   -0.00034292   -0.00034948
     atom   62 type  1   force =    -0.00065095    0.00002775    0.00005398
     atom   63 type  1   force =     0.00032298   -0.00021512    0.00017286
     atom   64 type  1   force =     0.00080288    0.00032556   -0.00014947
     atom   65 type  2   force =    -0.00016780   -0.00007671   -0.00017242
     atom   66 type  3   force =    -0.00014460    0.00054560   -0.00014656

     Total force =     0.004565     Total SCF correction =     0.000071
     Energy error            =      2.3E-05 Ry
     Gradient error          =      9.3E-04 Ry/Bohr

     bfgs converged in  53 scf cycles and  51 bfgs steps
     (criteria: energy <  1.0E-04 Ry, force <  1.0E-03 Ry/Bohr)

     End of BFGS Geometry Optimization

     Final energy             =   -1216.9241865515 Ry

     File ./pwscf.bfgs deleted, as requested
Begin final coordinates

ATOMIC_POSITIONS (angstrom)
C             0.7707026117        8.8319851850        9.1137716863
C            -0.0135052327        9.8040093529        9.9375878601
C             2.1495691014        8.0996766933        9.2445827680
C             2.8449938310        7.1438121767        9.9400176066
C             0.6159765133        8.2023104130        7.7109929102
C            -0.1345398423        7.2781280286        6.9604612640
C             2.0187622428        8.8319898885        7.8657214161
C             2.8425167360        9.8039866276        7.0815631711
C             9.0744836874        0.8644328472        9.0968579844
C             9.9347858831       -0.0022317032        9.9397745262
C             9.0735770377        1.9659166821        7.9749321920
C             9.9209941649        2.8163195157        7.1143044787
C             7.9449588325        0.8640205234        7.9873987022
C             7.0913449545       -0.0020208907        7.1384476554
C             7.9576304210        1.9864592984        9.0965827744
C             7.1242624630        2.8786070607        9.9384830237
C             9.1060119267        9.0858398092        0.9035947829
C             9.9599119680        9.9214887895        0.0388685101
C             7.9985660749        9.0858206817        2.0110773285
C             7.1338010906        9.9215033188        2.8650164759
C             8.0021120197        7.9584686343        0.9072090345
C             6.9762428804        7.3566330538       -0.1185587003
C             9.0838249158        7.9263135274        1.9888378791
C             9.9168183664        7.0648422715        2.8218074619
C             4.4019892334       12.5854158602        4.4352328345
C             3.5595080215       13.4509236709        3.5739261458
C             5.5329441113       11.4902330150        4.4354200856
C             6.3960899778       10.6458432792        3.5865634509
C             5.5157567913       12.5866316950        5.5614932242
C             6.3643726935       13.4521463397        6.4153999087
C             4.4026351045       11.4621166481        5.5459303567
C             3.5624282304       10.5674547945        6.3750180624
C            12.6139529188        4.4038659788        4.3854213039
C            13.4710393364        3.5406344962        3.5474946158
C            11.4804281128        4.4038841120        5.5189489989
C            10.6424340206        3.5405629828        6.3760603613
C            12.5961485650        5.5084432323        5.5011366980
C            13.3665020411        6.4465994531        6.2714837301
C            11.4511202059        5.4406291331        4.3560988655
C            10.6238253719        6.3016400285        3.5288156556
C             4.3832848362        4.5976745639       12.7034997781
C             3.5592534429        3.6403758563       13.5100749818
C             4.2373003711        5.3238059013       11.3323290862
C             3.5329696452        6.2631175633       10.6279839461
C             5.7751886276        5.3067920149       12.8702381287
C             6.5131860100        6.1505652431       13.6082201098
C             5.6084783493        4.5976921866       11.4783150817
C             6.4152501983        3.6402032059       10.6541157367
C            12.6564632001       12.5866143012       12.6107906011
C            13.5103420053       13.4520774297       13.4593532785
C            12.6408893120       11.4620973350       11.4976642022
C            13.4700331448       10.5673997505       10.6574026223
C            11.5303796665       11.4902123028       12.6279691236
C            10.6815341190       10.6458676603       13.4910683215
C            11.5302108164       12.5854083491       11.4970182918
C            10.6688700540       13.4509649159       10.6544831054
C             2.0018568454        0.8644133967        1.9794868196
C             2.8447222315       -0.0021966942        2.8397460314
C             0.8923856229        0.8639934552        0.8499648882
C             0.0434737151       -0.0019970006       -0.0035961245
C             0.8799238849        1.9659116174        1.9785727100
C             0.0193331548        2.8162366936        2.8259108727
C             2.0015898758        1.9864484593        0.8626182581
C             2.8432953441        2.8784084430        0.0294335878
O             6.3553775793        8.4392678388       13.4511038312
H             6.7124305638        9.2723087063       13.8064556399
End final coordinates



     Writing all to output data dir ./pwscf.save/

     init_run     :      5.35s CPU      5.66s WALL (       1 calls)
     electrons    :   3809.01s CPU   4004.47s WALL (      54 calls)
     update_pot   :     75.71s CPU     78.46s WALL (      52 calls)
     forces       :    166.29s CPU    176.19s WALL (      54 calls)

     Called by init_run:
     wfcinit      :      2.50s CPU      2.60s WALL (       1 calls)
     potinit      :      2.42s CPU      2.56s WALL (       2 calls)
     hinit0       :      0.95s CPU      0.99s WALL (       1 calls)

     Called by electrons:
     c_bands      :   2470.62s CPU   2538.12s WALL (     539 calls)
     sum_band     :    599.03s CPU    632.13s WALL (     539 calls)
     v_of_rho     :    335.45s CPU    356.02s WALL (     578 calls)
     newd         :    166.97s CPU    205.22s WALL (     578 calls)
     PAW_pot      :    229.33s CPU    230.50s WALL (     630 calls)
     mix_rho      :     51.11s CPU     54.78s WALL (     539 calls)

     Called by c_bands:
     init_us_2    :     35.47s CPU     35.94s WALL (    2370 calls)
     init_us_2:cp :     35.44s CPU     35.94s WALL (    2370 calls)
     regterg      :   2420.15s CPU   2486.74s WALL (    1082 calls)

     Called by *egterg:
     rdiaghg      :     60.10s CPU     61.14s WALL (    4917 calls)
     h_psi        :   1517.02s CPU   1565.11s WALL (    5059 calls)
     s_psi        :    217.63s CPU    218.73s WALL (    5059 calls)
     g_psi        :      5.20s CPU      5.28s WALL (    3975 calls)

     Called by h_psi:
     h_psi:calbec :    216.09s CPU    218.36s WALL (    5059 calls)
     vloc_psi     :   1070.27s CPU   1114.79s WALL (    5059 calls)
     add_vuspsi   :    216.51s CPU    217.70s WALL (    5059 calls)

     General routines
     calbec       :    334.60s CPU    338.04s WALL (    6673 calls)
     fft          :    201.37s CPU    222.46s WALL (   12650 calls)
     ffts         :      7.87s CPU      8.95s WALL (    2234 calls)
     fftw         :    890.45s CPU    929.97s WALL (  516302 calls)
     interpolate  :     27.06s CPU     29.25s WALL (    1156 calls)

     Parallel routines

     PWSCF        :      1h 8m CPU      1h12m WALL


   This run was terminated on:  16:38:36  24May2025            

=------------------------------------------------------------------------------=
   JOB DONE.
=------------------------------------------------------------------------------=
