
     Program PWSCF v.7.1 starts on 24May2025 at 17:34:34 

     This program is part of the open-source Quantum ESPRESSO suite
     for quantum simulation of materials; please cite
         "P. Giannozzi et al., J. Phys.:Condens. Matter 21 395502 (2009);
         "P. Giannozzi et al., J. Phys.:Condens. Matter 29 465901 (2017);
         "P. Giannozzi et al., J. Chem. Phys. 152 154105 (2020);
          URL http://www.quantum-espresso.org", 
     in publications or presentations arising from this work. More details at
     http://www.quantum-espresso.org/quote

     Parallel version (MPI), running on    16 processors

     MPI processes distributed on     1 nodes
     247698 MiB available memory on the printing compute node when the environment starts

     Reading input from input.pwi
Warning: card &CELL ignored
Warning: card / ignored
Warning: card &FCP ignored
Warning: card / ignored
Warning: card &RISM ignored
Warning: card / ignored

     Current dimensions of program PWSCF are:
     Max number of different atomic species (ntypx) = 10
     Max number of k-points (npk) =  40000
     Max angular momentum in pseudopotentials (lmaxx) =  4
     file C.pbe-n-kjpaw_psl.1.0.0.UPF: wavefunction(s)  2S 2P renormalized
     file O.pbe-n-kjpaw_psl.0.1.UPF: wavefunction(s)  2P renormalized

     IMPORTANT: XC functional enforced from input :
     Exchange-correlation= PBE
                           (   1   4   3   4   0   0   0)
     Any further DFT definition will be discarded
     Please, verify this is what you really want


     gamma-point specific algorithms are used
     Message from routine  set_nelup_neldw :
     BEWARE: non-integer number of up and down electrons!

     R & G space division:  proc/nbgrp/npool/nimage =      16
     Subspace diagonalization in iterative solution of the eigenvalue problem:
     a serial algorithm will be used


     Parallelization info
     --------------------
     sticks:   dense  smooth     PW     G-vecs:    dense   smooth      PW
     Min         356     177     43                70548    24945    3112
     Max         358     180     46                70590    24972    3130
     Sum        5721    2869    717              1129231   399349   49901

     Using Slab Decomposition



     bravais-lattice index     =            0
     lattice parameter (alat)  =      13.4114  a.u.
     unit-cell volume          =    8357.3659 (a.u.)^3
     number of atoms/cell      =           35
     number of atomic types    =            3
     number of electrons       =       141.00 (up:  70.50, down:  70.50)
     number of Kohn-Sham states=           85
     kinetic-energy cutoff     =      50.0000  Ry
     charge density cutoff     =     400.0000  Ry
     scf convergence threshold =      1.0E-06
     mixing beta               =       0.3000
     number of iterations used =            8  plain     mixing
     energy convergence thresh.=      1.0E-04
     force convergence thresh. =      1.0E-03
     Exchange-correlation= PBE
                           (   1   4   3   4   0   0   0)
     nstep                     =         1000


     celldm(1)=  13.411386  celldm(2)=   0.000000  celldm(3)=   0.000000
     celldm(4)=   0.000000  celldm(5)=   0.000000  celldm(6)=   0.000000

     crystal axes: (cart. coord. in units of alat)
               a(1) = (   1.000000   0.000000   0.000000 )  
               a(2) = (   0.000000   1.000000   0.000000 )  
               a(3) = (   0.000000   0.000000   3.464562 )  

     reciprocal axes: (cart. coord. in units 2 pi/alat)
               b(1) = (  1.000000  0.000000  0.000000 )  
               b(2) = (  0.000000  1.000000  0.000000 )  
               b(3) = (  0.000000  0.000000  0.288637 )  


     PseudoPot. # 1 for C  read from file:
     /home/ana.bisette/espresso/pseudo/C.pbe-n-kjpaw_psl.1.0.0.UPF
     MD5 check sum: 5d2aebdfa2cae82b50a7e79e9516da0f
     Pseudo is Projector augmented-wave + core cor, Zval =  4.0
     Generated using "atomic" code by A. Dal Corso  v.5.1
     Shape of augmentation charge: PSQ
     Using radial grid of 1073 points,  4 beta functions with: 
                l(1) =   0
                l(2) =   0
                l(3) =   1
                l(4) =   1
     Q(r) pseudized with 0 coefficients 


     PseudoPot. # 2 for O  read from file:
     /home/ana.bisette/espresso/pseudo/O.pbe-n-kjpaw_psl.0.1.UPF
     MD5 check sum: 0234752ac141de4415c5fc33072bef88
     Pseudo is Projector augmented-wave + core cor, Zval =  6.0
     Generated using "atomic" code by A. Dal Corso  v.5.0.99 svn rev. 10869
     Shape of augmentation charge: BESSEL
     Using radial grid of 1095 points,  4 beta functions with: 
                l(1) =   0
                l(2) =   0
                l(3) =   1
                l(4) =   1
     Q(r) pseudized with 0 coefficients 


     PseudoPot. # 3 for H  read from file:
     /home/ana.bisette/espresso/pseudo/H.pbe-rrkjus_psl.1.0.0.UPF
     MD5 check sum: f52b6d4d1c606e5624b1dc7b2218f220
     Pseudo is Ultrasoft, Zval =  1.0
     Generated using "atomic" code by A. Dal Corso  v.5.1
     Using radial grid of  929 points,  2 beta functions with: 
                l(1) =   0
                l(2) =   0
     Q(r) pseudized with 0 coefficients 


     atomic species   valence    mass     pseudopotential
        C              4.00    12.01100     C ( 1.00)
        O              6.00    15.99900     O ( 1.00)
        H              1.00     1.00800     H ( 1.00)

     Starting magnetic structure 
     atomic species   magnetization
        C            0.000
        O            0.000
        H            0.000

     No symmetry found



   Cartesian axes

     site n.     atom                  positions (alat units)
         1           C   tau(   1) = (   0.6547837   0.7372129   0.9093983  )
         2           C   tau(   2) = (   0.4704805   0.2299563   1.8767085  )
         3           C   tau(   3) = (   0.4773848   0.7342539   1.2126251  )
         4           C   tau(   4) = (   0.3047767   0.7372129   0.9093983  )
         5           C   tau(   5) = (   0.6553473   0.2227702   2.5550232  )
         6           C   tau(   6) = (   0.4703396   0.7301677   1.5878540  )
         7           C   tau(   7) = (   0.4778075   0.2257292   2.2517965  )
         8           C   tau(   8) = (   0.3051994   0.2227702   2.5551642  )
         9           C   tau(   9) = (   0.4703396   0.5550232   1.6888826  )
        10           C   tau(  10) = (   0.9798506   0.7372129   0.7217134  )
        11           C   tau(  11) = (   0.4741440   0.7318585   1.3856559  )
        12           C   tau(  12) = (   0.4703396   0.9050303   1.6890235  )
        13           C   tau(  13) = (  -0.0104269   0.5548823   0.0432577  )
        14           C   tau(  14) = (   0.4796393   0.7372129   1.0104269  )
        15           C   tau(  15) = (  -0.0145132   0.7318585   0.3464844  )
        16           C   tau(  16) = (  -0.0104269   0.9050303   0.0432577  )
        17           C   tau(  17) = (  -0.0104269   0.4051007   3.4211639  )
        18           C   tau(  18) = (   0.4802029   0.2227702   2.4539946  )
        19           C   tau(  19) = (  -0.0140905   0.2281246   3.1180781  )
        20           C   tau(  20) = (  -0.0104269   0.0549528   3.4213048  )
        21           C   tau(  21) = (   0.4703396   0.4051007   1.7756799  )
        22           C   tau(  22) = (  -0.0197266   0.2227702   2.7428491  )
        23           C   tau(  23) = (   0.4744258   0.2281246   2.0787657  )
        24           C   tau(  24) = (   0.4703396   0.0549528   1.7755390  )
        25           C   tau(  25) = (   0.8051289   0.2227702   2.6416796  )
        26           C   tau(  26) = (  -0.0105678   0.7300268   0.1444272  )
        27           C   tau(  27) = (  -0.0173313   0.2257292   2.9449063  )
        28           C   tau(  28) = (   0.1552769   0.2227702   2.6416796  )
        29           C   tau(  29) = (   0.8047062   0.7372129   0.8227420  )
        30           C   tau(  30) = (  -0.0102860   0.2298154   3.3201353  )
        31           C   tau(  31) = (  -0.0178949   0.7342539   0.5196562  )
        32           C   tau(  32) = (   0.1547133   0.7372129   0.8228829  )
        33           O   tau(  33) = (   0.4741440   0.9220798   1.3856559  )
        34           O   tau(  34) = (   0.5286741   1.1132873   1.3094265  )
        35           H   tau(  35) = (   0.4413132   1.1138509   1.2012118  )

     number of k points=     1  Gaussian smearing, width (Ry)=  0.0001
                       cart. coord. in units 2pi/alat
        k(    1) = (   0.0000000   0.0000000   0.0000000), wk =   1.0000000

     Dense  grid:   564616 G-vectors     FFT dimensions: (  90,  90, 300)

     Smooth grid:   199675 G-vectors     FFT dimensions: (  64,  64, 216)

     Estimated max dynamical RAM per process >     132.19 MB

     Estimated total dynamical RAM >       2.07 GB

     Check: negative core charge=   -0.000003
     Generating pointlists ...
     new r_m :   0.0714 (alat units)  0.9573 (a.u.) for type    1
     new r_m :   0.0574 (alat units)  0.7694 (a.u.) for type    2
     new r_m :   0.0574 (alat units)  0.7694 (a.u.) for type    3

     Initial potential from superposition of free atoms

     starting charge     140.9987, renormalised to     141.0000

     negative rho (up, down):  4.396E-08 4.396E-08
     Starting wfcs are  137 randomized atomic wfcs
     Checking if some PAW data can be deallocated... 

     total cpu time spent up to now is        2.7 secs

     Self-consistent Calculation

     iteration #  1     ecut=    50.00 Ry     beta= 0.30
     Davidson diagonalization with overlap
     ethr =  1.00E-02,  avg # of iterations =  2.0

     negative rho (up, down):  2.504E-07 2.478E-07

     total cpu time spent up to now is        4.4 secs

     total energy              =    -672.37110048 Ry
     estimated scf accuracy    <       3.98405400 Ry

     total magnetization       =     0.00 Bohr mag/cell
     absolute magnetization    =     0.04 Bohr mag/cell

     iteration #  2     ecut=    50.00 Ry     beta= 0.30
     Davidson diagonalization with overlap
     ethr =  2.83E-03,  avg # of iterations =  1.0

     negative rho (up, down):  2.521E-06 2.503E-06

     total cpu time spent up to now is        5.8 secs

     total energy              =    -671.78134953 Ry
     estimated scf accuracy    <       1.46457565 Ry

     total magnetization       =    -0.00 Bohr mag/cell
     absolute magnetization    =     0.03 Bohr mag/cell

     iteration #  3     ecut=    50.00 Ry     beta= 0.30
     Davidson diagonalization with overlap
     ethr =  1.04E-03,  avg # of iterations =  2.0

     negative rho (up, down):  7.670E-06 7.648E-06

     total cpu time spent up to now is        7.3 secs

     total energy              =    -671.91801898 Ry
     estimated scf accuracy    <       1.22482201 Ry

     total magnetization       =     0.00 Bohr mag/cell
     absolute magnetization    =     0.03 Bohr mag/cell

     iteration #  4     ecut=    50.00 Ry     beta= 0.30
     Davidson diagonalization with overlap
     ethr =  8.69E-04,  avg # of iterations =  1.0

     negative rho (up, down):  8.211E-06 8.191E-06

     total cpu time spent up to now is        8.6 secs

     total energy              =    -671.99184376 Ry
     estimated scf accuracy    <       0.15082434 Ry

     total magnetization       =    -0.00 Bohr mag/cell
     absolute magnetization    =     0.02 Bohr mag/cell

     iteration #  5     ecut=    50.00 Ry     beta= 0.30
     Davidson diagonalization with overlap
     ethr =  1.07E-04,  avg # of iterations =  4.0

     negative rho (up, down):  1.193E-05 1.190E-05

     total cpu time spent up to now is       10.1 secs

     total energy              =    -671.99892415 Ry
     estimated scf accuracy    <       0.02723875 Ry

     total magnetization       =    -0.00 Bohr mag/cell
     absolute magnetization    =     0.02 Bohr mag/cell

     iteration #  6     ecut=    50.00 Ry     beta= 0.30
     Davidson diagonalization with overlap
     c_bands:  1 eigenvalues not converged
     c_bands:  2 eigenvalues not converged
     ethr =  1.93E-05,  avg # of iterations = 20.0

     negative rho (up, down):  1.793E-05 1.791E-05

     total cpu time spent up to now is       12.4 secs

     total energy              =    -672.00182216 Ry
     estimated scf accuracy    <       0.01080699 Ry

     total magnetization       =    -0.00 Bohr mag/cell
     absolute magnetization    =     0.01 Bohr mag/cell

     iteration #  7     ecut=    50.00 Ry     beta= 0.30
     Davidson diagonalization with overlap
     ethr =  7.66E-06,  avg # of iterations =  3.5

     negative rho (up, down):  2.769E-05 2.766E-05

     total cpu time spent up to now is       13.9 secs

     total energy              =    -672.00204762 Ry
     estimated scf accuracy    <       0.00339286 Ry

     total magnetization       =    -0.00 Bohr mag/cell
     absolute magnetization    =     0.02 Bohr mag/cell

     iteration #  8     ecut=    50.00 Ry     beta= 0.30
     Davidson diagonalization with overlap
     ethr =  2.41E-06,  avg # of iterations =  5.0

     negative rho (up, down):  3.963E-05 3.960E-05

     total cpu time spent up to now is       15.5 secs

     total energy              =    -672.00191023 Ry
     estimated scf accuracy    <       0.00782759 Ry

     total magnetization       =    -0.00 Bohr mag/cell
     absolute magnetization    =     0.01 Bohr mag/cell

     iteration #  9     ecut=    50.00 Ry     beta= 0.30
     Davidson diagonalization with overlap
     ethr =  2.41E-06,  avg # of iterations =  1.0

     negative rho (up, down):  4.318E-05 4.313E-05

     total cpu time spent up to now is       16.9 secs

     total energy              =    -672.00229377 Ry
     estimated scf accuracy    <       0.00177128 Ry

     total magnetization       =     0.00 Bohr mag/cell
     absolute magnetization    =     0.02 Bohr mag/cell

     iteration # 10     ecut=    50.00 Ry     beta= 0.30
     Davidson diagonalization with overlap
     ethr =  1.26E-06,  avg # of iterations =  1.0

     negative rho (up, down):  4.470E-05 4.465E-05

     total cpu time spent up to now is       18.3 secs

     total energy              =    -672.00244971 Ry
     estimated scf accuracy    <       0.00049565 Ry

     total magnetization       =     0.00 Bohr mag/cell
     absolute magnetization    =     0.02 Bohr mag/cell

     iteration # 11     ecut=    50.00 Ry     beta= 0.30
     Davidson diagonalization with overlap
     ethr =  3.52E-07,  avg # of iterations =  1.0

     negative rho (up, down):  4.525E-05 4.519E-05

     total cpu time spent up to now is       19.7 secs

     total energy              =    -672.00248362 Ry
     estimated scf accuracy    <       0.00005629 Ry

     total magnetization       =    -0.00 Bohr mag/cell
     absolute magnetization    =     0.03 Bohr mag/cell

     iteration # 12     ecut=    50.00 Ry     beta= 0.30
     Davidson diagonalization with overlap
     ethr =  3.99E-08,  avg # of iterations =  2.0

     negative rho (up, down):  4.559E-05 4.551E-05

     total cpu time spent up to now is       21.2 secs

     total energy              =    -672.00249006 Ry
     estimated scf accuracy    <       0.00001085 Ry

     total magnetization       =    -0.00 Bohr mag/cell
     absolute magnetization    =     0.03 Bohr mag/cell

     iteration # 13     ecut=    50.00 Ry     beta= 0.30
     Davidson diagonalization with overlap
     ethr =  7.70E-09,  avg # of iterations =  3.0

     negative rho (up, down):  4.566E-05 4.557E-05

     total cpu time spent up to now is       22.6 secs

     total energy              =    -672.00249159 Ry
     estimated scf accuracy    <       0.00000377 Ry

     total magnetization       =     0.00 Bohr mag/cell
     absolute magnetization    =     0.04 Bohr mag/cell

     iteration # 14     ecut=    50.00 Ry     beta= 0.30
     Davidson diagonalization with overlap
     ethr =  2.67E-09,  avg # of iterations =  3.0

     negative rho (up, down):  4.554E-05 4.547E-05

     total cpu time spent up to now is       24.0 secs

     total energy              =    -672.00248912 Ry
     estimated scf accuracy    <       0.00000265 Ry

     total magnetization       =     0.00 Bohr mag/cell
     absolute magnetization    =     0.05 Bohr mag/cell

     iteration # 15     ecut=    50.00 Ry     beta= 0.30
     Davidson diagonalization with overlap
     ethr =  1.88E-09,  avg # of iterations =  2.0

     negative rho (up, down):  4.578E-05 4.575E-05

     total cpu time spent up to now is       25.4 secs

     total energy              =    -672.00248443 Ry
     estimated scf accuracy    <       0.00000180 Ry

     total magnetization       =     0.00 Bohr mag/cell
     absolute magnetization    =     0.03 Bohr mag/cell

     iteration # 16     ecut=    50.00 Ry     beta= 0.30
     Davidson diagonalization with overlap
     ethr =  1.28E-09,  avg # of iterations =  3.0

     negative rho (up, down):  4.628E-05 4.624E-05

     Magnetic moment per site  (integrated on atomic sphere of radius R)
     atom   1 (R=0.071)  charge=  1.1839  magn=  0.0001
     atom   2 (R=0.071)  charge=  1.1296  magn=  0.0000
     atom   3 (R=0.071)  charge=  1.1981  magn=  0.0003
     atom   4 (R=0.071)  charge=  1.1839  magn=  0.0002
     atom   5 (R=0.071)  charge=  1.1839  magn= -0.0001
     atom   6 (R=0.071)  charge=  1.1431  magn= -0.0000
     atom   7 (R=0.071)  charge=  1.1834  magn=  0.0000
     atom   8 (R=0.071)  charge=  1.1819  magn= -0.0001
     atom   9 (R=0.071)  charge=  1.1838  magn=  0.0000
     atom  10 (R=0.071)  charge=  1.1351  magn=  0.0004
     atom  11 (R=0.071)  charge=  1.2190  magn= -0.0002
     atom  12 (R=0.071)  charge=  1.1793  magn= -0.0000
     atom  13 (R=0.071)  charge=  1.1835  magn=  0.0000
     atom  14 (R=0.071)  charge=  1.1338  magn=  0.0001
     atom  15 (R=0.071)  charge=  1.1852  magn=  0.0002
     atom  16 (R=0.071)  charge=  1.1819  magn= -0.0000
     atom  17 (R=0.071)  charge=  1.1817  magn=  0.0000
     atom  18 (R=0.071)  charge=  1.1322  magn=  0.0000
     atom  19 (R=0.071)  charge=  1.1823  magn= -0.0000
     atom  20 (R=0.071)  charge=  1.1841  magn=  0.0000
     atom  21 (R=0.071)  charge=  1.1814  magn= -0.0001
     atom  22 (R=0.071)  charge=  1.1316  magn= -0.0000
     atom  23 (R=0.071)  charge=  1.1842  magn= -0.0000
     atom  24 (R=0.071)  charge=  1.1856  magn=  0.0000
     atom  25 (R=0.071)  charge=  1.1817  magn=  0.0001
     atom  26 (R=0.071)  charge=  1.1308  magn=  0.0000
     atom  27 (R=0.071)  charge=  1.1834  magn=  0.0000
     atom  28 (R=0.071)  charge=  1.1839  magn=  0.0000
     atom  29 (R=0.071)  charge=  1.1811  magn=  0.0001
     atom  30 (R=0.071)  charge=  1.1318  magn= -0.0000
     atom  31 (R=0.071)  charge=  1.1822  magn= -0.0001
     atom  32 (R=0.071)  charge=  1.1826  magn=  0.0000
     atom  33 (R=0.057)  charge=  1.9939  magn= -0.0005
     atom  34 (R=0.057)  charge=  1.9476  magn= -0.0009
     atom  35 (R=0.057)  charge=  0.4051  magn=  0.0000

     total cpu time spent up to now is       26.9 secs

     End of self-consistent calculation

 ------ SPIN UP ------------


          k = 0.0000 0.0000 0.0000 ( 24951 PWs)   bands (ev):

   -26.3795 -22.8300 -19.1207 -19.0302 -18.9018 -18.8707 -18.3889 -18.3289
   -17.9978 -17.9721 -17.0560 -16.8560 -16.7425 -16.6805 -16.6133 -16.4616
   -16.2541 -15.8529 -15.2673 -14.7672 -14.5879 -14.1830 -12.9830 -12.3336
   -12.2044 -12.1005 -12.0872 -12.0281 -11.8979 -11.4399 -11.3197 -11.0775
   -10.6890 -10.4632 -10.3761 -10.3515 -10.2688 -10.2564 -10.2093  -9.4185
    -8.4959  -7.7287  -7.6896  -7.6146  -7.4997  -7.0243  -6.5168  -6.4016
    -6.1313  -5.8820  -5.4982  -5.4352  -5.3586  -5.3156  -5.2900  -5.2424
    -5.2028  -5.1621  -5.0919  -5.0836  -5.0543  -4.8166  -4.6649  -4.5809
    -4.5161  -4.1396  -3.9694  -3.7631  -3.6744  -3.4449  -1.6118  -1.4232
    -1.1089  -0.9028  -0.7884   0.3286   0.8434   0.9318   1.0538   1.1678
     1.3428   1.4517   1.5834   1.7238   1.7834

 ------ SPIN DOWN ----------


          k = 0.0000 0.0000 0.0000 ( 24951 PWs)   bands (ev):

   -26.3809 -22.8314 -19.1207 -19.0301 -18.9017 -18.8705 -18.3889 -18.3287
   -17.9978 -17.9720 -17.0560 -16.8560 -16.7425 -16.6802 -16.6133 -16.4617
   -16.2542 -15.8528 -15.2674 -14.7672 -14.5877 -14.1829 -12.9837 -12.3336
   -12.2044 -12.1004 -12.0871 -12.0282 -11.8978 -11.4399 -11.3198 -11.0776
   -10.6890 -10.4631 -10.3760 -10.3516 -10.2688 -10.2564 -10.2092  -9.4189
    -8.4970  -7.7287  -7.6895  -7.6145  -7.4995  -7.0245  -6.5168  -6.4016
    -6.1310  -5.8820  -5.4982  -5.4352  -5.3586  -5.3156  -5.2899  -5.2426
    -5.2028  -5.1621  -5.0919  -5.0835  -5.0538  -4.8166  -4.6647  -4.5808
    -4.5160  -4.1397  -3.9691  -3.7631  -3.6744  -3.4453  -1.6125  -1.4251
    -1.1092  -0.9028  -0.7884   0.3290   0.8435   0.9319   1.0539   1.1679
     1.3428   1.4516   1.5834   1.7240   1.7835

     the spin up/dw Fermi energies are    -1.6118   -1.6125 ev

!    total energy              =    -672.00248751 Ry
     estimated scf accuracy    <       0.00000032 Ry
     smearing contrib. (-TS)   =      -0.00005642 Ry
     internal energy E=F+TS    =    -672.00243109 Ry

     The total energy is F=E-TS. E is the sum of the following terms:
     one-electron contribution =    -885.10968738 Ry
     hartree contribution      =     471.49667140 Ry
     xc contribution           =    -160.55095673 Ry
     ewald contribution        =     118.63021885 Ry
     one-center paw contrib.   =    -216.46867722 Ry

     total magnetization       =     0.00 Bohr mag/cell
     absolute magnetization    =     0.01 Bohr mag/cell

     convergence has been achieved in  16 iterations

     negative rho (up, down):  4.628E-05 4.624E-05

     Forces acting on atoms (cartesian axes, Ry/au):

     atom    1 type  1   force =    -0.04746299    0.00277275    0.03385601
     atom    2 type  1   force =     0.00346224   -0.00172564   -0.07223090
     atom    3 type  1   force =     0.00395799   -0.19264627   -0.31429295
     atom    4 type  1   force =     0.04511680    0.00314350    0.02839520
     atom    5 type  1   force =    -0.08651319   -0.00030764   -0.05360541
     atom    6 type  1   force =     0.00237901   -0.13472769    0.18956512
     atom    7 type  1   force =     0.00122703   -0.00130019   -0.00478297
     atom    8 type  1   force =     0.08535806   -0.00033852   -0.05045545
     atom    9 type  1   force =    -0.00502625    0.07988358   -0.04680563
     atom   10 type  1   force =     0.00013543   -0.00266801    0.04565459
     atom   11 type  1   force =     0.05907515   -0.05663876    0.11099609
     atom   12 type  1   force =    -0.00050898   -0.09848784   -0.05552556
     atom   13 type  1   force =     0.00019238    0.08722771    0.05229509
     atom   14 type  1   force =    -0.00497903   -0.00652046    0.01092556
     atom   15 type  1   force =     0.00150613   -0.00133605    0.00030572
     atom   16 type  1   force =     0.00034107   -0.08604148    0.04961606
     atom   17 type  1   force =     0.00052363   -0.08739990   -0.05346790
     atom   18 type  1   force =    -0.00146096    0.00222996    0.07065516
     atom   19 type  1   force =     0.00139381    0.00083013   -0.01045080
     atom   20 type  1   force =     0.00065021    0.08501416   -0.05051814
     atom   21 type  1   force =    -0.00141465   -0.08587757    0.05257513
     atom   22 type  1   force =     0.00124769    0.00240586   -0.06987189
     atom   23 type  1   force =    -0.00041897    0.00188467    0.00620442
     atom   24 type  1   force =    -0.00019767    0.08985258    0.06416805
     atom   25 type  1   force =     0.08719429   -0.00037236    0.05299306
     atom   26 type  1   force =    -0.00288226    0.00093032   -0.06872869
     atom   27 type  1   force =    -0.00141519   -0.00112665    0.00980259
     atom   28 type  1   force =    -0.08577221   -0.00028910    0.04933173
     atom   29 type  1   force =     0.06036532   -0.00194675   -0.03802744
     atom   30 type  1   force =    -0.00332081    0.00062693    0.07184530
     atom   31 type  1   force =    -0.00116397    0.00129509    0.00769815
     atom   32 type  1   force =    -0.05961585    0.00261880   -0.03497561
     atom   33 type  2   force =    -0.10324598    0.35979462    0.05693864
     atom   34 type  2   force =     0.04385992    0.03174217   -0.04739568
     atom   35 type  3   force =     0.00741280    0.00749806    0.00731334

     Total force =     0.725323     Total SCF correction =     0.000612

     BFGS Geometry Optimization
     Energy error            =      0.0E+00 Ry
     Gradient error          =      3.6E-01 Ry/Bohr

     number of scf cycles    =   1
     number of bfgs steps    =   0

     energy             new  =    -672.0024875129 Ry

     new trust radius        =       0.3786210601 bohr
     new conv_thr            =       0.0000010000 Ry


ATOMIC_POSITIONS (angstrom)
C             4.6218836678        5.2334672746        6.4719158266
C             3.3408321409        1.6310868304       13.2807770558
C             3.3900944779        5.1090559829        8.4396833339
C             2.1868747817        5.2336634691        6.4690260933
C             4.6052191893        1.5808372059       18.1046332410
C             3.3392589160        5.1107051753       11.3693135407
C             3.3916493167        1.6013119710       15.9784689619
C             2.2111695421        1.5808208611       18.1073001252
C             3.3353402232        3.9812725702       11.9612315249
C             6.9540716668        5.2305881482        5.1461593711
C             3.3962612248        5.1640280580        9.8927366016
C             3.3377306594        6.3708824801       11.9576171382
C            -0.0738981949        3.9841589174        0.3346733716
C             3.4013652130        5.2285495215        7.1767815593
C            -0.1022029918        5.1932929926        2.4591617827
C            -0.0738195138        6.3774688087        0.3332556903
C            -0.0737229064        2.8287499666       24.2517060040
C             3.4072268923        1.5821800427       17.4533891003
C            -0.0992624284        1.6194392867       22.1234696768
C            -0.0736559217        0.4349875536       24.2542669506
C             3.3372514018        2.8295555489       12.6298215587
C            -0.1393397533        1.5822731261       19.4290253885
C             3.3667782909        1.6199973252       14.7562832380
C             3.3378953980        0.4375479378       12.6349562703
C             5.7601412319        1.5808029538       18.7760427193
C            -0.0765252272        5.1814923028        0.9886303437
C            -0.1237488843        1.6014038034       20.9051873092
C             1.0566113020        1.5808470161       18.7741052263
C             5.7429439513        5.2309698230        5.8188767450
C            -0.0747572978        1.6313317559       23.6010188933
C            -0.1276159480        5.2116853339        3.6920736876
C             1.0664526493        5.2333858086        5.8214917018
O             3.3103645779        6.7343951110        9.8641306302
O             3.7752096691        7.9177972349        9.2679192861
H             3.1359226837        7.9089678021        8.5288700521



     Writing config-only to output data dir ./pwscf.save/
     NEW-OLD atomic charge density approx. for the potential

     Check: negative core charge=   -0.000003

     negative rho (up, down):  4.865E-05 4.817E-05
     Generating pointlists ...

     total cpu time spent up to now is       30.9 secs

     Self-consistent Calculation

     iteration #  1     ecut=    50.00 Ry     beta= 0.30
     Davidson diagonalization with overlap
     c_bands:  1 eigenvalues not converged
     c_bands:  1 eigenvalues not converged
     ethr =  1.00E-06,  avg # of iterations = 20.0

     negative rho (up, down):  4.341E-05 4.315E-05

     total cpu time spent up to now is       35.2 secs

     total energy              =    -671.91874410 Ry
     estimated scf accuracy    <       0.33356627 Ry

     total magnetization       =     0.00 Bohr mag/cell
     absolute magnetization    =     0.00 Bohr mag/cell

     iteration #  2     ecut=    50.00 Ry     beta= 0.30
     Davidson diagonalization with overlap
     ethr =  2.37E-04,  avg # of iterations =  2.0

     negative rho (up, down):  4.119E-05 4.105E-05

     total cpu time spent up to now is       36.6 secs

     total energy              =    -671.93169252 Ry
     estimated scf accuracy    <       0.06169585 Ry

     total magnetization       =     0.00 Bohr mag/cell
     absolute magnetization    =     0.00 Bohr mag/cell

     iteration #  3     ecut=    50.00 Ry     beta= 0.30
     Davidson diagonalization with overlap
     ethr =  4.38E-05,  avg # of iterations =  2.0

     negative rho (up, down):  4.076E-05 4.068E-05

     total cpu time spent up to now is       38.0 secs

     total energy              =    -671.93064758 Ry
     estimated scf accuracy    <       0.02223797 Ry

     total magnetization       =    -0.00 Bohr mag/cell
     absolute magnetization    =     0.00 Bohr mag/cell

     iteration #  4     ecut=    50.00 Ry     beta= 0.30
     Davidson diagonalization with overlap
     ethr =  1.58E-05,  avg # of iterations =  2.0

     negative rho (up, down):  4.272E-05 4.267E-05

     total cpu time spent up to now is       39.4 secs

     total energy              =    -671.92976664 Ry
     estimated scf accuracy    <       0.00759556 Ry

     total magnetization       =     0.00 Bohr mag/cell
     absolute magnetization    =     0.00 Bohr mag/cell

     iteration #  5     ecut=    50.00 Ry     beta= 0.30
     Davidson diagonalization with overlap
     ethr =  5.39E-06,  avg # of iterations =  5.0

     negative rho (up, down):  4.381E-05 4.378E-05

     total cpu time spent up to now is       40.9 secs

     total energy              =    -671.92995060 Ry
     estimated scf accuracy    <       0.00144377 Ry

     total magnetization       =     0.00 Bohr mag/cell
     absolute magnetization    =     0.00 Bohr mag/cell

     iteration #  6     ecut=    50.00 Ry     beta= 0.30
     Davidson diagonalization with overlap
     c_bands:  2 eigenvalues not converged
     c_bands:  1 eigenvalues not converged
     ethr =  1.02E-06,  avg # of iterations = 20.0

     negative rho (up, down):  4.314E-05 4.313E-05

     total cpu time spent up to now is       42.9 secs

     total energy              =    -671.93008251 Ry
     estimated scf accuracy    <       0.00021104 Ry

     total magnetization       =    -0.00 Bohr mag/cell
     absolute magnetization    =     0.00 Bohr mag/cell

     iteration #  7     ecut=    50.00 Ry     beta= 0.30
     Davidson diagonalization with overlap
     c_bands:  1 eigenvalues not converged
     c_bands:  1 eigenvalues not converged
     ethr =  1.50E-07,  avg # of iterations = 20.0

     negative rho (up, down):  4.266E-05 4.265E-05

     total cpu time spent up to now is       45.0 secs

     total energy              =    -671.93009341 Ry
     estimated scf accuracy    <       0.00005872 Ry

     total magnetization       =    -0.00 Bohr mag/cell
     absolute magnetization    =     0.00 Bohr mag/cell

     iteration #  8     ecut=    50.00 Ry     beta= 0.30
     Davidson diagonalization with overlap
     ethr =  4.16E-08,  avg # of iterations =  2.0

     negative rho (up, down):  4.235E-05 4.235E-05

     total cpu time spent up to now is       46.4 secs

     total energy              =    -671.93009545 Ry
     estimated scf accuracy    <       0.00001343 Ry

     total magnetization       =    -0.00 Bohr mag/cell
     absolute magnetization    =     0.00 Bohr mag/cell

     iteration #  9     ecut=    50.00 Ry     beta= 0.30
     Davidson diagonalization with overlap
     ethr =  9.53E-09,  avg # of iterations =  4.0

     negative rho (up, down):  4.208E-05 4.208E-05

     total cpu time spent up to now is       48.1 secs

     total energy              =    -671.93009764 Ry
     estimated scf accuracy    <       0.00000289 Ry

     total magnetization       =    -0.00 Bohr mag/cell
     absolute magnetization    =     0.00 Bohr mag/cell

     iteration # 10     ecut=    50.00 Ry     beta= 0.30
     Davidson diagonalization with overlap
     ethr =  2.05E-09,  avg # of iterations =  2.0

     negative rho (up, down):  4.176E-05 4.175E-05

     Magnetic moment per site  (integrated on atomic sphere of radius R)
     atom   1 (R=0.071)  charge=  1.1532  magn=  0.0000
     atom   2 (R=0.071)  charge=  1.1687  magn=  0.0000
     atom   3 (R=0.071)  charge=  1.1614  magn=  0.0000
     atom   4 (R=0.071)  charge=  1.1572  magn=  0.0000
     atom   5 (R=0.071)  charge=  1.1473  magn= -0.0000
     atom   6 (R=0.071)  charge=  1.2046  magn=  0.0000
     atom   7 (R=0.071)  charge=  1.1783  magn= -0.0000
     atom   8 (R=0.071)  charge=  1.1506  magn= -0.0000
     atom   9 (R=0.071)  charge=  1.1912  magn=  0.0000
     atom  10 (R=0.071)  charge=  1.1620  magn=  0.0000
     atom  11 (R=0.071)  charge=  1.0690  magn= -0.0000
     atom  12 (R=0.071)  charge=  1.1289  magn=  0.0000
     atom  13 (R=0.071)  charge=  1.1467  magn=  0.0000
     atom  14 (R=0.071)  charge=  1.2153  magn= -0.0000
     atom  15 (R=0.071)  charge=  1.1734  magn=  0.0000
     atom  16 (R=0.071)  charge=  1.1498  magn= -0.0000
     atom  17 (R=0.071)  charge=  1.1487  magn=  0.0000
     atom  18 (R=0.071)  charge=  1.1692  magn=  0.0000
     atom  19 (R=0.071)  charge=  1.1792  magn= -0.0000
     atom  20 (R=0.071)  charge=  1.1486  magn=  0.0000
     atom  21 (R=0.071)  charge=  1.1491  magn= -0.0000
     atom  22 (R=0.071)  charge=  1.1685  magn= -0.0000
     atom  23 (R=0.071)  charge=  1.1777  magn=  0.0000
     atom  24 (R=0.071)  charge=  1.1486  magn= -0.0000
     atom  25 (R=0.071)  charge=  1.1488  magn=  0.0000
     atom  26 (R=0.071)  charge=  1.1690  magn= -0.0000
     atom  27 (R=0.071)  charge=  1.1798  magn=  0.0000
     atom  28 (R=0.071)  charge=  1.1486  magn=  0.0000
     atom  29 (R=0.071)  charge=  1.1571  magn= -0.0000
     atom  30 (R=0.071)  charge=  1.1685  magn= -0.0000
     atom  31 (R=0.071)  charge=  1.1743  magn= -0.0000
     atom  32 (R=0.071)  charge=  1.1575  magn= -0.0000
     atom  33 (R=0.057)  charge=  1.9580  magn= -0.0000
     atom  34 (R=0.057)  charge=  1.9557  magn= -0.0000
     atom  35 (R=0.057)  charge=  0.4151  magn=  0.0000

     total cpu time spent up to now is       49.5 secs

     End of self-consistent calculation

 ------ SPIN UP ------------


          k = 0.0000 0.0000 0.0000 ( 24951 PWs)   bands (ev):

   -26.4412 -21.1362 -19.6124 -19.3546 -19.2623 -19.2070 -18.7932 -18.7366
   -18.5924 -18.5168 -16.5018 -16.4455 -16.4360 -16.3917 -16.3532 -16.2773
   -16.1565 -15.7110 -14.8453 -14.2576 -14.1086 -13.7637 -13.4806 -12.9727
   -12.9326 -12.7218 -12.7015 -12.0492 -11.8882 -11.4365 -11.2451 -11.1899
   -10.6930 -10.6744 -10.6348 -10.6062 -10.5163 -10.4364 -10.2481  -9.1934
    -8.5385  -8.0302  -7.8464  -7.8065  -7.6917  -6.9202  -6.6596  -6.6231
    -6.6127  -5.6763  -5.2000  -5.1502  -5.0815  -5.0419  -5.0131  -4.9441
    -4.8921  -4.8626  -4.8450  -4.7933  -4.7544  -4.6990  -4.5675  -4.3790
    -4.3034  -4.1083  -3.8532  -3.8240  -3.6614  -3.3250  -2.0323  -0.8819
    -0.5145  -0.3142  -0.2846  -0.1251   0.0854   0.2239   0.5637   0.8292
     1.0791   1.2774   1.3284   1.4443   1.6029

 ------ SPIN DOWN ----------


          k = 0.0000 0.0000 0.0000 ( 24951 PWs)   bands (ev):

   -26.4413 -21.1362 -19.6124 -19.3546 -19.2623 -19.2070 -18.7932 -18.7366
   -18.5924 -18.5168 -16.5018 -16.4455 -16.4359 -16.3917 -16.3532 -16.2773
   -16.1565 -15.7109 -14.8453 -14.2576 -14.1086 -13.7637 -13.4807 -12.9727
   -12.9326 -12.7218 -12.7015 -12.0492 -11.8882 -11.4365 -11.2451 -11.1899
   -10.6930 -10.6744 -10.6347 -10.6062 -10.5163 -10.4364 -10.2481  -9.1935
    -8.5386  -8.0302  -7.8464  -7.8065  -7.6917  -6.9202  -6.6596  -6.6230
    -6.6127  -5.6763  -5.2000  -5.1502  -5.0815  -5.0419  -5.0131  -4.9441
    -4.8921  -4.8626  -4.8450  -4.7933  -4.7544  -4.6990  -4.5675  -4.3790
    -4.3035  -4.1083  -3.8532  -3.8240  -3.6614  -3.3250  -2.0321  -0.8818
    -0.5145  -0.3142  -0.2847  -0.1251   0.0854   0.2239   0.5637   0.8292
     1.0791   1.2774   1.3284   1.4422   1.6028

     the spin up/dw Fermi energies are    -2.0323   -2.0321 ev

!    total energy              =    -671.93009824 Ry
     estimated scf accuracy    <       0.00000045 Ry
     smearing contrib. (-TS)   =      -0.00005642 Ry
     internal energy E=F+TS    =    -671.93004182 Ry

     The total energy is F=E-TS. E is the sum of the following terms:
     one-electron contribution =    -876.47195852 Ry
     hartree contribution      =     466.90819676 Ry
     xc contribution           =    -160.08145373 Ry
     ewald contribution        =     114.15400840 Ry
     one-center paw contrib.   =    -216.43883473 Ry

     total magnetization       =     0.00 Bohr mag/cell
     absolute magnetization    =     0.00 Bohr mag/cell

     convergence has been achieved in  10 iterations

     negative rho (up, down):  4.176E-05 4.175E-05

     Forces acting on atoms (cartesian axes, Ry/au):

     atom    1 type  1   force =     0.17555316    0.00504867   -0.10757158
     atom    2 type  1   force =     0.00350495    0.01612727    0.06011690
     atom    3 type  1   force =     0.00106751   -0.10503327    0.52623719
     atom    4 type  1   force =    -0.17420556    0.00484153   -0.10713974
     atom    5 type  1   force =     0.24253173   -0.00016560    0.13814497
     atom    6 type  1   force =     0.00860364    0.13523613   -0.09553790
     atom    7 type  1   force =     0.00096293   -0.00127802    0.02071889
     atom    8 type  1   force =    -0.23980374   -0.00015736    0.13769563
     atom    9 type  1   force =    -0.00445755   -0.39887380    0.22784156
     atom   10 type  1   force =     0.00011509   -0.00183823   -0.03511063
     atom   11 type  1   force =     0.03967826    0.09893347   -0.34122814
     atom   12 type  1   force =    -0.00136213    0.22920267    0.13693366
     atom   13 type  1   force =     0.00015669   -0.24179034   -0.13776061
     atom   14 type  1   force =     0.00657176    0.00093271   -0.23940455
     atom   15 type  1   force =     0.00084896   -0.00048841    0.00853705
     atom   16 type  1   force =     0.00018290    0.23904410   -0.13705877
     atom   17 type  1   force =     0.00018870    0.24316967    0.13860545
     atom   18 type  1   force =    -0.00036104    0.00180627   -0.05404108
     atom   19 type  1   force =     0.00170060    0.00098495    0.03527260
     atom   20 type  1   force =     0.00024240   -0.23930398    0.13715166
     atom   21 type  1   force =    -0.00105246    0.21775971   -0.12503845
     atom   22 type  1   force =     0.00061940    0.00213115    0.05433810
     atom   23 type  1   force =    -0.00155758    0.00376605   -0.01814669
     atom   24 type  1   force =    -0.00071790   -0.26766955   -0.13880915
     atom   25 type  1   force =    -0.24165789   -0.00011071   -0.13750824
     atom   26 type  1   force =    -0.00263166   -0.00016228    0.05042624
     atom   27 type  1   force =    -0.00132564   -0.00129738   -0.03436704
     atom   28 type  1   force =     0.23911275   -0.00013757   -0.13720882
     atom   29 type  1   force =    -0.17154524   -0.00070952    0.09911914
     atom   30 type  1   force =    -0.00283175   -0.00115011   -0.05644144
     atom   31 type  1   force =    -0.00022446    0.00191497   -0.00976765
     atom   32 type  1   force =     0.16550115    0.00127249    0.09702294
     atom   33 type  2   force =    -0.08777569    0.04234868    0.11312161
     atom   34 type  2   force =     0.04125200   -0.01148850   -0.05644592
     atom   35 type  3   force =     0.00311567    0.02713415   -0.01269719

     Total force =     1.327042     Total SCF correction =     0.000844
     Energy error            =      7.2E-02 Ry
     Gradient error          =      5.3E-01 Ry/Bohr

     number of scf cycles    =   2
     number of bfgs steps    =   1

     energy             old  =    -672.0024875129 Ry
     energy             new  =    -671.9300982397 Ry

     CASE: energy            _new > energy            _old

     new trust radius        =       0.1664125179 bohr
     new conv_thr            =       0.0000010000 Ry


ATOMIC_POSITIONS (angstrom)
C             4.6359608040        5.2326449003        6.4618744109
C             3.3398052674        1.6315986413       13.3022001517
C             3.3889205704        5.1661932991        8.5329000642
C             2.1734935065        5.2327311323        6.4606043078
C             4.6308782984        1.5809284483       18.1205321679
C             3.3385533220        5.1506643123       11.3130900696
C             3.3912853894        1.6016975957       15.9798875515
C             2.1858530352        1.5809212644       18.1222648012
C             3.3368309679        3.9575797506       11.9751136951
C             6.9540314992        5.2313794592        5.1326185899
C             3.3787400152        5.1808266537        9.8598160647
C             3.3378816187        6.4000931714       11.9740855678
C            -0.0739552544        3.9582878880        0.3191630726
C             3.4028419515        5.2304834367        7.1735411261
C            -0.1026496969        5.1936892543        2.4590711071
C            -0.0739206722        6.4029880118        0.3185399696
C            -0.0738782111        2.8546720644       24.2675641489
C             3.4076602017        1.5815186554       17.4324333551
C            -0.0996758206        1.6191930764       22.1265692979
C            -0.0738487698        0.4097730471       24.2692502202
C             3.3376709742        2.8550261361       12.6142282042
C            -0.1397098066        1.5815595677       19.4497488221
C             3.3669025538        1.6194383470       14.7544430574
C             3.3379540251        0.4108983939       12.6159245487
C             5.7342801148        1.5809133938       18.7603254093
C            -0.0756703719        5.1812163782        1.0090147136
C            -0.1233291516        1.6017379581       20.9022799397
C             1.0820506408        1.5809327601       18.7594738373
C             5.7250400890        5.2315472139        5.8301553744
C            -0.0737723721        1.6311458142       23.5797101634
C            -0.1272707231        5.2113012198        3.6897904778
C             1.0841342260        5.2326090942        5.8318651844
O             3.3409864965        6.6276829568        9.8472430933
O             3.7622011744        7.9083827646        9.2819764591
H             3.1337241082        7.9067439387        8.5267009754



     Writing config-only to output data dir ./pwscf.save/
     NEW-OLD atomic charge density approx. for the potential

     Check: negative core charge=   -0.000003

     negative rho (up, down):  4.153E-05 4.154E-05
     Generating pointlists ...

     total cpu time spent up to now is       53.8 secs

     Self-consistent Calculation

     iteration #  1     ecut=    50.00 Ry     beta= 0.30
     Davidson diagonalization with overlap
     c_bands:  1 eigenvalues not converged
     c_bands:  1 eigenvalues not converged
     ethr =  1.00E-06,  avg # of iterations = 20.0

     negative rho (up, down):  4.279E-05 4.279E-05

     total cpu time spent up to now is       57.5 secs

     total energy              =    -672.10525143 Ry
     estimated scf accuracy    <       0.10240464 Ry

     total magnetization       =     0.00 Bohr mag/cell
     absolute magnetization    =     0.00 Bohr mag/cell

     iteration #  2     ecut=    50.00 Ry     beta= 0.30
     Davidson diagonalization with overlap
     ethr =  7.26E-05,  avg # of iterations =  2.0

     negative rho (up, down):  4.359E-05 4.357E-05

     total cpu time spent up to now is       59.0 secs

     total energy              =    -672.10976639 Ry
     estimated scf accuracy    <       0.02698987 Ry

     total magnetization       =    -0.00 Bohr mag/cell
     absolute magnetization    =     0.00 Bohr mag/cell

     iteration #  3     ecut=    50.00 Ry     beta= 0.30
     Davidson diagonalization with overlap
     ethr =  1.91E-05,  avg # of iterations =  6.0

     negative rho (up, down):  4.400E-05 4.398E-05

     total cpu time spent up to now is       60.6 secs

     total energy              =    -672.11063531 Ry
     estimated scf accuracy    <       0.01400666 Ry

     total magnetization       =     0.00 Bohr mag/cell
     absolute magnetization    =     0.00 Bohr mag/cell

     iteration #  4     ecut=    50.00 Ry     beta= 0.30
     Davidson diagonalization with overlap
     ethr =  9.93E-06,  avg # of iterations =  3.0

     negative rho (up, down):  4.462E-05 4.461E-05

     total cpu time spent up to now is       62.0 secs

     total energy              =    -672.11168801 Ry
     estimated scf accuracy    <       0.00256430 Ry

     total magnetization       =     0.00 Bohr mag/cell
     absolute magnetization    =     0.00 Bohr mag/cell

     iteration #  5     ecut=    50.00 Ry     beta= 0.30
     Davidson diagonalization with overlap
     c_bands:  1 eigenvalues not converged
     c_bands:  1 eigenvalues not converged
     ethr =  1.82E-06,  avg # of iterations = 20.0

     negative rho (up, down):  4.558E-05 4.559E-05

     total cpu time spent up to now is       64.0 secs

     total energy              =    -672.11176594 Ry
     estimated scf accuracy    <       0.00049175 Ry

     total magnetization       =     0.00 Bohr mag/cell
     absolute magnetization    =     0.00 Bohr mag/cell

     iteration #  6     ecut=    50.00 Ry     beta= 0.30
     Davidson diagonalization with overlap
     ethr =  3.49E-07,  avg # of iterations =  8.0

     negative rho (up, down):  4.485E-05 4.486E-05

     total cpu time spent up to now is       65.8 secs

     total energy              =    -672.11183209 Ry
     estimated scf accuracy    <       0.00004963 Ry

     total magnetization       =    -0.00 Bohr mag/cell
     absolute magnetization    =     0.00 Bohr mag/cell

     iteration #  7     ecut=    50.00 Ry     beta= 0.30
     Davidson diagonalization with overlap
     ethr =  3.52E-08,  avg # of iterations =  4.0

     negative rho (up, down):  4.450E-05 4.451E-05

     total cpu time spent up to now is       67.3 secs

     total energy              =    -672.11183402 Ry
     estimated scf accuracy    <       0.00001781 Ry

     total magnetization       =     0.00 Bohr mag/cell
     absolute magnetization    =     0.00 Bohr mag/cell

     iteration #  8     ecut=    50.00 Ry     beta= 0.30
     Davidson diagonalization with overlap
     ethr =  1.26E-08,  avg # of iterations =  2.0

     negative rho (up, down):  4.428E-05 4.428E-05

     total cpu time spent up to now is       68.8 secs

     total energy              =    -672.11183570 Ry
     estimated scf accuracy    <       0.00000315 Ry

     total magnetization       =    -0.00 Bohr mag/cell
     absolute magnetization    =     0.00 Bohr mag/cell

     iteration #  9     ecut=    50.00 Ry     beta= 0.30
     Davidson diagonalization with overlap
     ethr =  2.23E-09,  avg # of iterations =  2.0

     negative rho (up, down):  4.393E-05 4.393E-05

     Magnetic moment per site  (integrated on atomic sphere of radius R)
     atom   1 (R=0.071)  charge=  1.1697  magn=  0.0000
     atom   2 (R=0.071)  charge=  1.1447  magn= -0.0000
     atom   3 (R=0.071)  charge=  1.1675  magn=  0.0000
     atom   4 (R=0.071)  charge=  1.1708  magn=  0.0000
     atom   5 (R=0.071)  charge=  1.1641  magn=  0.0000
     atom   6 (R=0.071)  charge=  1.1660  magn=  0.0000
     atom   7 (R=0.071)  charge=  1.1810  magn= -0.0000
     atom   8 (R=0.071)  charge=  1.1647  magn= -0.0000
     atom   9 (R=0.071)  charge=  1.1805  magn=  0.0000
     atom  10 (R=0.071)  charge=  1.1464  magn=  0.0000
     atom  11 (R=0.071)  charge=  1.1366  magn= -0.0000
     atom  12 (R=0.071)  charge=  1.1546  magn= -0.0000
     atom  13 (R=0.071)  charge=  1.1641  magn= -0.0000
     atom  14 (R=0.071)  charge=  1.1644  magn= -0.0000
     atom  15 (R=0.071)  charge=  1.1800  magn=  0.0000
     atom  16 (R=0.071)  charge=  1.1649  magn= -0.0000
     atom  17 (R=0.071)  charge=  1.1642  magn=  0.0000
     atom  18 (R=0.071)  charge=  1.1465  magn=  0.0000
     atom  19 (R=0.071)  charge=  1.1807  magn= -0.0000
     atom  20 (R=0.071)  charge=  1.1654  magn= -0.0000
     atom  21 (R=0.071)  charge=  1.1641  magn=  0.0000
     atom  22 (R=0.071)  charge=  1.1458  magn= -0.0000
     atom  23 (R=0.071)  charge=  1.1811  magn=  0.0000
     atom  24 (R=0.071)  charge=  1.1658  magn=  0.0000
     atom  25 (R=0.071)  charge=  1.1636  magn=  0.0000
     atom  26 (R=0.071)  charge=  1.1458  magn=  0.0000
     atom  27 (R=0.071)  charge=  1.1817  magn=  0.0000
     atom  28 (R=0.071)  charge=  1.1647  magn=  0.0000
     atom  29 (R=0.071)  charge=  1.1681  magn= -0.0000
     atom  30 (R=0.071)  charge=  1.1460  magn=  0.0000
     atom  31 (R=0.071)  charge=  1.1785  magn= -0.0000
     atom  32 (R=0.071)  charge=  1.1702  magn= -0.0000
     atom  33 (R=0.057)  charge=  1.9726  magn= -0.0000
     atom  34 (R=0.057)  charge=  1.9490  magn= -0.0000
     atom  35 (R=0.057)  charge=  0.4091  magn=  0.0000

     total cpu time spent up to now is       70.2 secs

     End of self-consistent calculation

 ------ SPIN UP ------------


          k = 0.0000 0.0000 0.0000 ( 24951 PWs)   bands (ev):

   -26.1827 -22.2408 -19.2240 -19.1663 -19.0455 -19.0136 -18.5398 -18.4755
   -18.2646 -18.1870 -16.8202 -16.6382 -16.5402 -16.5376 -16.5330 -16.3046
   -16.2093 -15.8494 -15.0358 -14.4999 -14.4871 -14.0332 -13.1571 -12.5792
   -12.5379 -12.4370 -12.3387 -12.0428 -11.9165 -11.4605 -11.3048 -11.1822
   -10.6732 -10.5218 -10.4811 -10.4387 -10.4194 -10.3627 -10.2244  -9.2512
    -8.5619  -7.8551  -7.7654  -7.6663  -7.5379  -7.0196  -6.5594  -6.4569
    -6.3219  -5.8678  -5.3967  -5.2632  -5.2331  -5.1703  -5.1378  -5.1269
    -5.0719  -5.0142  -5.0065  -4.9355  -4.9149  -4.7373  -4.5958  -4.4457
    -4.4031  -4.1641  -3.8966  -3.8158  -3.7656  -3.4585  -1.8447  -1.1123
    -0.8698  -0.6516  -0.5607   0.1839   0.5028   0.6408   0.8390   0.9886
     1.1868   1.3070   1.5933   1.7132   1.7576

 ------ SPIN DOWN ----------


          k = 0.0000 0.0000 0.0000 ( 24951 PWs)   bands (ev):

   -26.1827 -22.2408 -19.2240 -19.1663 -19.0455 -19.0136 -18.5398 -18.4755
   -18.2646 -18.1870 -16.8202 -16.6382 -16.5402 -16.5376 -16.5330 -16.3046
   -16.2093 -15.8494 -15.0358 -14.4999 -14.4871 -14.0332 -13.1571 -12.5792
   -12.5379 -12.4370 -12.3387 -12.0428 -11.9165 -11.4605 -11.3048 -11.1822
   -10.6732 -10.5218 -10.4811 -10.4387 -10.4194 -10.3627 -10.2244  -9.2512
    -8.5619  -7.8551  -7.7654  -7.6663  -7.5379  -7.0196  -6.5594  -6.4569
    -6.3219  -5.8678  -5.3967  -5.2632  -5.2331  -5.1703  -5.1378  -5.1269
    -5.0720  -5.0142  -5.0065  -4.9355  -4.9149  -4.7373  -4.5958  -4.4457
    -4.4031  -4.1641  -3.8966  -3.8158  -3.7656  -3.4585  -1.8447  -1.1123
    -0.8699  -0.6516  -0.5607   0.1839   0.5028   0.6408   0.8390   0.9886
     1.1868   1.3070   1.5933   1.7132   1.7578

     the spin up/dw Fermi energies are    -1.8447   -1.8447 ev

!    total energy              =    -672.11183616 Ry
     estimated scf accuracy    <       0.00000055 Ry
     smearing contrib. (-TS)   =      -0.00005642 Ry
     internal energy E=F+TS    =    -672.11177974 Ry

     The total energy is F=E-TS. E is the sum of the following terms:
     one-electron contribution =    -880.30528414 Ry
     hartree contribution      =     468.93942359 Ry
     xc contribution           =    -160.25465393 Ry
     ewald contribution        =     115.95270907 Ry
     one-center paw contrib.   =    -216.44397432 Ry

     total magnetization       =     0.00 Bohr mag/cell
     absolute magnetization    =     0.00 Bohr mag/cell

     convergence has been achieved in   9 iterations

     negative rho (up, down):  4.393E-05 4.393E-05

     Forces acting on atoms (cartesian axes, Ry/au):

     atom    1 type  1   force =     0.05833266    0.00314131   -0.03296361
     atom    2 type  1   force =     0.00344748    0.00388448   -0.01682402
     atom    3 type  1   force =     0.00280010   -0.15124049    0.08905294
     atom    4 type  1   force =    -0.05826314    0.00279192   -0.03528370
     atom    5 type  1   force =     0.07151134   -0.00025407    0.03981714
     atom    6 type  1   force =     0.00616615   -0.04005312    0.07151674
     atom    7 type  1   force =     0.00111632   -0.00129816    0.00595926
     atom    8 type  1   force =    -0.07013344   -0.00027500    0.04077752
     atom    9 type  1   force =    -0.00436580   -0.11734748    0.06933451
     atom   10 type  1   force =     0.00004611   -0.00223215    0.01145265
     atom   11 type  1   force =     0.05498418    0.05813975   -0.17179275
     atom   12 type  1   force =    -0.00098027    0.06526483    0.04129696
     atom   13 type  1   force =     0.00018673   -0.07087887   -0.04060959
     atom   14 type  1   force =    -0.00027728   -0.01147889   -0.06111212
     atom   15 type  1   force =     0.00125275   -0.00101026    0.00387358
     atom   16 type  1   force =     0.00023751    0.06944824   -0.04117993
     atom   17 type  1   force =     0.00038291    0.07133628    0.04002020
     atom   18 type  1   force =    -0.00097096    0.00200505    0.01906003
     atom   19 type  1   force =     0.00155229    0.00085372    0.00917124
     atom   20 type  1   force =     0.00046056   -0.07011729    0.04057992
     atom   21 type  1   force =    -0.00097129    0.06068381   -0.03469279
     atom   22 type  1   force =     0.00094661    0.00224995   -0.01821004
     atom   23 type  1   force =    -0.00107201    0.00273551   -0.00430488
     atom   24 type  1   force =    -0.00043098   -0.08215004   -0.03508173
     atom   25 type  1   force =    -0.07084198   -0.00024667   -0.03996262
     atom   26 type  1   force =    -0.00274545    0.00040257   -0.01939104
     atom   27 type  1   force =    -0.00134046   -0.00124107   -0.00913344
     atom   28 type  1   force =     0.06943617   -0.00025174   -0.04132115
     atom   29 type  1   force =    -0.04848384   -0.00121154    0.02653108
     atom   30 type  1   force =    -0.00309037    0.00008890    0.01854563
     atom   31 type  1   force =    -0.00072220    0.00173132   -0.00063011
     atom   32 type  1   force =     0.04539511    0.00178946    0.02687560
     atom   33 type  2   force =    -0.09610731    0.20835167    0.09739022
     atom   34 type  2   force =     0.03777080   -0.01914231   -0.04677859
     atom   35 type  3   force =     0.00477101    0.01553037   -0.00198314

     Total force =     0.501171     Total SCF correction =     0.001184
     Energy error            =      1.1E-01 Ry
     Gradient error          =      2.1E-01 Ry/Bohr

     number of scf cycles    =   3
     number of bfgs steps    =   1

     energy             old  =    -672.0024875129 Ry
     energy             new  =    -672.1118361550 Ry

     CASE: energy            _new < energy            _old

     new trust radius        =       0.4128488056 bohr
     new conv_thr            =       0.0000010000 Ry


ATOMIC_POSITIONS (angstrom)
C             4.6541829628        5.2349355186        6.4533056615
C             3.3424221573        1.6331646846       13.2758330809
C             3.3913276100        5.0413759738        8.5012972978
C             2.1547304783        5.2349338537        6.4495051690
C             4.6462569261        1.5807226968       18.1277593886
C             3.3422968483        5.0970405756       11.3963071060
C             3.3921587863        1.6007130666       15.9817653060
C             2.1708964887        1.5806972012       18.1307580128
C             3.3333593185        3.9170898679       11.9991337241
C             6.9540883962        5.2295803472        5.1497037523
C             3.4214243695        5.1966953867        9.7990780673
C             3.3372543541        6.4093293466       11.9815991116
C            -0.0738123181        3.9434088436        0.3112079109
C             3.4014764965        5.2230005445        7.1449173572
C            -0.1016378301        5.1928434071        2.4611307002
C            -0.0737151890        6.4174255995        0.3096343490
C            -0.0735533824        2.8697431371       24.2749291839
C             3.4068037933        1.5830937875       17.4595587774
C            -0.0985380921        1.6198344164       22.1286999297
C            -0.0734530556        0.3947402692       24.2776267968
C             3.3368257773        2.8650139043       12.6093730817
C            -0.1389182799        1.5833033872       19.4232513187
C             3.3662504075        1.6213028604       14.7537621272
C             3.3376846612        0.3908899850       12.6137186837
C             5.7194117554        1.5806955305       18.7528731985
C            -0.0777850945        5.1816512082        0.9821930711
C            -0.1243636093        1.6008253170       20.9000094051
C             1.0965482092        1.5807327558       18.7504260074
C             5.7150338279        5.2304481928        5.8344037127
C            -0.0761715587        1.6313454004       23.6068644826
C            -0.1279267164        5.2125064113        3.6913591932
C             1.0927422592        5.2341693220        5.8370398924
O             3.2663810983        6.8228291528        9.9111274897
O             3.7923283930        7.9063753989        9.2463656848
H             3.1379897514        7.9165426494        8.5274819680



     Writing config-only to output data dir ./pwscf.save/
     NEW-OLD atomic charge density approx. for the potential

     Check: negative core charge=   -0.000003

     negative rho (up, down):  4.484E-05 4.484E-05
     Generating pointlists ...
     new r_m :   0.0565 (alat units)  0.7578 (a.u.) for type    2
     new r_m :   0.0565 (alat units)  0.7578 (a.u.) for type    3

     total cpu time spent up to now is       74.3 secs

     Self-consistent Calculation

     iteration #  1     ecut=    50.00 Ry     beta= 0.30
     Davidson diagonalization with overlap
     c_bands:  1 eigenvalues not converged
     c_bands:  1 eigenvalues not converged
     ethr =  1.00E-06,  avg # of iterations = 20.0

     negative rho (up, down):  4.582E-05 4.581E-05

     total cpu time spent up to now is       78.1 secs

     total energy              =    -672.22568456 Ry
     estimated scf accuracy    <       0.08976013 Ry

     total magnetization       =    -0.00 Bohr mag/cell
     absolute magnetization    =     0.00 Bohr mag/cell

     iteration #  2     ecut=    50.00 Ry     beta= 0.30
     Davidson diagonalization with overlap
     ethr =  6.37E-05,  avg # of iterations = 13.0

     negative rho (up, down):  4.653E-05 4.652E-05

     total cpu time spent up to now is       79.9 secs

     total energy              =    -672.22807950 Ry
     estimated scf accuracy    <       0.03522464 Ry

     total magnetization       =     0.00 Bohr mag/cell
     absolute magnetization    =     0.00 Bohr mag/cell

     iteration #  3     ecut=    50.00 Ry     beta= 0.30
     Davidson diagonalization with overlap
     ethr =  2.50E-05,  avg # of iterations =  7.0

     negative rho (up, down):  4.678E-05 4.678E-05

     total cpu time spent up to now is       81.5 secs

     total energy              =    -672.22339890 Ry
     estimated scf accuracy    <       0.00927435 Ry

     total magnetization       =     0.00 Bohr mag/cell
     absolute magnetization    =     0.00 Bohr mag/cell

     iteration #  4     ecut=    50.00 Ry     beta= 0.30
     Davidson diagonalization with overlap
     ethr =  6.58E-06,  avg # of iterations =  5.0

     negative rho (up, down):  4.903E-05 4.904E-05

     total cpu time spent up to now is       83.0 secs

     total energy              =    -672.22041272 Ry
     estimated scf accuracy    <       0.00283087 Ry

     total magnetization       =    -0.00 Bohr mag/cell
     absolute magnetization    =     0.00 Bohr mag/cell

     iteration #  5     ecut=    50.00 Ry     beta= 0.30
     Davidson diagonalization with overlap
     ethr =  2.01E-06,  avg # of iterations =  2.0

     negative rho (up, down):  4.941E-05 4.942E-05

     total cpu time spent up to now is       84.5 secs

     total energy              =    -672.22028864 Ry
     estimated scf accuracy    <       0.00033634 Ry

     total magnetization       =    -0.00 Bohr mag/cell
     absolute magnetization    =     0.00 Bohr mag/cell

     iteration #  6     ecut=    50.00 Ry     beta= 0.30
     Davidson diagonalization with overlap
     ethr =  2.39E-07,  avg # of iterations =  4.0

     negative rho (up, down):  4.867E-05 4.868E-05

     total cpu time spent up to now is       85.9 secs

     total energy              =    -672.22030493 Ry
     estimated scf accuracy    <       0.00006967 Ry

     total magnetization       =    -0.00 Bohr mag/cell
     absolute magnetization    =     0.00 Bohr mag/cell

     iteration #  7     ecut=    50.00 Ry     beta= 0.30
     Davidson diagonalization with overlap
     ethr =  4.94E-08,  avg # of iterations =  2.0

     negative rho (up, down):  4.812E-05 4.812E-05

     total cpu time spent up to now is       87.4 secs

     total energy              =    -672.22030777 Ry
     estimated scf accuracy    <       0.00001566 Ry

     total magnetization       =     0.00 Bohr mag/cell
     absolute magnetization    =     0.00 Bohr mag/cell

     iteration #  8     ecut=    50.00 Ry     beta= 0.30
     Davidson diagonalization with overlap
     ethr =  1.11E-08,  avg # of iterations =  3.0

     negative rho (up, down):  4.777E-05 4.777E-05

     total cpu time spent up to now is       88.9 secs

     total energy              =    -672.22031067 Ry
     estimated scf accuracy    <       0.00000166 Ry

     total magnetization       =     0.00 Bohr mag/cell
     absolute magnetization    =     0.00 Bohr mag/cell

     iteration #  9     ecut=    50.00 Ry     beta= 0.30
     Davidson diagonalization with overlap
     ethr =  1.17E-09,  avg # of iterations =  4.5

     negative rho (up, down):  4.737E-05 4.737E-05

     Magnetic moment per site  (integrated on atomic sphere of radius R)
     atom   1 (R=0.071)  charge=  1.1865  magn=  0.0000
     atom   2 (R=0.071)  charge=  1.1375  magn= -0.0000
     atom   3 (R=0.071)  charge=  1.1720  magn= -0.0000
     atom   4 (R=0.071)  charge=  1.1891  magn=  0.0000
     atom   5 (R=0.071)  charge=  1.1832  magn= -0.0000
     atom   6 (R=0.071)  charge=  1.1405  magn= -0.0000
     atom   7 (R=0.071)  charge=  1.1732  magn= -0.0000
     atom   8 (R=0.071)  charge=  1.1829  magn=  0.0000
     atom   9 (R=0.071)  charge=  1.2309  magn=  0.0000
     atom  10 (R=0.071)  charge=  1.1406  magn=  0.0000
     atom  11 (R=0.071)  charge=  1.0981  magn= -0.0000
     atom  12 (R=0.071)  charge=  1.1620  magn=  0.0000
     atom  13 (R=0.071)  charge=  1.1831  magn=  0.0000
     atom  14 (R=0.071)  charge=  1.1575  magn=  0.0000
     atom  15 (R=0.071)  charge=  1.1722  magn= -0.0000
     atom  16 (R=0.071)  charge=  1.1828  magn=  0.0000
     atom  17 (R=0.071)  charge=  1.1818  magn=  0.0000
     atom  18 (R=0.071)  charge=  1.1377  magn= -0.0000
     atom  19 (R=0.071)  charge=  1.1717  magn=  0.0000
     atom  20 (R=0.071)  charge=  1.1847  magn= -0.0000
     atom  21 (R=0.071)  charge=  1.2005  magn=  0.0000
     atom  22 (R=0.071)  charge=  1.1377  magn=  0.0000
     atom  23 (R=0.071)  charge=  1.1724  magn=  0.0000
     atom  24 (R=0.071)  charge=  1.1822  magn= -0.0000
     atom  25 (R=0.071)  charge=  1.1810  magn=  0.0000
     atom  26 (R=0.071)  charge=  1.1366  magn= -0.0000
     atom  27 (R=0.071)  charge=  1.1719  magn= -0.0000
     atom  28 (R=0.071)  charge=  1.1846  magn= -0.0000
     atom  29 (R=0.071)  charge=  1.1869  magn= -0.0000
     atom  30 (R=0.071)  charge=  1.1373  magn= -0.0000
     atom  31 (R=0.071)  charge=  1.1751  magn=  0.0000
     atom  32 (R=0.071)  charge=  1.1901  magn= -0.0000
     atom  33 (R=0.057)  charge=  1.8910  magn=  0.0000
     atom  34 (R=0.057)  charge=  1.8963  magn= -0.0000
     atom  35 (R=0.057)  charge=  0.4063  magn=  0.0000

     total cpu time spent up to now is       90.5 secs

     End of self-consistent calculation

 ------ SPIN UP ------------


          k = 0.0000 0.0000 0.0000 ( 24951 PWs)   bands (ev):

   -26.7186 -20.4006 -19.1894 -19.1260 -19.0299 -18.9067 -18.4810 -18.3340
   -18.1379 -17.9594 -16.8828 -16.8474 -16.8433 -16.8355 -16.6072 -16.3299
   -16.2269 -15.8444 -15.0261 -14.5690 -14.5033 -14.1423 -12.9557 -12.4853
   -12.4762 -12.3971 -12.2216 -11.8532 -11.6768 -11.3640 -11.1095 -10.6917
   -10.6027 -10.5734 -10.5644 -10.5213 -10.3401 -10.2382 -10.0543  -9.0727
    -8.5140  -7.8182  -7.7630  -7.7544  -7.7051  -6.5385  -6.4247  -6.4208
    -6.3922  -5.7483  -5.4374  -5.3768  -5.3474  -5.2702  -5.2404  -5.2120
    -5.1948  -5.1826  -5.1712  -5.1362  -5.0179  -4.8990  -4.7247  -4.5769
    -4.4967  -4.0868  -3.9638  -3.8675  -3.7923  -3.5330  -2.2239  -0.7371
    -0.6682  -0.6070  -0.2513   0.4988   0.6507   0.7784   0.9772   1.0570
     1.3318   1.5163   1.5984   1.7374   1.9325

 ------ SPIN DOWN ----------


          k = 0.0000 0.0000 0.0000 ( 24951 PWs)   bands (ev):

   -26.7186 -20.4006 -19.1894 -19.1260 -19.0299 -18.9067 -18.4810 -18.3340
   -18.1379 -17.9594 -16.8829 -16.8474 -16.8433 -16.8355 -16.6072 -16.3299
   -16.2269 -15.8444 -15.0261 -14.5690 -14.5033 -14.1423 -12.9558 -12.4853
   -12.4762 -12.3971 -12.2216 -11.8532 -11.6768 -11.3640 -11.1095 -10.6917
   -10.6027 -10.5734 -10.5644 -10.5213 -10.3401 -10.2382 -10.0543  -9.0727
    -8.5139  -7.8182  -7.7630  -7.7544  -7.7051  -6.5385  -6.4247  -6.4208
    -6.3922  -5.7483  -5.4374  -5.3768  -5.3474  -5.2702  -5.2404  -5.2120
    -5.1948  -5.1826  -5.1712  -5.1362  -5.0179  -4.8990  -4.7247  -4.5769
    -4.4967  -4.0868  -3.9638  -3.8675  -3.7923  -3.5330  -2.2239  -0.7371
    -0.6682  -0.6070  -0.2512   0.4988   0.6507   0.7784   0.9772   1.0570
     1.3318   1.5162   1.5984   1.7373   1.9324

     the spin up/dw Fermi energies are    -2.2239   -2.2239 ev

!    total energy              =    -672.22031140 Ry
     estimated scf accuracy    <       0.00000034 Ry
     smearing contrib. (-TS)   =      -0.00005642 Ry
     internal energy E=F+TS    =    -672.22025499 Ry

     The total energy is F=E-TS. E is the sum of the following terms:
     one-electron contribution =    -873.50359426 Ry
     hartree contribution      =     465.71221158 Ry
     xc contribution           =    -160.36711062 Ry
     ewald contribution        =     112.39938922 Ry
     one-center paw contrib.   =    -216.46115090 Ry

     total magnetization       =    -0.00 Bohr mag/cell
     absolute magnetization    =     0.00 Bohr mag/cell

     convergence has been achieved in   9 iterations

     negative rho (up, down):  4.737E-05 4.737E-05

     Forces acting on atoms (cartesian axes, Ry/au):

     atom    1 type  1   force =    -0.04988839    0.00355926    0.01567734
     atom    2 type  1   force =     0.00177067   -0.00465789    0.01142522
     atom    3 type  1   force =     0.00854902   -0.05174796    0.12638039
     atom    4 type  1   force =     0.05327919    0.00325162    0.01776621
     atom    5 type  1   force =    -0.02931342    0.00010605   -0.00784821
     atom    6 type  1   force =     0.01282118    0.11004586   -0.09975872
     atom    7 type  1   force =     0.00051769   -0.00075359    0.02168348
     atom    8 type  1   force =     0.03198115    0.00010541   -0.00854930
     atom    9 type  1   force =    -0.00279342    0.01293113    0.00203344
     atom   10 type  1   force =    -0.00092340   -0.00103142   -0.00510886
     atom   11 type  1   force =     0.00700558    0.07425565   -0.03799261
     atom   12 type  1   force =     0.00121595   -0.05186288    0.00488280
     atom   13 type  1   force =    -0.00027620    0.02971544    0.00899294
     atom   14 type  1   force =     0.00457238   -0.01909053   -0.06139046
     atom   15 type  1   force =     0.00093063   -0.00054505   -0.02561932
     atom   16 type  1   force =    -0.00025873   -0.03214393    0.00965123
     atom   17 type  1   force =    -0.00014483   -0.02853431   -0.00746469
     atom   18 type  1   force =     0.00070205    0.00119010   -0.01111675
     atom   19 type  1   force =     0.00073711    0.00046889    0.01889509
     atom   20 type  1   force =    -0.00010514    0.03257010   -0.00889357
     atom   21 type  1   force =     0.00057727   -0.11924080    0.05902525
     atom   22 type  1   force =    -0.00033383    0.00135102    0.00872734
     atom   23 type  1   force =    -0.00162874    0.00226084   -0.01811054
     atom   24 type  1   force =    -0.00010699    0.01064070    0.01756237
     atom   25 type  1   force =     0.02913903    0.00017811    0.00865423
     atom   26 type  1   force =    -0.00173254   -0.00078678    0.01112798
     atom   27 type  1   force =    -0.00048136   -0.00062763   -0.01780108
     atom   28 type  1   force =    -0.03215153    0.00014162    0.00922829
     atom   29 type  1   force =     0.04814760   -0.00053292   -0.02335286
     atom   30 type  1   force =    -0.00188515   -0.00077606   -0.01144925
     atom   31 type  1   force =    -0.00045244    0.00234649    0.01490638
     atom   32 type  1   force =    -0.05365649    0.00020666   -0.02506484
     atom   33 type  2   force =    -0.05818753   -0.00175794    0.07566330
     atom   34 type  2   force =     0.03334893   -0.00250713   -0.05120648
     atom   35 type  3   force =    -0.00097531    0.03127185   -0.02155575

     Total force =     0.332997     Total SCF correction =     0.000498
     Energy error            =      1.1E-01 Ry
     Gradient error          =      1.3E-01 Ry/Bohr

     number of scf cycles    =   4
     number of bfgs steps    =   2

     energy             old  =    -672.1118361550 Ry
     energy             new  =    -672.2203114045 Ry

     CASE: energy            _new < energy            _old

     new trust radius        =       0.2246408049 bohr
     new conv_thr            =       0.0000010000 Ry


ATOMIC_POSITIONS (angstrom)
C             4.6370058307        5.2376872931        6.4573615991
C             3.3444021742        1.6314839792       13.2709624662
C             3.3966450172        4.9636850339        8.5541299253
C             2.1734111586        5.2374900220        6.4535852019
C             4.6385686937        1.5806913861       18.1272395765
C             3.3503539058        5.1309736843       11.3797247082
C             3.3927820289        1.5999238883       15.9935679029
C             2.1801218835        1.5806580257       18.1303971861
C             3.3305108340        3.9058935631       12.0106822006
C             6.9536442805        5.2283152457        5.1540290889
C             3.4426322739        5.2414056070        9.7533065686
C             3.3376074716        6.3877142104       11.9876566024
C            -0.0738928921        3.9515070687        0.3120079418
C             3.4032475208        5.2102162672        7.1016422615
C            -0.1007489716        5.1922187892        2.4490377310
C            -0.0737614923        6.4079028319        0.3103840536
C            -0.0734927868        2.8623252115       24.2746608506
C             3.4068066525        1.5843474252       17.4649183112
C            -0.0976930001        1.6203374887       22.1392398051
C            -0.0733432531        0.4042338648       24.2770427848
C             3.3367699102        2.8095319451       12.6368019099
C            -0.1387607655        1.5847086734       19.4169431729
C             3.3651528787        1.6232234564       14.7442644337
C             3.3375177876        0.3871431652       12.6212056628
C             5.7272230824        1.5806960167       18.7537099442
C            -0.0795371830        5.1814306450        0.9769540133
C            -0.1250353677        1.6001290865       20.8899685131
C             1.0870450687        1.5807217429       18.7509034870
C             5.7347187883        5.2297268349        5.8246629642
C            -0.0781182602        1.6310327516       23.6120593960
C            -0.1284252558        5.2141951766        3.6995110977
C             1.0696716964        5.2349161957        5.8268033790
O             3.2060653855        6.9020421503        9.9760777215
O             3.8216544581        7.9040260194        9.2057050054
H             3.1392504464        7.9364652544        8.5168525330



     Writing config-only to output data dir ./pwscf.save/
     NEW-OLD atomic charge density approx. for the potential

     Check: negative core charge=   -0.000003

     negative rho (up, down):  4.675E-05 4.682E-05
     Generating pointlists ...

     total cpu time spent up to now is       94.7 secs

     Self-consistent Calculation

     iteration #  1     ecut=    50.00 Ry     beta= 0.30
     Davidson diagonalization with overlap
     c_bands:  1 eigenvalues not converged
     c_bands:  1 eigenvalues not converged
     ethr =  1.00E-06,  avg # of iterations = 20.0

     negative rho (up, down):  4.518E-05 4.519E-05

     total cpu time spent up to now is       98.5 secs

     total energy              =    -672.23380017 Ry
     estimated scf accuracy    <       0.07437175 Ry

     total magnetization       =    -0.00 Bohr mag/cell
     absolute magnetization    =     0.00 Bohr mag/cell

     iteration #  2     ecut=    50.00 Ry     beta= 0.30
     Davidson diagonalization with overlap
     ethr =  5.27E-05,  avg # of iterations =  2.0

     negative rho (up, down):  4.450E-05 4.451E-05

     total cpu time spent up to now is       99.9 secs

     total energy              =    -672.23836671 Ry
     estimated scf accuracy    <       0.01153716 Ry

     total magnetization       =    -0.00 Bohr mag/cell
     absolute magnetization    =     0.00 Bohr mag/cell

     iteration #  3     ecut=    50.00 Ry     beta= 0.30
     Davidson diagonalization with overlap
     ethr =  8.18E-06,  avg # of iterations = 19.5

     negative rho (up, down):  4.446E-05 4.446E-05

     total cpu time spent up to now is      101.8 secs

     total energy              =    -672.23756960 Ry
     estimated scf accuracy    <       0.00389561 Ry

     total magnetization       =    -0.00 Bohr mag/cell
     absolute magnetization    =     0.00 Bohr mag/cell

     iteration #  4     ecut=    50.00 Ry     beta= 0.30
     Davidson diagonalization with overlap
     ethr =  2.76E-06,  avg # of iterations =  8.0

     negative rho (up, down):  4.555E-05 4.553E-05

     total cpu time spent up to now is      103.4 secs

     total energy              =    -672.23719166 Ry
     estimated scf accuracy    <       0.00120889 Ry

     total magnetization       =     0.00 Bohr mag/cell
     absolute magnetization    =     0.00 Bohr mag/cell

     iteration #  5     ecut=    50.00 Ry     beta= 0.30
     Davidson diagonalization with overlap
     ethr =  8.57E-07,  avg # of iterations =  2.0

     negative rho (up, down):  4.539E-05 4.538E-05

     total cpu time spent up to now is      104.9 secs

     total energy              =    -672.23726997 Ry
     estimated scf accuracy    <       0.00013142 Ry

     total magnetization       =     0.00 Bohr mag/cell
     absolute magnetization    =     0.00 Bohr mag/cell

     iteration #  6     ecut=    50.00 Ry     beta= 0.30
     Davidson diagonalization with overlap
     ethr =  9.32E-08,  avg # of iterations =  5.0

     negative rho (up, down):  4.537E-05 4.536E-05

     total cpu time spent up to now is      106.4 secs

     total energy              =    -672.23726592 Ry
     estimated scf accuracy    <       0.00003280 Ry

     total magnetization       =     0.00 Bohr mag/cell
     absolute magnetization    =     0.00 Bohr mag/cell

     iteration #  7     ecut=    50.00 Ry     beta= 0.30
     Davidson diagonalization with overlap
     ethr =  2.33E-08,  avg # of iterations =  2.0

     negative rho (up, down):  4.498E-05 4.497E-05

     total cpu time spent up to now is      108.0 secs

     total energy              =    -672.23726990 Ry
     estimated scf accuracy    <       0.00000623 Ry

     total magnetization       =     0.00 Bohr mag/cell
     absolute magnetization    =     0.00 Bohr mag/cell

     iteration #  8     ecut=    50.00 Ry     beta= 0.30
     Davidson diagonalization with overlap
     ethr =  4.42E-09,  avg # of iterations =  4.0

     negative rho (up, down):  4.483E-05 4.482E-05

     total cpu time spent up to now is      109.5 secs

     total energy              =    -672.23727028 Ry
     estimated scf accuracy    <       0.00000215 Ry

     total magnetization       =     0.00 Bohr mag/cell
     absolute magnetization    =     0.00 Bohr mag/cell

     iteration #  9     ecut=    50.00 Ry     beta= 0.30
     Davidson diagonalization with overlap
     ethr =  1.53E-09,  avg # of iterations =  3.0

     negative rho (up, down):  4.472E-05 4.472E-05

     total cpu time spent up to now is      111.2 secs

     total energy              =    -672.23727069 Ry
     estimated scf accuracy    <       0.00000103 Ry

     total magnetization       =     0.00 Bohr mag/cell
     absolute magnetization    =     0.00 Bohr mag/cell

     iteration # 10     ecut=    50.00 Ry     beta= 0.30
     Davidson diagonalization with overlap
     ethr =  7.28E-10,  avg # of iterations =  2.0

     negative rho (up, down):  4.461E-05 4.461E-05

     Magnetic moment per site  (integrated on atomic sphere of radius R)
     atom   1 (R=0.071)  charge=  1.1730  magn=  0.0000
     atom   2 (R=0.071)  charge=  1.1639  magn=  0.0000
     atom   3 (R=0.071)  charge=  1.1833  magn=  0.0000
     atom   4 (R=0.071)  charge=  1.1725  magn=  0.0000
     atom   5 (R=0.071)  charge=  1.1772  magn= -0.0000
     atom   6 (R=0.071)  charge=  1.1287  magn= -0.0000
     atom   7 (R=0.071)  charge=  1.1609  magn=  0.0000
     atom   8 (R=0.071)  charge=  1.1769  magn= -0.0000
     atom   9 (R=0.071)  charge=  1.1779  magn=  0.0000
     atom  10 (R=0.071)  charge=  1.1570  magn= -0.0000
     atom  11 (R=0.071)  charge=  1.1353  magn= -0.0000
     atom  12 (R=0.071)  charge=  1.1662  magn=  0.0000
     atom  13 (R=0.071)  charge=  1.1778  magn= -0.0000
     atom  14 (R=0.071)  charge=  1.1487  magn= -0.0000
     atom  15 (R=0.071)  charge=  1.1598  magn= -0.0000
     atom  16 (R=0.071)  charge=  1.1767  magn= -0.0000
     atom  17 (R=0.071)  charge=  1.1766  magn=  0.0000
     atom  18 (R=0.071)  charge=  1.1457  magn= -0.0000
     atom  19 (R=0.071)  charge=  1.1600  magn=  0.0000
     atom  20 (R=0.071)  charge=  1.1776  magn=  0.0000
     atom  21 (R=0.071)  charge=  1.1952  magn= -0.0000
     atom  22 (R=0.071)  charge=  1.1457  magn=  0.0000
     atom  23 (R=0.071)  charge=  1.1598  magn= -0.0000
     atom  24 (R=0.071)  charge=  1.1745  magn= -0.0000
     atom  25 (R=0.071)  charge=  1.1763  magn=  0.0000
     atom  26 (R=0.071)  charge=  1.1453  magn=  0.0000
     atom  27 (R=0.071)  charge=  1.1591  magn= -0.0000
     atom  28 (R=0.071)  charge=  1.1778  magn=  0.0000
     atom  29 (R=0.071)  charge=  1.1722  magn= -0.0000
     atom  30 (R=0.071)  charge=  1.1450  magn= -0.0000
     atom  31 (R=0.071)  charge=  1.1640  magn=  0.0000
     atom  32 (R=0.071)  charge=  1.1715  magn= -0.0000
     atom  33 (R=0.057)  charge=  1.8823  magn=  0.0000
     atom  34 (R=0.057)  charge=  1.8939  magn= -0.0000
     atom  35 (R=0.057)  charge=  0.4079  magn=  0.0000

     total cpu time spent up to now is      112.6 secs

     End of self-consistent calculation

 ------ SPIN UP ------------


          k = 0.0000 0.0000 0.0000 ( 24951 PWs)   bands (ev):

   -26.1967 -20.1352 -19.2965 -19.2102 -19.1229 -18.9914 -18.6051 -18.4479
[...]
H             4.3716216838        8.2212882089        8.8021038870
End final coordinates



     Writing config-only to output data dir ./pwscf.save/

     lsda relaxation :  a final configuration with zero
                        absolute magnetization has been found

     the program is checking if it is really the minimum energy structure
     by performing a new scf iteration without any "electronic" history

     Initial potential from superposition of free atoms

     starting charge     140.9987, renormalised to     141.0000

     negative rho (up, down):  7.311E-08 7.311E-08

     total cpu time spent up to now is     1599.0 secs

     Self-consistent Calculation

     iteration #  1     ecut=    50.00 Ry     beta= 0.30
     Davidson diagonalization with overlap
     c_bands:  2 eigenvalues not converged
     c_bands:  2 eigenvalues not converged
     ethr =  1.00E-06,  avg # of iterations = 20.0

     negative rho (up, down):  3.849E-07 3.849E-07

     total cpu time spent up to now is     1602.9 secs

     total energy              =    -672.60516432 Ry
     estimated scf accuracy    <       4.05030003 Ry

     total magnetization       =     0.00 Bohr mag/cell
     absolute magnetization    =     0.03 Bohr mag/cell

     iteration #  2     ecut=    50.00 Ry     beta= 0.30
     Davidson diagonalization with overlap
     ethr =  2.87E-03,  avg # of iterations =  1.0

     negative rho (up, down):  7.541E-06 7.540E-06

     total cpu time spent up to now is     1604.4 secs

     total energy              =    -672.16481195 Ry
     estimated scf accuracy    <       1.12026783 Ry

     total magnetization       =    -0.00 Bohr mag/cell
     absolute magnetization    =     0.03 Bohr mag/cell

     iteration #  3     ecut=    50.00 Ry     beta= 0.30
     Davidson diagonalization with overlap
     ethr =  7.95E-04,  avg # of iterations =  2.0

     negative rho (up, down):  8.914E-06 8.912E-06

     total cpu time spent up to now is     1606.0 secs

     total energy              =    -672.34162670 Ry
     estimated scf accuracy    <       0.09701964 Ry

     total magnetization       =     0.00 Bohr mag/cell
     absolute magnetization    =     0.02 Bohr mag/cell

     iteration #  4     ecut=    50.00 Ry     beta= 0.30
     Davidson diagonalization with overlap
     ethr =  6.88E-05,  avg # of iterations = 17.0

     negative rho (up, down):  1.622E-05 1.617E-05

     total cpu time spent up to now is     1608.1 secs

     total energy              =    -672.34665418 Ry
     estimated scf accuracy    <       0.02725927 Ry

     total magnetization       =    -0.00 Bohr mag/cell
     absolute magnetization    =     0.02 Bohr mag/cell

     iteration #  5     ecut=    50.00 Ry     beta= 0.30
     Davidson diagonalization with overlap
     ethr =  1.93E-05,  avg # of iterations =  2.0

     negative rho (up, down):  2.022E-05 2.017E-05

     total cpu time spent up to now is     1609.7 secs

     total energy              =    -672.35038566 Ry
     estimated scf accuracy    <       0.00541249 Ry

     total magnetization       =    -0.00 Bohr mag/cell
     absolute magnetization    =     0.01 Bohr mag/cell

     iteration #  6     ecut=    50.00 Ry     beta= 0.30
     Davidson diagonalization with overlap
     ethr =  3.84E-06,  avg # of iterations =  9.0

     negative rho (up, down):  4.065E-05 4.062E-05

     total cpu time spent up to now is     1611.4 secs

     total energy              =    -672.35064002 Ry
     estimated scf accuracy    <       0.00175257 Ry

     total magnetization       =     0.00 Bohr mag/cell
     absolute magnetization    =     0.01 Bohr mag/cell

     iteration #  7     ecut=    50.00 Ry     beta= 0.30
     Davidson diagonalization with overlap
     ethr =  1.24E-06,  avg # of iterations =  2.0

     negative rho (up, down):  4.216E-05 4.214E-05

     total cpu time spent up to now is     1613.0 secs

     total energy              =    -672.35093898 Ry
     estimated scf accuracy    <       0.00040713 Ry

     total magnetization       =    -0.00 Bohr mag/cell
     absolute magnetization    =     0.01 Bohr mag/cell

     iteration #  8     ecut=    50.00 Ry     beta= 0.30
     Davidson diagonalization with overlap
     ethr =  2.89E-07,  avg # of iterations =  2.0

     negative rho (up, down):  4.366E-05 4.364E-05

     total cpu time spent up to now is     1614.7 secs

     total energy              =    -672.35103140 Ry
     estimated scf accuracy    <       0.00002552 Ry

     total magnetization       =    -0.00 Bohr mag/cell
     absolute magnetization    =     0.01 Bohr mag/cell

     iteration #  9     ecut=    50.00 Ry     beta= 0.30
     Davidson diagonalization with overlap
     ethr =  1.81E-08,  avg # of iterations =  4.5

     negative rho (up, down):  4.484E-05 4.483E-05

     total cpu time spent up to now is     1616.6 secs

     total energy              =    -672.35105310 Ry
     estimated scf accuracy    <       0.00004552 Ry

     total magnetization       =     0.00 Bohr mag/cell
     absolute magnetization    =     0.00 Bohr mag/cell

     iteration # 10     ecut=    50.00 Ry     beta= 0.30
     Davidson diagonalization with overlap
     ethr =  1.81E-08,  avg # of iterations =  2.0

     negative rho (up, down):  4.498E-05 4.498E-05

     total cpu time spent up to now is     1618.2 secs

     total energy              =    -672.35106166 Ry
     estimated scf accuracy    <       0.00000415 Ry

     total magnetization       =    -0.00 Bohr mag/cell
     absolute magnetization    =     0.00 Bohr mag/cell

     iteration # 11     ecut=    50.00 Ry     beta= 0.30
     Davidson diagonalization with overlap
     ethr =  2.94E-09,  avg # of iterations =  4.0

     negative rho (up, down):  4.511E-05 4.510E-05

     total cpu time spent up to now is     1620.0 secs

     total energy              =    -672.35106619 Ry
     estimated scf accuracy    <       0.00000041 Ry

     total magnetization       =     0.00 Bohr mag/cell
     absolute magnetization    =     0.00 Bohr mag/cell

     iteration # 12     ecut=    50.00 Ry     beta= 0.30
     Davidson diagonalization with overlap
     ethr =  2.90E-10,  avg # of iterations =  4.0

     negative rho (up, down):  4.524E-05 4.524E-05

     total cpu time spent up to now is     1621.6 secs

     total energy              =    -672.35106862 Ry
     estimated scf accuracy    <       0.00000007 Ry

     total magnetization       =     0.00 Bohr mag/cell
     absolute magnetization    =     0.00 Bohr mag/cell

     iteration # 13     ecut=    50.00 Ry     beta= 0.30
     Davidson diagonalization with overlap
     ethr =  4.82E-11,  avg # of iterations =  4.0

     negative rho (up, down):  4.525E-05 4.525E-05

     total cpu time spent up to now is     1623.3 secs

     total energy              =    -672.35106927 Ry
     estimated scf accuracy    <       0.00000001 Ry

     total magnetization       =    -0.00 Bohr mag/cell
     absolute magnetization    =     0.00 Bohr mag/cell

     iteration # 14     ecut=    50.00 Ry     beta= 0.30
     Davidson diagonalization with overlap
     ethr =  1.06E-11,  avg # of iterations =  4.5

     negative rho (up, down):  4.518E-05 4.518E-05

     Magnetic moment per site  (integrated on atomic sphere of radius R)
     atom   1 (R=0.071)  charge=  1.1767  magn=  0.0000
     atom   2 (R=0.071)  charge=  1.1370  magn= -0.0000
     atom   3 (R=0.071)  charge=  1.1420  magn= -0.0000
     atom   4 (R=0.071)  charge=  1.1757  magn=  0.0001
     atom   5 (R=0.071)  charge=  1.1782  magn=  0.0000
     atom   6 (R=0.071)  charge=  1.1356  magn=  0.0000
     atom   7 (R=0.071)  charge=  1.1712  magn= -0.0000
     atom   8 (R=0.071)  charge=  1.1771  magn= -0.0000
     atom   9 (R=0.071)  charge=  1.1763  magn= -0.0000
     atom  10 (R=0.071)  charge=  1.1377  magn=  0.0000
     atom  11 (R=0.071)  charge=  1.1252  magn=  0.0000
     atom  12 (R=0.071)  charge=  1.1799  magn= -0.0000
     atom  13 (R=0.071)  charge=  1.1786  magn= -0.0000
     atom  14 (R=0.071)  charge=  1.1392  magn= -0.0000
     atom  15 (R=0.071)  charge=  1.1684  magn=  0.0000
     atom  16 (R=0.071)  charge=  1.1777  magn=  0.0000
     atom  17 (R=0.071)  charge=  1.1792  magn=  0.0000
     atom  18 (R=0.071)  charge=  1.1381  magn=  0.0000
     atom  19 (R=0.071)  charge=  1.1706  magn= -0.0000
     atom  20 (R=0.071)  charge=  1.1774  magn= -0.0000
     atom  21 (R=0.071)  charge=  1.1744  magn=  0.0000
     atom  22 (R=0.071)  charge=  1.1384  magn= -0.0000
     atom  23 (R=0.071)  charge=  1.1691  magn=  0.0000
     atom  24 (R=0.071)  charge=  1.1798  magn= -0.0000
     atom  25 (R=0.071)  charge=  1.1765  magn= -0.0000
     atom  26 (R=0.071)  charge=  1.1378  magn= -0.0000
     atom  27 (R=0.071)  charge=  1.1697  magn=  0.0000
     atom  28 (R=0.071)  charge=  1.1780  magn=  0.0000
     atom  29 (R=0.071)  charge=  1.1759  magn= -0.0000
     atom  30 (R=0.071)  charge=  1.1379  magn=  0.0000
     atom  31 (R=0.071)  charge=  1.1698  magn= -0.0000
     atom  32 (R=0.071)  charge=  1.1778  magn= -0.0001
     atom  33 (R=0.057)  charge=  1.8836  magn= -0.0000
     atom  34 (R=0.057)  charge=  1.8904  magn=  0.0000
     atom  35 (R=0.057)  charge=  0.3986  magn= -0.0000

     total cpu time spent up to now is     1624.9 secs

     End of self-consistent calculation

 ------ SPIN UP ------------


          k = 0.0000 0.0000 0.0000 ( 24951 PWs)   bands (ev):

   -25.9111 -21.3345 -19.2093 -19.1282 -19.0452 -18.8332 -18.5300 -18.3418
   -18.2008 -17.9093 -16.8525 -16.8458 -16.7510 -16.6534 -16.5966 -16.2914
   -16.1812 -15.8152 -14.9516 -14.5069 -14.4240 -14.0326 -12.5307 -12.4996
   -12.4589 -12.4310 -12.2029 -11.9029 -11.7257 -11.3613 -11.0697 -10.8021
   -10.5830 -10.5750 -10.5375 -10.4829 -10.3853 -10.2270  -9.9391  -9.5471
    -8.2891  -7.8235  -7.7746  -7.7248  -7.5219  -6.5143  -6.4355  -6.4118
    -6.1760  -5.7388  -5.4803  -5.3814  -5.2800  -5.2607  -5.2264  -5.1955
    -5.1932  -5.1002  -5.0938  -4.9725  -4.9571  -4.8698  -4.8413  -4.5706
    -4.4287  -4.4081  -4.1084  -3.9895  -3.7964  -3.7705  -2.5129  -0.8028
    -0.6642  -0.6525  -0.1561   0.2084   0.4764   0.6247   0.6868   0.8511
     1.2375   1.4913   1.5904   1.6931   1.7722

 ------ SPIN DOWN ----------


          k = 0.0000 0.0000 0.0000 ( 24951 PWs)   bands (ev):

   -25.9111 -21.3344 -19.2093 -19.1282 -19.0452 -18.8332 -18.5300 -18.3418
   -18.2008 -17.9093 -16.8525 -16.8458 -16.7510 -16.6534 -16.5966 -16.2914
   -16.1812 -15.8152 -14.9516 -14.5069 -14.4240 -14.0326 -12.5307 -12.4996
   -12.4589 -12.4310 -12.2029 -11.9029 -11.7257 -11.3613 -11.0697 -10.8021
   -10.5830 -10.5750 -10.5375 -10.4829 -10.3853 -10.2270  -9.9391  -9.5471
    -8.2891  -7.8235  -7.7746  -7.7248  -7.5219  -6.5143  -6.4354  -6.4118
    -6.1760  -5.7388  -5.4803  -5.3814  -5.2800  -5.2607  -5.2264  -5.1955
    -5.1932  -5.1002  -5.0938  -4.9725  -4.9571  -4.8699  -4.8413  -4.5707
    -4.4287  -4.4081  -4.1084  -3.9895  -3.7964  -3.7705  -2.5128  -0.8028
    -0.6642  -0.6525  -0.1561   0.2083   0.4764   0.6247   0.6868   0.8511
     1.2375   1.4913   1.5902   1.6930   1.7721

     the spin up/dw Fermi energies are    -2.5129   -2.5128 ev

!    total energy              =    -672.35106944 Ry
     estimated scf accuracy    <          4.4E-09 Ry
     smearing contrib. (-TS)   =      -0.00005642 Ry
     internal energy E=F+TS    =    -672.35101302 Ry

     The total energy is F=E-TS. E is the sum of the following terms:
     one-electron contribution =    -867.39139331 Ry
     hartree contribution      =     462.51470758 Ry
     xc contribution           =    -160.08235398 Ry
     ewald contribution        =     109.05046887 Ry
     one-center paw contrib.   =    -216.44244219 Ry

     total magnetization       =     0.00 Bohr mag/cell
     absolute magnetization    =     0.00 Bohr mag/cell

     convergence has been achieved in  14 iterations

     negative rho (up, down):  4.518E-05 4.518E-05

     Forces acting on atoms (cartesian axes, Ry/au):

     atom    1 type  1   force =    -0.00018513   -0.00014310    0.00065064
     atom    2 type  1   force =    -0.00024730   -0.00011660   -0.00051028
     atom    3 type  1   force =    -0.00007450   -0.00009990   -0.00020596
     atom    4 type  1   force =     0.00013477   -0.00069314   -0.00038267
     atom    5 type  1   force =     0.00001917    0.00037260    0.00006900
     atom    6 type  1   force =     0.00015703   -0.00035322    0.00011748
     atom    7 type  1   force =    -0.00059284    0.00042743   -0.00038079
     atom    8 type  1   force =    -0.00020859    0.00032594    0.00012491
     atom    9 type  1   force =     0.00064449    0.00002946    0.00047820
     atom   10 type  1   force =    -0.00016001    0.00029315   -0.00008158
     atom   11 type  1   force =    -0.00026154   -0.00034545    0.00055836
     atom   12 type  1   force =     0.00037843   -0.00031744    0.00021049
     atom   13 type  1   force =    -0.00013801   -0.00041034    0.00009464
     atom   14 type  1   force =     0.00005593   -0.00085565    0.00034165
     atom   15 type  1   force =    -0.00017728   -0.00012358   -0.00015816
     atom   16 type  1   force =    -0.00018578   -0.00018203    0.00005309
     atom   17 type  1   force =     0.00000513   -0.00015056    0.00021469
     atom   18 type  1   force =    -0.00017964    0.00026781   -0.00010206
     atom   19 type  1   force =    -0.00023831   -0.00000801   -0.00009175
     atom   20 type  1   force =    -0.00002578    0.00022964   -0.00025042
     atom   21 type  1   force =     0.00093519   -0.00007667    0.00003203
     atom   22 type  1   force =    -0.00006897    0.00005231    0.00022805
     atom   23 type  1   force =    -0.00064545    0.00073810   -0.00017159
     atom   24 type  1   force =     0.00008399    0.00004556   -0.00058374
     atom   25 type  1   force =    -0.00044907    0.00008909    0.00028772
     atom   26 type  1   force =    -0.00012825    0.00000130   -0.00006873
     atom   27 type  1   force =    -0.00006632    0.00028308   -0.00002439
     atom   28 type  1   force =     0.00001988    0.00008337    0.00037901
     atom   29 type  1   force =    -0.00015668    0.00037111   -0.00052202
     atom   30 type  1   force =    -0.00004592   -0.00007666   -0.00018103
     atom   31 type  1   force =     0.00000790    0.00068648    0.00016905
     atom   32 type  1   force =     0.00037483   -0.00049614   -0.00046078
     atom   33 type  2   force =     0.00036037    0.00035203    0.00068683
     atom   34 type  2   force =     0.00063624    0.00006433    0.00032421
     atom   35 type  3   force =     0.00042204   -0.00026427   -0.00084414

     Total force =     0.003518     Total SCF correction =     0.000085
     Energy error            =      2.8E-05 Ry
     Gradient error          =      9.4E-04 Ry/Bohr

     bfgs converged in  91 scf cycles and  89 bfgs steps
     (criteria: energy <  1.0E-04 Ry, force <  1.0E-03 Ry/Bohr)

     End of BFGS Geometry Optimization

     Final energy             =    -672.3510694382 Ry

     File ./pwscf.bfgs deleted, as requested
Begin final coordinates

ATOMIC_POSITIONS (angstrom)
C             4.5624450936        4.9742522389        6.4690894775
C             3.3375047990        1.7974651964       13.2568977911
C             3.3278655582        4.9721037869        8.6065310453
C             2.0858514168        4.9802420155        6.4748038870
C             4.6323834805        1.6709239237       18.1148235131
C             3.3120836950        5.3521438571       11.2878248517
C             3.3915713696        1.7558096702       15.9628739486
C             2.1748489826        1.6708934079       18.1203995508
C             3.3241110262        4.0855535976       11.8919642110
C             6.8750748051        4.9915038368        5.1520173356
C             3.2864783325        5.6364757545        9.7658091908
C             3.3064584160        6.5274183745       12.0558390889
C            -0.1699991946        3.8512160499        0.2938075970
C             3.3248234036        4.9781889525        7.1826685314
C            -0.1937036847        5.0562329436        2.4543587884
C            -0.1696803158        6.3105146004        0.3031265826
C            -0.1652167504        2.7583695004       24.2758636986
C             3.4020405275        1.6982514410       17.4334159101
C            -0.1515631647        1.5467257460       22.1168866825
C            -0.1648690803        0.3007734016       24.2739880056
C             3.3278160353        3.0110641571       12.5368749094
C            -0.1462483990        1.6248574863       19.4106908452
C             3.3689671343        1.8047346821       14.7305456734
C             3.3171301482        0.5434209064       12.6249210476
C             5.7222342013        1.6485601824       18.7260495109
C            -0.1767847380        5.0775666220        0.9818823996
C            -0.1485158519        1.5785712067       20.8835655600
C             1.0838647006        1.6486504490       18.7292696009
C             5.6401620261        4.9791767054        5.8453957701
C            -0.1600855959        1.5308295347       23.5895406658
C            -0.2108412949        5.0187178126        3.6901570570
C             1.0076722212        4.9859519365        5.8529862723
O             3.0843589693        7.0088764131        9.4906484077
O             4.3601400442        7.7616754013        9.6663787053
H             4.3716216838        8.2212882089        8.8021038870
End final coordinates



     Writing all to output data dir ./pwscf.save/

     init_run     :      2.46s CPU      2.55s WALL (       1 calls)
     electrons    :   1200.89s CPU   1267.96s WALL (      92 calls)
     update_pot   :    157.28s CPU    159.33s WALL (      90 calls)
     forces       :    130.25s CPU    134.79s WALL (      92 calls)

     Called by init_run:
     wfcinit      :      0.44s CPU      0.45s WALL (       1 calls)
     potinit      :      2.06s CPU      2.12s WALL (       2 calls)
     hinit0       :      0.75s CPU      0.77s WALL (       1 calls)

     Called by electrons:
     c_bands      :    588.52s CPU    608.78s WALL (     778 calls)
     sum_band     :    173.99s CPU    180.80s WALL (     778 calls)
     v_of_rho     :    180.40s CPU    187.51s WALL (     861 calls)
     newd         :     71.85s CPU     74.10s WALL (     861 calls)
     PAW_pot      :    221.75s CPU    222.97s WALL (     951 calls)
     mix_rho      :     16.39s CPU     17.82s WALL (     778 calls)

     Called by c_bands:
     init_us_2    :      9.35s CPU      9.60s WALL (    3478 calls)
     init_us_2:cp :      9.32s CPU      9.60s WALL (    3478 calls)
     regterg      :    574.11s CPU    593.91s WALL (    1556 calls)

     Called by *egterg:
     rdiaghg      :     30.79s CPU     30.99s WALL (    6153 calls)
     h_psi        :    377.56s CPU    395.05s WALL (    6355 calls)
     s_psi        :     44.61s CPU     44.93s WALL (    6355 calls)
     g_psi        :      1.24s CPU      1.26s WALL (    4797 calls)

     Called by h_psi:
     h_psi:calbec :     42.70s CPU     43.48s WALL (    6355 calls)
     vloc_psi     :    286.55s CPU    302.89s WALL (    6355 calls)
     add_vuspsi   :     45.78s CPU     46.14s WALL (    6355 calls)

     General routines
     calbec       :     66.59s CPU     67.76s WALL (    8827 calls)
     fft          :     75.93s CPU     85.23s WALL (   18923 calls)
     ffts         :      5.23s CPU      5.86s WALL (    3278 calls)
     fftw         :    298.76s CPU    316.39s WALL (  402834 calls)
     interpolate  :      9.68s CPU     10.98s WALL (    1722 calls)

     Parallel routines

     PWSCF        :  25m38.56s CPU  27m 8.06s WALL


   This run was terminated on:  18: 1:42  24May2025            

=------------------------------------------------------------------------------=
   JOB DONE.
=------------------------------------------------------------------------------=
