ITEM: TIMESTEP
0
ITEM: NUMBER OF ATOMS
57
ITEM: BOX BOUNDS pp pp pp
0.0000000000000000e+00 3.2808000000000000e+01
0.0000000000000000e+00 1.7780000000000001e+01
0.0000000000000000e+00 2.4729999999999999e+00
ITEM: ATOMS id type x y z 
13 1 7.043 0.849 2.464 
29 1 7.397 1.432 1.228 
37 1 8.035 2.733 1.228 
1 1 6.173 17.398 2.464 
5 1 5.371 17.398 1.228 
9 1 3.973 17.398 1.228 
16 1 7.043 16.167 2.464 
32 1 7.397 15.584 1.228 
40 1 8.035 14.283 1.228 
45 1 3.236 17.398 2.464 
49 1 1.81 17.398 2.464 
53 1 1.083 17.398 1.228 
57 2 7.224 17.339 1.616 
4 1 10.968 8.508 2.464 
8 1 11.771 8.508 1.228 
12 1 13.168 8.508 1.228 
18 1 10.098 7.277 2.464 
21 1 8.308 3.392 2.464 
26 1 8.833 4.734 2.464 
34 1 9.745 6.694 1.228 
42 1 9.106 5.393 1.228 
48 1 13.906 8.508 2.464 
52 1 15.331 8.508 2.464 
56 1 16.058 8.508 1.228 
19 1 10.098 9.739 2.464 
24 1 8.308 13.624 2.464 
27 1 8.833 12.282 2.464 
35 1 9.745 10.322 1.228 
43 1 9.106 11.623 1.228 
3 1 22.577 8.508 2.464 
7 1 21.775 8.508 1.228 
11 1 20.377 8.508 1.228 
20 1 23.447 7.277 2.464 
36 1 23.801 6.694 1.228 
44 1 24.439 5.393 1.228 
47 1 19.64 8.508 2.464 
51 1 18.214 8.508 2.464 
55 1 17.487 8.508 1.228 
17 1 23.447 9.739 2.464 
33 1 23.801 10.322 1.228 
41 1 24.439 11.623 1.228 
15 1 26.502 0.849 2.464 
23 1 25.237 3.392 2.464 
28 1 24.712 4.734 2.464 
31 1 26.149 1.432 1.228 
39 1 25.511 2.733 1.228 
2 1 27.373 17.398 2.464 
6 1 28.175 17.398 1.228 
10 1 29.572 17.398 1.228 
14 1 26.502 16.167 2.464 
22 1 25.237 13.624 2.464 
25 1 24.712 12.282 2.464 
30 1 26.149 15.584 1.228 
38 1 25.511 14.283 1.228 
46 1 30.31 17.398 2.464 
50 1 31.735 17.398 2.464 
54 1 32.462 17.398 1.228 
ITEM: TIMESTEP
10
ITEM: NUMBER OF ATOMS
57
ITEM: BOX BOUNDS pp pp pp
0.0000000000000000e+00 3.2808000000000000e+01
0.0000000000000000e+00 1.7780000000000001e+01
0.0000000000000000e+00 2.4729999999999999e+00
ITEM: ATOMS id type x y z 
13 1 7.18245 0.761687 2.47264 
29 1 7.36264 1.51621 1.2064 
37 1 8.01639 2.69202 1.22853 
1 1 6.11306 17.3842 2.55661 
5 1 5.32879 17.4036 1.20476 
9 1 3.96406 17.3995 1.22978 
16 1 7.18169 16.2624 2.46328 
32 1 7.35543 15.4849 1.18648 
40 1 8.02219 14.3116 1.2297 
45 1 3.1867 17.3978 2.46372 
49 1 1.81262 17.3979 2.46429 
53 1 1.11728 17.398 1.22769 
57 2 7.24304 17.4019 1.59766 
4 1 10.9703 8.50717 2.46426 
8 1 11.7977 8.50799 1.22765 
12 1 13.1923 8.50802 1.22773 
18 1 10.0682 7.29145 2.46429 
21 1 8.32371 3.40478 2.46403 
26 1 8.83084 4.74481 2.46429 
34 1 9.71012 6.67305 1.22775 
42 1 9.0931 5.41286 1.22771 
48 1 13.905 8.508 2.4643 
52 1 15.3259 8.508 2.46429 
56 1 16.0539 8.508 1.22771 
19 1 10.0697 9.72159 2.4643 
24 1 8.33423 13.5864 2.46438 
27 1 8.83561 12.2596 2.46431 
35 1 9.7107 10.3411 1.22775 
43 1 9.09031 11.6085 1.22773 
3 1 22.5821 8.508 2.46425 
7 1 21.7449 8.508 1.22766 
11 1 20.3425 8.508 1.22773 
20 1 23.4806 7.28641 2.46429 
36 1 23.8372 6.67087 1.22775 
44 1 24.4459 5.42606 1.22771 
47 1 19.6407 8.508 2.46429 
51 1 18.2216 8.508 2.46429 
55 1 17.4877 8.508 1.22771 
17 1 23.4806 9.72959 2.46429 
33 1 23.8372 10.3451 1.22775 
41 1 24.4459 11.5899 1.22771 
15 1 26.4678 0.840005 2.46429 
23 1 25.2377 3.37141 2.46427 
28 1 24.7112 4.75444 2.46428 
31 1 26.1111 1.45837 1.22775 
39 1 25.5037 2.70093 1.22771 
2 1 27.3712 17.398 2.46425 
6 1 28.207 17.398 1.22766 
10 1 29.6103 17.398 1.22773 
14 1 26.4678 16.176 2.46429 
22 1 25.2377 13.6446 2.46427 
25 1 24.7112 12.2616 2.46428 
30 1 26.1111 15.5576 1.22775 
38 1 25.5037 14.3151 1.22771 
46 1 30.3023 17.398 2.46429 
50 1 31.7155 17.398 2.46429 
54 1 32.481 17.398 1.22771 
ITEM: TIMESTEP
20
ITEM: NUMBER OF ATOMS
57
ITEM: BOX BOUNDS pp pp pp
0.0000000000000000e+00 3.2808000000000000e+01
0.0000000000000000e+00 1.7780000000000001e+01
0.0000000000000000e+00 2.4729999999999999e+00
ITEM: ATOMS id type x y z 
13 1 7.24083 0.745077 2.45816 
29 1 7.31347 1.52786 1.19377 
37 1 8.01951 2.71718 1.22835 
1 1 6.09664 17.3938 2.55804 
5 1 5.33199 17.4014 1.25542 
9 1 3.99776 17.4004 1.23122 
16 1 7.24358 16.2702 2.45253 
32 1 7.3082 15.4791 1.1852 
40 1 8.0265 14.2861 1.22884 
45 1 3.17382 17.3975 2.46578 
49 1 1.77691 17.3978 2.46429 
53 1 1.10874 17.398 1.22777 
57 2 7.25874 17.3916 1.58297 
4 1 10.9701 8.50836 2.46421 
8 1 11.7893 8.50805 1.22773 
12 1 13.2027 8.50802 1.22776 
18 1 10.055 7.29182 2.46426 
21 1 8.33725 3.40535 2.46365 
26 1 8.8352 4.76596 2.46426 
34 1 9.69682 6.67449 1.22777 
42 1 9.09002 5.43238 1.22775 
48 1 13.9063 8.50801 2.46425 
52 1 15.2984 8.508 2.46425 
56 1 16.0434 8.508 1.22775 
19 1 10.0564 9.72173 2.46426 
24 1 8.34495 13.5926 2.46389 
27 1 8.8411 12.235 2.46429 
35 1 9.69673 10.3402 1.22777 
43 1 9.08801 11.5888 1.22778 
3 1 22.5746 8.508 2.46421 
7 1 21.7576 8.508 1.22773 
11 1 20.3454 8.508 1.22776 
20 1 23.4916 7.28708 2.46426 
36 1 23.8487 6.67442 1.22777 
44 1 24.4533 5.4328 1.22775 
47 1 19.6441 8.508 2.46425 
51 1 18.2473 8.508 2.46425 
55 1 17.4999 8.508 1.22775 
17 1 23.4916 9.72892 2.46426 
33 1 23.8487 10.3416 1.22777 
41 1 24.4533 11.5832 1.22775 
15 1 26.4585 0.838034 2.46426 
23 1 25.2336 3.3689 2.46424 
28 1 24.7155 4.75641 2.46424 
31 1 26.1016 1.45139 1.22777 
39 1 25.4967 2.6933 1.22775 
2 1 27.3741 17.398 2.46421 
6 1 28.1988 17.398 1.22773 
10 1 29.6031 17.398 1.22776 
14 1 26.4585 16.178 2.46426 
22 1 25.2336 13.6471 2.46424 
25 1 24.7155 12.2596 2.46424 
30 1 26.1016 15.5646 1.22777 
38 1 25.4967 14.3227 1.22775 
46 1 30.2898 17.398 2.46425 
50 1 31.7199 17.398 2.46424 
54 1 32.4926 17.398 1.22775 
ITEM: TIMESTEP
30
ITEM: NUMBER OF ATOMS
57
ITEM: BOX BOUNDS pp pp pp
0.0000000000000000e+00 3.2808000000000000e+01
0.0000000000000000e+00 1.7780000000000001e+01
0.0000000000000000e+00 2.4729999999999999e+00
ITEM: ATOMS id type x y z 
13 1 7.30138 0.722035 2.44025 
29 1 7.22958 1.55255 1.18286 
37 1 8.0244 2.7519 1.22761 
1 1 6.09162 17.3979 2.55935 
5 1 5.35317 17.3999 1.29597 
9 1 3.99235 17.401 1.23571 
16 1 7.30562 16.2826 2.43678 
32 1 7.23232 15.4456 1.18169 
40 1 8.03045 14.2539 1.22751 
45 1 3.183 17.3975 2.47135 
49 1 1.77734 17.3975 2.46459 
53 1 1.11296 17.398 1.22813 
57 2 7.29028 17.3885 1.58194 
4 1 10.9766 8.50965 2.46423 
8 1 11.7851 8.5085 1.22773 
12 1 13.2065 8.50796 1.22775 
18 1 10.0454 7.30251 2.46426 
21 1 8.3722 3.42436 2.46302 
26 1 8.83905 4.78809 2.46425 
34 1 9.67824 6.69022 1.22776 
42 1 9.07804 5.45508 1.22774 
48 1 13.9269 8.50799 2.46425 
52 1 15.2991 8.508 2.46425 
56 1 16.0405 8.508 1.22775 
19 1 10.0457 9.71362 2.46426 
24 1 8.37419 13.5843 2.46315 
27 1 8.84441 12.2125 2.46429 
35 1 9.67656 10.327 1.22777 
43 1 9.07785 11.5663 1.22778 
3 1 22.5776 8.508 2.46423 
7 1 21.7681 8.508 1.22773 
11 1 20.3473 8.508 1.22775 
20 1 23.504 7.29257 2.46426 
36 1 23.8669 6.68526 1.22776 
44 1 24.4696 5.43952 1.22775 
47 1 19.6212 8.508 2.46425 
51 1 18.2448 8.508 2.46425 
55 1 17.5042 8.508 1.22775 
17 1 23.504 9.72343 2.46426 
33 1 23.8669 10.3307 1.22776 
41 1 24.4696 11.5765 1.22775 
15 1 26.4444 0.833354 2.46426 
23 1 25.2254 3.36591 2.46425 
28 1 24.7232 4.76057 2.46425 
31 1 26.0811 1.44464 1.22776 
39 1 25.4802 2.68715 1.22775 
2 1 27.3661 17.398 2.46423 
6 1 28.1933 17.398 1.22773 
10 1 29.5981 17.398 1.22775 
14 1 26.4444 16.1826 2.46426 
22 1 25.2254 13.6501 2.46425 
25 1 24.7232 12.2554 2.46425 
30 1 26.0811 15.5714 1.22776 
38 1 25.4802 14.3288 1.22775 
46 1 30.287 17.398 2.46425 
50 1 31.7171 17.398 2.46426 
54 1 32.4898 17.3981 1.22776 
ITEM: TIMESTEP
40
ITEM: NUMBER OF ATOMS
57
ITEM: BOX BOUNDS pp pp pp
0.0000000000000000e+00 3.2808000000000000e+01
0.0000000000000000e+00 1.7780000000000001e+01
0.0000000000000000e+00 2.4729999999999999e+00
ITEM: ATOMS id type x y z 
13 1 7.35443 0.756002 2.40986 
29 1 7.17479 1.6037 1.17562 
37 1 8.01195 2.76305 1.22544 
1 1 6.12486 17.394 2.56945 
5 1 5.37067 17.399 1.31062 
9 1 3.98363 17.4016 1.2428 
16 1 7.35451 16.2516 2.41171 
32 1 7.18105 15.3898 1.17486 
40 1 8.01595 14.2439 1.22503 
45 1 3.18039 17.3976 2.47721 
49 1 1.78372 17.3972 2.46554 
53 1 1.10894 17.3979 1.22906 
57 2 7.35643 17.3856 1.61955 
4 1 10.9866 8.51079 2.46424 
8 1 11.7873 8.50938 1.22774 
12 1 13.2127 8.50785 1.22775 
18 1 10.0365 7.30563 2.46425 
21 1 8.38408 3.37859 2.46173 
26 1 8.83694 4.78434 2.46418 
34 1 9.65354 6.7103 1.22775 
42 1 9.06064 5.48005 1.22769 
48 1 13.9369 8.50791 2.46425 
52 1 15.2991 8.50799 2.46425 
56 1 16.0386 8.508 1.22775 
19 1 10.037 9.71076 2.46426 
24 1 8.38536 13.6329 2.46159 
27 1 8.84211 12.214 2.46421 
35 1 9.65119 10.3082 1.22776 
43 1 9.06058 11.5451 1.22771 
3 1 22.5787 8.508 2.46424 
7 1 21.7798 8.508 1.22774 
11 1 20.3544 8.508 1.22775 
20 1 23.515 7.29619 2.46425 
36 1 23.8895 6.69542 1.22776 
44 1 24.4901 5.4472 1.22775 
47 1 19.6084 8.508 2.46425 
51 1 18.2448 8.508 2.46425 
55 1 17.5061 8.508 1.22775 
17 1 23.515 9.71981 2.46425 
33 1 23.8895 10.3206 1.22776 
41 1 24.4901 11.5688 1.22775 
15 1 26.4319 0.829711 2.46425 
23 1 25.2145 3.36367 2.46425 
28 1 24.7335 4.76423 2.46425 
31 1 26.0603 1.43168 1.22776 
39 1 25.4594 2.68062 1.22775 
2 1 27.3563 17.398 2.46424 
6 1 28.1834 17.398 1.22774 
10 1 29.5885 17.398 1.22775 
14 1 26.4319 16.1863 2.46425 
22 1 25.2145 13.6523 2.46425 
25 1 24.7335 12.2518 2.46425 
30 1 26.0603 15.5843 1.22776 
38 1 25.4594 14.3354 1.22775 
46 1 30.2905 17.398 2.46425 
50 1 31.7211 17.398 2.4643 
54 1 32.484 17.3981 1.22782 
ITEM: TIMESTEP
50
ITEM: NUMBER OF ATOMS
57
ITEM: BOX BOUNDS pp pp pp
0.0000000000000000e+00 3.2808000000000000e+01
0.0000000000000000e+00 1.7780000000000001e+01
0.0000000000000000e+00 2.4729999999999999e+00
ITEM: ATOMS id type x y z 
13 1 7.3625 0.749615 2.42017 
29 1 7.16711 1.5951 1.16769 
37 1 7.9984 2.75902 1.22462 
1 1 6.15303 17.393 2.56762 
5 1 5.37521 17.3981 1.31158 
9 1 3.9922 17.4019 1.24501 
16 1 7.36102 16.2542 2.41881 
32 1 7.16517 15.4078 1.16618 
40 1 8.00262 14.2486 1.2245 
45 1 3.18618 17.3977 2.47987 
49 1 1.78545 17.3971 2.46611 
53 1 1.11237 17.3979 1.22963 
57 2 7.3756 17.3913 1.61824 
4 1 10.9887 8.5078 2.46424 
8 1 11.7884 8.50915 1.22774 
12 1 13.2152 8.50781 1.22775 
18 1 10.0356 7.30717 2.46425 
21 1 8.39325 3.37245 2.46035 
26 1 8.83541 4.77248 2.4641 
34 1 9.64187 6.71744 1.22775 
42 1 9.04736 5.48128 1.22764 
48 1 13.9384 8.50785 2.46425 
52 1 15.2985 8.50798 2.46425 
56 1 16.0358 8.508 1.22775 
19 1 10.0349 9.70958 2.46426 
24 1 8.39765 13.6402 2.45988 
27 1 8.83739 12.2349 2.46412 
35 1 9.64016 10.2981 1.22776 
43 1 9.05193 11.5294 1.22766 
3 1 22.583 8.508 2.46424 
7 1 21.7936 8.508 1.22774 
11 1 20.3589 8.508 1.22775 
20 1 23.5206 7.29637 2.46425 
36 1 23.8997 6.6993 1.22775 
44 1 24.4997 5.45112 1.22775 
47 1 19.5936 8.508 2.46425 
51 1 18.2442 8.508 2.46425 
55 1 17.5062 8.508 1.22775 
17 1 23.5206 9.71963 2.46425 
33 1 23.8997 10.3167 1.22775 
41 1 24.4997 11.5649 1.22775 
15 1 26.4267 0.828748 2.46425 
23 1 25.2096 3.36176 2.46425 
28 1 24.7383 4.76628 2.46425 
31 1 26.0495 1.4288 1.22775 
39 1 25.4497 2.67735 1.22775 
2 1 27.3549 17.398 2.46424 
6 1 28.1805 17.398 1.22774 
10 1 29.5839 17.398 1.22775 
14 1 26.4267 16.1873 2.46425 
22 1 25.2096 13.6542 2.46425 
25 1 24.7383 12.2497 2.46425 
30 1 26.0495 15.5872 1.22775 
38 1 25.4497 14.3386 1.22775 
46 1 30.2879 17.398 2.46425 
50 1 31.7188 17.398 2.46434 
54 1 32.4842 17.3982 1.22787 
ITEM: TIMESTEP
60
ITEM: NUMBER OF ATOMS
57
ITEM: BOX BOUNDS pp pp pp
0.0000000000000000e+00 3.2808000000000000e+01
0.0000000000000000e+00 1.7780000000000001e+01
0.0000000000000000e+00 2.4729999999999999e+00
ITEM: ATOMS id type x y z 
13 1 7.40438 0.748746 2.41642 
29 1 7.1476 1.58719 1.17066 
37 1 7.95105 2.76082 1.2187 
1 1 6.21144 17.3939 2.56458 
5 1 5.43229 17.3963 1.31504 
9 1 4.03495 17.4024 1.25507 
16 1 7.39951 16.2548 2.41213 
32 1 7.13765 15.4202 1.17301 
40 1 7.95527 14.2508 1.21852 
45 1 3.23225 17.3988 2.48991 
49 1 1.83091 17.3966 2.4698 
53 1 1.11591 17.3974 1.23309 
57 2 7.42855 17.3938 1.61487 
4 1 10.9772 8.50294 2.46425 
8 1 11.7795 8.50644 1.22774 
12 1 13.2038 8.50808 1.22775 
18 1 10.029 7.30511 2.46419 
21 1 8.42084 3.33899 2.45554 
26 1 8.83991 4.72644 2.46339 
34 1 9.59151 6.75747 1.22768 
42 1 8.96975 5.46635 1.22704 
48 1 13.9347 8.50766 2.46425 
52 1 15.2965 8.50791 2.46425 
56 1 16.0371 8.50804 1.22775 
19 1 10.031 9.69931 2.4642 
24 1 8.42765 13.676 2.45497 
27 1 8.84047 12.291 2.46337 
35 1 9.59559 10.2437 1.2277 
43 1 8.96353 11.5554 1.22702 
3 1 22.5981 8.508 2.46425 
7 1 21.8098 8.508 1.22775 
11 1 20.3722 8.508 1.22775 
20 1 23.5412 7.30539 2.46425 
36 1 23.949 6.72399 1.22775 
44 1 24.5548 5.46827 1.22775 
47 1 19.6098 8.508 2.46425 
51 1 18.2424 8.508 2.46425 
55 1 17.5032 8.50802 1.22775 
17 1 23.5412 9.71061 2.46425 
33 1 23.949 10.292 1.22775 
41 1 24.5548 11.5477 1.22775 
15 1 26.403 0.824817 2.46425 
23 1 25.1807 3.3547 2.46425 
28 1 24.7669 4.77415 2.46425 
31 1 25.9977 1.40841 1.22775 
39 1 25.3959 2.6607 1.22775 
2 1 27.3417 17.398 2.46425 
6 1 28.1606 17.398 1.22775 
10 1 29.5573 17.398 1.22778 
14 1 26.403 16.1912 2.46425 
22 1 25.1807 13.6613 2.46425 
25 1 24.7669 12.2418 2.46425 
30 1 25.9977 15.6076 1.22775 
38 1 25.3959 14.3553 1.22775 
46 1 30.2908 17.398 2.46428 
50 1 31.7316 17.3981 2.46475 
54 1 32.4793 17.3984 1.2283 
ITEM: TIMESTEP
70
ITEM: NUMBER OF ATOMS
57
ITEM: BOX BOUNDS pp pp pp
0.0000000000000000e+00 3.2808000000000000e+01
0.0000000000000000e+00 1.7780000000000001e+01
0.0000000000000000e+00 2.4729999999999999e+00
ITEM: ATOMS id type x y z 
13 1 7.41043 0.74786 2.41803 
29 1 7.13888 1.58187 1.16515 
37 1 7.94202 2.76498 1.21859 
1 1 6.22518 17.394 2.57069 
5 1 5.4374 17.3966 1.31463 
9 1 4.04923 17.4023 1.25669 
16 1 7.40485 16.2538 2.41904 
32 1 7.13246 15.4233 1.16546 
40 1 7.94627 14.2468 1.21805 
45 1 3.24679 17.3992 2.49179 
49 1 1.85763 17.3965 2.47089 
53 1 1.12546 17.3972 1.23446 
57 2 7.44219 17.3914 1.61154 
4 1 10.973 8.50456 2.46424 
8 1 11.7732 8.5062 1.22774 
12 1 13.2011 8.50821 1.22775 
18 1 10.0252 7.30805 2.46414 
21 1 8.43774 3.34035 2.45431 
26 1 8.84393 4.72065 2.4631 
34 1 9.57851 6.76676 1.22764 
42 1 8.94508 5.45903 1.22668 
48 1 13.9372 8.50779 2.46425 
52 1 15.3009 8.5079 2.46425 
56 1 16.0385 8.50805 1.22775 
19 1 10.0237 9.70197 2.46416 
24 1 8.44497 13.6718 2.45415 
27 1 8.84385 12.2954 2.46304 
35 1 9.57792 10.2448 1.22765 
43 1 8.94528 11.5552 1.22663 
3 1 22.6014 8.508 2.46425 
7 1 21.8061 8.508 1.22775 
11 1 20.3787 8.508 1.22775 
20 1 23.548 7.30227 2.46425 
36 1 23.9608 6.73068 1.22775 
44 1 24.57 5.47527 1.22775 
47 1 19.6091 8.508 2.46425 
51 1 18.2448 8.508 2.46425 
55 1 17.5077 8.50803 1.22775 
17 1 23.548 9.71373 2.46425 
33 1 23.9608 10.2853 1.22775 
41 1 24.57 11.5407 1.22775 
15 1 26.3947 0.826551 2.46425 
23 1 25.171 3.35304 2.46425 
28 1 24.7758 4.77835 2.46425 
31 1 25.9831 1.4055 1.22775 
39 1 25.3794 2.65567 1.22775 
2 1 27.3269 17.398 2.46425 
6 1 28.1545 17.398 1.22775 
10 1 29.5427 17.398 1.2278 
14 1 26.3947 16.1894 2.46425 
22 1 25.171 13.663 2.46425 
25 1 24.7758 12.2376 2.46425 
30 1 25.9831 15.6105 1.22775 
38 1 25.3794 14.3603 1.22775 
46 1 30.2957 17.398 2.4643 
50 1 31.7423 17.3982 2.46499 
54 1 32.4703 17.3984 1.22843 
ITEM: TIMESTEP
80
ITEM: NUMBER OF ATOMS
57
ITEM: BOX BOUNDS pp pp pp
0.0000000000000000e+00 3.2808000000000000e+01
0.0000000000000000e+00 1.7780000000000001e+01
0.0000000000000000e+00 2.4729999999999999e+00
ITEM: ATOMS id type x y z 
13 1 7.42053 0.750124 2.41446 
29 1 7.14953 1.58356 1.1659 
37 1 7.93269 2.77518 1.21683 
1 1 6.24371 17.3937 2.57229 
5 1 5.45503 17.3968 1.31647 
9 1 4.06674 17.4025 1.25979 
16 1 7.41447 16.2521 2.41457 
32 1 7.1424 15.4189 1.16653 
40 1 7.93847 14.2358 1.2167 
45 1 3.26602 17.3997 2.49418 
49 1 1.87071 17.3964 2.47335 
53 1 1.12118 17.3968 1.2362 
57 2 7.46478 17.3906 1.6118 
4 1 10.9559 8.50547 2.46422 
8 1 11.7479 8.50651 1.22771 
12 1 13.1802 8.50827 1.22775 
18 1 10.01 7.30507 2.46406 
21 1 8.45045 3.33738 2.4534 
26 1 8.84638 4.71736 2.4625 
34 1 9.55693 6.76938 1.22754 
42 1 8.92156 5.45893 1.22608 
48 1 13.9473 8.50797 2.46425 
52 1 15.306 8.50789 2.46425 
56 1 16.0434 8.50806 1.22775 
19 1 10.0084 9.70565 2.46406 
24 1 8.45589 13.6797 2.45298 
27 1 8.84778 12.296 2.46243 
35 1 9.55576 10.2431 1.22755 
43 1 8.92254 11.5533 1.22603 
3 1 22.6063 8.508 2.46425 
7 1 21.8143 8.508 1.22775 
11 1 20.383 8.508 1.22775 
20 1 23.5536 7.30513 2.46425 
36 1 23.9806 6.74054 1.22775 
44 1 24.5976 5.48551 1.22775 
47 1 19.617 8.50799 2.46425 
51 1 18.2494 8.508 2.46425 
55 1 17.5138 8.50804 1.22775 
17 1 23.5536 9.71087 2.46425 
33 1 23.9806 10.2755 1.22775 
41 1 24.5976 11.5305 1.22775 
15 1 26.3839 0.824809 2.46425 
23 1 25.1536 3.35162 2.46425 
28 1 24.7923 4.7835 2.46425 
31 1 25.9634 1.39441 1.22775 
39 1 25.3501 2.64978 1.22775 
2 1 27.3194 17.398 2.46426 
6 1 28.1476 17.398 1.22776 
10 1 29.5392 17.398 1.22783 
14 1 26.3839 16.1912 2.46425 
22 1 25.1536 13.6644 2.46425 
25 1 24.7923 12.2325 2.46425 
30 1 25.9634 15.6216 1.22775 
38 1 25.3501 14.3662 1.22775 
46 1 30.2941 17.398 2.46436 
50 1 31.7395 17.3983 2.46527 
54 1 32.4786 17.3984 1.22888 
ITEM: TIMESTEP
90
ITEM: NUMBER OF ATOMS
57
ITEM: BOX BOUNDS pp pp pp
0.0000000000000000e+00 3.2808000000000000e+01
0.0000000000000000e+00 1.7780000000000001e+01
0.0000000000000000e+00 2.4729999999999999e+00
ITEM: ATOMS id type x y z 
13 1 7.44409 0.750218 2.41415 
29 1 7.16997 1.5842 1.1631 
37 1 7.92504 2.79183 1.21486 
1 1 6.26411 17.3937 2.56601 
5 1 5.45711 17.3971 1.31996 
9 1 4.05912 17.4026 1.26353 
16 1 7.43727 16.2504 2.41485 
32 1 7.16025 15.4169 1.16344 
40 1 7.93087 14.2211 1.21463 
45 1 3.26485 17.4006 2.49869 
49 1 1.86942 17.3965 2.47622 
53 1 1.12726 17.3962 1.23947 
57 2 7.48178 17.3899 1.61699 
4 1 10.9326 8.50709 2.46415 
8 1 11.7305 8.5069 1.22765 
12 1 13.1543 8.50837 1.22774 
18 1 9.98348 7.30727 2.46383 
21 1 8.46478 3.33426 2.45127 
26 1 8.848 4.7159 2.4615 
34 1 9.5256 6.77429 1.22732 
42 1 8.89196 5.46467 1.22512 
48 1 13.9246 8.50818 2.46424 
52 1 15.3101 8.50793 2.46425 
56 1 16.0465 8.50802 1.22775 
19 1 9.98156 9.70404 2.46383 
24 1 8.47293 13.6798 2.4511 
27 1 8.85012 12.2967 2.46145 
35 1 9.52502 10.2372 1.22732 
43 1 8.89268 11.5504 1.22503 
3 1 22.6186 8.508 2.46425 
7 1 21.8222 8.508 1.22775 
11 1 20.3961 8.508 1.22775 
20 1 23.5661 7.30666 2.46425 
36 1 24.0108 6.75717 1.22775 
44 1 24.6484 5.49775 1.22775 
47 1 19.628 8.50798 2.46425 
51 1 18.2514 8.50801 2.46425 
55 1 17.5145 8.50806 1.22775 
17 1 23.5661 9.70934 2.46425 
33 1 24.0108 10.2588 1.22775 
41 1 24.6484 11.5183 1.22775 
15 1 26.379 0.81426 2.46425 
23 1 25.1233 3.3469 2.46425 
28 1 24.8244 4.78477 2.46425 
31 1 25.9397 1.36916 1.22775 
39 1 25.3025 2.63548 1.22775 
2 1 27.3268 17.398 2.46427 
6 1 28.1566 17.398 1.22778 
10 1 29.5468 17.3979 1.22796 
14 1 26.379 16.2017 2.46425 
22 1 25.1233 13.6691 2.46425 
25 1 24.8244 12.2312 2.46425 
30 1 25.9397 15.6468 1.22775 
38 1 25.3025 14.3805 1.22775 
46 1 30.2921 17.398 2.46448 
50 1 31.75 17.3985 2.46632 
54 1 32.4778 17.3982 1.22969 
ITEM: TIMESTEP
100
ITEM: NUMBER OF ATOMS
57
ITEM: BOX BOUNDS pp pp pp
0.0000000000000000e+00 3.2808000000000000e+01
0.0000000000000000e+00 1.7780000000000001e+01
0.0000000000000000e+00 2.4729999999999999e+00
ITEM: ATOMS id type x y z 
13 1 7.4514 0.75142 2.41629 
29 1 7.17887 1.58224 1.16267 
37 1 7.9259 2.80156 1.21423 
1 1 6.27007 17.3934 2.56895 
5 1 5.46889 17.3971 1.315 
9 1 4.06516 17.4027 1.26554 
16 1 7.44331 16.2477 2.41672 
32 1 7.16724 15.4202 1.1624 
40 1 7.93207 14.2109 1.21403 
45 1 3.27805 17.4009 2.50034 
49 1 1.87216 17.3966 2.47789 
53 1 1.12338 17.396 1.24054 
57 2 7.47955 17.3901 1.61454 
4 1 10.9198 8.50641 2.4641 
8 1 11.7263 8.50706 1.2276 
12 1 13.1391 8.5084 1.22774 
18 1 9.97201 7.30952 2.4637 
21 1 8.47028 3.33638 2.45023 
26 1 8.84756 4.72065 2.46102 
34 1 9.51311 6.77809 1.22717 
42 1 8.8818 5.46536 1.2247 
48 1 13.9112 8.50828 2.46424 
52 1 15.3141 8.50795 2.46425 
56 1 16.0461 8.508 1.22775 
19 1 9.96995 9.70208 2.4637 
24 1 8.47971 13.6795 2.45015 
27 1 8.85014 12.293 2.46093 
35 1 9.51145 10.2343 1.22715 
43 1 8.88307 11.5464 1.22466 
3 1 22.6244 8.508 2.46425 
7 1 21.8252 8.508 1.22775 
11 1 20.4035 8.50799 1.22775 
20 1 23.5736 7.306 2.46425 
36 1 24.0235 6.7649 1.22775 
44 1 24.675 5.50243 1.22775 
47 1 19.6321 8.50798 2.46425 
51 1 18.2495 8.50801 2.46425 
55 1 17.5123 8.50806 1.22775 
17 1 23.5736 9.71 2.46425 
33 1 24.0235 10.2511 1.22775 
41 1 24.675 11.5136 1.22775 
15 1 26.3766 0.814003 2.46426 
23 1 25.1077 3.34548 2.46425 
28 1 24.8414 4.7832 2.46425 
31 1 25.929 1.35928 1.22775 
39 1 25.2778 2.62835 1.22775 
2 1 27.3267 17.398 2.46428 
6 1 28.1452 17.398 1.22779 
10 1 29.5456 17.3979 1.22804 
14 1 26.3766 16.202 2.46426 
22 1 25.1077 13.6705 2.46425 
25 1 24.8414 12.2328 2.46425 
30 1 25.929 15.6567 1.22775 
38 1 25.2778 14.3876 1.22775 
46 1 30.3042 17.3981 2.46461 
50 1 31.7427 17.3986 2.46662 
54 1 32.4825 17.3981 1.23041 
ITEM: TIMESTEP
110
ITEM: NUMBER OF ATOMS
57
ITEM: BOX BOUNDS pp pp pp
0.0000000000000000e+00 3.2808000000000000e+01
0.0000000000000000e+00 1.7780000000000001e+01
0.0000000000000000e+00 2.4729999999999999e+00
ITEM: ATOMS id type x y z 
13 1 7.46117 0.748828 2.41494 
29 1 7.18871 1.58248 1.16426 
37 1 7.9242 2.80818 1.21317 
1 1 6.27399 17.3935 2.56353 
5 1 5.46822 17.3973 1.31484 
9 1 4.07126 17.4029 1.2671 
16 1 7.45244 16.2497 2.41632 
32 1 7.17658 15.4178 1.16425 
40 1 7.93046 14.2054 1.213 
45 1 3.27671 17.4013 2.50216 
49 1 1.87695 17.3966 2.47936 
53 1 1.13245 17.3957 1.24231 
57 2 7.48912 17.3887 1.6169 
4 1 10.9006 8.50779 2.46402 
8 1 11.7348 8.50742 1.22751 
12 1 13.1233 8.50843 1.22773 
18 1 9.95766 7.3095 2.46351 
21 1 8.47842 3.33504 2.44945 
26 1 8.84752 4.71814 2.46049 
34 1 9.48992 6.77917 1.22698 
42 1 8.86343 5.46828 1.22414 
48 1 13.8781 8.5084 2.46422 
52 1 15.3268 8.50797 2.46425 
56 1 16.0497 8.50796 1.22775 
19 1 9.95526 9.70226 2.46349 
24 1 8.48857 13.6811 2.44936 
27 1 8.85059 12.2953 2.46042 
35 1 9.48918 10.232 1.22697 
43 1 8.8643 11.5451 1.22408 
3 1 22.6287 8.508 2.46425 
7 1 21.8314 8.508 1.22775 
11 1 20.4061 8.50799 1.22775 
20 1 23.5789 7.30889 2.46425 
36 1 24.0388 6.77836 1.22775 
44 1 24.7152 5.51296 1.22775 
47 1 19.6376 8.50798 2.46425 
51 1 18.257 8.50802 2.46425 
55 1 17.5186 8.50806 1.22775 
17 1 23.5789 9.70711 2.46425 
33 1 24.0388 10.2376 1.22775 
41 1 24.7152 11.503 1.22775 
15 1 26.3772 0.810622 2.46426 
23 1 25.0854 3.35236 2.46425 
28 1 24.865 4.77579 2.46425 
31 1 25.9167 1.34068 1.22776 
39 1 25.2359 2.61908 1.22775 
2 1 27.3307 17.398 2.4643 
6 1 28.1567 17.398 1.22782 
10 1 29.5488 17.3979 1.2282 
14 1 26.3772 16.2054 2.46426 
22 1 25.0854 13.6636 2.46425 
25 1 24.865 12.2402 2.46425 
30 1 25.9167 15.6753 1.22776 
38 1 25.2359 14.3969 1.22775 
46 1 30.2984 17.3982 2.46475 
50 1 31.7511 17.3987 2.46743 
54 1 32.483 17.398 1.23094 
ITEM: TIMESTEP
120
ITEM: NUMBER OF ATOMS
57
ITEM: BOX BOUNDS pp pp pp
0.0000000000000000e+00 3.2808000000000000e+01
0.0000000000000000e+00 1.7780000000000001e+01
0.0000000000000000e+00 2.4729999999999999e+00
ITEM: ATOMS id type x y z 
13 1 7.47542 0.7492 2.41583 
29 1 7.21096 1.58348 1.16441 
37 1 7.92515 2.81774 1.21171 
1 1 6.28413 17.3934 2.56222 
5 1 5.47538 17.3976 1.31228 
9 1 4.06808 17.4034 1.26976 
16 1 7.46489 16.2476 2.41692 
32 1 7.19613 15.4149 1.16458 
40 1 7.93294 14.195 1.21164 
45 1 3.28443 17.402 2.50471 
49 1 1.876 17.3967 2.48221 
53 1 1.12233 17.3953 1.24467 
57 2 7.49542 17.388 1.61643 
4 1 10.8912 8.50712 2.46385 
8 1 11.7131 8.50783 1.22734 
12 1 13.1093 8.50844 1.22769 
18 1 9.93681 7.31668 2.46314 
21 1 8.49 3.34165 2.44789 
26 1 8.84443 4.72655 2.45958 
34 1 9.46701 6.7924 1.22662 
42 1 8.84554 5.47685 1.2232 
48 1 13.8651 8.50856 2.46419 
52 1 15.3095 8.50803 2.46424 
56 1 16.0418 8.50791 1.22774 
19 1 9.93412 9.69533 2.46313 
24 1 8.50179 13.6757 2.44782 
27 1 8.8482 12.2872 2.45954 
35 1 9.4646 10.2203 1.2266 
43 1 8.84625 11.5375 1.22315 
3 1 22.658 8.508 2.46425 
7 1 21.8311 8.508 1.22775 
11 1 20.4383 8.50798 1.22775 
20 1 23.5977 7.3074 2.46425 
36 1 24.0638 6.78132 1.22775 
44 1 24.7768 5.50367 1.22775 
47 1 19.665 8.50798 2.46425 
51 1 18.2375 8.50803 2.46425 
55 1 17.502 8.50803 1.22775 
17 1 23.5977 9.7086 2.46425 
33 1 24.0638 10.2347 1.22775 
41 1 24.7768 11.5123 1.22775 
15 1 26.3656 0.810503 2.46427 
23 1 25.0556 3.33778 2.46425 
28 1 24.899 4.77584 2.46425 
31 1 25.9008 1.33731 1.22777 
39 1 25.1922 2.60347 1.22775 
2 1 27.3235 17.398 2.46435 
6 1 28.1437 17.3979 1.22789 
10 1 29.544 17.398 1.2285 
14 1 26.3656 16.2055 2.46427 
22 1 25.0556 13.6782 2.46425 
25 1 24.899 12.2402 2.46425 
30 1 25.9008 15.6787 1.22777 
38 1 25.1922 14.4125 1.22775 
46 1 30.3004 17.3983 2.46513 
50 1 31.7427 17.3987 2.46851 
54 1 32.4859 17.3977 1.23241 
ITEM: TIMESTEP
130
ITEM: NUMBER OF ATOMS
57
ITEM: BOX BOUNDS pp pp pp
0.0000000000000000e+00 3.2808000000000000e+01
0.0000000000000000e+00 1.7780000000000001e+01
0.0000000000000000e+00 2.4729999999999999e+00
ITEM: ATOMS id type x y z 
13 1 7.47964 0.750053 2.41552 
29 1 7.21666 1.58297 1.16462 
37 1 7.92777 2.82198 1.21121 
1 1 6.28641 17.3933 2.56045 
5 1 5.47288 17.3978 1.31236 
9 1 4.06498 17.4036 1.27034 
16 1 7.46827 16.2456 2.41618 
32 1 7.20118 15.4154 1.16488 
40 1 7.93583 14.1909 1.21115 
45 1 3.28194 17.4022 2.50543 
49 1 1.87051 17.3967 2.48283 
53 1 1.12096 17.3952 1.24539 
57 2 7.49609 17.3877 1.61806 
4 1 10.891 8.5075 2.46377 
8 1 11.7138 8.50802 1.22729 
12 1 13.1107 8.50847 1.22767 
18 1 9.93277 7.31974 2.46304 
21 1 8.4918 3.34117 2.44761 
26 1 8.8437 4.73097 2.45927 
34 1 9.45983 6.79649 1.22648 
42 1 8.83917 5.47824 1.22298 
48 1 13.8646 8.50857 2.46417 
52 1 15.3105 8.50804 2.46424 
56 1 16.0516 8.50791 1.22774 
19 1 9.92987 9.69246 2.46303 
24 1 8.50441 13.676 2.44757 
27 1 8.84762 12.2832 2.45923 
35 1 9.45735 10.2161 1.22646 
43 1 8.83994 11.5363 1.22294 
3 1 22.6607 8.508 2.46425 
7 1 21.8368 8.508 1.22775 
11 1 20.4395 8.50798 1.22775 
20 1 23.606 7.30863 2.46425 
36 1 24.0669 6.77801 1.22775 
44 1 24.7784 5.50999 1.22775 
47 1 19.6835 8.50798 2.46425 
51 1 18.2402 8.50803 2.46425 
55 1 17.4984 8.50802 1.22775 
17 1 23.606 9.70737 2.46425 
33 1 24.0669 10.238 1.22775 
41 1 24.7784 11.506 1.22775 
15 1 26.3622 0.808992 2.46428 
23 1 25.0486 3.33755 2.46425 
28 1 24.9068 4.7754 2.46425 
31 1 25.8989 1.33724 1.22777 
39 1 25.1847 2.60501 1.22775 
2 1 27.3202 17.398 2.46437 
6 1 28.1417 17.3979 1.22792 
10 1 29.5402 17.398 1.22863 
14 1 26.3621 16.207 2.46428 
22 1 25.0486 13.6784 2.46425 
25 1 24.9068 12.2406 2.46425 
30 1 25.8989 15.6788 1.22777 
38 1 25.1847 14.411 1.22775 
46 1 30.296 17.3984 2.46527 
50 1 31.7402 17.3987 2.46896 
54 1 32.4806 17.3976 1.2328 
ITEM: TIMESTEP
140
ITEM: NUMBER OF ATOMS
57
ITEM: BOX BOUNDS pp pp pp
0.0000000000000000e+00 3.2808000000000000e+01
0.0000000000000000e+00 1.7780000000000001e+01
0.0000000000000000e+00 2.4729999999999999e+00
ITEM: ATOMS id type x y z 
13 1 7.49354 0.750909 2.41755 
29 1 7.24173 1.58606 1.16567 
37 1 7.93741 2.83343 1.20965 
1 1 6.29461 17.3932 2.55272 
5 1 5.46374 17.3984 1.30798 
9 1 4.04795 17.4042 1.2726 
16 1 7.47998 16.2423 2.4185 
32 1 7.22272 15.4095 1.16594 
40 1 7.94692 14.1791 1.20966 
45 1 3.27584 17.4028 2.508 
49 1 1.85577 17.3968 2.48536 
53 1 1.10613 17.395 1.24791 
57 2 7.49785 17.3864 1.62175 
4 1 10.9003 8.50806 2.46349 
8 1 11.7174 8.5087 1.22704 
12 1 13.118 8.5086 1.22759 
18 1 9.9208 7.33389 2.46256 
21 1 8.50093 3.3531 2.44612 
26 1 8.83692 4.74667 2.45821 
34 1 9.44072 6.81705 1.22598 
42 1 8.8243 5.49307 1.22195 
48 1 13.8738 8.50856 2.46411 
52 1 15.3182 8.50809 2.46423 
56 1 16.0619 8.5079 1.22773 
19 1 9.9173 9.6789 2.46255 
24 1 8.51621 13.6652 2.44615 
27 1 8.84183 12.2683 2.45819 
35 1 9.4372 10.1963 1.22596 
43 1 8.82504 11.5224 1.22193 
3 1 22.6727 8.508 2.46425 
7 1 21.8523 8.50799 1.22775 
11 1 20.4528 8.50798 1.22775 
20 1 23.6292 7.31444 2.46425 
36 1 24.0777 6.77599 1.22775 
44 1 24.7976 5.51088 1.22775 
47 1 19.6935 8.50799 2.46425 
51 1 18.2508 8.50803 2.46425 
55 1 17.5066 8.50797 1.22775 
17 1 23.6292 9.70155 2.46425 
33 1 24.0777 10.24 1.22775 
41 1 24.7976 11.5051 1.22775 
15 1 26.3465 0.808866 2.4643 
23 1 25.0258 3.33465 2.46426 
28 1 24.9314 4.77742 2.46425 
31 1 25.8885 1.34113 1.22779 
39 1 25.1627 2.60216 1.22776 
2 1 27.3056 17.398 2.46449 
6 1 28.1272 17.3979 1.22805 
10 1 29.5255 17.3981 1.22917 
14 1 26.3464 16.2071 2.4643 
22 1 25.0258 13.6813 2.46426 
25 1 24.9314 12.2386 2.46425 
30 1 25.8884 15.6749 1.22779 
38 1 25.1626 14.4138 1.22776 
46 1 30.2818 17.3986 2.46586 
50 1 31.7257 17.3985 2.47061 
54 1 32.467 17.3972 1.23451 
ITEM: TIMESTEP
150
ITEM: NUMBER OF ATOMS
57
ITEM: BOX BOUNDS pp pp pp
0.0000000000000000e+00 3.2808000000000000e+01
0.0000000000000000e+00 1.7780000000000001e+01
0.0000000000000000e+00 2.4729999999999999e+00
ITEM: ATOMS id type x y z 
13 1 7.50696 0.751916 2.41936 
29 1 7.26876 1.58986 1.16849 
37 1 7.95235 2.84229 1.2083 
1 1 6.30451 17.3928 2.5444 
5 1 5.45083 17.3994 1.30146 
9 1 4.02822 17.4049 1.27412 
16 1 7.49044 16.2375 2.41978 
32 1 7.24533 15.4029 1.16892 
40 1 7.96349 14.1699 1.20841 
45 1 3.27147 17.4035 2.5096 
49 1 1.83562 17.3969 2.48764 
53 1 1.08789 17.3948 1.25006 
57 2 7.50349 17.3849 1.62736 
4 1 10.9123 8.50895 2.46315 
8 1 11.7303 8.5096 1.2267 
12 1 13.1302 8.50876 1.22749 
18 1 9.9254 7.34414 2.46199 
21 1 8.50729 3.37143 2.44472 
26 1 8.82683 4.76882 2.4571 
34 1 9.42243 6.84064 1.22538 
42 1 8.81219 5.51291 1.22084 
48 1 13.8883 8.50847 2.46399 
52 1 15.3296 8.50807 2.4642 
56 1 16.0734 8.50793 1.22771 
19 1 9.92109 9.66938 2.46199 
24 1 8.52604 13.6485 2.44479 
27 1 8.83313 12.2472 2.45711 
35 1 9.4178 10.1732 1.22537 
43 1 8.81283 11.5037 1.22084 
3 1 22.6826 8.50799 2.46425 
7 1 21.8613 8.50798 1.22775 
11 1 20.4621 8.50799 1.22775 
20 1 23.6394 7.31515 2.46425 
36 1 24.0919 6.7787 1.22775 
44 1 24.8117 5.51418 1.22775 
47 1 19.7079 8.50801 2.46425 
51 1 18.2619 8.50799 2.46424 
55 1 17.5201 8.50793 1.22774 
17 1 23.6394 9.70083 2.46425 
33 1 24.0919 10.2373 1.22775 
41 1 24.8117 11.5018 1.22775 
15 1 26.3311 0.811863 2.46436 
23 1 25.013 3.33676 2.46426 
28 1 24.9426 4.77974 2.46425 
31 1 25.8741 1.34403 1.22784 
39 1 25.1433 2.60125 1.22777 
2 1 27.2869 17.398 2.46466 