ITEM: TIMESTEP
0
ITEM: NUMBER OF ATOMS
41
ITEM: BOX BOUNDS pp pp pp
0.0000000000000000e+00 9.8979999999999997e+00
0.0000000000000000e+00 9.8979999999999997e+00
0.0000000000000000e+00 9.8979999999999997e+00
ITEM: ATOMS id type x y z 
1 1 1.091 1.091 1.091 
2 1 0.2 0.2 0.2 
3 1 1.982 1.982 0.2 
4 1 0.2 1.982 1.982 
5 1 1.982 0.2 1.982 
11 1 3.566 3.566 8.515 
12 1 2.675 2.675 9.406 
13 1 4.456 4.456 9.405 
14 1 4.457 2.675 7.624 
15 1 2.675 4.457 7.624 
16 1 3.566 8.515 3.566 
17 1 2.675 9.406 2.675 
18 1 4.457 7.624 2.675 
19 1 4.456 9.405 4.456 
20 1 2.675 7.624 4.457 
31 1 1.091 6.04 6.04 
32 1 0.2 5.149 5.149 
33 1 1.982 6.931 5.149 
34 1 0.2 6.931 6.931 
35 1 1.982 5.149 6.931 
26 1 8.515 3.566 3.566 
27 1 9.406 2.675 2.675 
28 1 7.624 4.457 2.675 
29 1 7.624 2.675 4.457 
30 1 9.405 4.456 4.456 
36 1 6.04 1.091 6.04 
37 1 6.931 0.2 6.931 
38 1 5.149 0.2 5.149 
39 1 5.149 1.982 6.931 
40 1 6.931 1.982 5.149 
21 1 6.04 6.04 1.091 
22 1 5.149 6.931 1.982 
23 1 6.931 5.149 1.982 
24 1 5.149 5.149 0.2 
25 1 6.931 6.931 0.2 
41 2 9.723 9.868 1.22 
6 1 8.515 8.515 8.515 
7 1 9.405 9.405 9.405 
8 1 7.624 7.624 9.406 
9 1 7.624 9.406 7.624 
10 1 9.406 7.624 7.624 
ITEM: TIMESTEP
10
ITEM: NUMBER OF ATOMS
41
ITEM: BOX BOUNDS pp pp pp
0.0000000000000000e+00 9.8979999999999997e+00
0.0000000000000000e+00 9.8979999999999997e+00
0.0000000000000000e+00 9.8979999999999997e+00
ITEM: ATOMS id type x y z 
1 1 1.1822 1.18044 1.15575 
2 1 0.123085 0.1315 0.219822 
3 1 1.99571 1.99472 0.21594 
4 1 0.233432 2.00322 1.98968 
5 1 2.00136 0.230427 1.98912 
11 1 3.5646 3.56465 8.51299 
12 1 2.6829 2.68375 9.39256 
13 1 4.45715 4.45642 9.40985 
14 1 4.45716 2.67166 7.62344 
15 1 2.67207 4.45691 7.62376 
16 1 3.56219 8.51512 3.56246 
17 1 2.67706 9.40229 2.67682 
18 1 4.45602 7.62441 2.67339 
19 1 4.4547 9.40756 4.45678 
20 1 2.67457 7.62423 4.45548 
31 1 1.0942 6.03494 6.03393 
32 1 0.199755 5.14721 5.14549 
33 1 1.9829 6.92957 5.14727 
34 1 0.206146 6.92309 6.92399 
35 1 1.98244 5.15027 6.92709 
26 1 8.51498 3.5618 3.56233 
27 1 9.40353 2.67789 2.67661 
28 1 7.62461 4.456 2.67338 
29 1 7.62395 2.67461 4.45575 
30 1 9.40716 4.45443 4.45645 
36 1 6.03591 1.09344 6.03464 
37 1 6.92287 0.206373 6.9235 
38 1 5.14748 0.200033 5.1458 
39 1 5.15063 1.98229 6.92705 
40 1 6.92961 1.98267 5.14728 
21 1 6.03668 6.03653 1.09447 
22 1 5.14833 6.92853 1.98344 
23 1 6.92842 5.14816 1.98362 
24 1 5.14886 5.1488 0.201268 
25 1 6.92672 6.92637 0.204672 
41 2 9.6803 9.82635 1.25339 
6 1 8.52417 8.52373 8.51336 
7 1 9.36662 9.3631 9.31297 
8 1 7.62154 7.62276 9.41604 
9 1 7.61858 9.4183 7.61704 
10 1 9.41841 7.61943 7.61733 
ITEM: TIMESTEP
20
ITEM: NUMBER OF ATOMS
41
ITEM: BOX BOUNDS pp pp pp
0.0000000000000000e+00 9.8979999999999997e+00
0.0000000000000000e+00 9.8979999999999997e+00
0.0000000000000000e+00 9.8979999999999997e+00
ITEM: ATOMS id type x y z 
1 1 1.18247 1.18058 1.15641 
2 1 0.114967 0.125353 0.221368 
3 1 1.99903 1.9981 0.216161 
4 1 0.236402 2.00671 1.99191 
5 1 2.00464 0.233228 1.99106 
11 1 3.56472 3.56452 8.51318 
12 1 2.68381 2.68451 9.39244 
13 1 4.45605 4.45594 9.40781 
14 1 4.45764 2.67136 7.62184 
15 1 2.67152 4.45762 7.62201 
16 1 3.56154 8.51525 3.56167 
17 1 2.67771 9.40387 2.67693 
18 1 4.45572 7.62322 2.67406 
19 1 4.45368 9.40468 4.45386 
20 1 2.67445 7.62406 4.45538 
31 1 1.09527 6.03501 6.03368 
32 1 0.201506 5.14691 5.14729 
33 1 1.98319 6.92964 5.14622 
34 1 0.206795 6.92388 6.92377 
35 1 1.98318 5.14863 6.92773 
26 1 8.51502 3.56133 3.56153 
27 1 9.40559 2.67849 2.67643 
28 1 7.62329 4.45547 2.67408 
29 1 7.62422 2.67436 4.45541 
30 1 9.40446 4.45349 4.45358 
36 1 6.03555 1.09492 6.03386 
37 1 6.9241 0.20698 6.92362 
38 1 5.14711 0.201707 5.14745 
39 1 5.14903 1.98299 6.92789 
40 1 6.92958 1.98321 5.14631 
21 1 6.03662 6.03636 1.09524 
22 1 5.14801 6.92953 1.98315 
23 1 6.92966 5.14814 1.98334 
24 1 5.14979 5.14917 0.203306 
25 1 6.92816 6.92906 0.20417 
41 2 9.67501 9.82122 1.25772 
6 1 8.52412 8.52418 8.51198 
7 1 9.36917 9.36455 9.31561 
8 1 7.62035 7.62006 9.41652 
9 1 7.61745 9.41753 7.61513 
10 1 9.41842 7.61817 7.6149 
ITEM: TIMESTEP
21
ITEM: NUMBER OF ATOMS
41
ITEM: BOX BOUNDS pp pp pp
0.0000000000000000e+00 9.8979999999999997e+00
0.0000000000000000e+00 9.8979999999999997e+00
0.0000000000000000e+00 9.8979999999999997e+00
ITEM: ATOMS id type x y z 
1 1 1.18247 1.18058 1.15641 
2 1 0.114967 0.125353 0.221368 
3 1 1.99903 1.9981 0.216161 
4 1 0.236402 2.00671 1.99191 
5 1 2.00464 0.233228 1.99106 
11 1 3.56472 3.56452 8.51318 
12 1 2.68381 2.68451 9.39244 
13 1 4.45605 4.45594 9.40781 
14 1 4.45764 2.67136 7.62184 
15 1 2.67152 4.45762 7.62201 
16 1 3.56154 8.51525 3.56167 
17 1 2.67771 9.40387 2.67693 
18 1 4.45572 7.62322 2.67406 
19 1 4.45368 9.40468 4.45386 
20 1 2.67445 7.62406 4.45538 
31 1 1.09527 6.03501 6.03368 
32 1 0.201506 5.14691 5.14729 
33 1 1.98319 6.92964 5.14622 
34 1 0.206795 6.92388 6.92377 
35 1 1.98318 5.14863 6.92773 
26 1 8.51502 3.56133 3.56153 
27 1 9.40559 2.67849 2.67643 
28 1 7.62329 4.45547 2.67408 
29 1 7.62422 2.67436 4.45541 
30 1 9.40446 4.45349 4.45358 
36 1 6.03555 1.09492 6.03386 
37 1 6.9241 0.20698 6.92362 
38 1 5.14711 0.201707 5.14745 
39 1 5.14903 1.98299 6.92789 
40 1 6.92958 1.98321 5.14631 
21 1 6.03662 6.03636 1.09524 
22 1 5.14801 6.92953 1.98315 
23 1 6.92966 5.14814 1.98334 
24 1 5.14979 5.14917 0.203306 
25 1 6.92816 6.92906 0.20417 
41 2 9.67501 9.82122 1.25772 
6 1 8.52412 8.52418 8.51198 
7 1 9.36917 9.36455 9.31561 
8 1 7.62035 7.62006 9.41652 
9 1 7.61745 9.41753 7.61513 
10 1 9.41842 7.61817 7.6149 
ITEM: TIMESTEP
30
ITEM: NUMBER OF ATOMS
41
ITEM: BOX BOUNDS pp pp pp
-4.0243057553975385e-03 9.9020243057553987e+00
-4.0640855914474243e-03 9.9020640855914461e+00
-4.4541000000000016e-03 9.9024540999999964e+00
ITEM: ATOMS id type x y z 
1 1 1.17944 1.17751 1.15301 
2 1 0.11104 0.121417 0.217242 
3 1 1.99664 1.99569 0.21193 
4 1 0.232632 2.0043 1.98925 
5 1 2.00226 0.229408 1.98839 
11 1 3.5636 3.5634 8.5164 
12 1 2.68199 2.68266 9.39644 
13 1 4.45571 4.45558 9.41187 
14 1 4.45722 2.66952 7.62426 
15 1 2.6697 4.45718 7.62443 
16 1 3.56042 8.51817 3.56043 
17 1 2.67588 9.40754 2.67489 
18 1 4.45532 7.62542 2.672 
19 1 4.45333 9.40842 4.45347 
20 1 2.6726 7.62625 4.45492 
31 1 1.09213 6.03589 6.03465 
32 1 0.197577 5.14702 5.14739 
33 1 1.98079 6.93126 5.1464 
34 1 0.202965 6.9255 6.92552 
35 1 1.98074 5.14881 6.92948 
26 1 8.51791 3.5602 3.56029 
27 1 9.40922 2.67665 2.6744 
28 1 7.62547 4.45507 2.67203 
29 1 7.62639 2.67249 4.45496 
30 1 9.40816 4.45314 4.4532 
36 1 6.03641 1.09176 6.03483 
37 1 6.9257 0.203102 6.92539 
38 1 5.14722 0.197739 5.14755 
39 1 5.1492 1.98052 6.92964 
40 1 6.93119 1.98077 5.14648 
21 1 6.0375 6.03726 1.09178 
22 1 5.14816 6.93115 1.98047 
23 1 6.93127 5.14829 1.98066 
24 1 5.14989 5.1493 0.199 
25 1 6.92975 6.93064 0.199945 
41 2 9.67879 9.82517 1.25445 
6 1 8.52704 8.52711 8.51517 
7 1 9.37269 9.3681 9.31945 
8 1 7.62255 7.6223 9.42049 
9 1 7.61962 9.42118 7.61752 
10 1 9.42203 7.62036 7.6173 
ITEM: TIMESTEP
40
ITEM: NUMBER OF ATOMS
41
ITEM: BOX BOUNDS pp pp pp
-6.0608721100205301e-03 9.9040608721100227e+00
-6.4131368748325873e-03 9.9044131368748332e+00
-9.4031000000000045e-03 9.9074030999999927e+00
ITEM: ATOMS id type x y z 
1 1 1.17823 1.17603 1.14933 
2 1 0.108883 0.11914 0.213377 
3 1 1.99569 1.99455 0.207256 
4 1 0.231041 2.00312 1.98642 
5 1 2.0013 0.227445 1.9856 
11 1 3.56308 3.56283 8.52 
12 1 2.68097 2.68149 9.40109 
13 1 4.45601 4.45574 9.41666 
14 1 4.4569 2.66859 7.62694 
15 1 2.66891 4.45683 7.62712 
16 1 3.5599 8.51978 3.55909 
17 1 2.67494 9.40993 2.67254 
18 1 4.45522 7.62662 2.66961 
19 1 4.45351 9.41111 4.45347 
20 1 2.67155 7.62745 4.45445 
31 1 1.09054 6.0363 6.03569 
32 1 0.195078 5.14666 5.14699 
33 1 1.97967 6.93223 5.14652 
34 1 0.201152 6.9265 6.92741 
35 1 1.97939 5.14893 6.93133 
26 1 8.51931 3.55959 3.55895 
27 1 9.4113 2.67564 2.67209 
28 1 7.62648 4.45495 2.66965 
29 1 7.62739 2.67134 4.45451 
30 1 9.41057 4.45332 4.45319 
36 1 6.03675 1.08997 6.03588 
37 1 6.9266 0.200909 6.9273 
38 1 5.14687 0.194932 5.14713 
39 1 5.1493 1.979 6.93151 
40 1 6.93208 1.97943 5.14654 
21 1 6.03792 6.0378 1.08802 
22 1 5.14811 6.9321 1.97753 
23 1 6.93212 5.14823 1.97769 
24 1 5.14952 5.14905 0.19397 
25 1 6.93049 6.9313 0.195475 
41 2 9.68022 9.82698 1.25112 
6 1 8.52855 8.52872 8.5185 
7 1 9.37408 9.3697 9.32338 
8 1 7.6237 7.6238 9.42471 
9 1 7.62057 9.42331 7.62002 
10 1 9.42378 7.62147 7.61978 
ITEM: TIMESTEP
50
ITEM: NUMBER OF ATOMS
41
ITEM: BOX BOUNDS pp pp pp
-4.0208798984743884e-03 9.9020208798984797e+00
-5.2068767924739216e-03 9.9032068767924724e+00
-1.3582146399369600e-02 9.9115821463993594e+00
ITEM: ATOMS id type x y z 
1 1 1.18065 1.17774 1.14645 
2 1 0.109485 0.119471 0.211006 
3 1 1.9975 1.99585 0.203719 
4 1 0.234098 2.00453 1.98432 
5 1 2.00324 0.229582 1.98349 
11 1 3.56386 3.56338 8.52308 
12 1 2.68203 2.68213 9.40509 
13 1 4.4568 4.45637 9.42062 
14 1 4.45691 2.66944 7.62902 
15 1 2.67012 4.45676 7.62921 
16 1 3.56059 8.51865 3.5579 
17 1 2.67612 9.40944 2.67064 
18 1 4.45547 7.62592 2.66754 
19 1 4.4538 9.41068 4.45346 
20 1 2.67242 7.6267 4.45393 
31 1 1.09222 6.03584 6.03652 
32 1 0.196459 5.14621 5.14642 
33 1 1.981 6.93174 5.14654 
34 1 0.203591 6.92609 6.92867 
35 1 1.98038 5.14878 6.93278 
26 1 8.51761 3.56002 3.55778 
27 1 9.41009 2.67653 2.67022 
28 1 7.62532 4.45517 2.66763 
29 1 7.62617 2.67186 4.45397 
30 1 9.40939 4.45359 4.45316 
36 1 6.03608 1.09108 6.03667 
37 1 6.92586 0.202386 6.92859 
38 1 5.14641 0.195496 5.14655 
39 1 5.14909 1.97946 6.93303 
40 1 6.93131 1.98025 5.14652 
21 1 6.03749 6.03766 1.08498 
22 1 5.14785 6.93153 1.97501 
23 1 6.93125 5.1479 1.97507 
24 1 5.14893 5.14864 0.189886 
25 1 6.92967 6.93047 0.19201 
41 2 9.67668 9.82424 1.2491 
6 1 8.52706 8.52758 8.52073 
7 1 9.3719 9.36812 9.32704 
8 1 7.62244 7.62321 9.42816 
9 1 7.61903 9.42225 7.62176 
10 1 9.42177 7.62029 7.62143 
ITEM: TIMESTEP
60
ITEM: NUMBER OF ATOMS
41
ITEM: BOX BOUNDS pp pp pp
-2.3260479171092071e-03 9.9003260479171153e+00
-4.2277096214334894e-03 9.9022277096214317e+00
-1.6645584210668276e-02 9.9146455842106551e+00
ITEM: ATOMS id type x y z 
1 1 1.18275 1.17924 1.14445 
2 1 0.109453 0.119326 0.209679 
3 1 1.99906 1.99698 0.201363 
4 1 0.236907 2.00588 1.98292 
5 1 2.00502 0.231612 1.98205 
11 1 3.56457 3.56385 8.52529 
12 1 2.68311 2.68284 9.40795 
13 1 4.45718 4.45673 9.42324 
14 1 4.457 2.67018 7.63033 
15 1 2.67114 4.45675 7.63053 
16 1 3.56112 8.51773 3.55695 
17 1 2.67728 9.4091 2.66938 
18 1 4.45556 7.62533 2.66607 
19 1 4.45373 9.40998 4.45305 
20 1 2.67322 7.62608 4.45345 
31 1 1.09374 6.03549 6.03701 
32 1 0.19793 5.14606 5.1463 
33 1 1.98206 6.93132 5.14653 
34 1 0.205673 6.92572 6.92936 
35 1 1.98116 5.14853 6.93398 
26 1 8.51619 3.56039 3.55684 
27 1 9.40919 2.67743 2.66895 
28 1 7.62437 4.45522 2.66615 
29 1 7.62517 2.67235 4.45346 
30 1 9.40809 4.4534 4.4528 
36 1 6.03556 1.0921 6.03709 
37 1 6.92518 0.203719 6.92937 
38 1 5.14619 0.196289 5.14645 
39 1 5.14877 1.97972 6.9343 
40 1 6.93063 1.98089 5.14651 
21 1 6.03716 6.03752 1.0827 
22 1 5.14772 6.93104 1.97319 
23 1 6.93046 5.14774 1.97321 
24 1 5.1487 5.14852 0.187199 
25 1 6.92906 6.93002 0.189473 
41 2 9.67333 9.82159 1.24798 
6 1 8.52568 8.52655 8.52207 
7 1 9.37018 9.36691 9.33 
8 1 7.6213 7.62247 9.43071 
9 1 7.61773 9.42135 7.62292 
10 1 9.42016 7.61928 7.62254 
ITEM: TIMESTEP
70
ITEM: NUMBER OF ATOMS
41
ITEM: BOX BOUNDS pp pp pp
-9.6814505544720640e-04 9.8989681450554556e+00
-3.4699474048390916e-03 9.9014699474048360e+00
-1.9121062299618758e-02 9.9171210622996018e+00
ITEM: ATOMS id type x y z 
1 1 1.1846 1.18058 1.14292 
2 1 0.108917 0.118847 0.209123 
3 1 2.00051 1.99805 0.199596 
4 1 0.239491 2.00719 1.98192 
5 1 2.00669 0.233521 1.981 
11 1 3.56521 3.56429 8.52699 
12 1 2.6841 2.68352 9.41028 
13 1 4.45746 4.45701 9.42537 
14 1 4.45704 2.67079 7.6313 
15 1 2.67205 4.45672 7.63146 
16 1 3.56148 8.51704 3.55616 
17 1 2.67836 9.40902 2.66844 
18 1 4.45561 7.62481 2.66488 
19 1 4.45372 9.40934 4.45261 
20 1 2.67387 7.62557 4.453 
31 1 1.09505 6.03517 6.03728 
32 1 0.199191 5.14584 5.14624 
33 1 1.98294 6.93097 5.14649 
34 1 0.207414 6.92543 6.92977 
35 1 1.98165 5.14824 6.93505 
26 1 8.51508 3.5606 3.55604 
27 1 9.40866 2.6783 2.668 
28 1 7.62355 4.45521 2.66494 
29 1 7.62434 2.67274 4.45298 
30 1 9.40693 4.4533 4.45236 
36 1 6.03509 1.09293 6.03735 
37 1 6.92462 0.204863 6.92991 
38 1 5.14594 0.196985 5.14637 
39 1 5.14848 1.97992 6.93532 
40 1 6.93008 1.98141 5.14646 
21 1 6.03691 6.0374 1.08086 
22 1 5.14761 6.93065 1.97172 
23 1 6.92982 5.14764 1.97173 
24 1 5.14855 5.14847 0.185087 
25 1 6.92862 6.92974 0.187466 
41 2 9.6701 9.81897 1.24741 
6 1 8.52446 8.52563 8.52293 
7 1 9.3687 9.36585 9.33247 
8 1 7.62037 7.6218 9.43269 
9 1 7.61663 9.42063 7.62371 
10 1 9.4189 7.61839 7.62333 
ITEM: TIMESTEP
80
ITEM: NUMBER OF ATOMS
41
ITEM: BOX BOUNDS pp pp pp
1.0038529157409303e-04 9.8978996147084359e+00
-2.8779724524961806e-03 9.9008779724524913e+00
-2.1129429590550818e-02 9.9191294295905319e+00
ITEM: ATOMS id type x y z 
1 1 1.18624 1.1818 1.14177 
2 1 0.107885 0.118061 0.209248 
3 1 2.00188 1.9991 0.198302 
4 1 0.241926 2.00851 1.98126 
5 1 2.00829 0.235388 1.98029 
11 1 3.56579 3.56475 8.52823 
12 1 2.68504 2.68419 9.41219 
13 1 4.45766 4.45718 9.42725 
14 1 4.45702 2.67123 7.63205 
15 1 2.67271 4.45659 7.63215 
16 1 3.56173 8.51649 3.55548 
17 1 2.67938 9.40916 2.66776 
18 1 4.45562 7.62437 2.66391 
19 1 4.4537 9.4088 4.45219 
20 1 2.67438 7.62513 4.45258 
31 1 1.09604 6.0348 6.03744 
32 1 0.200222 5.14559 5.14612 
33 1 1.98365 6.93068 5.14639 
34 1 0.2089 6.92516 6.93 
35 1 1.98221 5.14808 6.93584 
26 1 8.51422 3.56074 3.55535 
27 1 9.40848 2.67918 2.6673 
28 1 7.62286 4.45516 2.66395 
29 1 7.62365 2.67304 4.45253 
30 1 9.40597 4.45324 4.45195 
36 1 6.0346 1.09356 6.0375 
37 1 6.92413 0.205869 6.93026 
38 1 5.14568 0.19756 5.14623 
39 1 5.14827 1.9802 6.93605 
40 1 6.92963 1.98183 5.14635 
21 1 6.0367 6.03732 1.07939 
22 1 5.14751 6.93032 1.97054 
23 1 6.9293 5.14755 1.97055 
24 1 5.14848 5.14849 0.183349 
25 1 6.92835 6.92956 0.185889 
41 2 9.66691 9.81627 1.24736 
6 1 8.52338 8.52476 8.52337 
7 1 9.3674 9.36489 9.33459 
8 1 7.61962 7.62121 9.43419 
9 1 7.6157 9.42005 7.62418 
10 1 9.4179 7.6176 7.62379 
ITEM: TIMESTEP
90
ITEM: NUMBER OF ATOMS
41
ITEM: BOX BOUNDS pp pp pp
9.3682929002296530e-04 9.8970631707099894e+00
-2.4077200430073688e-03 9.9004077200430007e+00
-2.2792120504796575e-02 9.9207921205047747e+00
ITEM: ATOMS id type x y z 
1 1 1.18774 1.18296 1.14089 
2 1 0.106342 0.116963 0.210007 
3 1 2.00323 2.00019 0.197385 
4 1 0.244316 2.0099 1.98089 
5 1 2.0099 0.237298 1.97985 
11 1 3.56625 3.56511 8.52919 
12 1 2.68595 2.68489 9.4138 
13 1 4.45787 4.45743 9.42873 
14 1 4.45706 2.6716 7.63268 
15 1 2.67325 4.45649 7.63268 
16 1 3.56192 8.51603 3.55487 
17 1 2.68041 9.40952 2.66729 
18 1 4.45558 7.62396 2.66307 
19 1 4.45366 9.40836 4.4518 
20 1 2.67478 7.62475 4.45217 
31 1 1.09685 6.03442 6.03745 
32 1 0.201048 5.14534 5.14593 
33 1 1.98422 6.93041 5.14623 
34 1 0.21017 6.92484 6.93012 
35 1 1.9827 5.14792 6.9364 
26 1 8.51352 3.56084 3.55473 
27 1 9.40865 2.68012 2.66681 
28 1 7.62227 4.45508 2.6631 
29 1 7.62308 2.67326 4.4521 
30 1 9.40521 4.45314 4.45156 
36 1 6.03414 1.09413 6.03755 
37 1 6.92362 0.206641 6.93042 
38 1 5.14542 0.198038 5.14604 
39 1 5.14809 1.9805 6.93655 
40 1 6.92924 1.98218 5.14619 
21 1 6.03659 6.03728 1.07826 
22 1 5.14744 6.93002 1.96957 
23 1 6.92885 5.14748 1.96957 
24 1 5.14841 5.14851 0.181992 
25 1 6.92812 6.92947 0.184529 
41 2 9.6636 9.81337 1.24781 
6 1 8.52241 8.52391 8.52346 
7 1 9.36621 9.36397 9.3365 
8 1 7.61906 7.62067 9.43535 
9 1 7.61494 9.41964 7.6244 
10 1 9.41712 7.61692 7.62396 
ITEM: TIMESTEP
100
ITEM: NUMBER OF ATOMS
41
ITEM: BOX BOUNDS pp pp pp
1.5664895990612669e-03 9.8964335104009535e+00
-2.0303697880280410e-03 9.9000303697880199e+00
-2.4163511611991303e-02 9.9221635116119682e+00
ITEM: ATOMS id type x y z 
1 1 1.18913 1.1841 1.14026 
2 1 0.104191 0.115498 0.211473 
3 1 2.0046 2.00137 0.196823 
4 1 0.246766 2.01141 1.98081 
5 1 2.01157 0.239353 1.97969 
11 1 3.56662 3.56547 8.5299 
12 1 2.6869 2.68567 9.41518 
13 1 4.45817 4.45768 9.42991 
14 1 4.45709 2.67192 7.63315 
15 1 2.6737 4.45648 7.63311 
16 1 3.56205 8.51562 3.55431 
17 1 2.68149 9.41014 2.66702 
18 1 4.4555 7.62357 2.66236 
19 1 4.45358 9.40801 4.45141 
20 1 2.67508 7.6244 4.45175 
31 1 1.09755 6.0341 6.03727 
32 1 0.201696 5.14508 5.14565 
33 1 1.98465 6.93014 5.14599 
34 1 0.211122 6.9242 6.93025 
35 1 1.98314 5.14774 6.9367 
26 1 8.51298 3.56091 3.55415 
27 1 9.4092 2.68119 2.66653 
28 1 7.62175 4.45495 2.66236 
29 1 7.6226 2.67343 4.45164 
30 1 9.40462 4.45302 4.45119 
36 1 6.03374 1.09469 6.03745 
37 1 6.92297 0.207212 6.93049 
38 1 5.14515 0.198451 5.14578 
39 1 5.14792 1.98083 6.93683 
40 1 6.92889 1.98248 5.14598 
21 1 6.03657 6.03732 1.07749 
22 1 5.14738 6.92974 1.96879 
23 1 6.92846 5.14744 1.9688 
24 1 5.14839 5.14849 0.180953 
25 1 6.92783 6.92934 0.183131 
41 2 9.65998 9.81008 1.24886 
6 1 8.52158 8.52307 8.52322 
7 1 9.36504 9.36302 9.33828 
8 1 7.61866 7.62027 9.43629 
9 1 7.61439 9.41931 7.62426 
10 1 9.41663 7.61645 7.62379 
ITEM: TIMESTEP
110
ITEM: NUMBER OF ATOMS
41
ITEM: BOX BOUNDS pp pp pp
2.0204080138592397e-03 9.8959795919861548e+00
-1.7547355297999417e-03 9.8997547355297915e+00
-2.5294308693781076e-02 9.9232943086937553e+00
ITEM: ATOMS id type x y z 
1 1 1.1904 1.18517 1.13978 
2 1 0.101538 0.11371 0.213545 
3 1 2.00598 2.00257 0.196545 
4 1 0.24926 2.01301 1.98096 
5 1 2.01327 0.241501 1.97976 
11 1 3.56703 3.56582 8.5304 
12 1 2.68787 2.68649 9.4164 
13 1 4.45839 4.45787 9.43103 
14 1 4.45714 2.6722 7.63347 
15 1 2.67407 4.45649 7.63342 
16 1 3.56215 8.51529 3.5538 
17 1 2.68264 9.41102 2.66691 
18 1 4.45535 7.62321 2.66171 
19 1 4.45347 9.40774 4.45103 
20 1 2.67529 7.62409 4.45131 
31 1 1.09815 6.03369 6.03703 
32 1 0.202197 5.1448 5.14532 
33 1 1.98499 6.92988 5.1457 
34 1 0.211828 6.92363 6.9301 
35 1 1.98356 5.14757 6.93682 
26 1 8.51256 3.56096 3.55361 
27 1 9.4101 2.68236 2.66641 
28 1 7.62131 4.4548 2.66172 
29 1 7.6222 2.67354 4.45117 
30 1 9.40418 4.45287 4.4508 
36 1 6.03331 1.09514 6.03722 
37 1 6.92236 0.207741 6.9305 
38 1 5.14489 0.198799 5.14546 
39 1 5.14776 1.98115 6.93693 
40 1 6.92859 1.9827 5.14569 
21 1 6.03651 6.03731 1.07696 
22 1 5.14739 6.92948 1.96819 
23 1 6.92812 5.14739 1.96816 
24 1 5.14853 5.14868 0.179839 
25 1 6.92775 6.92927 0.181989 
41 2 9.65607 9.80646 1.25045 
6 1 8.52089 8.52228 8.52273 
7 1 9.36389 9.36209 9.34002 
8 1 7.61829 7.61993 9.43684 
9 1 7.61393 9.41898 7.62387 
10 1 9.41628 7.61599 7.62345 
ITEM: TIMESTEP
120
ITEM: NUMBER OF ATOMS
41
ITEM: BOX BOUNDS pp pp pp
2.3828750843759459e-03 9.8956171249156419e+00
-1.5356787195632106e-03 9.8995356787195554e+00
-2.6226685165068046e-02 9.9242266851650403e+00
ITEM: ATOMS id type x y z 
1 1 1.19159 1.1862 1.13942 
2 1 0.0984025 0.111603 0.216276 
3 1 2.0074 2.00384 0.196523 
4 1 0.251923 2.01472 1.98132 
5 1 2.01506 0.243824 1.98003 
11 1 3.56747 3.56621 8.53079 
12 1 2.68891 2.6874 9.41753 
13 1 4.45876 4.45823 9.43169 
14 1 4.45719 2.67247 7.63365 
15 1 2.67442 4.45652 7.63361 
16 1 3.56223 8.51499 3.55332 
17 1 2.68391 9.41216 2.66696 
18 1 4.45523 7.62283 2.66119 
19 1 4.45334 9.40753 4.45065 
20 1 2.67545 7.62377 4.45084 
31 1 1.09869 6.03324 6.03669 
32 1 0.202635 5.1445 5.14494 
33 1 1.98528 6.92959 5.14534 
34 1 0.212423 6.92305 6.9298 
35 1 1.98397 5.14738 6.93676 
26 1 8.5122 3.561 3.55309 
27 1 9.41132 2.68368 2.66645 
28 1 7.62089 4.45464 2.66116 
29 1 7.62182 2.67362 4.45067 
30 1 9.40382 4.4527 4.45041 
36 1 6.03286 1.09556 6.03691 
37 1 6.92179 0.208154 6.93034 
38 1 5.1446 0.199126 5.14509 
39 1 5.1476 1.98147 6.93686 
40 1 6.92827 1.98289 5.14533 
21 1 6.03663 6.03739 1.07658 
22 1 5.14733 6.92927 1.96757 
23 1 6.92779 5.14733 1.96761 
24 1 5.14857 5.14874 0.179222 
25 1 6.9276 6.92926 0.180853 
41 2 9.6517 9.80237 1.25265 
6 1 8.52027 8.52151 8.522 
7 1 9.36263 9.3611 9.34181 
8 1 7.61803 7.61959 9.43714 
9 1 7.61352 9.41869 7.62331 
10 1 9.41597 7.61554 7.62288 
ITEM: TIMESTEP
130
ITEM: NUMBER OF ATOMS
41
ITEM: BOX BOUNDS pp pp pp
2.6934398492155860e-03 9.8953065601508037e+00
-1.3381180340918937e-03 9.8993381180340858e+00
-2.7021423656941202e-02 9.9250214236569132e+00
ITEM: ATOMS id type x y z 
1 1 1.19264 1.1871 1.13909 
2 1 0.0950802 0.109389 0.2194 
3 1 2.00879 2.00509 0.196647 
4 1 0.254643 2.01642 1.98177 
5 1 2.01682 0.246222 1.98039 
11 1 3.56803 3.5667 8.53095 
12 1 2.68997 2.68833 9.41862 
13 1 4.45892 4.45842 9.43266 
14 1 4.45727 2.67276 7.63374 
15 1 2.67478 4.45655 7.63371 
16 1 3.56231 8.5147 3.55291 
17 1 2.68525 9.41347 2.66707 
18 1 4.45502 7.62254 2.66057 
19 1 4.45321 9.40735 4.45028 
20 1 2.67559 7.62344 4.45034 
31 1 1.09919 6.03277 6.03628 
32 1 0.203045 5.14419 5.14453 
33 1 1.98554 6.92928 5.14494 
34 1 0.21292 6.92251 6.92941 
35 1 1.98438 5.14718 6.93659 
26 1 8.51186 3.56103 3.55262 
27 1 9.41275 2.68509 2.66656 
28 1 7.62053 4.4544 2.66055 
29 1 7.62144 2.67367 4.45016 
30 1 9.40352 4.45253 4.45001 
36 1 6.03241 1.09595 6.03655 
37 1 6.92127 0.208482 6.93009 
38 1 5.14432 0.199456 5.1447 
39 1 5.14742 1.9818 6.93667 
40 1 6.92794 1.98306 5.14494 
21 1 6.03661 6.03738 1.07621 
22 1 5.14744 6.92905 1.9672 
23 1 6.92755 5.1474 1.96719 
24 1 5.1488 5.14903 0.178368 
25 1 6.92759 6.92926 0.179844 
41 2 9.64712 9.79807 1.25523 
6 1 8.51972 8.5208 8.5212 
7 1 9.36131 9.36011 9.34367 
8 1 7.61774 7.6193 9.43716 
9 1 7.61316 9.41838 7.62268 
10 1 9.41568 7.61511 7.62224 
ITEM: TIMESTEP
140
ITEM: NUMBER OF ATOMS
41
ITEM: BOX BOUNDS pp pp pp
3.0223406446356128e-03 9.8949776593553871e+00
-1.1430233307509253e-03 9.8991430233307440e+00
-2.7715759003696307e-02 9.9257157590036673e+00
ITEM: ATOMS id type x y z 
1 1 1.19351 1.18784 1.13875 
2 1 0.0920458 0.107361 0.222482 
3 1 2.01002 2.00616 0.196818 
4 1 0.257239 2.01792 1.98217 
5 1 2.0184 0.248492 1.98069 
11 1 3.56838 3.56719 8.53128 
12 1 2.69095 2.68917 9.41969 
13 1 4.45948 4.45861 9.43311 
14 1 4.45734 2.67305 7.63379 
15 1 2.67515 4.4566 7.63378 
16 1 3.5624 8.51447 3.55248 
17 1 2.68653 9.41478 2.66717 
18 1 4.45495 7.62222 2.66019 
19 1 4.4531 9.40717 4.44993 
20 1 2.67575 7.62312 4.44987 
31 1 1.09967 6.03233 6.03588 
32 1 0.203476 5.14391 5.14415 
33 1 1.9858 6.92897 5.14455 
34 1 0.213371 6.92204 6.929 
35 1 1.9848 5.14699 6.93639 
26 1 8.51156 3.56107 3.55217 
27 1 9.41415 2.68642 2.66665 
28 1 7.62014 4.45428 2.66013 
29 1 7.62106 2.67373 4.44966 
30 1 9.4032 4.45235 4.44964 
36 1 6.032 1.0963 6.03621 
37 1 6.92083 0.208739 6.9298 
38 1 5.14407 0.19979 5.14435 
39 1 5.14726 1.98213 6.93647 
40 1 6.9276 1.98321 5.14455 
21 1 6.03669 6.03752 1.07604 
22 1 5.14732 6.92886 1.96662 
23 1 6.92733 5.1473 1.96662 
24 1 5.14895 5.14924 0.177792 
25 1 6.92748 6.92929 0.178808 
41 2 9.64277 9.79401 1.2578 
6 1 8.51922 8.52019 8.52049 
7 1 9.35999 9.35919 9.34554 
8 1 7.6175 7.61901 9.4371 
9 1 7.61282 9.41806 7.62212 
10 1 9.41535 7.61473 7.62165 
ITEM: TIMESTEP
150
ITEM: NUMBER OF ATOMS
41
ITEM: BOX BOUNDS pp pp pp
3.3882028505400220e-03 9.8946117971494854e+00
-9.4466002150364364e-04 9.8989446600214954e+00
-2.8298446004928930e-02 9.9262984460048962e+00
ITEM: ATOMS id type x y z 
1 1 1.19421 1.18838 1.13841 
2 1 0.0895973 0.105711 0.225194 
3 1 2.01103 2.00702 0.196979 
4 1 0.259534 2.01913 1.98246 
5 1 2.01971 0.25046 1.9809 
11 1 3.5689 3.56746 8.53155 
12 1 2.69178 2.68987 9.42067 
13 1 4.45961 4.45913 9.4335 
14 1 4.45741 2.67333 7.63384 
15 1 2.67551 4.45663 7.63384 
16 1 3.56251 8.51426 3.55212 
17 1 2.68764 9.41593 2.66722 
18 1 4.45482 7.62201 2.65971 
19 1 4.453 9.407 4.44964 
20 1 2.67592 7.62284 4.44945 
31 1 1.10013 6.03195 6.03555 
32 1 0.203927 5.14367 5.14383 
33 1 1.98608 6.92868 5.14419 
34 1 0.213802 6.92166 6.92864 
35 1 1.98524 5.14682 6.93621 
26 1 8.51126 3.56111 3.55179 
27 1 9.41532 2.68755 2.66671 
28 1 7.61987 4.45412 2.65963 
29 1 7.62069 2.67379 4.44923 
30 1 9.40285 4.4522 4.44933 
36 1 6.03164 1.09659 6.03593 
37 1 6.92046 0.208949 6.92954 
38 1 5.14386 0.20011 5.14405 
39 1 5.14711 1.98244 6.93628 
40 1 6.92726 1.98335 5.14421 
21 1 6.03671 6.03761 1.07564 
22 1 5.14736 6.92864 1.96634 
23 1 6.92704 5.14732 1.96632 
24 1 5.14925 5.14925 0.177321 
25 1 6.92741 6.92929 0.177941 
41 2 9.639 9.79054 1.26008 
6 1 8.51878 8.51971 8.51996 
7 1 9.35877 9.35839 9.34725 
8 1 7.61723 7.61876 9.43696 
9 1 7.61251 9.41774 7.62168 
10 1 9.41499 7.6144 7.62118 
ITEM: TIMESTEP
160
ITEM: NUMBER OF ATOMS
41
ITEM: BOX BOUNDS pp pp pp
3.7765280083004002e-03 9.8942234719917259e+00
-7.1021182360240425e-04 9.8987102118235963e+00
-2.8963382262126067e-02 9.9269633822620928e+00
ITEM: ATOMS id type x y z 
1 1 1.19487 1.1889 1.13796 
2 1 0.0869172 0.103942 0.228268 
3 1 2.01206 2.00789 0.197142 
4 1 0.262054 2.02039 1.98273 
5 1 2.02106 0.252652 1.98107 
11 1 3.5694 3.56787 8.53183 
12 1 2.69267 2.6906 9.42185 
13 1 4.45992 4.45932 9.43413 
14 1 4.4575 2.67367 7.63391 
15 1 2.67594 4.45666 7.63392 
16 1 3.56259 8.5141 3.55164 
17 1 2.68887 9.41726 2.66723 
18 1 4.4548 7.62173 2.65932 
19 1 4.45289 9.40681 4.44931 
20 1 2.6761 7.62252 4.44897 
31 1 1.10061 6.03154 6.03519 
32 1 0.20441 5.14341 5.14348 
33 1 1.98637 6.92834 5.14378 
34 1 0.214237 6.92127 6.92824 
35 1 1.98571 5.14662 6.93602 
26 1 8.51103 3.56115 3.55128 
27 1 9.4167 2.68882 2.66672 
28 1 7.6195 4.45403 2.65922 
29 1 7.6203 2.67385 4.44874 
30 1 9.40249 4.45202 4.44897 
36 1 6.03126 1.09692 6.03564 
37 1 6.92009 0.209161 6.92924 
38 1 5.14363 0.200478 5.14374 
39 1 5.14694 1.98281 6.93606 
40 1 6.92689 1.98353 5.14381 
21 1 6.03691 6.03769 1.07521 
22 1 5.14728 6.92837 1.96589 
23 1 6.92673 5.14725 1.96588 
24 1 5.1494 5.14966 0.176564 
25 1 6.92733 6.9293 0.176908 
41 2 9.63487 9.78671 1.26267 
6 1 8.51835 8.51921 8.51945 
7 1 9.3574 9.35752 9.34929 
8 1 7.61694 7.61848 9.43678 
9 1 7.61219 9.41738 7.62124 
10 1 9.4146 7.61406 7.6207 
ITEM: TIMESTEP
170
ITEM: NUMBER OF ATOMS
41
ITEM: BOX BOUNDS pp pp pp
4.2077330146668866e-03 9.8937922669853613e+00
-4.2675449926928108e-04 9.8984267544992619e+00
-2.9590412678736300e-02 9.9275904126787022e+00
ITEM: ATOMS id type x y z 
1 1 1.19545 1.18936 1.13748 
2 1 0.0843343 0.102271 0.231458 
3 1 2.01304 2.00872 0.197332 
4 1 0.264586 2.0216 1.98297 
5 1 2.02236 0.254869 1.98121 
11 1 3.56981 3.56833 8.53215 
12 1 2.69353 2.69131 9.42306 
13 1 4.46028 4.45961 9.4346 
14 1 4.45759 2.67404 7.63396 
15 1 2.6764 4.45668 7.63398 
16 1 3.56268 8.51384 3.55124 
17 1 2.69009 9.41859 2.66722 
18 1 4.45476 7.62156 2.65883 
19 1 4.45278 9.40658 4.44898 
20 1 2.67629 7.62219 4.44846 
31 1 1.10112 6.03112 6.03482 
32 1 0.204936 5.14314 5.14314 
33 1 1.9867 6.92796 5.14334 
34 1 0.214689 6.92089 6.92782 
35 1 1.98623 5.14641 6.9358 
26 1 8.51069 3.56116 3.55087 
27 1 9.41809 2.69009 2.66671 
28 1 7.61926 4.45391 2.65866 
29 1 7.61988 2.67393 4.44823 
30 1 9.40209 4.45185 4.44861 
36 1 6.03089 1.09726 6.03535 
37 1 6.91974 0.209391 6.92892 
38 1 5.14341 0.200887 5.14342 
39 1 5.14678 1.98322 6.93584 
40 1 6.92648 1.98372 5.1434 
21 1 6.03687 6.03776 1.07486 
22 1 5.14726 6.92817 1.96543 
23 1 6.92655 5.1473 1.96542 
24 1 5.14973 5.1498 0.175943 
25 1 6.9272 6.9293 0.175856 
41 2 9.63074 9.78287 1.26536 
6 1 8.51794 8.51874 8.519 
7 1 9.35599 9.35662 9.35141 
8 1 7.61663 7.61818 9.43653 
9 1 7.61187 9.41697 7.62081 
10 1 9.41417 7.6137 7.62024 
ITEM: TIMESTEP
180
ITEM: NUMBER OF ATOMS
41
ITEM: BOX BOUNDS pp pp pp
4.6969512934457837e-03 9.8933030487065849e+00
-1.1694136513991019e-04 9.8981169413651333e+00
-3.0277762436777541e-02 9.9282777624367409e+00
ITEM: ATOMS id type x y z 
1 1 1.196 1.18976 1.13688 
2 1 0.0814516 0.100409 0.2352 
3 1 2.01407 2.00958 0.197542 
4 1 0.267411 2.02287 1.98324 
5 1 2.02375 0.257329 1.98136 
11 1 3.5703 3.56882 8.53249 
12 1 2.69447 2.69208 9.42447 
13 1 4.46075 4.45985 9.43511 
14 1 4.45767 2.67448 7.634 
15 1 2.67694 4.45671 7.63405 
16 1 3.56281 8.51366 3.55077 
17 1 2.69148 9.42015 2.6672 
18 1 4.45458 7.62131 2.65823 
19 1 4.45264 9.40632 4.44861 
20 1 2.67651 7.6218 4.44788 
31 1 1.10167 6.03066 6.03441 
32 1 0.205534 5.14285 5.14275 
33 1 1.98707 6.92754 5.14284 
34 1 0.215179 6.92051 6.92732 
35 1 1.98684 5.14617 6.93554 
26 1 8.51035 3.56119 3.55042 
27 1 9.4197 2.69154 2.66668 
28 1 7.61902 4.45377 2.658 
29 1 7.61942 2.67401 4.44763 
30 1 9.40165 4.45163 4.4482 
36 1 6.03048 1.09763 6.03503 
37 1 6.91938 0.209614 6.92852 
38 1 5.14316 0.201344 5.14307 
39 1 5.14659 1.98369 6.93558 
40 1 6.92602 1.98392 5.14291 
21 1 6.03693 6.03787 1.07432 
22 1 5.14737 6.92811 1.96493 
23 1 6.92639 5.14732 1.96487 
24 1 5.14991 5.15003 0.17536 
25 1 6.92705 6.92928 0.17468 
41 2 9.6261 9.77857 1.26854 
6 1 8.51753 8.51828 8.51855 
7 1 9.35435 9.35562 9.35394 
8 1 7.61626 7.61784 9.43619 
9 1 7.61153 9.41652 7.62036 
10 1 9.4137 7.61334 7.61975 
ITEM: TIMESTEP
190
ITEM: NUMBER OF ATOMS
41
ITEM: BOX BOUNDS pp pp pp
5.2069368432808953e-03 9.8927930631567520e+00
1.9954980148025617e-04 9.8978004501985151e+00
-3.0880257079011646e-02 9.9288802570789727e+00
ITEM: ATOMS id type x y z 
1 1 1.19645 1.19006 1.13626 
2 1 0.0786005 0.0985754 0.239171 
3 1 2.01503 2.01037 0.197797 
4 1 0.270213 2.02406 1.98353 
5 1 2.02508 0.259759 1.98152 
11 1 3.57084 3.56915 8.53289 
12 1 2.69539 2.69283 9.42585 
13 1 4.46107 4.46032 9.43543 
14 1 4.45776 2.67494 7.63401 
15 1 2.67751 4.45673 7.63406 
16 1 3.5629 8.51353 3.55026 
17 1 2.69289 9.42175 2.66718 
18 1 4.45458 7.62111 2.65776 
19 1 4.4525 9.40608 4.44824 
20 1 2.67672 7.62143 4.44728 
31 1 1.10224 6.0302 6.03398 
32 1 0.206145 5.14255 5.14236 
33 1 1.98745 6.92709 5.14229 
34 1 0.215671 6.92016 6.92677 
35 1 1.98747 5.14592 6.93525 
26 1 8.51011 3.56113 3.54982 
27 1 9.42133 2.69302 2.66666 
28 1 7.61873 4.45381 2.65762 
29 1 7.61896 2.67405 4.44702 
30 1 9.4012 4.4514 4.4478 
36 1 6.03007 1.09798 6.03469 
37 1 6.91906 0.209818 6.92807 
38 1 5.14292 0.201797 5.14272 
39 1 5.14639 1.98418 6.93528 
40 1 6.92553 1.98413 5.1424 
21 1 6.03706 6.03797 1.0738 