ITEM: TIMESTEP
0
ITEM: NUMBER OF ATOMS
146
ITEM: BOX BOUNDS pp pp pp
0.0000000000000000e+00 2.1884000000000000e+01
0.0000000000000000e+00 2.1885999999999999e+01
0.0000000000000000e+00 2.1885000000000002e+01
ITEM: ATOMS id type x y z 
9 1 8.524 12.547 12.547 
10 1 1.604 19.466 19.466 
11 1 1.605 19.466 12.547 
12 1 8.524 12.547 19.466 
13 1 1.605 12.547 19.466 
14 1 8.524 19.467 12.547 
15 1 8.524 19.467 19.466 
16 1 1.605 12.547 12.547 
25 1 10.105 10.965 10.965 
26 1 0.023 21.047 21.049 
27 1 0.023 21.047 10.964 
28 1 10.106 10.965 21.047 
29 1 0.023 10.966 21.048 
30 1 10.106 21.049 10.966 
31 1 10.106 21.048 21.049 
32 1 0.024 10.965 10.965 
57 1 5.811 12.218 12.218 
58 1 4.317 19.796 19.795 
59 1 4.318 19.795 12.218 
60 1 5.811 12.219 19.795 
61 1 4.318 12.218 19.795 
62 1 5.811 19.795 12.218 
63 1 5.811 19.796 19.795 
64 1 4.318 12.218 12.218 
65 1 8.853 15.26 12.218 
66 1 1.276 16.754 19.795 
67 1 8.853 16.754 19.795 
68 1 1.276 15.26 12.218 
69 1 1.276 16.754 12.218 
70 1 8.853 15.26 19.796 
71 1 1.276 15.26 19.795 
72 1 8.853 16.753 12.218 
73 1 8.853 12.219 15.26 
74 1 1.276 19.795 16.753 
75 1 1.276 12.218 16.754 
76 1 8.853 19.796 15.26 
77 1 8.853 19.796 16.753 
78 1 1.276 12.218 15.26 
79 1 1.276 19.795 15.26 
80 1 8.853 12.219 16.754 
105 1 7.01 12.317 12.317 
106 1 3.118 19.696 19.696 
107 1 3.119 19.696 12.317 
108 1 7.011 12.317 19.696 
109 1 3.119 12.317 19.696 
110 1 7.01 19.696 12.317 
111 1 7.01 19.697 19.696 
112 1 3.118 12.317 12.317 
113 1 8.754 14.061 12.317 
114 1 1.375 17.953 19.696 
115 1 8.754 17.953 19.696 
116 1 1.375 14.061 12.317 
117 1 1.375 17.953 12.317 
118 1 8.754 14.061 19.696 
119 1 1.375 14.061 19.696 
120 1 8.754 17.953 12.317 
121 1 8.754 12.317 14.061 
122 1 1.375 19.696 17.952 
123 1 1.375 12.317 17.953 
124 1 8.754 19.697 14.061 
125 1 8.754 19.697 17.952 
126 1 1.375 12.317 14.061 
127 1 1.375 19.696 14.061 
128 1 8.754 12.318 17.953 
137 1 9.407 11.664 11.664 
138 1 0.721 20.349 20.35 
139 1 0.721 20.349 11.663 
140 1 9.408 11.664 20.349 
141 1 0.721 11.664 20.35 
142 1 9.407 20.35 11.664 
143 1 9.407 20.35 20.35 
144 1 0.722 11.664 11.663 
1 1 19.466 1.604 1.604 
2 1 12.547 8.524 8.524 
3 1 12.546 8.524 1.604 
4 1 19.466 1.605 8.524 
5 1 12.547 1.604 8.524 
6 1 19.466 8.524 1.605 
7 1 19.466 8.524 8.524 
8 1 12.547 1.604 1.605 
17 1 21.048 0.023 0.022 
18 1 10.965 10.106 10.106 
19 1 10.965 10.106 0.024 
20 1 21.048 0.024 10.107 
21 1 10.965 0.022 10.105 
22 1 21.048 10.105 0.023 
23 1 21.047 10.106 10.106 
24 1 10.965 0.023 0.022 
33 1 16.753 1.275 1.276 
34 1 15.26 8.853 8.853 
35 1 15.26 8.852 1.276 
36 1 16.753 1.275 8.853 
37 1 15.26 1.275 8.853 
38 1 16.753 8.852 1.276 
39 1 16.753 8.853 8.853 
40 1 15.26 1.275 1.276 
41 1 19.795 4.317 1.276 
42 1 12.218 5.811 8.853 
43 1 19.795 5.811 8.853 
44 1 12.218 4.317 1.276 
45 1 12.218 5.811 1.275 
46 1 19.795 4.317 8.853 
47 1 12.218 4.317 8.853 
48 1 19.795 5.811 1.276 
49 1 19.795 1.275 4.317 
50 1 12.218 8.852 5.811 
51 1 12.218 1.276 5.811 
52 1 19.795 8.853 4.318 
53 1 19.795 8.853 5.811 
54 1 12.218 1.275 4.318 
55 1 12.218 8.852 4.317 
56 1 19.795 1.275 5.811 
81 1 17.952 1.374 1.375 
82 1 14.061 8.754 8.754 
83 1 14.06 8.753 1.375 
84 1 17.952 1.374 8.754 
85 1 14.06 1.374 8.754 
86 1 17.952 8.754 1.375 
87 1 17.952 8.754 8.754 
88 1 14.061 1.374 1.375 
89 1 19.696 3.118 1.375 
90 1 12.317 7.01 8.754 
91 1 19.696 7.01 8.754 
92 1 12.317 3.118 1.375 
93 1 12.317 7.01 1.374 
94 1 19.695 3.118 8.754 
95 1 12.317 3.118 8.754 
96 1 19.696 7.01 1.375 
97 1 19.696 1.374 3.118 
98 1 12.317 8.754 7.01 
99 1 12.317 1.375 7.01 
100 1 19.696 8.754 3.118 
101 1 19.696 8.754 7.01 
102 1 12.317 1.374 3.119 
103 1 12.317 8.753 3.118 
104 1 19.696 1.374 7.01 
129 1 20.35 0.722 0.721 
130 1 11.664 9.407 9.407 
131 1 11.663 9.407 0.722 
132 1 20.35 0.722 9.408 
133 1 11.663 0.72 9.407 
134 1 20.35 9.407 0.721 
135 1 20.349 9.407 9.407 
136 1 11.664 0.721 0.721 
145 2 17.952 8.754 10.104 
146 3 17.952 8.754 11.08 
ITEM: TIMESTEP
10
ITEM: NUMBER OF ATOMS
146
ITEM: BOX BOUNDS pp pp pp
0.0000000000000000e+00 2.1884000000000000e+01
0.0000000000000000e+00 2.1885999999999999e+01
0.0000000000000000e+00 2.1885000000000002e+01
ITEM: ATOMS id type x y z 
9 1 8.51056 12.5599 12.5601 
10 1 1.61776 19.4538 19.453 
11 1 1.61811 19.4534 12.5596 
12 1 8.51141 12.5607 19.4533 
13 1 1.61799 12.5602 19.4534 
14 1 8.5112 19.4536 12.5604 
15 1 8.51111 19.4536 19.4532 
16 1 1.61774 12.5603 12.5599 
25 1 10.1059 10.9641 10.9641 
26 1 0.0212513 21.0496 21.0504 
27 1 0.0213687 21.0491 10.9623 
28 1 10.1083 10.9634 21.0491 
29 1 0.021489 10.964 21.0493 
30 1 10.1073 21.0505 10.9645 
31 1 10.1076 21.0496 21.0502 
32 1 0.0206862 10.9624 10.9617 
57 1 5.81543 12.2204 12.2204 
58 1 4.31278 19.7932 19.7927 
59 1 4.31342 19.7925 12.2204 
60 1 5.81597 12.221 19.7924 
61 1 4.31349 12.2206 19.7926 
62 1 5.81551 19.7926 12.2204 
63 1 5.81547 19.7936 19.7925 
64 1 4.31308 12.2204 12.2205 
65 1 8.85056 15.2557 12.2204 
66 1 1.27847 16.7578 19.7926 
67 1 8.85049 16.7585 19.7927 
68 1 1.27844 15.2557 12.2205 
69 1 1.27843 16.7579 12.2204 
70 1 8.8507 15.2553 19.793 
71 1 1.27842 15.2556 19.7925 
72 1 8.85054 16.758 12.2205 
73 1 8.85044 12.2212 15.2555 
74 1 1.27842 19.7926 16.7575 
75 1 1.27843 12.2204 16.758 
76 1 8.85053 19.7936 15.2555 
77 1 8.85057 19.7935 16.7577 
78 1 1.27848 12.2205 15.2554 
79 1 1.27837 19.7926 15.2553 
80 1 8.85066 12.2215 16.7577 
105 1 7.00455 12.3171 12.3171 
106 1 3.12396 19.6963 19.6959 
107 1 3.12444 19.696 12.317 
108 1 7.00484 12.3172 19.6963 
109 1 3.12415 12.317 19.696 
110 1 7.00457 19.6961 12.3171 
111 1 7.00426 19.697 19.6959 
112 1 3.12416 12.3171 12.317 
113 1 8.75397 14.0666 12.3171 
114 1 1.3748 17.9469 19.696 
115 1 8.75388 17.9477 19.6958 
116 1 1.37511 14.0665 12.3171 
117 1 1.37498 17.9469 12.317 
118 1 8.75395 14.067 19.6964 
119 1 1.37506 14.0666 19.6959 
120 1 8.754 17.947 12.317 
121 1 8.75405 12.3173 14.0666 
122 1 1.37479 19.696 17.9468 
123 1 1.37498 12.317 17.9469 
124 1 8.75389 19.6969 14.0665 
125 1 8.75393 19.697 17.9467 
126 1 1.37509 12.3171 14.0665 
127 1 1.37497 19.696 14.0662 
128 1 8.75414 12.3177 17.947 
137 1 9.4126 11.6586 11.6589 
138 1 0.715128 20.354 20.356 
139 1 0.715342 20.3549 11.658 
140 1 9.41319 11.6576 20.3554 
141 1 0.715291 11.6583 20.3564 
142 1 9.41323 20.3559 11.6575 
143 1 9.41227 20.3559 20.3556 
144 1 0.714836 11.6564 11.657 
1 1 19.4533 1.61745 1.61734 
2 1 12.5632 8.50854 8.50921 
3 1 12.5597 8.51044 1.61672 
4 1 19.4532 1.62081 8.51121 
5 1 12.5597 1.61647 8.51118 
6 1 19.453 8.51111 1.62077 
7 1 19.56 8.48576 8.47574 
8 1 12.5596 1.61741 1.61794 
17 1 21.0503 0.0213602 0.0204993 
18 1 10.9623 10.1078 10.1074 
19 1 10.9632 10.1081 0.021974 
20 1 21.0495 0.0218524 10.1087 
21 1 10.9636 0.0206977 10.1071 
22 1 21.0491 10.1066 0.0210501 
23 1 21.0446 10.1061 10.106 
24 1 10.9633 0.0213663 0.0207873 
33 1 16.7576 1.2774 1.2785 
34 1 15.2754 8.86681 8.84878 
35 1 15.2552 8.84955 1.27848 
36 1 16.7576 1.27738 8.85043 
37 1 15.2557 1.27745 8.85063 
38 1 16.7579 8.84973 1.27847 
39 1 16.6738 8.79229 8.79865 
40 1 15.2554 1.27744 1.27843 
41 1 19.7926 4.31289 1.27852 
42 1 12.2198 5.81718 8.8496 
43 1 19.7873 5.81286 8.85412 
44 1 12.2205 4.31267 1.27829 
45 1 12.2204 5.81538 1.27764 
46 1 19.7928 4.31268 8.84996 
47 1 12.2206 4.31242 8.85082 
48 1 19.7924 5.81535 1.27839 
49 1 19.7926 1.27744 4.31265 
50 1 12.2199 8.84887 5.81776 
51 1 12.2204 1.27838 5.81563 
52 1 19.7931 8.84993 4.31471 
53 1 19.7881 8.85421 5.80681 
54 1 12.2204 1.27759 4.31331 
55 1 12.2206 8.84972 4.31223 
56 1 19.7924 1.27742 5.81584 
81 1 17.9465 1.37407 1.37484 
82 1 14.063 8.75802 8.75188 
83 1 14.0657 8.75325 1.37472 
84 1 17.9465 1.37408 8.75413 
85 1 14.0662 1.37388 8.75407 
86 1 17.9471 8.75353 1.37495 
87 1 17.8959 8.82547 8.75089 
88 1 14.0665 1.37405 1.37504 
89 1 19.696 3.1238 1.37488 
90 1 12.3127 7.00482 8.75173 
91 1 19.703 7.00766 8.75071 
92 1 12.3171 3.12348 1.37514 
93 1 12.3167 7.00401 1.37393 
94 1 19.6953 3.12401 8.75332 
95 1 12.3168 3.12411 8.75418 
96 1 19.6958 7.0047 1.37506 
97 1 19.696 1.37402 3.1237 
98 1 12.3126 8.75135 7.00517 
99 1 12.317 1.37489 7.00429 
100 1 19.6958 8.75344 3.12342 
101 1 19.7027 8.75013 7.0102 
102 1 12.3171 1.37396 3.12434 
103 1 12.3167 8.75328 3.12424 
104 1 19.696 1.3742 7.00464 
129 1 20.3547 0.71544 0.715246 
130 1 11.6526 9.41295 9.4132 
131 1 11.6569 9.41271 0.715337 
132 1 20.3554 0.716245 9.41291 
133 1 11.6571 0.713919 9.41232 
134 1 20.3563 9.41324 0.715682 
135 1 20.3575 9.40619 9.4054 
136 1 11.6587 0.71504 0.715278 
145 2 17.9699 8.75823 10.1506 
146 3 17.9581 8.75137 11.1391 
ITEM: TIMESTEP
20
ITEM: NUMBER OF ATOMS
146
ITEM: BOX BOUNDS pp pp pp
0.0000000000000000e+00 2.1884000000000000e+01
0.0000000000000000e+00 2.1885999999999999e+01
0.0000000000000000e+00 2.1885000000000002e+01
ITEM: ATOMS id type x y z 
9 1 8.50963 12.5614 12.5615 
10 1 1.61837 19.4523 19.4523 
11 1 1.61872 19.4523 12.5608 
12 1 8.5103 12.5612 19.4525 
13 1 1.61885 12.5612 19.4525 
14 1 8.5101 19.4525 12.561 
15 1 8.50981 19.453 19.4522 
16 1 1.61776 12.5599 12.56 
25 1 10.1029 10.9675 10.9675 
26 1 0.0236153 21.047 21.0479 
27 1 0.0236159 21.0468 10.9652 
28 1 10.1053 10.966 21.0466 
29 1 0.0239822 10.9666 21.0471 
30 1 10.1048 21.0479 10.9666 
31 1 10.105 21.0475 21.0478 
32 1 0.0208179 10.963 10.9629 
57 1 5.81571 12.221 12.221 
58 1 4.31241 19.7927 19.7921 
59 1 4.3127 19.792 12.2209 
60 1 5.81643 12.2215 19.7919 
61 1 4.31284 12.2211 19.792 
62 1 5.81629 19.792 12.221 
63 1 5.816 19.793 19.792 
64 1 4.31205 12.2211 12.2211 
65 1 8.85005 15.2551 12.221 
66 1 1.27897 16.7586 19.7921 
67 1 8.84996 16.7589 19.7921 
68 1 1.27909 15.2545 12.2211 
69 1 1.27897 16.7584 12.221 
70 1 8.85009 15.2554 19.7925 
71 1 1.27897 15.255 19.792 
72 1 8.84999 16.7587 12.221 
73 1 8.85 12.2217 15.2551 
74 1 1.27891 19.792 16.7582 
75 1 1.27899 12.221 16.7584 
76 1 8.84998 19.7931 15.2548 
77 1 8.85 19.793 16.7584 
78 1 1.27911 12.2211 15.2545 
79 1 1.27894 19.792 15.2546 
80 1 8.85007 12.222 16.7586 
105 1 7.0049 12.3185 12.3185 
106 1 3.12323 19.695 19.6946 
107 1 3.12347 19.6946 12.3184 
108 1 7.00564 12.3187 19.6948 
109 1 3.12362 12.3185 19.6946 
110 1 7.00556 19.6947 12.3186 
111 1 7.00523 19.6955 19.6945 
112 1 3.12286 12.3185 12.3185 
113 1 8.75251 14.0659 12.3185 
114 1 1.37631 17.9479 19.6946 
115 1 8.75245 17.9481 19.6945 
116 1 1.37651 14.0654 12.3185 
117 1 1.37643 17.9476 12.3184 
118 1 8.75263 14.0663 19.695 
119 1 1.3765 14.0657 19.6945 
120 1 8.75258 17.9479 12.3185 
121 1 8.75255 12.3188 14.0659 
122 1 1.37622 19.6947 17.9474 
123 1 1.37637 12.3184 17.9475 
124 1 8.75249 19.6955 14.0656 
125 1 8.75252 19.6955 17.9476 
126 1 1.37651 12.3186 14.0653 
127 1 1.37642 19.6946 14.0654 
128 1 8.75276 12.3192 17.9478 
137 1 9.4096 11.6611 11.6612 
138 1 0.71748 20.3523 20.3537 
139 1 0.717802 20.3528 11.6596 
140 1 9.41127 11.6602 20.353 
141 1 0.717515 11.6603 20.3537 
142 1 9.41107 20.3539 11.6601 
143 1 9.41072 20.3536 20.3535 
144 1 0.71602 11.6581 11.658 
1 1 19.4522 1.61803 1.61808 
2 1 12.5584 8.50884 8.50884 
3 1 12.5601 8.50958 1.61715 
4 1 19.4524 1.62269 8.51056 
5 1 12.5607 1.61729 8.50992 
6 1 19.453 8.51083 1.62419 
7 1 19.5516 8.4889 8.48398 
8 1 12.561 1.61811 1.61877 
17 1 21.0474 0.0236937 0.0231175 
18 1 10.9628 10.1061 10.106 
19 1 10.9656 10.1053 0.0243422 
20 1 21.0469 0.0241066 10.1055 
21 1 10.9659 0.0229385 10.1045 
22 1 21.0467 10.104 0.0234594 
23 1 21.0435 10.1069 10.107 
24 1 10.966 0.0234162 0.0231629 
33 1 16.7578 1.2779 1.27897 
34 1 15.2479 8.84597 8.85059 
35 1 15.2552 8.84914 1.27904 
36 1 16.7588 1.2778 8.8498 
37 1 15.2546 1.278 8.85009 
38 1 16.7592 8.84895 1.27889 
39 1 16.6947 8.82732 8.77322 
40 1 15.2546 1.27796 1.279 
41 1 19.7921 4.31245 1.27905 
42 1 12.2187 5.81598 8.84831 
43 1 19.7837 5.80438 8.85566 
44 1 12.2211 4.31205 1.27884 
45 1 12.2208 5.81458 1.27814 
46 1 19.7915 4.31409 8.85002 
47 1 12.2212 4.31125 8.85048 
48 1 19.7917 5.81668 1.27883 
49 1 19.792 1.27797 4.31273 
50 1 12.2188 8.84755 5.81646 
51 1 12.2209 1.27889 5.81593 
52 1 19.7921 8.85018 4.31481 
53 1 19.7848 8.85548 5.80216 
54 1 12.221 1.27813 4.31265 
55 1 12.2211 8.8495 4.31242 
56 1 19.7918 1.27788 5.81664 
81 1 17.9479 1.37554 1.37627 
82 1 14.0469 8.75752 8.75126 
83 1 14.0651 8.75189 1.37598 
84 1 17.9476 1.37586 8.75263 
85 1 14.0653 1.3753 8.75266 
86 1 17.9466 8.75236 1.37653 
87 1 17.9181 8.81888 8.72108 
88 1 14.0654 1.37557 1.37649 
89 1 19.6946 3.12311 1.37625 
90 1 12.3122 7.00413 8.7502 
91 1 19.7105 7.00139 8.74841 
92 1 12.3185 3.12298 1.37653 
93 1 12.3182 7.00539 1.3753 
94 1 19.6942 3.12267 8.75101 
95 1 12.3185 3.12218 8.75293 
96 1 19.6946 7.00471 1.37663 
97 1 19.6947 1.37542 3.12289 
98 1 12.3121 8.74967 7.00465 
99 1 12.3184 1.37625 7.00555 
100 1 19.6944 8.75087 3.11963 
101 1 19.7116 8.74814 6.99729 
102 1 12.3185 1.37545 3.12339 
103 1 12.3182 8.75203 3.12206 
104 1 19.6946 1.37593 7.00531 
129 1 20.353 0.717732 0.717406 
130 1 11.652 9.41035 9.41052 
131 1 11.6597 9.41069 0.717708 
132 1 20.3534 0.718726 9.41128 
133 1 11.6596 0.716439 9.41046 
134 1 20.3537 9.41111 0.71812 
135 1 20.3644 9.40291 9.40137 
136 1 11.6602 0.71729 0.717409 
145 2 17.9706 8.76346 10.19 
146 3 17.9656 8.74676 11.1626 
ITEM: TIMESTEP
30
ITEM: NUMBER OF ATOMS
146
ITEM: BOX BOUNDS pp pp pp
0.0000000000000000e+00 2.1884000000000000e+01
0.0000000000000000e+00 2.1885999999999999e+01
0.0000000000000000e+00 2.1885000000000002e+01
ITEM: ATOMS id type x y z 
9 1 8.50724 12.5636 12.5635 
10 1 1.61938 19.4515 19.4514 
11 1 1.62013 19.4509 12.562 
12 1 8.50878 12.5629 19.4509 
13 1 1.62022 12.5625 19.4509 
14 1 8.50891 19.4514 12.5624 
15 1 8.50866 19.4516 19.4511 
16 1 1.61746 12.5603 12.5602 
25 1 10.1013 10.9692 10.9693 
26 1 0.0231896 21.0474 21.0483 
27 1 0.0235259 21.0473 10.9653 
28 1 10.1052 10.966 21.0469 
29 1 0.0244108 10.9669 21.0467 
30 1 10.1048 21.0477 10.9665 
31 1 10.1049 21.0478 21.0479 
32 1 0.0192221 10.9634 10.9634 
57 1 5.8141 12.222 12.222 
58 1 4.31543 19.7918 19.7911 
59 1 4.31317 19.7909 12.222 
60 1 5.8181 12.2227 19.7907 
61 1 4.31365 12.2222 19.7909 
62 1 5.81544 19.791 12.2221 
63 1 5.81527 19.7919 19.7909 
64 1 4.31368 12.2222 12.2221 
65 1 8.8491 15.2565 12.2219 
66 1 1.27981 16.7553 19.7912 
67 1 8.84891 16.758 19.791 
68 1 1.28034 15.2552 12.2223 
69 1 1.28017 16.7574 12.2221 
70 1 8.84877 15.254 19.7912 
71 1 1.28008 15.2557 19.7909 
72 1 8.84898 16.7583 12.222 
73 1 8.84911 12.2226 15.2567 
74 1 1.27982 19.7911 16.7554 
75 1 1.28016 12.2221 16.7573 
76 1 8.84889 19.792 15.2556 
77 1 8.84893 19.7919 16.7578 
78 1 1.28035 12.2224 15.2552 
79 1 1.28007 19.7909 15.2549 
80 1 8.84882 12.2232 16.7608 
105 1 7.00381 12.3207 12.3208 
106 1 3.12173 19.6927 19.6924 
107 1 3.12367 19.6923 12.3206 
108 1 7.00315 12.3208 19.6927 
109 1 3.12364 12.3208 19.6924 
110 1 7.00526 19.6925 12.3208 
111 1 7.00485 19.6932 19.6923 
112 1 3.12096 12.3206 12.3206 
113 1 8.75018 14.0663 12.3208 
114 1 1.37856 17.9493 19.6924 
115 1 8.75011 17.9479 19.6923 
116 1 1.37857 14.0645 12.3207 
117 1 1.37862 17.9467 12.3206 
118 1 8.75058 14.0684 19.693 
119 1 1.37876 14.066 19.6923 
120 1 8.75034 17.9479 12.3208 
121 1 8.75023 12.3211 14.0663 
122 1 1.37836 19.6925 17.9486 
123 1 1.37861 12.3207 17.9469 
124 1 8.75025 19.6931 14.0659 
125 1 8.75022 19.6932 17.9475 
126 1 1.37856 12.3207 14.0646 
127 1 1.37861 19.6924 14.066 
128 1 8.75064 12.3213 17.9457 
137 1 9.40882 11.6623 11.6619 
138 1 0.717326 20.3532 20.3539 
139 1 0.717341 20.3531 11.659 
140 1 9.41205 11.6595 20.3539 
141 1 0.717007 11.6594 20.3541 
142 1 9.41182 20.355 11.6593 
143 1 9.41164 20.3543 20.3538 
144 1 0.71551 11.6581 11.6581 
1 1 19.4507 1.61828 1.61964 
2 1 12.5491 8.50837 8.50691 
3 1 12.5611 8.50754 1.61804 
4 1 19.4521 1.62024 8.50944 
5 1 12.5624 1.61614 8.50831 
6 1 19.4511 8.50892 1.61825 
7 1 19.5492 8.48687 8.48099 
8 1 12.5626 1.61988 1.62053 
17 1 21.0475 0.02326 0.0228256 
18 1 10.9592 10.1073 10.1074 
19 1 10.9654 10.1055 0.0238436 
20 1 21.0474 0.02299 10.1056 
21 1 10.9657 0.0228439 10.1046 
22 1 21.047 10.1046 0.0227929 
23 1 21.043 10.1072 10.107 
24 1 10.966 0.0231329 0.0230712 
33 1 16.7567 1.27899 1.27996 
34 1 15.2362 8.83691 8.84021 
35 1 15.2544 8.84817 1.27995 
36 1 16.7555 1.27843 8.84891 
37 1 15.2553 1.27899 8.84911 
38 1 16.7588 8.84799 1.27961 
39 1 16.7133 8.8483 8.73537 
40 1 15.2513 1.27937 1.28046 
41 1 19.7913 4.31598 1.27959 
42 1 12.2173 5.81105 8.84679 
43 1 19.7836 5.80151 8.85539 
44 1 12.2224 4.30866 1.28022 
45 1 12.2222 5.81724 1.27952 
46 1 19.7885 4.31568 8.85081 
47 1 12.2217 4.31205 8.84968 
48 1 19.7906 5.81654 1.27966 
49 1 19.791 1.27893 4.31435 
50 1 12.2169 8.84618 5.8084 
51 1 12.2219 1.27989 5.8151 
52 1 19.7893 8.85114 4.31206 
53 1 19.7864 8.85551 5.79521 
54 1 12.2223 1.27948 4.31037 
55 1 12.2221 8.8482 4.30692 
56 1 19.7906 1.2787 5.81505 
81 1 17.9477 1.37766 1.37832 
82 1 14.0474 8.74471 8.7598 
83 1 14.0656 8.75012 1.37773 
84 1 17.9483 1.37847 8.75072 
85 1 14.0658 1.37729 8.75057 
86 1 17.9457 8.75087 1.3788 
87 1 17.9086 8.83485 8.56847 
88 1 14.0692 1.37756 1.37843 
89 1 19.6924 3.11986 1.37848 
90 1 12.3112 7.00656 8.74659 
91 1 19.7159 6.99849 8.74658 
92 1 12.3206 3.12613 1.37852 
93 1 12.3198 7.00145 1.37694 
94 1 19.6924 3.12126 8.74853 
95 1 12.3208 3.12051 8.75156 
96 1 19.6933 7.00249 1.3786 
97 1 19.6927 1.37749 3.1223 
98 1 12.3112 8.74639 7.00723 
99 1 12.3204 1.37797 7.00456 
100 1 19.693 8.74909 3.12179 
101 1 19.7198 8.74439 6.99844 
102 1 12.3206 1.37762 3.12527 
103 1 12.3203 8.75083 3.12521 
104 1 19.6928 1.37838 7.00391 
129 1 20.3538 0.717009 0.717245 
130 1 11.6449 9.41112 9.41117 
131 1 11.6589 9.41159 0.716352 
132 1 20.3541 0.718775 9.4124 
133 1 11.6588 0.715672 9.41176 
134 1 20.3553 9.41271 0.71692 
135 1 20.3759 9.39844 9.39696 
136 1 11.6591 0.716502 0.716974 
145 2 17.9765 8.76498 10.3344 
146 3 17.9768 8.74056 11.2319 
ITEM: TIMESTEP
40
ITEM: NUMBER OF ATOMS
146
ITEM: BOX BOUNDS pp pp pp
0.0000000000000000e+00 2.1884000000000000e+01
0.0000000000000000e+00 2.1885999999999999e+01
0.0000000000000000e+00 2.1885000000000002e+01
ITEM: ATOMS id type x y z 
9 1 8.50708 12.5638 12.5636 
10 1 1.61956 19.4512 19.4513 
11 1 1.61985 19.451 12.5617 
12 1 8.50926 12.5626 19.4515 
13 1 1.61993 12.5623 19.451 
14 1 8.50905 19.4517 12.5622 
15 1 8.50884 19.4519 19.4512 
16 1 1.61764 12.56 12.5599 
25 1 10.1022 10.9684 10.9684 
26 1 0.0231011 21.0475 21.0483 
27 1 0.0232426 21.0475 10.965 
28 1 10.1058 10.9655 21.0475 
29 1 0.0235291 10.966 21.0476 
30 1 10.1055 21.0486 10.9657 
31 1 10.1054 21.0482 21.0482 
32 1 0.0189231 10.9635 10.9636 
57 1 5.81384 12.2222 12.2222 
58 1 4.31316 19.7914 19.7907 
59 1 4.31348 19.7907 12.2223 
60 1 5.81547 12.2227 19.7907 
61 1 4.31363 12.2225 19.7907 
62 1 5.81526 19.7907 12.2223 
63 1 5.81514 19.7916 19.7906 
64 1 4.31195 12.2225 12.2225 
65 1 8.84888 15.2566 12.2221 
66 1 1.28025 16.7576 19.7907 
67 1 8.84867 16.7581 19.7908 
68 1 1.28065 15.2548 12.2226 
69 1 1.2804 16.757 12.2224 
70 1 8.84875 15.2563 19.7912 
71 1 1.2803 15.2558 19.7907 
72 1 8.84877 16.7581 12.2223 
73 1 8.8489 12.2228 15.2565 
74 1 1.28022 19.7907 16.7574 
75 1 1.28041 12.2224 16.757 
76 1 8.84866 19.7918 15.2558 
77 1 8.84868 19.7917 16.7576 
78 1 1.28066 12.2227 15.2548 
79 1 1.28027 19.7907 15.2554 
80 1 8.84884 12.2232 16.7581 
105 1 7.00302 12.321 12.321 
106 1 3.12411 19.6926 19.6923 
107 1 3.12431 19.6921 12.3208 
108 1 7.00466 12.3212 19.6924 
109 1 3.12443 12.321 19.6922 
110 1 7.00452 19.6923 12.321 
111 1 7.00434 19.693 19.692 
112 1 3.12286 12.3207 12.3207 
113 1 8.74992 14.0674 12.321 
114 1 1.37868 17.9468 19.6923 
115 1 8.74994 17.9472 19.6921 
116 1 1.37866 14.0658 12.3208 
117 1 1.37883 17.9461 12.3208 
118 1 8.75028 14.0671 19.6927 
119 1 1.37895 14.0666 19.6921 
120 1 8.75014 17.9474 12.321 
121 1 8.74998 12.3214 14.0673 
122 1 1.3785 19.6924 17.9465 
123 1 1.37882 12.3209 17.9462 
124 1 8.75004 19.6929 14.0666 
125 1 8.75002 19.693 17.9467 
126 1 1.37865 12.3208 14.0658 
127 1 1.37883 19.6922 14.0663 
128 1 8.75031 12.3217 17.9474 
137 1 9.40686 11.664 11.6638 
138 1 0.717941 20.3527 20.3532 
139 1 0.718166 20.3524 11.6599 
140 1 9.41064 11.6608 20.3525 
141 1 0.718807 11.6612 20.3522 
142 1 9.41028 20.3532 11.6609 
143 1 9.41048 20.3533 20.3529 
144 1 0.715427 11.6582 11.6582 
1 1 19.4512 1.61878 1.61956 
2 1 12.5483 8.50885 8.50773 
3 1 12.5611 8.50877 1.61788 
4 1 19.4518 1.62208 8.50952 
5 1 12.5618 1.61704 8.50863 
6 1 19.4521 8.50925 1.62043 
7 1 19.5383 8.49299 8.47851 
8 1 12.5618 1.6191 1.6196 
17 1 21.0479 0.022934 0.0226474 
18 1 10.9582 10.1079 10.1081 
19 1 10.9648 10.1062 0.0231557 
20 1 21.0477 0.022795 10.1059 
21 1 10.9649 0.022112 10.1055 
22 1 21.0481 10.1057 0.0219122 
23 1 21.0429 10.1063 10.1063 
24 1 10.9654 0.0226351 0.0226438 
33 1 16.7572 1.27926 1.28022 
34 1 15.2349 8.8408 8.84027 
35 1 15.2553 8.84802 1.28006 
36 1 16.7576 1.27892 8.84857 
37 1 15.2557 1.27918 8.84892 
38 1 16.7572 8.84802 1.27985 
39 1 16.7287 8.84493 8.72939 
40 1 15.2556 1.27925 1.2803 
41 1 19.7908 4.3125 1.28003 
42 1 12.2176 5.81281 8.84634 
43 1 19.7841 5.80395 8.85499 
44 1 12.2223 4.31276 1.28007 
45 1 12.2221 5.81375 1.27945 
46 1 19.788 4.31189 8.85057 
47 1 12.2219 4.3111 8.84928 
48 1 19.7907 5.81471 1.27982 
49 1 19.7907 1.2792 4.31296 
50 1 12.2173 8.84567 5.81198 
51 1 12.2221 1.2801 5.81481 
52 1 19.7889 8.85122 4.30985 
53 1 19.7873 8.85441 5.80189 
54 1 12.2222 1.27946 4.31349 
55 1 12.2219 8.84833 4.31117 
56 1 19.7905 1.279 5.81516 
81 1 17.9466 1.37778 1.37856 
82 1 14.0418 8.74303 8.75982 
83 1 14.0657 8.74991 1.37794 
84 1 17.9464 1.37853 8.75044 
85 1 14.0665 1.37727 8.75047 
86 1 17.9462 8.75055 1.37871 
87 1 17.9105 8.83252 8.52449 
88 1 14.0663 1.37795 1.37883 
89 1 19.6923 3.12308 1.37854 
90 1 12.311 7.00235 8.74708 
91 1 19.7153 6.99977 8.74593 
92 1 12.321 3.12334 1.37889 
93 1 12.32 7.00322 1.37711 
94 1 19.6917 3.12084 8.74825 
95 1 12.321 3.12201 8.75135 
96 1 19.6929 7.0038 1.37871 
97 1 19.6924 1.3776 3.12378 
98 1 12.3111 8.74695 7.00184 
99 1 12.3205 1.3781 7.00412 
100 1 19.6921 8.74866 3.11884 
101 1 19.7213 8.74386 6.99679 
102 1 12.3209 1.37788 3.12388 
103 1 12.3209 8.75042 3.12152 
104 1 19.6925 1.37857 7.00402 
129 1 20.3529 0.717628 0.71783 
130 1 11.6471 9.40927 9.40946 
131 1 11.6599 9.41019 0.717565 
132 1 20.3535 0.719062 9.41167 
133 1 11.6604 0.716953 9.41008 
134 1 20.3534 9.41088 0.718253 
135 1 20.3756 9.39766 9.39532 
136 1 11.6603 0.717544 0.717947 
145 2 17.9764 8.76406 10.3669 
146 3 17.9781 8.7396 11.2526 
ITEM: TIMESTEP
48
ITEM: NUMBER OF ATOMS
146
ITEM: BOX BOUNDS pp pp pp
0.0000000000000000e+00 2.1884000000000000e+01
0.0000000000000000e+00 2.1885999999999999e+01
0.0000000000000000e+00 2.1885000000000002e+01
ITEM: ATOMS id type x y z 
9 1 8.50682 12.564 12.5638 
10 1 1.61955 19.4512 19.4512 
11 1 1.61984 19.4508 12.5617 
12 1 8.50917 12.5625 19.4515 
13 1 1.62002 12.5624 19.4508 
14 1 8.509 19.4517 12.5622 
15 1 8.50888 19.4518 19.4512 
16 1 1.61754 12.5599 12.5599 
25 1 10.1017 10.969 10.969 
26 1 0.0233031 21.0473 21.0481 
27 1 0.0235506 21.0472 10.9653 
28 1 10.1053 10.9659 21.0471 
29 1 0.0240811 10.9665 21.047 
30 1 10.105 21.0481 10.9661 
31 1 10.1052 21.0479 21.0478 
32 1 0.0186326 10.9637 10.9638 
57 1 5.8136 12.2224 12.2224 
58 1 4.31332 19.7911 19.7905 
59 1 4.31354 19.7904 12.2225 
60 1 5.81535 12.2229 19.7904 
61 1 4.31377 12.2227 19.7904 
62 1 5.8151 19.7905 12.2225 
63 1 5.81505 19.7914 19.7904 
64 1 4.31211 12.2228 12.2227 
65 1 8.84869 15.2568 12.2223 
66 1 1.28048 16.7575 19.7905 
67 1 8.84843 16.7581 19.7906 
68 1 1.2809 15.2551 12.2229 
69 1 1.28066 16.7569 12.2226 
70 1 8.84853 15.2564 19.7909 
71 1 1.28054 15.256 19.7905 
72 1 8.84856 16.7581 12.2225 
73 1 8.84871 12.223 15.2567 
74 1 1.28044 19.7905 16.7573 
75 1 1.28065 12.2226 16.7568 
76 1 8.84844 19.7915 15.256 
77 1 8.84845 19.7915 16.7575 
78 1 1.28091 12.2229 15.2551 
79 1 1.28051 19.7905 15.2555 
80 1 8.84863 12.2234 16.7581 
105 1 7.00283 12.3214 12.3214 
106 1 3.12403 19.6923 19.692 
107 1 3.12418 19.6918 12.3212 
108 1 7.00474 12.3215 19.692 
109 1 3.12429 12.3213 19.6918 
110 1 7.00459 19.692 12.3213 
111 1 7.00437 19.6927 19.6917 
112 1 3.12259 12.3208 12.3208 
113 1 8.74952 14.0675 12.3214 
114 1 1.37902 17.9469 19.6919 
115 1 8.74958 17.9474 19.6918 
116 1 1.3788 14.0656 12.3209 
117 1 1.37919 17.9462 12.3212 
118 1 8.74994 14.067 19.6923 
119 1 1.37928 14.0665 19.6917 
120 1 8.74981 17.9476 12.3213 
121 1 8.74958 12.3217 14.0674 
122 1 1.37885 19.692 17.9466 
123 1 1.37916 12.3213 17.9462 
124 1 8.74971 19.6926 14.0665 
125 1 8.74967 19.6927 17.9469 
126 1 1.3788 12.3209 14.0656 
127 1 1.37918 19.6918 14.0662 
128 1 8.74997 12.322 17.9475 
137 1 9.40766 11.663 11.663 
138 1 0.717727 20.353 20.3534 
139 1 0.717918 20.3528 11.6598 
140 1 9.4112 11.6604 20.3531 
141 1 0.718074 11.6604 20.353 
142 1 9.41099 20.3539 11.6602 
143 1 9.41079 20.3538 20.3535 
144 1 0.715054 11.6581 11.6581 
1 1 19.4513 1.61881 1.61945 
2 1 12.5449 8.50837 8.50759 
3 1 12.5611 8.50823 1.61798 
4 1 19.452 1.62188 8.50951 
5 1 12.5619 1.61757 8.50869 
6 1 19.452 8.50926 1.62027 
7 1 19.5232 8.49968 8.47634 
8 1 12.5618 1.619 1.61974 
17 1 21.0477 0.0230631 0.0229082 
18 1 10.9584 10.1072 10.1074 
19 1 10.9652 10.1057 0.0234061 
20 1 21.0475 0.0230785 10.1058 
21 1 10.9653 0.0225807 10.1052 
22 1 21.0476 10.1053 0.0225352 
23 1 21.0429 10.1049 10.1055 
24 1 10.9657 0.0228536 0.0230161 
33 1 16.7572 1.2795 1.28045 
34 1 15.2368 8.84331 8.83939 
35 1 15.2552 8.8478 1.28026 
36 1 16.7576 1.27919 8.84841 
37 1 15.2557 1.27936 8.84871 
38 1 16.7571 8.8479 1.28014 
39 1 16.7338 8.84352 8.71926 
40 1 15.2557 1.27949 1.28054 
41 1 19.7905 4.31256 1.28026 
42 1 12.2176 5.812 8.84618 
43 1 19.7849 5.80512 8.8543 
44 1 12.2225 4.31255 1.28029 
45 1 12.2223 5.81409 1.27967 
46 1 19.7874 4.31178 8.85046 
47 1 12.2221 4.31099 8.84902 
48 1 19.7905 5.81438 1.2801 
49 1 19.7905 1.27938 4.31322 
50 1 12.2174 8.84555 5.81143 
51 1 12.2223 1.28029 5.81467 
52 1 19.7884 8.85125 4.30972 
53 1 19.7893 8.85323 5.80146 
54 1 12.2225 1.27971 4.3134 
55 1 12.2219 8.84806 4.31096 
56 1 19.7903 1.27927 5.81498 
81 1 17.9465 1.37803 1.37882 
82 1 14.0457 8.74305 8.76082 
83 1 14.0659 8.74969 1.37813 
84 1 17.9466 1.37888 8.75006 
85 1 14.0662 1.37756 8.75009 
86 1 17.9462 8.75014 1.37896 
87 1 17.9162 8.82596 8.51778 
88 1 14.0664 1.37817 1.37908 
89 1 19.6921 3.1233 1.37883 
90 1 12.3109 7.00199 8.7472 
91 1 19.7142 7.0003 8.74536 
92 1 12.3212 3.12323 1.37916 
93 1 12.3203 7.00348 1.37746 
94 1 19.6911 3.12073 8.74816 
95 1 12.3214 3.12144 8.75095 
96 1 19.6926 7.0035 1.37893 
97 1 19.6922 1.37791 3.12371 
98 1 12.3114 8.74704 7.00135 
99 1 12.3209 1.3784 7.00429 
100 1 19.6915 8.74863 3.11836 
101 1 19.7228 8.7436 6.9972 
102 1 12.3211 1.37819 3.12385 
103 1 12.3212 8.75012 3.12119 
104 1 19.6921 1.37889 7.00404 
129 1 20.3531 0.717328 0.717479 
130 1 11.6468 9.41024 9.41052 
131 1 11.6595 9.41093 0.717075 
132 1 20.3538 0.71857 9.41186 
133 1 11.6596 0.716047 9.4107 
134 1 20.3542 9.41164 0.717171 
135 1 20.3754 9.39838 9.39425 
136 1 11.66 0.717216 0.717404 
145 2 17.9769 8.76418 10.366 
146 3 17.9792 8.73869 11.2761 
ITEM: TIMESTEP
49
ITEM: NUMBER OF ATOMS
146
ITEM: BOX BOUNDS pp pp pp
0.0000000000000000e+00 2.1884000000000000e+01
0.0000000000000000e+00 2.1885999999999999e+01
0.0000000000000000e+00 2.1885000000000002e+01
ITEM: ATOMS id type x y z 
9 1 8.50682 12.564 12.5638 
10 1 1.61955 19.4512 19.4512 
11 1 1.61984 19.4508 12.5617 
12 1 8.50917 12.5625 19.4515 
13 1 1.62002 12.5624 19.4508 
14 1 8.509 19.4517 12.5622 
15 1 8.50888 19.4518 19.4512 
16 1 1.61754 12.5599 12.5599 
25 1 10.1017 10.969 10.969 
26 1 0.0233031 21.0473 21.0481 
27 1 0.0235506 21.0472 10.9653 
28 1 10.1053 10.9659 21.0471 
29 1 0.0240811 10.9665 21.047 
30 1 10.105 21.0481 10.9661 
31 1 10.1052 21.0479 21.0478 
32 1 0.0186326 10.9637 10.9638 
57 1 5.8136 12.2224 12.2224 
58 1 4.31332 19.7911 19.7905 
59 1 4.31354 19.7904 12.2225 
60 1 5.81535 12.2229 19.7904 
61 1 4.31377 12.2227 19.7904 
62 1 5.8151 19.7905 12.2225 
63 1 5.81505 19.7914 19.7904 
64 1 4.31211 12.2228 12.2227 
65 1 8.84869 15.2568 12.2223 
66 1 1.28048 16.7575 19.7905 
67 1 8.84843 16.7581 19.7906 
68 1 1.2809 15.2551 12.2229 
69 1 1.28066 16.7569 12.2226 
70 1 8.84853 15.2564 19.7909 
71 1 1.28054 15.256 19.7905 
72 1 8.84856 16.7581 12.2225 
73 1 8.84871 12.223 15.2567 
74 1 1.28044 19.7905 16.7573 
75 1 1.28065 12.2226 16.7568 
76 1 8.84844 19.7915 15.256 
77 1 8.84845 19.7915 16.7575 
78 1 1.28091 12.2229 15.2551 
79 1 1.28051 19.7905 15.2555 
80 1 8.84863 12.2234 16.7581 
105 1 7.00283 12.3214 12.3214 
106 1 3.12403 19.6923 19.692 
107 1 3.12418 19.6918 12.3212 
108 1 7.00474 12.3215 19.692 
109 1 3.12429 12.3213 19.6918 
110 1 7.00459 19.692 12.3213 
111 1 7.00437 19.6927 19.6917 
112 1 3.12259 12.3208 12.3208 
113 1 8.74952 14.0675 12.3214 
114 1 1.37902 17.9469 19.6919 
115 1 8.74958 17.9474 19.6918 
116 1 1.3788 14.0656 12.3209 
117 1 1.37919 17.9462 12.3212 
118 1 8.74994 14.067 19.6923 
119 1 1.37928 14.0665 19.6917 
120 1 8.74981 17.9476 12.3213 
121 1 8.74958 12.3217 14.0674 
122 1 1.37885 19.692 17.9466 
123 1 1.37916 12.3213 17.9462 
124 1 8.74971 19.6926 14.0665 
125 1 8.74967 19.6927 17.9469 
126 1 1.3788 12.3209 14.0656 
127 1 1.37918 19.6918 14.0662 
128 1 8.74997 12.322 17.9475 
137 1 9.40766 11.663 11.663 
138 1 0.717727 20.353 20.3534 
139 1 0.717918 20.3528 11.6598 
140 1 9.4112 11.6604 20.3531 
141 1 0.718074 11.6604 20.353 
142 1 9.41099 20.3539 11.6602 
143 1 9.41079 20.3538 20.3535 
144 1 0.715054 11.6581 11.6581 
1 1 19.4513 1.61881 1.61945 
2 1 12.5449 8.50837 8.50759 
3 1 12.5611 8.50823 1.61798 
4 1 19.452 1.62188 8.50951 
5 1 12.5619 1.61757 8.50869 
6 1 19.452 8.50926 1.62027 
7 1 19.5232 8.49968 8.47634 
8 1 12.5618 1.619 1.61974 
17 1 21.0477 0.0230631 0.0229082 
18 1 10.9584 10.1072 10.1074 
19 1 10.9652 10.1057 0.0234061 
20 1 21.0475 0.0230785 10.1058 
21 1 10.9653 0.0225807 10.1052 
22 1 21.0476 10.1053 0.0225352 