ITEM: TIMESTEP
0
ITEM: NUMBER OF ATOMS
50
ITEM: BOX BOUNDS pp pp pp
0.0000000000000000e+00 1.1000000000000000e+01
0.0000000000000000e+00 1.1002000000000001e+01
0.0000000000000000e+00 1.1000000000000000e+01
ITEM: ATOMS id type x y z 
10 1 4.603 4.603 4.603 
11 1 3.085 3.085 3.085 
12 1 3.796 3.796 3.796 
46 1 0.726 0.725 0.725 
47 1 2.26 2.259 2.26 
48 1 1.551 1.55 1.55 
19 1 4.546 4.545 6.226 
20 1 3.013 3.013 7.764 
21 1 3.721 3.721 7.053 
31 1 0.668 0.667 10.103 
32 1 2.187 2.187 8.589 
33 1 1.476 1.475 9.298 
16 1 4.546 6.225 4.546 
17 1 3.013 7.765 3.013 
18 1 3.721 7.053 3.722 
25 1 0.668 10.103 0.668 
26 1 2.188 8.589 2.188 
27 1 1.476 9.298 1.476 
4 1 4.608 6.169 6.169 
5 1 3.086 7.684 7.684 
6 1 3.799 6.974 6.974 
37 1 0.729 10.046 10.046 
38 1 2.259 8.509 8.508 
39 1 1.552 9.219 9.219 
13 1 6.225 4.546 4.546 
14 1 7.764 3.013 3.013 
15 1 7.053 3.721 3.722 
28 1 10.102 0.667 0.668 
29 1 8.589 2.187 2.188 
30 1 9.298 1.475 1.476 
1 1 6.168 4.608 6.169 
2 1 7.684 3.086 7.684 
3 1 6.974 3.799 6.974 
40 1 10.045 0.728 10.046 
41 1 8.508 2.259 8.508 
42 1 9.218 1.551 9.218 
7 1 6.169 6.169 4.608 
8 1 7.684 7.684 3.086 
9 1 6.974 6.974 3.799 
43 1 10.046 10.047 0.729 
44 1 8.508 8.509 2.259 
45 1 9.219 9.219 1.552 
22 1 6.229 6.229 6.229 
23 1 7.764 7.765 7.765 
24 1 7.055 7.056 7.055 
34 1 10.108 10.108 10.107 
35 1 8.59 8.59 8.59 
36 1 9.301 9.301 9.3 
49 2 8.884 8.665 10.43 
50 3 7.908 8.665 10.43 
ITEM: TIMESTEP
10
ITEM: NUMBER OF ATOMS
50
ITEM: BOX BOUNDS pp pp pp
0.0000000000000000e+00 1.1000000000000000e+01
0.0000000000000000e+00 1.1002000000000001e+01
0.0000000000000000e+00 1.1000000000000000e+01
ITEM: ATOMS id type x y z 
10 1 4.59815 4.5983 4.59904 
11 1 3.07767 3.07732 3.0777 
12 1 3.78543 3.78574 3.78535 
46 1 0.735504 0.734175 0.735145 
47 1 2.27773 2.27682 2.27736 
48 1 1.56887 1.56802 1.56854 
19 1 4.53668 4.537 6.23463 
20 1 2.99777 2.99761 7.7789 
21 1 3.70225 3.70238 7.07189 
31 1 0.69314 0.68817 10.1045 
32 1 2.19667 2.19684 8.57563 
33 1 1.49019 1.48888 9.29133 
16 1 4.53697 6.23456 4.53721 
17 1 2.99854 7.77877 2.99889 
18 1 3.70314 7.07175 3.70307 
25 1 0.681263 10.1044 0.690092 
26 1 2.19802 8.57776 2.19621 
27 1 1.48663 9.28982 1.49065 
4 1 4.60743 6.17293 6.17356 
5 1 3.07717 7.69234 7.69214 
6 1 3.78966 6.98487 6.98486 
37 1 0.694083 10.033 10.0285 
38 1 2.27993 8.4956 8.49477 
39 1 1.55885 9.19718 9.19738 
13 1 6.23481 4.53696 4.53657 
14 1 7.77851 2.99804 2.99858 
15 1 7.07177 3.70262 3.7026 
28 1 10.1015 0.679601 0.690421 
29 1 8.57385 2.19797 2.19322 
30 1 9.29535 1.48546 1.49759 
1 1 6.17304 4.60743 6.17405 
2 1 7.69181 3.0777 7.6917 
3 1 6.98264 3.79161 6.98276 
40 1 10.0286 0.693806 10.026 
41 1 8.49367 2.28023 8.4941 
42 1 9.19754 1.55758 9.19697 
7 1 6.17323 6.17343 4.60755 
8 1 7.6919 7.69189 3.07693 
9 1 6.98591 6.98612 3.78865 
43 1 10.037 10.0383 0.689893 
44 1 8.49858 8.49842 2.27948 
45 1 9.21112 9.20817 1.57215 
22 1 6.23376 6.23218 6.23648 
23 1 7.78472 7.79128 7.77061 
24 1 7.08823 7.08929 7.07968 
34 1 10.1002 10.1057 10.0782 
35 1 8.55921 8.64264 8.73806 
36 1 9.45914 9.36194 9.05151 
49 2 8.82438 8.59452 10.5856 
50 3 7.80176 8.57382 10.3892 
ITEM: TIMESTEP
20
ITEM: NUMBER OF ATOMS
50
ITEM: BOX BOUNDS pp pp pp
0.0000000000000000e+00 1.1000000000000000e+01
0.0000000000000000e+00 1.1002000000000001e+01
0.0000000000000000e+00 1.1000000000000000e+01
ITEM: ATOMS id type x y z 
10 1 4.59832 4.59902 4.60246 
11 1 3.08288 3.08281 3.0873 
12 1 3.79373 3.79345 3.78592 
46 1 0.734264 0.732602 0.732317 
47 1 2.27392 2.27184 2.27141 
48 1 1.56478 1.56623 1.56804 
19 1 4.53588 4.53765 6.23213 
20 1 2.99998 3.00098 7.77384 
21 1 3.70949 3.70777 7.06894 
31 1 0.675488 0.676883 10.1003 
32 1 2.19044 2.18851 8.58106 
33 1 1.48527 1.48756 9.29907 
16 1 4.54003 6.23313 4.53679 
17 1 3.00268 7.77478 3.00054 
18 1 3.70721 7.06749 3.71055 
25 1 0.661476 10.0974 0.679518 
26 1 2.19089 8.58422 2.18882 
27 1 1.48044 9.29635 1.48705 
4 1 4.61331 6.1768 6.17834 
5 1 3.08389 7.6884 7.69034 
6 1 3.78993 6.98312 6.97951 
37 1 0.725836 10.0407 10.0351 
38 1 2.27145 8.49751 8.49747 
39 1 1.56184 9.20367 9.20189 
13 1 6.23262 4.53994 4.53585 
14 1 7.77394 3.0019 2.99999 
15 1 7.06809 3.70699 3.71034 
28 1 10.0999 0.663911 0.67747 
29 1 8.58873 2.19322 2.18985 
30 1 9.28776 1.47364 1.48511 
1 1 6.17881 4.61155 6.17526 
2 1 7.69193 3.08093 7.68813 
3 1 6.97832 3.79337 6.9854 
40 1 10.0372 0.719786 10.0349 
41 1 8.49822 2.26882 8.49888 
42 1 9.20499 1.55908 9.20407 
7 1 6.17828 6.17886 4.61246 
8 1 7.6918 7.69241 3.08085 
9 1 6.98411 6.98395 3.78633 
43 1 10.0394 10.0422 0.714167 
44 1 8.51018 8.50752 2.27603 
45 1 9.21695 9.21541 1.56629 
22 1 6.23357 6.23229 6.23176 
23 1 7.78129 7.79027 7.76382 
24 1 7.08685 7.08691 7.07412 
34 1 10.0982 10.09 10.032 
35 1 8.54989 8.65771 8.76746 
36 1 9.46454 9.37801 9.0419 
49 2 8.74075 8.56909 10.6353 
50 3 7.85435 8.55424 10.3594 
ITEM: TIMESTEP
30
ITEM: NUMBER OF ATOMS
50
ITEM: BOX BOUNDS pp pp pp
0.0000000000000000e+00 1.1000000000000000e+01
0.0000000000000000e+00 1.1002000000000001e+01
0.0000000000000000e+00 1.1000000000000000e+01
ITEM: ATOMS id type x y z 
10 1 4.60134 4.60149 4.59971 
11 1 3.08499 3.08463 3.08515 
12 1 3.79361 3.7935 3.79207 
46 1 0.734114 0.73398 0.737052 
47 1 2.27077 2.27031 2.27118 
48 1 1.56429 1.56318 1.56432 
19 1 4.53786 4.53748 6.23718 
20 1 3.00326 3.00274 7.77179 
21 1 3.71079 3.71008 7.06466 
31 1 0.676289 0.683641 10.1059 
32 1 2.18977 2.18899 8.5859 
33 1 1.4816 1.48399 9.29521 
16 1 4.53969 6.23789 4.53736 
17 1 3.00328 7.77306 3.00275 
18 1 3.71059 7.06642 3.70925 
25 1 0.655165 10.0974 0.683777 
26 1 2.1906 8.59056 2.1876 
27 1 1.47211 9.29055 1.48441 
4 1 4.61415 6.17645 6.17566 
5 1 3.08487 7.68467 7.68531 
6 1 3.79876 6.98169 6.9801 
37 1 0.740895 10.0403 10.0326 
38 1 2.26796 8.49893 8.49965 
39 1 1.56353 9.20878 9.20586 
13 1 6.23741 4.53939 4.53716 
14 1 7.77306 3.00328 3.00298 
15 1 7.06625 3.71046 3.70931 
28 1 10.0913 0.653108 0.676552 
29 1 8.5888 2.18762 2.18765 
30 1 9.29248 1.47487 1.48269 
1 1 6.17696 4.61252 6.17622 
2 1 7.6865 3.08329 7.687 
3 1 6.98294 3.79655 6.98327 
40 1 10.0375 0.730352 10.0328 
41 1 8.50199 2.26499 8.50233 
42 1 9.20894 1.5563 9.20738 
7 1 6.17999 6.18001 4.60846 
8 1 7.69254 7.69198 3.07867 
9 1 6.98759 6.98758 3.79089 
43 1 10.0366 10.0388 0.713908 
44 1 8.5192 8.51654 2.27611 
45 1 9.22443 9.22308 1.56539 
22 1 6.23682 6.23177 6.2296 
23 1 7.78476 7.79437 7.75941 
24 1 7.08804 7.08964 7.06834 
34 1 10.1129 10.0887 10.0059 
35 1 8.52992 8.66783 8.8006 
36 1 9.44872 9.37174 9.05851 
49 2 8.71398 8.55635 10.6667 
50 3 7.85416 8.52908 10.3137 
ITEM: TIMESTEP
40
ITEM: NUMBER OF ATOMS
50
ITEM: BOX BOUNDS pp pp pp
0.0000000000000000e+00 1.1000000000000000e+01
0.0000000000000000e+00 1.1002000000000001e+01
0.0000000000000000e+00 1.1000000000000000e+01
ITEM: ATOMS id type x y z 
10 1 4.60196 4.60178 4.59979 
11 1 3.08521 3.08491 3.0847 
12 1 3.79321 3.79298 3.79288 
46 1 0.733173 0.733067 0.736752 
47 1 2.2715 2.2708 2.27137 
48 1 1.56445 1.56384 1.56575 
19 1 4.53852 4.53802 6.23578 
20 1 3.00356 3.00282 7.77186 
21 1 3.7095 3.70908 7.06522 
31 1 0.676634 0.684797 10.1066 
32 1 2.19029 2.18934 8.58461 
33 1 1.48257 1.48564 9.29589 
16 1 4.54064 6.23717 4.53708 
17 1 3.00272 7.77404 3.00195 
18 1 3.7101 7.0668 3.70859 
25 1 0.653171 10.0958 0.683469 
26 1 2.18965 8.58831 2.18733 
27 1 1.47406 9.29328 1.48648 
4 1 4.61466 6.1768 6.17562 
5 1 3.08449 7.68555 7.68548 
6 1 3.79844 6.98143 6.98137 
37 1 0.741565 10.0429 10.0341 
38 1 2.26895 8.49748 8.49833 
39 1 1.56572 9.20878 9.20542 
13 1 6.23658 4.54024 4.53699 
14 1 7.77373 3.00284 3.00252 
15 1 7.0668 3.70985 3.70838 
28 1 10.092 0.653471 0.675909 
29 1 8.58968 2.18935 2.18808 
30 1 9.28904 1.47228 1.48341 
1 1 6.1776 4.61249 6.17689 
2 1 7.68723 3.08299 7.68815 
3 1 6.98383 3.79528 6.98335 
40 1 10.0396 0.729017 10.0339 
41 1 8.50064 2.26482 8.50156 
42 1 9.20985 1.55871 9.20729 
7 1 6.18078 6.18042 4.608 
8 1 7.69384 7.69331 3.0782 
9 1 6.98877 6.98848 3.79012 
43 1 10.0384 10.0403 0.711406 
44 1 8.51976 8.51712 2.27748 
45 1 9.22446 9.2231 1.56661 
22 1 6.23714 6.23165 6.22799 
23 1 7.78602 7.79561 7.75733 
24 1 7.08904 7.09106 7.06779 
34 1 10.1136 10.0869 10.0007 
35 1 8.52385 8.6681 8.80769 
36 1 9.44478 9.36984 9.06416 
49 2 8.70921 8.55451 10.6697 
50 3 7.85303 8.52378 10.306 
ITEM: TIMESTEP
50
ITEM: NUMBER OF ATOMS
50
ITEM: BOX BOUNDS pp pp pp
0.0000000000000000e+00 1.1000000000000000e+01
0.0000000000000000e+00 1.1002000000000001e+01
0.0000000000000000e+00 1.1000000000000000e+01
ITEM: ATOMS id type x y z 
10 1 4.60306 4.60197 4.5999 
11 1 3.08675 3.08667 3.08517 
12 1 3.79345 3.79273 3.79458 
46 1 0.732708 0.733944 0.742206 
47 1 2.27109 2.27029 2.27135 
48 1 1.564 1.56402 1.56637 
19 1 4.54289 4.53717 6.237 
20 1 3.00979 3.00389 7.77173 
21 1 3.70474 3.71328 7.05806 
31 1 0.680148 0.690868 10.1113 
32 1 2.19148 2.19101 8.58429 
33 1 1.48328 1.48739 9.29492 
16 1 4.54144 6.23851 4.53463 
17 1 3.00314 7.77401 3.00215 
18 1 3.71206 7.06638 3.7084 
25 1 0.650474 10.0952 0.684981 
26 1 2.18849 8.58804 2.18866 
27 1 1.47246 9.2919 1.48625 
4 1 4.61682 6.1774 6.17555 
5 1 3.08493 7.68496 7.68412 
6 1 3.80125 6.98057 6.98267 
37 1 0.750822 10.0477 10.0333 
38 1 2.26825 8.49866 8.49978 
39 1 1.56826 9.21243 9.20779 
13 1 6.2381 4.54064 4.53501 
14 1 7.7736 3.00397 3.00315 
15 1 7.06594 3.71116 3.70871 
28 1 10.0914 0.656051 0.671294 
29 1 8.59271 2.19475 2.1851 
30 1 9.28106 1.45829 1.48919 
1 1 6.17969 4.61359 6.17782 
2 1 7.68833 3.0831 7.68998 
3 1 6.98469 3.79387 6.98306 
40 1 10.0438 0.732189 10.0319 
41 1 8.50295 2.26279 8.5045 
42 1 9.21334 1.55757 9.20953 
7 1 6.18428 6.18244 4.60516 
8 1 7.69721 7.69654 3.07818 
9 1 6.99227 6.99124 3.78957 
43 1 10.0389 10.0393 0.706371 
44 1 8.5265 8.52408 2.27907 
45 1 9.23048 9.22892 1.56519 
22 1 6.2388 6.23097 6.22363 
23 1 7.79046 7.80072 7.74625 
24 1 7.09273 7.09486 7.06176 
34 1 10.1208 10.0818 9.98431 
35 1 8.49783 8.66857 8.83556 
36 1 9.42323 9.35812 9.0852 
49 2 8.6874 8.54709 10.6824 
50 3 7.84564 8.49934 10.2789 
ITEM: TIMESTEP
60
ITEM: NUMBER OF ATOMS
50
ITEM: BOX BOUNDS pp pp pp
0.0000000000000000e+00 1.1000000000000000e+01
0.0000000000000000e+00 1.1002000000000001e+01
0.0000000000000000e+00 1.1000000000000000e+01
ITEM: ATOMS id type x y z 
10 1 4.60565 4.60618 4.59791 
11 1 3.08659 3.08667 3.0838 
12 1 3.79435 3.79274 3.79385 
46 1 0.727402 0.73314 0.750023 
47 1 2.27477 2.27401 2.2767 
48 1 1.56313 1.56517 1.57201 
19 1 4.53628 4.54539 6.22583 
20 1 2.9964 3.01037 7.75706 
21 1 3.7337 3.70723 7.07265 
31 1 0.686197 0.701354 10.1218 
32 1 2.19607 2.1957 8.58328 
33 1 1.4881 1.49504 9.29593 
16 1 4.54904 6.24065 4.5331 
17 1 3.00335 7.77487 3.0003 
18 1 3.71157 7.06931 3.70614 
25 1 0.662191 10.0982 0.683161 
26 1 2.18761 8.58548 2.19273 
27 1 1.46902 9.2873 1.48905 
4 1 4.62017 6.18064 6.17258 
5 1 3.08504 7.68545 7.68626 
6 1 3.80228 6.98386 6.98323 
37 1 0.762157 10.0586 10.0334 
38 1 2.27368 8.49643 8.50158 
39 1 1.57944 9.21832 9.20437 
13 1 6.24071 4.5442 4.53517 
14 1 7.77632 3.00467 3.00066 
15 1 7.07068 3.71399 3.70663 
28 1 10.075 0.632386 0.672856 
29 1 8.5749 2.1633 2.19905 
30 1 9.30128 1.50451 1.46482 
1 1 6.18726 4.61502 6.17644 
2 1 7.69323 3.08061 7.69552 
3 1 6.98929 3.7901 6.98701 
40 1 10.0569 0.729277 10.0288 
41 1 8.50506 2.26227 8.50909 
42 1 9.21997 1.55699 9.20947 
7 1 6.18955 6.18683 4.59596 
8 1 7.70914 7.70758 3.07947 
9 1 7.00009 6.99921 3.78449 
43 1 10.0395 10.0357 0.688422 
44 1 8.53474 8.53272 2.28896 
45 1 9.22848 9.22843 1.55898 
22 1 6.24182 6.22976 6.218 
23 1 7.79858 7.81578 7.72379 
24 1 7.11327 7.10506 7.03079 
34 1 10.1384 10.0783 9.96519 
35 1 8.45003 8.66243 8.86269 
36 1 9.38112 9.33956 9.1255 
49 2 8.63644 8.53589 10.6976 
50 3 7.79811 8.43424 10.2939 
ITEM: TIMESTEP
70
ITEM: NUMBER OF ATOMS
50
ITEM: BOX BOUNDS pp pp pp
0.0000000000000000e+00 1.1000000000000000e+01
0.0000000000000000e+00 1.1002000000000001e+01
0.0000000000000000e+00 1.1000000000000000e+01
ITEM: ATOMS id type x y z 
10 1 4.60631 4.60623 4.5968 
11 1 3.08783 3.0864 3.08742 
12 1 3.79734 3.79798 3.79001 
46 1 0.725298 0.731894 0.754007 
47 1 2.27239 2.27223 2.27358 
48 1 1.56036 1.5636 1.57721 
19 1 4.54924 4.54389 6.23088 
20 1 3.00282 3.00878 7.75944 
21 1 3.72749 3.71102 7.06627 
31 1 0.690778 0.704797 10.1223 
32 1 2.19423 2.19769 8.57788 
33 1 1.49377 1.50244 9.30339 
16 1 4.55049 6.24397 4.5304 
17 1 3.00342 7.77296 3.00259 
18 1 3.71715 7.06893 3.70604 
25 1 0.658557 10.0988 0.680534 
26 1 2.18187 8.58334 2.19315 
27 1 1.47275 9.29207 1.48734 
4 1 4.62431 6.18331 6.17306 
5 1 3.0888 7.68304 7.68776 
6 1 3.80243 6.98472 6.97701 
37 1 0.770756 10.0624 10.0327 
38 1 2.27605 8.49928 8.50147 
39 1 1.58226 9.21966 9.20909 
13 1 6.24492 4.54591 4.53426 
14 1 7.7751 3.00282 3.00226 
15 1 7.0708 3.71325 3.70765 
28 1 10.0826 0.643674 0.663605 
29 1 8.57883 2.1722 2.19381 
30 1 9.29154 1.48741 1.46943 
1 1 6.18912 4.61365 6.17593 
2 1 7.69093 3.07952 7.69455 
3 1 6.9926 3.79582 6.98804 
40 1 10.0593 0.730323 10.027 
41 1 8.50648 2.26308 8.51055 
42 1 9.22217 1.55628 9.20955 
7 1 6.18998 6.18727 4.59478 
8 1 7.71162 7.71058 3.08308 
9 1 7.00308 7.00052 3.78579 
43 1 10.0425 10.0327 0.685295 
44 1 8.54017 8.54031 2.2888 
45 1 9.23475 9.23059 1.55243 
22 1 6.24774 6.23093 6.21383 
23 1 7.8009 7.82245 7.71282 
24 1 7.12139 7.1089 7.01871 
34 1 10.1367 10.0692 9.95902 
35 1 8.42681 8.65581 8.87312 
36 1 9.35624 9.33207 9.14767 
49 2 8.61056 8.53067 10.7089 
50 3 7.78051 8.40556 10.2947 
ITEM: TIMESTEP
80
ITEM: NUMBER OF ATOMS
50
ITEM: BOX BOUNDS pp pp pp
0.0000000000000000e+00 1.1000000000000000e+01
0.0000000000000000e+00 1.1002000000000001e+01
0.0000000000000000e+00 1.1000000000000000e+01
ITEM: ATOMS id type x y z 
10 1 4.60957 4.60692 4.59753 
11 1 3.08926 3.08844 3.08877 
12 1 3.79914 3.79854 3.79074 
46 1 0.725915 0.734632 0.753885 
47 1 2.27248 2.27274 2.27678 
48 1 1.56048 1.56478 1.5773 
19 1 4.55267 4.54396 6.23295 
20 1 3.0093 3.00849 7.76215 
21 1 3.72049 3.71504 7.05905 
31 1 0.692205 0.702639 10.1239 
32 1 2.19578 2.20119 8.57953 
33 1 1.49306 1.50182 9.29972 
16 1 4.55133 6.24317 4.53073 
17 1 3.0035 7.77389 3.00215 
18 1 3.71546 7.06885 3.70614 
25 1 0.658525 10.097 0.679059 
26 1 2.18077 8.58439 2.19289 
27 1 1.47149 9.29054 1.48613 
4 1 4.62723 6.18388 6.17091 
5 1 3.08803 7.68411 7.68527 
6 1 3.80718 6.98374 6.98274 
37 1 0.77057 10.0644 10.0312 
38 1 2.27848 8.50031 8.50255 
39 1 1.58382 9.22151 9.20804 
13 1 6.24476 4.54582 4.53211 
14 1 7.77646 3.00034 3.00211 
15 1 7.07087 3.71123 3.70625 
28 1 10.0834 0.650023 0.660608 
29 1 8.58411 2.17944 2.18668 
30 1 9.28356 1.46936 1.47465 
1 1 6.19249 4.61385 6.1764 
2 1 7.69161 3.0795 7.69641 
3 1 6.99435 3.79571 6.98781 
40 1 10.0614 0.729879 10.0244 
41 1 8.50727 2.26351 8.51102 
42 1 9.22371 1.55607 9.20866 
7 1 6.19323 6.18756 4.59324 
8 1 7.71497 7.71448 3.08347 
9 1 7.00683 7.0034 3.7858 
43 1 10.0445 10.0344 0.68241 
44 1 8.54263 8.54204 2.28796 
45 1 9.23676 9.23191 1.55131 
22 1 6.24932 6.23358 6.21016 
23 1 7.80316 7.82565 7.7079 
24 1 7.12398 7.11295 7.01284 
34 1 10.1331 10.0657 9.96276 
35 1 8.41632 8.65141 8.87995 
36 1 9.34279 9.32936 9.16123 
49 2 8.59605 8.52932 10.7139 
50 3 7.76968 8.38951 10.2958 
ITEM: TIMESTEP
90
ITEM: NUMBER OF ATOMS
50
ITEM: BOX BOUNDS pp pp pp
0.0000000000000000e+00 1.1000000000000000e+01
0.0000000000000000e+00 1.1002000000000001e+01
0.0000000000000000e+00 1.1000000000000000e+01
ITEM: ATOMS id type x y z 
10 1 4.61 4.60793 4.5971 
11 1 3.0894 3.08887 3.08802 
12 1 3.7989 3.7977 3.79199 
46 1 0.725574 0.734459 0.754233 
47 1 2.27255 2.27299 2.27781 
48 1 1.56102 1.56526 1.57692 
19 1 4.55319 4.54425 6.23292 
20 1 3.00994 3.00883 7.76202 
21 1 3.72023 3.71548 7.05832 
31 1 0.69276 0.703016 10.1229 
32 1 2.19542 2.20134 8.57965 
33 1 1.49366 1.5016 9.30036 
16 1 4.55152 6.2428 4.53111 
17 1 3.00337 7.77361 3.00247 
18 1 3.71594 7.06907 3.70592 
25 1 0.659059 10.0973 0.678433 
26 1 2.18105 8.58443 2.19287 
27 1 1.47105 9.29003 1.48648 
4 1 4.62735 6.18369 6.17169 
5 1 3.08916 7.68352 7.68642 
6 1 3.80615 6.98449 6.98035 
37 1 0.770562 10.0644 10.0314 
38 1 2.27895 8.50059 8.50281 
39 1 1.58373 9.2217 9.20769 
13 1 6.24476 4.54557 4.53195 
14 1 7.77638 2.99998 3.00185 
15 1 7.07153 3.71135 3.70617 
28 1 10.0834 0.650641 0.660254 
29 1 8.58449 2.17994 2.18603 
30 1 9.28281 1.46751 1.47517 
1 1 6.19304 4.61397 6.17608 
2 1 7.69228 3.08013 7.69652 
3 1 6.99346 3.79474 6.98792 
40 1 10.0615 0.729648 10.0242 
41 1 8.50726 2.26357 8.51087 
42 1 9.22391 1.5563 9.20861 
7 1 6.19308 6.18747 4.59219 
8 1 7.71556 7.71474 3.08366 
9 1 7.00689 7.00401 3.78585 
43 1 10.0449 10.0346 0.682085 
44 1 8.54295 8.54226 2.28799 
45 1 9.23694 9.23203 1.55121 
22 1 6.24983 6.2338 6.20985 
23 1 7.80377 7.82663 7.70752 
24 1 7.12472 7.11365 7.01205 
34 1 10.1329 10.0655 9.96312 
35 1 8.41475 8.6508 8.88097 
36 1 9.34064 9.32871 9.16316 
49 2 8.59367 8.52905 10.7148 
50 3 7.768 8.38699 10.296 
ITEM: TIMESTEP
100
ITEM: NUMBER OF ATOMS
50
ITEM: BOX BOUNDS pp pp pp
0.0000000000000000e+00 1.1000000000000000e+01
0.0000000000000000e+00 1.1002000000000001e+01
0.0000000000000000e+00 1.1000000000000000e+01
ITEM: ATOMS id type x y z 
10 1 4.61002 4.60796 4.59706 
11 1 3.08941 3.08891 3.08798 
12 1 3.79888 3.79764 3.79209 
46 1 0.725591 0.734458 0.754211 
47 1 2.27258 2.273 2.27782 
48 1 1.56097 1.56527 1.57695 
19 1 4.55322 4.54427 6.23292 
20 1 3.00996 3.00884 7.76202 
21 1 3.72023 3.71551 7.05828 
31 1 0.692797 0.703027 10.1229 
32 1 2.19543 2.20136 8.57966 
33 1 1.49368 1.50161 9.30038 
16 1 4.55156 6.2428 4.5311 
17 1 3.00339 7.77359 3.00245 
18 1 3.71589 7.0691 3.70596 
25 1 0.659075 10.0973 0.678411 
26 1 2.18101 8.58439 2.19288 
27 1 1.47111 9.29008 1.48648 
4 1 4.62736 6.18373 6.17168 
5 1 3.08919 7.68353 7.6864 
6 1 3.80616 6.98444 6.98037 
37 1 0.770604 10.0644 10.0314 
38 1 2.27904 8.50063 8.50284 
39 1 1.58366 9.22167 9.20763 
13 1 6.24481 4.54557 4.53197 
14 1 7.77641 2.99997 3.00188 
15 1 7.0715 3.71134 3.70609 
28 1 10.0834 0.650655 0.66024 
29 1 8.58449 2.17993 2.186 
30 1 9.28281 1.46747 1.47517 
1 1 6.19301 4.61392 6.17604 
2 1 7.69223 3.08007 7.69652 
3 1 6.99357 3.79488 6.98795 
40 1 10.0615 0.729643 10.0242 
41 1 8.50729 2.26356 8.51087 
42 1 9.22391 1.55631 9.20862 
7 1 6.19308 6.1875 4.59218 
8 1 7.71557 7.71481 3.08371 
9 1 7.00695 7.00395 3.78581 
43 1 10.0449 10.0347 0.682066 
44 1 8.54295 8.54226 2.28802 
45 1 9.23698 9.23206 1.55119 
22 1 6.24986 6.2338 6.20981 
23 1 7.8038 7.82669 7.70747 
24 1 7.12474 7.11367 7.01196 
34 1 10.1329 10.0655 9.96313 
35 1 8.41462 8.65075 8.88107 
36 1 9.34049 9.32867 9.16332 
49 2 8.59347 8.52903 10.7148 
50 3 7.76785 8.38679 10.2961 
ITEM: TIMESTEP
103
ITEM: NUMBER OF ATOMS
50
ITEM: BOX BOUNDS pp pp pp
0.0000000000000000e+00 1.1000000000000000e+01
0.0000000000000000e+00 1.1002000000000001e+01
0.0000000000000000e+00 1.1000000000000000e+01
ITEM: ATOMS id type x y z 
10 1 4.61002 4.60796 4.59706 
11 1 3.08941 3.08891 3.08799 
12 1 3.79889 3.79765 3.79208 
46 1 0.725593 0.734459 0.754208 
47 1 2.27258 2.273 2.27782 
48 1 1.56096 1.56527 1.57696 
19 1 4.55323 4.54428 6.23292 
20 1 3.00997 3.00885 7.76202 
21 1 3.72023 3.71551 7.05828 
31 1 0.692806 0.703027 10.1229 
32 1 2.19543 2.20136 8.57967 
33 1 1.49367 1.50161 9.30038 
16 1 4.55156 6.2428 4.5311 
17 1 3.00339 7.77359 3.00245 
18 1 3.71588 7.0691 3.70596 
25 1 0.659075 10.0973 0.67841 
26 1 2.18101 8.58439 2.19289 
27 1 1.47112 9.29008 1.48647 
4 1 4.62736 6.18373 6.17169 
5 1 3.0892 7.68352 7.68641 
6 1 3.80616 6.98445 6.98036 
37 1 0.770609 10.0644 10.0314 
38 1 2.27905 8.50064 8.50284 
39 1 1.58365 9.22167 9.20763 
13 1 6.24481 4.54557 4.53197 
14 1 7.77641 2.99998 3.00188 
15 1 7.0715 3.71133 3.70609 
28 1 10.0834 0.650657 0.660237 
29 1 8.58448 2.17992 2.186 
30 1 9.28281 1.46747 1.47517 
1 1 6.19301 4.61392 6.17604 
2 1 7.69224 3.08008 7.69652 
3 1 6.99357 3.79487 6.98795 
40 1 10.0615 0.72964 10.0242 
41 1 8.50729 2.26356 8.51087 
42 1 9.22391 1.55631 9.20862 
7 1 6.19308 6.1875 4.59217 
8 1 7.71558 7.71482 3.08371 
9 1 7.00695 7.00395 3.78581 
43 1 10.0449 10.0347 0.682064 
44 1 8.54295 8.54226 2.28802 
45 1 9.23698 9.23206 1.55119 
22 1 6.24987 6.2338 6.20981 
23 1 7.80381 7.8267 7.70747 
24 1 7.12475 7.11367 7.01195 
34 1 10.1329 10.0655 9.96313 
35 1 8.41461 8.65074 8.88108 
36 1 9.34048 9.32867 9.16334 
49 2 8.59345 8.52903 10.7148 
50 3 7.76784 8.38676 10.2961 
ITEM: TIMESTEP
110
ITEM: NUMBER OF ATOMS
50
ITEM: BOX BOUNDS pp pp pp
0.0000000000000000e+00 1.1000000000000000e+01
0.0000000000000000e+00 1.1002000000000001e+01
0.0000000000000000e+00 1.1000000000000000e+01
ITEM: ATOMS id type x y z 
10 1 4.61459 4.60917 4.59707 
11 1 3.09039 3.08934 3.09099 
12 1 3.80251 3.8013 3.78961 
46 1 0.722553 0.735926 0.754426 
47 1 2.26903 2.27462 2.2867 
48 1 1.56502 1.56569 1.57478 
19 1 4.55833 4.55022 6.23049 
20 1 3.01251 3.01345 7.75742 
21 1 3.72459 3.71958 7.05621 
31 1 0.700613 0.706817 10.1176 
32 1 2.19633 2.2077 8.58334 
33 1 1.50036 1.50023 9.30232 
16 1 4.55732 6.24371 4.53271 
17 1 3.00268 7.77366 3.0033 
18 1 3.7155 7.06892 3.70569 
25 1 0.670634 10.1037 0.671349 
26 1 2.17782 8.58142 2.19501 
27 1 1.47484 9.29034 1.48533 
4 1 4.62968 6.19057 6.17303 
5 1 3.09747 7.6817 7.68773 
6 1 3.80926 6.98356 6.97571 
37 1 0.775168 10.0697 10.0304 
38 1 2.29382 8.51007 8.50602 
39 1 1.57558 9.21674 9.20329 
13 1 6.25056 4.54743 4.52699 
14 1 7.77793 3.00076 2.99429 
15 1 7.07634 3.70203 3.7108 
28 1 10.0772 0.651255 0.654161 
29 1 8.57636 2.16972 2.17754 
30 1 9.29667 1.46835 1.47796 
1 1 6.19824 4.61575 6.1702 
2 1 7.69291 3.08245 7.69926 
3 1 6.99783 3.79681 6.98735 
40 1 10.0673 0.72666 10.0178 
41 1 8.51178 2.26162 8.50952 
42 1 9.22691 1.55984 9.2119 
7 1 6.19556 6.1877 4.58282 
8 1 7.72412 7.72352 3.0893 
9 1 7.01275 7.00826 3.78526 
43 1 10.0491 10.0361 0.677298 
44 1 8.54757 8.54509 2.29095 
45 1 9.24118 9.23426 1.55002 
22 1 6.25908 6.2358 6.20015 
23 1 7.80895 7.83902 7.69094 
24 1 7.13481 7.12269 6.99079 
34 1 10.1272 10.0638 9.96548 
35 1 8.38166 8.63758 8.90666 
36 1 9.30156 9.31961 9.20479 
49 2 8.54352 8.52342 10.7288 
50 3 7.73033 8.33339 10.3044 
ITEM: TIMESTEP
120
ITEM: NUMBER OF ATOMS
50
ITEM: BOX BOUNDS pp pp pp
0.0000000000000000e+00 1.1000000000000000e+01
0.0000000000000000e+00 1.1002000000000001e+01
0.0000000000000000e+00 1.1000000000000000e+01
ITEM: ATOMS id type x y z 
10 1 4.61663 4.61031 4.59579 
11 1 3.09035 3.09053 3.0901 
12 1 3.80265 3.79945 3.7927 
46 1 0.728664 0.738032 0.752112 
47 1 2.27093 2.27401 2.28461 
48 1 1.56043 1.56742 1.58075 
19 1 4.55987 4.54993 6.23105 
20 1 3.0132 3.01421 7.7577 
21 1 3.72484 3.72086 7.05548 
31 1 0.699267 0.701295 10.119 
32 1 2.20169 2.20929 8.58177 
33 1 1.50033 1.50736 9.2991 
16 1 4.5556 6.24491 4.52986 
17 1 3.00191 7.77208 3.00424 
18 1 3.71726 7.06982 3.7065 
25 1 0.671713 10.1023 0.66997 
26 1 2.17737 8.58159 2.1946 
27 1 1.47392 9.29176 1.48364 
4 1 4.63487 6.18775 6.16892 
5 1 3.09568 7.68469 7.68918 
6 1 3.81271 6.98692 6.98067 
37 1 0.769769 10.0647 10.027 
38 1 2.28883 8.50664 8.50389 
39 1 1.58833 9.22487 9.20647 
13 1 6.25133 4.54364 4.52995 
14 1 7.77744 2.99551 2.99761 
15 1 7.07556 3.70808 3.7036 
28 1 10.0878 0.651086 0.654605 
29 1 8.58227 2.17302 2.18257 
30 1 9.28244 1.4646 1.46866 
1 1 6.20137 4.61717 6.17097 
2 1 7.69404 3.08294 7.69939 
3 1 6.99777 3.79717 6.987 
40 1 10.0683 0.72859 10.0185 
41 1 8.5113 2.26493 8.51119 
42 1 9.22902 1.55675 9.20748 
7 1 6.19766 6.18798 4.58321 
8 1 7.72588 7.7246 3.09155 
9 1 7.01435 7.00969 3.7833 
43 1 10.0511 10.0346 0.678569 
44 1 8.55107 8.54879 2.29004 
45 1 9.24385 9.23517 1.54849 
22 1 6.25978 6.23674 6.19875 
23 1 7.80871 7.84216 7.69026 
24 1 7.14008 7.12707 6.9865 
34 1 10.1234 10.0609 9.9637 
35 1 8.37309 8.63309 8.90662 
36 1 9.28846 9.31517 9.21649 
49 2 8.52876 8.52104 10.7383 
50 3 7.7223 8.31974 10.3036 
ITEM: TIMESTEP
130
ITEM: NUMBER OF ATOMS
50
ITEM: BOX BOUNDS pp pp pp
0.0000000000000000e+00 1.1000000000000000e+01
0.0000000000000000e+00 1.1002000000000001e+01
0.0000000000000000e+00 1.1000000000000000e+01
ITEM: ATOMS id type x y z 
10 1 4.61647 4.6098 4.59564 
11 1 3.09078 3.09089 3.0905 
12 1 3.80246 3.79934 3.79267 
46 1 0.728427 0.737752 0.751868 
47 1 2.27008 2.27369 2.28481 
48 1 1.56111 1.56739 1.57993 
19 1 4.56014 4.55011 6.23115 
20 1 3.01343 3.01455 7.75766 
21 1 3.72506 3.72102 7.05525 
31 1 0.699371 0.701863 10.1191 
32 1 2.20154 2.20981 8.58191 
33 1 1.50045 1.50618 9.29937 
16 1 4.556 6.24508 4.52973 
17 1 3.00145 7.77263 3.00386 
18 1 3.7168 7.06983 3.70616 
25 1 0.671401 10.1028 0.670026 
26 1 2.17687 8.58208 2.19447 
27 1 1.47478 9.29108 1.48359 
4 1 4.63537 6.1881 6.16954 
5 1 3.09616 7.68433 7.68871 
6 1 3.81331 6.98721 6.98094 
37 1 0.769909 10.0648 10.0269 
38 1 2.28888 8.50663 8.50401 
39 1 1.58851 9.22532 9.20646 
13 1 6.25161 4.5438 4.52983 
14 1 7.77776 2.99522 2.99771 
15 1 7.07529 3.70803 3.70298 
28 1 10.0878 0.651518 0.654117 
29 1 8.58202 2.17277 2.18138 
30 1 9.28344 1.46408 1.46984 
1 1 6.20143 4.61755 6.17127 
2 1 7.69383 3.08278 7.69921 
3 1 6.99862 3.79764 6.98747 
40 1 10.0684 0.728811 10.0187 
41 1 8.51122 2.26513 8.51156 
42 1 9.22932 1.55668 9.20662 
7 1 6.19778 6.18798 4.58317 
8 1 7.72617 7.72504 3.0904 
9 1 7.01487 7.00965 3.78518 
43 1 10.0519 10.035 0.678604 
44 1 8.55135 8.54909 2.29015 
45 1 9.24415 9.23523 1.54844 
22 1 6.25996 6.23701 6.19845 
23 1 7.80819 7.84186 7.68936 
24 1 7.14018 7.12716 6.98556 
34 1 10.1228 10.0605 9.96362 
35 1 8.37213 8.63267 8.90756 
36 1 9.28732 9.31498 9.21767 
49 2 8.52668 8.52063 10.7391 
50 3 7.72114 8.31796 10.3038 
ITEM: TIMESTEP
137
ITEM: NUMBER OF ATOMS
50
ITEM: BOX BOUNDS pp pp pp
0.0000000000000000e+00 1.1000000000000000e+01
0.0000000000000000e+00 1.1002000000000001e+01
0.0000000000000000e+00 1.1000000000000000e+01
ITEM: ATOMS id type x y z 
10 1 4.6165 4.60981 4.59567 
11 1 3.09079 3.09088 3.09055 
12 1 3.80247 3.79939 3.79264 
46 1 0.728464 0.737757 0.751822 
47 1 2.27005 2.2737 2.28484 
48 1 1.56114 1.56739 1.57991 
19 1 4.56018 4.55014 6.23112 
20 1 3.01345 3.01458 7.75764 
21 1 3.7251 3.72107 7.05524 
31 1 0.69938 0.701896 10.119 
32 1 2.20153 2.20985 8.58195 
33 1 1.50046 1.50609 9.29934 
16 1 4.55603 6.24511 4.52979 
17 1 3.00144 7.77269 3.00395 
18 1 3.7168 7.0697 3.70601 
25 1 0.671395 10.1028 0.669983 
26 1 2.17684 8.58206 2.19445 
27 1 1.47485 9.29113 1.48362 
4 1 4.63531 6.18814 6.1695 
5 1 3.09619 7.68435 7.68865 
6 1 3.81342 6.98718 6.98103 
37 1 0.76999 10.0648 10.0269 
38 1 2.28898 8.50669 8.50405 
39 1 1.58837 9.22529 9.2064 
13 1 6.2516 4.54382 4.5298 
14 1 7.77776 2.99521 2.99773 
15 1 7.07527 3.70804 3.70294 
28 1 10.0877 0.651569 0.654097 
29 1 8.58201 2.17272 2.18133 
30 1 9.28348 1.46406 1.46983 
1 1 6.20145 4.6175 6.17126 
2 1 7.69385 3.08278 7.6992 
3 1 6.99863 3.79768 6.98751 
40 1 10.0684 0.728827 10.0187 
41 1 8.51123 2.26514 8.51158 
42 1 9.22935 1.55666 9.2066 
7 1 6.19776 6.18798 4.5831 
8 1 7.72619 7.72507 3.09039 
9 1 7.01492 7.00963 3.78522 
43 1 10.052 10.035 0.678608 
44 1 8.55138 8.54912 2.29018 
45 1 9.24418 9.23524 1.54845 
22 1 6.25999 6.23705 6.19844 
23 1 7.80821 7.84193 7.68934 
24 1 7.14025 7.12723 6.98546 
34 1 10.1227 10.0604 9.96361 
35 1 8.37199 8.6326 8.90769 
36 1 9.28713 9.31493 9.21784 
49 2 8.52638 8.52057 10.7392 
50 3 7.72097 8.31771 10.3038 
ITEM: TIMESTEP
140
ITEM: NUMBER OF ATOMS
50
ITEM: BOX BOUNDS pp pp pp
-1.6058521670295686e-03 1.1001605852167030e+01
-1.5552449706672830e-03 1.1003555244970668e+01
-1.6500000000000000e-03 1.1001650000000001e+01
ITEM: ATOMS id type x y z 
10 1 4.61624 4.60956 4.59541 
11 1 3.09009 3.0902 3.08983 
12 1 3.80197 3.79891 3.79211 
46 1 0.727068 0.736406 0.750394 
47 1 2.2691 2.27278 2.28388 
48 1 1.55999 1.56627 1.57873 
19 1 4.55991 4.54987 6.23134 
20 1 3.01273 3.01388 7.75831 
21 1 3.72459 3.72058 7.05571 
31 1 0.697975 0.700538 10.1204 
32 1 2.20057 2.20892 8.58288 
33 1 1.4993 1.50495 9.30047 
16 1 4.55576 6.24532 4.5295 
17 1 3.00071 7.77333 3.0032 
18 1 3.71628 7.07014 3.70548 
25 1 0.669978 10.1041 0.668531 
26 1 2.17586 8.58293 2.19346 
27 1 1.47368 9.2922 1.48241 
4 1 4.63507 6.18833 6.1697 
5 1 3.0955 7.68496 7.68931 
6 1 3.81292 6.98761 6.98147 
37 1 0.768602 10.0661 10.0283 
38 1 2.28803 8.50754 8.50495 
39 1 1.58724 9.22635 9.20752 
13 1 6.25182 4.54355 4.52952 
14 1 7.77842 2.9945 2.99698 
15 1 7.07572 3.70753 3.70241 
28 1 10.0891 0.650195 0.652638 
29 1 8.58292 2.17178 2.18033 
30 1 9.28459 1.46292 1.46862 
1 1 6.20164 4.61726 6.17146 
2 1 7.69449 3.0821 7.69986 
3 1 6.99908 3.79719 6.98795 
40 1 10.0698 0.727477 10.02 
41 1 8.51211 2.26423 8.51248 
42 1 9.23044 1.55554 9.20771 
7 1 6.19797 6.18817 4.58283 
8 1 7.72685 7.7257 3.08967 
9 1 7.01535 7.01006 3.78469 
43 1 10.0533 10.0363 0.67716 
44 1 8.55227 8.54998 2.28921 
45 1 9.24528 9.2363 1.54726 
22 1 6.26021 6.23726 6.19865 
23 1 7.80889 7.84259 7.69 
24 1 7.14073 7.12768 6.9859 
34 1 10.1241 10.0617 9.96495 
35 1 8.37282 8.63349 8.90871 
36 1 9.28823 9.31601 9.21896 
49 2 8.52725 8.52143 10.7408 
50 3 7.72162 8.3185 10.3053 
ITEM: TIMESTEP
150
ITEM: NUMBER OF ATOMS
50
ITEM: BOX BOUNDS pp pp pp
-3.3928891546672045e-03 1.1003392889154668e+01
-1.3450555541665368e-03 1.1003345055554171e+01
-6.0700812674060831e-03 1.1006070081267412e+01
ITEM: ATOMS id type x y z 
10 1 4.61652 4.61015 4.5952 
11 1 3.08946 3.09046 3.08805 
12 1 3.80127 3.7988 3.79061 
46 1 0.725153 0.736154 0.746052 
47 1 2.26775 2.27264 2.28107 
48 1 1.55849 1.56618 1.57527 
19 1 4.56008 4.55036 6.23143 
20 1 3.01221 3.01427 7.75984 
21 1 3.7243 3.72095 7.05673 
31 1 0.69591 0.700204 10.1246 
32 1 2.19936 2.20889 8.58553 
33 1 1.49816 1.50529 9.30337 
16 1 4.55594 6.24481 4.52914 
17 1 3.00016 7.77295 3.00145 
18 1 3.71595 7.06987 3.70433 
25 1 0.667925 10.1044 0.664114 
26 1 2.17465 8.58297 2.19064 
27 1 1.47254 9.29187 1.47935 
4 1 4.63539 6.18779 6.16977 
5 1 3.09496 7.68472 7.69097 
6 1 3.81219 6.98777 6.98271 
37 1 0.76661 10.0663 10.0323 
38 1 2.28675 8.50769 8.50762 
39 1 1.58576 9.22649 9.21076 
13 1 6.25161 4.54406 4.52915 