 # C1
  
          32  atoms
           1  atom types
 
      0.000000000000       6.813100000000  xlo xhi
      0.000000000000       6.813100000000  ylo yhi
      0.000000000000      24.587700000000  zlo zhi
 
Masses
 
            1   12.01100000             # C
 
Atoms # charge
 
         1    1   0.000000        4.595367819000       5.109825000000       6.502709019000
         2    1   0.000000        3.406550000000       1.703275000000      13.344236544000
         3    1   0.000000        3.406550000000       5.109825000000       8.607907893000
         4    1   0.000000        2.217732181000       5.109825000000       6.502709019000
         5    1   0.000000        4.595367819000       1.703275000000      18.084990981000
         6    1   0.000000        3.406550000000       5.109825000000      11.243463456000
         7    1   0.000000        3.406550000000       1.703275000000      15.979792107000
         8    1   0.000000        2.217732181000       1.703275000000      18.084990981000
         9    1   0.000000        3.406550000000       3.921007181000      11.938065981000
        10    1   0.000000        6.813100000000       5.109825000000       5.096538456000
        11    1   0.000000        3.406550000000       5.109825000000       9.832867107000
        12    1   0.000000        3.406550000000       6.298642819000      11.938065981000
        13    1   0.000000        0.000000000000       3.921007181000       0.355784019000
        14    1   0.000000        3.406550000000       5.109825000000       7.197311544000
        15    1   0.000000        0.000000000000       5.109825000000       2.460982893000
        16    1   0.000000        0.000000000000       6.298642819000       0.355784019000
        17    1   0.000000        0.000000000000       2.892092819000      24.231915981000
        18    1   0.000000        3.406550000000       1.703275000000      17.390388456000
        19    1   0.000000        0.000000000000       1.703275000000      22.126717107000
        20    1   0.000000        0.000000000000       0.514457181000      24.231915981000
        21    1   0.000000        3.406550000000       2.892092819000      12.649634019000
        22    1   0.000000        0.000000000000       1.703275000000      19.491161544000
        23    1   0.000000        3.406550000000       1.703275000000      14.754832893000
        24    1   0.000000        3.406550000000       0.514457181000      12.649634019000
        25    1   0.000000        5.624282181000       1.703275000000      18.796559019000
        26    1   0.000000        0.000000000000       5.109825000000       1.050386544000
        27    1   0.000000        0.000000000000       1.703275000000      20.901757893000
        28    1   0.000000        1.188817819000       1.703275000000      18.796559019000
        29    1   0.000000        5.624282181000       5.109825000000       5.791140981000
        30    1   0.000000        0.000000000000       1.703275000000      23.537313456000
        31    1   0.000000        0.000000000000       5.109825000000       3.685942107000
        32    1   0.000000        1.188817819000       5.109825000000       5.791140981000
