ITEM: TIMESTEP
0
ITEM: NUMBER OF ATOMS
32
ITEM: BOX BOUNDS pp pp pp
0.0000000000000000e+00 6.8131000000000004e+00
0.0000000000000000e+00 6.8131000000000004e+00
0.0000000000000000e+00 2.4587700000000002e+01
ITEM: ATOMS id type x y z 
2 1 3.40655 1.70328 13.3442 
5 1 4.59537 1.70328 18.085 
7 1 3.40655 1.70328 15.9798 
8 1 2.21773 1.70328 18.085 
18 1 3.40655 1.70328 17.3904 
21 1 3.40655 2.89209 12.6496 
23 1 3.40655 1.70328 14.7548 
24 1 3.40655 0.514457 12.6496 
17 1 0 2.89209 24.2319 
19 1 0 1.70328 22.1267 
20 1 0 0.514457 24.2319 
22 1 0 1.70328 19.4912 
25 1 5.62428 1.70328 18.7966 
27 1 0 1.70328 20.9018 
28 1 1.18882 1.70328 18.7966 
30 1 0 1.70328 23.5373 
10 1 0 5.10982 5.09654 
13 1 0 3.92101 0.355784 
15 1 0 5.10982 2.46098 
16 1 0 6.29864 0.355784 
26 1 0 5.10982 1.05039 
29 1 5.62428 5.10982 5.79114 
31 1 0 5.10982 3.68594 
32 1 1.18882 5.10982 5.79114 
1 1 4.59537 5.10982 6.50271 
3 1 3.40655 5.10982 8.60791 
4 1 2.21773 5.10982 6.50271 
6 1 3.40655 5.10982 11.2435 
9 1 3.40655 3.92101 11.9381 
11 1 3.40655 5.10982 9.83287 
12 1 3.40655 6.29864 11.9381 
14 1 3.40655 5.10982 7.19731 
ITEM: TIMESTEP
10
ITEM: NUMBER OF ATOMS
32
ITEM: BOX BOUNDS pp pp pp
0.0000000000000000e+00 6.8131000000000004e+00
0.0000000000000000e+00 6.8131000000000004e+00
0.0000000000000000e+00 2.4587700000000002e+01
ITEM: ATOMS id type x y z 
2 1 3.40905 1.70327 13.3296 
5 1 4.61614 1.70328 18.1129 
7 1 3.4116 1.70328 15.9786 
8 1 2.21475 1.70328 18.1038 
18 1 3.43446 1.70327 17.4022 
21 1 3.40702 2.9054 12.6241 
23 1 3.40026 1.70327 14.75 
24 1 3.40702 0.50115 12.6241 
17 1 -0.000556597 2.90489 24.2571 
19 1 0.000910008 1.70327 22.1328 
20 1 -0.000556597 0.501656 24.2571 
22 1 -0.0273726 1.70328 19.4798 
25 1 5.60223 1.70327 18.7691 
27 1 0.0011443 1.70328 20.9011 
28 1 1.19114 1.70328 18.777 
30 1 -0.00156866 1.70328 23.5524 
10 1 -0.0029715 5.10982 5.1097 
13 1 -5.93094e-05 3.90863 0.330964 
15 1 -0.000541778 5.10983 2.46159 
16 1 -5.93094e-05 6.31102 0.330964 
26 1 4.70983e-05 5.10982 1.0364 
29 1 5.60945 5.10982 5.81683 
31 1 0.00161463 5.10983 3.68566 
32 1 1.19933 5.10982 5.81518 
1 1 4.60882 5.10983 6.47694 
3 1 3.41119 5.10983 8.60801 
4 1 2.20592 5.10983 6.4788 
6 1 3.4065 5.10982 11.2575 
9 1 3.40626 3.90821 11.9632 
11 1 3.40375 5.10982 9.83247 
12 1 3.40626 6.31144 11.9632 
14 1 3.40981 5.10983 7.18417 
ITEM: TIMESTEP
20
ITEM: NUMBER OF ATOMS
32
ITEM: BOX BOUNDS pp pp pp
0.0000000000000000e+00 6.8131000000000004e+00
0.0000000000000000e+00 6.8131000000000004e+00
0.0000000000000000e+00 2.4587700000000002e+01
ITEM: ATOMS id type x y z 
2 1 3.40465 1.70328 13.322 
5 1 4.61519 1.70327 18.1121 
7 1 3.41629 1.70328 15.975 
8 1 2.22256 1.70327 18.1166 
18 1 3.45767 1.70328 17.3945 
21 1 3.40575 2.90071 12.6193 
23 1 3.40699 1.70327 14.7493 
24 1 3.40575 0.505841 12.6193 
17 1 0.000566529 2.90116 24.2625 
19 1 -0.000993242 1.70327 22.1326 
20 1 0.000566522 0.505394 24.2625 
22 1 -0.0504989 1.70328 19.486 
25 1 5.60422 1.70328 18.7709 
27 1 -0.00763212 1.70328 20.9073 
28 1 1.18336 1.70328 18.7638 
30 1 0.00130469 1.70328 23.5588 
10 1 -0.0159496 5.10982 5.10912 
13 1 -0.00111136 3.91287 0.326355 
15 1 0.00412399 5.10983 2.45915 
16 1 -0.00111136 6.30678 0.326355 
26 1 -0.00115422 5.10982 1.03521 
29 1 5.61046 5.10982 5.8215 
31 1 -0.00285321 5.10983 3.68601 
32 1 1.18637 5.10982 5.81436 
1 1 4.60867 5.10983 6.47138 
3 1 3.41185 5.10983 8.60749 
4 1 2.21958 5.10983 6.48044 
6 1 3.40617 5.10982 11.2591 
9 1 3.40712 3.91333 11.9672 
11 1 3.40355 5.10982 9.83445 
12 1 3.40712 6.30632 11.9672 
14 1 3.42241 5.10983 7.18528 
ITEM: TIMESTEP
30
ITEM: NUMBER OF ATOMS
32
ITEM: BOX BOUNDS pp pp pp
0.0000000000000000e+00 6.8131000000000004e+00
0.0000000000000000e+00 6.8131000000000004e+00
0.0000000000000000e+00 2.4587700000000002e+01
ITEM: ATOMS id type x y z 
2 1 3.40217 1.70333 13.3225 
5 1 4.61808 1.70327 18.1117 
7 1 3.4209 1.70334 15.974 
8 1 2.22618 1.70327 18.1198 
18 1 3.455 1.70328 17.3982 
21 1 3.40573 2.90067 12.6165 
23 1 3.40946 1.70316 14.7467 
24 1 3.40573 0.505877 12.6165 
17 1 0.000405248 2.90068 24.265 
19 1 -0.00434984 1.70319 22.1351 
20 1 0.000405028 0.505887 24.265 
22 1 -0.0478787 1.70329 19.4834 
25 1 5.60118 1.70328 18.7713 
27 1 -0.0119505 1.70329 20.9072 
28 1 1.18009 1.70328 18.7604 
30 1 0.00457996 1.70331 23.559 
10 1 -0.0330993 5.10982 5.10812 
13 1 -7.31389e-05 3.91351 0.324369 
15 1 -0.00328522 5.10983 2.45895 
16 1 -7.30417e-05 6.30614 0.32437 
26 1 0.00186392 5.10981 1.0321 
29 1 5.60677 5.10982 5.8228 
31 1 -0.00251955 5.10982 3.68254 
32 1 1.18637 5.10982 5.81935 
1 1 4.61225 5.10983 6.47001 
3 1 3.41128 5.10983 8.6115 
4 1 2.2196 5.10983 6.47563 
6 1 3.40329 5.10982 11.2618 
9 1 3.40595 3.91351 11.9695 
11 1 3.41116 5.10982 9.83482 
12 1 3.40595 6.30614 11.9695 
14 1 3.4398 5.10983 7.18576 
ITEM: TIMESTEP
40
ITEM: NUMBER OF ATOMS
32
ITEM: BOX BOUNDS pp pp pp
0.0000000000000000e+00 6.8131000000000004e+00
0.0000000000000000e+00 6.8131000000000004e+00
0.0000000000000000e+00 2.4587700000000002e+01
ITEM: ATOMS id type x y z 
2 1 3.40054 1.70384 13.3218 
5 1 4.61858 1.70329 18.1111 
7 1 3.42377 1.70345 15.9731 
8 1 2.2269 1.70331 18.1217 
18 1 3.45621 1.70354 17.3982 
21 1 3.40461 2.90001 12.6151 
23 1 3.4124 1.70213 14.747 
24 1 3.40461 0.506803 12.6151 
17 1 0.00153054 2.89998 24.2664 
19 1 -0.005761 1.70277 22.1346 
20 1 0.00153138 0.506792 24.2664 
22 1 -0.0489998 1.70345 19.4834 
25 1 5.60073 1.70328 18.772 
27 1 -0.0159146 1.70324 20.9083 
28 1 1.17943 1.7033 18.7584 
30 1 0.00562538 1.70368 23.5597 
10 1 -0.0469737 5.10953 5.10488 
13 1 0.000251765 3.9137 0.32295 
15 1 -0.00282666 5.11118 2.45485 
16 1 0.000251683 6.30557 0.323071 
26 1 0.00186844 5.10913 1.03003 
29 1 5.60446 5.1098 5.82174 
31 1 -0.00777115 5.10955 3.68048 
32 1 1.18274 5.1098 5.82347 
1 1 4.6146 5.10984 6.47092 
3 1 3.41666 5.10975 8.61344 
4 1 2.22328 5.10984 6.47166 
6 1 3.4035 5.10962 11.2639 
9 1 3.40562 3.91388 11.9708 
11 1 3.41014 5.10999 9.83902 
12 1 3.40562 6.30573 11.9708 
14 1 3.45377 5.10982 7.18896 
ITEM: TIMESTEP
50
ITEM: NUMBER OF ATOMS
32
ITEM: BOX BOUNDS pp pp pp
0.0000000000000000e+00 6.8131000000000004e+00
0.0000000000000000e+00 6.8131000000000004e+00
0.0000000000000000e+00 2.4587700000000002e+01
ITEM: ATOMS id type x y z 
2 1 3.39924 1.70407 13.3213 
5 1 4.61897 1.70342 18.1106 
7 1 3.42783 1.70322 15.9727 
8 1 2.22741 1.70353 18.1229 
18 1 3.45677 1.70342 17.3982 
21 1 3.40348 2.89924 12.6141 
23 1 3.41457 1.70238 14.747 
24 1 3.40348 0.507851 12.6141 
17 1 0.00255657 2.89919 24.2674 
19 1 -0.0076403 1.7029 22.1344 
20 1 0.00255846 0.507776 24.2674 
22 1 -0.049614 1.70323 19.4833 
25 1 5.60036 1.70329 18.7725 
27 1 -0.0200754 1.70327 20.9089 
28 1 1.17891 1.70339 18.7572 
30 1 0.0069955 1.704 23.5602 
10 1 -0.0484612 5.10953 5.10494 
13 1 0.00133725 3.91391 0.321722 
15 1 -0.00526765 5.11045 2.45328 
16 1 0.00134431 6.30517 0.321671 
26 1 0.0029853 5.10904 1.02836 
29 1 5.60266 5.10968 5.81894 
31 1 -0.0132276 5.11011 3.68029 
32 1 1.18002 5.10967 5.8276 
1 1 4.61644 5.1098 6.47357 
3 1 3.42208 5.11019 8.61358 
4 1 2.22602 5.10977 6.46764 
6 1 3.40254 5.10916 11.2655 
9 1 3.40449 3.91394 11.9722 
11 1 3.4124 5.11023 9.84064 
12 1 3.40449 6.3052 11.9721 
14 1 3.45536 5.10959 7.18895 
ITEM: TIMESTEP
60
ITEM: NUMBER OF ATOMS
32
ITEM: BOX BOUNDS pp pp pp
0.0000000000000000e+00 6.8131000000000004e+00
0.0000000000000000e+00 6.8131000000000004e+00
0.0000000000000000e+00 2.4587700000000002e+01
ITEM: ATOMS id type x y z 
2 1 3.39497 1.70577 13.3201 
5 1 4.61963 1.7033 18.1099 
7 1 3.44544 1.70382 15.9722 
8 1 2.2285 1.7032 18.1248 
18 1 3.45936 1.70293 17.3987 
21 1 3.39771 2.89755 12.6113 
23 1 3.42202 1.70481 14.7466 
24 1 3.39766 0.511125 12.611 
17 1 0.00828285 2.89722 24.2704 
19 1 -0.0151457 1.70641 22.135 
20 1 0.00834531 0.510734 24.2704 
22 1 -0.0521118 1.70195 19.4828 
25 1 5.59969 1.70337 18.7732 
27 1 -0.0380008 1.70401 20.9093 
28 1 1.17787 1.70293 18.7553 
30 1 0.0119141 1.70517 23.5615 
10 1 -0.052291 5.10979 5.1046 
13 1 0.00695906 3.9142 0.317628 
15 1 -0.0161798 5.10945 2.45208 
16 1 0.00699034 6.30292 0.317618 
26 1 0.00727751 5.10725 1.0252 
29 1 5.59743 5.10974 5.81094 
31 1 -0.03581 5.10973 3.6777 
32 1 1.17537 5.1101 5.83679 
1 1 4.62177 5.10938 6.481 
3 1 3.44403 5.11049 8.61624 
4 1 2.23094 5.10939 6.45885 
6 1 3.39844 5.10564 11.2687 
9 1 3.39865 3.91399 11.9763 
11 1 3.42312 5.11152 9.84184 
12 1 3.39862 6.3027 11.9761 
14 1 3.45955 5.10902 7.18934 
ITEM: TIMESTEP
70
ITEM: NUMBER OF ATOMS
32
ITEM: BOX BOUNDS pp pp pp
0.0000000000000000e+00 6.8131000000000004e+00
0.0000000000000000e+00 6.8131000000000004e+00
0.0000000000000000e+00 2.4587700000000002e+01
ITEM: ATOMS id type x y z 
2 1 3.39247 1.71316 13.3215 
5 1 4.61861 1.70265 18.1115 
7 1 3.44927 1.70474 15.9729 
8 1 2.22757 1.70244 18.1227 
18 1 3.45943 1.70305 17.3991 
21 1 3.39557 2.90178 12.6117 
23 1 3.42268 1.70609 14.7473 
24 1 3.39551 0.513757 12.6141 
17 1 0.0106313 2.90109 24.27 
19 1 -0.0152035 1.70744 22.1347 
20 1 0.0107305 0.512881 24.2675 
22 1 -0.0522251 1.70293 19.4825 
25 1 5.60069 1.70339 18.7715 
27 1 -0.0421103 1.70255 20.9083 
28 1 1.17876 1.70275 18.7574 
30 1 0.014048 1.7118 23.5603 
10 1 -0.0516824 5.11065 5.10493 
13 1 0.00918795 3.91209 0.318749 
15 1 -0.0171107 5.10794 2.45337 
16 1 0.00918118 6.30055 0.319696 
26 1 0.0079181 5.10028 1.0277 
29 1 5.60009 5.10991 5.8151 
31 1 -0.0394028 5.10925 3.67914 
32 1 1.17953 5.10951 5.82979 
1 1 4.61908 5.10971 6.47686 
3 1 3.44759 5.10967 8.61473 
4 1 2.22678 5.10979 6.46572 
6 1 3.39706 5.09769 11.266 
9 1 3.39657 3.91202 11.9746 
11 1 3.4244 5.10779 9.84044 
12 1 3.39649 6.30029 11.9744 
14 1 3.45893 5.10998 7.18884 
ITEM: TIMESTEP
80
ITEM: NUMBER OF ATOMS
32
ITEM: BOX BOUNDS pp pp pp
0.0000000000000000e+00 6.8131000000000004e+00
0.0000000000000000e+00 6.8131000000000004e+00
0.0000000000000000e+00 2.4587700000000002e+01
ITEM: ATOMS id type x y z 
2 1 3.3896 1.73881 13.3243 
5 1 4.61857 1.70281 18.1125 
7 1 3.45127 1.70508 15.9762 
8 1 2.22815 1.70271 18.1228 
18 1 3.46065 1.70179 17.4015 
21 1 3.39356 2.90727 12.6132 
23 1 3.42424 1.71153 14.7505 
24 1 3.39353 0.521642 12.6166 
17 1 0.012208 2.90597 24.2683 
19 1 -0.0175491 1.71092 22.1304 
20 1 0.0122667 0.520374 24.2651 
22 1 -0.0538768 1.70138 19.48 
25 1 5.60089 1.70247 18.7704 
27 1 -0.043886 1.70488 20.9035 
28 1 1.17841 1.70196 18.7574 
30 1 0.0181956 1.74226 23.5561 
10 1 -0.0529635 5.11121 5.10762 
13 1 0.0106785 3.90696 0.320468 
15 1 -0.0184252 5.1037 2.4579 
16 1 0.0106907 6.29414 0.321136 
26 1 0.00934069 5.06925 1.03211 
29 1 5.60051 5.1102 5.81679 
31 1 -0.0421639 5.10787 3.68309 
32 1 1.17892 5.11116 5.83119 
1 1 4.61858 5.11021 6.47517 
3 1 3.4505 5.1076 8.61182 
4 1 2.22745 5.10981 6.4644 
6 1 3.39549 5.07191 11.2623 
9 1 3.39522 3.90576 11.9735 
11 1 3.42559 5.10207 9.83773 
12 1 3.39515 6.29411 11.9731 
14 1 3.46022 5.11179 7.18594 
ITEM: TIMESTEP
90
ITEM: NUMBER OF ATOMS
32
ITEM: BOX BOUNDS pp pp pp
0.0000000000000000e+00 6.8131000000000004e+00
0.0000000000000000e+00 6.8131000000000004e+00
0.0000000000000000e+00 2.4587700000000002e+01
ITEM: ATOMS id type x y z 
2 1 3.38767 1.75448 13.3293 
5 1 4.61802 1.70192 18.1131 
7 1 3.45365 1.70793 15.9791 
8 1 2.22817 1.70126 18.1241 
18 1 3.46266 1.69944 17.4045 
21 1 3.39189 2.91317 12.6164 
23 1 3.42437 1.71977 14.7537 
24 1 3.39178 0.525306 12.6118 
17 1 0.0144407 2.91274 24.2643 
19 1 -0.0176215 1.71882 22.1274 
20 1 0.0140552 0.525316 24.2699 
22 1 -0.0553206 1.69946 19.4764 
25 1 5.60113 1.70165 18.7694 
27 1 -0.0471325 1.70708 20.9019 
28 1 1.17855 1.70061 18.756 
30 1 0.0202789 1.75465 23.5518 
10 1 -0.0547251 5.11399 5.11086 
13 1 0.0121562 3.90057 0.32457 
15 1 -0.0195055 5.09478 2.46053 
16 1 0.0123937 6.28924 0.316151 
26 1 0.00943175 5.0574 1.03555 
29 1 5.6006 5.11106 5.81786 
31 1 -0.044334 5.1048 3.68622 
32 1 1.17832 5.11233 5.83196 
1 1 4.61821 5.11109 6.47433 
3 1 3.45276 5.10481 8.60816 
4 1 2.22793 5.11149 6.4638 
6 1 3.39467 5.05702 11.2586 
9 1 3.39387 3.89997 11.9703 
11 1 3.42651 5.0938 9.83377 
12 1 3.3937 6.28952 11.9775 
14 1 3.46245 5.11415 7.18384 
ITEM: TIMESTEP
100
ITEM: NUMBER OF ATOMS
32
ITEM: BOX BOUNDS pp pp pp
0.0000000000000000e+00 6.8131000000000004e+00
0.0000000000000000e+00 6.8131000000000004e+00
0.0000000000000000e+00 2.4587700000000002e+01
ITEM: ATOMS id type x y z 
2 1 3.38361 1.75726 13.3306 
5 1 4.61796 1.69872 18.1142 
7 1 3.45846 1.71494 15.9805 
8 1 2.22896 1.69671 18.1254 
18 1 3.46371 1.69528 17.4057 
21 1 3.38901 2.91599 12.6228 
23 1 3.42352 1.73441 14.7555 
24 1 3.38665 0.52556 12.6077 
17 1 0.0177729 2.91603 24.2586 
19 1 -0.0168167 1.73161 22.1265 
20 1 0.0198293 0.526105 24.2731 
22 1 -0.0567792 1.6944 19.4756 
25 1 5.60145 1.69825 18.768 
27 1 -0.0521007 1.7165 20.9002 
28 1 1.17763 1.69627 18.755 
30 1 0.0253097 1.75748 23.5507 
10 1 -0.0561937 5.11781 5.11204 
13 1 0.0131842 3.89697 0.329733 
15 1 -0.0214502 5.07965 2.46088 
16 1 0.0149137 6.28759 0.313587 
26 1 0.0109227 5.05614 1.03668 
29 1 5.6012 5.11444 5.81891 
31 1 -0.0486321 5.09815 3.68717 
32 1 1.17755 5.11672 5.8333 
1 1 4.61799 5.11463 6.4731 
3 1 3.45733 5.09785 8.60782 
4 1 2.22877 5.11666 6.46284 
6 1 3.39294 5.05611 11.2575 
9 1 3.39203 3.89675 11.9644 
11 1 3.42785 5.07904 9.8323 
12 1 3.39073 6.28775 11.9807 
14 1 3.46369 5.11782 7.18212 
ITEM: TIMESTEP
110
ITEM: NUMBER OF ATOMS
32
ITEM: BOX BOUNDS pp pp pp
0.0000000000000000e+00 6.8131000000000004e+00
0.0000000000000000e+00 6.8131000000000004e+00
0.0000000000000000e+00 2.4587700000000002e+01
ITEM: ATOMS id type x y z 
2 1 3.38258 1.75788 13.3306 
5 1 4.618 1.69787 18.1143 
7 1 3.45886 1.71619 15.9806 
8 1 2.22863 1.69582 18.1255 
18 1 3.46382 1.69497 17.4058 
21 1 3.38851 2.91592 12.6228 
23 1 3.42352 1.73515 14.7553 
24 1 3.3861 0.526173 12.6084 
17 1 0.018261 2.91601 24.2586 
19 1 -0.016224 1.73481 22.1259 
20 1 0.0204976 0.526141 24.273 
22 1 -0.0569856 1.69469 19.4756 
25 1 5.60146 1.69779 18.7679 
27 1 -0.0526449 1.71515 20.9007 
28 1 1.17781 1.69575 18.755 
30 1 0.0261436 1.75752 23.5507 
10 1 -0.0561717 5.11842 5.11204 
13 1 0.0135999 3.897 0.329633 
15 1 -0.0216075 5.07792 2.46135 
16 1 0.0154305 6.28737 0.313833 
26 1 0.0108326 5.05604 1.03654 
29 1 5.60124 5.11514 5.81894 
31 1 -0.049121 5.09735 3.68681 
32 1 1.17769 5.11732 5.83338 
1 1 4.61799 5.11518 6.47302 
3 1 3.45794 5.09714 8.60733 
4 1 2.22863 5.11728 6.46278 
6 1 3.39272 5.0557 11.2575 
9 1 3.39169 3.89694 11.9644 
11 1 3.42787 5.07725 9.83271 
12 1 3.39027 6.28726 11.9802 
14 1 3.46366 5.11844 7.18211 
ITEM: TIMESTEP
120
ITEM: NUMBER OF ATOMS
32
ITEM: BOX BOUNDS pp pp pp
0.0000000000000000e+00 6.8131000000000004e+00
0.0000000000000000e+00 6.8131000000000004e+00
0.0000000000000000e+00 2.4587700000000002e+01
ITEM: ATOMS id type x y z 
2 1 3.3761 1.75902 13.3308 
5 1 4.61778 1.69389 18.1144 
7 1 3.46102 1.7209 15.9806 
8 1 2.22837 1.69203 18.1256 
18 1 3.464 1.69189 17.4057 
21 1 3.38451 2.91557 12.6224 
23 1 3.42306 1.74241 14.7553 
24 1 3.38188 0.526124 12.609 
17 1 0.0225232 2.91564 24.259 
19 1 -0.0151635 1.74453 22.126 
20 1 0.0248894 0.525795 24.2728 
22 1 -0.0575179 1.69133 19.4758 
25 1 5.60159 1.69382 18.7675 
27 1 -0.0547076 1.71818 20.901 
28 1 1.17777 1.69199 18.7552 
30 1 0.0340686 1.75829 23.5506 
10 1 -0.0561812 5.12198 5.11178 
13 1 0.0158501 3.89743 0.328677 
15 1 -0.023402 5.06896 2.46123 
16 1 0.0180617 6.28769 0.314297 
26 1 0.010397 5.05498 1.03617 
29 1 5.60149 5.11939 5.81914 
31 1 -0.0513425 5.09304 3.68656 
32 1 1.17781 5.12126 5.83332 
1 1 4.6178 5.11921 6.47262 
3 1 3.46058 5.09281 8.6073 
4 1 2.22856 5.12124 6.46302 
6 1 3.39179 5.05444 11.2575 
9 1 3.3892 3.89745 11.9653 
11 1 3.42931 5.06885 9.83279 
12 1 3.38714 6.28753 11.9793 
14 1 3.46378 5.12191 7.18241 
ITEM: TIMESTEP
121
ITEM: NUMBER OF ATOMS
32
ITEM: BOX BOUNDS pp pp pp
0.0000000000000000e+00 6.8131000000000004e+00
0.0000000000000000e+00 6.8131000000000004e+00
0.0000000000000000e+00 2.4587700000000002e+01
ITEM: ATOMS id type x y z 
2 1 3.37597 1.75908 13.3308 
5 1 4.61778 1.69377 18.1144 
7 1 3.46105 1.72111 15.9806 
8 1 2.22836 1.6919 18.1256 
18 1 3.46401 1.69182 17.4057 
21 1 3.38441 2.91554 12.6224 
23 1 3.42303 1.74245 14.7553 
24 1 3.38176 0.526128 12.609 
17 1 0.0226115 2.91563 24.259 
19 1 -0.0151562 1.74481 22.126 
20 1 0.0249792 0.525789 24.2728 
22 1 -0.0575424 1.69137 19.4758 
25 1 5.60159 1.69376 18.7675 
27 1 -0.0547223 1.71802 20.901 
28 1 1.17778 1.69192 18.7553 
30 1 0.0342728 1.75826 23.5506 
10 1 -0.0561741 5.12204 5.11178 
13 1 0.0159117 3.89744 0.328655 
15 1 -0.0234395 5.06883 2.46122 
16 1 0.0181045 6.28768 0.314308 
26 1 0.0103672 5.05499 1.03615 
29 1 5.6015 5.11948 5.81914 
31 1 -0.0513746 5.093 3.68654 
32 1 1.17782 5.12133 5.83332 
1 1 4.6178 5.11928 6.47261 
3 1 3.46062 5.09277 8.6073 
4 1 2.22856 5.12131 6.46302 
6 1 3.39178 5.05438 11.2575 
9 1 3.38914 3.89745 11.9653 
11 1 3.42933 5.06873 9.83278 
12 1 3.38711 6.28754 11.9793 
14 1 3.46378 5.12197 7.18241 
ITEM: TIMESTEP
130
ITEM: NUMBER OF ATOMS
32
ITEM: BOX BOUNDS pp pp pp
0.0000000000000000e+00 6.8131000000000004e+00
0.0000000000000000e+00 6.8131000000000004e+00
0.0000000000000000e+00 2.4587700000000002e+01
ITEM: ATOMS id type x y z 
2 1 3.36722 1.75918 13.3307 
5 1 4.61749 1.6898 18.1145 
7 1 3.46316 1.7239 15.9802 
8 1 2.228 1.68783 18.1254 
18 1 3.46378 1.68832 17.4058 
21 1 3.37859 2.91487 12.622 
23 1 3.42072 1.74924 14.7554 
24 1 3.37736 0.525275 12.6088 
17 1 0.0283344 2.91502 24.2596 
19 1 6.80174 1.75107 22.1262 
20 1 0.0317231 0.52545 24.2726 
22 1 6.75576 1.68652 19.476 
25 1 5.60156 1.68905 18.7673 
27 1 6.75553 1.72176 20.9014 
28 1 1.17775 1.68784 18.7557 
30 1 0.0451026 1.75836 23.5506 
10 1 6.75728 5.12575 5.1114 
13 1 0.0187059 3.89783 0.327536 
15 1 6.78714 5.06264 2.46088 
16 1 0.019268 6.28769 0.314708 
26 1 0.00783931 5.05465 1.03536 
29 1 5.60174 5.12406 5.81917 
31 1 6.76048 5.09115 3.68609 
32 1 1.17802 5.12505 5.83315 
1 1 4.61771 5.12324 6.4722 
3 1 3.46259 5.09055 8.60763 
4 1 2.2284 5.12511 6.46336 
6 1 3.39279 5.05346 11.2577 
9 1 3.38622 3.89775 11.9666 
11 1 3.43086 5.06274 9.8328 
12 1 3.38294 6.28852 11.9794 
14 1 3.46379 5.12593 7.18297 
ITEM: TIMESTEP
140
ITEM: NUMBER OF ATOMS
32
ITEM: BOX BOUNDS pp pp pp
0.0000000000000000e+00 6.8131000000000004e+00
0.0000000000000000e+00 6.8131000000000004e+00
0.0000000000000000e+00 2.4587700000000002e+01
ITEM: ATOMS id type x y z 
2 1 3.33051 1.75671 13.3315 
5 1 4.61635 1.6798 18.1146 
7 1 3.46568 1.72255 15.9801 
8 1 2.22686 1.67862 18.127 
18 1 3.46463 1.67803 17.4039 
21 1 3.35944 2.9138 12.621 
23 1 3.41231 1.76647 14.7558 
24 1 3.3621 0.524647 12.6111 
17 1 0.0523085 2.91293 24.261 
19 1 6.81687 1.7617 22.1268 
20 1 0.056973 0.523337 24.2702 
22 1 6.75391 1.66874 19.4767 
25 1 5.60159 1.67572 18.767 
27 1 6.75118 1.72975 20.9026 
28 1 1.17661 1.67615 18.756 
30 1 0.0861784 1.76242 23.5476 
10 1 6.7585 5.13723 5.10935 
13 1 0.0219234 3.89807 0.324831 
15 1 6.77709 5.05054 2.46054 
16 1 0.0222335 6.28959 0.316143 
26 1 -0.0132843 5.05212 1.03409 
29 1 5.60208 5.13576 5.81888 
31 1 6.75961 5.08916 3.68577 
32 1 1.17897 5.13678 5.83277 
1 1 4.61808 5.13494 6.4711 
3 1 3.46573 5.08762 8.60914 
4 1 2.22833 5.13684 6.46468 
6 1 3.40044 5.05405 11.2591 
9 1 3.37931 3.89863 11.9685 
11 1 3.43726 5.05025 9.83413 
12 1 3.37584 6.28889 11.9774 
14 1 3.46398 5.13776 7.18379 
ITEM: TIMESTEP
150
ITEM: NUMBER OF ATOMS
32
ITEM: BOX BOUNDS pp pp pp
0.0000000000000000e+00 6.8131000000000004e+00
0.0000000000000000e+00 6.8131000000000004e+00
0.0000000000000000e+00 2.4587700000000002e+01
ITEM: ATOMS id type x y z 
2 1 3.05731 1.75116 13.3521 
5 1 4.61048 1.59071 18.1123 
7 1 3.48024 1.76352 15.9702 
8 1 2.21698 1.59184 18.1286 
18 1 3.45413 1.60359 17.3906 
21 1 3.19828 2.89961 12.6157 
23 1 3.3363 1.8442 14.7572 
24 1 3.21555 0.514774 12.6294 
17 1 0.234144 2.90048 24.2689 
19 1 6.93391 1.84408 22.125 
20 1 0.232988 0.510525 24.2575 
22 1 6.74937 1.55903 19.5125 
25 1 5.5995 1.57603 18.7684 
27 1 6.73595 1.76172 20.925 
28 1 1.17326 1.57801 18.7662 
30 1 0.426189 1.74703 23.531 
10 1 6.77618 5.22534 5.08731 
13 1 0.0425148 3.89466 0.307654 
15 1 6.6953 4.97839 2.44171 
16 1 0.0440375 6.3095 0.311649 
26 1 -0.18281 5.06931 1.01651 
29 1 5.60893 5.2249 5.81132 
31 1 6.75051 5.07 3.66243 
32 1 1.18583 5.22586 5.82966 
1 1 4.61904 5.22525 6.46653 
3 1 3.48996 5.06468 8.62099 
4 1 2.22871 5.22624 6.47498 
6 1 3.48009 5.05607 11.2659 
9 1 3.33228 3.90271 11.986 
11 1 3.48599 4.9699 9.84075 
12 1 3.33862 6.30204 11.97 
14 1 3.45983 5.22842 7.19917 
ITEM: TIMESTEP
160
ITEM: NUMBER OF ATOMS
32
ITEM: BOX BOUNDS pp pp pp
-1.7468027790380027e-03 6.8148468027790399e+00
-1.5572969900501975e-03 6.8146572969900499e+00
-1.2293850000000007e-02 2.4599993849999986e+01
ITEM: ATOMS id type x y z 
2 1 3.05713 1.7504 13.3532 
5 1 4.61109 1.58988 18.1181 
7 1 3.48027 1.76278 15.9739 
8 1 2.21637 1.59101 18.1344 
18 1 3.45415 1.60277 17.3957 
21 1 3.19818 2.89938 12.616 
23 1 3.33626 1.84348 14.7597 
24 1 3.21545 0.513437 12.6297 
17 1 0.232518 2.90024 24.2809 
19 1 0.119132 1.84336 22.1349 
20 1 0.23137 0.509256 24.2694 
22 1 6.75109 1.55818 19.5197 
25 1 5.60062 1.57519 18.7749 
27 1 6.73766 1.76097 20.9336 
28 1 1.17212 1.57717 18.7727 
30 1 0.424663 1.74628 23.5422 
10 1 6.77791 5.22617 5.08009 
13 1 0.0407881 3.89489 0.295673 
15 1 6.69699 4.97912 2.43186 
16 1 0.0423056 6.31079 0.299691 
26 1 6.63194 5.07006 1.00523 
29 1 5.61006 5.22573 5.80483 
31 1 6.75223 5.07076 3.65379 
32 1 1.1847 5.22669 5.8232 
1 1 4.61966 5.22608 6.4607 
3 1 3.49 5.06544 8.61731 
4 1 2.22809 5.22708 6.46916 
6 1 3.48014 5.05682 11.2649 
9 1 3.33223 3.90293 11.9857 
11 1 3.48603 4.97062 9.83831 
12 1 3.33859 6.30338 11.9697 
14 1 3.45986 5.22925 7.19407 
ITEM: TIMESTEP
170
ITEM: NUMBER OF ATOMS
32
ITEM: BOX BOUNDS pp pp pp
-3.6596879143196400e-03 6.8167596879143222e+00
-3.2040574851310640e-03 6.8163040574851301e+00
-2.4587700000000028e-02 2.4612287699999971e+01
ITEM: ATOMS id type x y z 
2 1 3.05692 1.74959 13.3542 
5 1 4.61177 1.589 18.1239 
7 1 3.48031 1.76199 15.9775 
8 1 2.21568 1.59013 18.1403 
18 1 3.45417 1.6019 17.4008 
21 1 3.19807 2.89914 12.6163 
23 1 3.33622 1.84271 14.7622 
24 1 3.21534 0.512014 12.63 
17 1 0.230738 2.89997 24.2928 
19 1 0.117297 1.8426 22.1448 
20 1 0.229599 0.507922 24.2814 
22 1 6.75297 1.55729 19.5269 
25 1 5.60186 1.57431 18.7814 
27 1 6.73953 1.76018 20.9422 
28 1 1.17088 1.57629 18.7792 
30 1 0.422989 1.74548 23.5535 
10 1 6.77981 5.22705 5.07288 
13 1 0.0388966 3.89514 0.283694 
15 1 6.69884 4.97989 2.42203 
16 1 0.0404084 6.31215 0.287737 
26 1 6.63375 5.07085 0.993955 
29 1 5.6113 5.22661 5.79835 
31 1 6.7541 5.07156 3.64514 
32 1 1.18347 5.22757 5.81675 
1 1 4.62034 5.22697 6.45488 
3 1 3.49004 5.06624 8.61364 
4 1 2.22741 5.22796 6.46333 
6 1 3.48019 5.05763 11.2639 
9 1 3.33218 3.90317 11.9854 
11 1 3.48608 4.97138 9.83585 
12 1 3.33855 6.30481 11.9694 
14 1 3.45989 5.23013 7.18898 
ITEM: TIMESTEP
180
ITEM: NUMBER OF ATOMS
32
ITEM: BOX BOUNDS pp pp pp
-5.8256659933448298e-03 6.8189256659933468e+00
-4.9768277990297231e-03 6.8180768277990271e+00
-3.6881550000000041e-02 2.4624581549999956e+01
ITEM: ATOMS id type x y z 
2 1 3.0567 1.74872 13.3553 
5 1 4.61253 1.58805 18.1297 
7 1 3.48034 1.76114 15.9811 
8 1 2.2149 1.58919 18.1461 
18 1 3.4542 1.60096 17.4059 
21 1 3.19795 2.89888 12.6167 
23 1 3.33618 1.84188 14.7647 
24 1 3.21522 0.51047 12.6303 
17 1 0.228723 2.89968 24.3048 
19 1 0.115218 1.84178 22.1547 
20 1 0.227594 0.506495 24.2933 
22 1 6.75511 1.55633 19.5341 
25 1 5.60326 1.57335 18.7879 
27 1 6.74165 1.75932 20.9509 
28 1 1.16948 1.57533 18.7856 
30 1 0.421087 1.74461 23.5647 
10 1 6.78196 5.22799 5.06566 
13 1 0.0367537 3.89542 0.27172 
15 1 6.70093 4.98072 2.41221 
16 1 0.0382593 6.3136 0.275788 
26 1 6.63579 5.0717 0.982684 
29 1 5.61271 5.22755 5.79186 
31 1 6.75623 5.07242 3.63645 
32 1 1.18209 5.22851 5.8103 
1 1 4.62111 5.22791 6.44905 
3 1 3.4901 5.0671 8.60999 
4 1 2.22663 5.2289 6.45749 
6 1 3.48025 5.0585 11.2628 
9 1 3.33212 3.90342 11.9851 
11 1 3.48614 4.97221 9.83337 
12 1 3.3385 6.30636 11.9691 
14 1 3.45991 5.23108 7.18389 
ITEM: TIMESTEP
190
ITEM: NUMBER OF ATOMS
32
ITEM: BOX BOUNDS pp pp pp
-8.3825609559309879e-03 6.8214825609559329e+00
-6.9332927264331374e-03 6.8200332927264302e+00
-4.9175400000000050e-02 2.4636875399999941e+01
ITEM: ATOMS id type x y z 
2 1 3.05643 1.74775 13.3564 
5 1 4.61343 1.58701 18.1355 
7 1 3.48038 1.7602 15.9847 
8 1 2.21395 1.58814 18.152 
18 1 3.45422 1.59993 17.4109 
21 1 3.19781 2.8986 12.617 
23 1 3.33613 1.84097 14.7672 
24 1 3.21507 0.508748 12.6306 
17 1 0.226345 2.89934 24.3168 
19 1 0.112763 1.84086 22.1646 
20 1 0.225228 0.504931 24.3052 
22 1 6.75763 1.55526 19.5413 
25 1 5.60491 1.5723 18.7943 
27 1 6.74416 1.75838 20.9595 
28 1 1.16785 1.57428 18.7921 
30 1 0.418837 1.74366 23.5759 
10 1 6.78451 5.22904 5.05844 
13 1 0.0342221 3.89574 0.259753 
15 1 6.7034 4.98165 2.40241 
16 1 0.0357214 6.31519 0.263848 
26 1 6.63822 5.07264 0.971418 
29 1 5.61436 5.2286 5.78537 
31 1 6.75873 5.07337 3.62774 
32 1 1.18047 5.22956 5.80387 
1 1 4.62202 5.22896 6.44323 
3 1 3.49016 5.06805 8.60638 
4 1 2.22569 5.22995 6.45163 
6 1 3.48031 5.05946 11.2618 
9 1 3.33204 3.9037 11.9848 
11 1 3.4862 4.97312 9.83086 
12 1 3.33845 6.30809 11.9688 
14 1 3.45994 5.23212 7.17881 
ITEM: TIMESTEP
200
ITEM: NUMBER OF ATOMS
32
ITEM: BOX BOUNDS pp pp pp
-1.1555244582219836e-02 6.8246552445822202e+00
-9.1585022563964169e-03 6.8222585022563935e+00
-6.1357794954901082e-02 2.4649057794954832e+01
ITEM: ATOMS id type x y z 
2 1 3.0561 1.74665 13.3574 
5 1 4.61456 1.58582 18.1413 
7 1 3.48042 1.75915 15.9882 
8 1 2.21276 1.58695 18.1578 
18 1 3.45423 1.59876 17.416 
21 1 3.19763 2.89827 12.6173 
23 1 3.33607 1.83991 14.7698 
24 1 3.2149 0.506763 12.6308 
17 1 0.223395 2.89895 24.3286 
19 1 0.109715 1.83981 22.1744 
20 1 0.222292 0.503164 24.317 
22 1 6.76077 1.55406 19.5485 
25 1 5.60696 1.57111 18.8008 
27 1 6.74729 1.75731 20.9681 
28 1 1.16585 1.57308 18.7984 
30 1 0.416036 1.74257 23.587 
10 1 6.78768 5.23022 5.05127 
13 1 0.0310781 3.89612 0.247908 
15 1 6.70647 4.98271 2.39273 
16 1 0.0325713 6.31699 0.252027 
26 1 6.64123 5.07371 0.960261 
29 1 5.61642 5.22978 5.77895 
31 1 6.76183 5.07444 3.61903 
32 1 1.1785 5.23075 5.79752 
1 1 4.62314 5.23015 6.43745 
3 1 3.49023 5.06913 8.60285 
4 1 2.22449 5.23114 6.4458 
6 1 3.4804 5.06056 11.2608 
9 1 3.33195 3.90401 11.9845 
11 1 3.48628 4.97417 9.82832 
12 1 3.33838 6.31008 11.9686 
14 1 3.45997 5.23331 7.17378 
ITEM: TIMESTEP
210
ITEM: NUMBER OF ATOMS
32
ITEM: BOX BOUNDS pp pp pp
-1.4961794582219841e-02 6.8280617945822160e+00
-1.1321525788352696e-02 6.8244215257883498e+00
-7.1110247546424296e-02 2.4658810247546359e+01
ITEM: ATOMS id type x y z 
2 1 3.05576 1.74556 13.3583 
5 1 4.61576 1.58466 18.1459 
7 1 3.48045 1.75812 15.9909 
8 1 2.21144 1.58579 18.1625 
18 1 3.45425 1.59762 17.42 
21 1 3.19745 2.89795 12.6175 
23 1 3.33601 1.83888 14.772 
24 1 3.21471 0.504806 12.631 
17 1 0.220229 2.89855 24.338 
19 1 0.106439 1.83878 22.1822 
20 1 0.219139 0.50146 24.3264 
22 1 6.76415 1.55289 19.5542 
25 1 5.60915 1.56995 18.8059 
27 1 6.75066 1.75628 20.9751 
28 1 1.16374 1.57192 18.8035 
30 1 0.41302 1.7415 23.5959 
10 1 6.79109 5.23137 5.04552 
13 1 0.0276993 3.89651 0.238444 
15 1 6.70976 4.98376 2.38503 
16 1 0.0291886 6.31872 0.242577 
26 1 6.64448 5.07475 0.95134 
29 1 5.61862 5.23094 5.7738 
31 1 6.76517 5.07548 3.61198 
32 1 1.17643 5.2319 5.79248 
1 1 4.62436 5.23131 6.43283 
3 1 3.49031 5.07017 8.60009 
4 1 2.22316 5.2323 6.4411 
6 1 3.48049 5.06164 11.26 
9 1 3.33185 3.90431 11.9843 
11 1 3.48636 4.97519 9.82621 
12 1 3.3383 6.31206 11.9684 
14 1 3.45999 5.23446 7.16976 
ITEM: TIMESTEP
220
ITEM: NUMBER OF ATOMS
32
ITEM: BOX BOUNDS pp pp pp
-1.8368344582219830e-02 6.8314683445822117e+00
-1.3297297460530922e-02 6.8263972974605283e+00
-7.7871361706362038e-02 2.4665571361706299e+01
ITEM: ATOMS id type x y z 
2 1 3.05542 1.74456 13.3589 
5 1 4.61698 1.5836 18.1491 
7 1 3.48048 1.75719 15.9927 
8 1 2.21007 1.58474 18.1658 
18 1 3.45425 1.59659 17.4228 
21 1 3.19726 2.89765 12.6177 
23 1 3.33595 1.83792 14.7735 
24 1 3.21452 0.50299 12.6311 
17 1 0.217065 2.89817 24.3446 
19 1 0.103162 1.83782 22.1876 
20 1 0.215984 0.499914 24.3329 
22 1 6.76754 1.55183 19.5582 
25 1 5.61136 1.56889 18.8095 
27 1 6.75404 1.75533 20.98 
28 1 1.16167 1.57085 18.807 
30 1 0.409993 1.74052 23.602 
10 1 6.79451 5.23242 5.04152 
13 1 0.0243173 3.8969 0.231906 
15 1 6.71305 4.98473 2.37976 
16 1 0.0258058 6.3203 0.236039 
26 1 6.64774 5.07569 0.945166 
29 1 5.62083 5.23199 5.77024 
31 1 6.76849 5.07642 3.60698 
32 1 1.1744 5.23296 5.78904 
1 1 4.62557 5.23237 6.42963 
3 1 3.49039 5.07111 8.59828 
4 1 2.22179 5.23336 6.43777 
6 1 3.48059 5.06263 11.2594 
9 1 3.33174 3.90457 11.9841 
11 1 3.48645 4.97614 9.82465 
12 1 3.33821 6.31392 11.9684 
14 1 3.45999 5.23551 7.16699 
ITEM: TIMESTEP
230
ITEM: NUMBER OF ATOMS
32
ITEM: BOX BOUNDS pp pp pp
-2.1774894582219845e-02 6.8348748945822075e+00
-1.5153403905928953e-02 6.8282534039059275e+00
-8.1952291541476083e-02 2.4669652291541407e+01
ITEM: ATOMS id type x y z 
2 1 3.05509 1.74361 13.3593 
5 1 4.6182 1.58261 18.1511 
7 1 3.48049 1.75633 15.9936 
8 1 2.20866 1.58374 18.1679 
18 1 3.45423 1.59562 17.4244 
21 1 3.19708 2.89735 12.6179 
23 1 3.33589 1.83701 14.7746 
24 1 3.21434 0.501255 12.6311 
17 1 0.213901 2.89779 24.3485 
19 1 0.0998833 1.83691 22.1909 
20 1 0.21283 0.498473 24.3368 
22 1 6.77094 1.55083 19.5605 
25 1 5.61357 1.56789 18.8117 
27 1 6.75743 1.75445 20.983 
28 1 1.15963 1.56985 18.809 
30 1 0.406953 1.73959 23.6057 
10 1 6.79794 5.2334 5.03908 
13 1 0.0209313 3.89729 0.227992 
15 1 6.71635 4.98566 2.37666 
16 1 0.0224228 6.32177 0.232111 
26 1 6.651 5.07658 0.941456 
29 1 5.62304 5.23298 5.76808 
31 1 6.77182 5.07731 3.60382 
32 1 1.17241 5.23395 5.78704 
1 1 4.62679 5.23336 6.42769 
3 1 3.49046 5.07199 8.59731 
4 1 2.22036 5.23435 6.43569 
6 1 3.48069 5.06358 11.259 
9 1 3.33162 3.90481 11.984 
11 1 3.48654 4.97705 9.82359 
12 1 3.33812 6.31572 11.9685 