ITEM: TIMESTEP
0
ITEM: NUMBER OF ATOMS
97
ITEM: BOX BOUNDS pp pp pp
0.0000000000000000e+00 1.6524999999999999e+01
0.0000000000000000e+00 1.6526000000000000e+01
0.0000000000000000e+00 1.6526000000000000e+01
ITEM: ATOMS id type x y z 
1 1 1.813 1.813 1.813 
10 1 5.821 5.821 5.821 
17 1 3.388 3.388 3.388 
26 1 4.246 4.246 4.246 
33 1 0.284 2 2 
41 1 2 0.284 2 
49 1 2 2 0.283 
58 1 7.351 5.634 5.634 
66 1 5.634 7.351 5.634 
74 1 5.634 5.634 7.351 
81 1 2.689 2.689 2.689 
90 1 4.945 4.945 4.945 
97 2 4.488 3.388 3.388 
4 1 1.813 1.813 14.084 
11 1 5.821 5.821 10.076 
20 1 3.388 3.388 12.509 
27 1 4.246 4.246 11.651 
36 1 0.284 2 13.897 
46 1 2 0.284 13.897 
56 1 2 2 15.614 
59 1 7.351 5.634 10.263 
69 1 5.634 7.351 10.263 
79 1 5.634 5.634 8.546 
84 1 2.689 2.689 13.208 
91 1 4.945 4.945 10.952 
6 1 1.813 14.084 1.813 
13 1 5.821 10.076 5.821 
22 1 3.388 12.509 3.388 
29 1 4.246 11.651 4.246 
38 1 0.284 13.897 2 
48 1 2 15.614 2 
52 1 2 13.897 0.283 
61 1 7.351 10.263 5.634 
71 1 5.634 8.546 5.634 
75 1 5.634 10.263 7.351 
86 1 2.689 13.208 2.689 
93 1 4.945 10.952 4.945 
7 1 1.813 14.084 14.084 
16 1 5.821 10.076 10.076 
23 1 3.388 12.509 12.509 
32 1 4.246 11.651 11.651 
39 1 0.284 13.897 13.897 
43 1 2 15.614 13.897 
53 1 2 13.897 15.614 
64 1 7.351 10.263 10.263 
68 1 5.634 8.547 10.263 
78 1 5.634 10.263 8.546 
87 1 2.689 13.208 13.208 
96 1 4.945 10.952 10.952 
8 1 14.084 1.813 1.813 
15 1 10.076 5.821 5.821 
24 1 12.509 3.388 3.388 
31 1 11.651 4.246 4.246 
40 1 15.613 2 2 
44 1 13.897 0.284 2 
54 1 13.897 2 0.283 
63 1 8.547 5.634 5.634 
67 1 10.263 7.351 5.634 
77 1 10.263 5.634 7.351 
88 1 13.208 2.689 2.689 
95 1 10.952 4.945 4.945 
5 1 14.084 1.813 14.084 
14 1 10.076 5.821 10.076 
21 1 12.509 3.388 12.509 
30 1 11.651 4.246 11.651 
37 1 15.613 2 13.897 
47 1 13.897 0.284 13.897 
51 1 13.897 2 15.614 
62 1 8.546 5.634 10.263 
72 1 10.263 7.351 10.263 
76 1 10.263 5.634 8.546 
85 1 13.208 2.689 13.208 
94 1 10.952 4.945 10.952 
3 1 14.084 14.084 1.813 
12 1 10.076 10.076 5.821 
19 1 12.509 12.509 3.388 
28 1 11.651 11.651 4.246 
35 1 15.613 13.897 2 
45 1 13.897 15.614 2 
55 1 13.897 13.897 0.283 
60 1 8.547 10.263 5.634 
70 1 10.263 8.547 5.634 
80 1 10.263 10.263 7.351 
83 1 13.208 13.208 2.689 
92 1 10.952 10.952 4.945 
2 1 14.084 14.084 14.084 
9 1 10.076 10.076 10.076 
18 1 12.509 12.509 12.509 
25 1 11.651 11.651 11.651 
34 1 15.613 13.897 13.897 
42 1 13.897 15.614 13.897 
50 1 13.897 13.897 15.614 
57 1 8.546 10.263 10.263 
65 1 10.263 8.546 10.263 
73 1 10.263 10.263 8.547 
82 1 13.208 13.208 13.208 
89 1 10.952 10.952 10.952 
ITEM: TIMESTEP
10
ITEM: NUMBER OF ATOMS
97
ITEM: BOX BOUNDS pp pp pp
0.0000000000000000e+00 1.6524999999999999e+01
0.0000000000000000e+00 1.6526000000000000e+01
0.0000000000000000e+00 1.6526000000000000e+01
ITEM: ATOMS id type x y z 
1 1 1.82958 1.82991 1.83028 
10 1 5.80204 5.80357 5.80337 
17 1 3.31469 3.34713 3.34593 
26 1 4.29972 4.28722 4.28824 
33 1 0.280543 2.00376 2.00378 
41 1 2.00386 0.280308 2.00379 
49 1 2.00383 2.00374 0.280201 
58 1 7.3545 5.63008 5.63008 
66 1 5.63021 7.35373 5.63034 
74 1 5.63022 5.63034 7.3537 
81 1 2.62386 2.63583 2.63522 
90 1 4.98843 4.9977 4.99796 
97 2 4.53266 3.38962 3.38961 
4 1 1.81428 1.81428 14.0816 
11 1 5.81982 5.81997 10.0783 
20 1 3.39183 3.39182 12.5053 
27 1 4.24232 4.24217 11.6546 
36 1 0.282794 2.00345 13.8936 
46 1 2.00344 0.282441 13.8936 
56 1 2.00338 2.0034 15.6169 
59 1 7.3517 5.6306 10.2664 
69 1 5.63061 7.352 10.2664 
79 1 5.63063 5.63063 8.54292 
84 1 2.69421 2.69421 13.2025 
91 1 4.93972 4.94001 10.9575 
6 1 1.81425 14.0818 1.81413 
13 1 5.82002 10.0783 5.81986 
22 1 3.39176 12.5054 3.3918 
29 1 4.24216 11.6546 4.24231 
38 1 0.282779 13.8936 2.0034 
48 1 2.00335 15.617 2.00334 
52 1 2.00339 13.8936 0.282247 
61 1 7.35202 10.2664 5.63062 
71 1 5.63064 8.543 5.63065 
75 1 5.63061 10.2664 7.35163 
86 1 2.69421 13.2025 2.69417 
93 1 4.94 10.9575 4.93971 
7 1 1.81439 14.083 14.0828 
16 1 5.81976 10.0774 10.0772 
23 1 3.39177 12.5053 12.5053 
32 1 4.24229 11.6549 11.6547 
39 1 0.282632 13.8936 13.8936 
43 1 2.00339 15.6151 13.8937 
53 1 2.0034 13.8936 15.6149 
64 1 7.35188 10.2665 10.2664 
68 1 5.63056 8.54536 10.2664 
78 1 5.63057 10.2664 8.54501 
87 1 2.6942 13.2027 13.2026 
96 1 4.93955 10.9571 10.9574 
8 1 14.0815 1.81426 1.81414 
15 1 10.0783 5.81998 5.81986 
24 1 12.5054 3.3918 3.39183 
31 1 11.6547 4.24218 4.24235 
40 1 15.6162 2.00342 2.0034 
44 1 13.8936 0.28242 2.00342 
54 1 13.8936 2.00342 0.282242 
63 1 8.54301 5.63062 5.63063 
67 1 10.2664 7.35214 5.63062 
77 1 10.2664 5.63061 7.35175 
88 1 13.2025 2.69422 2.69418 
95 1 10.9574 4.93995 4.9396 
5 1 14.0826 1.81441 14.0828 
14 1 10.0771 5.81953 10.0772 
21 1 12.5052 3.39183 12.5052 
30 1 11.6547 4.24215 11.6547 
37 1 15.6144 2.00347 13.8936 
47 1 13.8936 0.282269 13.8936 
51 1 13.8936 2.00343 15.6149 
62 1 8.5451 5.63056 10.2664 
72 1 10.2664 7.35193 10.2664 
76 1 10.2664 5.63056 8.54513 
85 1 13.2026 2.69425 13.2026 
94 1 10.9574 4.93991 10.9574 
3 1 14.0827 14.083 1.81423 
12 1 10.0773 10.0773 5.81996 
19 1 12.5053 12.5053 3.39176 
28 1 11.6547 11.6547 4.24214 
35 1 15.6144 13.8936 2.00341 
45 1 13.8936 15.6151 2.00337 
55 1 13.8936 13.8936 0.282124 
60 1 8.54538 10.2664 5.6306 
70 1 10.2664 8.54546 5.6306 
80 1 10.2664 10.2664 7.35209 
83 1 13.2026 13.2027 2.69419 
92 1 10.9574 10.9574 4.93992 
2 1 14.0827 14.083 14.0828 
9 1 10.0772 10.0772 10.0775 
18 1 12.5053 12.5052 12.5054 
25 1 11.6547 11.6547 11.6549 
34 1 15.6143 13.8936 13.8936 
42 1 13.8936 15.615 13.8937 
50 1 13.8936 13.8936 15.6149 
57 1 8.5452 10.2664 10.2664 
65 1 10.2664 8.54523 10.2664 
73 1 10.2664 10.2664 8.54537 
82 1 13.2027 13.2029 13.2026 
89 1 10.9574 10.9574 10.9571 
ITEM: TIMESTEP
17
ITEM: NUMBER OF ATOMS
97
ITEM: BOX BOUNDS pp pp pp
0.0000000000000000e+00 1.6524999999999999e+01
0.0000000000000000e+00 1.6526000000000000e+01
0.0000000000000000e+00 1.6526000000000000e+01
ITEM: ATOMS id type x y z 
1 1 1.81752 1.8149 1.81543 
10 1 5.81392 5.81708 5.81676 
17 1 3.29446 3.3441 3.34177 
26 1 4.32721 4.28712 4.28931 
33 1 0.278006 2.00794 2.00798 
41 1 2.00823 0.277842 2.00815 
49 1 2.00817 2.00805 0.277889 
58 1 7.35671 5.62631 5.62629 
66 1 5.62626 7.35571 5.62661 
74 1 5.6263 5.62664 7.35558 
81 1 2.61535 2.6299 2.62892 
90 1 4.99209 5.00634 5.00678 
97 2 4.53551 3.39433 3.39432 
4 1 1.81645 1.81634 14.0777 
11 1 5.81762 5.81811 10.082 
20 1 3.39183 3.39184 12.5056 
27 1 4.24224 4.24254 11.6542 
36 1 0.282482 2.00638 13.8905 
46 1 2.00636 0.28212 13.8906 
56 1 2.00628 2.00626 15.6136 
59 1 7.35197 5.62774 10.2694 
69 1 5.62773 7.35214 10.2694 
79 1 5.62787 5.62781 8.54349 
84 1 2.69397 2.69392 13.2021 
91 1 4.94044 4.93996 10.9577 
6 1 1.81642 14.0779 1.8162 
13 1 5.81812 10.082 5.81761 
22 1 3.39175 12.5057 3.39179 
29 1 4.2425 11.6542 4.24221 
38 1 0.282475 13.8906 2.00632 
48 1 2.00626 15.6136 2.00619 
52 1 2.00631 13.8906 0.281955 
61 1 7.35216 10.2693 5.62772 
71 1 5.6279 8.54361 5.62781 
75 1 5.62774 10.2694 7.35191 
86 1 2.69395 13.2021 2.69389 
93 1 4.93994 10.9578 4.9404 
7 1 1.81653 14.0807 14.0806 
16 1 5.81749 10.0793 10.0794 
23 1 3.3913 12.5054 12.5054 
32 1 4.2424 11.6543 11.6546 
39 1 0.28223 13.8907 13.8907 
43 1 2.00638 15.6153 13.8908 
53 1 2.00638 13.8908 15.6152 
64 1 7.35228 10.2694 10.2693 
68 1 5.62761 8.54502 10.2693 
78 1 5.62762 10.2693 8.54472 
87 1 2.69452 13.2031 13.203 
96 1 4.93995 10.9575 10.957 
8 1 14.0774 1.8163 1.81618 
15 1 10.0814 5.8184 5.81797 
24 1 12.5056 3.39183 3.39188 
31 1 11.6541 4.24254 4.24233 
40 1 15.6129 2.00633 2.00629 
44 1 13.8905 0.282086 2.00633 
54 1 13.8905 2.00634 0.281927 
63 1 8.54229 5.62792 5.62792 
67 1 10.2693 7.35214 5.6279 
77 1 10.2693 5.62792 7.35193 
88 1 13.202 2.69394 2.69391 
95 1 10.9578 4.94011 4.94039 
5 1 14.0803 1.81643 14.0805 
14 1 10.0794 5.81771 10.0794 
21 1 12.5054 3.39137 12.5053 
30 1 11.6546 4.24275 11.6545 
37 1 15.6146 2.00646 13.8907 
47 1 13.8906 0.281869 13.8906 
51 1 13.8907 2.00642 15.6151 
62 1 8.54477 5.6276 10.2692 
72 1 10.2693 7.35223 10.2693 
76 1 10.2692 5.6276 8.54415 
85 1 13.2029 2.69456 13.203 
94 1 10.9569 4.93954 10.957 
3 1 14.0803 14.0807 1.81628 
12 1 10.0795 10.0796 5.81792 
19 1 12.5054 12.5054 3.39129 
28 1 11.6546 11.6546 4.24264 
35 1 15.6146 13.8908 2.00639 
45 1 13.8908 15.6153 2.00635 
55 1 13.8907 13.8907 0.281698 
60 1 8.54502 10.2692 5.62766 
70 1 10.2693 8.54437 5.62766 
80 1 10.2693 10.2693 7.35248 
83 1 13.2029 13.2031 2.6945 
92 1 10.9571 10.9571 4.93963 
2 1 14.0804 14.0809 14.0805 
9 1 10.0795 10.0795 10.0794 
18 1 12.5056 12.5056 12.5054 
25 1 11.6546 11.6546 11.6543 
34 1 15.6146 13.8907 13.8907 
42 1 13.8907 15.6153 13.8907 
50 1 13.8907 13.8907 15.6152 
57 1 8.54482 10.2693 10.2694 
65 1 10.2693 8.54479 10.2693 
73 1 10.2693 10.2693 8.54508 
82 1 13.2027 13.2027 13.2032 
89 1 10.957 10.957 10.9575 
ITEM: TIMESTEP
18
ITEM: NUMBER OF ATOMS
97
ITEM: BOX BOUNDS pp pp pp
0.0000000000000000e+00 1.6524999999999999e+01
0.0000000000000000e+00 1.6526000000000000e+01
0.0000000000000000e+00 1.6526000000000000e+01
ITEM: ATOMS id type x y z 
1 1 1.81752 1.8149 1.81543 
10 1 5.81392 5.81708 5.81676 
17 1 3.29446 3.3441 3.34177 
26 1 4.32721 4.28712 4.28931 
33 1 0.278006 2.00794 2.00798 
41 1 2.00823 0.277842 2.00815 
49 1 2.00817 2.00805 0.277889 
58 1 7.35671 5.62631 5.62629 
66 1 5.62626 7.35571 5.62661 
74 1 5.6263 5.62664 7.35558 
81 1 2.61535 2.6299 2.62892 
90 1 4.99209 5.00634 5.00678 
97 2 4.53551 3.39433 3.39432 
4 1 1.81645 1.81634 14.0777 
11 1 5.81762 5.81811 10.082 
20 1 3.39183 3.39184 12.5056 
27 1 4.24224 4.24254 11.6542 
36 1 0.282482 2.00638 13.8905 
46 1 2.00636 0.28212 13.8906 
56 1 2.00628 2.00626 15.6136 
59 1 7.35197 5.62774 10.2694 
69 1 5.62773 7.35214 10.2694 
79 1 5.62787 5.62781 8.54349 
84 1 2.69397 2.69392 13.2021 
91 1 4.94044 4.93996 10.9577 
6 1 1.81642 14.0779 1.8162 
13 1 5.81812 10.082 5.81761 
22 1 3.39175 12.5057 3.39179 
29 1 4.2425 11.6542 4.24221 
38 1 0.282475 13.8906 2.00632 
48 1 2.00626 15.6136 2.00619 
52 1 2.00631 13.8906 0.281955 
61 1 7.35216 10.2693 5.62772 
71 1 5.6279 8.54361 5.62781 
75 1 5.62774 10.2694 7.35191 
86 1 2.69395 13.2021 2.69389 
93 1 4.93994 10.9578 4.9404 
7 1 1.81653 14.0807 14.0806 
16 1 5.81749 10.0793 10.0794 
23 1 3.3913 12.5054 12.5054 
32 1 4.2424 11.6543 11.6546 
39 1 0.28223 13.8907 13.8907 
43 1 2.00638 15.6153 13.8908 
53 1 2.00638 13.8908 15.6152 
64 1 7.35228 10.2694 10.2693 
68 1 5.62761 8.54502 10.2693 
78 1 5.62762 10.2693 8.54472 
87 1 2.69452 13.2031 13.203 
96 1 4.93995 10.9575 10.957 
8 1 14.0774 1.8163 1.81618 
15 1 10.0814 5.8184 5.81797 
24 1 12.5056 3.39183 3.39188 
31 1 11.6541 4.24254 4.24233 
40 1 15.6129 2.00633 2.00629 
44 1 13.8905 0.282086 2.00633 
54 1 13.8905 2.00634 0.281927 
63 1 8.54229 5.62792 5.62792 
67 1 10.2693 7.35214 5.6279 
77 1 10.2693 5.62792 7.35193 
88 1 13.202 2.69394 2.69391 
95 1 10.9578 4.94011 4.94039 
5 1 14.0803 1.81643 14.0805 
14 1 10.0794 5.81771 10.0794 
21 1 12.5054 3.39137 12.5053 
30 1 11.6546 4.24275 11.6545 
37 1 15.6146 2.00646 13.8907 
47 1 13.8906 0.281869 13.8906 
51 1 13.8907 2.00642 15.6151 
62 1 8.54477 5.6276 10.2692 
72 1 10.2693 7.35223 10.2693 
76 1 10.2692 5.6276 8.54415 
85 1 13.2029 2.69456 13.203 
94 1 10.9569 4.93954 10.957 
3 1 14.0803 14.0807 1.81628 
12 1 10.0795 10.0796 5.81792 
19 1 12.5054 12.5054 3.39129 
28 1 11.6546 11.6546 4.24264 
35 1 15.6146 13.8908 2.00639 
45 1 13.8908 15.6153 2.00635 
55 1 13.8907 13.8907 0.281698 
60 1 8.54502 10.2692 5.62766 
70 1 10.2693 8.54437 5.62766 
80 1 10.2693 10.2693 7.35248 
83 1 13.2029 13.2031 2.6945 
92 1 10.9571 10.9571 4.93963 
2 1 14.0804 14.0809 14.0805 
9 1 10.0795 10.0795 10.0794 
18 1 12.5056 12.5056 12.5054 
25 1 11.6546 11.6546 11.6543 
34 1 15.6146 13.8907 13.8907 
42 1 13.8907 15.6153 13.8907 
50 1 13.8907 13.8907 15.6152 
57 1 8.54482 10.2693 10.2694 
65 1 10.2693 8.54479 10.2693 
73 1 10.2693 10.2693 8.54508 
82 1 13.2027 13.2027 13.2032 
89 1 10.957 10.957 10.9575 
ITEM: TIMESTEP
19
ITEM: NUMBER OF ATOMS
97
ITEM: BOX BOUNDS pp pp pp
0.0000000000000000e+00 1.6524999999999999e+01
0.0000000000000000e+00 1.6526000000000000e+01
0.0000000000000000e+00 1.6526000000000000e+01
ITEM: ATOMS id type x y z 
1 1 1.81752 1.8149 1.81543 
10 1 5.81392 5.81708 5.81676 
17 1 3.29446 3.3441 3.34177 
26 1 4.32721 4.28712 4.28931 
33 1 0.278006 2.00794 2.00798 
41 1 2.00823 0.277842 2.00815 
49 1 2.00817 2.00805 0.277889 
58 1 7.35671 5.62631 5.62629 
66 1 5.62626 7.35571 5.62661 
74 1 5.6263 5.62664 7.35558 
81 1 2.61535 2.6299 2.62892 
90 1 4.99209 5.00634 5.00678 
97 2 4.53551 3.39433 3.39432 
4 1 1.81645 1.81634 14.0777 
11 1 5.81762 5.81811 10.082 
20 1 3.39183 3.39184 12.5056 
27 1 4.24224 4.24254 11.6542 
36 1 0.282482 2.00638 13.8905 
46 1 2.00636 0.28212 13.8906 
56 1 2.00628 2.00626 15.6136 
59 1 7.35197 5.62774 10.2694 
69 1 5.62773 7.35214 10.2694 
79 1 5.62787 5.62781 8.54349 
84 1 2.69397 2.69392 13.2021 
91 1 4.94044 4.93996 10.9577 
6 1 1.81642 14.0779 1.8162 
13 1 5.81812 10.082 5.81761 
22 1 3.39175 12.5057 3.39179 
29 1 4.2425 11.6542 4.24221 
38 1 0.282475 13.8906 2.00632 
48 1 2.00626 15.6136 2.00619 
52 1 2.00631 13.8906 0.281955 
61 1 7.35216 10.2693 5.62772 
71 1 5.6279 8.54361 5.62781 
75 1 5.62774 10.2694 7.35191 
86 1 2.69395 13.2021 2.69389 
93 1 4.93994 10.9578 4.9404 
7 1 1.81653 14.0807 14.0806 
16 1 5.81749 10.0793 10.0794 
23 1 3.3913 12.5054 12.5054 
32 1 4.2424 11.6543 11.6546 
39 1 0.28223 13.8907 13.8907 
43 1 2.00638 15.6153 13.8908 
53 1 2.00638 13.8908 15.6152 
64 1 7.35228 10.2694 10.2693 
68 1 5.62761 8.54502 10.2693 
78 1 5.62762 10.2693 8.54472 
87 1 2.69452 13.2031 13.203 
96 1 4.93995 10.9575 10.957 
8 1 14.0774 1.8163 1.81618 
15 1 10.0814 5.8184 5.81797 
24 1 12.5056 3.39183 3.39188 
31 1 11.6541 4.24254 4.24233 
40 1 15.6129 2.00633 2.00629 
44 1 13.8905 0.282086 2.00633 
54 1 13.8905 2.00634 0.281927 
63 1 8.54229 5.62792 5.62792 
67 1 10.2693 7.35214 5.6279 
77 1 10.2693 5.62792 7.35193 
88 1 13.202 2.69394 2.69391 
95 1 10.9578 4.94011 4.94039 
5 1 14.0803 1.81643 14.0805 
14 1 10.0794 5.81771 10.0794 
21 1 12.5054 3.39137 12.5053 
30 1 11.6546 4.24275 11.6545 
37 1 15.6146 2.00646 13.8907 
47 1 13.8906 0.281869 13.8906 
51 1 13.8907 2.00642 15.6151 
62 1 8.54477 5.6276 10.2692 
72 1 10.2693 7.35223 10.2693 
76 1 10.2692 5.6276 8.54415 
85 1 13.2029 2.69456 13.203 
94 1 10.9569 4.93954 10.957 
3 1 14.0803 14.0807 1.81628 
12 1 10.0795 10.0796 5.81792 
19 1 12.5054 12.5054 3.39129 
28 1 11.6546 11.6546 4.24264 
35 1 15.6146 13.8908 2.00639 
45 1 13.8908 15.6153 2.00635 
55 1 13.8907 13.8907 0.281698 
60 1 8.54502 10.2692 5.62766 
70 1 10.2693 8.54437 5.62766 
80 1 10.2693 10.2693 7.35248 
83 1 13.2029 13.2031 2.6945 
92 1 10.9571 10.9571 4.93963 
2 1 14.0804 14.0809 14.0805 
9 1 10.0795 10.0795 10.0794 
18 1 12.5056 12.5056 12.5054 
25 1 11.6546 11.6546 11.6543 
34 1 15.6146 13.8907 13.8907 
42 1 13.8907 15.6153 13.8907 
50 1 13.8907 13.8907 15.6152 
57 1 8.54482 10.2693 10.2694 
65 1 10.2693 8.54479 10.2693 
73 1 10.2693 10.2693 8.54508 
82 1 13.2027 13.2027 13.2032 
89 1 10.957 10.957 10.9575 
ITEM: TIMESTEP
20
ITEM: NUMBER OF ATOMS
97
ITEM: BOX BOUNDS pp pp pp
0.0000000000000000e+00 1.6524999999999999e+01
0.0000000000000000e+00 1.6526000000000000e+01
0.0000000000000000e+00 1.6526000000000000e+01
ITEM: ATOMS id type x y z 
1 1 1.81752 1.8149 1.81543 
10 1 5.81392 5.81708 5.81676 
17 1 3.29446 3.3441 3.34177 
26 1 4.32721 4.28712 4.28931 
33 1 0.278006 2.00794 2.00798 
41 1 2.00823 0.277842 2.00815 
49 1 2.00817 2.00805 0.277889 
58 1 7.35671 5.62631 5.62629 
66 1 5.62626 7.35571 5.62661 
74 1 5.6263 5.62664 7.35558 
81 1 2.61535 2.6299 2.62892 
90 1 4.99209 5.00634 5.00678 
97 2 4.53551 3.39433 3.39432 
4 1 1.81645 1.81634 14.0777 
11 1 5.81762 5.81811 10.082 
20 1 3.39183 3.39184 12.5056 
27 1 4.24224 4.24254 11.6542 
36 1 0.282482 2.00638 13.8905 
46 1 2.00636 0.28212 13.8906 
56 1 2.00628 2.00626 15.6136 
59 1 7.35197 5.62774 10.2694 
69 1 5.62773 7.35214 10.2694 
79 1 5.62787 5.62781 8.54349 
84 1 2.69397 2.69392 13.2021 
91 1 4.94044 4.93996 10.9577 
6 1 1.81642 14.0779 1.8162 
13 1 5.81812 10.082 5.81761 
22 1 3.39175 12.5057 3.39179 
29 1 4.2425 11.6542 4.24221 
38 1 0.282475 13.8906 2.00632 
48 1 2.00626 15.6136 2.00619 
52 1 2.00631 13.8906 0.281955 
61 1 7.35216 10.2693 5.62772 
71 1 5.6279 8.54361 5.62781 
75 1 5.62774 10.2694 7.35191 
86 1 2.69395 13.2021 2.69389 
93 1 4.93994 10.9578 4.9404 
7 1 1.81653 14.0807 14.0806 
16 1 5.81749 10.0793 10.0794 
23 1 3.3913 12.5054 12.5054 
32 1 4.2424 11.6543 11.6546 
39 1 0.28223 13.8907 13.8907 
43 1 2.00638 15.6153 13.8908 
53 1 2.00638 13.8908 15.6152 
64 1 7.35228 10.2694 10.2693 
68 1 5.62761 8.54502 10.2693 
78 1 5.62762 10.2693 8.54472 
87 1 2.69452 13.2031 13.203 
96 1 4.93995 10.9575 10.957 
8 1 14.0774 1.8163 1.81618 
15 1 10.0814 5.8184 5.81797 
24 1 12.5056 3.39183 3.39188 
31 1 11.6541 4.24254 4.24233 
40 1 15.6129 2.00633 2.00629 
44 1 13.8905 0.282086 2.00633 
54 1 13.8905 2.00634 0.281927 
63 1 8.54229 5.62792 5.62792 
67 1 10.2693 7.35214 5.6279 
77 1 10.2693 5.62792 7.35193 
88 1 13.202 2.69394 2.69391 
95 1 10.9578 4.94011 4.94039 
5 1 14.0803 1.81643 14.0805 
14 1 10.0794 5.81771 10.0794 
21 1 12.5054 3.39137 12.5053 
30 1 11.6546 4.24275 11.6545 
37 1 15.6146 2.00646 13.8907 
47 1 13.8906 0.281869 13.8906 
51 1 13.8907 2.00642 15.6151 
62 1 8.54477 5.6276 10.2692 
72 1 10.2693 7.35223 10.2693 
76 1 10.2692 5.6276 8.54415 
85 1 13.2029 2.69456 13.203 
94 1 10.9569 4.93954 10.957 
3 1 14.0803 14.0807 1.81628 
12 1 10.0795 10.0796 5.81792 
19 1 12.5054 12.5054 3.39129 
28 1 11.6546 11.6546 4.24264 
35 1 15.6146 13.8908 2.00639 
45 1 13.8908 15.6153 2.00635 
55 1 13.8907 13.8907 0.281698 
60 1 8.54502 10.2692 5.62766 
70 1 10.2693 8.54437 5.62766 
80 1 10.2693 10.2693 7.35248 
83 1 13.2029 13.2031 2.6945 
92 1 10.9571 10.9571 4.93963 
2 1 14.0804 14.0809 14.0805 
9 1 10.0795 10.0795 10.0794 
18 1 12.5056 12.5056 12.5054 
25 1 11.6546 11.6546 11.6543 
34 1 15.6146 13.8907 13.8907 
42 1 13.8907 15.6153 13.8907 
50 1 13.8907 13.8907 15.6152 
57 1 8.54482 10.2693 10.2694 
65 1 10.2693 8.54479 10.2693 
73 1 10.2693 10.2693 8.54508 
82 1 13.2027 13.2027 13.2032 
89 1 10.957 10.957 10.9575 
ITEM: TIMESTEP
21
ITEM: NUMBER OF ATOMS
97
ITEM: BOX BOUNDS pp pp pp
0.0000000000000000e+00 1.6524999999999999e+01
0.0000000000000000e+00 1.6526000000000000e+01
0.0000000000000000e+00 1.6526000000000000e+01
ITEM: ATOMS id type x y z 
1 1 1.81752 1.8149 1.81543 
10 1 5.81392 5.81708 5.81676 
17 1 3.29446 3.3441 3.34177 
26 1 4.32721 4.28712 4.28931 
33 1 0.278006 2.00794 2.00798 
41 1 2.00823 0.277842 2.00815 
49 1 2.00817 2.00805 0.277889 
58 1 7.35671 5.62631 5.62629 
66 1 5.62626 7.35571 5.62661 
74 1 5.6263 5.62664 7.35558 
81 1 2.61535 2.6299 2.62892 
90 1 4.99209 5.00634 5.00678 
97 2 4.53551 3.39433 3.39432 
4 1 1.81645 1.81634 14.0777 
11 1 5.81762 5.81811 10.082 
20 1 3.39183 3.39184 12.5056 
27 1 4.24224 4.24254 11.6542 
36 1 0.282482 2.00638 13.8905 
46 1 2.00636 0.28212 13.8906 
56 1 2.00628 2.00626 15.6136 
59 1 7.35197 5.62774 10.2694 
69 1 5.62773 7.35214 10.2694 
79 1 5.62787 5.62781 8.54349 
84 1 2.69397 2.69392 13.2021 
91 1 4.94044 4.93996 10.9577 
6 1 1.81642 14.0779 1.8162 
13 1 5.81812 10.082 5.81761 
22 1 3.39175 12.5057 3.39179 
29 1 4.2425 11.6542 4.24221 
38 1 0.282475 13.8906 2.00632 
48 1 2.00626 15.6136 2.00619 
52 1 2.00631 13.8906 0.281955 
61 1 7.35216 10.2693 5.62772 
71 1 5.6279 8.54361 5.62781 
75 1 5.62774 10.2694 7.35191 
86 1 2.69395 13.2021 2.69389 
93 1 4.93994 10.9578 4.9404 
7 1 1.81653 14.0807 14.0806 
16 1 5.81749 10.0793 10.0794 
23 1 3.3913 12.5054 12.5054 
32 1 4.2424 11.6543 11.6546 
39 1 0.28223 13.8907 13.8907 
43 1 2.00638 15.6153 13.8908 
53 1 2.00638 13.8908 15.6152 
64 1 7.35228 10.2694 10.2693 
68 1 5.62761 8.54502 10.2693 
78 1 5.62762 10.2693 8.54472 
87 1 2.69452 13.2031 13.203 
96 1 4.93995 10.9575 10.957 
8 1 14.0774 1.8163 1.81618 
15 1 10.0814 5.8184 5.81797 
24 1 12.5056 3.39183 3.39188 
31 1 11.6541 4.24254 4.24233 
40 1 15.6129 2.00633 2.00629 
44 1 13.8905 0.282086 2.00633 
54 1 13.8905 2.00634 0.281927 
63 1 8.54229 5.62792 5.62792 
67 1 10.2693 7.35214 5.6279 
77 1 10.2693 5.62792 7.35193 
88 1 13.202 2.69394 2.69391 
95 1 10.9578 4.94011 4.94039 
5 1 14.0803 1.81643 14.0805 
14 1 10.0794 5.81771 10.0794 
21 1 12.5054 3.39137 12.5053 
30 1 11.6546 4.24275 11.6545 
37 1 15.6146 2.00646 13.8907 
47 1 13.8906 0.281869 13.8906 
51 1 13.8907 2.00642 15.6151 
62 1 8.54477 5.6276 10.2692 
72 1 10.2693 7.35223 10.2693 
76 1 10.2692 5.6276 8.54415 
85 1 13.2029 2.69456 13.203 
94 1 10.9569 4.93954 10.957 
3 1 14.0803 14.0807 1.81628 
12 1 10.0795 10.0796 5.81792 
19 1 12.5054 12.5054 3.39129 
28 1 11.6546 11.6546 4.24264 
35 1 15.6146 13.8908 2.00639 
45 1 13.8908 15.6153 2.00635 
55 1 13.8907 13.8907 0.281698 
60 1 8.54502 10.2692 5.62766 
70 1 10.2693 8.54437 5.62766 
80 1 10.2693 10.2693 7.35248 
83 1 13.2029 13.2031 2.6945 
92 1 10.9571 10.9571 4.93963 
2 1 14.0804 14.0809 14.0805 
9 1 10.0795 10.0795 10.0794 
18 1 12.5056 12.5056 12.5054 
25 1 11.6546 11.6546 11.6543 
34 1 15.6146 13.8907 13.8907 
42 1 13.8907 15.6153 13.8907 
50 1 13.8907 13.8907 15.6152 
57 1 8.54482 10.2693 10.2694 
65 1 10.2693 8.54479 10.2693 
73 1 10.2693 10.2693 8.54508 
82 1 13.2027 13.2027 13.2032 
89 1 10.957 10.957 10.9575 
ITEM: TIMESTEP
22
ITEM: NUMBER OF ATOMS
97
ITEM: BOX BOUNDS pp pp pp
0.0000000000000000e+00 1.6524999999999999e+01
0.0000000000000000e+00 1.6526000000000000e+01
0.0000000000000000e+00 1.6526000000000000e+01
ITEM: ATOMS id type x y z 
1 1 1.81752 1.8149 1.81543 
10 1 5.81392 5.81708 5.81676 
17 1 3.29446 3.3441 3.34177 
26 1 4.32721 4.28712 4.28931 
33 1 0.278006 2.00794 2.00798 
41 1 2.00823 0.277842 2.00815 
49 1 2.00817 2.00805 0.277889 
58 1 7.35671 5.62631 5.62629 
66 1 5.62626 7.35571 5.62661 
74 1 5.6263 5.62664 7.35558 
81 1 2.61535 2.6299 2.62892 
90 1 4.99209 5.00634 5.00678 
97 2 4.53551 3.39433 3.39432 
4 1 1.81645 1.81634 14.0777 
11 1 5.81762 5.81811 10.082 
20 1 3.39183 3.39184 12.5056 
27 1 4.24224 4.24254 11.6542 
36 1 0.282482 2.00638 13.8905 
46 1 2.00636 0.28212 13.8906 
56 1 2.00628 2.00626 15.6136 
59 1 7.35197 5.62774 10.2694 
69 1 5.62773 7.35214 10.2694 
79 1 5.62787 5.62781 8.54349 
84 1 2.69397 2.69392 13.2021 
91 1 4.94044 4.93996 10.9577 
6 1 1.81642 14.0779 1.8162 
13 1 5.81812 10.082 5.81761 
22 1 3.39175 12.5057 3.39179 
29 1 4.2425 11.6542 4.24221 
38 1 0.282475 13.8906 2.00632 
48 1 2.00626 15.6136 2.00619 
52 1 2.00631 13.8906 0.281955 
61 1 7.35216 10.2693 5.62772 
71 1 5.6279 8.54361 5.62781 
75 1 5.62774 10.2694 7.35191 
86 1 2.69395 13.2021 2.69389 
93 1 4.93994 10.9578 4.9404 
7 1 1.81653 14.0807 14.0806 
16 1 5.81749 10.0793 10.0794 
23 1 3.3913 12.5054 12.5054 
32 1 4.2424 11.6543 11.6546 
39 1 0.28223 13.8907 13.8907 
43 1 2.00638 15.6153 13.8908 
53 1 2.00638 13.8908 15.6152 
64 1 7.35228 10.2694 10.2693 
68 1 5.62761 8.54502 10.2693 
78 1 5.62762 10.2693 8.54472 
87 1 2.69452 13.2031 13.203 
96 1 4.93995 10.9575 10.957 
8 1 14.0774 1.8163 1.81618 
15 1 10.0814 5.8184 5.81797 
24 1 12.5056 3.39183 3.39188 
31 1 11.6541 4.24254 4.24233 
40 1 15.6129 2.00633 2.00629 
44 1 13.8905 0.282086 2.00633 
54 1 13.8905 2.00634 0.281927 
63 1 8.54229 5.62792 5.62792 
67 1 10.2693 7.35214 5.6279 
77 1 10.2693 5.62792 7.35193 
88 1 13.202 2.69394 2.69391 
95 1 10.9578 4.94011 4.94039 
5 1 14.0803 1.81643 14.0805 
14 1 10.0794 5.81771 10.0794 
21 1 12.5054 3.39137 12.5053 
30 1 11.6546 4.24275 11.6545 
37 1 15.6146 2.00646 13.8907 
47 1 13.8906 0.281869 13.8906 
51 1 13.8907 2.00642 15.6151 
62 1 8.54477 5.6276 10.2692 
72 1 10.2693 7.35223 10.2693 
76 1 10.2692 5.6276 8.54415 
85 1 13.2029 2.69456 13.203 
94 1 10.9569 4.93954 10.957 
3 1 14.0803 14.0807 1.81628 
12 1 10.0795 10.0796 5.81792 
19 1 12.5054 12.5054 3.39129 
28 1 11.6546 11.6546 4.24264 
35 1 15.6146 13.8908 2.00639 
45 1 13.8908 15.6153 2.00635 
55 1 13.8907 13.8907 0.281698 
60 1 8.54502 10.2692 5.62766 
70 1 10.2693 8.54437 5.62766 
80 1 10.2693 10.2693 7.35248 
83 1 13.2029 13.2031 2.6945 
92 1 10.9571 10.9571 4.93963 
2 1 14.0804 14.0809 14.0805 
9 1 10.0795 10.0795 10.0794 
18 1 12.5056 12.5056 12.5054 
25 1 11.6546 11.6546 11.6543 
34 1 15.6146 13.8907 13.8907 
42 1 13.8907 15.6153 13.8907 
50 1 13.8907 13.8907 15.6152 
57 1 8.54482 10.2693 10.2694 
65 1 10.2693 8.54479 10.2693 
73 1 10.2693 10.2693 8.54508 
82 1 13.2027 13.2027 13.2032 
89 1 10.957 10.957 10.9575 
