ITEM: TIMESTEP
0
ITEM: NUMBER OF ATOMS
49
ITEM: BOX BOUNDS pp pp pp
0.0000000000000000e+00 1.1000000000000000e+01
0.0000000000000000e+00 1.1002000000000001e+01
0.0000000000000000e+00 1.1000000000000000e+01
ITEM: ATOMS id type x y z 
10 1 4.603 4.603 4.603 
11 1 3.085 3.085 3.085 
12 1 3.796 3.796 3.796 
46 1 0.726 0.725 0.725 
47 1 2.26 2.259 2.26 
48 1 1.551 1.55 1.55 
19 1 4.546 4.545 6.226 
20 1 3.013 3.013 7.764 
21 1 3.721 3.721 7.053 
31 1 0.668 0.667 10.103 
32 1 2.187 2.187 8.589 
33 1 1.476 1.475 9.298 
16 1 4.546 6.225 4.546 
17 1 3.013 7.765 3.013 
18 1 3.721 7.053 3.722 
25 1 0.668 10.103 0.668 
26 1 2.188 8.589 2.188 
27 1 1.476 9.298 1.476 
4 1 4.608 6.169 6.169 
5 1 3.086 7.684 7.684 
6 1 3.799 6.974 6.974 
37 1 0.729 10.046 10.046 
38 1 2.259 8.509 8.508 
39 1 1.552 9.219 9.219 
13 1 6.225 4.546 4.546 
14 1 7.764 3.013 3.013 
15 1 7.053 3.721 3.722 
28 1 10.102 0.667 0.668 
29 1 8.589 2.187 2.188 
30 1 9.298 1.475 1.476 
1 1 6.168 4.608 6.169 
2 1 7.684 3.086 7.684 
3 1 6.974 3.799 6.974 
40 1 10.045 0.728 10.046 
41 1 8.508 2.259 8.508 
42 1 9.218 1.551 9.218 
49 2 6.318 4.346 8.027 
7 1 6.169 6.169 4.608 
8 1 7.684 7.684 3.086 
9 1 6.974 6.974 3.799 
43 1 10.046 10.047 0.729 
44 1 8.508 8.509 2.259 
45 1 9.219 9.219 1.552 
22 1 6.229 6.229 6.229 
23 1 7.764 7.765 7.765 
24 1 7.055 7.056 7.055 
34 1 10.108 10.108 10.107 
35 1 8.59 8.59 8.59 
36 1 9.301 9.301 9.3 
ITEM: TIMESTEP
10
ITEM: NUMBER OF ATOMS
49
ITEM: BOX BOUNDS pp pp pp
0.0000000000000000e+00 1.1000000000000000e+01
0.0000000000000000e+00 1.1002000000000001e+01
0.0000000000000000e+00 1.1000000000000000e+01
ITEM: ATOMS id type x y z 
10 1 4.58214 4.61067 4.58546 
11 1 3.08469 3.08041 3.08467 
12 1 3.79298 3.80203 3.79268 
46 1 0.726258 0.725487 0.72511 
47 1 2.26164 2.25958 2.26137 
48 1 1.55073 1.55159 1.55024 
19 1 4.5667 4.5307 6.24142 
20 1 3.0019 3.00519 7.77158 
21 1 3.71893 3.70965 7.06425 
31 1 0.66099 0.665742 10.1038 
32 1 2.18336 2.18296 8.59213 
33 1 1.47066 1.47182 9.30306 
16 1 4.54176 6.22995 4.54207 
17 1 3.01127 7.76681 3.01047 
18 1 3.71744 7.05584 3.71969 
25 1 0.666241 10.1059 0.666435 
26 1 2.18659 8.59171 2.18707 
27 1 1.47382 9.2977 1.47323 
4 1 4.59105 6.18635 6.16075 
5 1 3.08532 7.68503 7.68861 
6 1 3.79544 6.97736 6.96918 
37 1 0.72912 10.0468 10.0452 
38 1 2.25993 8.50882 8.50784 
39 1 1.55144 9.21848 9.21924 
13 1 6.24202 4.52971 4.56718 
14 1 7.77311 3.0032 3.00093 
15 1 7.06611 3.70915 3.7171 
28 1 10.103 0.665447 0.661532 
29 1 8.5926 2.18246 2.18514 
30 1 9.30151 1.47274 1.46957 
1 1 6.11305 4.66198 6.10562 
2 1 7.67451 3.09021 7.74602 
3 1 7.04406 3.74212 6.90406 
40 1 10.036 0.736253 10.0383 
41 1 8.50477 2.25751 8.49997 
42 1 9.22277 1.55152 9.21745 
49 2 6.31022 4.34882 8.10752 
7 1 6.16109 6.19013 4.59078 
8 1 7.68851 7.68546 3.08505 
9 1 6.9696 6.9767 3.79532 
43 1 10.0452 10.0475 0.729578 
44 1 8.50756 8.50867 2.25993 
45 1 9.21945 9.21879 1.55178 
22 1 6.24299 6.20705 6.24414 
23 1 7.77102 7.7751 7.77168 
24 1 7.06523 7.057 7.06543 
34 1 10.1087 10.1138 10.1077 
35 1 8.59298 8.5919 8.59356 
36 1 9.30356 9.30725 9.30218 
ITEM: TIMESTEP
20
ITEM: NUMBER OF ATOMS
49
ITEM: BOX BOUNDS pp pp pp
0.0000000000000000e+00 1.1000000000000000e+01
0.0000000000000000e+00 1.1002000000000001e+01
0.0000000000000000e+00 1.1000000000000000e+01
ITEM: ATOMS id type x y z 
10 1 4.59427 4.61396 4.59769 
11 1 3.08641 3.0837 3.08391 
12 1 3.78862 3.80485 3.79446 
46 1 0.72966 0.730855 0.728275 
47 1 2.2626 2.26133 2.26201 
48 1 1.55444 1.54934 1.55352 
19 1 4.52465 4.54051 6.23024 
20 1 3.00551 3.0062 7.77002 
21 1 3.72896 3.70676 7.06751 
31 1 0.663862 0.6634 10.1099 
32 1 2.1789 2.18136 8.59631 
33 1 1.46762 1.46844 9.30154 
16 1 4.54698 6.22214 4.54832 
17 1 3.00034 7.77424 3.0039 
18 1 3.7141 7.06557 3.70888 
25 1 0.66432 10.1035 0.665171 
26 1 2.17951 8.59386 2.17884 
27 1 1.46958 9.3105 1.47084 
4 1 4.6012 6.174 6.1632 
5 1 3.08565 7.68362 7.68677 
6 1 3.79414 6.98033 6.96394 
37 1 0.730082 10.0418 10.0424 
38 1 2.2613 8.50493 8.50973 
39 1 1.55496 9.22111 9.21588 
13 1 6.22889 4.54416 4.51793 
14 1 7.77031 3.0066 3.00571 
15 1 7.06782 3.70685 3.72892 
28 1 10.108 0.663342 0.661468 
29 1 8.59697 2.18128 2.17614 
30 1 9.30386 1.46309 1.46997 
1 1 6.11113 4.66222 6.10391 
2 1 7.62658 3.12732 7.83952 
3 1 7.04378 3.73853 6.9107 
40 1 10.0476 0.728822 10.0454 
41 1 8.50769 2.26782 8.4942 
42 1 9.2132 1.54761 9.20323 
49 2 6.39409 4.27483 8.06276 
7 1 6.15915 6.17725 4.60222 
8 1 7.687 7.6836 3.0839 
9 1 6.96514 6.98279 3.79517 
43 1 10.0432 10.0421 0.730979 
44 1 8.51025 8.50573 2.26057 
45 1 9.21647 9.22188 1.55462 
22 1 6.23226 6.2509 6.23271 
23 1 7.76916 7.77035 7.76942 
24 1 7.06776 7.0464 7.06854 
34 1 10.1114 10.1131 10.1096 
35 1 8.59531 8.59953 8.59373 
36 1 9.30521 9.3046 9.30837 
ITEM: TIMESTEP
30
ITEM: NUMBER OF ATOMS
49
ITEM: BOX BOUNDS pp pp pp
0.0000000000000000e+00 1.1000000000000000e+01
0.0000000000000000e+00 1.1002000000000001e+01
0.0000000000000000e+00 1.1000000000000000e+01
ITEM: ATOMS id type x y z 
10 1 4.58241 4.61569 4.59079 
11 1 3.08401 3.08663 3.08564 
12 1 3.79405 3.80445 3.79332 
46 1 0.730096 0.728501 0.728688 
47 1 2.26473 2.26075 2.26381 
48 1 1.55407 1.55258 1.55295 
19 1 4.54427 4.53984 6.2318 
20 1 3.00529 2.99945 7.77698 
21 1 3.72021 3.70516 7.06892 
31 1 0.659357 0.662741 10.1073 
32 1 2.17892 2.18153 8.5921 
33 1 1.46801 1.46955 9.30751 
16 1 4.53644 6.23556 4.53647 
17 1 3.00582 7.77133 3.00575 
18 1 3.71471 7.05979 3.71461 
25 1 0.66198 10.1103 0.662147 
26 1 2.18067 8.59643 2.18151 
27 1 1.46896 9.30413 1.46896 
4 1 4.59393 6.18222 6.1599 
5 1 3.08504 7.68504 7.68325 
6 1 3.79548 6.97672 6.96762 
37 1 0.731494 10.043 10.0418 
38 1 2.26296 8.50621 8.50805 
39 1 1.55432 9.21739 9.21776 
13 1 6.22912 4.54432 4.53796 
14 1 7.77893 2.9981 3.00362 
15 1 7.07078 3.70437 3.71794 
28 1 10.1081 0.661754 0.658859 
29 1 8.59435 2.1803 2.17978 
30 1 9.3044 1.46826 1.46625 
1 1 6.09835 4.67484 6.08429 
2 1 7.58313 3.16875 7.87926 
3 1 7.04967 3.73376 6.88544 
40 1 10.0405 0.731714 10.037 
41 1 8.50463 2.26247 8.5048 
42 1 9.22204 1.54839 9.20208 
49 2 6.44424 4.2279 8.06529 
7 1 6.15722 6.18899 4.5943 
8 1 7.68362 7.68546 3.08489 
9 1 6.96672 6.97776 3.79533 
43 1 10.0427 10.0437 0.732002 
44 1 8.50777 8.50618 2.26271 
45 1 9.21813 9.21771 1.55454 
22 1 6.23245 6.23074 6.23383 
23 1 7.77622 7.77099 7.77634 
24 1 7.06944 7.05534 7.07002 
34 1 10.1114 10.115 10.1099 
35 1 8.59318 8.59537 8.59391 
36 1 9.30565 9.30973 9.30505 
ITEM: TIMESTEP
40
ITEM: NUMBER OF ATOMS
49
ITEM: BOX BOUNDS pp pp pp
0.0000000000000000e+00 1.1000000000000000e+01
0.0000000000000000e+00 1.1002000000000001e+01
0.0000000000000000e+00 1.1000000000000000e+01
ITEM: ATOMS id type x y z 
10 1 4.58563 4.61701 4.59372 
11 1 3.08583 3.08609 3.08407 
12 1 3.78928 3.80619 3.79521 
46 1 0.73029 0.729006 0.729083 
47 1 2.2644 2.26086 2.26346 
48 1 1.55435 1.55208 1.55349 
19 1 4.54013 4.54086 6.23101 
20 1 3.00986 3.00154 7.77442 
21 1 3.72191 3.70858 7.06565 
31 1 0.656209 0.663504 10.1087 
32 1 2.17944 2.1814 8.59482 
33 1 1.46519 1.4672 9.3055 
16 1 4.5385 6.23329 4.5393 
17 1 3.00278 7.77452 3.00276 
18 1 3.71172 7.06233 3.71184 
25 1 0.662715 10.1097 0.662377 
26 1 2.18001 8.59667 2.18056 
27 1 1.46856 9.30531 1.46886 
4 1 4.59712 6.17855 6.15976 
5 1 3.0851 7.68488 7.68304 
6 1 3.79506 6.97737 6.967 
37 1 0.732519 10.0426 10.0421 
38 1 2.26363 8.50641 8.50816 
39 1 1.55338 9.21698 9.2177 
13 1 6.22859 4.54489 4.53104 
14 1 7.7767 2.99975 3.00801 
15 1 7.06757 3.70793 3.71869 
28 1 10.1082 0.661984 0.655454 
29 1 8.5964 2.17845 2.17865 
30 1 9.30604 1.4667 1.46357 
1 1 6.10933 4.66348 6.09181 
2 1 7.55649 3.19269 7.89638 
3 1 7.05204 3.73233 6.86438 
40 1 10.0465 0.725906 10.0395 
41 1 8.49687 2.26961 8.51562 
42 1 9.21621 1.5544 9.19299 
49 2 6.47813 4.19594 8.07382 
7 1 6.15556 6.18687 4.59712 
8 1 7.68369 7.68526 3.08383 
9 1 6.96633 6.9803 3.79583 
43 1 10.0427 10.0436 0.733003 
44 1 8.50799 8.50609 2.26347 
45 1 9.21808 9.21788 1.55344 
22 1 6.23144 6.23494 6.23338 
23 1 7.77388 7.76629 7.77419 
24 1 7.06572 7.05339 7.06644 
34 1 10.1113 10.1186 10.1091 
35 1 8.59426 8.59557 8.5947 
36 1 9.30633 9.31127 9.30598 
ITEM: TIMESTEP
50
ITEM: NUMBER OF ATOMS
49
ITEM: BOX BOUNDS pp pp pp
0.0000000000000000e+00 1.1000000000000000e+01
0.0000000000000000e+00 1.1002000000000001e+01
0.0000000000000000e+00 1.1000000000000000e+01
ITEM: ATOMS id type x y z 
10 1 4.58607 4.61782 4.59589 
11 1 3.08557 3.0869 3.08415 
12 1 3.78971 3.80622 3.79569 
46 1 0.730994 0.728944 0.730164 
47 1 2.26475 2.26099 2.26367 
48 1 1.55426 1.55211 1.55334 
19 1 4.5406 4.54232 6.2298 
20 1 3.01156 3.00198 7.77395 
21 1 3.72213 3.70991 7.06429 
31 1 0.65635 0.663278 10.108 
32 1 2.17921 2.18023 8.5957 
33 1 1.46604 1.46926 9.30397 
16 1 4.53845 6.23347 4.53942 
17 1 3.00291 7.77459 3.00284 
18 1 3.71067 7.06284 3.7111 
25 1 0.662191 10.1095 0.662056 
26 1 2.17963 8.5971 2.18028 
27 1 1.46789 9.30591 1.46786 
4 1 4.59902 6.17663 6.15983 
5 1 3.08484 7.68516 7.68243 
6 1 3.79586 6.97668 6.96726 
37 1 0.73336 10.0416 10.0427 
38 1 2.26345 8.50685 8.50848 
39 1 1.55325 9.21666 9.21763 
13 1 6.22705 4.54659 4.52999 
14 1 7.77655 2.99974 3.00939 
15 1 7.06656 3.70896 3.71793 
28 1 10.1083 0.661397 0.65544 
29 1 8.59741 2.17782 2.17869 
30 1 9.3046 1.46756 1.46342 
1 1 6.11838 4.65457 6.09693 
2 1 7.54611 3.20248 7.89605 
3 1 7.052 3.7328 6.85259 
40 1 10.0479 0.72434 10.0391 
41 1 8.49129 2.27477 8.52032 
42 1 9.21639 1.55437 9.19143 
49 2 6.48599 4.1882 8.0827 
7 1 6.15528 6.18614 4.59923 
8 1 7.68354 7.68539 3.08388 
9 1 6.96555 6.98054 3.796 
43 1 10.043 10.0433 0.73369 
44 1 8.50876 8.50697 2.26286 
45 1 9.21805 9.21745 1.55332 
22 1 6.22988 6.23449 6.23202 
23 1 7.77309 7.7642 7.77346 
24 1 7.06435 7.05328 7.06524 
34 1 10.1114 10.1185 10.1093 
35 1 8.59517 8.5957 8.59576 
36 1 9.30465 9.31049 9.30383 
ITEM: TIMESTEP
60
ITEM: NUMBER OF ATOMS
49
ITEM: BOX BOUNDS pp pp pp
0.0000000000000000e+00 1.1000000000000000e+01
0.0000000000000000e+00 1.1002000000000001e+01
0.0000000000000000e+00 1.1000000000000000e+01
ITEM: ATOMS id type x y z 
10 1 4.58591 4.61799 4.59884 
11 1 3.08491 3.08755 3.08531 
12 1 3.7913 3.80663 3.79459 
46 1 0.730432 0.728808 0.730164 
47 1 2.26434 2.26121 2.26344 
48 1 1.55475 1.55138 1.55324 
19 1 4.54148 4.54348 6.22889 
20 1 3.0131 3.00261 7.77329 
21 1 3.72241 3.7113 7.06291 
31 1 0.65656 0.663497 10.1078 
32 1 2.17985 2.18045 8.59513 
33 1 1.46669 1.47 9.30383 
16 1 4.53752 6.23363 4.53855 
17 1 3.00284 7.77382 3.00275 
18 1 3.71129 7.06356 3.712 
25 1 0.661344 10.11 0.661317 
26 1 2.17895 8.59677 2.18 
27 1 1.46867 9.30709 1.46776 
4 1 4.60142 6.17511 6.16054 
5 1 3.08556 7.68553 7.68162 
6 1 3.7956 6.97512 6.96771 
37 1 0.732902 10.041 10.0429 
38 1 2.26277 8.50648 8.50761 
39 1 1.55472 9.21708 9.21878 
13 1 6.22587 4.548 4.52957 
14 1 7.77631 3.00001 3.01058 
15 1 7.06528 3.71013 3.71733 
28 1 10.1083 0.661809 0.654709 
29 1 8.59679 2.17825 2.17792 
30 1 9.30557 1.46689 1.4654 
1 1 6.126 4.64701 6.09946 
2 1 7.5439 3.20484 7.89223 
3 1 7.05049 3.73431 6.84714 
40 1 10.0494 0.722958 10.0385 
41 1 8.48735 2.27832 8.52533 
42 1 9.21569 1.55517 9.19018 
49 2 6.4864 4.18759 8.08916 
7 1 6.15493 6.18556 4.60103 
8 1 7.68268 7.68543 3.08387 
9 1 6.96589 6.98055 3.79689 
43 1 10.0429 10.0432 0.733041 
44 1 8.50829 8.5066 2.26199 
45 1 9.21893 9.21801 1.55485 
22 1 6.2286 6.23364 6.23095 
23 1 7.77233 7.76243 7.77273 
24 1 7.06279 7.05296 7.06385 
34 1 10.1105 10.1192 10.1082 
35 1 8.59424 8.59614 8.59479 
36 1 9.3052 9.3079 9.30429 
ITEM: TIMESTEP
70
ITEM: NUMBER OF ATOMS
49
ITEM: BOX BOUNDS pp pp pp
0.0000000000000000e+00 1.1000000000000000e+01
0.0000000000000000e+00 1.1002000000000001e+01
0.0000000000000000e+00 1.1000000000000000e+01
ITEM: ATOMS id type x y z 
10 1 4.58532 4.61949 4.60393 
11 1 3.08541 3.08987 3.08571 
12 1 3.79119 3.80699 3.79679 
46 1 0.730121 0.728295 0.730191 
47 1 2.26498 2.26133 2.26327 
48 1 1.55439 1.55201 1.55401 
19 1 4.54301 4.54591 6.22727 
20 1 3.01731 3.00427 7.77144 
21 1 3.72222 3.7146 7.05982 
31 1 0.656116 0.664591 10.1064 
32 1 2.18239 2.18158 8.5941 
33 1 1.46817 1.47168 9.30179 
16 1 4.5357 6.2354 4.53693 
17 1 3.00329 7.77336 3.00329 
18 1 3.71145 7.06272 3.7129 
25 1 0.660344 10.1114 0.659373 
26 1 2.17897 8.59751 2.17935 
27 1 1.46772 9.30676 1.46753 
4 1 4.60571 6.17012 6.16293 
5 1 3.08589 7.68457 7.67941 
6 1 3.798 6.97394 6.96873 
37 1 0.733153 10.0399 10.0443 
38 1 2.26222 8.50664 8.50648 
39 1 1.55638 9.21659 9.2199 
13 1 6.22386 4.55076 4.52689 
14 1 7.77611 3.00018 3.01306 
15 1 7.06275 3.71254 3.71414 
28 1 10.1085 0.661681 0.653538 
29 1 8.59679 2.17852 2.1786 
30 1 9.30507 1.46667 1.46638 
1 1 6.14477 4.62796 6.10318 
2 1 7.53621 3.21249 7.88762 
3 1 7.04767 3.73704 6.83431 
40 1 10.0529 0.719733 10.0354 
41 1 8.477 2.28754 8.54165 
42 1 9.21277 1.55828 9.18736 
49 2 6.49372 4.18028 8.10486 
7 1 6.15453 6.18563 4.6057 
8 1 7.68146 7.68499 3.08461 
9 1 6.96429 6.98164 3.79806 
43 1 10.0432 10.0441 0.732422 
44 1 8.50798 8.50651 2.26113 
45 1 9.22012 9.2185 1.55593 
22 1 6.22574 6.23234 6.22896 
23 1 7.77042 7.75806 7.77097 
24 1 7.05895 7.05292 7.06059 
34 1 10.109 10.1202 10.1062 
35 1 8.59252 8.59412 8.59321 
36 1 9.30421 9.30481 9.30249 
ITEM: TIMESTEP
80
ITEM: NUMBER OF ATOMS
49
ITEM: BOX BOUNDS pp pp pp
0.0000000000000000e+00 1.1000000000000000e+01
0.0000000000000000e+00 1.1002000000000001e+01
0.0000000000000000e+00 1.1000000000000000e+01
ITEM: ATOMS id type x y z 
10 1 4.58482 4.61965 4.60371 
11 1 3.08597 3.08974 3.0854 
12 1 3.79 3.80746 3.79765 
46 1 0.72984 0.7286 0.730077 
47 1 2.2649 2.26139 2.26332 
48 1 1.55452 1.55203 1.55389 
19 1 4.54284 4.54579 6.22748 
20 1 3.01729 3.00419 7.77149 
21 1 3.72205 3.71482 7.0597 
31 1 0.655756 0.664832 10.1061 
32 1 2.18275 2.18166 8.59409 
33 1 1.46824 1.47177 9.30149 
16 1 4.53576 6.23532 4.53712 
17 1 3.0031 7.77355 3.00342 
18 1 3.71142 7.06271 3.71239 
25 1 0.660633 10.1113 0.659389 
26 1 2.17902 8.59749 2.17952 
27 1 1.46787 9.30651 1.4674 
4 1 4.60566 6.16988 6.1635 
5 1 3.08573 7.6843 7.6794 
6 1 3.79847 6.97423 6.96877 
37 1 0.733608 10.04 10.0446 
38 1 2.26267 8.50691 8.50679 
39 1 1.55559 9.21618 9.21935 
13 1 6.22434 4.55036 4.52637 
14 1 7.77627 2.99995 3.01277 
15 1 7.06296 3.71247 3.71334 
28 1 10.1086 0.661314 0.653758 
29 1 8.59711 2.17784 2.17938 
30 1 9.30481 1.46756 1.46503 
1 1 6.1445 4.62816 6.10112 
2 1 7.53708 3.21161 7.889 
3 1 7.04784 3.73671 6.83592 
40 1 10.053 0.719757 10.0345 
41 1 8.47683 2.28766 8.54328 
42 1 9.21292 1.5581 9.18866 
49 2 6.49432 4.17982 8.10439 
7 1 6.1541 6.1866 4.60563 
8 1 7.6812 7.68507 3.08442 
9 1 6.96457 6.98183 3.79852 
43 1 10.0431 10.0445 0.732772 
44 1 8.50829 8.50676 2.26163 
45 1 9.21953 9.218 1.55512 
22 1 6.22579 6.23254 6.2291 
23 1 7.77034 7.75802 7.77092 
24 1 7.05874 7.0531 7.06048 
34 1 10.1092 10.1199 10.106 
35 1 8.59286 8.59289 8.59343 
36 1 9.3032 9.30612 9.30159 
ITEM: TIMESTEP
85
ITEM: NUMBER OF ATOMS
49
ITEM: BOX BOUNDS pp pp pp
0.0000000000000000e+00 1.1000000000000000e+01
0.0000000000000000e+00 1.1002000000000001e+01
0.0000000000000000e+00 1.1000000000000000e+01
ITEM: ATOMS id type x y z 
10 1 4.58479 4.61966 4.60372 
11 1 3.08599 3.08973 3.08539 
12 1 3.78995 3.80749 3.79768 
46 1 0.729834 0.728618 0.730058 
47 1 2.26491 2.2614 2.2633 
48 1 1.55451 1.55202 1.55392 
19 1 4.54283 4.54579 6.22748 
20 1 3.01729 3.00419 7.77149 
21 1 3.72205 3.71483 7.05969 
31 1 0.655745 0.664862 10.1061 
32 1 2.18276 2.18168 8.5941 
33 1 1.46824 1.47175 9.30145 
16 1 4.53577 6.23531 4.53711 
17 1 3.00311 7.77354 3.00341 
18 1 3.7114 7.06273 3.71241 
25 1 0.660642 10.1113 0.659412 
26 1 2.17902 8.5975 2.17955 
27 1 1.46789 9.30648 1.46736 
4 1 4.60565 6.16987 6.16351 
5 1 3.08573 7.68431 7.67938 
6 1 3.79849 6.97422 6.9688 
37 1 0.733626 10.04 10.0446 
38 1 2.26269 8.50691 8.5068 
39 1 1.55556 9.21617 9.21931 
13 1 6.22436 4.55034 4.52635 
14 1 7.77628 2.99994 3.01276 
15 1 7.06297 3.71246 3.71331 
28 1 10.1086 0.6613 0.653756 
29 1 8.5971 2.1778 2.1794 
30 1 9.30484 1.46761 1.46501 
1 1 6.1445 4.62815 6.10104 
2 1 7.53712 3.21158 7.88903 
3 1 7.04785 3.7367 6.83601 
40 1 10.053 0.719753 10.0344 
41 1 8.47681 2.28767 8.54334 
42 1 9.21293 1.55809 9.18872 
49 2 6.49433 4.17982 8.10437 
7 1 6.15408 6.18663 4.60561 
8 1 7.68119 7.68505 3.0844 
9 1 6.96457 6.98187 3.79856 
43 1 10.0431 10.0445 0.732785 
44 1 8.50831 8.50677 2.26165 
45 1 9.21949 9.21798 1.55509 
22 1 6.2258 6.23255 6.22911 
23 1 7.77033 7.75802 7.77092 
24 1 7.05873 7.05312 7.06048 
34 1 10.1092 10.1199 10.1059 
35 1 8.59288 8.59284 8.59344 
36 1 9.30316 9.30617 9.30155 
ITEM: TIMESTEP
86
ITEM: NUMBER OF ATOMS
49
ITEM: BOX BOUNDS pp pp pp
0.0000000000000000e+00 1.1000000000000000e+01
0.0000000000000000e+00 1.1002000000000001e+01
0.0000000000000000e+00 1.1000000000000000e+01
ITEM: ATOMS id type x y z 
10 1 4.58479 4.61966 4.60372 
11 1 3.08599 3.08973 3.08539 
12 1 3.78995 3.80749 3.79768 
46 1 0.729834 0.728618 0.730058 
47 1 2.26491 2.2614 2.2633 
48 1 1.55451 1.55202 1.55392 
19 1 4.54283 4.54579 6.22748 
20 1 3.01729 3.00419 7.77149 
21 1 3.72205 3.71483 7.05969 
31 1 0.655745 0.664862 10.1061 
32 1 2.18276 2.18168 8.5941 
33 1 1.46824 1.47175 9.30145 
16 1 4.53577 6.23531 4.53711 
17 1 3.00311 7.77354 3.00341 
18 1 3.7114 7.06273 3.71241 
25 1 0.660642 10.1113 0.659412 
26 1 2.17902 8.5975 2.17955 
27 1 1.46789 9.30648 1.46736 
4 1 4.60565 6.16987 6.16351 
5 1 3.08573 7.68431 7.67938 
6 1 3.79849 6.97422 6.9688 
37 1 0.733626 10.04 10.0446 
38 1 2.26269 8.50691 8.5068 
39 1 1.55556 9.21617 9.21931 
13 1 6.22436 4.55034 4.52635 
14 1 7.77628 2.99994 3.01276 
15 1 7.06297 3.71246 3.71331 
28 1 10.1086 0.6613 0.653756 
29 1 8.5971 2.1778 2.1794 
30 1 9.30484 1.46761 1.46501 
1 1 6.1445 4.62815 6.10104 
2 1 7.53712 3.21158 7.88902 
3 1 7.04785 3.7367 6.83601 
40 1 10.053 0.719753 10.0344 
41 1 8.47681 2.28767 8.54334 
42 1 9.21293 1.55809 9.18872 
49 2 6.49433 4.17982 8.10437 
7 1 6.15408 6.18663 4.60561 
8 1 7.68119 7.68505 3.0844 
9 1 6.96457 6.98187 3.79856 
43 1 10.0431 10.0445 0.732785 
44 1 8.50831 8.50677 2.26165 
45 1 9.21949 9.21798 1.55509 
22 1 6.2258 6.23255 6.22911 
23 1 7.77033 7.75802 7.77092 
24 1 7.05873 7.05312 7.06048 
34 1 10.1092 10.1199 10.1059 
35 1 8.59288 8.59284 8.59344 
36 1 9.30316 9.30617 9.30155 
ITEM: TIMESTEP
90
ITEM: NUMBER OF ATOMS
49
ITEM: BOX BOUNDS pp pp pp
-1.2656664387970026e-04 1.1000126566643880e+01
-2.0827438597207583e-04 1.1002208274385973e+01
-9.5702656823171486e-04 1.1000957026568232e+01
ITEM: ATOMS id type x y z 
10 1 4.58477 4.61968 4.60359 
11 1 3.086 3.08962 3.08495 
12 1 3.78978 3.80748 3.79744 
46 1 0.729652 0.728414 0.729218 
47 1 2.2648 2.26125 2.26277 
48 1 1.55444 1.55189 1.55313 
19 1 4.54284 4.54578 6.22759 
20 1 3.01725 3.00411 7.77187 
21 1 3.72201 3.7148 7.05993 
31 1 0.655613 0.664598 10.1068 
32 1 2.18271 2.1815 8.59459 
33 1 1.46817 1.47172 9.30219 
16 1 4.53579 6.2353 4.537 
17 1 3.00304 7.77365 3.00301 
18 1 3.71138 7.06272 3.71206 
25 1 0.660541 10.1115 0.658445 
26 1 2.17897 8.59759 2.17891 
27 1 1.46775 9.30667 1.46678 
4 1 4.60575 6.16983 6.16371 
5 1 3.08573 7.68436 7.67982 
6 1 3.79837 6.97431 6.96895 
37 1 0.733503 10.0403 10.0454 
38 1 2.26264 8.50702 8.50735 
39 1 1.55536 9.21637 9.21995 
13 1 6.22439 4.55031 4.52619 
14 1 7.77635 2.99982 3.0123 
15 1 7.06297 3.71244 3.71297 
28 1 10.1087 0.661033 0.6529 
29 1 8.59715 2.1776 2.17882 
30 1 9.30501 1.46754 1.46429 
1 1 6.1445 4.62815 6.1009 
2 1 7.53719 3.21148 7.88939 
3 1 7.04793 3.73656 6.83658 
40 1 10.0531 0.719544 10.0351 
41 1 8.47685 2.28757 8.54403 
42 1 9.21303 1.55793 9.18949 
49 2 6.4944 4.17973 8.10476 
7 1 6.15406 6.18672 4.60559 
8 1 7.68127 7.68516 3.08405 
9 1 6.96452 6.98191 3.79815 
43 1 10.0433 10.0448 0.731941 
44 1 8.50842 8.50689 2.26113 
45 1 9.21956 9.21815 1.55429 
22 1 6.22577 6.23255 6.22919 
23 1 7.77038 7.75809 7.77131 
24 1 7.05869 7.05313 7.06067 
34 1 10.1094 10.12 10.1068 
35 1 8.593 8.59285 8.59401 
36 1 9.30314 9.30645 9.30212 
ITEM: TIMESTEP
100
ITEM: NUMBER OF ATOMS
49
ITEM: BOX BOUNDS pp pp pp
1.0046829487443750e-03 1.0998995317051255e+01
5.9955766416839272e-04 1.1001400442335834e+01
-3.8139746919994499e-03 1.1003813974692003e+01
ITEM: ATOMS id type x y z 
10 1 4.58484 4.62007 4.60331 
11 1 3.08667 3.08997 3.08372 
12 1 3.78973 3.80789 3.79669 
46 1 0.730403 0.729063 0.726551 
47 1 2.26536 2.26157 2.26097 
48 1 1.55516 1.5525 1.55096 
19 1 4.54312 4.54603 6.22787 
20 1 3.0179 3.0046 7.77293 
21 1 3.72234 3.71518 7.06064 
31 1 0.6565 0.665303 10.1093 
32 1 2.18348 2.18196 8.59623 
33 1 1.46909 1.47239 9.30402 
16 1 4.53617 6.23498 4.53666 
17 1 3.0036 7.77325 3.00185 
18 1 3.7118 7.06245 3.71107 
25 1 0.661481 10.1109 0.655777 
26 1 2.17961 8.59716 2.17717 
27 1 1.46868 9.30603 1.46472 
4 1 4.60614 6.16955 6.16411 
5 1 3.0863 7.68402 7.68085 
6 1 3.79871 6.97401 6.96989 
37 1 0.734465 10.0396 10.0481 
38 1 2.26332 8.50665 8.50916 
39 1 1.55594 9.21592 9.22163 
13 1 6.22429 4.55043 4.52571 
14 1 7.77586 3.00018 3.01098 
15 1 7.06261 3.71278 3.7118 
28 1 10.108 0.661626 0.65026 
29 1 8.59666 2.178 2.17703 
30 1 9.30421 1.46804 1.46226 
1 1 6.14432 4.62825 6.10021 
2 1 7.5371 3.21151 7.89071 
3 1 7.04759 3.73674 6.8383 
40 1 10.0523 0.72011 10.0372 
41 1 8.47621 2.28804 8.54641 
42 1 9.21231 1.55844 9.19201 
49 2 6.49425 4.17992 8.10586 
7 1 6.15366 6.18682 4.60533 
8 1 7.68081 7.6848 3.08288 
9 1 6.96412 6.98191 3.79723 
43 1 10.0425 10.0443 0.729388 
44 1 8.50806 8.50655 2.25949 
45 1 9.21856 9.21769 1.55192 
22 1 6.22549 6.23238 6.22946 
23 1 7.76978 7.75762 7.77237 
24 1 7.05823 7.05295 7.06138 
34 1 10.1086 10.1191 10.1092 
35 1 8.59259 8.59195 8.59575 
36 1 9.30187 9.3064 9.30373 
ITEM: TIMESTEP
110
ITEM: NUMBER OF ATOMS
49
ITEM: BOX BOUNDS pp pp pp
2.0898899660641672e-03 1.0997910110033935e+01
1.2828511762599114e-03 1.1000717148823743e+01
-7.0555072778601697e-03 1.1007055507277865e+01
ITEM: ATOMS id type x y z 
10 1 4.58474 4.62053 4.60303 
11 1 3.08721 3.09032 3.08236 
12 1 3.78979 3.8082 3.79579 
46 1 0.731071 0.729642 0.723483 
47 1 2.26587 2.2618 2.25887 
48 1 1.55584 1.55303 1.54858 
19 1 4.54341 4.54627 6.22818 
20 1 3.01858 3.00508 7.7741 
21 1 3.7226 3.71553 7.06145 
31 1 0.657436 0.66591 10.1119 
32 1 2.18426 2.18235 8.59804 
33 1 1.47005 1.473 9.30617 
16 1 4.53657 6.23463 4.53623 
17 1 3.00415 7.77286 3.00052 
18 1 3.71216 7.0623 3.70993 
25 1 0.662374 10.1104 0.652731 
26 1 2.18023 8.59679 2.17518 
27 1 1.46956 9.30549 1.46239 
4 1 4.60659 6.16921 6.16473 
5 1 3.08683 7.68371 7.68207 
6 1 3.79909 6.97379 6.97091 
37 1 0.735328 10.0391 10.0511 
38 1 2.26388 8.50636 8.51116 
39 1 1.55659 9.21558 9.22362 
13 1 6.22424 4.55051 4.52523 
14 1 7.77535 3.00052 3.0095 
15 1 7.06227 3.71308 3.71039 
28 1 10.1073 0.661992 0.647423 
29 1 8.59618 2.17824 2.17502 
30 1 9.30355 1.4685 1.4599 
1 1 6.14428 4.6282 6.09923 
2 1 7.53725 3.21129 7.89226 
3 1 7.04711 3.737 6.84029 
40 1 10.0516 0.720542 10.0395 
41 1 8.47557 2.28846 8.54928 
42 1 9.21159 1.5589 9.19495 
49 2 6.49402 4.18019 8.10708 
7 1 6.15319 6.18704 4.60503 
8 1 7.68031 7.68455 3.08151 
9 1 6.96383 6.98191 3.79626 
43 1 10.0418 10.044 0.726391 
44 1 8.50785 8.50625 2.25751 
45 1 9.21748 9.21748 1.54933 
22 1 6.2252 6.23223 6.22973 
23 1 7.76914 7.75713 7.77355 
24 1 7.05775 7.05283 7.06217 
34 1 10.1077 10.1186 10.1118 
35 1 8.59196 8.59144 8.59757 
36 1 9.30105 9.30575 9.30583 
ITEM: TIMESTEP
120
ITEM: NUMBER OF ATOMS
49
ITEM: BOX BOUNDS pp pp pp
2.8594593957849616e-03 1.0997140540604214e+01
1.8555591184416832e-03 1.1000144440881563e+01
-8.8376510926394970e-03 1.1008837651092644e+01
ITEM: ATOMS id type x y z 
10 1 4.58465 4.6208 4.60289 
11 1 3.08757 3.09058 3.08165 
12 1 3.78986 3.80848 3.79526 
46 1 0.731557 0.730201 0.72176 
47 1 2.26623 2.26212 2.25771 
48 1 1.55641 1.55335 1.5473 
19 1 4.54358 4.54643 6.22834 
20 1 3.01901 3.00542 7.77476 
21 1 3.72281 3.71579 7.06188 
31 1 0.658167 0.666383 10.1134 
32 1 2.18479 2.18268 8.59901 
33 1 1.47075 1.47349 9.3074 
16 1 4.53684 6.23443 4.53595 
17 1 3.00455 7.77261 2.99976 
18 1 3.71235 7.06209 3.70935 
25 1 0.663037 10.11 0.651039 
26 1 2.18066 8.5965 2.1741 
27 1 1.47018 9.30504 1.46106 
4 1 4.60685 6.16897 6.16514 
5 1 3.08718 7.68342 7.68274 
6 1 3.79941 6.97367 6.97149 
37 1 0.735891 10.0387 10.0527 
38 1 2.26423 8.50615 8.51214 
39 1 1.55716 9.21519 9.22496 
13 1 6.22423 4.55056 4.52497 
14 1 7.77502 3.00078 3.00865 
15 1 7.06204 3.71331 3.70959 
28 1 10.1068 0.662383 0.645927 
29 1 8.59583 2.17851 2.17388 
30 1 9.30308 1.46884 1.45866 
1 1 6.14428 4.62816 6.09863 
2 1 7.53726 3.21125 7.89311 
3 1 7.0468 3.73718 6.84142 
40 1 10.051 0.720943 10.0407 
41 1 8.47503 2.2889 8.55086 
42 1 9.21107 1.5593 9.19662 
49 2 6.49385 4.18039 8.10779 
7 1 6.15292 6.18716 4.60486 
8 1 7.67998 7.68431 3.08075 
9 1 6.96358 6.98194 3.79576 
43 1 10.0411 10.0437 0.724695 
44 1 8.50758 8.50599 2.2564 
45 1 9.21687 9.21721 1.54797 
22 1 6.22502 6.23213 6.22986 
23 1 7.76872 7.75679 7.77421 
24 1 7.05743 7.05271 7.06258 
34 1 10.1071 10.118 10.1132 
35 1 8.59154 8.59103 8.59854 
36 1 9.30043 9.30525 9.30702 
ITEM: TIMESTEP
130
ITEM: NUMBER OF ATOMS
49
ITEM: BOX BOUNDS pp pp pp
3.9604415463276622e-03 1.0996039558453671e+01
2.6542680947977825e-03 1.0999345731905208e+01
-1.1870695172062252e-02 1.1011870695172068e+01
ITEM: ATOMS id type x y z 
10 1 4.58436 4.62126 4.60267 
11 1 3.08808 3.09091 3.08043 
12 1 3.78987 3.80896 3.79435 
46 1 0.732264 0.730912 0.718878 
47 1 2.26682 2.26238 2.25583 
48 1 1.55706 1.55415 1.54496 
19 1 4.54382 4.54667 6.22858 
20 1 3.01967 3.00594 7.77588 
21 1 3.72306 3.71618 7.06259 
31 1 0.659229 0.66713 10.1157 
32 1 2.18563 2.18315 8.60064 
33 1 1.47178 1.47421 9.30948 
16 1 4.53721 6.2341 4.53548 
17 1 3.00507 7.77224 2.99847 
18 1 3.71271 7.06185 3.70832 
25 1 0.664004 10.1093 0.64826 
26 1 2.18127 8.59612 2.1723 
27 1 1.47108 9.30436 1.4587 
4 1 4.60738 6.16867 6.16595 
5 1 3.08776 7.68315 7.68388 
6 1 3.79972 6.97327 6.97253 
37 1 0.736738 10.038 10.0555 
38 1 2.26474 8.50579 8.51392 
39 1 1.55798 9.21476 9.22695 
13 1 6.2243 4.55058 4.52459 
14 1 7.77457 3.00112 3.00716 
15 1 7.0617 3.71363 3.70816 
28 1 10.1061 0.662804 0.64342 
29 1 8.5953 2.17878 2.17198 
30 1 9.30255 1.46939 1.4565 
1 1 6.14445 4.62789 6.09742 
2 1 7.53737 3.21112 7.89449 
3 1 7.04631 3.73744 6.84352 
40 1 10.0503 0.721419 10.0427 
41 1 8.47419 2.28957 8.55376 
42 1 9.21033 1.55985 9.19965 
49 2 6.49361 4.18071 8.10899 
7 1 6.15242 6.18753 4.60451 
8 1 7.67948 7.68402 3.07943 
9 1 6.9633 6.98203 3.79499 
43 1 10.0401 10.0434 0.721715 
44 1 8.50708 8.50574 2.25444 
45 1 9.21623 9.2167 1.54575 
22 1 6.22473 6.23202 6.23005 
23 1 7.76808 7.75626 7.77534 
24 1 7.05693 7.05258 7.06326 
34 1 10.1061 10.1173 10.1156 
35 1 8.59086 8.5904 8.60021 
36 1 9.29963 9.30447 9.30895 
ITEM: TIMESTEP
140
ITEM: NUMBER OF ATOMS
49
ITEM: BOX BOUNDS pp pp pp
5.0316417675806968e-03 1.0994968358232416e+01
3.4975843521248880e-03 1.0998502415647879e+01
-1.4300766959301690e-02 1.1014300766959309e+01
ITEM: ATOMS id type x y z 
10 1 4.58414 4.62168 4.60242 
11 1 3.08852 3.09133 3.0794 
12 1 3.79001 3.80924 3.79372 
46 1 0.73296 0.731824 0.716505 
47 1 2.26733 2.26292 2.25424 
48 1 1.5579 1.55457 1.54327 
19 1 4.54402 4.54688 6.22877 
20 1 3.02024 3.00641 7.77681 
21 1 3.72336 3.71657 7.06315 
31 1 0.66031 0.667947 10.1177 
32 1 2.18643 2.18371 8.60204 
33 1 1.47269 1.4748 9.31099 
16 1 4.53753 6.23383 4.53501 
17 1 3.00561 7.77183 2.99739 
18 1 3.71298 7.06167 3.70757 
25 1 0.664983 10.1086 0.645965 
26 1 2.18188 8.59562 2.17077 
27 1 1.47191 9.30383 1.45696 
4 1 4.60772 6.16834 6.1666 
5 1 3.08819 7.68278 7.6848 
6 1 3.8002 6.97305 6.97338 
37 1 0.737631 10.0374 10.0576 
38 1 2.26531 8.50545 8.51527 
39 1 1.55872 9.21413 9.22865 
13 1 6.22434 4.55061 4.52429 
14 1 7.77414 3.00147 3.00594 
15 1 7.06137 3.71395 3.70706 
28 1 10.1054 0.663449 0.641438 
29 1 8.59484 2.17925 2.17044 
30 1 9.30183 1.46976 1.45482 
1 1 6.14457 4.6277 6.09662 
2 1 7.53735 3.21112 7.89574 
3 1 7.04584 3.73776 6.84482 
40 1 10.0496 0.722007 10.0443 
41 1 8.47341 2.29024 8.55597 
42 1 9.20956 1.56048 9.20197 
49 2 6.49336 4.18102 8.11007 
7 1 6.15212 6.18777 4.6043 
8 1 7.67911 7.68372 3.07845 
9 1 6.96283 6.98203 3.79418 
43 1 10.0392 10.0429 0.719416 
44 1 8.50666 8.5053 2.25299 
45 1 9.21536 9.21629 1.54384 
22 1 6.22449 6.23193 6.23021 
23 1 7.76752 7.7558 7.77627 
24 1 7.05648 7.0524 7.06381 
34 1 10.1053 10.1163 10.1174 
35 1 8.59029 8.58965 8.60158 
36 1 9.2987 9.30395 9.31044 
ITEM: TIMESTEP
150
ITEM: NUMBER OF ATOMS
49
ITEM: BOX BOUNDS pp pp pp
5.6539424675715461e-03 1.0994346057532427e+01
4.0007191392858943e-03 1.0997999280860716e+01
-1.5278440119334588e-02 1.1015278440119342e+01
ITEM: ATOMS id type x y z 
10 1 4.58399 4.62194 4.60234 
11 1 3.08877 3.09158 3.07899 
12 1 3.79008 3.80943 3.79349 
46 1 0.733445 0.732231 0.715582 
47 1 2.26773 2.26308 2.25369 
48 1 1.55823 1.55517 1.54242 
19 1 4.54413 4.547 6.22881 
20 1 3.02057 3.00669 7.77717 
21 1 3.72352 3.7168 7.06335 
31 1 0.660968 0.668422 10.1184 
32 1 2.18692 2.18403 8.60258 
33 1 1.47322 1.47521 9.3116 
16 1 4.53769 6.2337 4.53485 
17 1 3.00588 7.77164 2.997 
18 1 3.71317 7.06149 3.70719 
25 1 0.665569 10.1081 0.645025 
26 1 2.18226 8.59536 2.17017 
27 1 1.47234 9.30344 1.45622 
4 1 4.60795 6.16813 6.16698 
5 1 3.08844 7.68256 7.68517 
6 1 3.80049 6.97291 6.97376 
37 1 0.738157 10.037 10.0586 
38 1 2.26565 8.50522 8.5158 
39 1 1.55915 9.21379 9.22935 
13 1 6.22439 4.55061 4.52422 
14 1 7.77389 3.00168 3.00542 
15 1 7.06118 3.71414 3.70655 
28 1 10.1049 0.663752 0.640719 
29 1 8.59452 2.17947 2.16982 
30 1 9.30152 1.47011 1.45414 
1 1 6.14471 4.62753 6.09605 
2 1 7.5373 3.21117 7.89622 
3 1 7.04559 3.73792 6.84557 
40 1 10.0492 0.722352 10.0449 
41 1 8.47294 2.29065 8.55707 
42 1 9.20909 1.56088 9.20305 
49 2 6.49322 4.1812 8.11049 
7 1 6.1519 6.18796 4.60421 
8 1 7.67885 7.68357 3.07803 
9 1 6.96266 6.98202 3.79393 
43 1 10.0386 10.0426 0.718425 
44 1 8.50638 8.50507 2.25237 
45 1 9.21492 9.216 1.54309 
22 1 6.22435 6.23188 6.23022 
23 1 7.76719 7.75552 7.77663 