ITEM: TIMESTEP
0
ITEM: NUMBER OF ATOMS
130
ITEM: BOX BOUNDS xy xz yz pp pp pp
0.0000000000000000e+00 2.3654499999999999e+01 7.8845000000000001e+00
0.0000000000000000e+00 1.3658086643083999e+01 0.0000000000000000e+00
0.0000000000000000e+00 2.5747000000000000e+01 0.0000000000000000e+00
ITEM: ATOMS id type x y z 
18 1 10.522 6.683 2.644 
28 1 5.247 4.273 12.803 
31 1 9.65 6.514 0.446 
62 1 9.171 5.15 12.405 
91 1 9.65 6.514 11.889 
92 1 10.81 6.18 11.007 
106 1 10.522 6.683 9.691 
127 1 10.81 6.18 1.328 
4 1 4.402 5.735 13.319 
5 1 3.307 5.568 14.201 
43 1 4.549 6.796 15.517 
52 1 9.172 5.15 25.677 
66 1 4.402 5.735 24.762 
67 1 5.003 6.76 23.881 
88 1 5.247 4.273 25.278 
107 1 3.307 5.568 23.881 
116 1 4.549 6.796 22.565 
117 1 5.003 6.76 14.201 
11 1 11.272 7.494 3.321 
12 1 10.477 8.871 4.018 
14 1 9.018 11.397 0.446 
15 1 10.114 11.565 1.328 
16 1 8.412 9.024 0.654 
19 1 10.477 8.871 5.569 
29 1 10.927 10.156 3.321 
32 1 8.77 7.648 1.328 
35 1 12.036 9.594 2.644 
45 1 9.231 8.963 3.321 
47 1 12.762 8.702 0.446 
49 1 11.224 11 0.654 
51 1 8.872 10.337 2.644 
53 1 11.272 7.494 9.014 
54 1 10.477 8.871 8.317 
56 1 9.018 11.397 11.889 
57 1 8.418 10.372 11.007 
58 1 11.224 11 11.681 
60 1 12.255 7.901 9.691 
61 1 10.477 8.871 6.766 
73 1 9.231 8.963 9.014 
75 1 12.762 8.702 11.889 
76 1 12.202 10.061 11.007 
79 1 9.224 7.617 9.691 
80 1 8.174 12.859 12.405 
89 1 10.927 10.156 9.014 
93 1 8.412 9.024 11.681 
95 1 9.951 11.095 9.691 
105 1 10.114 11.565 11.007 
109 1 8.77 7.648 11.007 
110 1 12.036 9.594 9.691 
114 1 8.872 10.337 9.691 
119 1 8.418 10.372 1.328 
120 1 12.255 7.901 2.644 
123 1 12.202 10.061 1.328 
124 1 9.224 7.617 2.644 
128 1 9.951 11.095 2.644 
6 1 5.009 8.108 13.527 
13 1 9.663 10.28 25.128 
17 1 9.204 8.965 25.162 
30 1 10.016 7.556 25.128 
34 1 11.289 7.464 25.162 
36 1 8.174 12.859 25.677 
46 1 11.752 8.777 25.128 
50 1 10.937 10.184 25.162 
55 1 9.663 10.28 12.954 
59 1 10.937 10.184 12.919 
74 1 11.752 8.777 12.954 
78 1 11.289 7.464 12.919 
90 1 10.016 7.556 12.954 
94 1 9.204 8.965 12.919 
101 1 5.009 8.108 24.555 
33 1 11.795 6.589 0.654 
77 1 11.795 6.589 11.681 
41 1 17.967 6.132 13.527 
68 1 17.967 6.132 24.554 
103 1 19.24 6.037 22.565 
126 1 19.24 6.037 15.517 
3 1 19.528 6.852 12.254 
7 1 19.987 8.167 12.289 
10 1 15.106 8.528 12.804 
22 1 19.175 9.576 12.254 
26 1 17.902 9.668 12.289 
38 1 17.439 8.356 12.254 
42 1 18.254 6.949 12.289 
44 1 20.019 11.982 12.804 
48 1 12.546 7.4 1.328 
65 1 19.528 6.852 0.081 
69 1 18.254 6.949 0.046 
82 1 17.439 8.356 0.081 
86 1 17.902 9.668 0.046 
96 1 14.084 8.604 12.405 
98 1 19.175 9.576 0.081 
102 1 19.987 8.167 0.046 
113 1 12.546 7.4 11.007 
1 1 17.919 9.638 16.194 
2 1 18.714 8.261 16.892 
8 1 18.669 10.449 15.517 
9 1 18.714 8.261 18.442 
20 1 14.084 8.604 25.677 
21 1 18.264 6.977 16.194 
23 1 19.541 10.618 13.32 
24 1 20.421 9.484 14.201 
25 1 17.396 10.544 13.527 
27 1 17.155 7.538 15.517 
37 1 19.96 8.169 16.194 
39 1 16.429 8.43 13.319 
40 1 16.644 9.732 14.201 
63 1 17.919 9.638 21.888 
64 1 18.714 8.261 21.19 
70 1 16.936 9.231 22.565 
71 1 18.714 8.261 19.64 
72 1 20.019 11.982 25.278 
81 1 19.96 8.169 21.888 
83 1 16.429 8.43 24.762 
84 1 16.989 7.071 23.881 
85 1 17.396 10.544 24.555 
87 1 19.967 9.515 22.565 
97 1 18.263 6.977 21.888 
99 1 19.541 10.618 24.762 
100 1 18.38 10.953 23.881 
104 1 15.106 8.528 25.278 
108 1 18.669 10.449 22.565 
111 1 20.421 9.484 23.881 
112 1 17.155 7.538 22.565 
115 1 16.644 9.732 23.881 
118 1 16.936 9.231 15.517 
121 1 16.989 7.071 14.201 
122 1 19.967 9.515 15.517 
125 1 18.38 10.953 14.201 
129 2 20.135 11.049 14.461 
130 3 21.111 11.049 14.461 
ITEM: TIMESTEP
10
ITEM: NUMBER OF ATOMS
130
ITEM: BOX BOUNDS xy xz yz pp pp pp
0.0000000000000000e+00 2.3654499999999999e+01 7.8845000000000001e+00
0.0000000000000000e+00 1.3658086643083999e+01 0.0000000000000000e+00
0.0000000000000000e+00 2.5747000000000000e+01 0.0000000000000000e+00
ITEM: ATOMS id type x y z 
18 1 10.3877 6.70421 2.6655 
28 1 5.18756 4.39149 12.8392 
31 1 9.4854 6.46126 0.421106 
62 1 9.16146 5.21363 12.3872 
91 1 9.48009 6.48307 11.9129 
92 1 10.8278 6.15253 11.001 
106 1 10.3861 6.70794 9.67441 
127 1 10.8212 6.1455 1.3309 
4 1 4.43811 5.75177 13.2655 
5 1 3.21372 5.5809 14.1991 
43 1 4.57567 6.90358 15.5069 
52 1 9.162 5.21225 25.6946 
66 1 4.43892 5.73786 24.8164 
67 1 5.0749 6.87462 23.8999 
88 1 5.18725 4.39266 25.2409 
107 1 3.20949 5.58277 23.878 
116 1 4.5631 6.91187 22.5588 
117 1 5.05581 6.88363 14.1751 
11 1 11.3373 7.55846 3.35747 
12 1 10.4806 8.8563 4.08475 
14 1 8.98988 11.3843 0.393797 
15 1 10.2021 11.5508 1.33103 
16 1 8.43491 8.97281 0.693112 
19 1 10.4751 8.8705 5.55915 
29 1 10.9334 10.1544 3.32823 
32 1 8.75097 7.69753 1.27467 
35 1 12.0419 9.57788 2.58393 
45 1 9.2309 8.95927 3.26587 
47 1 12.739 8.79306 0.502863 
49 1 11.2889 10.9228 0.681395 
51 1 8.8562 10.2222 2.65012 
53 1 11.3392 7.55722 8.98427 
54 1 10.4807 8.8576 8.25132 
56 1 8.99918 11.3819 11.9363 
57 1 8.34796 10.2754 11.0279 
58 1 11.2801 10.9155 11.6567 
60 1 12.266 7.99539 9.65099 
61 1 10.475 8.87061 6.7761 
73 1 9.23019 8.95694 9.07129 
75 1 12.7393 8.76869 11.815 
76 1 12.191 10.0634 11.0234 
79 1 9.23169 7.66386 9.75182 
80 1 8.235 12.7376 12.3672 
89 1 10.9331 10.1542 9.00875 
93 1 8.43685 8.94084 11.6309 
95 1 10.0165 11.075 9.68707 
105 1 10.203 11.5409 11.0115 
109 1 8.76594 7.70975 11.0395 
110 1 12.0415 9.57712 9.75053 
114 1 8.85682 10.2233 9.68385 
119 1 8.34817 10.2684 1.30923 
120 1 12.2564 8.01086 2.71885 
123 1 12.198 10.0608 1.31888 
124 1 9.24172 7.66439 2.61322 
128 1 10.0129 11.0743 2.64994 
6 1 4.97939 8.15457 13.5809 
13 1 9.56002 10.3749 25.1207 
17 1 9.24505 9.01444 25.1564 
30 1 9.95528 7.62816 25.1117 
34 1 11.3414 7.47377 25.1296 
36 1 8.23414 12.7391 25.7142 
46 1 11.6881 8.79152 25.1049 
50 1 10.9469 10.0776 25.168 
55 1 9.58299 10.3641 12.9593 
59 1 10.9537 10.0926 12.8987 
74 1 11.6835 8.81627 12.9726 
78 1 11.3287 7.46477 12.961 
90 1 9.95603 7.64069 12.9652 
94 1 9.24256 8.98564 12.925 
101 1 4.97265 8.15053 24.523 
33 1 11.7565 6.54308 0.631635 
77 1 11.7808 6.56368 11.6763 
41 1 17.9029 6.20801 13.553 
68 1 17.907 6.2117 24.5195 
103 1 19.1768 6.05998 22.5551 
126 1 19.1802 6.05092 15.5268 
3 1 19.6313 6.7718 12.245 
7 1 19.9169 8.14934 12.299 
10 1 15.1505 8.4926 12.8322 
22 1 19.2092 9.45411 12.2145 
26 1 17.8686 9.66852 12.2351 
38 1 17.5075 8.32762 12.23 
42 1 18.2517 7.05378 12.3005 
44 1 20.0335 12.0054 12.7666 
48 1 12.652 7.49646 1.364 
65 1 19.6484 6.76258 0.093119 
69 1 18.2581 7.0641 0.0443394 
82 1 17.5054 8.35486 0.113195 
86 1 17.8532 9.66312 0.0781662 
96 1 14.0395 8.63787 12.373 
98 1 19.2358 9.49598 0.0896075 
102 1 19.9235 8.105 0.0390636 
113 1 12.5945 7.50131 10.9608 
1 1 17.8507 9.58565 16.2207 
2 1 18.691 8.27031 16.9668 
8 1 18.7533 10.3962 15.5218 
9 1 18.7142 8.25997 18.4319 
20 1 13.9995 8.63237 25.7348 
21 1 18.248 6.98457 16.2037 
23 1 19.6252 10.6469 13.3036 
24 1 20.5474 9.41357 14.2263 
25 1 17.4193 10.5763 13.5455 
27 1 17.151 7.54855 15.455 
37 1 19.9669 8.16049 16.1475 
39 1 16.4484 8.38026 13.4078 
40 1 16.6128 9.62297 14.2423 
63 1 17.8672 9.58505 21.8609 
64 1 18.7086 8.27387 21.1241 
70 1 16.9406 9.11693 22.4862 
71 1 18.7165 8.26208 19.6522 
72 1 20.0286 11.9193 25.2603 
81 1 19.9578 8.17424 21.9436 
83 1 16.4456 8.33855 24.6992 
84 1 16.9978 7.06683 23.885 
85 1 17.4363 10.5921 24.5789 
87 1 19.9285 9.48008 22.5914 
97 1 18.2533 6.98488 21.8867 
99 1 19.7016 10.672 24.7882 
100 1 18.3778 10.98 23.8605 
104 1 15.1861 8.49862 25.2214 
108 1 18.8 10.4031 22.5577 
111 1 20.4393 9.42953 23.9416 
112 1 17.1582 7.55495 22.6241 
115 1 16.536 9.63815 23.8438 
118 1 16.9204 9.13924 15.5456 
121 1 16.9959 7.07097 14.1923 
122 1 19.9246 9.45964 15.5027 
125 1 18.3379 10.954 14.2502 
129 2 20.1847 11.1436 14.4039 
130 3 21.1511 10.9778 14.4517 
ITEM: TIMESTEP
20
ITEM: NUMBER OF ATOMS
130
ITEM: BOX BOUNDS xy xz yz pp pp pp
0.0000000000000000e+00 2.3654499999999999e+01 7.8845000000000001e+00
0.0000000000000000e+00 1.3658086643083999e+01 0.0000000000000000e+00
0.0000000000000000e+00 2.5747000000000000e+01 0.0000000000000000e+00
ITEM: ATOMS id type x y z 
18 1 10.3928 6.74009 2.64465 
28 1 5.16921 4.42946 12.85 
31 1 9.47155 6.45966 0.419826 
62 1 9.15305 5.22836 12.384 
91 1 9.47042 6.49848 11.9127 
92 1 10.8219 6.17368 10.9825 
106 1 10.3941 6.73905 9.69454 
127 1 10.8269 6.16709 1.35366 
4 1 4.43122 5.76345 13.2643 
5 1 3.21288 5.5963 14.1951 
43 1 4.57275 6.91138 15.5025 
52 1 9.14984 5.20984 25.6913 
66 1 4.43895 5.753 24.8112 
67 1 5.06318 6.88378 23.8977 
88 1 5.17035 4.42782 25.2307 
107 1 3.20991 5.59662 23.8842 
116 1 4.57131 6.92355 22.5778 
117 1 5.05825 6.88723 14.1748 
11 1 11.3267 7.55122 3.3478 
12 1 10.4819 8.8658 4.08578 
14 1 8.98661 11.3714 0.397831 
15 1 10.21 11.5362 1.32375 
16 1 8.43531 8.98244 0.686562 
19 1 10.4745 8.87073 5.55918 
29 1 10.9421 10.1439 3.32727 
32 1 8.75217 7.69729 1.26021 
35 1 12.0364 9.58699 2.5919 
45 1 9.22974 8.94893 3.27199 
47 1 12.7193 8.80037 0.514381 
49 1 11.2924 10.9176 0.677393 
51 1 8.84788 10.2102 2.6309 
53 1 11.3253 7.55214 8.99434 
54 1 10.4814 8.86149 8.25293 
56 1 8.98897 11.36 11.9332 
57 1 8.36627 10.2475 11.0308 
58 1 11.2964 10.9208 11.6564 
60 1 12.261 8.00016 9.64102 
61 1 10.474 8.87041 6.77631 
73 1 9.22948 8.94957 9.07028 
75 1 12.7193 8.77373 11.8078 
76 1 12.2075 10.0563 11.0154 
79 1 9.23751 7.65396 9.76757 
80 1 8.25176 12.7026 12.3573 
89 1 10.9437 10.1431 9.01072 
93 1 8.44156 8.94595 11.626 
95 1 10.024 11.0697 9.67996 
105 1 10.2065 11.5367 11.0128 
109 1 8.76326 7.713 11.0453 
110 1 12.0344 9.58993 9.74538 
114 1 8.84788 10.2096 9.70725 
119 1 8.35992 10.2509 1.30908 
120 1 12.2568 8.01215 2.71271 
123 1 12.2068 10.0639 1.32115 
124 1 9.25521 7.64828 2.59842 
128 1 10.0237 11.0698 2.65356 
6 1 4.98865 8.15952 13.5722 
13 1 9.56906 10.3652 25.125 
17 1 9.2199 9.01078 25.1599 
30 1 9.93828 7.64484 25.1238 
34 1 11.3281 7.47499 25.1362 
36 1 8.2497 12.7065 25.7234 
46 1 11.6888 8.79858 25.105 
50 1 10.9482 10.0945 25.1667 
55 1 9.5753 10.3475 12.9599 
59 1 10.9586 10.1018 12.9126 
74 1 11.6867 8.80711 12.9655 
78 1 11.306 7.4778 12.9596 
90 1 9.95695 7.66241 12.9641 
94 1 9.22798 8.96981 12.9126 
101 1 4.9805 8.14655 24.5188 
33 1 11.7504 6.55663 0.653694 
77 1 11.7639 6.56826 11.6632 
41 1 17.8959 6.20985 13.5522 
68 1 17.902 6.21775 24.5296 
103 1 19.1673 6.06179 22.5536 
126 1 19.1683 6.06039 15.528 
3 1 19.6246 6.77105 12.2459 
7 1 19.9465 8.15601 12.2984 
10 1 15.1502 8.48476 12.833 
22 1 19.2136 9.45043 12.2132 
26 1 17.8755 9.66078 12.2326 
38 1 17.501 8.32661 12.2383 
42 1 18.2424 7.03547 12.2958 
44 1 20.0332 12.0038 12.7568 
48 1 12.6539 7.52151 1.35096 
65 1 19.6301 6.75436 0.0890368 
69 1 18.2514 7.05004 0.0441646 
82 1 17.5017 8.33819 0.103964 
86 1 17.8626 9.66115 0.0739773 
96 1 14.0388 8.64445 12.3709 
98 1 19.2519 9.49011 0.0767227 
102 1 19.9567 8.11471 0.0496863 
113 1 12.5868 7.51573 10.9614 
1 1 17.8373 9.57345 16.2321 
2 1 18.6889 8.25994 16.9694 
8 1 18.7523 10.3898 15.5268 
9 1 18.7143 8.25965 18.4328 
20 1 14.0246 8.61853 25.7326 
21 1 18.2414 6.98555 16.2014 
23 1 19.6362 10.6545 13.2961 
24 1 20.5829 9.434 14.2238 
25 1 17.432 10.5756 13.545 
27 1 17.154 7.53634 15.4621 
37 1 19.963 8.15794 16.1618 
39 1 16.4666 8.35879 13.4046 
40 1 16.604 9.61711 14.2449 
63 1 17.8636 9.58144 21.859 
64 1 18.7091 8.26593 21.1203 
70 1 16.9346 9.11872 22.4956 
71 1 18.7171 8.26156 19.6519 
72 1 20.0414 11.9245 25.2646 
81 1 19.9612 8.18509 21.9374 
83 1 16.4695 8.33252 24.693 
84 1 16.9863 7.06704 23.8885 
85 1 17.4375 10.5771 24.5551 
87 1 19.9352 9.48192 22.6125 
97 1 18.2492 6.9893 21.8818 
99 1 19.7209 10.6728 24.7897 
100 1 18.3642 10.9662 23.855 
104 1 15.1637 8.5117 25.2234 
108 1 18.7987 10.3919 22.5647 
111 1 20.436 9.43038 23.9549 
112 1 17.1551 7.54585 22.6169 
115 1 16.5373 9.61129 23.8566 
118 1 16.9204 9.12619 15.5676 
121 1 16.985 7.07237 14.1913 
122 1 19.9362 9.45524 15.5021 
125 1 18.3351 10.952 14.2528 
129 2 20.193 11.173 14.3873 
130 3 21.1647 10.9493 14.4516 
ITEM: TIMESTEP
30
ITEM: NUMBER OF ATOMS
130
ITEM: BOX BOUNDS xy xz yz pp pp pp
0.0000000000000000e+00 2.3654499999999999e+01 7.8845000000000001e+00
0.0000000000000000e+00 1.3658086643083999e+01 0.0000000000000000e+00
0.0000000000000000e+00 2.5747000000000000e+01 0.0000000000000000e+00
ITEM: ATOMS id type x y z 
18 1 10.3899 6.76977 2.64097 
28 1 5.13135 4.51372 12.872 
31 1 9.43576 6.45218 0.412135 
62 1 9.12091 5.25621 12.3806 
91 1 9.42842 6.52683 11.9215 
92 1 10.8107 6.1901 10.9732 
106 1 10.3874 6.76086 9.69413 
127 1 10.8326 6.19214 1.36596 
4 1 4.43304 5.78345 13.2575 
5 1 3.18506 5.63682 14.2012 
43 1 4.56603 6.93604 15.4864 
52 1 9.11284 5.20907 25.6839 
66 1 4.44401 5.76955 24.8102 
67 1 5.0687 6.91511 23.8833 
88 1 5.13663 4.50438 25.2093 
107 1 3.18721 5.63554 23.8764 
116 1 4.56352 6.95541 22.5942 
117 1 5.06076 6.93799 14.1808 
11 1 11.3447 7.57186 3.34976 
12 1 10.4787 8.87076 4.09825 
14 1 8.97921 11.3596 0.400117 
15 1 10.2378 11.4962 1.33078 
16 1 8.40763 8.97007 0.675594 
19 1 10.4713 8.87148 5.56017 
29 1 10.9465 10.1361 3.34134 
32 1 8.75593 7.68651 1.21721 
35 1 12.0509 9.59836 2.6093 
45 1 9.23029 8.93157 3.26957 
47 1 12.6715 8.82712 0.524248 
49 1 11.3122 10.916 0.665343 
51 1 8.85706 10.1785 2.61351 
53 1 11.324 7.57387 8.98061 
54 1 10.4803 8.86037 8.24354 
56 1 8.98245 11.3369 11.9367 
57 1 8.35557 10.2012 11.0208 
58 1 11.32 10.9198 11.6645 
60 1 12.2664 8.02437 9.61834 
61 1 10.4705 8.8695 6.77906 
73 1 9.22713 8.94036 9.06771 
75 1 12.6848 8.79579 11.7956 
76 1 12.2461 10.0653 11.0121 
79 1 9.22356 7.65681 9.77716 
80 1 8.29174 12.6124 12.3328 
89 1 10.9483 10.135 8.99732 
93 1 8.41244 8.93054 11.6271 
95 1 10.0341 11.0563 9.68302 
105 1 10.2387 11.4976 11.0078 
109 1 8.72548 7.68816 11.0557 
110 1 12.047 9.60791 9.72983 
114 1 8.85841 10.1831 9.72357 
119 1 8.35246 10.2142 1.32245 
120 1 12.2707 8.0271 2.6969 
123 1 12.2464 10.0749 1.32661 
124 1 9.23726 7.65762 2.55225 
128 1 10.0326 11.0523 2.65048 
6 1 5.01168 8.1882 13.5688 
13 1 9.59104 10.3434 25.1081 
17 1 9.18091 9.00997 25.1339 
30 1 9.90537 7.68162 25.1685 
34 1 11.2819 7.48446 25.155 
36 1 8.28569 12.6257 25.7454 
46 1 11.6764 8.8088 25.111 
50 1 10.9475 10.1174 25.1527 
55 1 9.58723 10.3176 12.9836 
59 1 10.954 10.1169 12.9207 
74 1 11.6936 8.81782 12.9578 
78 1 11.2789 7.4906 12.9595 
90 1 9.94196 7.68883 12.9827 
94 1 9.21157 8.96413 12.9312 
101 1 5.00639 8.16097 24.5362 
33 1 11.757 6.61043 0.68159 
77 1 11.7447 6.59724 11.652 
41 1 17.8745 6.21161 13.5403 
68 1 17.8814 6.21795 24.5462 
103 1 19.158 6.07699 22.5553 
126 1 19.1562 6.07659 15.5228 
3 1 19.6006 6.80595 12.2342 
7 1 19.9926 8.15979 12.303 
10 1 15.1446 8.46616 12.8356 
22 1 19.2364 9.44111 12.2164 
26 1 17.9022 9.64357 12.2374 
38 1 17.4923 8.31021 12.2495 
42 1 18.2408 7.01197 12.2838 
44 1 20.0276 11.9899 12.7261 
48 1 12.6788 7.59477 1.31739 
65 1 19.6017 6.78532 0.105622 
69 1 18.2436 7.01168 0.0589564 
82 1 17.5129 8.32694 0.0964709 
86 1 17.9078 9.65334 0.053574 
96 1 14.045 8.6633 12.3689 
98 1 19.2863 9.45054 0.0324589 
102 1 20.0143 8.1209 0.0730856 
113 1 12.5663 7.54848 10.9534 
1 1 17.8244 9.54636 16.2546 
2 1 18.6836 8.25394 16.9786 
8 1 18.7815 10.3391 15.5289 
9 1 18.7137 8.25672 18.4351 
20 1 14.0424 8.57928 25.7574 
21 1 18.2308 6.98344 16.2138 
23 1 19.6532 10.675 13.2718 
24 1 20.6754 9.49061 14.2495 
25 1 17.4494 10.544 13.5558 
27 1 17.1389 7.51561 15.4772 
37 1 19.9551 8.17378 16.1708 
39 1 16.5045 8.33224 13.4099 
40 1 16.6152 9.5794 14.2506 
63 1 17.8439 9.56084 21.8599 
64 1 18.7129 8.2647 21.1095 
70 1 16.9212 9.10647 22.5152 
71 1 18.7205 8.25974 19.655 
72 1 20.0786 11.9267 25.2726 
81 1 19.9614 8.20202 21.9422 
83 1 16.5304 8.30765 24.6785 
84 1 16.9428 7.05959 23.881 
85 1 17.4294 10.5193 24.5246 
87 1 19.9518 9.47259 22.6612 
97 1 18.2453 6.99678 21.8679 
99 1 19.7579 10.6804 24.7969 
100 1 18.356 10.9403 23.8438 
104 1 15.143 8.56094 25.193 
108 1 18.8033 10.3614 22.5685 
111 1 20.4288 9.44491 23.9914 
112 1 17.1402 7.53529 22.5984 
115 1 16.5079 9.52894 23.8992 
118 1 16.9079 9.10071 15.5913 
121 1 16.9438 7.06631 14.1953 
122 1 19.9331 9.43825 15.4747 
125 1 18.3358 10.9331 14.2669 
129 2 20.2211 11.2553 14.3444 
130 3 21.2003 10.8365 14.4551 
ITEM: TIMESTEP
40
ITEM: NUMBER OF ATOMS
130
ITEM: BOX BOUNDS xy xz yz pp pp pp
0.0000000000000000e+00 2.3654499999999999e+01 7.8845000000000001e+00
0.0000000000000000e+00 1.3658086643083999e+01 0.0000000000000000e+00
0.0000000000000000e+00 2.5747000000000000e+01 0.0000000000000000e+00
ITEM: ATOMS id type x y z 
18 1 10.3815 6.80242 2.63995 
28 1 5.11008 4.57335 12.8851 
31 1 9.42349 6.4414 0.414998 
62 1 9.07649 5.27368 12.3808 
91 1 9.39889 6.55022 11.9259 
92 1 10.7895 6.21406 10.9727 
106 1 10.3803 6.78292 9.68955 
127 1 10.8391 6.22849 1.35851 
4 1 4.42953 5.81114 13.2676 
5 1 3.1672 5.67163 14.1954 
43 1 4.56096 6.94626 15.4859 
52 1 9.07094 5.21882 25.678 
66 1 4.43906 5.79436 24.7953 
67 1 5.07851 6.96068 23.8957 
88 1 5.11708 4.55992 25.1941 
107 1 3.16611 5.67106 23.879 
116 1 4.5583 6.96442 22.6006 
117 1 5.05554 6.98446 14.1763 
11 1 11.3736 7.59214 3.32791 
12 1 10.4883 8.8509 4.10257 
14 1 8.98178 11.3389 0.416463 
15 1 10.2548 11.4609 1.33142 
16 1 8.3848 8.94768 0.665773 
19 1 10.4669 8.87074 5.55792 
29 1 10.9456 10.1214 3.34825 
32 1 8.73075 7.6845 1.19569 
35 1 12.0724 9.6128 2.61901 
45 1 9.23271 8.9183 3.25373 
47 1 12.691 8.86592 0.50085 
49 1 11.343 10.9092 0.658763 
51 1 8.86218 10.1644 2.60726 
53 1 11.3259 7.58788 8.96995 
54 1 10.4875 8.84347 8.23623 
56 1 8.98388 11.3101 11.9246 
57 1 8.3535 10.1679 11.0235 
58 1 11.3485 10.9077 11.6769 
60 1 12.2688 8.04953 9.59765 
61 1 10.4672 8.86794 6.778 
73 1 9.22694 8.9313 9.0723 
75 1 12.6917 8.8202 11.7881 
76 1 12.2796 10.0845 10.9975 
79 1 9.20545 7.65474 9.78218 
80 1 8.31785 12.541 12.3143 
89 1 10.9492 10.13 8.99285 
93 1 8.38023 8.90519 11.6461 
95 1 10.0396 11.0456 9.68248 
105 1 10.252 11.4606 11.011 
109 1 8.6788 7.66606 11.0602 
110 1 12.0664 9.62708 9.7167 
114 1 8.86202 10.1712 9.7295 
119 1 8.34264 10.172 1.31624 
120 1 12.2797 8.0614 2.67078 
123 1 12.2806 10.0918 1.33244 
124 1 9.23111 7.66326 2.52221 
128 1 10.0391 11.0399 2.65435 
6 1 5.05624 8.236 13.5773 
13 1 9.58099 10.3464 25.067 
17 1 9.16577 9.01438 25.1177 
30 1 9.88365 7.69674 25.1886 
34 1 11.2532 7.48631 25.1594 
36 1 8.30427 12.5718 25.7599 
46 1 11.657 8.81253 25.1124 
50 1 10.945 10.1117 25.1516 
55 1 9.58204 10.3141 13.0235 
59 1 10.9507 10.1065 12.9162 
74 1 11.6843 8.82202 12.968 
78 1 11.2703 7.49794 12.9543 
90 1 9.92761 7.69324 13.0059 
94 1 9.20187 8.97318 12.9383 
101 1 5.03128 8.18416 24.5378 
33 1 11.7521 6.68346 0.698608 
77 1 11.7177 6.62779 11.6479 
41 1 17.8431 6.22195 13.53 
68 1 17.8485 6.22559 24.5464 
103 1 19.1525 6.09156 22.5529 
126 1 19.1499 6.08439 15.5259 
3 1 19.6108 6.82113 12.2061 
7 1 19.9874 8.17465 12.3096 
10 1 15.1395 8.45156 12.8367 
22 1 19.2621 9.44705 12.2281 
26 1 17.9271 9.62778 12.2499 
38 1 17.5037 8.30308 12.2355 
42 1 18.2413 7.02326 12.2818 
44 1 20.009 11.9657 12.6826 
48 1 12.7509 7.65865 1.27643 
65 1 19.6113 6.7873 0.142475 
69 1 18.2453 7.02245 0.058601 
82 1 17.5341 8.31723 0.0953445 
86 1 17.9396 9.64469 0.051515 
96 1 14.048 8.67723 12.3664 
98 1 19.3072 9.43707 0.0224503 
102 1 20.022 8.11864 0.0922217 
113 1 12.5496 7.58631 10.9419 
1 1 17.8204 9.52653 16.2681 
2 1 18.6612 8.26246 16.989 
8 1 18.7824 10.3071 15.5228 
9 1 18.7126 8.25288 18.4357 
20 1 14.0778 8.49353 25.806 
21 1 18.2233 6.9838 16.2205 
23 1 19.6699 10.7171 13.2556 
24 1 20.7448 9.48542 14.2487 
25 1 17.4625 10.5055 13.5667 
27 1 17.115 7.49075 15.4915 
37 1 19.9556 8.17583 16.1633 
39 1 16.4963 8.30549 13.4125 
40 1 16.6303 9.54123 14.2614 
63 1 17.8164 9.5443 21.8829 
64 1 18.7034 8.28575 21.1111 
70 1 16.9087 9.06993 22.5431 
71 1 18.7241 8.26014 19.658 
72 1 20.119 11.9111 25.2764 
81 1 19.9603 8.21224 21.9557 
83 1 16.4821 8.26809 24.7141 
84 1 16.9152 7.04057 23.8764 
85 1 17.434 10.4446 24.5107 
87 1 19.96 9.46958 22.6855 
97 1 18.2458 7.01071 21.8626 
99 1 19.7683 10.6888 24.7947 
100 1 18.3522 10.9041 23.8509 
104 1 15.1088 8.62361 25.1597 
108 1 18.8067 10.3322 22.5695 
111 1 20.4643 9.44605 24.0136 
112 1 17.1197 7.51737 22.5913 
115 1 16.4634 9.49236 23.9085 
118 1 16.8955 9.07674 15.6133 
121 1 16.9112 7.04147 14.2074 
122 1 19.9405 9.42203 15.4618 
125 1 18.3619 10.9077 14.2677 
129 2 20.2726 11.3013 14.3106 
130 3 21.2586 10.7881 14.4583 
ITEM: TIMESTEP
50
ITEM: NUMBER OF ATOMS
130
ITEM: BOX BOUNDS xy xz yz pp pp pp
0.0000000000000000e+00 2.3654499999999999e+01 7.8845000000000001e+00
0.0000000000000000e+00 1.3658086643083999e+01 0.0000000000000000e+00
0.0000000000000000e+00 2.5747000000000000e+01 0.0000000000000000e+00
ITEM: ATOMS id type x y z 
18 1 10.4051 6.8227 2.62904 
28 1 5.08994 4.63845 12.9018 
31 1 9.4108 6.4486 0.425314 
62 1 9.01519 5.29464 12.3805 
91 1 9.36586 6.57317 11.9395 
92 1 10.7595 6.2478 10.9754 
106 1 10.3649 6.8042 9.68846 
127 1 10.8403 6.27538 1.35714 
4 1 4.41236 5.86295 13.2638 
5 1 3.13971 5.68971 14.193 
43 1 4.5571 6.95387 15.4897 
52 1 9.01531 5.23239 25.6694 
66 1 4.42392 5.85028 24.7942 
67 1 5.08013 6.9615 23.8896 
88 1 5.09579 4.62466 25.1718 
107 1 3.15141 5.69201 23.8782 
116 1 4.56251 6.98207 22.6139 
117 1 5.07936 7.01113 14.1781 
11 1 11.3933 7.61423 3.30135 
12 1 10.488 8.83683 4.08611 
14 1 8.99823 11.28 0.414785 
15 1 10.2685 11.4391 1.32937 
16 1 8.35538 8.92409 0.634763 
19 1 10.4629 8.86493 5.55235 
29 1 10.9644 10.1085 3.35236 
32 1 8.69004 7.65048 1.18473 
35 1 12.0997 9.65624 2.60975 
45 1 9.23661 8.9134 3.26145 
47 1 12.7671 8.91253 0.446468 
49 1 11.3596 10.8935 0.653955 
51 1 8.86156 10.15 2.59686 
53 1 11.3307 7.60231 8.95675 
54 1 10.4881 8.83349 8.23251 
56 1 9.00364 11.2451 11.9435 
57 1 8.33992 10.1147 11.0232 
58 1 11.3581 10.8919 11.672 
60 1 12.2692 8.07946 9.57933 
61 1 10.4626 8.86411 6.76991 
73 1 9.23128 8.92422 9.0703 
75 1 12.6871 8.8545 11.7939 
76 1 12.3153 10.1028 10.9888 
79 1 9.17651 7.65139 9.79088 
80 1 8.31947 12.5072 12.306 
89 1 10.9575 10.1179 8.98621 
93 1 8.34715 8.88542 11.6573 
95 1 10.0394 11.0261 9.68937 
105 1 10.2945 11.435 11.0059 
109 1 8.62864 7.64663 11.066 
110 1 12.0876 9.65225 9.7011 
114 1 8.86161 10.1563 9.73378 
119 1 8.34113 10.1644 1.31253 
120 1 12.3048 8.10231 2.65925 
123 1 12.3221 10.0985 1.32375 
124 1 9.20384 7.66283 2.50161 
128 1 10.0447 11.0109 2.65417 
6 1 5.1001 8.22019 13.5445 
13 1 9.56662 10.3661 25.0428 
17 1 9.15243 9.01177 25.1076 
30 1 9.86577 7.71207 25.1828 
34 1 11.2421 7.50549 25.1533 
36 1 8.32553 12.5069 25.7831 
46 1 11.6552 8.81819 25.1254 
50 1 10.9251 10.1103 25.1566 
55 1 9.58111 10.3176 13.0231 
59 1 10.9417 10.1064 12.936 
74 1 11.6903 8.82159 12.9518 
78 1 11.2507 7.50009 12.966 
90 1 9.92397 7.70281 13.0257 
94 1 9.18363 8.95532 12.9597 
101 1 5.06777 8.20411 24.5809 
33 1 11.7566 6.74729 0.699222 
77 1 11.7048 6.66531 11.6267 
41 1 17.8279 6.23468 13.5283 
68 1 17.8362 6.23836 24.5609 
103 1 19.147 6.11894 22.5556 
126 1 19.1381 6.10073 15.5203 
3 1 19.6201 6.80598 12.1765 
7 1 20.0135 8.17535 12.3195 
10 1 15.1335 8.44012 12.8357 
22 1 19.2521 9.45212 12.2294 
26 1 17.9287 9.63534 12.249 
38 1 17.5103 8.31074 12.2448 
42 1 18.2692 7.0365 12.2768 
44 1 20.001 11.9995 12.5965 
48 1 12.7042 7.62032 1.34194 
65 1 19.6206 6.76498 0.171509 
69 1 18.2692 7.01646 0.0497533 
82 1 17.5307 8.31913 0.0816862 
86 1 17.9445 9.62887 0.057006 
96 1 14.0486 8.6886 12.3641 
98 1 19.3268 9.41412 0.022359 
102 1 20.0403 8.11935 0.1023 
113 1 12.5273 7.61736 10.936 
1 1 17.8161 9.50812 16.2761 
2 1 18.6619 8.26354 16.9882 
8 1 18.7867 10.2695 15.5258 
9 1 18.7105 8.25331 18.4512 
20 1 14.0728 8.49967 25.8235 
21 1 18.2022 6.9769 16.2263 
23 1 19.7267 10.748 13.2713 
24 1 20.8068 9.47667 14.2861 
25 1 17.4696 10.464 13.582 
27 1 17.0851 7.46453 15.505 
37 1 19.9329 8.16664 16.1868 
39 1 16.4981 8.26708 13.409 
40 1 16.6418 9.49634 14.2751 
63 1 17.8024 9.51958 21.8968 
64 1 18.7015 8.30061 21.1224 
70 1 16.8859 9.02962 22.5362 
71 1 18.7272 8.26495 19.6689 
72 1 20.1776 11.9084 25.2892 
81 1 19.9558 8.2201 21.9538 
83 1 16.4526 8.23726 24.731 
84 1 16.8599 7.04196 23.8909 
85 1 17.4385 10.3968 24.5126 
87 1 19.9863 9.46723 22.7087 
97 1 18.2281 7.02253 21.86 
99 1 19.7817 10.6867 24.7827 
100 1 18.3583 10.8643 23.8505 
104 1 15.0867 8.62449 25.1519 
108 1 18.7937 10.3114 22.5807 
111 1 20.4942 9.4855 24.0208 
112 1 17.0956 7.47858 22.5951 
115 1 16.4691 9.47925 23.8952 
118 1 16.8874 9.03978 15.6321 
121 1 16.871 7.02376 14.2118 
122 1 19.9669 9.42462 15.4415 
125 1 18.3689 10.8894 14.2723 
129 2 20.3544 11.3172 14.2802 
130 3 21.3127 10.8236 14.4417 
ITEM: TIMESTEP
60
ITEM: NUMBER OF ATOMS
130
ITEM: BOX BOUNDS xy xz yz pp pp pp
0.0000000000000000e+00 2.3654499999999999e+01 7.8845000000000001e+00
0.0000000000000000e+00 1.3658086643083999e+01 0.0000000000000000e+00
0.0000000000000000e+00 2.5747000000000000e+01 0.0000000000000000e+00
ITEM: ATOMS id type x y z 
18 1 10.3955 6.84094 2.62742 
28 1 5.0887 4.65714 12.9062 
31 1 9.4048 6.44636 0.426477 
62 1 8.97924 5.30383 12.3817 
91 1 9.34827 6.58157 11.9429 
92 1 10.7423 6.26736 10.9757 
106 1 10.358 6.8207 9.68839 
127 1 10.8329 6.28865 1.34939 
4 1 4.40507 5.89141 13.2674 
5 1 3.12747 5.7035 14.1943 
43 1 4.55992 6.95899 15.4788 
52 1 8.9839 5.24061 25.6652 
66 1 4.41436 5.87256 24.795 
67 1 5.09014 6.99883 23.8994 
88 1 5.09729 4.63714 25.1662 
107 1 3.13233 5.7085 23.8736 
116 1 4.56692 6.98759 22.6148 
117 1 5.07989 7.02051 14.1877 
11 1 11.4015 7.62806 3.29989 
12 1 10.5019 8.82458 4.08611 
14 1 9.00595 11.2595 0.41501 
15 1 10.2878 11.4244 1.33591 
16 1 8.33834 8.91841 0.628799 
19 1 10.4611 8.86083 5.5492 
29 1 10.9661 10.0974 3.34572 
32 1 8.67045 7.64426 1.1777 
35 1 12.1142 9.66914 2.60991 
45 1 9.23716 8.9076 3.24872 
47 1 12.7684 8.92112 0.451407 
49 1 11.3652 10.891 0.653738 
51 1 8.85722 10.1441 2.59443 
53 1 11.329 7.60576 8.9544 
54 1 10.4919 8.82833 8.2306 
56 1 9.00594 11.2315 11.9293 
57 1 8.34125 10.1032 11.0265 
58 1 11.3712 10.8828 11.682 
60 1 12.2685 8.09314 9.57214 
61 1 10.4599 8.86162 6.7662 
73 1 9.22982 8.91927 9.07287 
75 1 12.6905 8.86771 11.7859 
76 1 12.3352 10.1107 10.98 
79 1 9.16247 7.64985 9.79571 
80 1 8.32533 12.4777 12.2985 
89 1 10.9569 10.1129 8.98563 
93 1 8.33535 8.86761 11.6737 
95 1 10.0432 11.018 9.69087 
105 1 10.2896 11.4186 11.0078 
109 1 8.60528 7.63778 11.0668 
110 1 12.1008 9.66379 9.69302 
114 1 8.85783 10.1469 9.73988 
119 1 8.33043 10.1325 1.31016 
120 1 12.3184 8.12569 2.66339 
123 1 12.3485 10.1046 1.31546 
124 1 9.20383 7.66364 2.49671 
128 1 10.0483 11.0053 2.65152 
6 1 5.12155 8.24011 13.5429 
13 1 9.56229 10.3564 25.0197 
17 1 9.13702 9.02 25.0986 
30 1 9.8643 7.71704 25.1836 
34 1 11.2386 7.51055 25.1466 
36 1 8.32413 12.4941 25.7893 
46 1 11.6531 8.82322 25.1276 
50 1 10.9194 10.1141 25.1532 
55 1 9.57216 10.3083 13.0423 
59 1 10.9385 10.0958 12.9344 
74 1 11.6838 8.82101 12.9587 
78 1 11.2504 7.50171 12.9602 
90 1 9.9169 7.70457 13.0385 
94 1 9.1814 8.96011 12.9588 
101 1 5.08198 8.21286 24.5821 
33 1 11.7557 6.76216 0.697828 
77 1 11.6891 6.68406 11.6275 
41 1 17.8205 6.24229 13.5216 
68 1 17.8238 6.24439 24.5562 
103 1 19.1423 6.12361 22.5583 
126 1 19.1317 6.10472 15.5168 
3 1 19.6289 6.83128 12.1667 
7 1 20.017 8.1871 12.3206 
10 1 15.1326 8.4336 12.8352 
22 1 19.2696 9.45253 12.2504 
26 1 17.9389 9.63679 12.254 
38 1 17.516 8.30911 12.2493 
42 1 18.267 7.03991 12.2762 
44 1 19.988 11.9797 12.5702 
48 1 12.7231 7.65366 1.32749 
65 1 19.6277 6.77371 0.189809 
69 1 18.2703 7.02194 0.0555011 
82 1 17.5368 8.31085 0.077345 
86 1 17.9522 9.62142 0.0627616 
96 1 14.0518 8.69483 12.3639 
98 1 19.3252 9.41262 0.0234324 
102 1 20.0541 8.11075 0.109605 
113 1 12.5209 7.64155 10.9293 
1 1 17.8143 9.49797 16.276 
2 1 18.6482 8.26191 16.9946 
8 1 18.795 10.253 15.5203 
9 1 18.7101 8.25394 18.4516 
20 1 14.0813 8.48948 25.8339 
21 1 18.1982 6.98138 16.2262 
23 1 19.7185 10.7777 13.2577 
24 1 20.8413 9.4894 14.2926 
25 1 17.4761 10.4447 13.5911 
27 1 17.0699 7.44807 15.5128 
37 1 19.9328 8.16621 16.1812 
39 1 16.4982 8.25451 13.4056 
40 1 16.6494 9.47131 14.2795 
63 1 17.7914 9.50916 21.9029 
64 1 18.6895 8.31075 21.1281 
70 1 16.8737 9.00815 22.536 
71 1 18.7279 8.26799 19.6697 
72 1 20.2074 11.8953 25.2914 
81 1 19.9561 8.22339 21.9643 
83 1 16.4258 8.23181 24.7406 
84 1 16.8436 7.02786 23.8942 
85 1 17.44 10.3775 24.5118 
87 1 19.9885 9.47035 22.7143 
97 1 18.2284 7.03194 21.8666 
99 1 19.7889 10.6861 24.7832 
100 1 18.3631 10.8488 23.8598 
104 1 15.0991 8.62358 25.1401 
108 1 18.7995 10.292 22.5824 
111 1 20.5177 9.48782 24.0331 
112 1 17.0778 7.46586 22.5991 
115 1 16.4573 9.45959 23.8989 
118 1 16.8842 9.02189 15.6412 
121 1 16.852 7.01153 14.2181 
122 1 19.9707 9.41456 15.4439 
125 1 18.3927 10.8734 14.2642 
129 2 20.3934 11.3217 14.2493 
130 3 21.3574 10.8114 14.4409 
ITEM: TIMESTEP
70
ITEM: NUMBER OF ATOMS
130
ITEM: BOX BOUNDS xy xz yz pp pp pp
0.0000000000000000e+00 2.3654499999999999e+01 7.8845000000000001e+00
0.0000000000000000e+00 1.3658086643083999e+01 0.0000000000000000e+00
0.0000000000000000e+00 2.5747000000000000e+01 0.0000000000000000e+00
ITEM: ATOMS id type x y z 
18 1 10.3945 6.84728 2.62531 
28 1 5.09193 4.65798 12.9059 
31 1 9.40123 6.44662 0.423032 
62 1 8.96454 5.30557 12.3831 
91 1 9.34317 6.58169 11.9436 
92 1 10.7365 6.27295 10.9777 
106 1 10.3552 6.82462 9.68767 
127 1 10.8283 6.28878 1.34628 
4 1 4.40583 5.89455 13.2693 
5 1 3.12804 5.70889 14.192 
43 1 4.55852 6.95712 15.4771 
52 1 8.97212 5.24396 25.6639 
66 1 4.4128 5.87284 24.7943 
67 1 5.0907 7.00703 23.9008 
88 1 5.10037 4.63766 25.165 
107 1 3.13329 5.7147 23.8762 
116 1 4.56664 6.98854 22.6164 
117 1 5.07965 7.02414 14.1837 
11 1 11.4016 7.63166 3.3043 
12 1 10.5057 8.82388 4.08618 
14 1 9.00621 11.2594 0.416397 
15 1 10.2868 11.4183 1.33442 
16 1 8.33364 8.91328 0.627818 
19 1 10.4613 8.85842 5.54748 
29 1 10.9665 10.0963 3.34053 
32 1 8.667 7.64618 1.17446 
35 1 12.1218 9.66863 2.61164 