LAMMPS (3 Mar 2020)
Reading data file ...
  triclinic box = (0 0 0) to (15.77 13.6581 25.747) with tilt (7.8845 0 0)
  2 by 2 by 2 MPI processor grid
  reading atoms ...
  130 atoms
  read_data CPU = 0.0209062 secs
WARNING: Using 'neigh_modify every 1 delay 0 check yes' setting during minimization (../min.cpp:190)
WARNING: Total cutoff < 2*bond cutoff. May need to use an increased neighbor list skin. (../pair_reaxc.cpp:413)
Neighbor list info ...
  update every 1 steps, delay 0 steps, check yes
  max neighbors/atom: 2000, page size: 100000
  master list distance cutoff = 9.5
  ghost atom cutoff = 9.5
  binsize = 4.75, bins = 5 3 6
  2 neighbor lists, perpetual/occasional/extra = 2 0 0
  (1) pair reax/c, perpetual
      attributes: half, newton off, ghost
      pair build: half/bin/newtoff/ghost
      stencil: half/ghost/bin/3d/newtoff
      bin: standard
  (2) fix qeq/reax, perpetual, copy from (1)
      attributes: half, newton off, ghost
      pair build: copy
      stencil: none
      bin: none
Setting up cg style minimization ...
  Unit style    : real
  Current step  : 0
Per MPI rank memory allocation (min/avg/max) = 16.31 | 16.88 | 17.62 Mbytes
Step Temp E_pair E_mol TotEng Press 
       0            0   -19428.049            0   -19428.049    55831.139 
     150            0   -22047.425            0   -22047.425     8956.078 
Loop time of 3.73089 on 8 procs for 150 steps with 130 atoms

99.6% CPU use with 8 MPI tasks x no OpenMP threads

Minimization stats:
  Stopping criterion = energy tolerance
  Energy initial, next-to-last, final = 
        -19428.0488787     -22047.4253283     -22047.4254907
  Force two-norm initial, final = 5014.92 67.6327
  Force max component initial, final = 1201.25 15.8695
  Final line search alpha, max atom move = 0.00019665 0.00312074
  Iterations, force evaluations = 150 839

MPI task timing breakdown:
Section |  min time  |  avg time  |  max time  |%varavg| %total
---------------------------------------------------------------
Pair    | 1.9825     | 2.2666     | 2.463      |  11.6 | 60.75
Neigh   | 0          | 0          | 0          |   0.0 |  0.00
Comm    | 0.022383   | 0.22       | 0.50453    |  37.3 |  5.90
Output  | 0.00053344 | 0.00061511 | 0.00074585 |   0.0 |  0.02
Modify  | 1.236      | 1.2364     | 1.2367     |   0.0 | 33.14
Other   |            | 0.007228   |            |       |  0.19

Nlocal:    16.25 ave 37 max 2 min
Histogram: 2 1 1 1 1 0 0 0 0 2
Nghost:    469.25 ave 520 max 416 min
Histogram: 2 0 2 0 0 0 0 0 3 1
Neighs:    1171.12 ave 2488 max 173 min
Histogram: 2 1 1 0 2 0 0 0 0 2

Total # of neighbors = 9369
Ave neighs/atom = 72.0692
Neighbor list builds = 0
Dangerous builds = 0
WARNING: Using 'neigh_modify every 1 delay 0 check yes' setting during minimization (../min.cpp:190)
WARNING: Total cutoff < 2*bond cutoff. May need to use an increased neighbor list skin. (../pair_reaxc.cpp:413)
Setting up cg style minimization ...
  Unit style    : real
  Current step  : 150
Per MPI rank memory allocation (min/avg/max) = 16.31 | 16.88 | 17.62 Mbytes
Step Temp E_pair E_mol TotEng Press 
     150            0   -22047.425            0   -22047.425     8956.078 
     151            0   -22047.425            0   -22047.425    8956.0562 
Loop time of 0.0393692 on 8 procs for 1 steps with 130 atoms

99.5% CPU use with 8 MPI tasks x no OpenMP threads

Minimization stats:
  Stopping criterion = energy tolerance
  Energy initial, next-to-last, final = 
        -22047.4254907     -22047.4254907     -22047.4254974
  Force two-norm initial, final = 67.6327 67.6299
  Force max component initial, final = 15.8695 15.8686
  Final line search alpha, max atom move = 0.000196919 0.00312482
  Iterations, force evaluations = 1 8

MPI task timing breakdown:
Section |  min time  |  avg time  |  max time  |%varavg| %total
---------------------------------------------------------------
Pair    | 0.022378   | 0.024875   | 0.026479   |   1.0 | 63.18
Neigh   | 0          | 0          | 0          |   0.0 |  0.00
Comm    | 0.00024128 | 0.0018479  | 0.0043547  |   3.5 |  4.69
Output  | 0          | 0          | 0          |   0.0 |  0.00
Modify  | 0.012511   | 0.012513   | 0.012514   |   0.0 | 31.78
Other   |            | 0.0001333  |            |       |  0.34

Nlocal:    16.25 ave 39 max 1 min
Histogram: 2 2 0 1 1 0 0 0 0 2
Nghost:    478.5 ave 524 max 426 min
Histogram: 2 1 1 0 0 0 0 0 2 2
Neighs:    1147.88 ave 2560 max 82 min
Histogram: 2 1 1 0 1 1 0 0 0 2

Total # of neighbors = 9183
Ave neighs/atom = 70.6385
Neighbor list builds = 0
Dangerous builds = 0
WARNING: Using 'neigh_modify every 1 delay 0 check yes' setting during minimization (../min.cpp:190)
WARNING: Total cutoff < 2*bond cutoff. May need to use an increased neighbor list skin. (../pair_reaxc.cpp:413)
Setting up cg style minimization ...
  Unit style    : real
  Current step  : 151
WARNING: Energy due to 3 extra global DOFs will be included in minimizer energies
Per MPI rank memory allocation (min/avg/max) = 16.31 | 16.88 | 17.62 Mbytes
Step Temp E_pair E_mol TotEng Press Volume 
     151            0   -22047.425            0   -22047.425    8956.0562    5545.5955 
     284            0    -22053.91            0    -22053.91   -1718.0801    5558.6982 
Loop time of 0.880788 on 8 procs for 133 steps with 130 atoms

99.5% CPU use with 8 MPI tasks x no OpenMP threads

Minimization stats:
  Stopping criterion = linesearch alpha is zero
  Energy initial, next-to-last, final = 
        -22047.4254974     -22053.9103275     -22053.9103275
  Force two-norm initial, final = 1519.94 276.204
  Force max component initial, final = 1073.62 163.218
  Final line search alpha, max atom move = 1.45249e-13 2.37073e-11
  Iterations, force evaluations = 133 234

MPI task timing breakdown:
Section |  min time  |  avg time  |  max time  |%varavg| %total
---------------------------------------------------------------
Pair    | 0.5861     | 0.65112    | 0.69333    |   4.9 | 73.92
Neigh   | 0          | 0          | 0          |   0.0 |  0.00
Comm    | 0.0061082  | 0.048388   | 0.11363    |  18.1 |  5.49
Output  | 0.00047517 | 0.00054361 | 0.00063846 |   0.0 |  0.06
Modify  | 0.17531    | 0.17538    | 0.17541    |   0.0 | 19.91
Other   |            | 0.005362   |            |       |  0.61

Nlocal:    16.25 ave 39 max 1 min
Histogram: 2 2 0 1 1 0 0 0 0 2
Nghost:    478.5 ave 524 max 426 min
Histogram: 2 1 1 0 0 0 0 0 2 2
Neighs:    1147.88 ave 2560 max 82 min
Histogram: 2 1 1 0 1 1 0 0 0 2

Total # of neighbors = 9183
Ave neighs/atom = 70.6385
Neighbor list builds = 0
Dangerous builds = 0
WARNING: Using 'neigh_modify every 1 delay 0 check yes' setting during minimization (../min.cpp:190)
WARNING: Total cutoff < 2*bond cutoff. May need to use an increased neighbor list skin. (../pair_reaxc.cpp:413)
Setting up cg style minimization ...
  Unit style    : real
  Current step  : 284
Per MPI rank memory allocation (min/avg/max) = 16.31 | 16.88 | 17.62 Mbytes
Step Temp E_pair E_mol TotEng Press 
     284            0    -22053.91            0    -22053.91   -1718.0801 
     461            0   -22085.868            0   -22085.868    2898.1215 
Loop time of 4.86818 on 8 procs for 177 steps with 130 atoms

99.5% CPU use with 8 MPI tasks x no OpenMP threads

Minimization stats:
  Stopping criterion = energy tolerance
  Energy initial, next-to-last, final = 
        -22053.9103275     -22085.8682882     -22085.8683671
  Force two-norm initial, final = 130.227 37.1492
  Force max component initial, final = 18.0235 6.31267
  Final line search alpha, max atom move = 0.00371085 0.0234254
  Iterations, force evaluations = 177 1113

MPI task timing breakdown:
Section |  min time  |  avg time  |  max time  |%varavg| %total
---------------------------------------------------------------
Pair    | 2.7764     | 3.086      | 3.2858     |  10.6 | 63.39
Neigh   | 0          | 0          | 0          |   0.0 |  0.00
Comm    | 0.040603   | 0.24104    | 0.55147    |  38.2 |  4.95
Output  | 0.00068981 | 0.00080048 | 0.00097844 |   0.0 |  0.02
Modify  | 1.5315     | 1.5318     | 1.532      |   0.0 | 31.46
Other   |            | 0.008578   |            |       |  0.18

Nlocal:    16.25 ave 39 max 1 min
Histogram: 2 2 0 1 1 0 0 0 0 2
Nghost:    478.5 ave 524 max 428 min
Histogram: 2 1 1 0 0 0 0 0 2 2
Neighs:    1140.25 ave 2541 max 83 min
Histogram: 2 1 1 0 1 1 0 0 0 2

Total # of neighbors = 9122
Ave neighs/atom = 70.1692
Neighbor list builds = 0
Dangerous builds = 0
WARNING: Using 'neigh_modify every 1 delay 0 check yes' setting during minimization (../min.cpp:190)
WARNING: Total cutoff < 2*bond cutoff. May need to use an increased neighbor list skin. (../pair_reaxc.cpp:413)
Setting up cg style minimization ...
  Unit style    : real
  Current step  : 461
WARNING: Energy due to 3 extra global DOFs will be included in minimizer energies
Per MPI rank memory allocation (min/avg/max) = 16.31 | 16.88 | 17.62 Mbytes
Step Temp E_pair E_mol TotEng Press Volume 
     461            0   -22085.868            0   -22085.868    2898.1215    5558.6982 
     467            0   -22085.933            0   -22085.933   -882.06347    5559.4502 
Loop time of 0.106908 on 8 procs for 6 steps with 130 atoms

99.6% CPU use with 8 MPI tasks x no OpenMP threads

Minimization stats:
  Stopping criterion = energy tolerance
  Energy initial, next-to-last, final = 
        -22085.8683671     -22085.9332104     -22085.9332104
  Force two-norm initial, final = 489.231 195.303
  Force max component initial, final = 349.175 181.286
  Final line search alpha, max atom move = 1.03362e-12 1.8738e-10
  Iterations, force evaluations = 6 28

MPI task timing breakdown:
Section |  min time  |  avg time  |  max time  |%varavg| %total
---------------------------------------------------------------
Pair    | 0.073283   | 0.081418   | 0.086716   |   1.7 | 76.16
Neigh   | 0          | 0          | 0          |   0.0 |  0.00
Comm    | 0.00070569 | 0.0060066  | 0.014164   |   6.2 |  5.62
Output  | 0          | 0          | 0          |   0.0 |  0.00
Modify  | 0.018875   | 0.018885   | 0.018896   |   0.0 | 17.66
Other   |            | 0.0005986  |            |       |  0.56

Nlocal:    16.25 ave 39 max 0 min
Histogram: 1 2 1 1 1 0 0 0 0 2
Nghost:    478.5 ave 523 max 428 min
Histogram: 2 1 1 0 0 0 0 0 1 3
Neighs:    1135.75 ave 2541 max 0 min
Histogram: 1 2 1 0 1 1 0 0 0 2

Total # of neighbors = 9086
Ave neighs/atom = 69.8923
Neighbor list builds = 0
Dangerous builds = 0
WARNING: Using 'neigh_modify every 1 delay 0 check yes' setting during minimization (../min.cpp:190)
WARNING: Total cutoff < 2*bond cutoff. May need to use an increased neighbor list skin. (../pair_reaxc.cpp:413)
Setting up cg style minimization ...
  Unit style    : real
  Current step  : 467
Per MPI rank memory allocation (min/avg/max) = 16.31 | 16.88 | 17.62 Mbytes
Step Temp E_pair E_mol TotEng Press 
     467            0   -22085.933            0   -22085.933   -882.06347 
     570            0   -22089.277            0   -22089.277    676.83031 
Loop time of 3.29576 on 8 procs for 103 steps with 130 atoms

99.6% CPU use with 8 MPI tasks x no OpenMP threads

Minimization stats:
  Stopping criterion = energy tolerance
  Energy initial, next-to-last, final = 
        -22085.9332104     -22089.2764845     -22089.2765288
  Force two-norm initial, final = 68.6792 55.3743
  Force max component initial, final = 13.6438 11.7718
  Final line search alpha, max atom move = 0.00230752 0.0271637
  Iterations, force evaluations = 103 762

MPI task timing breakdown:
Section |  min time  |  avg time  |  max time  |%varavg| %total
---------------------------------------------------------------
Pair    | 1.9247     | 2.1397     | 2.2819     |   8.7 | 64.92
Neigh   | 0          | 0          | 0          |   0.0 |  0.00
Comm    | 0.018371   | 0.16083    | 0.37661    |  31.9 |  4.88
Output  | 0.00037555 | 0.00042949 | 0.00051697 |   0.0 |  0.01
Modify  | 0.98873    | 0.98889    | 0.98902    |   0.0 | 30.00
Other   |            | 0.005921   |            |       |  0.18

Nlocal:    16.25 ave 39 max 0 min
Histogram: 1 2 1 1 1 0 0 0 0 2
Nghost:    478.5 ave 523 max 428 min
Histogram: 2 1 1 0 0 0 0 0 1 3
Neighs:    1135.25 ave 2540 max 0 min
Histogram: 1 2 1 0 1 1 0 0 0 2

Total # of neighbors = 9082
Ave neighs/atom = 69.8615
Neighbor list builds = 0
Dangerous builds = 0
WARNING: Total cutoff < 2*bond cutoff. May need to use an increased neighbor list skin. (../pair_reaxc.cpp:413)
Setting up Verlet run ...
  Unit style    : real
  Current step  : 0
  Time step     : 0.25
Per MPI rank memory allocation (min/avg/max) = 15.2 | 15.65 | 16.51 Mbytes
Step Temp TotEng KinEng PotEng Press 
       0          300   -21973.919    115.35735   -22089.277    1625.3498 
     200    223.69914   -21932.719      86.0178   -22018.736    6903.6771 
     400    426.98356   -21872.501    164.18564   -22036.686     7134.796 
     600    324.02298    -21962.55    124.59477   -22087.145    9764.2549 
     800    277.41085   -21992.342    106.67127   -22099.013   -5859.2851 
    1000    299.18695    -21971.94    115.04471   -22086.985   -114.98153 
    1200    305.41711   -21975.436    117.44036   -22092.877    -13975.32 
    1400    275.98758   -21991.346    106.12398    -22097.47    12474.267 
    1600    336.32333   -21962.928    129.32456   -22092.252   -6556.6473 
    1800    315.33767   -21968.779    121.25506   -22090.034   -9287.3693 
    2000    290.57728   -21991.644    111.73408   -22103.378    2784.3149 
    2200    325.74367    -21974.97    125.25642   -22100.227   -12446.668 
    2400    312.98609   -21972.786    120.35082   -22093.136   -5478.8198 
    2600    273.84263   -21992.716     105.2992   -22098.016   -20971.046 
    2800    312.11982   -21966.832    120.01772    -22086.85   -993.57104 
    3000    296.57691   -21984.049    114.04109    -22098.09   -6870.8625 
    3200    279.28198   -21988.882    107.39076   -22096.272    20973.309 
    3400    315.72263   -21961.731    121.40309   -22083.134     -29506.2 
    3600    294.18613    -21985.59    113.12177   -22098.712   -8925.3847 
    3800    318.67884   -21975.354    122.53982   -22097.894   -2328.9715 
    4000    275.10251   -21977.054    105.78365   -22082.838    10613.494 
    4200    271.43584   -21988.635    104.37373   -22093.008    7936.6825 
    4400    312.71485   -21983.904    120.24652   -22104.151   -19147.602 
    4600    317.14746   -21962.256    121.95097   -22084.207   -2556.4262 
    4800    258.50042    -21988.73    99.399746    -22088.13   -8658.4875 
    5000    297.60343   -21985.954    114.43581    -22100.39    10195.025 
    5200    333.80576   -21965.304    128.35649    -22093.66    -1722.504 
    5400    279.99161   -21972.499    107.66363   -22080.162    5467.4894 
    5600    277.66589   -21974.954    106.76934   -22081.724    7302.8265 
    5800    297.11807    -21977.68    114.24918   -22091.929   -6336.4118 
    6000    290.83533   -21995.523    111.83331   -22107.357    8192.6109 
    6200    301.27685   -21968.303    115.84833   -22084.151   -11887.824 
    6400    305.21021   -21978.772     117.3608   -22096.132   -23757.896 
    6600    253.48549   -22002.034    97.471382   -22099.506   -3278.9212 
    6800     309.7003    -21973.15    119.08735   -22092.237    12773.218 
    7000    298.21673   -21978.783    114.67164   -22093.455    16555.677 
    7200    262.48728   -21997.594    100.93279   -22098.526    16940.138 
    7400     337.1267   -21962.963    129.63347   -22092.596   -11266.759 
    7600    292.99809   -21984.517    112.66494   -22097.182    32235.529 
    7800    286.52967   -21988.418    110.17768   -22098.596   -11409.722 
    8000    349.40928   -21962.718    134.35643   -22097.075     13130.59 
    8200    275.85734   -21984.321     106.0739   -22090.395    18571.957 
    8400    338.33212   -21965.625    130.09699   -22095.722    1839.0871 
    8600    348.82952   -21970.567     134.1335     -22104.7   -20850.561 
    8800    294.48824   -21991.759    113.23794   -22104.997    11739.159 
    9000    293.36292   -21976.204    112.80523   -22089.009   -5263.0583 
    9200    303.33183    -21967.01    116.63852   -22083.649    1176.5334 
    9400    276.71542   -21978.138    106.40386   -22084.542   -27048.858 
    9600    242.27435   -22008.456    93.160424   -22101.617   -1613.9084 
    9800    307.26176   -21984.893    118.14967   -22103.043    3846.1482 
   10000    277.68612   -21975.342    106.77712   -22082.119    -19921.53 
   10200    305.94939   -21956.714    117.64504   -22074.359   -734.67702 
   10400      297.692    -21990.86    114.46986    -22105.33   -2463.3468 
   10600    288.73474   -21974.448    111.02558   -22085.474    8435.8914 
   10800    278.29103    -21993.21    107.00972   -22100.219   -7004.8127 
   11000    275.34363    -21991.86    105.87637   -22097.737   -13002.709 
   11200    299.34704   -21970.871    115.10627   -22085.977    1344.4086 
   11400    307.86983   -21968.668    118.38349   -22087.051   -17757.104 
   11600    281.83409   -21994.236    108.37211   -22102.608   -19063.375 
   11800    289.75541   -21971.033    111.41805   -22082.451   -10391.756 
   12000    334.84872    -21969.22    128.75754   -22097.977   -1785.8477 
   12200    263.24342   -21986.177    101.22354     -22087.4   -7215.6311 
   12400    365.56191   -21950.189    140.56751   -22090.757    5658.4296 
   12600    280.77706   -21975.315    107.96566    -22083.28   -2845.0648 
   12800    284.79963    -21979.84    109.51243   -22089.353    17012.862 
   13000    343.73663   -21950.576    132.17516   -22082.752    7404.4201 
   13200    290.28875   -21976.363    111.62314   -22087.986    3368.7286 
   13400    276.45105   -21979.632     106.3022   -22085.935   -12398.921 
   13600    326.04962   -21952.995    125.37407   -22078.369    15284.978 
   13800    290.91884   -21982.166    111.86542   -22094.032     8668.975 
   14000    271.17578   -21980.805    104.27373   -22085.079    8587.3185 
   14200    333.44412   -21959.078    128.21743   -22087.295   -1067.2189 
   14400    308.10623   -21963.626    118.47439     -22082.1    9161.1452 
   14600    284.32044   -21979.558    109.32818   -22088.886   -7828.3639 
   14800    344.74148   -21953.012    132.56154   -22085.574    1009.8964 
   15000    298.87544    -21973.69    114.92493   -22088.615    11510.632 
   15200    291.31805   -21983.558    112.01893   -22095.576   -255.21659 
   15400    305.20992   -21963.156    117.36069   -22080.517   -2774.7237 
   15600     297.3004   -21970.474    114.31929   -22084.793    9683.7908 
   15800    263.72514   -21980.555    101.40878   -22081.964   -31269.726 
   16000    330.58339   -21957.787    127.11741   -22084.905    5003.0851 
   16200    320.74501    -21976.05    123.33431   -22099.384    20824.445 
   16400    295.02807   -21984.523    113.44552   -22097.969   -8705.7841 
   16600    330.98205   -21953.988    127.27071   -22081.259    17502.079 
   16800    296.12338   -21971.878    113.86669   -22085.745   -2223.7734 
   17000    288.82044    -21974.83    111.05853   -22085.888    3902.2045 
   17200    298.85322   -21966.742    114.91638   -22081.658    4555.1637 
   17400    297.62694   -21977.066    114.44485   -22091.511    11718.223 
   17600    260.67059   -21998.136    100.23423    -22098.37   -7504.8741 
   17800    270.28252   -21990.453    103.93025   -22094.384   -28413.024 
   18000    318.66022   -21965.768    122.53266   -22088.301   -10471.205 
   18200    272.65502   -21981.837    104.84253   -22086.679   -254.58144 
   18400    247.23785   -21995.066    95.069009   -22090.135    14410.213 
   18600    265.02528   -21982.677    101.90871   -22084.585   -7555.5083 
   18800    265.92331   -21980.657    102.25403   -22082.911   -6011.7172 
   19000    318.01488   -21949.677    122.28451   -22071.962    28873.913 
   19200    289.96413    -21969.52    111.49831   -22081.018    11443.645 
   19400    331.14419   -21972.319    127.33305   -22099.652    4893.9084 
   19600    286.08549   -21978.867    110.00688   -22088.874    20636.809 
   19800    272.13282   -21998.662    104.64173   -22103.304   -7751.9305 
   20000    322.68986    -21970.63    124.08216   -22094.713   -8698.5862 
   20200    283.25644   -21981.765    108.91904   -22090.684   -20154.792 
   20400    314.51072   -21974.516    120.93708   -22095.453    5042.2052 
   20600    318.87336   -21959.616    122.61462    -22082.23    3970.9744 
   20800    292.81992   -21983.382    112.59643   -22095.979    25211.977 
   21000    274.97679   -21983.701    105.73531   -22089.436    6293.6634 
   21200    325.06515   -21956.428    124.99551   -22081.423    18123.676 
   21400     320.3018   -21941.005    123.16389   -22064.168   -9186.5192 
   21600    296.62805   -21971.242    114.06075   -22085.303    110.37134 
   21800    282.78951   -21980.375    108.73949   -22089.114   -4458.1532 
   22000    308.56982   -21979.232    118.65265   -22097.884   -8188.7211 
   22200    329.86007   -21970.905    126.83928   -22097.744     -6423.97 
   22400    315.77315   -21982.965    121.42251   -22104.388   -23998.105 
   22600     301.6776   -21984.684    116.00243   -22100.687    10790.376 
   22800    278.02987   -21964.488     106.9093   -22071.398    20911.487 
   23000    300.59575   -21982.944    115.58643    -22098.53    13149.306 
   23200    303.91155   -21991.035    116.86143   -22107.896    10308.711 
   23400    324.93697   -21964.799    124.94623   -22089.745     6155.505 
   23600    261.08988     -21989.1    100.39545   -22089.495   -9042.6174 
   23800    318.81558   -21963.558     122.5924    -22086.15   -15151.741 
   24000     319.6209   -21967.297    122.90206   -22090.199   -3261.9905 
   24200    301.72555   -21986.711    116.02087   -22102.732   -610.19308 
   24400    293.30679   -21968.457    112.78364   -22081.241   -11454.106 
   24600    293.59782   -21972.082    112.89556   -22084.977    18783.526 
   24800    288.33409   -21979.088    110.87152    -22089.96    44473.186 
   25000    308.02664     -21966.4    118.44379   -22084.844   -7064.8038 
   25200    324.70219   -21966.521    124.85595   -22091.376    977.13106 
   25400    330.08567   -21978.403    126.92602   -22105.329   -12640.538 
   25600    269.35145   -22006.955    103.57223   -22110.528    3499.0666 
   25800    278.68665   -22002.368    107.16184    -22109.53    19027.747 
   26000     308.4342   -21975.867    118.60051   -22094.467    7058.1204 
   26200    333.71528   -21964.304     128.3217   -22092.626   -6671.5064 
   26400    273.80252   -21994.326    105.28378    -22099.61    3463.2205 
   26600    297.45502   -21979.099    114.37874   -22093.477    9337.1699 
   26800    287.32249   -21973.009    110.48254   -22083.492    18620.681 
   27000    317.51653   -21980.668    122.09288   -22102.761    1306.9975 
   27200    294.69534   -21965.876    113.31758   -22079.194   -25910.709 
   27400    337.48999   -21954.593    129.77317   -22084.366   -10882.425 
   27600    297.06959    -21979.81    114.23053   -22094.041    20148.102 
   27800    284.57631   -21983.326    109.42656   -22092.753   -8516.4403 
   28000    255.91451   -22003.183    98.405397   -22101.588    16.477318 
   28200    287.90359   -21976.425    110.70598   -22087.131    8963.0546 
   28400     341.5611   -21967.108    131.33861   -22098.446     13111.75 
   28600    275.19019   -21991.617    105.81737   -22097.434    8904.7579 
   28800    290.62709   -21988.193    111.75324   -22099.946   -15594.925 
   29000    281.33805   -21975.242    108.18137   -22083.423     11524.52 
   29200    297.89165   -21986.993    114.54664    -22101.54    4188.8401 
   29400    285.84838   -21962.222    109.91571   -22072.137   -5527.4641 
   29600    294.27657   -21968.562    113.15655   -22081.719   -8023.5966 
   29800     280.6483   -21985.803    107.91614   -22093.719     15623.96 
   30000    301.41813   -21979.903    115.90265   -22095.806    16589.191 
   30200    350.18726   -21969.712    134.65558   -22104.367   -10444.515 
   30400    313.87858   -21985.853      120.694   -22106.547    5773.7779 
   30600    295.87661   -21974.922    113.77181   -22088.694   -18517.227 
   30800    332.00212   -21965.769    127.66295   -22093.432   -19823.162 
   31000    278.41247    -21986.23    107.05642   -22093.287   -19907.708 
   31200     301.6284   -21984.669    115.98351   -22100.653   -6169.0836 
   31400    289.45805   -21984.258    111.30371   -22095.561    6643.1114 
   31600    328.53486    -21963.57     126.3297     -22089.9   -17108.235 
   31800    317.22085   -21971.961    121.97919    -22093.94    1151.2739 
   32000    275.87191   -21991.934    106.07951   -22098.014   -11782.788 
   32200    330.24209    -21965.44    126.98618   -22092.427   -1483.1886 
   32400    278.13534   -21994.633    106.94985   -22101.583    8250.5709 
   32600    257.03779   -21987.061    98.837328   -22085.898    3561.6155 
   32800    286.76894   -21966.977    110.26968   -22077.247    101.48861 
   33000     289.9974   -21993.231     111.5111   -22104.742    12570.551 
   33200    264.61532   -21989.478    101.75107   -22091.229    9806.3369 
   33400    280.92626   -21980.511    108.02303   -22088.534    3783.0738 
   33600    292.39615   -21988.944    112.43348   -22101.378    7295.8754 
   33800    285.42233   -21978.699    109.75188   -22088.451   -7906.0265 
   34000    300.81753   -21962.828    115.67171   -22078.499    26419.694 
   34200    290.33466   -21993.853    111.64079   -22105.494   -12685.483 
   34400    294.17992   -21983.335    113.11939   -22096.454    16094.777 
   34600     346.9196   -21947.142    133.39908   -22080.541   -18084.338 
   34800     325.5274   -21963.527    125.17326     -22088.7     18473.18 
   35000    260.86266   -21984.509    100.30808   -22084.817    25990.007 
   35200    302.94407   -21965.715    116.48942   -22082.204    19394.911 
   35400    311.69489   -21974.037    119.85432   -22093.892   -21064.612 
   35600     288.5697   -21985.155    110.96212   -22096.117    949.38795 
   35800    325.60354   -21970.788    125.20254    -22095.99   -10086.107 
   36000    297.02673   -21984.565    114.21406   -22098.779   -7774.3051 
   36200     290.6039     -21991.2    111.74432   -22102.944   -22946.225 
   36400    312.92126   -21971.732    120.32589   -22092.058   -4289.5406 
   36600    272.70607   -21992.053    104.86217   -22096.916    8779.6617 
   36800    287.74134   -21988.844    110.64359   -22099.487    5593.2208 
   37000    329.81383    -21967.47     126.8215   -22094.291   -10198.493 
   37200     289.9409   -21990.906    111.48938   -22102.395   -6683.7272 
   37400    309.08339   -21977.145    118.85013   -22095.995   -9325.6059 
   37600     315.1359   -21975.167    121.17747   -22096.344    -4220.308 
   37800    280.86289   -21988.543    107.99866   -22096.542    20115.557 
   38000     315.3595   -21989.479    121.26345   -22110.743   -3115.2947 
   38200    306.49652   -21964.868    117.85542   -22082.723   -5154.0801 
   38400    298.77405   -21989.731    114.88594   -22104.617   -10645.249 
   38600    316.79331   -21990.144    121.81479   -22111.959   -2500.2593 
   38800    294.45015   -21976.892     113.2233   -22090.115   -12153.306 
   39000     277.2647   -21980.062    106.61507   -22086.677    19433.744 
   39200    265.25786   -21995.235    101.99814   -22097.233    3367.6896 
   39400    292.12109   -21972.039    112.32771   -22084.367    9624.7345 
   39600    302.47271   -21982.914    116.30817   -22099.222    3778.9574 
   39800    264.49624   -21983.083    101.70529   -22084.788    12164.704 
   40000     301.8018   -21974.496    116.05018   -22090.546    4271.9764 
   40200    299.68037   -21978.952    115.23445   -22094.186    18964.962 
   40400    279.05003    -21995.45    107.30157   -22102.752   -15121.718 
   40600    304.58605    -21966.51     117.1208   -22083.631    -12510.91 
   40800    310.97136   -21974.988     119.5761   -22094.564    3179.2659 
   41000    306.75363   -21988.283    117.95429   -22106.237    10133.564 
   41200    274.21144   -22006.906    105.44102   -22112.347   -3630.2694 
   41400    283.88164    -21977.24    109.15945     -22086.4   -17475.554 
   41600    286.10176   -21976.706    110.01313   -22086.719    2019.8168 
   41800    248.23471   -21999.858    95.452328    -22095.31   -8180.4602 
   42000    287.53103   -21985.379    110.56272   -22095.942   -3065.9536 
   42200    295.00982   -21976.576     113.4385   -22090.015    7097.7328 
   42400    284.28622    -21998.85    109.31502   -22108.165   -1280.2959 
   42600    312.57681   -21974.266    120.19344    -22094.46    1808.4665 
   42800    290.95805   -21976.093     111.8805   -22087.973    9628.0363 
   43000    295.09666   -21995.136    113.47189   -22108.608   -514.17253 
   43200    272.32705   -22002.402    104.71642   -22107.118    361.58961 
   43400    310.30189   -21973.836    119.31868   -22093.155     7830.508 
   43600    286.14784   -21991.857    110.03085   -22101.887   -6082.2787 
   43800    309.73137   -21986.104     119.0993   -22105.203   -1395.3262 
   44000    343.39822   -21967.425    132.04503    -22099.47   -7099.5202 
   44200    270.34829   -21992.886    103.95554   -22096.842    1530.3906 
   44400    342.76486   -21985.913    131.80149   -22117.714   -9595.9233 
   44600    327.40323   -21977.388    125.89456   -22103.283   -4516.0066 
   44800    330.18653   -21973.111    126.96481   -22100.076     5926.643 
   45000    274.38049   -21995.906    105.50602   -22101.412   -3848.3389 
   45200     324.6089   -21970.077    124.82007   -22094.897   -6176.4603 
   45400    287.91153   -21984.196    110.70903   -22094.905   -18629.608 
   45600    298.49654   -21975.775    114.77923   -22090.554   -2243.5421 
   45800    346.16567   -21956.608    133.10918   -22089.717    2248.4467 
   46000    301.33814   -21982.798     115.8719    -22098.67    -9327.605 
   46200    317.93673   -21987.428    122.25446   -22109.683   -10822.164 
   46400    291.04506   -21975.543    111.91395   -22087.457   -5627.3521 
   46600    339.86198   -21961.913    130.68526   -22092.598    14615.115 
   46800    301.78711   -21994.775    116.04454   -22110.819    2267.8423 
   47000    296.87445   -21980.839     114.1555   -22094.994    6418.1402 
   47200    316.36206   -21967.305    121.64896   -22088.954    24305.669 
   47400    292.04296    -21982.63    112.29767   -22094.928    2365.1967 
   47600    283.10283   -21989.776    108.85997   -22098.636   -10685.772 
   47800    330.08281   -21966.955    126.92493    -22093.88   -12258.829 
   48000    280.53671   -21990.696    107.87324    -22098.57    2634.2718 
   48200    291.39139   -21978.334    112.04713   -22090.381    -709.9315 
   48400    328.93811   -21974.596    126.48476   -22101.081    12221.771 
   48600    310.44416   -21988.111    119.37338   -22107.485    5285.0672 
   48800    306.24683   -21963.877    117.75941   -22081.637    16542.496 
   49000    315.95353   -21976.592    121.49187   -22098.083    4316.1319 
   49200     287.9336   -21976.897    110.71752   -22087.614      26033.8 
   49400     344.1636   -21943.593    132.33933   -22075.932    11352.592 
   49600    305.41417   -21968.271    117.43923    -22085.71    3718.6328 
   49800    304.66861   -21984.977    117.15254   -22102.129    2516.6836 
   50000    283.45126   -21988.423    108.99395   -22097.417    1033.5235 
   50200    298.12932   -21961.736    114.63803   -22076.374    18432.105 
   50400    255.81449   -21986.809    98.366937   -22085.176   -5363.1747 
   50600    285.03296   -21983.896    109.60216   -22093.498   -769.36647 
   50800    323.88757   -21961.444    124.54271   -22085.987   -11599.503 
   51000    328.93859   -21967.782    126.48495   -22094.267    3747.7057 
   51200    299.99025   -21990.965     115.3536   -22106.319   -4257.8149 
   51400    319.22967   -21965.046    122.75163   -22087.798   -6027.2786 
   51600    270.72784   -21971.841    104.10149   -22075.943    4845.7552 
   51800    288.61113   -21977.698    110.97805   -22088.677    9435.4224 
   52000    313.04018    -21968.45    120.37162   -22088.822   -4275.8384 
   52200    308.12166   -21970.082    118.48033   -22088.562   -2176.2415 
   52400    289.60124   -21993.348    111.35877   -22104.707    3415.6275 
   52600    304.99175   -21979.492     117.2768   -22096.769   -19201.873 
   52800    305.09486   -21969.334    117.31645    -22086.65   -16502.682 
   53000    269.23863   -21991.598    103.52885   -22095.127   -77.363472 
   53200     306.0945   -21980.673    117.70083   -22098.374    13723.429 
   53400    316.39581   -21978.421    121.66194   -22100.083   -11735.614 
   53600    297.28154   -21983.427    114.31204   -22097.739    11634.429 
   53800    313.53527   -21959.206    120.56199   -22079.768    4144.2525 
   54000    276.61063   -21989.095    106.36356   -22095.458    2784.9543 
   54200    301.23287   -21981.296    115.83142   -22097.128    2409.9282 
   54400    292.08209   -21976.779    112.31272   -22089.091   -546.91684 
   54600    305.36845   -21978.452    117.42165   -22095.874    2368.3578 
   54800    301.29324   -21988.053    115.85463   -22103.908   -14157.622 
   55000    329.67097   -21960.329    126.76656   -22087.095    5317.8404 
   55200    318.36216   -21977.821    122.41805   -22100.239    6108.2814 
   55400     287.9829   -21978.287    110.73648   -22089.024    18420.212 
   55600    330.29748    -21956.72    127.00747   -22083.727    18825.792 
   55800    287.65514   -21971.158    110.61045   -22081.769    -15980.16 
   56000    285.99814   -21982.588    109.97329   -22092.561   -18265.523 
   56200    301.78069   -21962.027    116.04207   -22078.069    5461.1903 
   56400    334.75133   -21969.719    128.72008   -22098.439   -3160.8977 
   56600     300.3671   -21981.648    115.49851   -22097.147    19177.961 
   56800    298.94477   -21971.139    114.95159   -22086.091     2764.999 
   57000     295.1764   -21974.302    113.50256   -22087.805   -24814.954 
   57200    274.01783   -21990.846    105.36657   -22096.212   -7949.0795 
   57400    325.29207   -21957.006    125.08277   -22082.089    565.89915 
   57600    293.10798   -21973.326     112.7072   -22086.033   -8871.8181 
   57800    322.27158   -21988.479    123.92132   -22112.401   -14155.994 
   58000    302.53906    -21993.52    116.33368   -22109.854   -3414.9661 
   58200    324.45039   -21969.971    124.75912    -22094.73    17219.113 
   58400    294.17645   -21996.913    113.11805   -22110.031   -5453.3377 
   58600    295.72777   -21987.141    113.71457   -22100.856   -2003.3129 
   58800    312.81925   -21977.906    120.28667   -22098.192   -10212.474 
   59000    294.39915   -21978.714    113.20369   -22091.917   -29038.505 
   59200    267.55496   -21996.495    102.88143   -22099.377    9300.6787 
   59400    305.23433   -21971.966    117.37008   -22089.336    18126.368 
   59600    301.03365   -21979.892    115.75481   -22095.647    14790.861 
   59800    279.25824   -22006.504    107.38164   -22113.886    21727.919 
   60000    304.59908   -21980.274    117.12581     -22097.4   -4115.7656 
   60200    310.76552   -21974.602    119.49695   -22094.099   -3799.8013 
   60400    255.16789   -22003.218    98.118305   -22101.336   -2150.7457 
   60600     312.1247    -21978.71    120.01959   -22098.729    8198.7249 
   60800    303.30598   -21986.132    116.62858   -22102.761   -10512.273 
   61000    289.59987   -21995.135    111.35824   -22106.493   -13958.629 
   61200    317.44957    -21970.82    122.06713   -22092.887    610.55929 
   61400    311.72543   -21974.037    119.86606   -22093.903   -2735.2545 
   61600    291.52937   -21994.881    112.10018   -22106.981    2313.8669 
   61800    285.05224   -21981.504    109.60957   -22091.113   -1492.7846 
   62000    317.29129   -21978.673    122.00627    -22100.68    9999.9268 
   62200    303.97961   -21981.481    116.88761   -22098.368    726.94146 
   62400    338.70503    -21953.19    130.24038   -22083.431   -3161.1327 
   62600     265.3335   -21980.355    102.02723   -22082.383    -5485.824 
   62800    285.52294    -21981.19    109.79056   -22090.981    10609.021 
   63000    329.87868   -21954.985    126.84643   -22081.832   -33977.763 
   63200    309.15461   -21982.324    118.87752   -22101.201   -4206.6266 
   63400    285.43797   -21983.037    109.75789   -22092.795    20147.203 
   63600    310.97658   -21955.031    119.57811   -22074.609   -428.82169 
   63800    327.76996   -21974.057    126.03558   -22100.093   -5179.2837 
   64000    273.99235   -21984.122    105.35677   -22089.479    8763.0344 
   64200    313.09475   -21964.212     120.3926   -22084.605    3103.9886 
   64400    298.70785   -21993.738    114.86049   -22108.598    13183.286 
   64600    306.99306   -21981.814    118.04635   -22099.861    8679.5295 
   64800    274.47092   -21974.495    105.54079   -22080.036   -17782.811 
   65000    306.30879   -21978.472    117.78323   -22096.255    26228.445 
   65200    280.95311   -21993.427    108.03335    -22101.46    4097.6804 
   65400    301.15013   -21966.617     115.7996   -22082.416   -3851.9856 
   65600    285.97351   -21981.793    109.96382   -22091.757    29697.431 
   65800    274.97569   -21989.998    105.73489   -22095.733   -24098.019 
   66000    293.93263   -21977.256     113.0243    -22090.28     -13467.6 
   66200    315.52502   -21971.842     121.3271   -22093.169    8593.6673 
   66400    291.32814    -21994.55     112.0228   -22106.573     -10964.7 
   66600    257.68691   -21978.647    99.086931   -22077.734    11061.695 
   66800    298.95694   -21975.116    114.95627   -22090.073   -3269.9798 
   67000    267.02924   -22004.405    102.67928   -22107.084   -26154.744 
   67200    293.23638   -21980.301    112.75657   -22093.058    15555.588 
   67400    286.21121   -21977.138    110.05522   -22087.193   -24244.986 
   67600    318.42035    -21978.59    122.44042    -22101.03   -28879.501 
   67800    297.93225   -21981.556    114.56225   -22096.119   -22157.374 
   68000    289.02818   -21998.978    111.13842   -22110.116   -4117.7397 
   68200    301.44131    -21974.05    115.91157   -22089.961    13429.946 
   68400    333.72543   -21969.008     128.3256   -22097.333   -173.79695 
   68600    286.90452   -21987.076    110.32182   -22097.398   -16616.974 
   68800    288.02113   -21979.519    110.75118    -22090.27   -10214.428 
   69000     303.6968   -21959.604    116.77886   -22076.383    15786.729 
   69200    293.49798   -21987.841    112.85716   -22100.699    531.13923 
   69400    293.77918   -21988.861    112.96529   -22101.826    11908.716 
   69600    322.36771   -21967.789    123.95828   -22091.747     -21786.1 
   69800    288.38146   -21984.467    110.88974   -22095.357    9330.6915 
   70000    319.28029   -21983.644    122.77109   -22106.415     26299.65 
   70200     324.6895   -21972.049    124.85107     -22096.9   -20165.682 
   70400      282.187   -21983.015    108.50781   -22091.523    7832.3665 
   70600    281.55779   -21981.159    108.26587   -22089.425   -23279.871 
   70800    357.25281     -21961.3    137.37246   -22098.672   -5334.3613 
   71000    280.10621   -21987.006     107.7077   -22094.714   -15691.169 
   71200    334.44885    -21979.08    128.60377   -22107.684    6236.1862 
   71400    312.38019   -21985.727    120.11783   -22105.845    1399.8705 
   71600    309.95991   -21983.822    119.18718   -22103.009    16355.202 
   71800    294.32333   -21960.711    113.17453   -22073.885   -13966.956 
   72000    294.19524   -21987.342    113.12528   -22100.467    18784.263 
   72200    287.64893   -21981.125    110.60806   -22091.733   -1057.3585 
   72400    344.23786   -21964.753    132.36789   -22097.121    14443.427 
   72600    262.08672   -21999.483    100.77876   -22100.261   -28810.176 
   72800    303.64196    -21981.12    116.75777   -22097.878   -2633.9915 
   73000    289.39435   -21963.772    111.27922   -22075.051    1290.0642 
   73200    266.90153   -21987.784    102.63018   -22090.414    247.56602 
   73400    262.64433   -21987.703    100.99318   -22088.697    13351.658 
   73600    319.10691    -21961.12    122.70442   -22083.824    3623.9377 
   73800    293.25264    -21983.24    112.76282   -22096.002    22495.549 
   74000    286.29809   -21979.819    110.08863   -22089.908   -6704.6645 
   74200    296.87846   -21970.819    114.15704   -22084.976   -2712.5101 
   74400    304.02138    -21986.39    116.90367   -22103.294   -1879.6289 
   74600    334.37809   -21956.902    128.57657   -22085.479   -17671.073 
   74800    285.11232   -21977.277    109.63267   -22086.909    6847.2777 
   75000    263.04628   -21981.637    101.14774   -22082.785   -10639.925 
   75200    360.06556   -21949.116    138.45403    -22087.57    4858.9364 
   75400    352.23651   -21971.642    135.44357   -22107.085    30587.551 
   75600    311.37974    -21984.72    119.73314   -22104.453    -4322.347 
   75800    314.59929   -21956.857    120.97114   -22077.828   -6120.5501 
   76000    317.13408   -21968.531    121.94582   -22090.477    24862.125 
   76200     301.1489   -21979.002    115.79913   -22094.802    31785.127 
   76400    335.24111   -21967.745    128.90842   -22096.653   -13564.678 
   76600    283.31302   -21990.765     108.9408   -22099.706    1901.2835 
   76800    300.59436   -21974.301    115.58589   -22089.887    5734.4844 
   77000    324.18254   -21967.709    124.65613   -22092.366   -23269.298 
   77200    329.83875   -21975.713    126.83108   -22102.544    -874.2767 
   77400     269.2467   -22000.948    103.53195    -22104.48   -5619.6913 
   77600    312.07326   -21983.584    119.99981   -22103.584    3166.9377 
   77800     284.5177   -21972.981    109.40403   -22082.385   -3897.9314 
   78000    263.36798   -21999.298    101.27144   -22100.569   -3439.6917 
   78200    281.03454   -21987.065    108.06466    -22095.13     488.9674 
   78400     309.5841   -21974.426    119.04267   -22093.469    16013.302 
   78600    284.30298   -21986.489    109.32146    -22095.81   -6629.0007 
   78800    235.46704   -22015.185    90.542846   -22105.727   -2645.4549 
   79000    301.55673   -21993.092    115.95595   -22109.047   -17046.417 
   79200    301.93469   -21979.815    116.10128   -22095.916    -12159.38 
   79400    310.55645    -21962.72    119.41656   -22082.137   -2700.3167 
   79600    292.84521   -21976.502    112.60616   -22089.108   -1058.5296 
   79800    277.72927   -21990.102    106.79371   -22096.896    14401.209 
   80000    340.89971   -21960.519    131.08429   -22091.604   -22360.916 
   80200    314.18525   -21965.932    120.81192   -22086.744    899.03193 
   80400    286.80193   -21989.058    110.28237    -22099.34   -2085.5079 
   80600      328.971   -21974.317    126.49741   -22100.814    -13210.06 
   80800     317.1065   -21961.875    121.93522    -22083.81   -16871.883 
   81000    284.97646   -21990.802    109.58043   -22100.383    4296.9918 
   81200    307.31193   -21977.026    118.16897   -22095.195     611.2298 
   81400    316.18254   -21963.652    121.57993   -22085.232    20918.073 
   81600    317.40506   -21987.581    122.05002   -22109.631    8077.4725 
   81800    309.33461   -21974.629    118.94673   -22093.575   -11331.631 
   82000    275.43437   -21972.905    105.91126   -22078.817    -22127.63 
   82200    288.45226   -21995.735    110.91696   -22106.652   -12674.446 
   82400    311.48683   -21967.113    119.77432   -22086.888    12212.156 
   82600    322.96941    -21972.49    124.18965    -22096.68   -9760.3781 
   82800    268.43171   -21991.562    103.21857   -22094.781    4900.6766 
   83000    306.45403   -21981.677    117.83908   -22099.516   -26294.424 
   83200    319.97697   -21962.816    123.03898   -22085.855   -4297.3364 
   83400    283.87036   -21991.409    109.15511   -22100.564    6173.9141 
   83600    276.38258   -21984.619    106.27587   -22090.895    40.639616 
   83800     323.1305   -21976.125    124.25159   -22100.377    6952.2624 
   84000    324.90231   -21978.791     124.9329   -22103.724    6149.9534 
   84200    298.72957   -21986.106    114.86884   -22100.974    21869.987 
   84400    298.43225   -21970.674    114.75451   -22085.428    5065.4479 
   84600    295.58778   -21985.504    113.66074   -22099.164    11893.838 
   84800    296.73084   -21992.306    114.10028   -22106.406    10602.038 
   85000    317.92456    -21974.17    122.24978    -22096.42    7565.2436 
   85200    291.22023   -21984.186    111.98131   -22096.167    7370.4544 
   85400    255.98151   -22003.566    98.431163   -22101.997    3134.6448 
   85600    320.09546   -21971.214    123.08455   -22094.299    7464.9567 
   85800    297.05264   -21981.759    114.22402   -22095.983   -16936.587 
   86000    276.05049   -21993.975    106.14818   -22100.123    14998.941 
   86200    324.80457   -21961.823    124.89531   -22086.719   -17161.237 
   86400    277.89758   -21990.391    106.85843   -22097.249    16609.752 
   86600    308.77198   -21977.786    118.73039   -22096.517   -11632.153 
   86800    307.20802   -21982.764    118.12901   -22100.893    8903.9302 
   87000    280.02372   -21998.903    107.67598   -22106.579   -11856.629 
   87200     323.8488   -21973.134     124.5278   -22097.662    10934.943 
   87400    283.47145    -21990.19    109.00172   -22099.192    10972.725 
   87600    251.71699   -22015.558    96.791349   -22112.349    5917.9977 
   87800     276.5382   -21980.582    106.33571   -22086.918   -8230.0277 
   88000    326.13225   -21973.882    125.40584   -22099.288    9853.4974 
   88200    259.34038   -21995.812    99.722729   -22095.535    13351.979 
   88400    331.13122   -21968.901    127.32807   -22096.229   -9769.9625 
   88600    325.35434   -21977.508    125.10671   -22102.615   -2222.0554 
   88800    282.00134   -21989.417    108.43642   -22097.853    15656.173 
   89000     288.2731   -21980.996    110.84807   -22091.844   -4652.5733 
   89200    306.62962   -21981.066     117.9066   -22098.972     6691.824 
   89400    286.20367   -21997.647    110.05232   -22107.699   -2895.8971 
   89600    281.19097   -21985.601    108.12482   -22093.726   -25499.994 
   89800    343.91178   -21971.191     132.2425   -22103.433   -7857.8117 
   90000    259.58064   -21994.506    99.815115   -22094.322     319.5944 
   90200    296.26322   -21983.621    113.92046   -22097.541    4613.0083 
   90400    319.71314   -21967.558    122.93753   -22090.495     25212.66 
   90600    323.56813    -21953.04    124.41987    -22077.46    8574.5146 
   90800    307.22537   -21981.979    118.13568   -22100.114    -10204.16 
   91000    303.31336   -21980.651    116.63142   -22097.282   -5786.1779 
   91200    332.52383   -21952.817    127.86356   -22080.681   -17392.838 
   91400    301.52824   -21973.351      115.945   -22089.296   -17517.511 
   91600    301.42285   -21985.885    115.90447    -22101.79   -10011.337 
   91800     304.4007   -21979.708    117.04953   -22096.758    -16455.48 
   92000    297.65072   -21961.726    114.45399    -22076.18   -23237.725 
   92200     259.4584   -21992.606    99.768109   -22092.374   -7038.3908 
   92400    305.13795   -21975.927    117.33302   -22093.261    17490.838 
   92600     298.0946   -21968.455    114.62468   -22083.079    20925.817 
   92800    351.04013   -21937.308    134.98353   -22072.292    19080.644 
   93000    271.75846   -21968.603    104.49779   -22073.101    24763.792 
   93200    280.96528   -21982.802    108.03803    -22090.84    10593.861 
   93400    309.09074   -21966.275    118.85296   -22085.128    14199.208 
   93600    328.88198   -21962.006    126.46318   -22088.469    18750.775 
   93800    297.02479   -21984.241    114.21331   -22098.455    -26769.72 
   94000    312.77891   -21966.692    120.27115   -22086.963    11222.558 
   94200    314.42119   -21975.806    120.90265   -22096.709    576.80612 
   94400     282.4391   -21987.477    108.60475   -22096.082    4514.0285 
   94600    325.49815   -21968.216    125.16201   -22093.378    21369.369 
   94800    265.29451    -21991.64    102.01224   -22093.652    10306.788 
   95000    296.46915   -21984.645    113.99965   -22098.644   -9347.2922 
   95200    270.74244   -21976.624     104.1071   -22080.731   -22678.906 
   95400    279.03971    -21990.84     107.2976   -22098.138    15407.237 
   95600    259.58608   -22004.797    99.817205   -22104.614    1722.0381 
   95800    268.86679   -21981.015    103.38587   -22084.401    33715.406 
   96000    305.84434   -21972.564    117.60464   -22090.169   -31001.858 
   96200    259.43682   -22000.234    99.759814   -22099.993     -8731.04 
   96400    286.51303   -21988.158    110.17128   -22098.329     22015.43 
   96600    282.65225   -21979.401    108.68671   -22088.087   -23663.326 
   96800    253.39171   -21997.679    97.435321   -22095.114   -12406.171 
   97000    291.33735   -21984.504    112.02635    -22096.53   -5116.1199 
   97200    315.16137   -21974.287    121.18727   -22095.474    1869.9161 
   97400    241.98277   -22001.147    93.048301   -22094.196    21470.674 
   97600    289.20505   -21990.747    111.20643   -22101.953    8422.9629 
   97800    290.82983   -21976.482    111.83119   -22088.313   -7067.0272 
   98000    308.13022   -21974.222    118.48362   -22092.705    2154.4073 
   98200    281.69432   -21999.456    108.31837   -22107.774   -1869.1511 
   98400    311.55757   -21969.244    119.80152   -22089.045    5220.4815 
   98600    295.12113   -21978.037     113.4813   -22091.518   -6847.8653 
   98800    276.58703   -21994.212    106.35449   -22100.567    18864.618 
   99000    258.03295   -21998.837    99.219989   -22098.057     14751.76 
   99200    332.98857   -21971.845    128.04226   -22099.887   -14199.916 
   99400      301.305   -21988.973    115.85915   -22104.832   -9418.5214 
   99600    306.22114   -21983.076    117.74953   -22100.825   -493.40937 
   99800    305.19207    -21966.49    117.35383   -22083.844    8861.3287 
  100000    298.94999   -21993.888     114.9536   -22108.841   -12644.565 
  100200    333.65906   -21981.639    128.30008   -22109.939    20479.981 
  100400    308.92956   -21972.511    118.79098   -22091.302    11313.364 
  100600    346.91141    -21955.25    133.39593   -22088.646   -16361.552 
  100800    332.97306   -21973.235     128.0363   -22101.271   -23223.096 
  101000    271.46187   -21988.306    104.38374   -22092.689   -15485.347 
  101200    298.77304   -21955.886    114.88555   -22070.772   -14439.914 
  101400    305.83459   -21979.361    117.60089   -22096.962   -14028.785 
  101600    271.97213   -21984.965    104.57995   -22089.545   -13962.902 
  101800    315.28787    -21957.32    121.23591   -22078.556   -1205.7958 
  102000    311.84632   -21982.611    119.91255   -22102.524    -1969.758 
  102200    291.11015    -21988.56    111.93898   -22100.499    16643.462 
  102400    347.88469   -21954.506    133.77019   -22088.276    11993.225 
  102600    317.94199   -21979.142    122.25648   -22101.398   -28466.846 
  102800    290.86736   -21985.595    111.84563   -22097.441   -8698.0314 
  103000    334.23269   -21954.856    128.52066   -22083.377    6987.8697 
  103200    290.01543   -21978.735    111.51804   -22090.253   -23895.078 
  103400    286.40415   -21977.251    110.12941   -22087.381   -11354.935 
  103600     272.8672   -21966.005    104.92412   -22070.929    8785.7608 
  103800    279.63208   -21978.686    107.52539   -22086.211    30526.358 
  104000    304.16939   -21989.811    116.96058   -22106.771    19138.078 
  104200    322.63089   -21966.495    124.05948   -22090.554    7038.0165 
  104400    313.28417   -21974.626    120.46544   -22095.091    23914.849 
  104600    276.83687   -21983.308    106.45056   -22089.758     24670.09 
  104800    341.92687   -21967.767    131.47926   -22099.247    17718.778 
  105000    326.62075    -21975.16    125.59368   -22100.753    22470.869 
  105200    324.46996   -21987.813    124.76665    -22112.58   -9222.3016 
  105400    341.11815   -21965.371    131.16828   -22096.539    545.16694 
  105600    327.72363   -21966.203    126.01776   -22092.221   -7932.1863 
  105800      280.537   -21991.282    107.87335   -22099.156    998.74984 
  106000    340.26652   -21966.889    130.84081    -22097.73    8061.1408 
  106200    296.44026    -21981.58    113.98854   -22095.568   -976.74526 
  106400    287.08644   -21994.548    110.39177   -22104.939   -3543.0363 
  106600     320.8665   -21972.785    123.38103   -22096.166   -10982.855 
  106800    315.39505   -21986.473    121.27712    -22107.75   -19361.163 
  107000     258.1169   -22020.807    99.252272   -22120.059   -3018.1815 
  107200    290.96855   -21997.214    111.88454   -22109.099    1753.2206 
  107400     327.4561   -21978.355    125.91489    -22104.27     354.7148 
  107600    290.73779   -21995.153     111.7958   -22106.949   -8945.4188 
  107800    307.74543   -21992.736    118.33566   -22111.071    16127.565 
  108000    305.52737   -21978.285    117.48276   -22095.768    15445.729 
  108200    292.01302   -21970.252    112.28616   -22082.539   -1895.4637 
  108400    290.85919   -21972.435    111.84248   -22084.278   -2332.6771 
  108600    279.81332   -21990.712    107.59508   -22098.307    -15027.98 
  108800    327.59389   -21957.225    125.96788   -22083.193   -7646.9689 
  109000     268.8375   -21979.519    103.37461   -22082.894    -33346.57 
  109200    331.37482   -21981.868    127.42174    -22109.29     8916.275 
  109400    328.91073   -21961.743    126.47423   -22088.217    3629.0256 
  109600    261.21385   -21987.583    100.44313   -22088.026   -19398.793 
  109800    254.80422   -21991.001    97.978465   -22088.979   -11807.963 
  110000    292.59445   -21967.943    112.50973   -22080.453   -9469.3909 
  110200    328.17632   -21973.987    126.19183   -22100.179   -5339.9574 
  110400    276.21906   -21999.051    106.21299   -22105.264    23147.999 
  110600     304.4493   -21970.606    117.06821   -22087.674   -10004.884 
  110800    303.74567   -21976.861    116.79765   -22093.659    13032.436 
  111000    283.33761   -21993.687    108.95025   -22102.638    23906.734 
  111200    330.54914   -21962.456    127.10424   -22089.561   -26228.413 
  111400    309.32295   -21985.188    118.94225   -22104.131   -3218.5391 
  111600     289.7798   -21991.808    111.42743   -22103.236    17827.876 
  111800    323.10577    -21961.64    124.24208   -22085.882    19052.925 
  112000    300.64847   -21986.186     115.6067   -22101.792    9011.5005 
  112200    278.55105   -21979.666     107.1097   -22086.776   -3918.6397 
  112400    291.20601   -21971.664    111.97585   -22083.639   -1793.3357 
  112600    294.47547   -21978.559    113.23303   -22091.792     10139.89 
  112800    291.37896   -21986.116    112.04235   -22098.158   -2073.6373 
  113000    299.89783   -21966.447    115.31806   -22081.765   -7074.1896 
  113200    324.37251   -21971.654    124.72917   -22096.383   -26959.639 
  113400    291.99713   -21988.214    112.28005   -22100.494    3300.8246 
  113600    321.26573    -21967.81    123.53454   -22091.344   -21902.496 
  113800    305.73161   -21997.436    117.56129   -22114.998    12185.711 
  114000    289.44026   -21988.871    111.29687   -22100.168   -20240.186 
  114200    313.82927   -21977.336    120.67504   -22098.011    15384.036 
  114400    276.54412   -22000.058    106.33799   -22106.396    -3177.485 
  114600    276.19668   -22001.253    106.20439   -22107.457    12461.259 
  114800    301.44502    -21979.92    115.91299   -22095.833    8701.7627 
  115000    313.54294   -21969.885    120.56494    -22090.45    22325.136 
  115200    268.28412   -21999.361    103.16181   -22102.523    2379.1586 
  115400    291.85446   -21978.987    112.22519   -22091.212   -282.36046 
  115600    284.19873   -21973.173    109.28137   -22082.454   -24398.019 
  115800     315.1996   -21975.968    121.20197    -22097.17   -11157.207 
  116000    291.10501    -21983.83    111.93701   -22095.767    18224.912 
  116200    283.51621   -22000.458    109.01893   -22109.477   -2883.0355 
  116400    294.76121   -21971.885    113.34291   -22085.227   -271.45428 
  116600    295.33041   -21970.028    113.56178   -22083.589    1822.7196 
  116800    260.95092   -21997.446    100.34202   -22097.788    28388.665 
  117000    283.08265   -21976.939    108.85222   -22085.791   -7810.3909 
  117200    282.82103   -21973.842    108.75161   -22082.594    1880.9756 
  117400     310.7048   -21978.079    119.47361   -22097.552   -21501.305 
  117600    280.40377   -21983.122    107.82212   -22090.944   -121.63354 
  117800    310.50047   -21967.762    119.39504   -22087.157    20964.077 
  118000     294.9907   -21971.386    113.43115   -22084.817      5380.71 
  118200    265.39104   -21987.697    102.04936   -22089.746    6343.8353 
  118400    322.71167   -21969.803    124.09054   -22093.893    238.69258 
  118600    286.77578   -22001.678    110.27231    -22111.95    -20376.16 
  118800    319.37988   -21979.795    122.80939   -22102.605   -7976.9034 
  119000    302.19658   -21984.556    116.20199   -22100.758   -3189.6986 
  119200    283.68039   -22008.569    109.08206   -22117.652    9553.1667 
  119400    302.87429   -22005.702    116.46258   -22122.165    -1835.405 
  119600    317.95657   -21977.807    122.26209    -22100.07    3787.7735 
  119800    294.10451   -21969.135    113.09039   -22082.226   -1601.5163 
  120000    291.08422   -21997.189    111.92901   -22109.118   -1709.7824 
  120200    312.88268   -21980.137    120.31106   -22100.448    232.91086 
  120400    313.05086    -21975.04    120.37572   -22095.416   -12135.723 
  120600    276.97914   -21993.001    106.50527   -22099.506   -465.07879 
  120800    299.77034   -21992.732    115.26904   -22108.002   -16309.313 
  121000     292.7791   -21973.761    112.58074   -22086.341   -4147.1415 
  121200    266.26859    -21994.06    102.38679   -22096.447    9501.3941 
  121400    277.61505   -21998.702    106.74979   -22105.452   -7941.5545 
  121600    332.75071   -21971.656     127.9508   -22099.607    11946.444 
  121800    317.25205   -21989.276    121.99119   -22111.267   -4153.9916 
  122000    307.84435   -21982.565    118.37369   -22100.939    3000.4866 
  122200    318.10906   -21967.637    122.32073   -22089.958    11413.179 
  122400    327.66351   -21990.073    125.99465   -22116.068     -974.581 
  122600    288.92144    -21976.87    111.09737   -22087.967   -7686.6839 
  122800    299.81351   -21967.854    115.28564    -22083.14    5377.9311 
  123000    273.24537   -21984.755    105.06954   -22089.825    7333.8074 
  123200    302.73576   -21972.922    116.40932   -22089.332   -16150.856 
  123400    326.60807   -21968.031     125.5888    -22093.62    22523.244 
  123600    260.17492   -21988.657    100.04363     -22088.7   -5459.2045 
  123800    288.13869   -21975.151    110.79638   -22085.947    10312.735 
  124000     319.5948   -21967.215    122.89203   -22090.107   -16586.704 
  124200    313.54206    -21997.86     120.5646   -22118.425    12246.028 
  124400    295.89252    -21975.21    113.77792   -22088.988    3567.9574 
  124600    279.76207   -21971.419    107.57537   -22078.994    24671.225 
  124800     269.8805   -21987.812    103.77566   -22091.588   -2823.8353 
  125000     303.6174   -21982.377    116.74833   -22099.125   -18716.412 
  125200    310.44161    -21969.09     119.3724   -22088.463   -1753.0187 
  125400    325.25305   -21981.677    125.06777   -22106.745    15026.441 
  125600    283.10445    -21993.93     108.8606    -22102.79   -1134.4259 
  125800    297.84209   -21967.909    114.52758   -22082.436   -26432.668 
  126000    294.08706   -21985.675    113.08368   -22098.759   -1345.3226 
  126200    262.34398   -21999.758    100.87769   -22100.636    12476.599 
  126400    317.57544   -21971.851    122.11553   -22093.966    2243.3771 
  126600    322.88043    -21981.34    124.15543   -22105.496   -25435.886 
  126800    259.64304   -21998.201    99.839108   -22098.041   -6990.6003 
  127000    317.99555   -21982.431    122.27708   -22104.708   -11409.026 
  127200    327.79861   -21979.237     126.0466   -22105.283   -9229.9154 
  127400    301.93908    -22001.18    116.10297   -22117.283   -12290.959 
  127600    300.54428   -21981.862    115.56664   -22097.428   -6646.9797 
  127800    324.28169   -21975.638    124.69425   -22100.332    1779.6767 
  128000    291.47563   -21995.254    112.07952   -22107.334   -11400.052 
  128200    278.37066   -21998.834    107.04034   -22105.875   -6055.9377 
  128400    302.68064   -21981.641    116.38812   -22098.029    6658.8117 
  128600    297.76146   -21984.568    114.49658   -22099.064    2178.5258 
  128800    241.20641   -22004.607    92.749773   -22097.356    2182.5905 
  129000    361.66368   -21976.362    139.06854   -22115.431     2011.541 
  129200    294.80623   -21984.792    113.36022   -22098.152    19551.961 
  129400    248.94374   -22002.432    95.724968   -22098.157    2734.1562 
  129600    288.56829   -21988.735    110.96158   -22099.697   -4935.1601 
  129800    319.06848   -21974.621    122.68965    -22097.31   -6306.1244 
  130000    280.90117   -22000.152    108.01338   -22108.166   -2228.0399 
  130200    290.87352   -21970.039    111.84799   -22081.887   -19884.538 
  130400    316.09451    -21967.74    121.54608   -22089.286   -8408.5351 
  130600     277.6427   -21989.264    106.76042   -22096.024    1676.0392 
  130800    315.00492   -21965.695    121.12711   -22086.822   -2029.5935 
  131000    311.09092   -21962.889    119.62208   -22082.511    12419.681 
  131200    300.42885   -21979.817    115.52225   -22095.339   -6441.8264 
  131400    277.10661   -21994.179    106.55428   -22100.734   -488.15016 
  131600    247.99786   -22003.886    95.361253   -22099.247   -11142.627 
  131800    295.15027   -21972.773    113.49251   -22086.265    14826.896 
  132000    338.09853   -21978.099    130.00717   -22108.106    15371.825 
  132200    265.43178     -22003.2    102.06502   -22105.265   -2250.4292 
  132400    309.25349   -21973.865    118.91554   -22092.781      27947.2 
  132600    313.23163   -21982.041    120.44524   -22102.487   -5496.6288 
  132800    251.73692    -21993.88    96.799012   -22090.679   -6993.4513 
  133000    312.14499   -21966.384     120.0274   -22086.412    12397.771 
  133200    293.91652   -21989.833     113.0181   -22102.851    15994.388 
  133400    289.13735   -21987.214    111.18039   -22098.394   -6383.8197 
  133600    281.55832   -21973.867    108.26607   -22082.133   -1283.9894 
  133800      325.844   -21955.759      125.295   -22081.054   -21106.638 
  134000    272.08718   -21984.671    104.62419   -22089.295    32274.968 
  134200    260.34481   -21977.324    100.10896   -22077.433    7603.0363 
  134400    309.27337   -21964.057    118.92319    -22082.98   -2692.4452 
  134600    311.64315   -21995.025    119.83443    -22114.86    -12069.94 
  134800    325.65074    -21974.03    125.22068    -22099.25    -1773.681 
  135000    291.57632   -21970.367    112.11824   -22082.485   -5676.7241 
  135200    288.25451   -21998.864    110.84092   -22109.705    11831.598 
  135400    329.92559   -21974.029    126.86447   -22100.893   -18002.966 
  135600    312.27198   -21981.252    120.07622   -22101.328    16713.578 
  135800     292.6218     -21992.9    112.52025   -22105.421    26461.525 
  136000    285.12636   -21991.004    109.63807   -22100.642   -17859.717 
  136200    321.12224   -21971.938    123.47937   -22095.418    20254.556 
  136400     264.5484   -21997.984    101.72534   -22099.709    16145.814 
  136600    283.13062   -21986.102    108.87066   -22094.973     17878.87 
  136800    293.86316   -21975.235    112.99758   -22088.232   -7715.0045 
  137000    278.28054   -21990.887    107.00569   -22097.892   -899.06204 
  137200     268.6351   -21993.448    103.29678   -22096.744    1879.4527 
  137400    296.66263   -21969.547    114.07405   -22083.621   -9160.9581 
  137600     272.0572   -21991.714    104.61266   -22096.327    13772.598 
  137800    267.49637   -21993.293    102.85891   -22096.152   -2148.1152 
  138000    295.26322   -21981.087    113.53594   -22094.623   -7674.3143 
  138200    284.16636   -21968.326    109.26893   -22077.595   -10372.833 
  138400    317.41647   -21976.822    122.05441   -22098.876    -4771.927 
  138600    304.16103   -21993.047    116.95737   -22110.004     1259.099 
  138800    332.19744   -21964.538    127.73805   -22092.276    7029.9813 
  139000    304.61198   -21980.287    117.13077   -22097.418    2651.1008 
  139200    285.47827   -21993.425    109.77339   -22103.198    -4206.573 
  139400     336.0068   -21975.857    129.20284    -22105.06   -26851.787 
  139600    313.81268    -21975.66    120.66866   -22096.328    6865.2888 
  139800    278.52135   -21987.164    107.09828   -22094.262   -8483.4129 
  140000    303.06799   -21990.413    116.53707    -22106.95    7193.8037 
  140200    346.73548   -21964.746    133.32829   -22098.074    -18089.86 
  140400    306.03467   -21978.075    117.67783   -22095.753    7370.0952 
  140600     291.9108   -21981.639    112.24686   -22093.886   -11903.288 
  140800    328.43587   -21959.138    126.29164    -22085.43     4718.669 
  141000    281.14168   -21984.991    108.10586   -22093.097    3459.8116 
  141200    292.91094   -21966.815    112.63143   -22079.446   -2520.5227 
  141400    287.83609   -21960.693    110.68003   -22071.373   -11850.472 
  141600    286.18268   -21984.932    110.04425   -22094.977    7750.2876 
  141800    318.78307   -21980.788     122.5799   -22103.368    1419.8956 
  142000    346.19605   -21951.596    133.12086   -22084.717    9019.8428 
  142200    311.67147   -21975.352    119.84531   -22095.197   -7821.7614 
  142400    305.44844   -21984.396    117.45241   -22101.849    25406.038 
  142600     277.9641   -21985.897    106.88401   -22092.781    15731.959 
  142800     316.6049   -21966.842    121.74234   -22088.584   -11043.606 
  143000    331.45643   -21966.361    127.45312   -22093.814   -8637.5921 
  143200    314.30235    -21989.57    120.85695   -22110.427   -14988.441 
  143400    344.30563   -21966.732    132.39395   -22099.126   -10306.768 
  143600    351.65024   -21949.539    135.21813   -22084.757   -28733.513 
  143800    311.17074   -21982.792    119.65277   -22102.445   -12872.508 
  144000     287.2231   -21987.841    110.44432   -22098.285   -2637.6436 
  144200    316.64886   -21958.159    121.75924   -22079.918   -3314.9649 
  144400    274.02383   -21978.696    105.36888   -22084.065   -7141.8965 
  144600    313.28519   -21976.999    120.46583   -22097.465    5460.2882 
  144800    295.13398   -21976.324    113.48624   -22089.811    26467.233 
  145000    291.22657   -21994.325    111.98375   -22106.309    11629.886 
  145200    317.80758   -21969.613     122.2048   -22091.818    10072.703 
  145400     313.1309    -21975.17     120.4065   -22095.576   -3129.3073 
  145600    245.04967   -21999.059      94.2276   -22093.287   -31546.077 
  145800    250.80508   -22011.091    96.440697   -22107.532   -1771.0557 
  146000    311.51925   -21978.259    119.78678   -22098.046    5072.7873 
  146200    326.02838   -21972.888     125.3659   -22098.254    7820.6854 
  146400    271.22082   -21997.876    104.29105   -22102.167    7979.1943 
  146600     295.8069   -21983.106      113.745   -22096.851   -4695.0758 
  146800    322.94809   -21970.239    124.18145   -22094.421   -3286.0378 
  147000    284.34285    -21985.83    109.33679   -22095.167    15023.999 
  147200    293.34588   -21989.749    112.79868   -22102.548   -24087.846 
  147400     300.4192   -21969.374    115.51854   -22084.892    12696.396 
  147600    288.79584   -21975.201    111.04907    -22086.25   -12089.456 
  147800    320.16336   -22003.851    123.11066   -22126.962    8438.7415 
  148000    317.88331   -21986.864    122.23392   -22109.098    9249.3343 
  148200    306.23804     -21990.3    117.75603   -22108.056   -21410.217 
  148400    279.38401   -22005.351    107.42999   -22112.781   -1299.0372 
  148600    314.94067    -21980.96     121.1024   -22102.062    9939.1305 
  148800    285.83183    -21994.36    109.90934   -22104.269   -3703.3426 
  149000    294.41241    -21999.01    113.20878   -22112.219   -11878.965 
  149200    289.75566   -21994.153    111.41815   -22105.571    7492.5858 
  149400    338.29295   -21975.905    130.08192   -22105.987    11331.439 
  149600    304.88595   -21994.627    117.23612   -22111.863   -23672.935 
  149800    284.19018    -21999.64    109.27809   -22108.918    12831.119 
  150000    310.11321   -21968.317    119.24613   -22087.563    -13346.68 
  150200    315.57316    -21994.15    121.34561   -22115.496   -6679.2016 
  150400    264.09464    -22003.41    101.55086   -22104.961   -4106.5444 
  150600    327.92005   -21980.176    126.09329    -22106.27   -9682.7495 
  150800    306.36248   -22004.281    117.80388   -22122.085    8445.6985 
  151000     311.0624   -22004.677    119.61111   -22124.288   -12593.699 
  151200    333.66495   -21982.717    128.30235    -22111.02    4169.5378 
  151400    272.62921    -22019.12    104.83261   -22123.952   -8032.1484 
  151600      294.486   -21996.698    113.23708   -22109.935   -11467.707 
  151800    311.07949   -21989.707    119.61768   -22109.325    26274.728 
  152000    277.28139   -22019.177    106.62149   -22125.799   -7198.1004 
  152200    264.75323    -22002.56     101.8041   -22104.364    20188.547 
  152400    296.30914   -21993.167    113.93812   -22107.105   -14800.443 
  152600    333.52013   -21984.194    128.24666   -22112.441   -7987.2388 
  152800    272.15052   -22011.287    104.64854   -22115.936   -3604.1252 
  153000    338.44648   -21987.902    130.14096   -22118.043   -1666.5579 
  153200    316.89943   -21994.525    121.85559    -22116.38    15293.517 
  153400    287.78076   -22007.013    110.65875   -22117.672   -417.48686 
  153600    268.85893   -22006.887    103.38284    -22110.27    464.11608 
  153800    300.49915   -21984.933    115.54929   -22100.483   -6214.7931 
  154000    274.12285   -22011.456    105.40695   -22116.863   -6069.7533 
  154200    294.90035   -22007.779    113.39641   -22121.176    6238.6978 
  154400    313.79753    -21992.84    120.66284   -22113.503    582.13026 
  154600    287.35354   -21995.643    110.49447   -22106.137    11149.623 
  154800    280.21808   -21990.432    107.75072   -22098.183   -869.39229 
  155000    307.00989   -21986.345    118.05282   -22104.398    -695.9338 
  155200    295.79836   -22010.991    113.74171   -22124.733   -3411.0041 
  155400    329.90626   -21984.523    126.85704    -22111.38     132.2856 
  155600    291.40802   -21990.758    112.05352   -22102.812   -14399.279 
  155800    270.27748    -22012.09    103.92831   -22116.018    9389.7318 
  156000    285.51947    -22003.04    109.78923   -22112.829    23570.866 
  156200    318.25472   -21984.671    122.37674   -22107.048   -22627.285 
  156400    298.97299   -22010.537    114.96244   -22125.499    -21757.05 
  156600    288.64316   -21987.789    110.99037    -22098.78     13024.08 
  156800    289.96677   -21987.925    111.49933   -22099.424   -5374.4926 
  157000    277.13818   -22004.471    106.56642   -22111.038    7829.3443 
  157200    290.98485   -21982.516     111.8908   -22094.407   -3158.8839 
  157400    344.21895   -21969.624    132.36062   -22101.985    11355.859 
  157600    302.32931   -21994.521    116.25303   -22110.774   -25391.855 
  157800    281.07424   -22003.567    108.07993   -22111.647   -5342.1519 
  158000     338.2952   -21974.491    130.08279   -22104.574   -13691.753 
  158200    291.19081   -21996.735       111.97   -22108.705   -25004.709 
  158400    277.74671   -21994.587    106.80041   -22101.388    18884.601 
  158600    341.66687   -21954.753    131.37928   -22086.133   -17713.881 
  158800    353.04944   -21982.342    135.75616   -22118.098   -676.48558 
  159000    267.08306    -22008.65    102.69998   -22111.349    8603.9021 
  159200    290.18102   -21990.923    111.58171   -22102.505    7246.9158 
  159400    317.98532   -21982.557    122.27314    -22104.83   -11423.546 
  159600    292.76199   -21995.723    112.57416   -22108.297     7343.258 
  159800    284.30977   -21995.327    109.32407   -22104.651    14315.022 
  160000    315.30071   -21988.489    121.24085    -22109.73    3347.4465 
  160200    291.94712   -21972.757    112.26082   -22085.018     21572.77 
  160400    315.17095   -22000.972    121.19095   -22122.163    13956.677 
  160600    315.79715   -21994.848    121.43174    -22116.28    -5289.742 
  160800    347.77726   -21958.507    133.72888   -22092.236   -12438.057 
  161000    307.02752    -21984.57     118.0596    -22102.63    11694.722 
  161200    272.83986   -22001.367    104.91361   -22106.281    5221.1837 
  161400    314.45395   -21970.103    120.91525   -22091.018   -5907.4489 
  161600     292.8543   -21985.118    112.60965   -22097.728    -5533.155 
  161800    274.98705   -21994.585    105.73926   -22100.324    31407.796 
  162000    330.52212   -21962.597    127.09385   -22089.691   -15407.534 
  162200    328.65819   -21977.554    126.37713   -22103.931   -5965.1562 
  162400    271.90544   -21993.162     104.5543   -22097.716   -13365.544 
  162600    273.56829   -22001.849    105.19371   -22107.043   -1322.8172 
  162800    316.36953   -21984.687    121.65183   -22106.339    3836.5878 
  163000    335.75246    -21981.06    129.10504   -22110.165   -6058.2999 
  163200    296.80324   -22001.839    114.12812   -22115.967    2892.3268 
  163400    337.25812   -21987.219    129.68401   -22116.903    3525.6229 
  163600    340.68134   -21983.033    131.00032   -22114.033    12458.467 
  163800    292.70304   -22006.224    112.55149   -22118.776     15686.14 
  164000    302.38014   -21982.286    116.27257   -22098.559    12568.565 
  164200    337.16982   -21983.725    129.65006   -22113.375    31650.972 
  164400    289.80268   -21998.466    111.43623   -22109.903    7622.4132 
  164600    285.23356   -21993.158    109.67929   -22102.837   -18549.639 
  164800    322.44427   -21983.477    123.98772   -22107.464   -14913.644 
  165000    316.49885    -21987.89    121.70156   -22109.591   -4907.8956 
  165200    282.79636   -22005.506    108.74213   -22114.248   -787.38487 
  165400    313.70474   -21979.461    120.62716   -22100.088   -22667.401 
  165600    309.46411   -21992.352    118.99653   -22111.348    5479.6039 
  165800    281.03802   -22006.283      108.066   -22114.349   -3873.2229 
  166000    275.51458   -22014.829    105.94211   -22120.772    7811.3266 
  166200    332.42167   -21983.694    127.82428   -22111.518    9735.3373 
  166400    317.55431   -21993.664    122.10741   -22115.772     20542.25 
  166600    274.87757   -22009.333    105.69716   -22115.031   -29004.119 
  166800    297.49903   -21994.286    114.39566   -22108.682   -14496.666 
  167000    301.68305   -21988.151    116.00452   -22104.156   -10129.236 
  167200    318.28985   -21970.376    122.39025   -22092.766    6809.1698 
  167400    302.70427   -21997.347    116.39721   -22113.744    -19175.82 
  167600    301.16897   -21994.815    115.80685   -22110.622    16957.132 
  167800    320.94199   -21970.925    123.41006   -22094.335   -21096.984 
  168000    336.07732   -21981.334    129.22996   -22110.564   -12790.338 
  168200     286.1289   -21998.962    110.02357   -22108.985   -2820.9771 
  168400    299.31563     -22005.3    115.09419   -22120.395     18713.86 
  168600    337.33576   -21980.938    129.71386   -22110.652   -6088.4156 
  168800    294.87905     -21999.8    113.38822   -22113.188    -3721.868 
  169000    275.72835   -22018.061    106.02431   -22124.085    6731.9038 
  169200    287.28981   -21993.887    110.46997   -22104.357    4403.0526 
  169400    327.43924    -21981.56    125.90841   -22107.468   -17534.834 
  169600     294.9167   -22006.696    113.40269   -22120.099   -10168.056 
  169800     298.2283   -21992.657    114.67609   -22107.333   -3512.5049 
  170000    295.87564   -21984.823    113.77143   -22098.594   -14974.797 
  170200    306.82394   -21997.245    117.98132   -22115.226    3561.3363 
  170400     292.1273   -22002.532     112.3301   -22114.862    3595.4321 
  170600    276.91922    -21983.07    106.48222   -22089.552    3930.9131 
  170800    319.90164   -21991.432    123.01002   -22114.442   -1053.6462 
  171000    266.65805   -22009.782    102.53655   -22112.318    14734.561 
  171200    317.65705   -21981.021    122.14692   -22103.168   -20489.199 
  171400    304.48183   -21986.558    117.08072   -22103.639    17560.648 
  171600    272.48295   -22004.995    104.77637   -22109.772    2081.6864 
  171800    296.09388   -21972.498    113.85535   -22086.354    539.96262 
  172000    300.13775   -21986.326    115.41032   -22101.737   -858.05104 
  172200    289.14894   -22005.199    111.18485   -22116.384   -2960.9705 
  172400    299.05558   -21978.477     114.9942   -22093.471   -2569.4076 
  172600     282.6175   -21988.499    108.67335   -22097.173    4623.7798 
  172800    298.61219   -21996.428     114.8237   -22111.252   -3127.4211 
  173000     335.5556   -21992.788    129.02935   -22121.817   -16508.796 
  173200     309.1159    -21999.77    118.86264   -22118.633   -4595.2012 
  173400    308.98551   -21996.983     118.8125   -22115.795    -6149.775 
  173600    330.46548   -21980.753    127.07207   -22107.825    16819.339 
  173800    316.79368   -22001.856    121.81493    -22123.67    2300.4834 
  174000     296.0163   -21999.594    113.82552    -22113.42    11353.865 
  174200    348.77855   -21974.546     134.1139    -22108.66    10776.257 
  174400    281.72695   -21996.802    108.33091   -22105.133    12561.368 
  174600    284.33829   -21994.883    109.33504   -22104.218    3207.8605 
  174800    331.96734   -21966.431    127.64957    -22094.08   -12884.705 
  175000    300.89148   -21993.223    115.70014   -22108.923   -1114.8202 
  175200    289.79089   -21999.877     111.4317   -22111.309     14977.97 
  175400    306.37447   -22002.274    117.80849   -22120.083   -10468.706 
  175600    324.34709   -21985.076     124.7194   -22109.796   -24067.382 
  175800    321.11758   -21990.387    123.47757   -22113.865    8405.4062 
  176000    300.67401    -22006.91    115.61652   -22122.526    2009.2821 
  176200    312.80228   -21979.141    120.28014   -22099.421   -1466.5857 
  176400    292.55527   -21999.491    112.49467   -22111.986   -18190.596 
  176600    282.21548   -22007.801    108.51877    -22116.32   -16298.199 
  176800    324.78328   -21984.621    124.88713   -22109.508    5203.9051 
  177000    297.85125    -21995.28     114.5311   -22109.811    6241.0902 
  177200    295.11204   -22004.718    113.47781   -22118.196    -14926.49 
  177400    309.08318   -21983.577    118.85005   -22102.427    25506.447 
  177600    314.83984   -21986.907    121.06363   -22107.971   -1429.3402 
  177800    293.92684   -22001.712    113.02207   -22114.734   -14125.395 
  178000    285.91289   -21985.865    109.94051   -22095.805    16003.333 
  178200    293.90023   -22008.175    113.01184   -22121.186   -3945.6204 
  178400    296.89528   -21995.492    114.16351   -22109.656   -24391.214 
  178600     289.0054   -21986.303    111.12965   -22097.433   -19691.612 
  178800     295.8247   -22001.779    113.75184   -22115.531   -8808.0913 
  179000    283.56974   -21995.853    109.03951   -22104.892   -11060.104 
  179200    311.73645   -21988.882     119.8703   -22108.752   -13120.946 
[...]
  950000    320.96537   -22401.822    123.41905   -22525.241    13855.011 
  950200    325.33291   -22399.089    125.09847   -22524.187    -1227.986 
  950400    280.27522   -22407.519    107.77269   -22515.292   -680.67127 
  950600    274.06028   -22419.695    105.38289   -22525.078    -26226.41 
  950800    296.47873   -22394.777    114.00333   -22508.781    9703.6866 
  951000    303.14368   -22411.688    116.56617   -22528.254    19294.986 
  951200    270.41954   -22409.519    103.98294   -22513.502    15233.461 
  951400    313.10173   -22388.054    120.39528    -22508.45    38688.678 
  951600    284.62821   -22413.938    109.44652   -22523.384    4032.7845 
  951800    320.53881   -22403.935    123.25502    -22527.19    448.63292 
  952000    304.66726   -22395.311    117.15202   -22512.463   -3028.1641 
  952200    345.50658   -22373.169    132.85574   -22506.025    8483.2686 
  952400    318.51681   -22387.038    122.47752   -22509.516   -8698.9821 
  952600    284.71345   -22399.291     109.4793    -22508.77   -18658.869 
  952800    279.68653   -22399.373    107.54632    -22506.92    11564.685 
  953000    293.30762    -22414.18    112.78397   -22526.964   -12812.697 
  953200    291.04298   -22395.706    111.91315   -22507.619    18877.676 
  953400    328.14208   -22393.165    126.17867   -22519.343     2396.014 
  953600    281.49807   -22422.444     108.2429   -22530.687   -27505.213 
  953800    311.16681   -22403.905    119.65126   -22523.556    13515.766 
  954000    298.22967   -22387.386    114.67661   -22502.063     24266.25 
  954200    279.81711   -22420.843    107.59653    -22528.44    5088.3278 
  954400    319.50828   -22399.526    122.85876   -22522.385    11729.503 
  954600    305.29393   -22398.519    117.39299   -22515.912   -8342.1981 
  954800    290.54735   -22421.518    111.72257   -22533.241   -20290.688 
  955000    306.61474   -22396.502    117.90088   -22514.403   -6969.3204 
  955200     290.4502   -22402.651    111.68522   -22514.336    4803.5371 
  955400    258.44628     -22429.3    99.378924   -22528.679    -22760.08 
  955600    305.40535    -22411.95    117.43584   -22529.386   -2787.0336 
  955800    298.94485   -22398.808    114.95162   -22513.759     19336.84 
  956000    325.24764   -22385.607    125.06569   -22510.673   -17628.173 
  956200    305.83758    -22398.53    117.60204   -22516.132    5715.4648 
  956400    271.94645    -22413.07    104.57007    -22517.64    9366.3444 
  956600    298.42853    -22383.98    114.75308   -22498.733   -5066.2408 
  956800    298.19983   -22390.565    114.66514    -22505.23    -2832.168 
  957000    292.02958   -22413.428    112.29253   -22525.721   -3608.8711 
  957200    305.32511   -22395.509    117.40498   -22512.914   -25495.698 
  957400    298.00557   -22386.641    114.59044   -22501.231    11831.111 
  957600    291.57286    -22407.63    112.11691   -22519.747    8823.6118 
  957800    305.07862   -22399.027     117.3102   -22516.337    29774.793 
  958000    325.97958   -22387.766    125.34713   -22513.113   -13608.099 
  958200    303.48405   -22410.706    116.69705   -22527.403   -15.937084 
  958400     313.0853   -22405.706    120.38897   -22526.095   -5467.0439 
  958600    347.12748   -22381.506    133.47902   -22514.985   -11788.244 
  958800    295.45564   -22408.335    113.60993   -22521.945    19792.607 
  959000    298.82064   -22397.993    114.90386   -22512.897   -21729.851 
  959200    311.44045   -22392.334    119.75648   -22512.091    15354.411 
  959400      302.638   -22405.473    116.37173   -22521.845   -26315.709 
  959600    275.50628   -22417.367    105.93891   -22523.305   -3393.5263 
  959800    306.29421   -22385.519    117.77763   -22503.297   -4781.4288 
  960000    280.28496   -22409.712    107.77643   -22517.488     -1682.02 
  960200    311.88757   -22404.389    119.92841   -22524.318     15603.84 
  960400    316.85149   -22405.806    121.83716   -22527.643    14991.993 
  960600    294.28075    -22391.08    113.15816   -22504.238   -14234.792 
  960800    310.37406   -22392.202    119.34643   -22511.549   -4223.8859 
  961000    290.61948   -22410.982    111.75031   -22522.732   -3386.1755 
  961200     323.9456   -22389.761    124.56502   -22514.326   -32971.243 
  961400    326.14512   -22387.458    125.41079   -22512.869    21597.023 
  961600    276.61675   -22416.202    106.36592   -22522.568    11498.434 
  961800    314.55715   -22390.704    120.95493   -22511.659   -7164.8634 
  962000    310.09999   -22394.039    119.24104    -22513.28   -19246.394 
  962200    280.05963   -22403.092    107.68979   -22510.782     9770.922 
  962400    299.73218   -22410.015    115.25437   -22525.269   -20381.702 
  962600    285.25785   -22406.825    109.68863   -22516.514    4393.0182 
  962800    315.43625   -22384.661    121.29296   -22505.954    11279.336 
  963000    290.88309   -22413.697    111.85167   -22525.549    30043.458 
  963200    296.01613   -22404.849    113.82545   -22518.675    10181.555 
  963400    290.29528   -22381.058    111.62565   -22492.684   -21632.061 
  963600    278.96899   -22415.211    107.27041   -22522.482    7911.8997 
  963800    302.17382   -22394.723    116.19324   -22510.916    2176.2155 
  964000    304.43549   -22401.817     117.0629    -22518.88    9723.6814 
  964200     277.1713   -22415.173    106.57915   -22521.752   -4752.6332 
  964400    296.23179   -22397.386    113.90838   -22511.294    15058.168 
  964600    294.51044   -22397.506    113.24648   -22510.753    -13506.83 
  964800     235.9107   -22410.848    90.713444   -22501.561    8619.7004 
  965000    308.13557    -22398.29    118.48567   -22516.775   -4973.7513 
  965200    292.66682   -22388.248    112.53756   -22500.786   -26111.472 
  965400    276.77627   -22419.031    106.42726   -22525.458   -17648.711 
  965600    314.52854   -22399.092    120.94393   -22520.036    6894.8886 
  965800    311.39885   -22400.668    119.74048   -22520.408   -9616.2336 
  966000    262.70121   -22422.034    101.01505    -22523.05    1701.5886 
  966200    297.62893   -22393.875    114.44561   -22508.321   -29628.879 
  966400    305.39454    -22397.63    117.43168   -22515.062   -17186.011 
  966600    245.69232   -22414.099    94.474714   -22508.574   -24527.637 
  966800    331.71063   -22387.633    127.55086   -22515.184   -9382.9662 
  967000     302.4054   -22406.386    116.28228   -22522.668   -4934.5854 
  967200    290.53988   -22404.958     111.7197   -22516.678     4252.387 
  967400    304.92338   -22388.797    117.25051   -22506.047      -9243.3 
  967600    324.84008   -22397.345    124.90897   -22522.254   -5169.4189 
  967800    274.49904   -22415.281    105.55161   -22520.833    3017.0256 
  968000    329.91737   -22387.362    126.86131   -22514.223    5553.9791 
  968200    291.55362   -22400.164    112.10951   -22512.273    -10454.93 
  968400    271.13771   -22413.999    104.25909   -22518.258   -10481.201 
  968600    324.54421   -22389.164     124.7952   -22513.959    5604.2978 
  968800    357.18566   -22394.143    137.34664    -22531.49   -28078.688 
  969000    285.57288   -22410.934    109.80977   -22520.743     2450.998 
  969200    289.65893   -22404.463    111.38095   -22515.844    8129.3837 
  969400    257.12459   -22398.603    98.870705   -22497.473    8601.3703 
  969600    308.74775   -22389.282    118.72107   -22508.003    24375.132 
  969800    301.15911   -22400.941    115.80306   -22516.744    29014.542 
  970000    288.58617    -22416.83    110.96845   -22527.799   -24087.236 
  970200    331.22469   -22383.697    127.36401   -22511.061    21164.401 
  970400    282.14086    -22397.79    108.49007    -22506.28   -16008.403 
  970600    276.61125   -22414.618     106.3638   -22520.982   -4658.5113 
  970800    323.55477   -22390.432    124.41474   -22514.847   -16017.986 
  971000    305.39682    -22394.99    117.43256   -22512.422   -2067.2799 
  971200    276.80163   -22406.867    106.43701   -22513.304    -1215.268 
  971400    308.43749   -22375.505    118.60177   -22494.107    8513.0315 
  971600    325.89708   -22387.448    125.31541   -22512.764    4398.1951 
  971800    279.57976   -22399.581    107.50527   -22507.086    13066.004 
  972000    316.59105   -22397.876    121.73701   -22519.613    3176.5563 
  972200    288.06096    -22413.83     110.7665   -22524.597    24781.194 
  972400    308.18865   -22404.344    118.50609    -22522.85   -19381.266 
  972600    325.27517   -22391.349    125.07627   -22516.425    5531.6771 
  972800    331.98501     -22405.1    127.65637   -22532.756    13682.529 
  973000    298.12691    -22415.06     114.6371   -22529.698   -15102.724 
  973200    277.70045   -22405.456    106.78263   -22512.239   -4101.6091 
  973400    328.10936   -22399.863    126.16609   -22526.029   -14009.689 
  973600    263.57011   -22411.955    101.34917   -22513.304   -12121.913 
  973800     304.7911   -22400.514    117.19964   -22517.714    11689.723 
  974000    276.10672   -22388.787     106.1698   -22494.957    6014.4406 
  974200    307.93939   -22404.365    118.41024   -22522.776    20785.873 
  974400    294.77323   -22398.759    113.34753   -22512.107   -3325.6568 
  974600    334.34258   -22381.594    128.56291   -22510.157   -19456.824 
  974800    299.83922   -22406.967    115.29553   -22522.262   -11336.362 
  975000    281.90427   -22413.566     108.3991   -22521.965    39361.257 
  975200    353.41441   -22386.903     135.8965     -22522.8    -10523.37 
  975400    296.41197   -22404.859    113.97766   -22518.837    6258.4389 
  975600    285.14708   -22416.029    109.64604   -22525.675   -11161.605 
  975800    275.87647    -22411.93    106.08126   -22518.011    32965.018 
  976000    302.09737   -22390.769    116.16384   -22506.933    5893.6999 
  976200    267.73375   -22414.137    102.95019   -22517.087    9090.4164 
  976400    282.41409   -22398.388    108.59513   -22506.984   -23870.888 
  976600    316.08555   -22391.303    121.54264   -22512.846   -17549.708 
  976800    273.16089   -22419.026    105.03705   -22524.063   -2491.7792 
  977000     283.4896   -22419.309    109.00869   -22528.318   -9474.9067 
  977200    330.93484   -22385.298    127.25255   -22512.551    4106.5393 
  977400    301.35823   -22403.356    115.87962   -22519.236    3334.8211 
  977600    286.24685   -22415.305    110.06893   -22525.374    4138.5354 
  977800    295.18084   -22404.036    113.50426    -22517.54    8036.8089 
  978000     319.5023   -22402.547    122.85646   -22525.403    19935.637 
  978200    271.59607   -22418.991    104.43534   -22523.427    27571.086 
  978400    284.61425   -22406.534    109.44115   -22515.975   -44.510291 
  978600    332.46692   -22393.529    127.84167    -22521.37    7838.1111 
  978800    293.71395   -22421.475    112.94021   -22534.416   -32940.882 
  979000    279.47705   -22411.079    107.46577   -22518.545    13295.871 
  979200    317.18115   -22392.162    121.96392   -22514.126    29673.272 
  979400    293.50331   -22403.383    112.85921   -22516.243    9817.7571 
  979600    277.75194   -22420.342    106.80243   -22527.145    6390.0657 
  979800    283.19854    -22399.89    108.89678   -22508.786     -30597.7 
  980000    331.00167   -22396.243    127.27825   -22523.522   -6868.7291 
  980200     276.0022   -22419.353    106.12961   -22525.482   -5914.4498 
  980400    308.99432   -22410.283    118.81589   -22529.099   -20285.701 
  980600     315.5561   -22395.086    121.33905   -22516.425    8420.7984 
  980800    272.97876   -22412.592    104.96702   -22517.559   -1046.9991 
  981000    271.06069   -22433.153    104.22948   -22537.382     15371.57 
  981200    278.23469    -22397.57    106.98805   -22504.558   -37558.926 
  981400    310.79507   -22392.025    119.50832   -22511.533   -13007.089 
  981600    298.14607   -22420.839    114.64447   -22535.484    15733.881 
  981800    317.95359   -22400.679    122.26094    -22522.94    5378.7889 
  982000    294.48084   -22400.599     113.2351   -22513.834    9921.8696 
  982200    279.02481   -22427.116    107.29187   -22534.408    7563.9167 
  982400    314.62706   -22401.802    120.98181   -22522.784     5649.993 
  982600    310.81406   -22399.251    119.51562   -22518.767   -22074.524 
  982800    271.94447    -22422.43    104.56931   -22526.999    25162.102 
  983000    307.61624   -22404.329    118.28598   -22522.615    3216.3658 
  983200    315.90319   -22397.422    121.47251   -22518.895   -7551.4424 
  983400    290.22319   -22419.815    111.59793   -22531.412    12188.632 
  983600    292.21658   -22390.991    112.36443   -22503.356    25547.809 
  983800    276.39187    -22392.73    106.27944   -22499.009     14274.86 
  984000     269.0877   -22413.831    103.47081   -22517.301    -3723.518 
  984200    333.63276   -22386.485    128.28997   -22514.775    19461.204 
  984400    272.13928   -22401.938    104.64422   -22506.583   -13089.358 
  984600    268.65037   -22407.408    103.30265   -22510.711   -4699.1901 
  984800     329.9333   -22380.523    126.86743    -22507.39    8017.7745 
  985000    310.59877    -22402.91    119.43284   -22522.343   -10908.524 
  985200    271.94862   -22407.701    104.57091   -22512.271    14923.193 
  985400    325.66452   -22386.248    125.22599   -22511.474   -15473.679 
  985600    298.63943   -22407.956    114.83418    -22522.79   -16860.084 
  985800    318.56038   -22402.673    122.49427   -22525.168   -16253.604 
  986000    309.25888   -22395.866    118.91762   -22514.784    33532.738 
  986200    263.59658   -22432.601    101.35934    -22533.96    15478.757 
  986400    283.87405   -22409.682    109.15653   -22518.839    14147.638 
  986600    312.36266   -22390.472    120.11109   -22510.583   -18849.225 
  986800     314.7281   -22404.984    121.02067   -22526.005   -1713.4357 
  987000     316.2404   -22409.778    121.60218   -22531.381     9357.693 
  987200    318.00119   -22389.945    122.27925   -22512.224   -15421.926 
  987400    326.92265   -22390.353    125.70977   -22516.063    38020.377 
  987600    274.95858   -22411.833    105.72831   -22517.561     2459.646 
  987800    319.49595   -22385.619    122.85402   -22508.473   -28230.952 
  988000    309.06862   -22401.148    118.84445   -22519.993    35848.657 
  988200    269.27665   -22401.779    103.54347   -22505.322   -6959.2734 
  988400    263.11306   -22411.668    101.17342   -22512.842    2953.8971 
  988600    308.20487   -22397.023    118.51232   -22515.535    5418.5058 
  988800    281.29589   -22403.144    108.16516   -22511.309   -21105.519 
  989000    303.14764    -22414.64    116.56769   -22531.207   -16786.759 
  989200    360.78174   -22372.934    138.72942   -22511.664    12921.129 
  989400    315.68553    -22389.52    121.38882   -22510.909   -22537.298 
  989600    282.07408   -22413.828     108.4644   -22522.293     19205.58 
  989800    304.97184   -22400.035    117.26914   -22517.304    5.4483619 
  990000    336.87254   -22390.755    129.53575    -22520.29    -15297.51 
  990200    305.24098   -22408.739    117.37264   -22526.112   -26222.289 
  990400    353.72871   -22385.121    136.01735   -22521.138    12188.698 
  990600    318.01073   -22395.327    122.28292    -22517.61    -20042.72 
  990800     307.8682   -22409.476    118.38287   -22527.859   -22678.747 
  991000    332.13939   -22385.969    127.71573   -22513.685   -6460.6499 
  991200    275.20019   -22406.354    105.82121   -22512.175    12698.688 
  991400    303.19943   -22406.673    116.58761    -22523.26    2188.3549 
  991600     309.6239   -22393.804    119.05797   -22512.862    3558.2284 
  991800    296.83005   -22418.793    114.13843   -22532.931     -2582.59 
  992000    312.05794   -22400.571    119.99392   -22520.565   -1677.6512 
  992200    294.82465   -22398.011     113.3673   -22511.379    3400.7106 
  992400    276.21006   -22419.266    106.20953   -22525.475   -23617.905 
  992600    325.81156   -22390.633    125.28252   -22515.915   -2326.3869 
  992800    285.43901   -22400.331    109.75829   -22510.089    25378.176 
  993000    292.15807   -22412.471    112.34194   -22524.813    18156.124 
  993200    326.00035    -22381.11    125.35512   -22506.466   -3596.7868 
  993400    306.82007    -22407.52    117.97983     -22525.5   -1383.4505 
  993600       307.59   -22403.169    118.27589   -22521.445   -11370.832 
  993800     312.0337   -22377.564     119.9846   -22497.549    17784.603 
  994000    317.36249    -22402.12    122.03365   -22524.154   -12983.118 
  994200    324.64736   -22399.154    124.83486   -22523.989    2041.9945 
  994400    345.92391   -22368.338    133.01622   -22501.355    4264.1407 
  994600    300.77603   -22392.361    115.65575   -22508.017    8212.9969 
  994800    296.27986   -22410.574    113.92687   -22524.501    6553.8345 
  995000     329.2789   -22379.006     126.6158   -22505.622   -17301.468 
  995200    322.18086   -22392.162    123.88643   -22516.048   -5703.9869 
  995400    276.89719   -22410.601    106.47375   -22517.074   -7323.7465 
  995600    315.80353   -22397.302    121.43419   -22518.736    6401.3833 
  995800    316.25483   -22387.652    121.60773    -22509.26   -29995.417 
  996000    303.16063   -22407.973    116.57269   -22524.545     26986.47 
  996200    265.20472   -22406.962    101.97771    -22508.94    29309.553 
  996400    292.83006   -22390.641    112.60033   -22503.241   -2065.0986 
  996600    300.00245   -22411.701    115.35829    -22527.06    61333.925 
  996800    311.28354   -22407.773    119.69615    -22527.47    5039.1954 
  997000    315.32823   -22402.327    121.25143   -22523.579   -12863.302 
  997200    306.47569   -22409.943    117.84741   -22527.791    23057.857 
  997400    283.87069   -22432.718    109.15524   -22541.873    1783.8788 
  997600    301.58016   -22409.482    115.96496   -22525.447    5020.2381 
  997800    301.72236   -22394.265    116.01964   -22510.285    5479.9358 
  998000    268.60896   -22411.225    103.28673   -22514.512     6356.264 
  998200    300.16291   -22417.023    115.41999   -22532.443   -29336.205 
  998400    296.15385   -22395.447    113.87841   -22509.325   -21511.425 
  998600    304.84555   -22403.332    117.22058   -22520.553     5772.408 
  998800    286.81398   -22414.963      110.287    -22525.25    12890.902 
  999000    298.10399   -22405.948    114.62829   -22520.577   -747.80129 
  999200    313.10476   -22391.045    120.39645   -22511.441   -5790.3152 
  999400     266.8407   -22422.562    102.60679   -22525.169    4294.1656 
  999600    275.65851   -22399.658    105.99745   -22505.655    5568.0062 
  999800    299.67604   -22402.984    115.23278   -22518.217   -26107.353 
 1000000    272.64163   -22411.407    104.83738   -22516.244    19869.384 
Loop time of 4941.5 on 8 procs for 1000000 steps with 130 atoms

Performance: 4.371 ns/day, 5.491 hours/ns, 202.368 timesteps/s
97.1% CPU use with 8 MPI tasks x no OpenMP threads

MPI task timing breakdown:
Section |  min time  |  avg time  |  max time  |%varavg| %total
---------------------------------------------------------------
Pair    | 2725.6     | 3018.8     | 3214.5     | 295.2 | 61.09
Neigh   | 0.65306    | 0.67685    | 0.71252    |   2.8 |  0.01
Comm    | 73.437     | 270.28     | 562.68     | 983.3 |  5.47
Output  | 0.27352    | 0.28792    | 0.3097     |   2.3 |  0.01
Modify  | 1637.5     | 1639.9     | 1642.7     |   4.7 | 33.19
Other   |            | 11.61      |            |       |  0.23

Nlocal:    16.25 ave 39 max 3 min
Histogram: 2 1 3 0 0 0 0 0 0 2
Nghost:    537.25 ave 560 max 503 min
Histogram: 2 0 0 0 0 2 0 0 3 1
Neighs:    1056.5 ave 2293 max 234 min
Histogram: 2 0 1 3 0 0 0 0 0 2

Total # of neighbors = 8452
Ave neighs/atom = 65.0154
Neighbor list builds = 1202
Dangerous builds = 0

Please see the log.cite file for references relevant to this simulation

Total wall time: 1:22:34
