ITEM: TIMESTEP
0
ITEM: NUMBER OF ATOMS
97
ITEM: BOX BOUNDS pp pp pp
0.0000000000000000e+00 1.6524999999999999e+01
0.0000000000000000e+00 1.6526000000000000e+01
0.0000000000000000e+00 1.6526000000000000e+01
ITEM: ATOMS id type x y z 
1 1 1.813 1.813 1.813 
10 1 5.821 5.821 5.821 
17 1 3.388 3.388 3.388 
26 1 4.246 4.246 4.246 
33 1 0.284 2 2 
41 1 2 0.284 2 
49 1 2 2 0.283 
58 1 7.351 5.634 5.634 
66 1 5.634 7.351 5.634 
74 1 5.634 5.634 7.351 
81 1 2.689 2.689 2.689 
90 1 4.945 4.945 4.945 
4 1 1.813 1.813 14.084 
11 1 5.821 5.821 10.076 
20 1 3.388 3.388 12.509 
27 1 4.246 4.246 11.651 
36 1 0.284 2 13.897 
46 1 2 0.284 13.897 
56 1 2 2 15.614 
59 1 7.351 5.634 10.263 
69 1 5.634 7.351 10.263 
79 1 5.634 5.634 8.546 
84 1 2.689 2.689 13.208 
91 1 4.945 4.945 10.952 
6 1 1.813 14.084 1.813 
13 1 5.821 10.076 5.821 
22 1 3.388 12.509 3.388 
29 1 4.246 11.651 4.246 
38 1 0.284 13.897 2 
48 1 2 15.614 2 
52 1 2 13.897 0.283 
61 1 7.351 10.263 5.634 
71 1 5.634 8.546 5.634 
75 1 5.634 10.263 7.351 
86 1 2.689 13.208 2.689 
93 1 4.945 10.952 4.945 
7 1 1.813 14.084 14.084 
16 1 5.821 10.076 10.076 
23 1 3.388 12.509 12.509 
32 1 4.246 11.651 11.651 
39 1 0.284 13.897 13.897 
43 1 2 15.614 13.897 
53 1 2 13.897 15.614 
64 1 7.351 10.263 10.263 
68 1 5.634 8.547 10.263 
78 1 5.634 10.263 8.546 
87 1 2.689 13.208 13.208 
96 1 4.945 10.952 10.952 
97 2 2 15.614 12.547 
8 1 14.084 1.813 1.813 
15 1 10.076 5.821 5.821 
24 1 12.509 3.388 3.388 
31 1 11.651 4.246 4.246 
40 1 15.613 2 2 
44 1 13.897 0.284 2 
54 1 13.897 2 0.283 
63 1 8.547 5.634 5.634 
67 1 10.263 7.351 5.634 
77 1 10.263 5.634 7.351 
88 1 13.208 2.689 2.689 
95 1 10.952 4.945 4.945 
5 1 14.084 1.813 14.084 
14 1 10.076 5.821 10.076 
21 1 12.509 3.388 12.509 
30 1 11.651 4.246 11.651 
37 1 15.613 2 13.897 
47 1 13.897 0.284 13.897 
51 1 13.897 2 15.614 
62 1 8.546 5.634 10.263 
72 1 10.263 7.351 10.263 
76 1 10.263 5.634 8.546 
85 1 13.208 2.689 13.208 
94 1 10.952 4.945 10.952 
3 1 14.084 14.084 1.813 
12 1 10.076 10.076 5.821 
19 1 12.509 12.509 3.388 
28 1 11.651 11.651 4.246 
35 1 15.613 13.897 2 
45 1 13.897 15.614 2 
55 1 13.897 13.897 0.283 
60 1 8.547 10.263 5.634 
70 1 10.263 8.547 5.634 
80 1 10.263 10.263 7.351 
83 1 13.208 13.208 2.689 
92 1 10.952 10.952 4.945 
2 1 14.084 14.084 14.084 
9 1 10.076 10.076 10.076 
18 1 12.509 12.509 12.509 
25 1 11.651 11.651 11.651 
34 1 15.613 13.897 13.897 
42 1 13.897 15.614 13.897 
50 1 13.897 13.897 15.614 
57 1 8.546 10.263 10.263 
65 1 10.263 8.546 10.263 
73 1 10.263 10.263 8.547 
82 1 13.208 13.208 13.208 
89 1 10.952 10.952 10.952 
ITEM: TIMESTEP
10
ITEM: NUMBER OF ATOMS
97
ITEM: BOX BOUNDS pp pp pp
0.0000000000000000e+00 1.6524999999999999e+01
0.0000000000000000e+00 1.6526000000000000e+01
0.0000000000000000e+00 1.6526000000000000e+01
ITEM: ATOMS id type x y z 
1 1 1.81462 1.81447 1.81757 
10 1 5.81971 5.81966 5.81965 
17 1 3.39197 3.39194 3.39179 
26 1 4.24197 4.24191 4.24189 
33 1 0.282414 2.0038 2.00391 
41 1 2.0036 0.277599 2.00415 
49 1 2.00388 2.00479 0.289981 
58 1 7.35385 5.63019 5.63021 
66 1 5.6302 7.35494 5.63018 
74 1 5.63021 5.63017 7.35416 
81 1 2.69388 2.69394 2.69429 
90 1 4.93971 4.9398 4.93983 
4 1 1.8147 1.81034 14.0976 
11 1 5.82058 5.82101 10.0769 
20 1 3.39239 3.39382 12.5035 
27 1 4.24569 4.24553 11.6513 
36 1 0.27421 2.00731 13.8928 
46 1 1.99671 0.332704 13.8052 
56 1 2.00508 2.00655 15.6268 
59 1 7.35322 5.63021 10.2667 
69 1 5.63024 7.35355 10.2667 
79 1 5.63027 5.63025 8.54271 
84 1 2.6966 2.70084 13.1988 
91 1 4.94274 4.94289 10.9545 
6 1 1.81202 14.0855 1.80463 
13 1 5.82006 10.0771 5.82038 
22 1 3.39087 12.5061 3.39119 
29 1 4.24198 11.655 4.24193 
38 1 0.285293 13.8953 2.00303 
48 1 2.00159 15.6111 2.00294 
52 1 2.00407 13.8983 0.273684 
61 1 7.35308 10.2666 5.63032 
71 1 5.63039 8.54288 5.63032 
75 1 5.63037 10.2666 7.3541 
86 1 2.69399 13.2031 2.69368 
93 1 4.9396 10.9574 4.9397 
7 1 1.79336 13.9809 14.1326 
16 1 5.82009 10.0774 10.077 
23 1 3.38113 12.5178 12.5159 
32 1 4.23891 11.6581 11.6579 
39 1 0.303208 13.8914 13.9035 
43 1 2.01406 15.5317 13.8958 
53 1 1.99622 13.8914 15.5963 
64 1 7.35248 10.2665 10.2665 
68 1 5.6304 8.54525 10.2665 
78 1 5.63046 10.2665 8.54362 
87 1 2.67849 13.1995 13.2246 
96 1 4.93476 10.9624 10.9622 
97 2 2.00834 15.7094 12.5475 
8 1 14.0825 1.81393 1.81378 
15 1 10.0774 5.82029 5.82006 
24 1 12.5051 3.39199 3.39203 
31 1 11.6548 4.24221 4.24224 
40 1 15.6145 2.00377 2.00371 
44 1 13.8933 0.281304 2.00371 
54 1 13.8934 2.00373 0.281078 
63 1 8.54475 5.63037 5.63037 
67 1 10.2666 7.35252 5.63037 
77 1 10.2666 5.63037 7.35283 
88 1 13.2027 2.6942 2.69414 
95 1 10.957 4.94003 4.93996 
5 1 14.0788 1.81401 14.0828 
14 1 10.0772 5.81996 10.0769 
21 1 12.5056 3.39164 12.5053 
30 1 11.6551 4.24196 11.655 
37 1 15.6129 2.00456 13.8929 
47 1 13.8931 0.278662 13.8936 
51 1 13.8933 2.00357 15.615 
62 1 8.54446 5.63036 10.2666 
72 1 10.2666 7.35276 10.2666 
76 1 10.2666 5.63037 8.54437 
85 1 13.2028 2.6937 13.2034 
94 1 10.9572 4.93977 10.9573 
3 1 14.083 14.0823 1.81361 
12 1 10.0775 10.0772 5.8202 
19 1 12.5056 12.5055 3.39147 
28 1 11.6551 11.655 4.24191 
35 1 15.6173 13.8937 2.00382 
45 1 13.8935 15.6152 2.00349 
55 1 13.8932 13.8938 0.278893 
60 1 8.54439 10.2667 5.63034 
70 1 10.2667 8.5449 5.63034 
80 1 10.2666 10.2666 7.35318 
83 1 13.2032 13.2032 2.69367 
92 1 10.9573 10.9573 4.9398 
2 1 14.0925 14.0854 14.0855 
9 1 10.0767 10.0769 10.077 
18 1 12.5063 12.5065 12.5065 
25 1 11.6552 11.6551 11.6551 
34 1 15.6306 13.8987 13.8926 
42 1 13.8944 15.6102 13.8955 
50 1 13.8944 13.8954 15.611 
57 1 8.54408 10.2665 10.2665 
65 1 10.2666 8.54457 10.2666 
73 1 10.2666 10.2666 8.54488 
82 1 13.204 13.2035 13.2035 
89 1 10.9573 10.9575 10.9575 
ITEM: TIMESTEP
20
ITEM: NUMBER OF ATOMS
97
ITEM: BOX BOUNDS pp pp pp
0.0000000000000000e+00 1.6524999999999999e+01
0.0000000000000000e+00 1.6526000000000000e+01
0.0000000000000000e+00 1.6526000000000000e+01
ITEM: ATOMS id type x y z 
1 1 1.81694 1.814 1.82733 
10 1 5.81753 5.82048 5.81768 
17 1 3.39352 3.39415 3.39226 
26 1 4.24263 4.24262 4.24262 
33 1 0.279405 2.00939 2.01117 
41 1 2.00809 0.278777 2.01209 
49 1 2.01118 2.01249 0.293413 
58 1 7.35634 5.62527 5.62541 
66 1 5.62565 7.35225 5.62536 
74 1 5.6255 5.625 7.35235 
81 1 2.69473 2.69342 2.69821 
90 1 4.94041 4.94037 4.93996 
4 1 1.80791 1.80189 14.1007 
11 1 5.82083 5.82244 10.0759 
20 1 3.39448 3.39847 12.5008 
27 1 4.24757 4.24736 11.6482 
36 1 0.27945 2.01429 13.8944 
46 1 1.98804 0.312659 13.6835 
56 1 2.00861 2.0102 15.6278 
59 1 7.35316 5.62516 10.272 
69 1 5.62516 7.35838 10.2719 
79 1 5.62504 5.62514 8.54046 
84 1 2.69298 2.71324 13.2031 
91 1 4.94578 4.94606 10.9526 
6 1 1.81742 14.079 1.80857 
13 1 5.81895 10.0801 5.81945 
22 1 3.39155 12.5055 3.39329 
29 1 4.24247 11.6542 4.24254 
38 1 0.279471 13.8896 2.00746 
48 1 2.00773 15.6147 2.00724 
52 1 2.01164 13.8998 0.287262 
61 1 7.35336 10.2715 5.62526 
71 1 5.62525 8.54181 5.62536 
75 1 5.62531 10.2714 7.3571 
86 1 2.69562 13.2012 2.69233 
93 1 4.94023 10.9575 4.94048 
7 1 1.79102 13.9485 14.1398 
16 1 5.81741 10.081 10.0797 
23 1 3.38743 12.514 12.5101 
32 1 4.23907 11.6594 11.6574 
39 1 0.291728 13.8664 13.9033 
43 1 2.03059 15.4986 13.9297 
53 1 2.0018 13.8656 15.6151 
64 1 7.3508 10.2709 10.2709 
68 1 5.62587 8.54836 10.2711 
78 1 5.62599 10.2709 8.54598 
87 1 2.67381 13.1718 13.2333 
96 1 4.93545 10.9625 10.9613 
97 2 2.01993 15.8253 12.546 
8 1 14.0792 1.81388 1.81407 
15 1 10.0762 5.82135 5.82131 
24 1 12.5046 3.39192 3.39208 
31 1 11.6538 4.24234 4.24236 
40 1 15.6123 2.00922 2.00845 
44 1 13.8884 0.282063 2.00876 
54 1 13.8889 2.00904 0.282529 
63 1 8.54613 5.62613 5.62615 
67 1 10.2708 7.35144 5.62589 
77 1 10.2709 5.62599 7.35057 
88 1 13.2026 2.69502 2.69473 
95 1 10.9584 4.94051 4.94042 
5 1 14.0758 1.81392 14.0794 
14 1 10.0808 5.81844 10.0798 
21 1 12.5058 3.39281 12.5048 
30 1 11.6554 4.24133 11.6553 
37 1 15.6164 2.01145 13.8875 
47 1 13.8863 0.277709 13.8898 
51 1 13.8871 2.00858 15.616 
62 1 8.54595 5.62473 10.2719 
72 1 10.2719 7.35238 10.2719 
76 1 10.2718 5.62473 8.53978 
85 1 13.2005 2.69231 13.2033 
94 1 10.9581 4.9399 10.9578 
3 1 14.0814 14.0785 1.81464 
12 1 10.079 10.0802 5.8195 
19 1 12.5054 12.5058 3.39196 
28 1 11.6553 11.6552 4.24119 
35 1 15.6146 13.8895 2.00972 
45 1 13.8884 15.6163 2.00852 
55 1 13.8873 13.8896 0.27828 
60 1 8.54369 10.2715 5.62511 
70 1 10.2718 8.54012 5.62497 
80 1 10.2718 10.2717 7.35286 
83 1 13.2032 13.2021 2.69288 
92 1 10.9582 10.9583 4.94018 
2 1 14.095 14.0808 14.0807 
9 1 10.0789 10.0797 10.0793 
18 1 12.5054 12.5072 12.5071 
25 1 11.6556 11.6558 11.6559 
34 1 15.6235 13.9016 13.8862 
42 1 13.8918 15.6126 13.8904 
50 1 13.8914 13.8906 15.6131 
57 1 8.53893 10.2716 10.2718 
65 1 10.2716 8.54433 10.2721 
73 1 10.2717 10.272 8.54305 
82 1 13.2069 13.2023 13.2024 
89 1 10.9582 10.9583 10.9582 
ITEM: TIMESTEP
30
ITEM: NUMBER OF ATOMS
97
ITEM: BOX BOUNDS pp pp pp
0.0000000000000000e+00 1.6524999999999999e+01
0.0000000000000000e+00 1.6526000000000000e+01
0.0000000000000000e+00 1.6526000000000000e+01
ITEM: ATOMS id type x y z 
1 1 1.81503 1.81587 1.82452 
10 1 5.81973 5.81618 5.81696 
17 1 3.394 3.39353 3.39253 
26 1 4.2433 4.24257 4.24284 
33 1 0.280991 2.011 2.01373 
41 1 2.01019 0.279168 2.01473 
49 1 2.01311 2.01413 0.289016 
58 1 7.35258 5.6235 5.62314 
66 1 5.62316 7.35514 5.62284 
74 1 5.62296 5.62286 7.35039 
81 1 2.69371 2.69424 2.69849 
90 1 4.94041 4.94172 4.94026 
4 1 1.80661 1.80952 14.0951 
11 1 5.82078 5.82474 10.0764 
20 1 3.3897 3.39585 12.5056 
27 1 4.24748 4.24711 11.6491 
36 1 0.285853 2.0136 13.8964 
46 1 1.98264 0.311331 13.6579 
56 1 2.00834 2.00698 15.6235 
59 1 7.35546 5.62318 10.2738 
69 1 5.62344 7.35532 10.2736 
79 1 5.62329 5.6231 8.54265 
84 1 2.68842 2.71513 13.2088 
91 1 4.94394 4.94469 10.9526 
6 1 1.81646 14.0799 1.811 
13 1 5.81807 10.0767 5.81967 
22 1 3.39238 12.5047 3.39317 
29 1 4.24313 11.6539 4.24324 
38 1 0.280985 13.8875 2.00965 
48 1 2.01003 15.6148 2.00973 
52 1 2.01401 13.8969 0.305712 
61 1 7.35265 10.2735 5.62359 
71 1 5.62375 8.54735 5.62386 
75 1 5.62381 10.2733 7.35371 
86 1 2.696 13.2007 2.69376 
93 1 4.94063 10.9566 4.94119 
7 1 1.79085 13.9425 14.13 
16 1 5.815 10.0838 10.0818 
23 1 3.39396 12.5071 12.503 
32 1 4.24014 11.6594 11.6565 
39 1 0.281121 13.8571 13.8981 
43 1 2.04048 15.5166 13.9423 
53 1 2.00908 13.8548 15.6366 
64 1 7.35385 10.2736 10.2737 
68 1 5.62313 8.54732 10.2739 
78 1 5.62329 10.2735 8.54485 
87 1 2.67847 13.1585 13.2279 
96 1 4.93816 10.9607 10.9585 
97 2 2.02428 15.8502 12.5387 
8 1 14.0782 1.81657 1.81633 
15 1 10.08 5.81813 5.81756 
24 1 12.5053 3.39195 3.39187 
31 1 11.6544 4.24261 4.24274 
40 1 15.6147 2.01165 2.01077 
44 1 13.8858 0.27902 2.01106 
54 1 13.8861 2.01124 0.278946 
63 1 8.54395 5.62342 5.62369 
67 1 10.2735 7.35498 5.62326 
77 1 10.2734 5.62325 7.35441 
88 1 13.2022 2.69379 2.69377 
95 1 10.9568 4.94063 4.94045 
5 1 14.0778 1.81285 14.0812 
14 1 10.0805 5.81722 10.0768 
21 1 12.5055 3.39182 12.5055 
30 1 11.6551 4.24224 11.6554 
37 1 15.6219 2.01409 13.8873 
47 1 13.8848 0.282104 13.8877 
51 1 13.8856 2.0105 15.6131 
62 1 8.54687 5.62297 10.274 
72 1 10.2739 7.3546 10.2739 
76 1 10.2737 5.62332 8.54583 
85 1 13.2018 2.69255 13.2031 
94 1 10.958 4.93938 10.9566 
3 1 14.0784 14.0812 1.81337 
12 1 10.0798 10.0772 5.81703 
19 1 12.5055 12.5052 3.39145 
28 1 11.6551 11.655 4.24225 
35 1 15.6142 13.8871 2.01165 
45 1 13.8868 15.6135 2.01048 
55 1 13.8856 13.8875 0.281267 
60 1 8.54459 10.2736 5.62334 
70 1 10.2735 8.5458 5.62346 
80 1 10.2738 10.2739 7.35477 
83 1 13.2029 13.2028 2.69358 
92 1 10.9572 10.9575 4.93972 
2 1 14.0892 14.0795 14.0781 
9 1 10.0763 10.0783 10.0778 
18 1 12.5051 12.5068 12.5071 
25 1 11.6551 11.6548 11.6549 
34 1 15.6125 13.8983 13.8835 
42 1 13.8892 15.6155 13.8875 
50 1 13.8892 13.8877 15.6156 
57 1 8.54473 10.2727 10.273 
65 1 10.273 8.54624 10.2735 
73 1 10.2731 10.2733 8.5466 
82 1 13.2076 13.202 13.2016 
89 1 10.9568 10.9581 10.9579 
ITEM: TIMESTEP
40
ITEM: NUMBER OF ATOMS
97
ITEM: BOX BOUNDS pp pp pp
0.0000000000000000e+00 1.6524999999999999e+01
0.0000000000000000e+00 1.6526000000000000e+01
0.0000000000000000e+00 1.6526000000000000e+01
ITEM: ATOMS id type x y z 
1 1 1.81541 1.81597 1.82275 
10 1 5.81834 5.81843 5.81721 
17 1 3.39368 3.39337 3.39294 
26 1 4.2431 4.24295 4.24276 
33 1 0.279234 2.01196 2.01471 
41 1 2.0111 0.28243 2.01563 
49 1 2.0139 2.01427 0.288716 
58 1 7.35325 5.62241 5.62217 
66 1 5.62251 7.35378 5.62196 
74 1 5.62218 5.62171 7.35122 
81 1 2.69413 2.69435 2.69795 
90 1 4.94088 4.94117 4.94027 
4 1 1.80986 1.81548 14.0909 
11 1 5.82157 5.82379 10.0757 
20 1 3.38699 3.39443 12.5085 
27 1 4.24705 4.24668 11.6492 
36 1 0.286156 2.01424 13.8965 
46 1 1.98107 0.315317 13.6465 
56 1 2.00866 2.006 15.623 
59 1 7.35515 5.62261 10.2747 
69 1 5.62259 7.35595 10.2744 
79 1 5.6224 5.62252 8.54213 
84 1 2.68703 2.7164 13.2106 
91 1 4.9432 4.94398 10.9535 
6 1 1.81683 14.0799 1.81831 
13 1 5.81843 10.0783 5.81946 
22 1 3.39318 12.5039 3.39347 
29 1 4.24346 11.6537 4.2436 
38 1 0.279182 13.8861 2.01131 
48 1 2.01143 15.616 2.01167 
52 1 2.01619 13.8939 0.304512 
61 1 7.35565 10.2745 5.6226 
71 1 5.62255 8.54526 5.62273 
75 1 5.62268 10.2742 7.35402 
86 1 2.69603 13.2007 2.69468 
93 1 4.94092 10.956 4.94156 
7 1 1.79311 13.9422 14.1313 
16 1 5.8163 10.0828 10.0815 
23 1 3.39427 12.5066 12.5024 
32 1 4.24243 11.6577 11.654 
39 1 0.278967 13.8537 13.8967 
43 1 2.04266 15.5147 13.9483 
53 1 2.01036 13.8508 15.6368 
64 1 7.35261 10.2745 10.2745 
68 1 5.6221 8.54819 10.2749 
78 1 5.62239 10.2747 8.54555 
87 1 2.67734 13.1545 13.2286 
96 1 4.94035 10.9592 10.9567 
97 2 2.02629 15.8594 12.5359 
8 1 14.0793 1.81539 1.81541 
15 1 10.0793 5.81884 5.81872 
24 1 12.5051 3.39208 3.3921 
31 1 11.6546 4.24244 4.24248 
40 1 15.6144 2.01227 2.01162 
44 1 13.8851 0.279147 2.01178 
54 1 13.8853 2.01191 0.280167 
63 1 8.54552 5.62274 5.62285 
67 1 10.2742 7.35422 5.62252 
77 1 10.2742 5.62255 7.35236 
88 1 13.202 2.6941 2.69389 
95 1 10.9572 4.94028 4.94024 
5 1 14.0804 1.81454 14.0804 
14 1 10.0805 5.81816 10.0786 
21 1 12.5054 3.39151 12.5056 
30 1 11.6553 4.24193 11.6553 
37 1 15.6217 2.01496 13.8872 
47 1 13.884 0.281368 13.8865 
51 1 13.8847 2.01149 15.6137 
62 1 8.54656 5.62181 10.2748 
72 1 10.2749 7.35347 10.2746 
76 1 10.2748 5.6222 8.54455 
85 1 13.2023 2.69277 13.2033 
94 1 10.9581 4.93967 10.9571 
3 1 14.0787 14.0809 1.81512 
12 1 10.079 10.0788 5.81884 
19 1 12.5054 12.5049 3.39187 
28 1 11.655 11.6551 4.24218 
35 1 15.613 13.8859 2.01248 
45 1 13.8855 15.6166 2.01151 
55 1 13.8846 13.8862 0.279971 
60 1 8.54287 10.2744 5.62242 
70 1 10.2744 8.54441 5.62244 
80 1 10.2747 10.2745 7.35466 
83 1 13.2023 13.2029 2.69345 
92 1 10.9574 10.9572 4.9399 
2 1 14.0854 14.0814 14.0795 
9 1 10.0775 10.0795 10.079 
18 1 12.5051 12.5061 12.5063 
25 1 11.6549 11.6551 11.6552 
34 1 15.6112 13.8959 13.8823 
42 1 13.8881 15.6155 13.8864 
50 1 13.8883 13.8865 15.6146 
57 1 8.54299 10.2739 10.2742 
65 1 10.2741 8.54498 10.2747 
73 1 10.2743 10.2746 8.54313 
82 1 13.2066 13.202 13.2015 
89 1 10.957 10.9578 10.9576 
ITEM: TIMESTEP
50
ITEM: NUMBER OF ATOMS
97
ITEM: BOX BOUNDS pp pp pp
0.0000000000000000e+00 1.6524999999999999e+01
0.0000000000000000e+00 1.6526000000000000e+01
0.0000000000000000e+00 1.6526000000000000e+01
ITEM: ATOMS id type x y z 
1 1 1.81542 1.81624 1.8224 
10 1 5.81848 5.8187 5.817 
17 1 3.39358 3.3933 3.39306 
26 1 4.24304 4.24302 4.24276 
33 1 0.279589 2.01229 2.01502 
41 1 2.01146 0.282454 2.0159 
49 1 2.0142 2.01427 0.288531 
58 1 7.35342 5.62211 5.62189 
66 1 5.6222 7.3535 5.62168 
74 1 5.62185 5.62137 7.35091 
81 1 2.69423 2.69442 2.69776 
90 1 4.94102 4.9411 4.94025 
4 1 1.81075 1.81781 14.0893 
11 1 5.82172 5.82378 10.0757 
20 1 3.38591 3.39382 12.5097 
27 1 4.24689 4.24658 11.6493 
36 1 0.286432 2.01449 13.8966 
46 1 1.98082 0.315925 13.6431 
56 1 2.00875 2.00574 15.6225 
59 1 7.35485 5.62236 10.275 
69 1 5.62231 7.35595 10.2747 
79 1 5.62213 5.62226 8.54261 
84 1 2.68617 2.71605 13.2115 
91 1 4.94301 4.94371 10.9537 
6 1 1.81671 14.0803 1.82005 
13 1 5.81846 10.0786 5.81925 
22 1 3.39345 12.5036 3.39357 
29 1 4.24349 11.6536 4.24368 
38 1 0.279376 13.8856 2.01187 
48 1 2.01181 15.6167 2.01232 
52 1 2.0168 13.8929 0.304797 
61 1 7.35393 10.2748 5.62227 
71 1 5.62218 8.54496 5.62238 
75 1 5.62231 10.2745 7.35428 
86 1 2.69609 13.2007 2.69511 
93 1 4.94107 10.9559 4.94167 
7 1 1.79308 13.9425 14.1312 
16 1 5.81637 10.0827 10.0811 
23 1 3.39435 12.5062 12.5021 
32 1 4.24293 11.6575 11.6536 
39 1 0.278014 13.8526 13.8963 
43 1 2.04326 15.5151 13.9494 
53 1 2.01078 13.8495 15.637 
64 1 7.35189 10.2749 10.2749 
68 1 5.62173 8.54788 10.2753 
78 1 5.62205 10.275 8.5456 
87 1 2.67732 13.1531 13.2288 
96 1 4.94073 10.9589 10.9561 
97 2 2.02696 15.862 12.5354 
8 1 14.0792 1.81558 1.81504 
15 1 10.0794 5.8187 5.81858 
24 1 12.505 3.39209 3.39204 
31 1 11.6547 4.24239 4.24243 
40 1 15.6138 2.0125 2.01198 
44 1 13.8848 0.281188 2.01208 
54 1 13.8849 2.01213 0.279915 
63 1 8.54503 5.62239 5.62249 
67 1 10.2746 7.35361 5.62218 
77 1 10.2746 5.62221 7.35257 
88 1 13.202 2.69405 2.69397 
95 1 10.9573 4.94027 4.94023 
5 1 14.0807 1.81475 14.0803 
14 1 10.0807 5.81812 10.0786 
21 1 12.5053 3.39141 12.5057 
30 1 11.6553 4.24183 11.6553 
37 1 15.6224 2.01529 13.8872 
47 1 13.8838 0.281961 13.8861 
51 1 13.8844 2.01186 15.6144 
62 1 8.54657 5.62146 10.2752 
72 1 10.2752 7.3533 10.2749 
76 1 10.2751 5.62187 8.5444 
85 1 13.2025 2.69284 13.2032 
94 1 10.9581 4.93973 10.9572 
3 1 14.0785 14.0806 1.8152 
12 1 10.0792 10.0789 5.81864 
19 1 12.5054 12.5049 3.39191 
28 1 11.6549 11.655 4.24216 
35 1 15.6124 13.8855 2.01278 
45 1 13.885 15.6151 2.01189 
55 1 13.8843 13.8858 0.280209 
60 1 8.54455 10.2747 5.6221 
70 1 10.2748 8.54505 5.62211 
80 1 10.275 10.2748 7.35299 
83 1 13.2022 13.2028 2.69349 
92 1 10.9574 10.9573 4.94005 
2 1 14.0844 14.0814 14.0794 
9 1 10.0779 10.0795 10.0793 
18 1 12.5051 12.5058 12.5061 
25 1 11.6549 11.6551 11.6552 
34 1 15.6118 13.895 13.8818 
42 1 13.8875 15.6155 13.886 
50 1 13.8879 13.8861 15.6146 
57 1 8.5437 10.2743 10.2745 
65 1 10.2744 8.54508 10.275 
73 1 10.2746 10.2749 8.54463 
82 1 13.2063 13.202 13.2015 
89 1 10.9569 10.9578 10.9577 
ITEM: TIMESTEP
53
ITEM: NUMBER OF ATOMS
97
ITEM: BOX BOUNDS pp pp pp
0.0000000000000000e+00 1.6524999999999999e+01
0.0000000000000000e+00 1.6526000000000000e+01
0.0000000000000000e+00 1.6526000000000000e+01
ITEM: ATOMS id type x y z 
1 1 1.81546 1.81627 1.82241 
10 1 5.81848 5.81868 5.81694 
17 1 3.39357 3.39329 3.39307 
26 1 4.24305 4.24301 4.24276 
33 1 0.280057 2.01234 2.01507 
41 1 2.01152 0.282398 2.01594 
49 1 2.01425 2.01429 0.288621 
58 1 7.35321 5.62206 5.62184 
66 1 5.62215 7.35344 5.62163 
74 1 5.62179 5.62132 7.35074 
81 1 2.69424 2.69443 2.69774 
90 1 4.94102 4.94111 4.94023 
4 1 1.81086 1.81811 14.0891 
11 1 5.82172 5.8238 10.0757 
20 1 3.3858 3.39378 12.5098 
27 1 4.24687 4.24655 11.6493 
36 1 0.2865 2.01453 13.8966 
46 1 1.9808 0.316005 13.6427 
56 1 2.00876 2.00571 15.6222 
59 1 7.35481 5.62233 10.275 
69 1 5.62228 7.35604 10.2747 
79 1 5.62209 5.62222 8.54286 
84 1 2.68606 2.71599 13.2116 
91 1 4.94296 4.94369 10.9538 
6 1 1.81668 14.0803 1.82028 
13 1 5.8185 10.0786 5.81924 
22 1 3.39349 12.5035 3.39358 
29 1 4.24349 11.6536 4.2437 
38 1 0.279225 13.8856 2.01193 
48 1 2.01186 15.6168 2.0124 
52 1 2.01687 13.8927 0.304826 
61 1 7.35408 10.2748 5.62223 
71 1 5.62213 8.54503 5.62234 
75 1 5.62227 10.2745 7.354 
86 1 2.69609 13.2007 2.69516 
93 1 4.9411 10.9559 4.94166 
7 1 1.79296 13.9426 14.1312 
16 1 5.8164 10.0827 10.0811 
23 1 3.39435 12.5062 12.502 
32 1 4.24297 11.6574 11.6535 
39 1 0.277619 13.8525 13.8963 
43 1 2.04334 15.5152 13.9495 
53 1 2.01083 13.8494 15.637 
64 1 7.35175 10.275 10.275 
68 1 5.62167 8.54773 10.2753 
78 1 5.622 10.2751 8.5458 
87 1 2.67732 13.1529 13.2288 
96 1 4.9408 10.9589 10.9561 
97 2 2.02705 15.8624 12.5353 
8 1 14.0792 1.81554 1.815 
15 1 10.0795 5.81866 5.81852 
24 1 12.505 3.39208 3.39205 
31 1 11.6547 4.24239 4.24243 
40 1 15.6133 2.01254 2.01203 
44 1 13.8848 0.280874 2.01212 
54 1 13.8849 2.01217 0.279879 
63 1 8.54519 5.62234 5.62244 
67 1 10.2747 7.35358 5.62213 
77 1 10.2746 5.62216 7.35246 
88 1 13.202 2.69406 2.69394 
95 1 10.9573 4.94025 4.94023 
5 1 14.0807 1.81477 14.0802 
14 1 10.0807 5.81817 10.0786 
21 1 12.5053 3.3914 12.5057 
30 1 11.6553 4.24182 11.6553 
37 1 15.6225 2.01533 13.8872 
47 1 13.8838 0.281782 13.886 
51 1 13.8844 2.01191 15.6145 
62 1 8.54661 5.62142 10.2752 
72 1 10.2752 7.35322 10.275 
76 1 10.2751 5.62183 8.54459 
85 1 13.2025 2.69285 13.2032 
94 1 10.9582 4.93973 10.9572 
3 1 14.0785 14.0806 1.81522 
12 1 10.0791 10.0789 5.81867 
19 1 12.5054 12.5048 3.39191 
28 1 11.6549 11.655 4.24217 
35 1 15.6125 13.8854 2.01281 
45 1 13.885 15.6154 2.01193 
55 1 13.8842 13.8858 0.28011 
60 1 8.5444 10.2748 5.62206 
70 1 10.2748 8.54517 5.62207 
80 1 10.275 10.2748 7.35292 
83 1 13.2022 13.2028 2.69351 
92 1 10.9573 10.9573 4.94004 
2 1 14.0842 14.0815 14.0794 
9 1 10.0779 10.0796 10.0793 
18 1 12.5051 12.5058 12.5061 
25 1 11.6549 11.6551 11.6552 
34 1 15.6123 13.8949 13.8818 
42 1 13.8875 15.6157 13.886 
50 1 13.8878 13.8861 15.6147 
57 1 8.54379 10.2743 10.2746 
65 1 10.2745 8.54502 10.2751 
73 1 10.2746 10.275 8.5446 
82 1 13.2062 13.202 13.2015 
89 1 10.9569 10.9578 10.9577 
ITEM: TIMESTEP
54
ITEM: NUMBER OF ATOMS
97
ITEM: BOX BOUNDS pp pp pp
0.0000000000000000e+00 1.6524999999999999e+01
0.0000000000000000e+00 1.6526000000000000e+01
0.0000000000000000e+00 1.6526000000000000e+01
ITEM: ATOMS id type x y z 
1 1 1.81546 1.81627 1.82241 
10 1 5.81848 5.81868 5.81694 
17 1 3.39357 3.39329 3.39307 
26 1 4.24305 4.24301 4.24276 
33 1 0.280057 2.01234 2.01507 
41 1 2.01152 0.282398 2.01594 
49 1 2.01425 2.01429 0.288621 
58 1 7.35321 5.62206 5.62184 
66 1 5.62215 7.35344 5.62163 
74 1 5.62179 5.62132 7.35074 
81 1 2.69424 2.69443 2.69774 
90 1 4.94102 4.94111 4.94023 
4 1 1.81086 1.81811 14.0891 
11 1 5.82172 5.8238 10.0757 
20 1 3.3858 3.39378 12.5098 
27 1 4.24687 4.24655 11.6493 
36 1 0.2865 2.01453 13.8966 
46 1 1.9808 0.316005 13.6427 
56 1 2.00876 2.00571 15.6222 
59 1 7.35481 5.62233 10.275 
69 1 5.62228 7.35604 10.2747 
79 1 5.62209 5.62222 8.54286 
84 1 2.68606 2.71599 13.2116 
91 1 4.94296 4.94369 10.9538 
6 1 1.81668 14.0803 1.82028 
13 1 5.8185 10.0786 5.81924 
22 1 3.39349 12.5035 3.39358 
29 1 4.24349 11.6536 4.2437 
38 1 0.279225 13.8856 2.01193 
48 1 2.01186 15.6168 2.0124 
52 1 2.01687 13.8927 0.304826 
61 1 7.35408 10.2748 5.62223 
71 1 5.62213 8.54503 5.62234 
75 1 5.62227 10.2745 7.354 
86 1 2.69609 13.2007 2.69516 
93 1 4.9411 10.9559 4.94166 
7 1 1.79296 13.9426 14.1312 
16 1 5.8164 10.0827 10.0811 
23 1 3.39435 12.5062 12.502 
32 1 4.24297 11.6574 11.6535 
39 1 0.277619 13.8525 13.8963 
43 1 2.04334 15.5152 13.9495 
53 1 2.01083 13.8494 15.637 
64 1 7.35175 10.275 10.275 
68 1 5.62167 8.54773 10.2753 
78 1 5.622 10.2751 8.5458 
87 1 2.67732 13.1529 13.2288 
96 1 4.9408 10.9589 10.9561 
97 2 2.02705 15.8624 12.5353 
8 1 14.0792 1.81554 1.815 
15 1 10.0795 5.81866 5.81852 
24 1 12.505 3.39208 3.39205 
31 1 11.6547 4.24239 4.24243 
40 1 15.6133 2.01254 2.01203 
44 1 13.8848 0.280874 2.01212 
54 1 13.8849 2.01217 0.279879 
63 1 8.54519 5.62234 5.62244 
67 1 10.2747 7.35358 5.62213 
77 1 10.2746 5.62216 7.35246 
88 1 13.202 2.69406 2.69394 
95 1 10.9573 4.94025 4.94023 
5 1 14.0807 1.81477 14.0802 
14 1 10.0807 5.81817 10.0786 
21 1 12.5053 3.3914 12.5057 
30 1 11.6553 4.24182 11.6553 
37 1 15.6225 2.01533 13.8872 
47 1 13.8838 0.281782 13.886 
51 1 13.8844 2.01191 15.6145 
62 1 8.54661 5.62142 10.2752 
72 1 10.2752 7.35322 10.275 
76 1 10.2751 5.62183 8.54459 
85 1 13.2025 2.69285 13.2032 
94 1 10.9582 4.93973 10.9572 
3 1 14.0785 14.0806 1.81522 
12 1 10.0791 10.0789 5.81867 
19 1 12.5054 12.5048 3.39191 
28 1 11.6549 11.655 4.24217 
35 1 15.6125 13.8854 2.01281 
45 1 13.885 15.6154 2.01193 
55 1 13.8842 13.8858 0.28011 
60 1 8.5444 10.2748 5.62206 
70 1 10.2748 8.54517 5.62207 
80 1 10.275 10.2748 7.35292 
83 1 13.2022 13.2028 2.69351 
92 1 10.9573 10.9573 4.94004 
2 1 14.0842 14.0815 14.0794 
9 1 10.0779 10.0796 10.0793 
18 1 12.5051 12.5058 12.5061 
25 1 11.6549 11.6551 11.6552 
34 1 15.6123 13.8949 13.8818 
42 1 13.8875 15.6157 13.886 
50 1 13.8878 13.8861 15.6147 
57 1 8.54379 10.2743 10.2746 
65 1 10.2745 8.54502 10.2751 
73 1 10.2746 10.275 8.5446 
82 1 13.2062 13.202 13.2015 
89 1 10.9569 10.9578 10.9577 
ITEM: TIMESTEP
58
ITEM: NUMBER OF ATOMS
97
ITEM: BOX BOUNDS pp pp pp
-6.6199175260373108e-04 1.6525661991752603e+01
-1.3112256699089493e-03 1.6527311225669909e+01
-7.9834253907289901e-04 1.6526798342539074e+01
ITEM: ATOMS id type x y z 
1 1 1.81494 1.81525 1.82175 
10 1 5.81831 5.81831 5.81673 
17 1 3.39318 3.39251 3.39261 
26 1 4.24272 4.24237 4.24238 
33 1 0.279395 2.01136 2.01447 
41 1 2.01102 0.281106 2.01534 
49 1 2.01375 2.01329 0.287775 
58 1 7.35332 5.62164 5.62158 
66 1 5.62194 7.35333 5.62137 
74 1 5.62158 5.6209 7.35078 
81 1 2.6938 2.69355 2.6972 
90 1 4.94076 4.94059 4.93991 
4 1 1.81037 1.81714 14.0896 
11 1 5.82153 5.8234 10.0758 
20 1 3.38539 3.393 12.5102 
27 1 4.24655 4.2459 11.6497 
36 1 0.285871 2.01355 13.8971 
46 1 1.98029 0.314757 13.6432 
56 1 2.00826 2.00471 15.623 
59 1 7.35483 5.6219 10.2752 
69 1 5.62206 7.35596 10.2749 
79 1 5.62188 5.6218 8.54274 
84 1 2.68559 2.7151 13.2121 
91 1 4.94269 4.94315 10.954 
6 1 1.81616 14.0813 1.8197 
13 1 5.8183 10.0789 5.819 
22 1 3.3931 12.5042 3.39312 
29 1 4.24317 11.6541 4.24332 
38 1 0.278606 13.8865 2.01134 
48 1 2.01137 15.618 2.01181 
52 1 2.01639 13.8936 0.304056 
61 1 7.35392 10.2752 5.62196 
71 1 5.62191 8.54498 5.62207 
75 1 5.62205 10.2749 7.35397 
86 1 2.69565 13.2015 2.69464 
93 1 4.94084 10.9564 4.94133 
7 1 1.79248 13.9435 14.1318 
16 1 5.81623 10.0829 10.0813 
23 1 3.39396 12.5069 12.5024 
32 1 4.24266 11.658 11.6538 
39 1 0.277048 13.8533 13.8968 
43 1 2.04285 15.5164 13.9501 
53 1 2.01034 13.8502 15.6378 
64 1 7.35182 10.2753 10.2752 
68 1 5.62146 8.54774 10.2755 
78 1 5.62178 10.2754 8.54579 
87 1 2.67688 13.1536 13.2293 
96 1 4.94055 10.9593 10.9563 
97 2 2.02656 15.8636 12.5357 
8 1 14.0796 1.81452 1.8144 
15 1 10.0796 5.81829 5.8183 
24 1 12.5054 3.3913 3.39158 
31 1 11.6549 4.24175 4.24204 
40 1 15.6139 2.01156 2.01144 
44 1 13.8852 0.279655 2.01152 
54 1 13.8853 2.01119 0.27914 
63 1 8.54503 5.62192 5.62218 
67 1 10.2748 7.35345 5.62187 
77 1 10.2748 5.62173 7.35252 
88 1 13.2024 2.69318 2.6934 
95 1 10.9575 4.93973 4.93991 
5 1 14.0812 1.81374 14.0808 
14 1 10.0808 5.81781 10.0788 
21 1 12.5056 3.39063 12.5061 
30 1 11.6556 4.24118 11.6556 
37 1 15.6231 2.01435 13.8877 
47 1 13.8843 0.280541 13.8865 
51 1 13.8848 2.01092 15.6151 
62 1 8.54655 5.62099 10.2754 
72 1 10.2754 7.35324 10.2752 
76 1 10.2753 5.6214 8.54447 
85 1 13.2029 2.69197 13.2037 
94 1 10.9584 4.93921 10.9575 
3 1 14.0789 14.0815 1.81461 
12 1 10.0793 10.0792 5.81842 
19 1 12.5057 12.5055 3.39144 
28 1 11.6552 11.6555 4.24178 
35 1 15.6131 13.8863 2.01221 
45 1 13.8854 15.6165 2.01133 
55 1 13.8847 13.8866 0.279397 
60 1 8.54451 10.2751 5.6218 
70 1 10.275 8.54514 5.62181 
80 1 10.2752 10.2752 7.35287 
83 1 13.2026 13.2036 2.69297 
92 1 10.9576 10.9577 4.93972 
2 1 14.0847 14.0824 14.08 
9 1 10.0781 10.0798 10.0795 
18 1 12.5055 12.5065 12.5065 
25 1 11.6552 11.6556 11.6555 
34 1 15.6128 13.8958 13.8823 
42 1 13.8879 15.6169 13.8865 
50 1 13.8883 13.887 15.6154 
57 1 8.54367 10.2747 10.2748 
65 1 10.2746 8.54489 10.2753 
73 1 10.2748 10.2753 8.54463 
82 1 13.2066 13.2028 13.202 
89 1 10.9571 10.9582 10.9579 
ITEM: TIMESTEP
59
ITEM: NUMBER OF ATOMS
97
ITEM: BOX BOUNDS pp pp pp
-6.6199175260373108e-04 1.6525661991752603e+01
-1.3112256699089493e-03 1.6527311225669909e+01
-7.9834253907289901e-04 1.6526798342539074e+01
ITEM: ATOMS id type x y z 
1 1 1.81494 1.81525 1.82175 
10 1 5.81831 5.81831 5.81673 
17 1 3.39318 3.39251 3.39261 
26 1 4.24272 4.24237 4.24238 
33 1 0.279395 2.01136 2.01447 
41 1 2.01102 0.281106 2.01534 
49 1 2.01375 2.01329 0.287775 
58 1 7.35332 5.62164 5.62158 
66 1 5.62194 7.35333 5.62137 
74 1 5.62158 5.6209 7.35078 
81 1 2.6938 2.69355 2.6972 
90 1 4.94076 4.94059 4.93991 
4 1 1.81037 1.81714 14.0896 
11 1 5.82153 5.8234 10.0758 
20 1 3.38539 3.393 12.5102 
27 1 4.24655 4.2459 11.6497 
36 1 0.285871 2.01355 13.8971 
46 1 1.98029 0.314757 13.6432 
56 1 2.00826 2.00471 15.623 
59 1 7.35483 5.6219 10.2752 
69 1 5.62206 7.35596 10.2749 
79 1 5.62188 5.6218 8.54274 
84 1 2.68559 2.7151 13.2121 
91 1 4.94269 4.94315 10.954 
6 1 1.81616 14.0813 1.8197 
13 1 5.8183 10.0789 5.819 
22 1 3.3931 12.5042 3.39312 
29 1 4.24317 11.6541 4.24332 
38 1 0.278606 13.8865 2.01134 
48 1 2.01137 15.618 2.01181 
52 1 2.01639 13.8936 0.304056 
61 1 7.35392 10.2752 5.62196 
71 1 5.62191 8.54498 5.62207 
75 1 5.62205 10.2749 7.35397 
86 1 2.69565 13.2015 2.69464 
93 1 4.94084 10.9564 4.94133 
7 1 1.79248 13.9435 14.1318 
16 1 5.81623 10.0829 10.0813 
23 1 3.39396 12.5069 12.5024 
32 1 4.24266 11.658 11.6538 
39 1 0.277048 13.8533 13.8968 
43 1 2.04285 15.5164 13.9501 
53 1 2.01034 13.8502 15.6378 
64 1 7.35182 10.2753 10.2752 
68 1 5.62146 8.54774 10.2755 
78 1 5.62178 10.2754 8.54579 
87 1 2.67688 13.1536 13.2293 
96 1 4.94055 10.9593 10.9563 
97 2 2.02656 15.8636 12.5357 
8 1 14.0796 1.81452 1.8144 
15 1 10.0796 5.81829 5.8183 
24 1 12.5054 3.3913 3.39158 
31 1 11.6549 4.24175 4.24204 
40 1 15.6139 2.01156 2.01144 
44 1 13.8852 0.279655 2.01152 
54 1 13.8853 2.01119 0.27914 
63 1 8.54503 5.62192 5.62218 
67 1 10.2748 7.35345 5.62187 
77 1 10.2748 5.62173 7.35252 
88 1 13.2024 2.69318 2.6934 
95 1 10.9575 4.93973 4.93991 
5 1 14.0812 1.81374 14.0808 
14 1 10.0808 5.81781 10.0788 
21 1 12.5056 3.39063 12.5061 
30 1 11.6556 4.24118 11.6556 
37 1 15.6231 2.01435 13.8877 
47 1 13.8843 0.280541 13.8865 
51 1 13.8848 2.01092 15.6151 
62 1 8.54655 5.62099 10.2754 
72 1 10.2754 7.35324 10.2752 
76 1 10.2753 5.6214 8.54447 
85 1 13.2029 2.69197 13.2037 
94 1 10.9584 4.93921 10.9575 
3 1 14.0789 14.0815 1.81461 
12 1 10.0793 10.0792 5.81842 