LAMMPS (3 Mar 2020)
# Alpha
clear
units		real
dimension 3
boundary        p p p
atom_style	charge
newton on
read_data       H_2.lmp
  orthogonal box = (0 0 0) to (21.884 21.886 21.885)
  2 by 2 by 2 MPI processor grid
  reading atoms ...
  145 atoms
  read_data CPU = 0.00291409 secs

timestep 0.25

# ---------- Define Interatomic Potential ---------------------
pair_style      reax/c NULL checkqeq no
pair_coeff      * * ffield.reax C H
WARNING: Changed valency_val to valency_boc for X (../reaxc_ffield.cpp:315)
fix             2 all qeq/reax 1 0.0 10.0 1.0e-6 reax/c

#------------ Equilibration of the system -------------------------
reset_timestep 0

dump 1 all custom 10 min.lammpstrj id type x y z

minimize 1.0e-8 1.0e-8 100000 100000
WARNING: Using 'neigh_modify every 1 delay 0 check yes' setting during minimization (../min.cpp:190)
Neighbor list info ...
  update every 1 steps, delay 0 steps, check yes
  max neighbors/atom: 2000, page size: 100000
  master list distance cutoff = 12
  ghost atom cutoff = 12
  binsize = 6, bins = 4 4 4
  2 neighbor lists, perpetual/occasional/extra = 2 0 0
  (1) pair reax/c, perpetual
      attributes: half, newton off, ghost
      pair build: half/bin/newtoff/ghost
      stencil: half/ghost/bin/3d/newtoff
      bin: standard
  (2) fix qeq/reax, perpetual, copy from (1)
      attributes: half, newton off, ghost
      pair build: copy
      stencil: none
      bin: none
Per MPI rank memory allocation (min/avg/max) = 16.99 | 18 | 21.02 Mbytes
Step Temp E_pair E_mol TotEng Press 
       0            0   -25530.949            0   -25530.949   -32671.943 
      61            0   -25670.815            0   -25670.815   -4204.5958 
Loop time of 1.93323 on 8 procs for 61 steps with 145 atoms

99.2% CPU use with 8 MPI tasks x no OpenMP threads

Minimization stats:
  Stopping criterion = energy tolerance
  Energy initial, next-to-last, final = 
        -25530.9487458       -25670.81473      -25670.814918
  Force two-norm initial, final = 2089.27 20.2871
  Force max component initial, final = 235.489 7.57896
  Final line search alpha, max atom move = 0.000205384 0.00155659
  Iterations, force evaluations = 61 573

MPI task timing breakdown:
Section |  min time  |  avg time  |  max time  |%varavg| %total
---------------------------------------------------------------
Pair    | 0.70058    | 0.90228    | 1.4987     |  35.5 | 46.67
Neigh   | 0          | 0          | 0          |   0.0 |  0.00
Comm    | 0.01354    | 0.60311    | 0.80641    |  43.0 | 31.20
Output  | 0.00038177 | 0.00041921 | 0.00053655 |   0.0 |  0.02
Modify  | 0.41682    | 0.41727    | 0.41772    |   0.0 | 21.58
Other   |            | 0.01015    |            |       |  0.52

Nlocal:    18.125 ave 73 max 0 min
Histogram: 6 0 0 0 0 0 0 0 0 2
Nghost:    581.625 ave 659 max 556 min
Histogram: 6 0 0 0 0 0 0 0 0 2
Neighs:    1127.88 ave 4538 max 0 min
Histogram: 6 0 0 0 0 0 0 0 0 2

Total # of neighbors = 9023
Ave neighs/atom = 62.2276
Neighbor list builds = 0
Dangerous builds = 0

###
min_style cg
minimize 1.0e-8 1.0e-8 100000 100000
WARNING: Using 'neigh_modify every 1 delay 0 check yes' setting during minimization (../min.cpp:190)
Per MPI rank memory allocation (min/avg/max) = 17 | 18 | 21.02 Mbytes
Step Temp E_pair E_mol TotEng Press 
      61            0   -25670.815            0   -25670.815   -4204.5958 
      64            0   -25670.826            0   -25670.826   -4224.0448 
Loop time of 0.207927 on 8 procs for 3 steps with 145 atoms

99.2% CPU use with 8 MPI tasks x no OpenMP threads

Minimization stats:
  Stopping criterion = energy tolerance
  Energy initial, next-to-last, final = 
        -25670.8149179     -25670.8259648     -25670.8259648
  Force two-norm initial, final = 20.287 16.3464
  Force max component initial, final = 7.57881 7.9488
  Final line search alpha, max atom move = 1.67977e-10 1.33521e-09
  Iterations, force evaluations = 3 65

MPI task timing breakdown:
Section |  min time  |  avg time  |  max time  |%varavg| %total
---------------------------------------------------------------
Pair    | 0.077401   | 0.10102    | 0.16979    |  12.3 | 48.58
Neigh   | 0          | 0          | 0          |   0.0 |  0.00
Comm    | 0.0015499  | 0.069743   | 0.093279   |  14.7 | 33.54
Output  | 0          | 0          | 0          |   0.0 |  0.00
Modify  | 0.036107   | 0.036174   | 0.036233   |   0.0 | 17.40
Other   |            | 0.0009915  |            |       |  0.48

Nlocal:    18.125 ave 72 max 0 min
Histogram: 6 0 0 0 0 0 0 0 0 2
Nghost:    581.625 ave 659 max 555 min
Histogram: 6 0 0 0 0 0 0 0 0 2
Neighs:    1133.75 ave 4487 max 0 min
Histogram: 6 0 0 0 0 0 0 0 0 2

Total # of neighbors = 9070
Ave neighs/atom = 62.5517
Neighbor list builds = 0
Dangerous builds = 0

###
fix 1 all box/relax aniso 0.0
min_style cg
minimize 1.0e-8 1.0e-8 100000 100000
WARNING: Using 'neigh_modify every 1 delay 0 check yes' setting during minimization (../min.cpp:190)
Per MPI rank memory allocation (min/avg/max) = 17 | 18 | 21.02 Mbytes
Step Temp E_pair E_mol TotEng Press Volume 
      64            0   -25670.826            0   -25670.826    -4224.045    10481.891 
      66            0   -25670.871            0   -25670.871   -3627.4174    10481.106 
Loop time of 0.140047 on 8 procs for 2 steps with 145 atoms

99.4% CPU use with 8 MPI tasks x no OpenMP threads

Minimization stats:
  Stopping criterion = linesearch alpha is zero
  Energy initial, next-to-last, final = 
        -25670.8259652     -25670.8710729     -25670.8710726
  Force two-norm initial, final = 1118.54 960.913
  Force max component initial, final = 646.566 556.869
  Final line search alpha, max atom move = 1.07035e-14 5.96046e-12
  Iterations, force evaluations = 2 46

MPI task timing breakdown:
Section |  min time  |  avg time  |  max time  |%varavg| %total
---------------------------------------------------------------
Pair    | 0.054141   | 0.070757   | 0.11915    |  10.4 | 50.52
Neigh   | 0          | 0          | 0          |   0.0 |  0.00
Comm    | 0.0010141  | 0.049024   | 0.065507   |  12.3 | 35.01
Output  | 0          | 0          | 0          |   0.0 |  0.00
Modify  | 0.01905    | 0.019091   | 0.019124   |   0.0 | 13.63
Other   |            | 0.001174   |            |       |  0.84

Nlocal:    18.125 ave 72 max 0 min
Histogram: 6 0 0 0 0 0 0 0 0 2
Nghost:    581.625 ave 659 max 555 min
Histogram: 6 0 0 0 0 0 0 0 0 2
Neighs:    1133.75 ave 4487 max 0 min
Histogram: 6 0 0 0 0 0 0 0 0 2

Total # of neighbors = 9070
Ave neighs/atom = 62.5517
Neighbor list builds = 0
Dangerous builds = 0

unfix 1
###
min_style cg
minimize 1.0e-8 1.0e-8 100000 100000
WARNING: Using 'neigh_modify every 1 delay 0 check yes' setting during minimization (../min.cpp:190)
Per MPI rank memory allocation (min/avg/max) = 17 | 18 | 21.02 Mbytes
Step Temp E_pair E_mol TotEng Press 
      66            0   -25670.871            0   -25670.871   -3627.4179 
      75            0   -25671.007            0   -25671.007   -4041.5819 
Loop time of 0.41555 on 8 procs for 9 steps with 145 atoms

99.2% CPU use with 8 MPI tasks x no OpenMP threads

Minimization stats:
  Stopping criterion = linesearch alpha is zero
  Energy initial, next-to-last, final = 
        -25670.8710736     -25671.0070519      -25671.007053
  Force two-norm initial, final = 31.2354 13.019
  Force max component initial, final = 10.5986 3.60968
  Final line search alpha, max atom move = 5.14639e-11 1.85768e-10
  Iterations, force evaluations = 9 128

MPI task timing breakdown:
Section |  min time  |  avg time  |  max time  |%varavg| %total
---------------------------------------------------------------
Pair    | 0.15095    | 0.19718    | 0.33184    |  17.3 | 47.45
Neigh   | 0          | 0          | 0          |   0.0 |  0.00
Comm    | 0.0031241  | 0.13657    | 0.18262    |  20.6 | 32.86
Output  | 6.2647e-05 | 6.8501e-05 | 8.3646e-05 |   0.0 |  0.02
Modify  | 0.079687   | 0.079812   | 0.079923   |   0.0 | 19.21
Other   |            | 0.001923   |            |       |  0.46

Nlocal:    18.125 ave 72 max 0 min
Histogram: 6 0 0 0 0 0 0 0 0 2
Nghost:    581.625 ave 659 max 555 min
Histogram: 6 0 0 0 0 0 0 0 0 2
Neighs:    1133.75 ave 4487 max 0 min
Histogram: 6 0 0 0 0 0 0 0 0 2

Total # of neighbors = 9070
Ave neighs/atom = 62.5517
Neighbor list builds = 0
Dangerous builds = 0

###
fix 1 all box/relax aniso 0.0
min_style cg
minimize 1.0e-8 1.0e-8 100000 100000
WARNING: Using 'neigh_modify every 1 delay 0 check yes' setting during minimization (../min.cpp:190)
Per MPI rank memory allocation (min/avg/max) = 17 | 18 | 21.02 Mbytes
Step Temp E_pair E_mol TotEng Press Volume 
      75            0   -25671.007            0   -25671.007    -4041.581    10481.106 
      84            0   -25671.028            0   -25671.028    -3725.566    10480.734 
Loop time of 0.384284 on 8 procs for 9 steps with 145 atoms

99.4% CPU use with 8 MPI tasks x no OpenMP threads

Minimization stats:
  Stopping criterion = energy tolerance
  Energy initial, next-to-last, final = 
        -25671.0070512     -25671.0280963     -25671.0281794
  Force two-norm initial, final = 1070.13 986.579
  Force max component initial, final = 623.447 577.756
  Final line search alpha, max atom move = 8.44837e-11 4.8811e-08
  Iterations, force evaluations = 9 128

MPI task timing breakdown:
Section |  min time  |  avg time  |  max time  |%varavg| %total
---------------------------------------------------------------
Pair    | 0.1482     | 0.19362    | 0.32617    |  17.1 | 50.38
Neigh   | 0          | 0          | 0          |   0.0 |  0.00
Comm    | 0.0032229  | 0.13458    | 0.18046    |  20.3 | 35.02
Output  | 7.5972e-05 | 8.2405e-05 | 0.00010092 |   0.0 |  0.02
Modify  | 0.0524     | 0.052559   | 0.052727   |   0.0 | 13.68
Other   |            | 0.003441   |            |       |  0.90

Nlocal:    18.125 ave 72 max 0 min
Histogram: 6 0 0 0 0 0 0 0 0 2
Nghost:    581.625 ave 659 max 555 min
Histogram: 6 0 0 0 0 0 0 0 0 2
Neighs:    1133.75 ave 4487 max 0 min
Histogram: 6 0 0 0 0 0 0 0 0 2

Total # of neighbors = 9070
Ave neighs/atom = 62.5517
Neighbor list builds = 0
Dangerous builds = 0

unfix 1
###
min_style cg
minimize 1.0e-8 1.0e-8 100000 100000
WARNING: Using 'neigh_modify every 1 delay 0 check yes' setting during minimization (../min.cpp:190)
Per MPI rank memory allocation (min/avg/max) = 17 | 18 | 21.02 Mbytes
Step Temp E_pair E_mol TotEng Press 
      84            0   -25671.028            0   -25671.028   -3725.5655 
      85            0   -25671.028            0   -25671.028    -3730.087 
Loop time of 0.0400032 on 8 procs for 1 steps with 145 atoms

99.5% CPU use with 8 MPI tasks x no OpenMP threads

Minimization stats:
  Stopping criterion = energy tolerance
  Energy initial, next-to-last, final = 
        -25671.0281786     -25671.0281786     -25671.0282033
  Force two-norm initial, final = 19.3238 18.9663
  Force max component initial, final = 5.27082 4.80707
  Final line search alpha, max atom move = 7.41109e-05 0.000356256
  Iterations, force evaluations = 1 11

MPI task timing breakdown:
Section |  min time  |  avg time  |  max time  |%varavg| %total
---------------------------------------------------------------
Pair    | 0.014153   | 0.018612   | 0.0316     |   5.4 | 46.53
Neigh   | 0          | 0          | 0          |   0.0 |  0.00
Comm    | 0.00027347 | 0.013133   | 0.0175     |   6.4 | 32.83
Output  | 0          | 0          | 0          |   0.0 |  0.00
Modify  | 0.0079618  | 0.0079747  | 0.0079865  |   0.0 | 19.94
Other   |            | 0.0002838  |            |       |  0.71

Nlocal:    18.125 ave 72 max 0 min
Histogram: 6 0 0 0 0 0 0 0 0 2
Nghost:    581.625 ave 659 max 555 min
Histogram: 6 0 0 0 0 0 0 0 0 2
Neighs:    1133.75 ave 4487 max 0 min
Histogram: 6 0 0 0 0 0 0 0 0 2

Total # of neighbors = 9070
Ave neighs/atom = 62.5517
Neighbor list builds = 0
Dangerous builds = 0

undump 1
#############
#----------- Thermo ------------
reset_timestep 0
thermo  200

thermo_style    custom step temp etotal ke pe press
velocity all create 300 12345 mom yes rot yes
fix 1 all npt temp 300 300 25.0 iso 0.0 0.0 250.0

variable vpe equal pe
variable vtemp equal temp
variable vstep equal step

fix output all print 2500 "${vstep} ${vtemp} ${vpe}" file temp-tpdh-Pt.dat screen no

dump 1 all custom 2500 thermo-tpdh-Pt.lammpstrj id type x y z

run 1000000
Per MPI rank memory allocation (min/avg/max) = 15.87 | 17 | 19.89 Mbytes
Step Temp TotEng KinEng PotEng Press 
       0          300   -25542.257    128.77099   -25671.028   -3168.4454 
     200    305.64231   -25496.169    131.19288   -25627.362    2981.4014 
     400    309.70793   -25469.646    132.93799   -25602.584   -3442.5523 
     600    294.40655   -25485.129    126.37008   -25611.499    4796.5592 
     800    317.62488   -25490.106    136.33624   -25626.442    1416.5815 
    1000    313.99589   -25467.389    134.77854   -25602.167   -6191.2895 
    1200    350.81831   -25441.612    150.58407   -25592.196   -2007.4213 
    1400    324.52383    -25473.89    139.29752   -25613.188    2998.0946 
    1600    285.14862   -25484.435    122.39624   -25606.831    1112.2241 
    1800    291.49834   -25467.424    125.12177   -25592.546    1942.3979 
    2000    292.38253   -25486.783     125.5013   -25612.284   -2039.3944 
    2200    324.30469   -25500.724    139.20346   -25639.927    6374.0828 
    2400    325.42444   -25482.799     139.6841   -25622.483    2943.5379 
    2600    293.86328   -25473.198    126.13689   -25599.335    3748.7778 
    2800    258.46151    -25499.04    110.94115   -25609.982    -1021.893 
    3000    285.28399   -25475.119    122.45434   -25597.573    4121.7285 
    3200    317.20812   -25467.503    136.15735    -25603.66    4038.7661 
    3400    300.53568   -25480.402    129.00093   -25609.403    1223.7283 
    3600    301.92175   -25480.987    129.59588   -25610.583    4947.4915 
    3800    287.46666   -25483.369    123.39123   -25606.761   -4335.6572 
    4000    292.71126    -25487.85     125.6424   -25613.493    176.67839 
    4200    306.11111   -25485.026    131.39411    -25616.42   -645.82655 
    4400    272.92585   -25510.633    117.14978   -25627.782   -1107.3936 
    4600    313.49415    -25490.45    134.56318   -25625.013   -2219.0537 
    4800    294.48897    -25486.76    126.40546   -25613.166   -400.19978 
    5000    318.28373   -25469.327    136.61904   -25605.946    1081.0147 
    5200    284.75018    -25500.24    122.22521   -25622.465    4862.0384 
    5400    282.25798   -25489.931    121.15547   -25611.086    467.72729 
    5600     291.9142   -25478.323    125.30027   -25603.623   -6383.1989 
    5800    337.29192   -25471.866    144.77805   -25616.644    1668.8031 
    6000    288.22271    -25489.88    123.71575   -25613.596    2561.9423 
    6200    274.57002   -25481.845    117.85552     -25599.7   -766.75748 
    6400    290.53316   -25484.969    124.70748   -25609.677    2366.0723 
    6600    307.13814   -25490.861    131.83495   -25622.696   -1660.4121 
    6800    318.32121    -25489.71    136.63513   -25626.345    4368.2262 
    7000    292.13586   -25511.867    125.39542   -25637.263    4446.5591 
    7200    283.93686   -25484.993    121.87611   -25606.869    2097.4381 
    7400    314.08992   -25482.833     134.8189   -25617.652    139.50948 
    7600    252.74502   -25506.159    108.48743   -25614.647    5297.6141 
    7800     321.6902   -25474.941    138.08122   -25613.023   -4165.1347 
    8000    287.92099   -25486.523    123.58624    -25610.11    108.06122 
    8200    294.10328   -25487.897     126.2399   -25614.137    2395.0893 
    8400    319.67523   -25461.301    137.21633   -25598.517    141.93961 
    8600    310.78054   -25485.805     133.3984   -25619.204    -9791.948 
    8800    296.04656    -25492.98    127.07403   -25620.054   -6145.2995 
    9000     268.2486   -25499.779    115.14213   -25614.922    222.15946 
    9200    306.73317   -25480.561    131.66112   -25612.222   -4587.3488 
    9400    289.92838   -25489.109    124.44789   -25613.557   -3315.8234 
    9600     300.1754   -25500.902    128.84628   -25629.748    -845.5164 
    9800    325.87048   -25472.678    139.87555   -25612.553   -791.97948 
   10000    298.85557   -25485.706    128.27976   -25613.986    2668.7386 
   10200    319.36677   -25467.705    137.08392   -25604.789    4127.5511 
   10400    312.61398   -25472.427    134.18537   -25606.613   -4260.3546 
   10600    284.46806   -25490.811    122.10412   -25612.915    4250.0555 
   10800     338.2723   -25465.997    145.19887   -25611.195    484.03422 
   11000    284.43846   -25487.648    122.09141   -25609.739      6211.73 
   11200    297.70199   -25481.358     127.7846   -25609.143   -897.95556 
   11400    316.34639   -25479.988    135.78746   -25615.775    1910.9399 
   11600    287.73374   -25509.911    123.50587   -25633.417    1861.5476 
   11800    325.49147   -25482.279    139.71287   -25621.991    5252.2207 
   12000    314.42801   -25482.601    134.96403   -25617.565      4741.19 
   12200    276.66691   -25511.145    118.75558   -25629.901   -4549.5491 
   12400    303.32518   -25488.983    130.19828   -25619.181    3704.0441 
   12600    319.33945   -25477.641    137.07219   -25614.713   -3529.1554 
   12800    297.83753   -25492.925    127.84278   -25620.767    1678.6878 
   13000    287.29752   -25495.533    123.31862   -25618.851    4203.6904 
   13200     294.1911   -25476.054     126.2776   -25602.331    -561.8052 
   13400    316.16383   -25489.902     135.7091   -25625.611   -2842.4221 
   13600    297.09204    -25511.65    127.52279   -25639.173    3396.1205 
   13800    311.87932   -25491.929    133.87003   -25625.799    1447.6529 
   14000    301.47527   -25478.228    129.40423   -25607.633    853.39347 
   14200    269.80219   -25502.929    115.80899   -25618.738   -249.14135 
   14400    321.43261   -25486.022    137.97066   -25623.993    2539.1368 
   14600    283.01901   -25480.998    121.48213    -25602.48   -3684.2706 
   14800    340.15989   -25468.803    146.00909   -25614.812   -1440.7568 
   15000    293.75014   -25488.079    126.08833   -25614.167   -3813.9341 
   15200    281.01211   -25499.129    120.62069    -25619.75   -1950.9614 
   15400    320.55782   -25475.017    137.59516   -25612.612   -2.2255391 
   15600    291.65025   -25478.096    125.18698   -25603.283    632.58254 
   15800     272.3241   -25497.296    116.89148   -25614.188   -2862.5772 
   16000    299.89146   -25498.891     128.7244   -25627.615    1466.3244 
   16200    334.54364   -25480.013    143.59839   -25623.611    2025.7335 
   16400    287.67286   -25498.632    123.47973   -25622.112    3822.8243 
   16600    323.74762   -25468.268    138.96434   -25607.232    6677.2959 
   16800    300.49405   -25486.582    128.98306   -25615.565   -9579.8074 
   17000    294.38655   -25481.131     126.3615   -25607.492    4657.1642 
   17200    303.30973   -25463.973    130.19165   -25594.164    2634.1233 
   17400    295.59991   -25474.659    126.88231   -25601.541     5846.501 
   17600    277.97133   -25492.124    119.31548    -25611.44    2926.9634 
   17800    302.77675   -25468.313    129.96288   -25598.276    365.70504 
   18000    311.19521   -25489.144    133.57639    -25622.72    7112.0261 
   18200    292.08713    -25492.06     125.3745   -25617.434    4068.9934 
   18400    297.46302   -25472.077    127.68203   -25599.759   -3475.4667 
   18600    304.37114   -25496.823    130.64725   -25627.471    3722.4308 
   18800    284.68222   -25491.315    122.19604   -25613.511   -1924.7665 
   19000     288.3597    -25484.21    123.77455   -25607.984   -1693.9046 
   19200    289.77385   -25504.436    124.38155   -25628.818    3772.2993 
   19400    278.13935   -25502.687     119.3876   -25622.075   -4374.3254 
   19600    302.31847   -25480.336    129.76617   -25610.103    3095.9084 
   19800    330.44725   -25467.691    141.84007   -25609.531   -1350.2244 
   20000    302.17061   -25467.476     129.7027   -25597.179   -1107.4293 
   20200    284.30451   -25493.609    122.03392   -25615.643   -4617.9686 
   20400    277.78042   -25482.128    119.23354   -25601.362   -209.83984 
   20600    345.97326   -25460.861     148.5044   -25609.365    4971.8327 
   20800     288.2562   -25486.956    123.73012   -25610.686    2387.0312 
   21000    291.90284   -25480.346     125.2954   -25605.642     3859.232 
   21200    277.24832   -25502.924    119.00514   -25621.929   -3728.9632 
   21400    332.28775   -25475.687    142.63008   -25618.317    2902.3483 
   21600    287.16441   -25483.437    123.26149   -25606.698   -2338.3069 
   21800    342.06256   -25465.361    146.82579   -25612.187   -1038.7275 
   22000    284.17972   -25494.235    121.98035   -25616.216    11599.541 
   22200    291.78701   -25473.913    125.24568   -25599.159    4399.5498 
   22400    292.95813   -25472.817    125.74836   -25598.566   -3021.3433 
   22600    307.11971   -25501.309    131.82703   -25633.136    3254.3976 
   22800    274.20857   -25495.501    117.70037   -25613.202   -10159.328 
   23000     318.3113   -25476.395    136.63087   -25613.025   -543.54611 
   23200    290.95388   -25495.174    124.88807   -25620.062   -1124.7413 
   23400    309.81532   -25494.121    132.98409   -25627.105   -7441.9152 
   23600    325.84106   -25476.696    139.86293   -25616.559   -2088.9238 
   23800    279.21693   -25482.356    119.85014   -25602.206    5677.0954 
   24000    288.77619   -25494.471    123.95332   -25618.425    877.78909 
   24200    330.68312   -25460.408    141.94131   -25602.349   -2224.3961 
   24400    304.85916   -25478.065    130.85673   -25608.922    1199.3452 
   24600    291.46433   -25487.496    125.10717   -25612.603    -1295.611 
   24800    310.59524   -25484.832    133.31886   -25618.151    2438.7902 
   25000    284.45306   -25492.701    122.09768   -25614.798   -4208.4658 
   25200    310.33353   -25466.802    133.20652   -25600.009   -4772.5591 
   25400    301.09221   -25474.501    129.23981    -25603.74    2812.0589 
   25600    294.42833   -25493.267    126.37943   -25619.647   -6080.6133 
   25800    273.07086   -25500.061    117.21202   -25617.273    4160.9595 
   26000    345.79309   -25467.369    148.42707   -25615.796   -791.99725 
   26200    282.14463   -25487.213    121.10682   -25608.319   -5312.3388 
   26400    272.72959   -25507.533    117.06554   -25624.598    2430.8256 
   26600    265.34204    -25496.39    113.89453   -25610.285     2887.423 
   26800    308.38798   -25471.041    132.37142   -25603.412   -5841.6116 
   27000    298.12315   -25484.283    127.96538   -25612.248    4003.5726 
   27200    280.73087   -25503.774    120.49998   -25624.274    -7293.077 
   27400    310.50196    -25468.98    133.27882   -25602.259    8763.3552 
   27600    281.62813    -25484.76    120.88511   -25605.645   -286.52142 
   27800    276.27766   -25501.417     118.5885   -25620.005    444.50292 
   28000     312.6616   -25506.391    134.20582   -25640.597   -5807.9342 
   28200    321.61961   -25483.861    138.05092   -25621.912   -3231.7066 
   28400    289.18379   -25485.578    124.12828   -25609.706    5504.0324 
   28600    277.06367   -25504.836    118.92588   -25623.762   -6791.2193 
   28800    294.21079   -25480.471    126.28605   -25606.757    3342.1862 
   29000    279.80166   -25478.133    120.10113   -25598.234    2871.6132 
   29200    340.89718   -25459.221    146.32556   -25605.547   -1954.6721 
   29400    312.34674   -25474.379    134.07067    -25608.45   -7660.5546 
   29600    282.39193   -25492.739    121.21296   -25613.952    -4969.112 
   29800    315.86938   -25471.187    135.58271    -25606.77    4971.1473 
   30000    291.10624   -25488.337    124.95347    -25613.29   -3956.2945 
   30200    312.18061   -25496.457    133.99936   -25630.456    3041.1642 
   30400    305.94263   -25476.339    131.32179   -25607.661    2825.2688 
   30600    232.20595   -25506.818    99.671303   -25606.489   -3455.3858 
   30800    283.43804    -25487.07    121.66199   -25608.732   -4522.3516 
   31000    296.98535   -25475.856      127.477   -25603.333    7687.3795 
   31200    320.23987   -25469.065    137.45869   -25606.524   -6252.5162 
   31400    280.18454   -25493.408    120.26547   -25613.674    3377.7594 
   31600    302.23593   -25467.993    129.73074   -25597.723    605.08187 
   31800    303.89703   -25478.344    130.44374   -25608.788    2679.6257 
   32000    286.42172   -25494.684     122.9427   -25617.626    709.25687 
   32200    314.46802   -25474.417     134.9812   -25609.398   -3306.0275 
   32400    313.00845   -25478.967     134.3547   -25613.321   -4475.1831 
   32600    271.25964   -25496.838    116.43458   -25613.272   -3702.8899 
   32800    342.32121    -25462.24    146.93681   -25609.176    233.66382 
   33000    290.03382   -25476.926    124.49314   -25601.419   -2668.8681 
   33200    321.35028   -25482.198    137.93532   -25620.134   -3923.4288 
   33400    284.04135   -25477.931    121.92096   -25599.852   -49.908846 
   33600    354.34363   -25461.067    152.09727   -25613.164    2776.6229 
   33800    282.51296   -25491.435    121.26492     -25612.7    1763.6272 
   34000    288.29168   -25470.334    123.74535   -25594.079     1111.343 
   34200    290.80827   -25487.102    124.82557   -25611.927   -7413.2052 
   34400    305.15202    -25500.76    130.98243   -25631.743    2497.7834 
   34600    312.91213   -25472.556    134.31335    -25606.87    -1025.991 
   34800    310.04173   -25468.043    133.08127   -25601.124    4427.6111 
   35000    295.90914   -25503.347    127.01505   -25630.362   -1893.2509 
   35200    303.34033   -25478.265    130.20479    -25608.47   -10651.872 
   35400    341.83914   -25471.402    146.72989   -25618.132   -3694.0354 
   35600     304.2381       -25501    130.59014    -25631.59    4150.6691 
   35800    307.98341   -25470.361    132.19777   -25602.558    863.85468 
   36000    289.95922   -25475.794    124.46112   -25600.255   -209.88076 
   36200    319.80262   -25484.132      137.271   -25621.403   -875.87439 
   36400     264.8099   -25512.662    113.66611   -25626.328    2113.1678 
   36600    307.91418   -25482.495    132.16805   -25614.663   -4327.5648 
   36800    277.23044   -25491.025    118.99747   -25610.023    1575.3234 
   37000    338.02823   -25473.122     145.0941   -25618.216    5881.2265 
   37200    292.27792   -25489.722     125.4564   -25615.178   -4014.7819 
   37400    287.60549    -25486.09    123.45082   -25609.541    -901.9216 
   37600    315.13604   -25470.412    135.26794    -25605.68   -449.41525 
   37800    274.71044    -25486.82    117.91579   -25604.735   -5638.9944 
   38000    291.98424   -25502.549    125.33034   -25627.879    -101.6534 
   38200    296.65805   -25473.003     127.3365    -25600.34    1506.1962 
   38400    307.81183    -25479.25    132.12412   -25611.374    5366.1514 
   38600    327.94275   -25448.315    140.76505    -25589.08    3365.4787 
   38800    308.64695   -25473.563    132.48258   -25606.046   -1236.1954 
   39000    297.33195   -25488.029    127.62577   -25615.655    2368.0432 
   39200    282.71364   -25504.465    121.35105   -25625.816   -7453.9669 
   39400    333.54157   -25472.255    143.16827   -25615.424    2280.7638 
   39600    280.12466   -25497.969    120.23977   -25618.209   -407.09365 
   39800    303.24426   -25486.766    130.16355   -25616.929   -3976.0036 
   40000    294.17842   -25480.025    126.27216   -25606.297   -2498.8616 
   40200    330.78282   -25480.614    141.98411   -25622.599    4336.8979 
   40400    307.23492   -25493.435    131.87649   -25625.312   -862.65234 
   40600     291.2153   -25478.611    125.00028   -25603.612    3709.3551 
   40800    310.77911   -25477.261    133.39778   -25610.659     563.4101 
   41000    259.34557   -25495.561    111.32062   -25606.882    5295.0955 
   41200     349.0954   -25461.734    149.84454   -25611.578    3817.6092 
   41400    289.65797   -25487.589    124.33181   -25611.921    966.75105 
   41600    303.32815    -25494.77    130.19956    -25624.97    2707.8254 
   41800    302.22959     -25481.6    129.72802   -25611.328    -48.69347 
   42000     314.8457   -25465.488    135.14331   -25600.631    1778.3143 
   42200    264.39309    -25497.49     113.4872   -25610.977   -639.96859 
   42400    322.60133   -25482.249    138.47231   -25620.722   -2672.2493 
   42600     265.7833   -25496.186    114.08393   -25610.269   -2442.0005 
   42800    269.09373   -25495.324    115.50489   -25610.829    -2502.586 
   43000    317.82741   -25479.227    136.42317    -25615.65    5689.6063 
   43200     286.3325   -25498.859     122.9044   -25621.764   -2752.0383 
   43400     321.4226   -25482.631    137.96636   -25620.598     1240.957 
   43600    314.39964   -25479.812    134.95185   -25614.764    4091.6076 
   43800    304.75668   -25492.908    130.81273   -25623.721    5.9674596 
   44000     283.0516   -25488.728    121.49612   -25610.225    657.13111 
   44200    349.31546   -25456.021      149.939    -25605.96    -3391.336 
   44400    282.75412   -25487.521    121.36843   -25608.889    2965.2578 
   44600     314.8935   -25484.404    135.16383   -25619.567   -5181.7619 
   44800    297.03958   -25477.929    127.50027   -25605.429    1302.5525 
   45000    323.67473   -25472.086    138.93306   -25611.019    3981.1041 
   45200    281.01056   -25496.208    120.62003   -25616.828    805.55165 
   45400    294.70571   -25473.054    126.49849   -25599.552    -7742.749 
   45600    295.89735   -25475.396    127.00999   -25602.406    197.56013 
   45800    296.51461   -25500.424    127.27494   -25627.699   -1252.5785 
   46000    296.48875   -25497.107    127.26384   -25624.371    3172.5736 
   46200     308.2873   -25484.781    132.32821   -25617.109   -2958.6415 
   46400    302.30191   -25482.123    129.75906   -25611.882    6634.0723 
   46600    295.88064   -25482.321    127.00281   -25609.324   -786.02457 
   46800    284.09952    -25503.35    121.94593   -25625.296   -1234.0112 
   47000    295.26689   -25479.005    126.73937   -25605.744    944.05579 
   47200    292.25628   -25481.144    125.44711   -25606.591     574.3658 
   47400    297.28969   -25490.845    127.60763   -25618.453    4943.8575 
   47600    303.40219   -25478.896    130.23134   -25609.127    229.50546 
   47800    260.49936   -25488.078    111.81587   -25599.894   -625.18914 
   48000    292.83345   -25497.322    125.69485   -25623.016    1693.4126 
   48200    295.75371   -25470.219    126.94833   -25597.167    546.41145 
   48400    293.15665   -25489.549    125.83358   -25615.383     3278.499 
   48600    270.54062   -25512.528    116.12595   -25628.654    4109.6885 
   48800    298.09863   -25483.405    127.95486    -25611.36   -2069.8823 
   49000    317.11767   -25479.562    136.11852    -25615.68    915.37445 
   49200    287.25691   -25494.094    123.30119   -25617.395    3581.1626 
   49400    315.37514   -25487.492    135.37057   -25622.862    -5483.541 
   49600    312.80264   -25468.512    134.26635   -25602.778   -3591.1573 
   49800     288.7354   -25497.583    123.93582   -25621.519    -536.6091 
   50000    278.87256   -25483.787    119.70232    -25603.49    24.540536 
   50200    330.65203   -25472.755    141.92797   -25614.683    1881.2673 
   50400    302.42123   -25488.409    129.81028   -25618.219   -207.51886 
   50600    320.24116   -25476.596    137.45924   -25614.055   -3447.5446 
   50800    302.00737   -25488.592    129.63263   -25618.224   -6638.2849 
   51000    290.94174   -25494.473    124.88286   -25619.356   -1373.8643 
   51200    332.35019   -25464.484    142.65688   -25607.141    1793.6971 
   51400    292.94984   -25485.013    125.74481   -25610.758    843.50504 
   51600    273.39882   -25486.653    117.35279   -25604.006   -116.54416 
   51800    318.74307   -25471.743    136.81621   -25608.559    2389.1315 
   52000    283.93745   -25496.211    121.87636   -25618.087    7163.9382 
   52200    294.21515   -25482.972    126.28792   -25609.259   -1198.6327 
   52400    289.17017   -25495.536    124.12243   -25619.659    4734.0922 
   52600     271.4481   -25502.863    116.51547   -25619.378   -3220.0762 
   52800    297.02129   -25483.502    127.49242   -25610.994    2175.5662 
   53000    295.15161   -25481.504    126.68989   -25608.194   -403.02715 
   53200    269.75317   -25508.384    115.78795   -25624.172   -1356.5166 
   53400    296.38812    -25484.74    127.22064    -25611.96    1079.0008 
   53600      305.088   -25486.682    130.95495   -25617.637    578.49034 
   53800    299.59097   -25490.425    128.59542    -25619.02    1986.8547 
   54000    319.01491   -25462.209    136.93289   -25599.142   -1391.2379 
   54200     313.5151   -25493.158    134.57217   -25627.731   -3462.0213 
   54400    278.27927   -25486.518    119.44766   -25605.966   -4681.0788 
   54600    334.48729   -25470.076     143.5742   -25613.651    3680.4086 
   54800    268.81783   -25505.594    115.38646    -25620.98   -4867.8906 
   55000    308.46575   -25487.924     132.4048   -25620.329    318.17021 
   55200    327.60147   -25463.282    140.61856   -25603.901   -2196.7881 
   55400    305.39868   -25453.921    131.08831    -25585.01   -7087.9352 
   55600    305.53115   -25488.386    131.14517   -25619.531   -4210.2072 
   55800    279.17252    -25486.83    119.83108   -25606.661   -3370.5658 
   56000    340.85452   -25462.876    146.30725   -25609.183    3313.5614 
   56200    307.33687   -25480.637    131.92025   -25612.558    3393.9282 
   56400    272.81047   -25508.866    117.10025   -25625.966    2135.1924 
   56600    278.62796   -25501.641    119.59733   -25621.238    2832.4789 
   56800     311.5146   -25482.938    133.71348   -25616.652    763.68797 
   57000    257.79409   -25492.609    110.65467   -25603.264   -4663.6893 
   57200    268.91475   -25504.587    115.42807   -25620.015    3028.9432 
   57400    324.55181   -25469.855    139.30953   -25609.164   -2276.5651 
   57600    308.95823    -25490.82    132.61619   -25623.436    1201.1872 
   57800    297.06777   -25496.863    127.51237   -25624.376    1259.2695 
   58000    301.30505   -25470.022    129.33117   -25599.354    99.890042 
   58200    295.71758   -25487.222    126.93282   -25614.154    -2714.537 
   58400     289.8223    -25491.34    124.40235   -25615.742   -6557.5518 
   58600      323.249   -25462.311    138.75032   -25601.062    706.62294 
   58800    253.75272   -25494.533    108.91997   -25603.453   -4017.9213 
   59000    282.95356   -25481.591    121.45404   -25603.045     1312.846 
   59200    338.98325   -25464.134    145.50403   -25609.638   -2562.9523 
   59400    286.82925   -25496.997    123.11763   -25620.114    6752.2608 
   59600    321.34032   -25478.775    137.93104   -25616.706    317.01385 
   59800    316.96694   -25478.456    136.05382    -25614.51    2182.1398 
   60000    290.02188   -25494.045    124.48802   -25618.533     1689.142 
   60200    341.13789   -25467.857    146.42889   -25614.286   -3213.8868 
   60400    320.53459   -25485.732    137.58519   -25623.317    7410.4599 
   60600    286.77209   -25493.844    123.09309   -25616.937   -1927.7755 
   60800    327.08439   -25461.979    140.39661   -25602.375    3836.0363 
   61000     283.8711   -25486.759    121.84788   -25608.607   -577.83978 
   61200    297.11662   -25486.382    127.53334   -25613.915    6156.1506 
   61400    331.85065   -25452.652    142.44246   -25595.094    4203.6517 
   61600    303.84651   -25483.176    130.42206   -25613.598   -11327.795 
   61800    302.58257   -25492.701    129.87953    -25622.58   -5235.4042 
   62000    311.71371   -25479.001    133.79895     -25612.8    2149.4066 
   62200     289.8751   -25476.944    124.42501   -25601.369   -2329.6398 
   62400    284.67162   -25495.543    122.19149   -25617.734    -539.6635 
   62600    287.88597   -25482.098    123.57121   -25605.669    -1689.615 
   62800    320.64253   -25472.866    137.63152   -25610.497    986.33543 
   63000    269.79692   -25504.269    115.80673   -25620.076   -741.17934 
   63200     304.5376   -25475.165     130.7187   -25605.884    5793.5156 
   63400    300.70528   -25487.167    129.07373   -25616.241     3506.103 
   63600    250.49157   -25510.516    107.52016   -25618.036   -4302.7475 
   63800    318.87491   -25479.013     136.8728   -25615.885    853.00403 
   64000    265.19836    -25494.35    113.83286   -25608.183    2726.4842 
   64200    325.51235   -25477.462    139.72183   -25617.184    3234.6591 
   64400     326.6767   -25470.505    140.22161   -25610.727    1786.0537 
   64600    291.41936   -25498.371    125.08787   -25623.459   -3135.3421 
   64800    307.50699   -25488.513    131.99327   -25620.506    3508.1589 
   65000    306.54554   -25471.108    131.58058   -25602.689    4755.5903 
   65200    311.70777   -25489.243     133.7964    -25623.04    3373.7477 
   65400    341.02414   -25461.888    146.38006   -25608.268    72.141534 
   65600     337.7693   -25473.036    144.98296   -25618.019   -22.748082 
   65800    290.03026   -25493.533    124.49161   -25618.025   -12059.631 
   66000    323.78008   -25477.921    138.97828   -25616.899    826.32387 
   66200    308.05538   -25473.331    132.22866    -25605.56   -383.46083 
   66400    294.13063   -25491.161    126.25164   -25617.413    6552.2332 
   66600    308.15085   -25476.051    132.26964   -25608.321   -7143.8178 
   66800    275.49665   -25507.268    118.25326   -25625.522   -2547.4336 
   67000    315.35063   -25482.149    135.36005   -25617.509    2799.5135 
   67200     307.1615   -25478.876    131.84497   -25610.721   -568.47819 
   67400    255.80424     -25505.7    109.80055     -25615.5   -1533.3233 
   67600    266.95636   -25487.407    114.58745   -25601.994    6838.3118 
   67800    303.89383   -25476.747    130.44237   -25607.189   -7586.4995 
   68000    288.82581   -25489.562    123.97462   -25613.537    818.77545 
   68200    327.01406   -25477.325    140.36642   -25617.692    8898.5133 
   68400    261.58714   -25492.963    112.28279   -25605.246   -285.45132 
   68600    318.86682   -25477.909    136.86932   -25614.779     4456.893 
   68800    280.49316   -25494.193    120.39794   -25614.591    1331.2517 
   69000    273.04609   -25495.895    117.20139   -25613.097   -273.36808 
   69200    317.62684   -25475.351    136.33708   -25611.688    -4434.842 
   69400    280.29437   -25502.711    120.31261   -25623.023   -6539.8363 
   69600    276.74807    -25485.04    118.79042    -25603.83   -5573.3966 
   69800    308.77857   -25484.506    132.53908   -25617.045   -5768.0916 
   70000    307.97487   -25492.483     132.1941   -25624.677    -5911.839 
   70200    322.84163   -25490.804    138.57546   -25629.379     3772.471 
   70400    334.87127   -25461.861    143.73902     -25605.6   -487.59229 
   70600    284.33397   -25479.548    122.04656   -25601.595   -883.31993 
   70800    299.36518   -25478.134    128.49851   -25606.632    11093.665 
   71000    288.32763   -25495.783    123.76079   -25619.543    9920.7161 
   71200    305.32981   -25495.676    131.05874   -25626.735   -2603.5353 
   71400    348.58339   -25466.292    149.62477   -25615.917   -5089.3405 
   71600    300.79704   -25475.695    129.11311   -25604.808    2514.7223 
   71800      293.826   -25491.083    126.12089   -25617.204   -536.70104 
   72000    320.70598    -25467.43    137.65876   -25605.088     934.8727 
   72200    275.04534     -25478.8    118.05954   -25596.859    2192.9464 
   72400    298.27739   -25495.675    128.03159   -25623.707    -1370.855 
   72600    305.40412   -25468.312    131.09064   -25599.402    3047.3335 
   72800    297.56432   -25478.927    127.72551   -25606.653    1382.1281 
   73000    284.54613    -25498.08    122.13762   -25620.218   -7661.5559 
   73200    298.76665   -25484.875     128.2416   -25613.117   -11015.064 
   73400    338.96415   -25465.449    145.49584   -25610.945   -3075.7233 
   73600    269.65498   -25495.947     115.7458   -25611.693    2375.6892 
   73800    319.32395   -25479.805    137.06554   -25616.871   -183.41846 
   74000    288.81882   -25497.354    123.97162   -25621.325    1558.8923 
   74200    294.42366   -25491.408    126.37743   -25617.785    1691.8844 
   74400    323.04765    -25471.05    138.66389   -25609.714   -4081.1062 
   74600    281.94737   -25488.823    121.02214   -25609.845    1585.4891 
   74800      311.214   -25480.368    133.58445   -25613.953     1987.267 
   75000    307.15611   -25484.159    131.84266   -25616.002   -10540.616 
   75200    300.44728    -25486.96    128.96298   -25615.923    886.02302 
   75400    318.67138   -25461.436    136.78543   -25598.222   -2710.6495 
   75600    303.29684   -25496.465    130.18612   -25626.651    4811.5721 
   75800    316.08639   -25476.834    135.67586    -25612.51   -2941.4032 
   76000    305.84392   -25479.443    131.27942   -25610.723    1193.7316 
   76200    278.04346   -25511.481    119.34644   -25630.827   -1622.6226 
   76400    318.54217   -25488.306    136.72997   -25625.036    472.64187 
   76600    330.27695   -25473.903    141.76697    -25615.67    121.23829 
   76800    273.57886    -25486.67    117.43007     -25604.1   -1916.0476 
   77000    273.26072   -25482.735    117.29351   -25600.029   -8182.9907 
   77200    329.07768   -25479.174     141.2522   -25620.426    2550.8007 
   77400    289.13417   -25500.436    124.10698   -25624.543    1068.1446 
   77600    332.34385   -25471.854    142.65416   -25614.509   -460.34789 
   77800    320.67368   -25472.602     137.6449   -25610.247   -559.22619 
   78000    277.34735    -25500.98    119.04765   -25620.028   -8219.3843 
   78200    313.65457    -25476.05    134.63204   -25610.682    5032.7855 
   78400    314.99389    -25488.03    135.20692   -25623.237    5254.5436 
   78600    295.12404   -25493.601    126.67805   -25620.279   -8454.8567 
   78800    323.01381   -25478.492    138.64937   -25617.141   -5793.8093 
   79000    337.88421   -25466.522    145.03228   -25611.554    357.98427 
   79200    301.20274   -25464.991    129.28725   -25594.278   -1067.7085 
   79400    293.39992   -25488.704      125.938   -25614.642   -545.36365 
   79600     286.8485   -25475.718    123.12589   -25598.844   -7173.1007 
   79800    327.72112   -25471.182    140.66992   -25611.852    1839.1935 
   80000    297.17104   -25497.393     127.5567    -25624.95    1423.8498 
   80200    309.49844   -25471.327    132.84807   -25604.175    -862.9481 
   80400    337.50046   -25474.244    144.86757   -25619.112   -2352.5323 
   80600    306.00604   -25489.642    131.34901   -25620.991   -2205.0344 
   80800    316.12782   -25475.324    135.69365   -25611.017   -6102.2104 
   81000    332.25997   -25480.117    142.61816   -25622.735    -1150.746 
   81200    288.93862   -25489.775    124.02304   -25613.798    3609.6941 
   81400    340.06012   -25460.168    145.96627   -25606.134    1767.8893 
   81600    293.20173   -25490.967    125.85293    -25616.82    790.27223 
   81800    291.32613   -25492.307    125.04785   -25617.355    448.63629 
   82000    316.98432    -25469.06    136.06129   -25605.121    2274.3537 
   82200    286.42229   -25494.109    122.94294   -25617.052    2484.0094 
   82400    304.99067   -25489.687    130.91317   -25620.601    1999.1189 
   82600    332.18959   -25463.252    142.58795    -25605.84   -5524.2108 
   82800    288.05923    -25492.19    123.64558   -25615.835    6257.8322 
   83000    299.62133    -25488.36    128.60846   -25616.969    37.961883 
   83200    309.36947    -25472.62    132.79271   -25605.413   -4159.5595 
   83400     286.3422   -25483.045    122.90857   -25605.954    9746.4543 
   83600    330.72816   -25461.346    141.96065   -25603.306    634.27787 
   83800    290.87089   -25476.257    124.85245    -25601.11    3118.4151 
   84000    273.83803   -25491.427    117.54132   -25608.968    1269.9361 
   84200    333.32622   -25459.489    143.07583   -25602.564   -7614.9343 
   84400    290.78475   -25485.804    124.81547   -25610.619   -1402.5796 
   84600    281.76219   -25487.963    120.94266   -25608.906    -4077.262 
   84800    305.40711     -25474.1    131.09192   -25605.192   -7569.5531 
   85000    262.37545   -25503.281    112.62116   -25615.902    528.91586 
   85200     277.9153   -25482.529    119.29143    -25601.82    1718.2397 
   85400    309.28056   -25478.865    132.75455    -25611.62    4340.2099 
   85600    283.41097   -25499.655    121.65038   -25621.305   -1302.8106 
   85800    311.87719   -25462.802    133.86912   -25596.671    3698.4312 
   86000    300.85513   -25479.691    129.13805   -25608.829   -5938.2742 
   86200    312.80759    -25499.21    134.26848   -25633.478     5194.917 
   86400    296.09633   -25468.626     127.0954   -25595.721   -722.67144 
   86600    303.07187   -25478.178    130.08955   -25608.268   -6566.7367 
   86800    311.49268   -25484.696    133.70407     -25618.4    2218.8038 
   87000    315.07318   -25476.567    135.24095   -25611.808     2395.614 
   87200    311.88584   -25481.549    133.87283   -25615.422    1208.8716 
   87400    278.52715   -25494.876    119.55406    -25614.43    440.36816 
   87600    338.90548   -25472.504    145.47065   -25617.974    931.26277 
   87800    316.95845   -25492.543    136.05018   -25628.593    7449.1643 
   88000    272.97823   -25491.909    117.17226   -25609.082   -7324.1061 
   88200    295.64575   -25477.476    126.90199   -25604.378   -4240.9739 
   88400    289.84284   -25498.328    124.41117   -25622.739    6304.1126 
   88600    316.84447   -25470.222    136.00126   -25606.224    -11704.82 
   88800    320.81349   -25479.701    137.70491   -25617.406    -5331.673 
   89000    278.74356   -25504.505    119.64695   -25624.152    382.12416 
   89200    296.38294   -25491.858    127.21842   -25619.077   -3134.9087 
   89400    306.44859   -25472.979    131.53896   -25604.518    2087.4145 
   89600    292.42589   -25501.736    125.51991   -25627.256   -5384.0791 
   89800    280.96168   -25492.326    120.59905   -25612.925   -3375.5416 
   90000     286.0807   -25482.809    122.79632   -25605.605    7762.2945 
   90200    298.89724   -25478.223    128.29765   -25606.521    806.57822 
   90400    265.67229   -25498.661    114.03628   -25612.697    356.42982 
   90600     339.7261   -25479.514    145.82289   -25625.337   -478.68287 
   90800    279.43237    -25499.32    119.94261   -25619.263    1368.7221 
   91000    273.72395   -25491.465    117.49235   -25608.957    3067.0675 
   91200    297.49073    -25468.21    127.69393   -25595.904   -682.93279 
   91400    310.25816   -25490.835    133.17417   -25624.009    1880.5435 
   91600    269.46702   -25498.314    115.66512   -25613.979   -6482.2656 
   91800    317.12536   -25471.372    136.12183   -25607.494    1623.8085 
   92000    304.21129   -25478.246    130.57863   -25608.825    2353.3141 
   92200    329.47807     -25482.1    141.42406   -25623.524    -4227.841 
   92400    319.48345   -25482.788    137.13401   -25619.922   -1626.7095 
   92600    258.50303   -25511.726    110.95898   -25622.685   -5990.0248 
   92800    309.04199   -25487.988    132.65215    -25620.64     7147.021 
   93000    296.08406   -25484.959    127.09013    -25612.05    -1915.549 
   93200    304.87182   -25484.086    130.86216   -25614.948    5712.3667 
   93400     273.4729   -25491.719    117.38459   -25609.104   -7164.0375 
   93600    318.69846   -25466.946    136.79706   -25603.743   -2115.9706 
   93800    311.06266   -25493.986    133.51949   -25627.505    384.04939 
   94000    284.95729   -25500.881    122.31411   -25623.195   -3002.0041 
   94200    311.59531   -25477.648    133.74813   -25611.396   -1573.5364 
   94400    273.93618   -25496.969    117.58345   -25614.553    1420.2603 
   94600    287.51463   -25492.896    123.41181   -25616.307    707.07531 
   94800    318.03562    -25474.61    136.51254   -25611.122   -1263.9426 
   95000    296.89877   -25499.023    127.43983   -25626.463    3470.8791 
   95200    284.61387   -25496.982     122.1667   -25619.148    852.95488 
   95400    298.64705   -25477.158    128.19026   -25605.348   -4002.9689 
   95600    329.09675    -25456.17    141.26039   -25597.431    397.27378 
   95800    290.28495   -25489.672    124.60094   -25614.273    4419.8019 
   96000    296.32088   -25499.019    127.19178    -25626.21   -1181.7764 
   96200     307.9794   -25472.672    132.19605   -25604.868    9755.7161 
   96400    312.24301   -25477.883    134.02614   -25611.909   -262.80087 
   96600    305.77698   -25488.638    131.25069   -25619.889    2638.3574 
   96800    288.43106   -25481.292    123.80518   -25605.097   -4049.8141 
   97000    302.32592   -25506.162    129.76937   -25635.931   -3146.6701 
   97200    298.85551   -25509.932    128.27974   -25638.212   -5006.7595 
   97400    290.65879   -25488.926     124.7614   -25613.687    5704.6679 
   97600    330.82265   -25470.724    142.00121   -25612.725   -3312.5438 
   97800    270.98745   -25487.798    116.31775   -25604.116   -3313.0721 
   98000     309.6813   -25483.951    132.92656   -25616.877   -3871.3862 
   98200    302.49129   -25479.384    129.84035   -25609.224    4352.2517 
   98400    282.96189    -25477.11    121.45761   -25598.567    3078.4438 
   98600    281.93967   -25496.628    121.01884   -25617.647   -3137.6942 
   98800     283.3115   -25482.092    121.60768   -25603.699    618.88777 
   99000     309.3785   -25485.312    132.79659   -25618.109   -5915.4181 
   99200    334.94325   -25461.023    143.76992   -25604.793   -2956.9127 
   99400    310.15214     -25486.5    133.12867   -25619.629   -2868.1792 
   99600    278.01159    -25502.16    119.33276   -25621.493   -11.202231 
   99800    338.24336   -25465.287    145.18645   -25610.473   -4986.8566 
  100000    292.15205   -25481.861    125.40237   -25607.264   -8103.4877 
  100200    309.90997   -25491.179    133.02472   -25624.203   -630.59974 
  100400    323.91491   -25463.846    139.03615   -25602.882    7826.7532 
  100600    299.72171   -25488.976    128.65154   -25617.627   -13.106505 
  100800     280.4872   -25480.308    120.39539   -25600.704   -6041.2965 
  101000    298.50075   -25480.775    128.12746   -25608.903    6541.1437 
  101200    277.68764   -25491.574    119.19371   -25610.767    -3182.266 
  101400    347.02699    -25467.04     148.9567   -25615.996    7813.2761 
  101600    263.04663   -25496.286    112.90925   -25609.195    6496.0483 
  101800    274.48294   -25506.615    117.81814   -25624.433   -964.85471 
  102000    335.09233   -25469.898    143.83391   -25613.732    506.88802 
  102200    294.35089   -25491.111    126.34619   -25617.457    1350.3684 
  102400    318.06371    -25478.88     136.5246   -25615.404     917.2707 
  102600    315.24565    -25471.27    135.31499   -25606.585   -9393.8017 
  102800    269.67242   -25495.504    115.75329   -25611.257   -8385.7903 
  103000    324.00213   -25471.499    139.07359   -25610.572   -3355.9416 
  103200    287.59719   -25497.436    123.44725   -25620.884    5620.6212 
  103400    309.12457   -25480.959    132.68759   -25613.646   -563.04836 
  103600    313.06221   -25474.184    134.37777   -25608.561   -589.78967 
  103800     287.2343   -25496.953    123.29149   -25620.245   -3946.8061 
  104000    303.57785   -25488.534    130.30674   -25618.841   -2759.1381 
  104200    342.49265   -25455.084     147.0104   -25602.095    3840.0826 
  104400    278.96234    -25474.29    119.74086    -25594.03   -8411.5899 
  104600    290.08301   -25490.738    124.51426   -25615.252    3151.5249 
  104800     322.4404   -25487.665    138.40323   -25626.068   -3436.0862 
  105000    330.55789   -25469.009    141.88756   -25610.896   -1538.3131 
  105200    301.72343   -25498.753    129.51076   -25628.263    18.013938 
  105400    301.82919   -25480.237    129.55615   -25609.793    3212.7664 
  105600    319.36651   -25485.287    137.08381   -25622.371    3140.0066 
  105800    277.47454   -25490.706    119.10224   -25609.808   -4433.3193 
  106000    289.89411   -25474.431    124.43318   -25598.864    3179.2626 
  106200    256.27561   -25495.931    110.00288   -25605.934   -592.95631 
  106400    326.74222   -25458.077    140.24973   -25598.327   -5677.7491 
  106600    325.97837   -25470.348    139.92186   -25610.269   -2228.5969 
  106800    264.83854    -25492.92    113.67841   -25606.598    5079.8747 
  107000    334.04116   -25470.976    143.38271   -25614.359   -2544.6811 
  107200    311.15336   -25474.681    133.55842    -25608.24   -1389.4486 
  107400    289.51001   -25489.856    124.26831   -25614.124   -6596.3336 
  107600    264.91793   -25505.903    113.71248   -25619.615    116.37629 
  107800    310.78395   -25481.502    133.39986   -25614.902   -288.31994 
  108000    287.16748   -25481.424    123.26281   -25604.687   -8578.1966 
  108200    278.10019   -25508.936     119.3708   -25628.307     4347.248 
  108400    319.59078   -25480.424    137.18008   -25617.604     967.7396 
  108600    307.36337   -25486.293    131.93162   -25618.224    2078.2799 
  108800    348.41966   -25456.262    149.55449   -25605.817    2239.4262 
  109000    300.44578   -25489.048    128.96234   -25618.011   -2052.6393 
  109200    321.55433   -25490.973     138.0229   -25628.996   -9394.4371 
  109400    275.61171   -25503.287    118.30265    -25621.59   -9300.7388 
  109600    285.83384   -25470.053    122.69036   -25592.743   -8699.6035 
  109800    286.74634   -25491.272    123.08204   -25614.354    1618.7143 
  110000    323.76891   -25475.658    138.97348   -25614.632   -5765.7129 
  110200    299.72314   -25471.878    128.65215    -25600.53    2041.2731 
  110400    317.63478   -25488.961    136.34049   -25625.301    -3345.605 
  110600    288.07663   -25507.449    123.65305   -25631.102    1905.1931 
  110800    280.86818   -25510.133    120.55891   -25630.692   -3698.9842 
  111000    289.76867   -25487.337    124.37933   -25611.716   -4900.8545 
  111200    332.69996    -25463.38    142.80702   -25606.187    3370.1574 
  111400    313.42591   -25485.705    134.53389   -25620.239   -427.08786 
  111600    285.37319   -25490.547    122.49263    -25613.04    7603.3774 
  111800    294.19421   -25470.659    126.27893   -25596.938    4010.6239 
  112000    289.91311   -25501.295    124.44133   -25625.737   -3458.6037 
  112200    293.13096    -25493.03    125.82255   -25618.852   -3202.2217 
  112400    285.87049   -25470.598    122.70609   -25593.304    1845.0084 
  112600    326.61337   -25452.048    140.19443   -25592.242   -325.99602 
  112800    296.02774   -25484.968    127.06596   -25612.034   -4029.0197 
  113000     282.4594   -25502.715    121.24192   -25623.957    6124.5571 
  113200    303.99561   -25472.895    130.48606   -25603.381   -3643.6777 
  113400     297.1219   -25490.329    127.53561   -25617.865   -2157.9514 
  113600    257.06908   -25506.142    110.34347   -25616.485   -4111.4522 
  113800    287.37041   -25471.889    123.34991   -25595.239   -4601.6738 
  114000    290.49123   -25463.816    124.68948   -25588.506   -4303.4419 
  114200    282.38196   -25493.079    121.20869   -25614.288    3136.5015 
  114400    304.45493   -25489.866    130.68321   -25620.549   -70.665743 
  114600    307.65478   -25483.631     132.0567   -25615.687    787.50934 
  114800    302.47607   -25482.983    129.83381   -25612.817    2074.0697 
  115000    269.19443   -25500.799    115.54811   -25616.347    3352.1052 
  115200    331.13177    -25475.38    142.13389   -25617.514    2103.3664 
  115400    294.55506     -25491.1    126.43383   -25617.534    1301.5285 
  115600    313.47663   -25484.597    134.55566   -25619.153   -2612.8892 
  115800     310.1265   -25484.947    133.11766   -25618.065   -3148.5067 
  116000    286.77374   -25489.684     123.0938   -25612.778    487.11698 
  116200    271.86209   -25484.978    116.69317   -25601.671     1274.348 
  116400    345.20979     -25464.8    148.17669   -25612.976   -6985.6163 
  116600    284.87944   -25492.768     122.2807   -25615.048    5473.4866 
  116800    311.19191   -25486.138    133.57497   -25619.713    -2473.341 
  117000    277.25784   -25493.024    119.00923   -25612.033   -4559.1248 
  117200    296.46772   -25501.584    127.25481   -25628.839   -5032.2329 
  117400    315.67626   -25483.538    135.49982   -25619.037    3533.9245 
  117600    308.28283   -25475.899    132.32629   -25608.225   -1474.5056 
  117800    292.45344   -25491.526    125.53173   -25617.058    1923.4333 
  118000    292.58155   -25486.723    125.58672    -25612.31   -1300.2845 
  118200    310.38685   -25487.591    133.22941    -25620.82    1113.1023 
  118400    286.01684   -25495.578    122.76891   -25618.347   -5601.3886 
  118600    315.36138   -25481.519    135.36466   -25616.884    3971.2293 
  118800    314.23192   -25468.774    134.87986   -25603.654   -7247.8102 
  119000    320.44176   -25471.709    137.54535   -25609.254   -1819.4619 
  119200    286.67117   -25484.865    123.04977   -25607.915   -2803.2329 
  119400    311.84193    -25485.56    133.85398   -25619.414    4966.7698 
  119600    246.76014   -25504.944     105.9185   -25610.863    -2477.164 
  119800    322.18732   -25479.233    138.29461   -25617.527   -818.60014 
  120000    284.69259   -25488.163    122.20049   -25610.364    5238.5203 
  120200    333.75484   -25476.712    143.25981   -25619.972   -1103.4201 
  120400    300.30223   -25489.583    128.90072   -25618.484    670.98729 
  120600    297.31013   -25490.646     127.6164   -25618.263   -7633.9862 
  120800    338.71114   -25465.648    145.38723   -25611.036   -4621.3816 
  121000     315.2237   -25491.516    135.30557   -25626.821   -669.06906 
  121200    288.78122   -25487.952    123.95548   -25611.908   -534.01854 
  121400    285.34464   -25470.674    122.48038   -25593.154    266.33263 
  121600    307.86749    -25487.62    132.14801   -25619.768    -2669.333 
  121800    286.80883   -25478.813    123.10886   -25601.922    2349.4891 
  122000    304.34554   -25479.474    130.63626    -25610.11    2571.4576 
  122200    334.56697   -25481.282    143.60841   -25624.891    3667.1196 
  122400    280.26976   -25505.515    120.30205   -25625.817   -3841.1446 
  122600    311.20842   -25479.999    133.58206   -25613.582    2998.2821 
  122800     279.2763    -25493.44    119.87562   -25613.316   -1765.0995 
  123000    322.63221   -25480.115    138.48557   -25618.601    5386.0638 
  123200    338.56384   -25475.596    145.32401    -25620.92    4957.4992 
  123400    284.16817   -25484.736    121.97539   -25606.711   -1600.9475 
  123600    294.05655   -25484.982    126.21985   -25611.202    5259.1638 
  123800    347.03256   -25476.455    148.95909   -25625.414    1042.3796 
  124000    288.63209    -25486.12    123.89147   -25610.011     3642.407 
  124200    307.96512   -25485.538    132.18992   -25617.728    134.00253 
  124400    320.68606    -25473.65    137.65021   -25611.301   -1309.3299 
  124600    263.85675   -25499.847    113.25699   -25613.104    3057.7247 
  124800    322.15336   -25484.097    138.28003   -25622.377    484.09563 
  125000    313.77862   -25489.747    134.68528   -25624.432   -609.68231 
  125200    330.52082   -25468.264    141.87165   -25610.136   -306.49727 
  125400    305.25395    -25481.46    131.02618   -25612.486    6053.2635 
  125600    310.29169   -25482.066    133.18856   -25615.255   -3990.5169 
  125800    301.66266   -25475.577    129.48467   -25605.061   -825.44233 
  126000    280.62915   -25488.627    120.45632   -25609.083    7020.1936 
  126200    278.91567   -25500.518    119.72083   -25620.239   -6813.4659 
  126400    327.17349   -25468.138    140.43485   -25608.573   -1717.9933 
  126600    273.20383   -25490.644     117.2691   -25607.913    4123.8412 
  126800       311.39   -25494.946       133.66   -25628.606    1154.7534 
  127000    283.38921    -25496.07    121.64103   -25617.711    2603.8781 
  127200    311.41657   -25468.607     133.6714   -25602.278    641.85334 
  127400    293.17013   -25483.618    125.83937   -25609.457    4263.1831 
  127600     302.7258   -25490.806    129.94101   -25620.747      1009.15 
  127800    304.95608   -25483.721    130.89833    -25614.62   -4898.9193 
  128000    308.87285   -25478.575    132.57955   -25611.155    3660.8887 
  128200    272.25802   -25494.528    116.86312   -25611.391   -450.04873 
  128400    314.91295   -25478.774    135.17218   -25613.946    300.82055 
  128600    329.49665   -25454.744    141.43204   -25596.176     1325.825 
  128800    276.08619    -25492.62    118.50631   -25611.127   -3236.2555 
  129000    301.04376   -25485.279    129.21901   -25614.498   -1379.4311 
  129200    325.22047   -25470.448    139.59654   -25610.044     6222.168 
  129400    281.06116    -25496.98    120.64175   -25617.622   -3092.5238 
  129600    312.59512   -25489.236    134.17728   -25623.414    2253.6492 
  129800    295.91877   -25468.209    127.01918   -25595.228    4679.8653 
  130000    298.67519   -25490.039    128.20234   -25618.242    -5168.637 
  130200    291.89894   -25490.539    125.29372   -25615.833   -3946.5118 
  130400     316.7482   -25462.577    135.95993   -25598.537   -6453.8108 
  130600    305.90818    -25472.81      131.307   -25604.117   -4948.9396 
  130800    280.64708    -25494.73    120.46401   -25615.194    3463.6513 
  131000    325.85819   -25480.756    139.87028   -25620.626   -6790.7989 
  131200    308.71262   -25491.534    132.51077   -25624.045    586.92118 
  131400    274.14316   -25491.971    117.67229   -25609.643     405.0263 
  131600    302.29493    -25474.39    129.75606   -25604.146   -2466.3084 
  131800    287.24961   -25495.071    123.29806   -25618.369    2765.3426 
  132000    294.83905   -25496.704    126.55573    -25623.26   -970.22035 
  132200    301.92048   -25491.209    129.59534   -25620.804   -1302.7039 
  132400    311.41057   -25478.636    133.66883   -25612.305    1157.3091 
  132600     314.2458   -25465.504    134.88581    -25600.39    -4603.462 
  132800     286.0568   -25491.392    122.78606   -25614.178    3983.3649 
  133000    301.34351   -25471.578    129.34768   -25600.926   -4111.4485 
  133200    311.99712   -25480.341     133.9206   -25614.261   -2680.7358 
  133400    284.06333   -25500.696    121.93039   -25622.627    3324.3856 
  133600    306.32787   -25472.824    131.48715   -25604.311    3151.1636 
  133800    266.34916   -25501.011    114.32682   -25615.338   -3593.7165 
  134000    296.30212   -25492.193    127.18373   -25619.376   -5869.1373 
  134200    298.63658    -25477.89    128.18576   -25606.076    2807.7146 
  134400    290.36899   -25494.132    124.63701   -25618.769   -2578.0094 
  134600    295.75628   -25496.703    126.94943   -25623.652   -7349.2556 
  134800      322.814   -25475.634     138.5636   -25614.198    -3769.127 
  135000    269.54869   -25505.774    115.70017   -25621.474    3494.9242 
  135200     298.8567   -25484.601    128.28025   -25612.882     403.1375 
  135400    305.18836   -25482.252    130.99803    -25613.25    3700.0888 
  135600    241.18191   -25513.882    103.52411   -25617.406   -3398.4389 
  135800    291.87039   -25490.718    125.28147   -25615.999      2563.65 
  136000     299.9293   -25478.754    128.74065   -25607.495   -8840.4125 
  136200    261.41153   -25498.867    112.20741   -25611.074    4550.5376 
  136400    306.31271   -25483.586    131.48064   -25615.067    1428.8371 
  136600    303.16534   -25479.929    130.12967   -25610.058    2695.4501 
  136800    280.37529   -25498.715    120.34735   -25619.063    -3830.014 
  137000    295.20415     -25464.5    126.71244   -25591.212   -3397.6843 
  137200    293.09382   -25488.415    125.80661   -25614.221   -1991.6773 
  137400    316.76123   -25484.523    135.96553   -25620.489    7547.6918 
  137600    333.17284   -25446.327    143.00999   -25589.337   -2969.3189 
  137800    327.47593   -25462.149    140.56467   -25602.714    999.08391 
  138000     286.0472   -25489.608    122.78194    -25612.39   -2128.1023 
  138200    303.16607   -25491.775    130.12999   -25621.905   -5187.6798 
  138400    326.01233   -25462.778    139.93644   -25602.714   -3674.3663 
  138600    297.66758   -25485.668    127.76983   -25613.438   -2545.0961 
  138800    298.07151    -25484.31    127.94322   -25612.253   -1339.0487 
  139000    308.20055   -25456.729    132.29097    -25589.02   -9124.3618 
  139200    314.53846   -25472.581    135.01143   -25607.593   -3849.0225 
  139400    268.30463   -25490.938    115.16618   -25606.104   -472.74574 
  139600    327.09204   -25472.991    140.39989   -25613.391   -3113.3298 
  139800    276.61066   -25467.614    118.73143   -25586.345   -9732.5897 
  140000    283.29687   -25482.506     121.6014   -25604.108    1399.6401 
  140200    288.82375   -25487.957    123.97374   -25611.931    681.67602 
  140400     293.6723   -25507.787    126.05491   -25633.842    6382.5314 
  140600    309.51288   -25483.116    132.85427    -25615.97    745.28349 
  140800    308.15644   -25481.707    132.27204   -25613.979   -3072.2313 
  141000    278.76622   -25485.649    119.65668   -25605.305   -405.72986 
  141200    305.76132    -25470.45    131.24396   -25601.694   -3392.1361 
  141400    274.10967   -25502.167    117.65792   -25619.825   -2237.3133 
  141600    299.03327   -25485.448    128.35604   -25613.804   -2706.0144 
  141800    282.51894   -25486.485    121.26748   -25607.752    7690.8433 
  142000    267.43803   -25502.038    114.79421   -25616.832   -4257.7761 
  142200    310.08767   -25478.171    133.10099   -25611.272    2125.2423 
  142400     300.3284   -25478.561    128.91196   -25607.473   -4802.6506 
  142600    279.96386   -25504.653    120.17075   -25624.824    2003.5307 
  142800    268.98275   -25483.669    115.45725   -25599.126    2411.8907 
  143000    296.66245   -25483.749     127.3384   -25611.087   -3110.6463 
  143200    296.82352   -25478.501    127.40753   -25605.909    6073.2877 
  143400    313.75196   -25467.967    134.67384   -25602.641    2931.5738 
  143600    269.79155   -25493.728    115.80442   -25609.532   -3743.9223 
  143800    327.56353   -25469.588    140.60227    -25610.19    2542.4378 
  144000    302.64857    -25494.84    129.90786   -25624.748   -927.26335 
  144200    285.38834   -25496.792    122.49913   -25619.291   -221.95596 
  144400    314.29595   -25486.422    134.90734    -25621.33   -1921.0957 
  144600     322.4592   -25471.981    138.41131   -25610.392    1896.7791 
  144800    286.80001    -25460.58    123.10507   -25583.685   -1063.4301 
  145000    294.27329   -25488.733    126.31288   -25615.046   -6189.8264 
  145200     316.5222   -25485.606    135.86293   -25621.469    1655.3401 
  145400     329.5675   -25463.643    141.46245   -25605.106    256.93644 
  145600    312.72046   -25474.504    134.23108   -25608.735    125.89646 
  145800      314.671   -25488.722    135.06833    -25623.79    593.09618 
  146000    323.95848   -25478.677    139.05485   -25617.732    6389.5924 
  146200     279.8633   -25497.567    120.12759   -25617.694   -4585.5562 
  146400    320.87823   -25468.493    137.73269   -25606.226   -3323.7011 
  146600    305.98086   -25484.167     131.3382   -25615.505   -4362.1213 
  146800    270.23335   -25476.987    115.99406   -25592.981     -1236.58 
  147000    305.32995   -25462.452     131.0588   -25593.511    944.04872 
  147200     275.8352   -25482.369    118.39858   -25600.768    3549.0998 
  147400    307.48258   -25489.078    131.98279   -25621.061   -7336.7238 
  147600    305.68378   -25481.769    131.21068   -25612.979    -7525.705 
  147800    335.73921   -25462.197    144.11157   -25606.308    2127.9921 
  148000    266.63648    -25484.19    114.45015    -25598.64   -1861.1509 
  148200    317.82397   -25475.299    136.42169   -25611.721    1407.4006 
  148400    284.50624   -25502.564    122.12051   -25624.685    2831.4983 
  148600    297.43803   -25480.282     127.6713   -25607.954     566.3944 
  148800    284.84518   -25483.381    122.26599   -25605.647   -3420.8535 
  149000    278.41646   -25490.463    119.50655   -25609.969    7380.9601 
  149200    287.11719   -25480.388    123.24122    -25603.63   -6241.7505 
  149400    301.43753   -25466.542    129.38804    -25595.93    4588.1707 
  149600    302.66915   -25498.975    129.91669   -25628.891    1732.3378 
  149800    300.06016   -25489.799    128.79682   -25618.596    2375.5671 
  150000     348.3995   -25454.885    149.54583   -25604.431     3996.937 
  150200    288.48937    -25476.53    123.83021    -25600.36    2438.6984 
  150400    278.96409   -25492.799    119.74161   -25612.541   -9283.0344 
  150600    268.62599     -25515.2    115.30412   -25630.504    3148.7735 
  150800    285.55071   -25495.601    122.56883   -25618.169    396.95417 
  151000    301.47526   -25479.723    129.40423   -25609.127   -5840.1433 
  151200    318.06867   -25469.083    136.52673    -25605.61    5562.7927 
  151400    259.14445   -25502.932     111.2343   -25614.166   -982.78078 
  151600    291.28085   -25477.516    125.02841   -25602.545   -5848.7161 
  151800    313.68008   -25481.065    134.64299   -25615.708    1766.9862 
  152000     277.2298   -25491.131    118.99719   -25610.128   -6858.0884 
  152200    311.55112   -25479.464    133.72916   -25613.193   -2280.8024 
  152400    281.26517   -25478.406    120.72932   -25599.136    1135.6645 
  152600    298.55413   -25494.458    128.15037   -25622.608    4200.9087 
  152800    274.36177   -25508.485    117.76613   -25626.252    897.50101 
  153000    306.28111   -25478.209    131.46708   -25609.676   -2182.4191 
  153200    273.99479   -25491.988     117.6086   -25609.597   -367.90655 
  153400    303.22216   -25482.505    130.15406   -25612.659   -262.28447 
  153600    304.27198   -25467.891    130.60469   -25598.496   -269.07701 
  153800    290.54647    -25499.52    124.71319   -25624.233   -4717.4113 
  154000    299.28911   -25483.101    128.46585   -25611.567   -7030.0332 
  154200    311.63961   -25480.041    133.76714   -25613.808    6521.3563 
  154400    257.25997   -25493.912    110.42541   -25604.338    2211.5784 
  154600    351.59379   -25454.835    150.91694   -25605.752    485.98371 
  154800    281.54165   -25478.818    120.84799   -25599.666     243.6064 
  155000    293.77973   -25487.532    126.10103   -25613.633   -5740.0045 
  155200    294.63845   -25509.902    126.46962   -25636.371   -3609.4505 
  155400    338.70629   -25475.436    145.38515   -25620.821    5314.4231 
  155600    289.62008   -25494.157    124.31555   -25618.472   -6198.1635 
  155800    307.63903   -25476.556    132.04995   -25608.606    5068.7376 
  156000    297.20154   -25463.067    127.56979   -25590.637    6203.5404 
  156200     316.2527   -25476.993    135.74725    -25612.74   -5059.0099 
  156400     305.7703   -25499.002    131.24782    -25630.25   -688.83467 
  156600    318.76498   -25463.884    136.82561    -25600.71   -218.97727 
  156800    309.33846   -25483.835     132.7794   -25616.615   -9834.0906 
  157000    317.71284   -25484.821      136.374   -25621.195     6181.162 
  157200    302.04288   -25471.058    129.64787   -25600.706   -8069.0919 
  157400    314.91242   -25483.134    135.17195   -25618.306    1799.2274 
  157600    307.46321    -25493.61    131.97448   -25625.584    5134.0686 
  157800    294.25135   -25500.504    126.30346   -25626.808   -4555.2067 
  158000    303.61756   -25473.786    130.32378    -25604.11   -1965.8685 
  158200     307.3961   -25493.642    131.94567   -25625.587    4015.5613 
  158400    322.11229    -25475.38     138.2624   -25613.643   -215.17601 
  158600    302.20034   -25478.161    129.71546   -25607.877   -11656.191 
  158800    311.65086   -25492.439    133.77197   -25626.211   -4198.8052 
  159000    318.39678   -25470.273    136.66757    -25606.94    2210.8927 
  159200    291.60626   -25495.354    125.16809   -25620.523    5258.6971 
  159400    325.85552   -25481.118    139.86913   -25620.987    1114.6725 
  159600    288.60455   -25480.476    123.87965   -25604.356   -5181.0065 
  159800    267.42221   -25504.087    114.78741   -25618.874    1621.1642 
  160000    289.41145   -25500.552      124.226   -25624.778   -412.56741 
  160200    319.89759   -25480.476    137.31177   -25617.788   -13314.933 
  160400    289.04657     -25483.5    124.06938    -25607.57    342.79234 
  160600    276.96131   -25492.567    118.88194   -25611.449   -1439.8323 
  160800    308.16364   -25471.028    132.27513   -25603.304    2061.7524 
  161000    304.46968    -25483.72    130.68955    -25614.41    348.17708 
  161200    297.83158   -25492.376    127.84023   -25620.216   -3745.2328 
  161400    293.64663   -25479.245     126.0439   -25605.289   -10001.991 
  161600    367.17673   -25438.532    157.60571   -25596.138   -184.41362 
  161800    310.19893   -25476.916    133.14875   -25610.065    4819.5737 
  162000    289.36734   -25485.385    124.20707   -25609.592   -4531.2816 
  162200    312.53052   -25491.635    134.14955   -25625.784   -1646.9527 
  162400    295.02574   -25498.251    126.63586   -25624.887   -6231.1577 
  162600    328.06612   -25470.995      140.818   -25611.813    -3785.183 
  162800    295.54083    -25485.26    126.85695   -25612.117    5039.2053 
  163000    299.47902   -25486.813    128.54737    -25615.36   -3504.3172 
  163200    308.75414   -25473.736    132.52859   -25606.265   -2214.0529 
  163400    328.25883   -25458.592    140.90072   -25599.492   -647.91637 
  163600    289.68068   -25492.937    124.34157   -25617.279    8088.4507 
  163800    288.28648   -25476.894    123.74312   -25600.637    2107.2007 
  164000    325.83609   -25451.136    139.86079   -25590.996    1524.4944 
  164200    305.43255   -25490.269    131.10284   -25621.371    1793.8409 
  164400    299.63339   -25485.914    128.61363   -25614.527    1878.5494 
  164600    311.56209   -25478.727    133.73387   -25612.461   -9010.7631 
  164800    285.78306    -25496.74    122.66856   -25619.408   -1932.7758 
  165000    317.02481   -25479.816    136.07867   -25615.895     3543.728 
  165200     271.0835   -25493.846    116.35897   -25610.205   -1906.6661 
  165400    276.41114   -25506.013    118.64579   -25624.659    6050.2096 
  165600    293.94121   -25472.195    126.17034   -25598.365   -4431.7966 
  165800    313.86356   -25481.117    134.72174   -25615.839    3972.2852 
  166000    270.51128   -25500.026    116.11335   -25616.139    528.13673 
  166200    325.95942   -25476.491    139.91373   -25616.405    6965.4111 
  166400    291.03422   -25488.892    124.92255   -25613.815     -6105.15 
  166600    257.05415   -25517.125    110.33706   -25627.462   -2743.4724 
  166800     297.2403    -25489.42    127.58643   -25617.006    -3102.852 
  167000     324.6896    -25477.53    139.36867   -25616.899   -1758.2963 
  167200    264.74156   -25503.341    113.63678   -25616.978   -4486.1217 
  167400    282.46566    -25487.85    121.24461   -25609.094    2345.7787 
  167600    315.13517   -25484.969    135.26756   -25620.237   -6012.9518 
  167800    280.58765   -25506.595     120.4385   -25627.033    -4909.736 
  168000    331.89404   -25474.989    142.46109    -25617.45    5440.8023 
  168200    293.90184   -25488.305    126.15344   -25614.459   -5295.1619 
  168400    298.62042   -25500.662    128.17883   -25628.841     662.5256 
  168600    301.28424   -25474.282    129.32224   -25603.604    5222.4642 
  168800    307.72069   -25472.055      132.085    -25604.14    6436.1434 
  169000     275.7583   -25507.559    118.36557   -25625.925   -1981.6354 
  169200    305.52313   -25490.581    131.14173   -25621.723    3354.4747 
  169400     307.0019   -25471.816    131.77647   -25603.593   -6.4323059 
  169600    290.37214    -25502.77    124.63836   -25627.408   -3883.4304 
  169800    297.00136   -25499.306    127.48387    -25626.79    271.57408 
  170000    302.31757    -25484.87    129.76578   -25614.636   -2805.1167 
  170200    329.41591   -25451.273    141.39738    -25592.67    1325.9777 
  170400    303.97637   -25483.493     130.4778   -25613.971   -4759.6068 
  170600    298.83134   -25490.661    128.26936   -25618.931    1219.6594 
  170800    292.07061   -25470.813    125.36741   -25596.181    5247.1907 
  171000    323.33591   -25476.015    138.78762   -25614.803   -1243.8613 
  171200    268.12349   -25501.968    115.08843   -25617.056    1948.4074 
  171400     316.4324   -25477.801    135.82438   -25613.625    226.50574 
  171600    295.80909   -25480.104     126.9721   -25607.076   -9983.0984 
  171800     265.8808   -25495.007    114.12578   -25609.133    682.15972 
  172000    320.02655   -25467.568    137.36712   -25604.936    2659.0639 
  172200     299.1272    -25487.38    128.39636   -25615.776   -9895.5764 
  172400    295.24609   -25488.826    126.73044   -25615.556    6241.9155 
  172600    322.05805   -25462.011    138.23912    -25600.25    2595.2048 
  172800    276.34051   -25482.551    118.61548   -25601.166    1164.9249 
  173000    309.89767    -25486.16    133.01944   -25619.179    210.32332 
  173200    340.08397    -25454.37     145.9765   -25600.346    3496.9003 
  173400    335.88626   -25475.138    144.17469   -25619.313     1789.035 
  173600    289.09119   -25493.331    124.08853   -25617.419   -1463.3331 
  173800     325.6226   -25468.506    139.76915   -25608.275   -1188.4856 
  174000     286.8427   -25487.993     123.1234   -25611.116   -1875.8467 
  174200    301.37648   -25489.625    129.36183   -25618.987    553.75441 
  174400    306.57262   -25472.713     131.5922   -25604.305    374.31102 
  174600    334.76057   -25461.336    143.69151   -25605.028   -5653.6542 
  174800    303.44607   -25489.691    130.25017   -25619.941   -2513.5976 
  175000    318.75008    -25483.57    136.81922   -25620.389    4289.1005 
  175200    301.14148   -25481.863    129.26096   -25611.124    5496.5751 
  175400     310.7922   -25478.683     133.4034   -25612.086   -485.80353 
  175600    289.42192   -25494.751    124.23049   -25618.981    2296.1683 
  175800    295.60322   -25481.131    126.88373   -25608.015    5312.1824 
  176000    273.17765    -25484.78    117.25786   -25602.038   -1422.5003 
  176200    288.69334   -25498.182    123.91776     -25622.1   -2249.2264 
  176400    304.32788   -25490.172    130.62868   -25620.801   -1273.1387 
  176600    317.74298    -25479.51    136.38693   -25615.897    8757.2746 
  176800    287.81755   -25481.858    123.54184     -25605.4   -6780.5579 
  177000    329.45609   -25480.786    141.41463   -25622.201    1579.3084 
  177200     284.4502    -25505.52    122.09645   -25627.616   -2016.2571 
  177400    284.88798   -25489.163    122.28436   -25611.447    10153.998 
  177600    317.43899   -25477.938    136.25645   -25614.195    1426.2038 
  177800    276.50008   -25500.013    118.68397   -25618.697    662.87729 
  178000    293.43384   -25493.774    125.95256   -25619.727   -7022.9253 
  178200     312.1172   -25477.918    133.97214    -25611.89   -2466.9343 
  178400    281.31089   -25493.389    120.74894   -25614.138    2948.4316 
  178600    293.22908   -25506.232    125.86467   -25632.096   -2470.4057 
  178800    284.36932   -25483.774    122.06174   -25605.836   -3286.0291 
  179000    300.01552   -25474.303    128.77766   -25603.081    2125.9708 
  179200     293.8938   -25497.711    126.14999   -25623.861   -3343.1673 
  179400    271.53965   -25505.144    116.55477   -25621.699   -852.68116 
  179600     311.4956    -25478.02    133.70533   -25611.725    5336.8821 
  179800    299.32472   -25485.348    128.48114   -25613.829    -5630.971 
[...]
  950000    270.52218   -25488.752    116.11803    -25604.87     5132.653 
  950200    274.41935   -25499.637    117.79084   -25617.428     9656.125 
  950400    343.22768   -25468.663     147.3259   -25615.989   -9272.2549 
  950600    300.75429   -25491.158    129.09476   -25620.253    11344.336 
  950800    280.81449   -25487.671    120.53587   -25608.206   -4212.6738 
  951000    306.85467    -25476.56    131.71327   -25608.273   -77.966007 
  951200    282.69553   -25498.786    121.34328   -25620.129    2661.3584 
  951400    302.15316   -25496.014    129.69521   -25625.709   -2543.5061 
  951600    309.07312       -25484    132.66551   -25616.666   -2321.8824 
  951800    331.13569   -25469.649    142.13558   -25611.784   -375.38028 
  952000    273.64684   -25497.766    117.45925   -25615.225    263.78901 
  952200    335.90517    -25469.02    144.18281   -25613.203   -3368.7459 
  952400    312.47607    -25476.17    134.12618   -25610.296     2292.481 
  952600     288.6472   -25495.928    123.89796   -25619.826   -577.80095 
  952800    285.12656   -25489.455    122.38677   -25611.841    352.68496 
  953000    312.73967   -25472.808    134.23933   -25607.048    802.05164 
  953200     305.3743   -25476.979    131.07784   -25608.057   -2397.3675 
  953400    270.58682   -25499.442    116.14578   -25615.587    4829.4125 
  953600    262.34488   -25491.436    112.60804   -25604.044   -7219.7284 
  953800    323.16226   -25475.213    138.71308   -25613.926   -2011.8478 
  954000    271.61559   -25499.321    116.58736   -25615.909     2096.476 
  954200    298.81914   -25478.596    128.26413    -25606.86   -6937.3678 
  954400    301.22129   -25450.275    129.29522    -25579.57    2381.7559 
  954600    287.87344   -25471.578    123.56583   -25595.144    2319.5511 
  954800    317.74384   -25492.166     136.3873   -25628.553     9233.911 
  955000    267.65295   -25514.265    114.88646   -25629.152    -2603.041 
  955200    288.86673   -25486.106    123.99219   -25610.098    2669.5925 
  955400    323.30826   -25479.754    138.77576    -25618.53   -8327.3498 
  955600    277.53147   -25494.502    119.12668   -25613.629   -3625.3919 
  955800    313.71816   -25472.802    134.65933   -25607.461    3271.1454 
  956000     278.0716   -25482.088    119.35852   -25601.447     4626.992 
  956200    296.75351   -25491.862    127.37748   -25619.239   -1307.2756 
  956400      295.584   -25491.769    126.87548   -25618.645    2324.5855 
  956600    315.05856   -25475.583    135.23468   -25610.818    3366.2048 
  956800    318.68452   -25458.016    136.79108   -25594.807    484.97854 
  957000    301.99376   -25471.321    129.62679   -25600.947    3454.2665 
  957200    281.92493   -25492.809    121.01251   -25613.822    1918.0754 
  957400    328.38094   -25473.008    140.95313   -25613.961    4879.7862 
  957600    321.47489   -25480.664     137.9888   -25618.653   -1168.9421 
  957800    302.32922   -25490.706    129.77078   -25620.477   -1114.9892 
  958000    325.90756   -25470.811    139.89147   -25610.702   -1652.9777 
  958200    328.92697   -25451.744    141.18751   -25592.931    279.47787 
  958400    283.27195   -25493.378     121.5907   -25614.968   -685.40646 
  958600    301.30882    -25491.06    129.33279   -25620.393    3039.2165 
  958800     318.5441   -25467.313     136.7308   -25604.044    1877.3397 
  959000    329.93537   -25474.114    141.62035   -25615.734   -293.36378 
  959200    279.41275    -25497.92    119.93419   -25617.854    3548.5213 
  959400    310.24776   -25471.441    133.16971   -25604.611    -3034.452 
  959600    295.34321   -25494.765    126.77213   -25621.537    -1264.706 
  959800    304.37186   -25488.722    130.64756    -25619.37   -986.29882 
  960000    333.11591   -25474.189    142.98556   -25617.174   -4001.2819 
  960200     268.5336   -25500.305    115.26446   -25615.569    3762.7356 
  960400    316.53443   -25477.142    135.86818    -25613.01    9164.7482 
  960600    295.60493   -25480.598    126.88447   -25607.482   -3272.0329 
  960800    269.39593   -25508.287    115.63461   -25623.922   -7415.6148 
  961000    263.35385   -25523.389    113.04112    -25636.43   -3273.3676 
  961200    302.18554   -25484.189    129.70911   -25613.898   -372.21989 
  961400    291.16513   -25474.935    124.97874   -25599.914    4343.1734 
  961600    302.42453    -25485.36    129.81169   -25615.172   -2034.8895 
  961800    294.97527   -25500.436    126.61419    -25627.05    4564.3531 
  962000    306.70524   -25473.877    131.64913   -25605.526    1532.1572 
  962200    301.82796   -25482.109    129.55562   -25611.665    813.61279 
  962400     301.3089   -25492.354    129.33282   -25621.687    1735.0904 
  962600    294.47998   -25491.513     126.4016   -25617.915   -883.19316 
  962800    324.95073   -25472.921    139.48076   -25612.402   -5345.7005 
  963000    294.58788   -25484.166    126.44791   -25610.614    4335.2659 
  963200    311.34809   -25491.521    133.64201   -25625.163    8566.5143 
  963400     313.4057   -25466.296    134.52521   -25600.821   -3241.9568 
  963600    293.18715   -25480.339    125.84667   -25606.185    3935.4014 
  963800    286.19423   -25498.069    122.84505   -25620.914    7025.9667 
  964000    299.12486   -25486.253    128.39535   -25614.648     1148.795 
  964200    317.87562   -25477.315    136.44386   -25613.758   -854.70137 
  964400    296.91345   -25504.248    127.44614   -25631.694    4862.8632 
  964600    297.16359   -25481.113     127.5535   -25608.667    3804.4832 
  964800    289.13174   -25479.134    124.10594    -25603.24    883.81804 
  965000    286.28142   -25504.325    122.88248   -25627.207    -1559.936 
  965200    312.37762   -25488.941    134.08392   -25623.025    851.09455 
  965400    284.47828   -25479.215     122.1085   -25601.323    2763.0807 
  965600    302.96127   -25497.219    130.04208   -25627.261    199.80912 
  965800    285.21767   -25494.855    122.42588   -25617.281    167.70627 
  966000    332.45561   -25474.069    142.70213   -25616.771    3850.8797 
  966200    321.84026   -25487.281    138.14563   -25625.427    3569.4542 
  966400    294.10443   -25512.949     126.2404   -25639.189   -678.36395 
  966600     293.0531   -25484.067    125.78913   -25609.856   -3728.2065 
  966800    308.02302   -25478.958    132.21477   -25611.173    2029.7139 
  967000    296.19976    -25503.72    127.13979    -25630.86    7313.7837 
  967200     301.4781   -25479.899    129.40545   -25609.305   -1932.6853 
  967400    323.85472   -25481.966    139.01031   -25620.977    170.98377 
  967600    317.14546   -25480.438    136.13045   -25616.568     8485.335 
  967800    295.09353   -25475.866    126.66496   -25602.531   -3332.7084 
  968000     307.7905   -25490.496    132.11496   -25622.611    904.69918 
  968200    326.76744   -25481.336    140.26056   -25621.597   -1823.3367 
  968400    277.68866   -25483.954    119.19415   -25603.148    766.27425 
  968600    283.62321   -25497.103    121.74148   -25618.845    -4011.831 
  968800    307.22922   -25480.291    131.87404   -25612.165    -1784.525 
  969000    293.73124   -25471.093    126.08021   -25597.173    2085.6157 
  969200     267.2754   -25501.234    114.72439   -25615.958    840.03416 
  969400     316.1263   -25481.347      135.693    -25617.04    1073.4126 
  969600    324.19973   -25483.555     139.1584   -25622.713   -1134.5111 
  969800    302.64079   -25465.574    129.90452   -25595.479   -6046.9806 
  970000    296.25028   -25463.819    127.16148    -25590.98    6299.1964 
  970200    312.22471   -25487.785    134.01829   -25621.803     3151.061 
  970400    292.28323   -25501.126    125.45868   -25626.585    2589.3766 
  970600    303.29619   -25471.422    130.18584   -25601.608   -7045.1432 
  970800      311.588   -25479.262    133.74499   -25613.007    4928.5297 
  971000    282.50726   -25495.374    121.26247   -25616.636   -3753.2288 
  971200      336.566   -25469.589    144.46646   -25614.056   -964.56259 
  971400    291.37325   -25490.299    125.06808   -25615.367    5268.5732 
  971600    282.30674   -25509.491     121.1764   -25630.667    2369.7107 
  971800    306.29584    -25483.43     131.4734   -25614.904    6022.9895 
  972000    276.87779   -25486.633     118.8461    -25605.48   -7088.3052 
  972200    305.70448   -25473.704    131.21957   -25604.923    3868.5891 
  972400     317.8217   -25477.928    136.42072   -25614.348   -10121.122 
  972600    278.67519   -25493.009     119.6176   -25612.626    4647.2801 
  972800    296.60414   -25472.495    127.31337   -25599.809   -7139.2127 
  973000    263.39503   -25500.052     113.0588   -25613.111    2146.3904 
  973200    292.26745   -25490.207     125.4519   -25615.659   -925.32191 
  973400    305.73451   -25481.341    131.23245   -25612.573   -3539.6313 
  973600    259.96291   -25510.792    111.58561   -25622.378   -4717.5816 
  973800    290.94163   -25486.485    124.88281   -25611.368    3692.9748 
  974000    302.25307   -25492.177    129.73809   -25621.915   -1512.2495 
  974200    274.30485   -25502.008    117.74169    -25619.75   -1689.0212 
  974400     301.1032   -25479.614    129.24453   -25608.858    3866.8193 
  974600    273.84205   -25492.803    117.54304   -25610.346   -2783.0568 
  974800    297.57151   -25501.938     127.7286   -25629.667   -2700.5359 
  975000    313.72761   -25473.031    134.66339   -25607.694    4687.0043 
  975200    262.71535   -25491.632    112.76706   -25604.399     4702.685 
  975400    369.86506   -25454.327    158.75964   -25613.087   -995.22355 
  975600    297.89515   -25480.513    127.86751    -25608.38    4915.9594 
  975800     299.2317   -25494.384    128.44121   -25622.825    6175.0403 
  976000    301.46059   -25486.924    129.39793   -25616.322   -4088.1051 
  976200    314.86073   -25471.828    135.14976   -25606.977   -2006.6086 
  976400    302.71498   -25500.519    129.93636   -25630.455    1502.3287 
  976600    299.03189   -25483.186    128.35544   -25611.541    182.25112 
  976800    296.36554   -25478.508    127.21095   -25605.719    3109.9896 
  977000    301.57432   -25484.836    129.44675   -25614.283    3324.4008 
  977200    320.56185   -25474.032    137.59689   -25611.629    352.69532 
  977400    310.19178   -25475.206    133.14568   -25608.352   -1359.7062 
  977600    294.26348   -25494.458    126.30867   -25620.767    329.56968 
  977800    315.17298    -25482.28    135.28379   -25617.564    633.01167 
  978000    315.25893   -25469.807    135.32069   -25605.127   -1142.5309 
  978200    257.08997   -25499.886    110.35244   -25610.238    534.99165 
  978400    326.88344   -25480.192    140.31035   -25620.502    46.936909 
  978600    286.07915   -25484.352    122.79565   -25607.148   -1078.8534 
  978800    279.72378   -25510.392     120.0677    -25630.46   -4699.7422 
  979000    290.86135   -25482.481    124.84835    -25607.33    1377.4086 
  979200    307.27442   -25472.711    131.89344   -25604.604   -2080.5957 
  979400    253.90352   -25501.428    108.98469   -25610.412    2275.0841 
  979600    293.00582   -25481.032    125.76884   -25606.801   -4938.1364 
  979800    306.12176   -25486.801    131.39868     -25618.2   -5749.1467 
  980000    296.19796       -25514    127.13902   -25641.139    6988.7482 
  980200    286.69246   -25479.452    123.05891   -25602.511    2227.7838 
  980400    320.79014   -25475.596    137.69488   -25613.291    2463.2563 
  980600    280.69153   -25500.176    120.48309   -25620.659    2065.2155 
  980800     338.6241   -25472.186    145.34987   -25617.536    -611.2874 
  981000    289.14933   -25480.837    124.11349   -25604.951      3957.57 
  981200    281.18623   -25491.161    120.69543   -25611.856    2722.9537 
  981400    339.72887    -25459.66    145.82408   -25605.484   -3540.5514 
  981600     302.5891     -25489.7    129.88233   -25619.583    8816.3107 
  981800    287.86373   -25478.391    123.56166   -25601.952   -564.49075 
  982000    328.82965   -25466.466    141.14574   -25607.612    5038.1105 
  982200    276.57462   -25497.462    118.71596   -25616.178    3423.4214 
  982400     320.5005   -25472.174    137.57056   -25609.744    2275.2948 
  982600    282.05695   -25485.551    121.06918    -25606.62   -6428.5503 
  982800    298.92775   -25483.973    128.31074   -25612.283    2012.5754 
  983000    295.05162   -25493.735    126.64697   -25620.382   -6384.2234 
  983200    286.98305   -25493.774    123.18364   -25616.958    5209.9569 
  983400    315.92891   -25477.084    135.60826   -25612.692   -2002.0168 
  983600    268.48188   -25503.799    115.24226   -25619.041    3198.9354 
  983800    323.79009   -25467.566    138.98257   -25606.549   -5912.7359 
  984000    284.12443   -25490.607    121.95662   -25612.563   -331.67477 
  984200    306.05924   -25490.161    131.37184   -25621.532   -1913.0564 
  984400    312.15707   -25472.365    133.98926   -25606.355   -1690.4061 
  984600    270.42169   -25502.365     116.0749    -25618.44     3885.487 
  984800    331.52847   -25477.678    142.30417   -25619.982    1901.0023 
  985000    281.70725   -25483.451    120.91907    -25604.37    -2902.465 
  985200    293.98342   -25491.478    126.18846   -25617.667   -495.55709 
  985400    273.80126   -25513.183    117.52554   -25630.709   -508.63411 
  985600    301.80348   -25486.901    129.54512   -25616.446     5218.019 
  985800    289.06871   -25483.386    124.07888   -25607.465    3933.0793 
  986000    316.36935    -25452.31    135.79732   -25588.108   -4833.2622 
  986200    293.69719   -25478.949     126.0656   -25605.014   -1352.1054 
  986400    289.50378   -25486.413    124.26563   -25610.678    1114.5978 
  986600    298.07914    -25485.91    127.94649   -25613.856    7065.0968 
  986800    283.51351   -25503.657    121.69439   -25625.351     3376.751 
  987000    297.10855   -25498.335    127.52988   -25625.865    1956.8024 
  987200     275.9283   -25473.365    118.43854   -25591.804    8733.7323 
  987400    296.68758   -25467.728    127.34918   -25595.077   -735.31082 
  987600    287.40593   -25494.419    123.36516   -25617.784    3458.1012 
  987800    320.73242   -25484.635    137.67011   -25622.305    7444.9191 
  988000    294.33554   -25503.777     126.3396   -25630.117   -5717.5092 
  988200    333.98099   -25472.161    143.35688   -25615.518     2319.065 
  988400    266.15385   -25487.821    114.24299   -25602.064   -2387.7192 
  988600    275.02944   -25483.875    118.05272   -25601.928    7637.5973 
  988800    319.46532   -25459.927    137.12622   -25597.054    4304.1146 
  989000    281.52644    -25496.59    120.84147   -25617.432    5517.1669 
  989200    294.63482   -25483.654    126.46806   -25610.122    1156.3148 
  989400    320.26088   -25461.704    137.46771   -25599.171   -7339.5904 
  989600    269.30269   -25487.073    115.59458   -25602.667   -745.92693 
  989800    299.11077   -25487.511    128.38931   -25615.901     358.3393 
  990000    301.98401   -25458.027     129.6226   -25587.649    424.71308 
  990200    276.85956   -25494.193    118.83827   -25613.031    1574.0566 
  990400    297.55622   -25481.547    127.72203   -25609.269    5515.2343 
  990600    307.14206   -25464.168    131.83663   -25596.004   -1441.9453 
  990800    272.87885   -25497.926     117.1296   -25615.056   -886.85315 
  991000    308.20853   -25474.389     132.2944   -25606.683     5085.092 
  991200    297.25464   -25482.382    127.59258   -25609.974    2231.7376 
  991400    271.20631   -25489.118    116.41169    -25605.53    1861.0551 
  991600    301.26919   -25486.245    129.31578   -25615.561    4288.5222 
  991800    310.82307   -25465.915    133.41665   -25599.332   -151.28606 
  992000    294.75111   -25489.584    126.51798   -25616.102    4799.8105 
  992200    284.35469   -25490.162    122.05545   -25612.217      5155.95 
  992400    301.78133   -25475.638    129.53561   -25605.173    2181.9811 
  992600    245.19534   -25505.659    105.24682   -25610.906    1539.4935 
  992800    304.07529   -25478.894    130.52026   -25609.415    6848.2561 
  993000    265.97544   -25495.108    114.16641   -25609.274   -6806.0448 
  993200    300.34488   -25484.091    128.91903    -25613.01   -1367.4007 
  993400    301.90169   -25472.979    129.58727   -25602.566    3074.7551 
  993600    300.97742   -25490.985    129.19054   -25620.175   -5254.9633 
  993800    283.29843   -25507.603    121.60207   -25629.205    2926.8622 
  994000    291.42317    -25490.46     125.0895    -25615.55   -211.51381 
  994200    303.10716   -25472.789     130.1047   -25602.894    1508.5784 
  994400    287.19561   -25481.265    123.27488    -25604.54   -1496.9032 
  994600    280.45075   -25490.044    120.37974   -25610.423    7640.8822 
  994800    319.19368   -25475.492    137.00962   -25612.501   -5045.7924 
  995000    262.22188   -25495.502    112.55524   -25608.057   -1939.0904 
  995200    312.08978   -25477.397    133.96037   -25611.357    -261.9141 
  995400    335.11425   -25465.039    143.84332   -25608.882    3680.3098 
  995600    285.13409   -25482.955       122.39   -25605.345   -3374.9462 
  995800    299.57451     -25493.5    128.58836   -25622.088    12858.743 
  996000    283.20481   -25492.273    121.56188   -25613.835    1836.8138 
  996200    294.31627   -25489.751    126.33133   -25616.083   -1883.6345 
  996400    273.99168   -25516.306    117.60727   -25633.913    343.78281 
  996600     308.0633    -25490.01    132.23206   -25622.242     1428.252 
  996800    331.51709   -25474.543    142.29929   -25616.843   -1036.9785 
  997000    281.73219   -25503.113    120.92978   -25624.043    1917.1233 
  997200    295.60564   -25487.161    126.88477   -25614.046   -1943.0646 
  997400    285.00444   -25487.935    122.33435   -25610.269    6788.5478 
  997600    282.08288   -25484.724    121.08031   -25605.804   -5393.1277 
  997800    285.52075   -25467.765    122.55597   -25590.321    -2440.329 
  998000    348.11172   -25468.996    149.42231   -25618.418   -2190.0501 
  998200    286.95923   -25502.009    123.17342   -25625.183   -2871.8335 
  998400    313.79375     -25477.5    134.69178   -25612.191    3776.7379 
  998600     267.6374   -25500.084    114.87978   -25614.964   -2414.7238 
  998800    296.97359   -25495.409    127.47195   -25622.881    576.72004 
  999000    309.31057   -25475.946    132.76743   -25608.713    842.12193 
  999200    353.92273   -25465.178    151.91661   -25617.094    574.78417 
  999400    284.02637   -25494.765    121.91452    -25616.68   -853.89352 
  999600    319.78961   -25483.358    137.26542   -25620.624    1163.9199 
  999800    294.73069   -25477.855    126.50921   -25604.364    3492.9708 
 1000000    320.70319   -25475.321    137.65756   -25612.979    2878.6684 
Loop time of 3144.17 on 8 procs for 1000000 steps with 145 atoms

Performance: 6.870 ns/day, 3.494 hours/ns, 318.049 timesteps/s
99.3% CPU use with 8 MPI tasks x no OpenMP threads

MPI task timing breakdown:
Section |  min time  |  avg time  |  max time  |%varavg| %total
---------------------------------------------------------------
Pair    | 1414.7     | 1735.5     | 2685.7     |1305.2 | 55.20
Neigh   | 0.95222    | 1.0107     | 1.1406     |   7.5 |  0.03
Comm    | 31.6       | 981.27     | 1301.2     |1734.2 | 31.21
Output  | 0.11302    | 0.12329    | 0.18615    |   6.8 |  0.00
Modify  | 422.2      | 423.24     | 423.96     |   3.1 | 13.46
Other   |            | 2.987      |            |       |  0.10

Nlocal:    18.125 ave 68 max 0 min
Histogram: 6 0 0 0 0 0 0 0 0 2
Nghost:    612.625 ave 679 max 578 min
Histogram: 2 2 2 0 0 0 0 0 1 1
Neighs:    1210.38 ave 4327 max 0 min
Histogram: 6 0 0 0 0 0 0 0 0 2

Total # of neighbors = 9683
Ave neighs/atom = 66.7793
Neighbor list builds = 1462
Dangerous builds = 0

unfix 1
unfix output
undump 1

Please see the log.cite file for references relevant to this simulation

Total wall time: 0:52:27
