ITEM: TIMESTEP
0
ITEM: NUMBER OF ATOMS
81
ITEM: BOX BOUNDS pp pp pp
0.0000000000000000e+00 1.3416000000000000e+01
0.0000000000000000e+00 1.3416000000000000e+01
0.0000000000000000e+00 1.3414999999999999e+01
ITEM: ATOMS id type x y z 
21 1 1.912 1.912 1.912 
22 1 2.794 2.794 2.795 
23 1 0.386 2.099 2.099 
33 1 2.098 2.099 0.386 
37 1 2.099 0.386 2.099 
41 1 4.371 4.372 4.372 
42 1 3.489 3.489 3.489 
43 1 4.184 5.897 4.185 
53 1 4.185 4.185 5.898 
57 1 5.897 4.185 4.185 
4 1 1.912 1.912 11.079 
5 1 2.794 2.794 10.197 
6 1 2.099 0.386 10.892 
16 1 2.098 2.099 12.605 
19 1 0.386 2.099 10.892 
64 1 4.371 4.372 8.62 
65 1 3.489 3.489 9.502 
66 1 5.897 4.185 8.807 
76 1 4.185 4.185 7.094 
79 1 4.184 5.897 8.807 
10 1 1.911 11.079 1.912 
11 1 2.794 10.197 2.795 
12 1 2.099 12.605 2.099 
15 1 2.099 10.892 0.386 
18 1 0.386 10.892 2.099 
67 1 4.372 8.62 4.371 
68 1 3.489 9.502 3.489 
69 1 5.897 8.807 4.185 
74 1 4.185 8.807 5.897 
80 1 4.185 7.094 4.185 
30 1 1.911 11.079 11.079 
31 1 2.794 10.197 10.197 
32 1 0.386 10.892 10.892 
35 1 2.099 10.892 12.605 
38 1 2.099 12.605 10.892 
47 1 4.372 8.62 8.62 
48 1 3.489 9.502 9.502 
49 1 4.184 7.094 8.807 
54 1 4.184 8.807 7.094 
60 1 5.897 8.807 8.807 
7 1 11.08 1.912 1.912 
8 1 10.197 2.794 2.795 
9 1 10.893 0.386 2.099 
14 1 10.893 2.099 0.386 
20 1 12.606 2.099 2.099 
70 1 8.62 4.372 4.372 
71 1 9.502 3.489 3.489 
72 1 7.094 4.185 4.185 
75 1 8.807 4.185 5.897 
78 1 8.807 5.898 4.185 
27 1 11.08 1.912 11.079 
28 1 10.197 2.794 10.197 
29 1 12.606 2.099 10.892 
34 1 10.893 2.099 12.605 
40 1 10.893 0.386 10.892 
50 1 8.62 4.372 8.62 
51 1 9.502 3.489 9.502 
52 1 8.807 5.897 8.807 
55 1 8.807 4.185 7.094 
58 1 7.094 4.185 8.807 
24 1 11.08 11.08 1.912 
25 1 10.197 10.197 2.795 
26 1 12.606 10.892 2.099 
36 1 10.893 10.892 0.386 
39 1 10.893 12.605 2.099 
44 1 8.62 8.62 4.372 
45 1 9.502 9.502 3.489 
46 1 8.807 7.094 4.185 
56 1 8.807 8.807 5.898 
59 1 7.094 8.807 4.185 
1 1 11.08 11.079 11.079 
2 1 10.197 10.197 10.197 
3 1 10.893 12.605 10.892 
13 1 10.893 10.892 12.605 
17 1 12.606 10.892 10.892 
61 1 8.62 8.62 8.62 
62 1 9.502 9.502 9.502 
63 1 7.094 8.807 8.807 
73 1 8.807 8.807 7.094 
77 1 8.807 7.094 8.807 
81 2 11.819 11.448 11.801 
ITEM: TIMESTEP
10
ITEM: NUMBER OF ATOMS
81
ITEM: BOX BOUNDS pp pp pp
0.0000000000000000e+00 1.3416000000000000e+01
0.0000000000000000e+00 1.3416000000000000e+01
0.0000000000000000e+00 1.3414999999999999e+01
ITEM: ATOMS id type x y z 
21 1 1.90991 1.90976 1.9102 
22 1 2.79621 2.7961 2.79661 
23 1 0.383997 2.10455 2.10473 
33 1 2.10378 2.10457 0.384203 
37 1 2.10466 0.383403 2.1046 
41 1 4.37306 4.37342 4.3737 
42 1 3.48687 3.48706 3.48731 
43 1 4.17849 5.89905 4.17921 
53 1 4.17925 4.1793 5.89915 
57 1 5.89891 4.17932 4.17932 
4 1 1.90982 1.91417 11.0819 
5 1 2.79601 2.79675 10.1952 
6 1 2.1066 0.389801 10.8867 
16 1 2.1035 2.10466 12.6061 
19 1 0.386889 2.10434 10.886 
64 1 4.37322 4.37332 8.61809 
65 1 3.48687 3.48707 9.50426 
66 1 5.89879 4.17933 8.81271 
76 1 4.17926 4.17929 7.0928 
79 1 4.17823 5.8989 8.81274 
10 1 1.91361 11.0827 1.91433 
11 1 2.79633 10.1953 2.79668 
12 1 2.10446 12.6066 2.10459 
15 1 2.10655 10.8867 0.391931 
18 1 0.390683 10.8867 2.10665 
67 1 4.37335 8.61788 4.37317 
68 1 3.48701 9.50423 3.4871 
69 1 5.89887 8.8127 4.17916 
74 1 4.17905 8.81254 5.89861 
80 1 4.17913 7.09255 4.17937 
30 1 1.90363 11.0799 11.0785 
31 1 2.80207 10.1876 10.1875 
32 1 0.493323 10.8982 10.8824 
35 1 2.10793 10.8842 12.6174 
38 1 2.10838 12.6173 10.8847 
47 1 4.37614 8.61409 8.61413 
48 1 3.49277 9.4996 9.49955 
49 1 4.17848 7.09202 8.81254 
54 1 4.17874 8.81266 7.0918 
60 1 5.89532 8.81297 8.81296 
7 1 11.0826 1.9143 1.9102 
8 1 10.1954 2.79657 2.79645 
9 1 10.8878 0.389343 2.10649 
14 1 10.8871 2.10431 0.3872 
20 1 12.6068 2.10462 2.10441 
70 1 8.61785 4.37332 4.37341 
71 1 9.50437 3.48694 3.48715 
72 1 7.0923 4.17937 4.17934 
75 1 8.8127 4.17933 5.89894 
78 1 8.8127 5.89898 4.17928 
27 1 11.0855 1.937 11.0848 
28 1 10.1937 2.79977 10.1932 
29 1 12.6108 2.10637 10.8862 
34 1 10.8872 2.10635 12.6101 
40 1 10.8838 0.432857 10.8827 
50 1 8.61673 4.37303 8.61692 
51 1 9.50222 3.4889 9.50206 
52 1 8.81305 5.89512 8.81304 
55 1 8.81259 4.17932 7.09218 
58 1 7.09199 4.17932 8.81259 
24 1 11.0798 11.0804 1.90577 
25 1 10.1885 10.1884 2.80206 
26 1 12.6171 10.8845 2.1077 
36 1 10.8828 10.8987 0.495775 
39 1 10.886 12.6166 2.10811 
44 1 8.61432 8.61459 4.37631 
45 1 9.50013 9.50031 3.49229 
46 1 8.81262 7.09211 4.17935 
56 1 8.81303 8.81303 5.89563 
59 1 7.09193 8.81264 4.1794 
1 1 11.0028 11.1208 11.0088 
2 1 10.1648 10.1634 10.1646 
3 1 10.8487 12.6607 10.8483 
13 1 10.8344 10.8204 12.6909 
17 1 12.6865 10.8283 10.8472 
61 1 8.60104 8.60084 8.60133 
62 1 9.47409 9.47268 9.47424 
63 1 7.08762 8.81312 8.81312 
73 1 8.81314 8.81313 7.08791 
77 1 8.81308 7.08745 8.81308 
81 2 11.8671 11.4544 11.8209 
ITEM: TIMESTEP
20
ITEM: NUMBER OF ATOMS
81
ITEM: BOX BOUNDS pp pp pp
0.0000000000000000e+00 1.3416000000000000e+01
0.0000000000000000e+00 1.3416000000000000e+01
0.0000000000000000e+00 1.3414999999999999e+01
ITEM: ATOMS id type x y z 
21 1 1.91229 1.91349 1.91221 
22 1 2.79725 2.79732 2.79773 
23 1 0.386041 2.11519 2.11619 
33 1 2.11539 2.11498 0.388383 
37 1 2.11578 0.385752 2.11565 
41 1 4.37192 4.37142 4.37249 
42 1 3.48724 3.48726 3.48769 
43 1 4.16774 5.89675 4.16819 
53 1 4.16826 4.16854 5.89745 
57 1 5.89739 4.16859 4.1683 
4 1 1.91505 1.93045 11.085 
5 1 2.79826 2.80294 10.1951 
6 1 2.11901 0.39254 10.8697 
16 1 2.11522 2.11888 12.6091 
19 1 0.394483 2.11616 10.8717 
64 1 4.3719 4.36927 8.61607 
65 1 3.48898 3.49016 9.50182 
66 1 5.89457 4.16784 8.82458 
76 1 4.16817 4.16787 7.09079 
79 1 4.16636 5.89033 8.8252 
10 1 1.92204 11.0887 1.92765 
11 1 2.80108 10.1965 2.80236 
12 1 2.11749 12.6101 2.11835 
15 1 2.11921 10.87 0.382634 
18 1 0.38681 10.8701 2.11676 
67 1 4.37045 8.61464 4.37029 
68 1 3.49064 9.50117 3.49022 
69 1 5.89158 8.82515 4.16688 
74 1 4.16659 8.82514 5.89108 
80 1 4.16749 7.08994 4.16788 
30 1 1.9716 11.1068 11.1083 
31 1 2.81794 10.1896 10.1887 
32 1 0.501363 10.8685 10.8607 
35 1 2.13696 10.881 12.6128 
38 1 2.14006 12.6128 10.8789 
47 1 4.37336 8.60185 8.6031 
48 1 3.4936 9.49379 9.49161 
49 1 4.16592 7.08343 8.82343 
54 1 4.16638 8.82355 7.0842 
60 1 5.88498 8.82868 8.8284 
7 1 11.0852 1.9257 1.91632 
8 1 10.1948 2.803 2.7993 
9 1 10.8702 0.38785 2.11604 
14 1 10.8726 2.11605 0.392061 
20 1 12.6125 2.11873 2.11632 
70 1 8.61555 4.36968 4.37216 
71 1 9.50159 3.49048 3.48962 
72 1 7.09063 4.16796 4.16832 
75 1 8.82448 4.16783 5.89458 
78 1 8.82498 5.89045 4.16737 
27 1 11.0918 1.96872 11.0912 
28 1 10.1934 2.81645 10.193 
29 1 12.6172 2.1306 10.8747 
34 1 10.8758 2.13075 12.6188 
40 1 10.8604 0.453992 10.8555 
50 1 8.61056 4.36411 8.6106 
51 1 9.49681 3.49277 9.4966 
52 1 8.82874 5.87946 8.82869 
55 1 8.82384 4.16605 7.08741 
58 1 7.08731 4.16604 8.82389 
24 1 11.1075 11.1 1.96917 
25 1 10.1918 10.1924 2.81662 
26 1 12.6147 10.8778 2.13737 
36 1 10.839 10.8626 0.470464 
39 1 10.8778 12.6183 2.13858 
44 1 8.6076 8.6066 4.36896 
45 1 9.49311 9.49471 3.49255 
46 1 8.82366 7.08375 4.16662 
56 1 8.82869 8.82891 5.88515 
59 1 7.08459 8.82377 4.16663 
1 1 10.9785 11.1141 11.1073 
2 1 10.1595 10.1709 10.1607 
3 1 10.8036 12.6814 10.8132 
13 1 10.706 10.7394 12.7165 
17 1 12.741 10.7122 10.7157 
61 1 8.58701 8.58262 8.58607 
62 1 9.47734 9.47073 9.47591 
63 1 7.07856 8.8232 8.82372 
73 1 8.82338 8.82301 7.07884 
77 1 8.82266 7.07276 8.82281 
81 2 11.9157 11.5692 11.8051 
ITEM: TIMESTEP
30
ITEM: NUMBER OF ATOMS
81
ITEM: BOX BOUNDS pp pp pp
0.0000000000000000e+00 1.3416000000000000e+01
0.0000000000000000e+00 1.3416000000000000e+01
0.0000000000000000e+00 1.3414999999999999e+01
ITEM: ATOMS id type x y z 
21 1 1.91171 1.91159 1.91247 
22 1 2.79503 2.79501 2.79567 
23 1 0.390532 2.11974 2.11926 
33 1 2.11841 2.11962 0.386024 
37 1 2.11948 0.387753 2.11958 
41 1 4.37129 4.3705 4.37157 
42 1 3.48722 3.48756 3.48753 
43 1 4.16328 5.89397 4.16379 
53 1 4.16384 4.16402 5.89548 
57 1 5.89524 4.16406 4.16397 
4 1 1.9148 1.91759 11.0852 
5 1 2.79639 2.80115 10.1986 
6 1 2.12501 0.402278 10.8689 
16 1 2.11882 2.12286 12.611 
19 1 0.396102 2.12306 10.87 
64 1 4.37072 4.3679 8.61493 
65 1 3.48828 3.49015 9.50205 
66 1 5.89292 4.16237 8.82928 
76 1 4.16355 4.16295 7.08985 
79 1 4.16129 5.88937 8.83007 
10 1 1.91264 11.083 1.91457 
11 1 2.79814 10.1997 2.79969 
12 1 2.12082 12.6088 2.12195 
15 1 2.124 10.8702 0.402687 
18 1 0.395444 10.8705 2.12353 
67 1 4.36931 8.61388 4.36879 
68 1 3.48833 9.50391 3.48851 
69 1 5.89039 8.8295 4.16194 
74 1 4.16154 8.82972 5.88937 
80 1 4.16293 7.09053 4.16313 
30 1 1.9875 11.1005 11.1016 
31 1 2.8241 10.1962 10.1942 
32 1 0.46215 10.8435 10.8319 
35 1 2.14635 10.8753 12.6248 
38 1 2.14824 12.6279 10.8731 
47 1 4.36747 8.60559 8.6061 
48 1 3.49219 9.49328 9.49247 
49 1 4.16135 7.08407 8.82635 
54 1 4.16177 8.82636 7.08446 
60 1 5.8859 8.83208 8.83185 
7 1 11.0843 1.91579 1.91556 
8 1 10.1989 2.80019 2.79677 
9 1 10.8696 0.397113 2.12301 
14 1 10.8706 2.12253 0.39791 
20 1 12.6078 2.12228 2.12017 
70 1 8.61491 4.36842 4.37045 
71 1 9.50264 3.48941 3.48857 
72 1 7.08949 4.16312 4.16361 
75 1 8.82916 4.16242 5.89295 
78 1 8.82966 5.89108 4.16242 
27 1 11.0914 1.95612 11.0903 
28 1 10.1999 2.81668 10.1996 
29 1 12.6148 2.13674 10.8712 
34 1 10.8723 2.13682 12.6134 
40 1 10.8542 0.43179 10.8454 
50 1 8.61057 4.36136 8.61058 
51 1 9.49793 3.49205 9.49768 
52 1 8.83315 5.88149 8.83325 
55 1 8.82785 4.16029 7.08676 
58 1 7.0867 4.16031 8.82792 
24 1 11.0988 11.0968 1.97136 
25 1 10.1984 10.199 2.82088 
26 1 12.6261 10.8729 2.14229 
36 1 10.8129 10.8395 0.454172 
39 1 10.8739 12.62 2.14325 
44 1 8.60907 8.60835 4.36506 
45 1 9.49609 9.49698 3.48961 
46 1 8.82677 7.08542 4.16176 
56 1 8.8322 8.83253 5.88474 
59 1 7.08683 8.82681 4.16173 
1 1 11.0376 11.0938 11.1422 
2 1 10.1595 10.1778 10.1734 
3 1 10.8141 12.6601 10.837 
13 1 10.6746 10.7355 12.6951 
17 1 12.7234 10.6837 10.6761 
61 1 8.59627 8.58995 8.59542 
62 1 9.48665 9.48287 9.4792 
63 1 7.08068 8.82458 8.82557 
73 1 8.82514 8.82415 7.07902 
77 1 8.82443 7.07541 8.82442 
81 2 11.9032 11.6719 11.8119 
ITEM: TIMESTEP
40
ITEM: NUMBER OF ATOMS
81
ITEM: BOX BOUNDS pp pp pp
0.0000000000000000e+00 1.3416000000000000e+01
0.0000000000000000e+00 1.3416000000000000e+01
0.0000000000000000e+00 1.3414999999999999e+01
ITEM: ATOMS id type x y z 
21 1 1.91202 1.91172 1.91319 
22 1 2.79554 2.7956 2.79657 
23 1 0.383503 2.12257 2.12193 
33 1 2.12083 2.12264 0.388662 
37 1 2.12211 0.386781 2.12249 
41 1 4.37085 4.37091 4.37091 
42 1 3.48688 3.4867 3.48736 
43 1 4.16075 5.89527 4.16121 
53 1 4.16126 4.16125 5.89654 
57 1 5.89624 4.16132 4.16141 
4 1 1.91455 1.92086 11.0845 
5 1 2.79799 2.80158 10.1969 
6 1 2.13 0.399142 10.867 
16 1 2.12192 2.12553 12.6096 
19 1 0.389049 2.12761 10.8682 
64 1 4.37017 4.36857 8.61482 
65 1 3.48756 3.48893 9.50303 
66 1 5.8957 4.15919 8.83131 
76 1 4.16098 4.16036 7.08883 
79 1 4.15862 5.89091 8.83188 
10 1 1.91763 11.0844 1.91928 
11 1 2.79885 10.1979 2.80027 
12 1 2.12388 12.613 2.12469 
15 1 2.12934 10.8677 0.395759 
18 1 0.394945 10.8676 2.12887 
67 1 4.3691 8.61497 4.36783 
68 1 3.48879 9.50272 3.48878 
69 1 5.89331 8.83151 4.159 
74 1 4.15859 8.83182 5.89129 
80 1 4.16015 7.08799 4.16032 
30 1 1.97187 11.0995 11.0967 
31 1 2.82622 10.2008 10.1994 
32 1 0.45432 10.8235 10.8161 
35 1 2.14901 10.8739 12.6181 
38 1 2.15068 12.6207 10.8719 
47 1 4.36718 8.60743 8.60749 
48 1 3.49195 9.49495 9.49391 
49 1 4.15877 7.08351 8.82812 
54 1 4.15919 8.82797 7.08526 
60 1 5.88925 8.83272 8.83263 
7 1 11.0864 1.91802 1.91487 
8 1 10.1975 2.80022 2.79787 
9 1 10.8687 0.391499 2.12777 
14 1 10.8691 2.12637 0.393315 
20 1 12.6114 2.1242 2.12249 
70 1 8.61512 4.36869 4.36958 
71 1 9.50371 3.48809 3.48733 
72 1 7.08924 4.16061 4.16104 
75 1 8.83123 4.15933 5.89529 
78 1 8.83147 5.89185 4.15971 
27 1 11.0912 1.95032 11.0887 
28 1 10.1996 2.81643 10.1987 
29 1 12.6148 2.13876 10.8696 
34 1 10.8706 2.13848 12.6133 
40 1 10.8479 0.424899 10.8455 
50 1 8.61105 4.36352 8.61088 
51 1 9.501 3.49197 9.50108 
52 1 8.83354 5.88516 8.83374 
55 1 8.82926 4.1578 7.08705 
58 1 7.08679 4.1578 8.82939 
24 1 11.0952 11.0942 1.96061 
25 1 10.2016 10.2007 2.82193 
26 1 12.6139 10.8713 2.14375 
36 1 10.7963 10.8314 0.446925 
39 1 10.8725 12.6202 2.14445 
44 1 8.60999 8.60983 4.36489 
45 1 9.49671 9.49804 3.49144 
46 1 8.82861 7.086 4.15913 
56 1 8.83301 8.83328 5.88702 
59 1 7.08679 8.82853 4.15906 
1 1 11.0843 11.0789 11.1333 
2 1 10.1635 10.1802 10.1805 
3 1 10.8183 12.6543 10.8402 
13 1 10.7028 10.7533 12.6829 
17 1 12.6933 10.7017 10.6959 
61 1 8.59852 8.59244 8.59573 
62 1 9.48782 9.48965 9.4832 
63 1 7.0822 8.82478 8.8259 
73 1 8.82555 8.82423 7.08068 
77 1 8.82543 7.07334 8.82523 
81 2 11.8813 11.6797 11.8263 
ITEM: TIMESTEP
49
ITEM: NUMBER OF ATOMS
81
ITEM: BOX BOUNDS pp pp pp
0.0000000000000000e+00 1.3416000000000000e+01
0.0000000000000000e+00 1.3416000000000000e+01
0.0000000000000000e+00 1.3414999999999999e+01
ITEM: ATOMS id type x y z 
21 1 1.91161 1.9119 1.9134 
22 1 2.79525 2.79526 2.79619 
23 1 0.384578 2.12359 2.12296 
33 1 2.12183 2.12374 0.388097 
37 1 2.12317 0.387471 2.12358 
41 1 4.37081 4.37072 4.37078 
42 1 3.48733 3.4872 3.48778 
43 1 4.15972 5.89544 4.16017 
53 1 4.16024 4.16017 5.89648 
57 1 5.89661 4.16026 4.1604 
4 1 1.91444 1.9202 11.0847 
5 1 2.79732 2.80066 10.1975 
6 1 2.13187 0.397861 10.8668 
16 1 2.12285 2.12654 12.6095 
19 1 0.390228 2.12926 10.8677 
64 1 4.37048 4.36881 8.61446 
65 1 3.48831 3.48949 9.50214 
66 1 5.8945 4.15811 8.83194 
76 1 4.1601 4.15948 7.08974 
79 1 4.15768 5.89099 8.83245 
10 1 1.91632 11.0845 1.9186 
11 1 2.79853 10.1979 2.79966 
12 1 2.12481 12.6115 2.1255 
15 1 2.13127 10.8677 0.39594 
18 1 0.393567 10.8674 2.13058 
67 1 4.36951 8.61487 4.36849 
68 1 3.48893 9.50225 3.48911 
69 1 5.8939 8.83206 4.15795 
74 1 4.15764 8.83236 5.89181 
80 1 4.15927 7.08855 4.15936 
30 1 1.96587 11.0973 11.0942 
31 1 2.82674 10.2016 10.2 
32 1 0.448993 10.8177 10.8093 
35 1 2.14939 10.8732 12.6171 
38 1 2.15096 12.6205 10.8712 
47 1 4.36782 8.60804 8.60827 
48 1 3.49204 9.49638 9.49548 
49 1 4.15789 7.08436 8.8287 
54 1 4.15826 8.82853 7.08499 
60 1 5.88927 8.8327 8.83271 
7 1 11.0861 1.91756 1.91514 
8 1 10.198 2.79931 2.7974 
9 1 10.8685 0.393806 2.1295 
14 1 10.8686 2.128 0.391652 
20 1 12.6105 2.12527 2.1234 
70 1 8.61485 4.36889 4.36985 
71 1 9.50283 3.48869 3.48789 
72 1 7.08991 4.15975 4.16016 
75 1 8.83184 4.15827 5.89437 
78 1 8.83205 5.89282 4.15875 
27 1 11.0904 1.94791 11.0882 
28 1 10.2003 2.81538 10.1992 
29 1 12.6127 2.13957 10.8688 
34 1 10.87 2.13906 12.6129 
40 1 10.8453 0.422315 10.8459 
50 1 8.61159 4.36359 8.61137 
51 1 9.501 3.49323 9.50104 
52 1 8.83376 5.88322 8.83402 
55 1 8.82992 4.15682 7.08772 
58 1 7.08792 4.15678 8.83006 
24 1 11.0926 11.0922 1.95747 
25 1 10.2016 10.2006 2.8223 
26 1 12.6157 10.8705 2.14396 
36 1 10.7914 10.8284 0.446489 
39 1 10.8718 12.6178 2.14492 
44 1 8.61024 8.60987 4.36573 
45 1 9.49789 9.49903 3.49214 
46 1 8.82918 7.08616 4.15828 
56 1 8.83303 8.83327 5.88703 
59 1 7.08714 8.82909 4.15815 
1 1 11.0977 11.0755 11.1278 
2 1 10.1644 10.1796 10.1811 
3 1 10.8213 12.6522 10.8412 
13 1 10.71 10.7568 12.6812 
17 1 12.6904 10.7067 10.7033 
61 1 8.59973 8.5937 8.59644 
62 1 9.48757 9.49148 9.48494 
63 1 7.08259 8.8249 8.826 
73 1 8.82579 8.82436 7.08057 
77 1 8.82582 7.07704 8.82549 
81 2 11.8753 11.686 11.8306 
ITEM: TIMESTEP
50
ITEM: NUMBER OF ATOMS
81
ITEM: BOX BOUNDS pp pp pp
0.0000000000000000e+00 1.3416000000000000e+01
0.0000000000000000e+00 1.3416000000000000e+01
0.0000000000000000e+00 1.3414999999999999e+01
ITEM: ATOMS id type x y z 
21 1 1.91161 1.9119 1.9134 
22 1 2.79525 2.79526 2.79619 
23 1 0.384578 2.12359 2.12296 
33 1 2.12183 2.12374 0.388097 
37 1 2.12317 0.387471 2.12358 
41 1 4.37081 4.37072 4.37078 
42 1 3.48733 3.4872 3.48778 
43 1 4.15972 5.89544 4.16017 
53 1 4.16024 4.16017 5.89648 
57 1 5.89661 4.16026 4.1604 
4 1 1.91444 1.9202 11.0847 
5 1 2.79732 2.80066 10.1975 
6 1 2.13187 0.397861 10.8668 
16 1 2.12285 2.12654 12.6095 
19 1 0.390228 2.12926 10.8677 
64 1 4.37048 4.36881 8.61446 
65 1 3.48831 3.48949 9.50214 
66 1 5.8945 4.15811 8.83194 
76 1 4.1601 4.15948 7.08974 
79 1 4.15768 5.89099 8.83245 
10 1 1.91632 11.0845 1.9186 
11 1 2.79853 10.1979 2.79966 
12 1 2.12481 12.6115 2.1255 
15 1 2.13127 10.8677 0.39594 
18 1 0.393567 10.8674 2.13058 
67 1 4.36951 8.61487 4.36849 
68 1 3.48893 9.50225 3.48911 
69 1 5.8939 8.83206 4.15795 
74 1 4.15764 8.83236 5.89181 
80 1 4.15927 7.08855 4.15936 
30 1 1.96587 11.0973 11.0942 
31 1 2.82674 10.2016 10.2 
32 1 0.448993 10.8177 10.8093 
35 1 2.14939 10.8732 12.6171 
38 1 2.15096 12.6205 10.8712 
47 1 4.36782 8.60804 8.60827 
48 1 3.49204 9.49638 9.49548 
49 1 4.15789 7.08436 8.8287 
54 1 4.15826 8.82853 7.08499 
60 1 5.88927 8.8327 8.83271 
7 1 11.0861 1.91756 1.91514 
8 1 10.198 2.79931 2.7974 
9 1 10.8685 0.393806 2.1295 
14 1 10.8686 2.128 0.391652 
20 1 12.6105 2.12527 2.1234 
70 1 8.61485 4.36889 4.36985 
71 1 9.50283 3.48869 3.48789 
72 1 7.08991 4.15975 4.16016 
75 1 8.83184 4.15827 5.89437 
78 1 8.83205 5.89282 4.15875 
27 1 11.0904 1.94791 11.0882 
28 1 10.2003 2.81538 10.1992 
29 1 12.6127 2.13957 10.8688 
34 1 10.87 2.13906 12.6129 
40 1 10.8453 0.422315 10.8459 
50 1 8.61159 4.36359 8.61137 
51 1 9.501 3.49323 9.50104 
52 1 8.83376 5.88322 8.83402 
55 1 8.82992 4.15682 7.08772 
58 1 7.08792 4.15678 8.83006 
24 1 11.0926 11.0922 1.95747 
25 1 10.2016 10.2006 2.8223 
26 1 12.6157 10.8705 2.14396 
36 1 10.7914 10.8284 0.446489 
39 1 10.8718 12.6178 2.14492 
44 1 8.61024 8.60987 4.36573 
45 1 9.49789 9.49903 3.49214 
46 1 8.82918 7.08616 4.15828 
56 1 8.83303 8.83327 5.88703 
59 1 7.08714 8.82909 4.15815 
1 1 11.0977 11.0755 11.1278 
2 1 10.1644 10.1796 10.1811 
3 1 10.8213 12.6522 10.8412 
13 1 10.71 10.7568 12.6812 
17 1 12.6904 10.7067 10.7033 
61 1 8.59973 8.5937 8.59644 
62 1 9.48757 9.49148 9.48494 
63 1 7.08259 8.8249 8.826 
73 1 8.82579 8.82436 7.08057 
77 1 8.82582 7.07704 8.82549 
81 2 11.8753 11.686 11.8306 
ITEM: TIMESTEP
53
ITEM: NUMBER OF ATOMS
81
ITEM: BOX BOUNDS pp pp pp
-7.1997791013614842e-04 1.3416719977910137e+01
-1.2874103995379731e-03 1.3417287410399538e+01
-4.7549755500283716e-04 1.3415475497555002e+01
ITEM: ATOMS id type x y z 
21 1 1.9111 1.91098 1.91306 
22 1 2.79483 2.79451 2.79591 
23 1 0.383947 2.12271 2.12263 
33 1 2.12134 2.12286 0.387594 
37 1 2.12268 0.386286 2.12325 
41 1 4.37057 4.37028 4.37063 
42 1 3.48698 3.48659 3.48755 
43 1 4.15945 5.89534 4.15999 
53 1 4.15996 4.15968 5.89645 
57 1 5.89659 4.15978 4.16022 
4 1 1.91391 1.91927 11.085 
5 1 2.7969 2.79991 10.1977 
6 1 2.13139 0.396576 10.8671 
16 1 2.12236 2.12566 12.61 
19 1 0.389513 2.12838 10.868 
64 1 4.37022 4.36836 8.6146 
65 1 3.48797 3.48887 9.50234 
66 1 5.89443 4.15762 8.83209 
76 1 4.15982 4.15898 7.08971 
79 1 4.1574 5.89089 8.8326 
10 1 1.91579 11.0853 1.91825 
11 1 2.7981 10.1986 2.79938 
12 1 2.12432 12.6126 2.12517 
15 1 2.13079 10.8685 0.395427 
18 1 0.392858 10.8682 2.13026 
67 1 4.36927 8.61523 4.36832 
68 1 3.48858 9.50278 3.48888 
69 1 5.89385 8.83247 4.15777 
74 1 4.15736 8.83277 5.8918 
80 1 4.15899 7.08856 4.15918 
30 1 1.96535 11.0982 11.0945 
31 1 2.82632 10.2023 10.2002 
32 1 0.44832 10.8185 10.8095 
35 1 2.14889 10.8739 12.6176 
38 1 2.15047 12.6217 10.8715 
47 1 4.36758 8.60839 8.60839 
48 1 3.4917 9.49692 9.49568 
49 1 4.15761 7.0844 8.82885 
54 1 4.15799 8.82894 7.08499 
60 1 5.88923 8.8331 8.83285 
7 1 11.0866 1.91664 1.9148 
8 1 10.1984 2.79856 2.79713 
9 1 10.8689 0.392615 2.12918 
14 1 10.869 2.12713 0.391203 
20 1 12.6111 2.1244 2.12308 
70 1 8.61505 4.36845 4.3697 
71 1 9.50313 3.48807 3.48767 
72 1 7.08987 4.15926 4.15997 
75 1 8.83207 4.15778 5.89434 
78 1 8.83228 5.89272 4.15857 
27 1 11.0908 1.94699 11.0885 
28 1 10.2006 2.81463 10.1995 
29 1 12.6134 2.13869 10.8691 
34 1 10.8704 2.13819 12.6133 
40 1 10.8457 0.421104 10.8462 
50 1 8.61179 4.36314 8.61151 
51 1 9.5013 3.49261 9.50124 
52 1 8.83398 5.88308 8.83417 
55 1 8.83015 4.15632 7.08769 
58 1 7.08795 4.15629 8.83022 
24 1 11.0931 11.093 1.95713 
25 1 10.202 10.2013 2.82203 
26 1 12.6164 10.8713 2.14364 
36 1 10.7918 10.8292 0.446047 
39 1 10.8722 12.6189 2.1446 
44 1 8.61044 8.61023 4.36558 
45 1 9.4982 9.49956 3.49191 
46 1 8.82941 7.08618 4.1581 
56 1 8.83326 8.83368 5.88701 
59 1 7.08714 8.8295 4.15796 
1 1 11.0982 11.0763 11.1281 
2 1 10.1648 10.1803 10.1814 
3 1 10.8218 12.6533 10.8415 
13 1 10.7105 10.7576 12.6816 
17 1 12.691 10.7074 10.7036 
61 1 8.59994 8.59407 8.59657 
62 1 9.48786 9.49202 9.48514 
63 1 7.08256 8.8253 8.82616 
73 1 8.82602 8.82477 7.08054 
77 1 8.82605 7.0771 8.82564 
81 2 11.8758 11.687 11.831 
ITEM: TIMESTEP
54
ITEM: NUMBER OF ATOMS
81
ITEM: BOX BOUNDS pp pp pp
-7.1997791013614842e-04 1.3416719977910137e+01
-1.2874103995379731e-03 1.3417287410399538e+01
-4.7549755500283716e-04 1.3415475497555002e+01
ITEM: ATOMS id type x y z 
21 1 1.9111 1.91098 1.91306 
22 1 2.79483 2.79451 2.79591 
23 1 0.383947 2.12271 2.12263 
33 1 2.12134 2.12286 0.387594 
37 1 2.12268 0.386286 2.12325 
41 1 4.37057 4.37028 4.37063 
42 1 3.48698 3.48659 3.48755 
43 1 4.15945 5.89534 4.15999 
53 1 4.15996 4.15968 5.89645 
57 1 5.89659 4.15978 4.16022 
4 1 1.91391 1.91927 11.085 
5 1 2.7969 2.79991 10.1977 
6 1 2.13139 0.396576 10.8671 
16 1 2.12236 2.12566 12.61 
19 1 0.389513 2.12838 10.868 
64 1 4.37022 4.36836 8.6146 
65 1 3.48797 3.48887 9.50234 
66 1 5.89443 4.15762 8.83209 
76 1 4.15982 4.15898 7.08971 
79 1 4.1574 5.89089 8.8326 
10 1 1.91579 11.0853 1.91825 
11 1 2.7981 10.1986 2.79938 
12 1 2.12432 12.6126 2.12517 
15 1 2.13079 10.8685 0.395427 
18 1 0.392858 10.8682 2.13026 
67 1 4.36927 8.61523 4.36832 
68 1 3.48858 9.50278 3.48888 
69 1 5.89385 8.83247 4.15777 
74 1 4.15736 8.83277 5.8918 
80 1 4.15899 7.08856 4.15918 
30 1 1.96535 11.0982 11.0945 
31 1 2.82632 10.2023 10.2002 
32 1 0.44832 10.8185 10.8095 
35 1 2.14889 10.8739 12.6176 
38 1 2.15047 12.6217 10.8715 
47 1 4.36758 8.60839 8.60839 
48 1 3.4917 9.49692 9.49568 
49 1 4.15761 7.0844 8.82885 
54 1 4.15799 8.82894 7.08499 
60 1 5.88923 8.8331 8.83285 
7 1 11.0866 1.91664 1.9148 
8 1 10.1984 2.79856 2.79713 
9 1 10.8689 0.392615 2.12918 
14 1 10.869 2.12713 0.391203 
20 1 12.6111 2.1244 2.12308 
70 1 8.61505 4.36845 4.3697 
71 1 9.50313 3.48807 3.48767 
72 1 7.08987 4.15926 4.15997 
75 1 8.83207 4.15778 5.89434 
78 1 8.83228 5.89272 4.15857 
27 1 11.0908 1.94699 11.0885 
28 1 10.2006 2.81463 10.1995 
29 1 12.6134 2.13869 10.8691 
34 1 10.8704 2.13819 12.6133 
40 1 10.8457 0.421104 10.8462 
50 1 8.61179 4.36314 8.61151 
51 1 9.5013 3.49261 9.50124 
52 1 8.83398 5.88308 8.83417 
55 1 8.83015 4.15632 7.08769 
58 1 7.08795 4.15629 8.83022 
24 1 11.0931 11.093 1.95713 
25 1 10.202 10.2013 2.82203 
26 1 12.6164 10.8713 2.14364 
36 1 10.7918 10.8292 0.446047 
39 1 10.8722 12.6189 2.1446 
44 1 8.61044 8.61023 4.36558 
45 1 9.4982 9.49956 3.49191 
46 1 8.82941 7.08618 4.1581 
56 1 8.83326 8.83368 5.88701 
59 1 7.08714 8.8295 4.15796 
1 1 11.0982 11.0763 11.1281 
2 1 10.1648 10.1803 10.1814 
3 1 10.8218 12.6533 10.8415 
13 1 10.7105 10.7576 12.6816 
17 1 12.691 10.7074 10.7036 
61 1 8.59994 8.59407 8.59657 
62 1 9.48786 9.49202 9.48514 
63 1 7.08256 8.8253 8.82616 
73 1 8.82602 8.82477 7.08054 
77 1 8.82605 7.0771 8.82564 
81 2 11.8758 11.687 11.831 
ITEM: TIMESTEP
55
ITEM: NUMBER OF ATOMS
81
ITEM: BOX BOUNDS pp pp pp
-7.1997791013614842e-04 1.3416719977910137e+01
-1.2874103995379731e-03 1.3417287410399538e+01
-4.7549755500283716e-04 1.3415475497555002e+01
ITEM: ATOMS id type x y z 
21 1 1.9111 1.91098 1.91306 
22 1 2.79483 2.79451 2.79591 
23 1 0.383947 2.12271 2.12263 
33 1 2.12134 2.12286 0.387594 
37 1 2.12268 0.386286 2.12325 
41 1 4.37057 4.37028 4.37063 
42 1 3.48698 3.48659 3.48755 
43 1 4.15945 5.89534 4.15999 
53 1 4.15996 4.15968 5.89645 
57 1 5.89659 4.15978 4.16022 
4 1 1.91391 1.91927 11.085 
5 1 2.7969 2.79991 10.1977 
6 1 2.13139 0.396576 10.8671 
16 1 2.12236 2.12566 12.61 
19 1 0.389513 2.12838 10.868 
64 1 4.37022 4.36836 8.6146 
65 1 3.48797 3.48887 9.50234 
66 1 5.89443 4.15762 8.83209 
76 1 4.15982 4.15898 7.08971 
79 1 4.1574 5.89089 8.8326 
10 1 1.91579 11.0853 1.91825 
11 1 2.7981 10.1986 2.79938 
12 1 2.12432 12.6126 2.12517 
15 1 2.13079 10.8685 0.395427 
18 1 0.392858 10.8682 2.13026 
67 1 4.36927 8.61523 4.36832 
68 1 3.48858 9.50278 3.48888 
69 1 5.89385 8.83247 4.15777 
74 1 4.15736 8.83277 5.8918 
80 1 4.15899 7.08856 4.15918 
30 1 1.96535 11.0982 11.0945 
31 1 2.82632 10.2023 10.2002 
32 1 0.44832 10.8185 10.8095 
35 1 2.14889 10.8739 12.6176 
38 1 2.15047 12.6217 10.8715 
47 1 4.36758 8.60839 8.60839 
48 1 3.4917 9.49692 9.49568 
49 1 4.15761 7.0844 8.82885 
54 1 4.15799 8.82894 7.08499 
60 1 5.88923 8.8331 8.83285 
7 1 11.0866 1.91664 1.9148 
8 1 10.1984 2.79856 2.79713 
9 1 10.8689 0.392615 2.12918 
14 1 10.869 2.12713 0.391203 
20 1 12.6111 2.1244 2.12308 
70 1 8.61505 4.36845 4.3697 
71 1 9.50313 3.48807 3.48767 
72 1 7.08987 4.15926 4.15997 
75 1 8.83207 4.15778 5.89434 
78 1 8.83228 5.89272 4.15857 
27 1 11.0908 1.94699 11.0885 
28 1 10.2006 2.81463 10.1995 
29 1 12.6134 2.13869 10.8691 
34 1 10.8704 2.13819 12.6133 
40 1 10.8457 0.421104 10.8462 
50 1 8.61179 4.36314 8.61151 
51 1 9.5013 3.49261 9.50124 
52 1 8.83398 5.88308 8.83417 
55 1 8.83015 4.15632 7.08769 
58 1 7.08795 4.15629 8.83022 
24 1 11.0931 11.093 1.95713 
25 1 10.202 10.2013 2.82203 
26 1 12.6164 10.8713 2.14364 
36 1 10.7918 10.8292 0.446047 
39 1 10.8722 12.6189 2.1446 
44 1 8.61044 8.61023 4.36558 
45 1 9.4982 9.49956 3.49191 
46 1 8.82941 7.08618 4.1581 
56 1 8.83326 8.83368 5.88701 
59 1 7.08714 8.8295 4.15796 
1 1 11.0982 11.0763 11.1281 
2 1 10.1648 10.1803 10.1814 
3 1 10.8218 12.6533 10.8415 
13 1 10.7105 10.7576 12.6816 
17 1 12.691 10.7074 10.7036 
61 1 8.59994 8.59407 8.59657 
62 1 9.48786 9.49202 9.48514 
63 1 7.08256 8.8253 8.82616 
73 1 8.82602 8.82477 7.08054 
77 1 8.82605 7.0771 8.82564 
81 2 11.8758 11.687 11.831 
ITEM: TIMESTEP
56
ITEM: NUMBER OF ATOMS
81
ITEM: BOX BOUNDS pp pp pp
-7.1997791013614842e-04 1.3416719977910137e+01
-1.2874103995379731e-03 1.3417287410399538e+01
-4.7549755500283716e-04 1.3415475497555002e+01
ITEM: ATOMS id type x y z 
21 1 1.9111 1.91098 1.91306 
22 1 2.79483 2.79451 2.79591 
23 1 0.383947 2.12271 2.12263 
33 1 2.12134 2.12286 0.387594 
37 1 2.12268 0.386286 2.12325 
41 1 4.37057 4.37028 4.37063 
42 1 3.48698 3.48659 3.48755 
43 1 4.15945 5.89534 4.15999 
53 1 4.15996 4.15968 5.89645 
57 1 5.89659 4.15978 4.16022 
4 1 1.91391 1.91927 11.085 
5 1 2.7969 2.79991 10.1977 
6 1 2.13139 0.396576 10.8671 
16 1 2.12236 2.12566 12.61 
19 1 0.389513 2.12838 10.868 
64 1 4.37022 4.36836 8.6146 
65 1 3.48797 3.48887 9.50234 
66 1 5.89443 4.15762 8.83209 
76 1 4.15982 4.15898 7.08971 
79 1 4.1574 5.89089 8.8326 
10 1 1.91579 11.0853 1.91825 
11 1 2.7981 10.1986 2.79938 
12 1 2.12432 12.6126 2.12517 
15 1 2.13079 10.8685 0.395427 
18 1 0.392858 10.8682 2.13026 
67 1 4.36927 8.61523 4.36832 
68 1 3.48858 9.50278 3.48888 
69 1 5.89385 8.83247 4.15777 
74 1 4.15736 8.83277 5.8918 
80 1 4.15899 7.08856 4.15918 
30 1 1.96535 11.0982 11.0945 
31 1 2.82632 10.2023 10.2002 
32 1 0.44832 10.8185 10.8095 
35 1 2.14889 10.8739 12.6176 
38 1 2.15047 12.6217 10.8715 
47 1 4.36758 8.60839 8.60839 
48 1 3.4917 9.49692 9.49568 
49 1 4.15761 7.0844 8.82885 
54 1 4.15799 8.82894 7.08499 
60 1 5.88923 8.8331 8.83285 
7 1 11.0866 1.91664 1.9148 
8 1 10.1984 2.79856 2.79713 
9 1 10.8689 0.392615 2.12918 
14 1 10.869 2.12713 0.391203 
20 1 12.6111 2.1244 2.12308 
70 1 8.61505 4.36845 4.3697 
71 1 9.50313 3.48807 3.48767 
72 1 7.08987 4.15926 4.15997 
75 1 8.83207 4.15778 5.89434 
78 1 8.83228 5.89272 4.15857 
27 1 11.0908 1.94699 11.0885 
28 1 10.2006 2.81463 10.1995 
29 1 12.6134 2.13869 10.8691 
34 1 10.8704 2.13819 12.6133 
40 1 10.8457 0.421104 10.8462 
50 1 8.61179 4.36314 8.61151 
51 1 9.5013 3.49261 9.50124 
52 1 8.83398 5.88308 8.83417 
55 1 8.83015 4.15632 7.08769 
58 1 7.08795 4.15629 8.83022 
24 1 11.0931 11.093 1.95713 
25 1 10.202 10.2013 2.82203 
26 1 12.6164 10.8713 2.14364 
36 1 10.7918 10.8292 0.446047 
39 1 10.8722 12.6189 2.1446 
44 1 8.61044 8.61023 4.36558 
45 1 9.4982 9.49956 3.49191 
46 1 8.82941 7.08618 4.1581 
56 1 8.83326 8.83368 5.88701 
59 1 7.08714 8.8295 4.15796 
1 1 11.0982 11.0763 11.1281 
2 1 10.1648 10.1803 10.1814 
3 1 10.8218 12.6533 10.8415 
13 1 10.7105 10.7576 12.6816 
17 1 12.691 10.7074 10.7036 
61 1 8.59994 8.59407 8.59657 
62 1 9.48786 9.49202 9.48514 
63 1 7.08256 8.8253 8.82616 
73 1 8.82602 8.82477 7.08054 
77 1 8.82605 7.0771 8.82564 
81 2 11.8758 11.687 11.831 
