LAMMPS (3 Mar 2020)
Reading data file ...
  orthogonal box = (0 0 0) to (13.416 13.416 13.415)
  2 by 2 by 2 MPI processor grid
  reading atoms ...
  81 atoms
  read_data CPU = 0.00223477 secs
WARNING: Changed valency_val to valency_boc for X (../reaxc_ffield.cpp:315)
WARNING: Using 'neigh_modify every 1 delay 0 check yes' setting during minimization (../min.cpp:190)
Neighbor list info ...
  update every 1 steps, delay 0 steps, check yes
  max neighbors/atom: 2000, page size: 100000
  master list distance cutoff = 12
  ghost atom cutoff = 12
  binsize = 6, bins = 3 3 3
  2 neighbor lists, perpetual/occasional/extra = 2 0 0
  (1) pair reax/c, perpetual
      attributes: half, newton off, ghost
      pair build: half/bin/newtoff/ghost
      stencil: half/ghost/bin/3d/newtoff
      bin: standard
  (2) fix qeq/reax, perpetual, copy from (1)
      attributes: half, newton off, ghost
      pair build: copy
      stencil: none
      bin: none
Setting up cg style minimization ...
  Unit style    : real
  Current step  : 0
Per MPI rank memory allocation (min/avg/max) = 27.51 | 27.65 | 27.84 Mbytes
Step Temp E_pair E_mol TotEng Press 
       0            0    -14140.01            0    -14140.01   -26776.392 
      49            0   -14354.611            0   -14354.611    8593.4007 
Loop time of 1.4705 on 8 procs for 49 steps with 81 atoms

99.2% CPU use with 8 MPI tasks x no OpenMP threads

Minimization stats:
  Stopping criterion = energy tolerance
  Energy initial, next-to-last, final = 
        -14140.0100564     -14354.6109542     -14354.6109539
  Force two-norm initial, final = 1005.97 118.189
  Force max component initial, final = 191.903 36.3595
  Final line search alpha, max atom move = 1.28071e-12 4.65661e-11
  Iterations, force evaluations = 49 301

MPI task timing breakdown:
Section |  min time  |  avg time  |  max time  |%varavg| %total
---------------------------------------------------------------
Pair    | 1.2122     | 1.2297     | 1.2575     |   1.3 | 83.62
Neigh   | 0          | 0          | 0          |   0.0 |  0.00
Comm    | 0.014914   | 0.042674   | 0.060145   |   6.8 |  2.90
Output  | 0.00010622 | 0.00013939 | 0.00024206 |   0.0 |  0.01
Modify  | 0.1945     | 0.19463    | 0.19479    |   0.0 | 13.24
Other   |            | 0.003387   |            |       |  0.23

Nlocal:    10.125 ave 11 max 10 min
Histogram: 7 0 0 0 0 0 0 0 0 1
Nghost:    1105.5 ave 1116 max 1098 min
Histogram: 1 0 3 0 0 3 0 0 0 1
Neighs:    2391 ave 2585 max 2356 min
Histogram: 7 0 0 0 0 0 0 0 0 1

Total # of neighbors = 19128
Ave neighs/atom = 236.148
Neighbor list builds = 0
Dangerous builds = 0
WARNING: Using 'neigh_modify every 1 delay 0 check yes' setting during minimization (../min.cpp:190)
Setting up cg style minimization ...
  Unit style    : real
  Current step  : 49
Per MPI rank memory allocation (min/avg/max) = 27.51 | 27.65 | 27.84 Mbytes
Step Temp E_pair E_mol TotEng Press 
      49            0   -14354.611            0   -14354.611     8593.398 
      50            0   -14354.611            0   -14354.611     8593.398 
Loop time of 0.278737 on 8 procs for 1 steps with 81 atoms

99.0% CPU use with 8 MPI tasks x no OpenMP threads

Minimization stats:
  Stopping criterion = linesearch alpha is zero
  Energy initial, next-to-last, final = 
        -14354.6109547     -14354.6109547     -14354.6109547
  Force two-norm initial, final = 118.189 118.189
  Force max component initial, final = 36.3595 36.3595
  Final line search alpha, max atom move = 6.40357e-13 2.32831e-11
  Iterations, force evaluations = 1 60

MPI task timing breakdown:
Section |  min time  |  avg time  |  max time  |%varavg| %total
---------------------------------------------------------------
Pair    | 0.24098    | 0.24519    | 0.25087    |   0.6 | 87.96
Neigh   | 0          | 0          | 0          |   0.0 |  0.00
Comm    | 0.0025792  | 0.0082663  | 0.01248    |   3.4 |  2.97
Output  | 0          | 0          | 0          |   0.0 |  0.00
Modify  | 0.024632   | 0.024662   | 0.02468    |   0.0 |  8.85
Other   |            | 0.0006204  |            |       |  0.22

Nlocal:    10.125 ave 11 max 10 min
Histogram: 7 0 0 0 0 0 0 0 0 1
Nghost:    1105.5 ave 1116 max 1098 min
Histogram: 1 0 3 0 0 3 0 0 0 1
Neighs:    2405.75 ave 2611 max 2373 min
Histogram: 7 0 0 0 0 0 0 0 0 1

Total # of neighbors = 19246
Ave neighs/atom = 237.605
Neighbor list builds = 0
Dangerous builds = 0
WARNING: Using 'neigh_modify every 1 delay 0 check yes' setting during minimization (../min.cpp:190)
Setting up cg style minimization ...
  Unit style    : real
  Current step  : 50
WARNING: Energy due to 3 extra global DOFs will be included in minimizer energies
Per MPI rank memory allocation (min/avg/max) = 27.51 | 27.65 | 27.84 Mbytes
Step Temp E_pair E_mol TotEng Press Volume 
      50            0   -14354.611            0   -14354.611    8593.3991    2414.5532 
      53            0    -14354.87            0    -14354.87   -1224.6017     2415.447 
Loop time of 0.233446 on 8 procs for 3 steps with 81 atoms

98.9% CPU use with 8 MPI tasks x no OpenMP threads

Minimization stats:
  Stopping criterion = linesearch alpha is zero
  Energy initial, next-to-last, final = 
        -14354.6109545     -14354.8702088     -14354.8702091
  Force two-norm initial, final = 539.745 243.686
  Force max component initial, final = 342.222 63.7413
  Final line search alpha, max atom move = 1.52252e-13 9.70471e-12
  Iterations, force evaluations = 3 51

MPI task timing breakdown:
Section |  min time  |  avg time  |  max time  |%varavg| %total
---------------------------------------------------------------
Pair    | 0.2052     | 0.20869    | 0.21315    |   0.5 | 89.39
Neigh   | 0          | 0          | 0          |   0.0 |  0.00
Comm    | 0.0021134  | 0.0065689  | 0.010048   |   3.0 |  2.81
Output  | 0          | 0          | 0          |   0.0 |  0.00
Modify  | 0.016788   | 0.016814   | 0.016841   |   0.0 |  7.20
Other   |            | 0.001375   |            |       |  0.59

Nlocal:    10.125 ave 11 max 10 min
Histogram: 7 0 0 0 0 0 0 0 0 1
Nghost:    1105.5 ave 1116 max 1098 min
Histogram: 1 0 3 0 0 3 0 0 0 1
Neighs:    2405.75 ave 2611 max 2373 min
Histogram: 7 0 0 0 0 0 0 0 0 1

Total # of neighbors = 19246
Ave neighs/atom = 237.605
Neighbor list builds = 0
Dangerous builds = 0
WARNING: Using 'neigh_modify every 1 delay 0 check yes' setting during minimization (../min.cpp:190)
Setting up cg style minimization ...
  Unit style    : real
  Current step  : 53
Per MPI rank memory allocation (min/avg/max) = 27.51 | 27.65 | 27.84 Mbytes
Step Temp E_pair E_mol TotEng Press 
      53            0    -14354.87            0    -14354.87    -1224.602 
      54            0    -14354.87            0    -14354.87   -1224.5992 
Loop time of 0.281409 on 8 procs for 1 steps with 81 atoms

99.1% CPU use with 8 MPI tasks x no OpenMP threads

Minimization stats:
  Stopping criterion = linesearch alpha is zero
  Energy initial, next-to-last, final = 
        -14354.8702092     -14354.8702092     -14354.8702082
  Force two-norm initial, final = 230.005 230.005
  Force max component initial, final = 57.3058 57.3058
  Final line search alpha, max atom move = 2.03148e-13 1.16415e-11
  Iterations, force evaluations = 1 61

MPI task timing breakdown:
Section |  min time  |  avg time  |  max time  |%varavg| %total
---------------------------------------------------------------
Pair    | 0.2449     | 0.24881    | 0.25439    |   0.6 | 88.42
Neigh   | 0          | 0          | 0          |   0.0 |  0.00
Comm    | 0.0026916  | 0.008261   | 0.012177   |   3.4 |  2.94
Output  | 0          | 0          | 0          |   0.0 |  0.00
Modify  | 0.023683   | 0.023708   | 0.023731   |   0.0 |  8.42
Other   |            | 0.0006283  |            |       |  0.22

Nlocal:    10.125 ave 11 max 10 min
Histogram: 7 0 0 0 0 0 0 0 0 1
Nghost:    1105.5 ave 1116 max 1098 min
Histogram: 1 0 3 0 0 3 0 0 0 1
Neighs:    2405.5 ave 2610 max 2372 min
Histogram: 7 0 0 0 0 0 0 0 0 1

Total # of neighbors = 19244
Ave neighs/atom = 237.58
Neighbor list builds = 0
Dangerous builds = 0
WARNING: Using 'neigh_modify every 1 delay 0 check yes' setting during minimization (../min.cpp:190)
Setting up cg style minimization ...
  Unit style    : real
  Current step  : 54
WARNING: Energy due to 3 extra global DOFs will be included in minimizer energies
Per MPI rank memory allocation (min/avg/max) = 27.51 | 27.65 | 27.84 Mbytes
Step Temp E_pair E_mol TotEng Press Volume 
      54            0    -14354.87            0    -14354.87   -1224.6009     2415.447 
      55            0    -14354.87            0    -14354.87   -1224.5997     2415.447 
Loop time of 0.215492 on 8 procs for 1 steps with 81 atoms

99.2% CPU use with 8 MPI tasks x no OpenMP threads

Minimization stats:
  Stopping criterion = linesearch alpha is zero
  Energy initial, next-to-last, final = 
        -14354.8702087     -14354.8702087     -14354.8702083
  Force two-norm initial, final = 243.691 243.691
  Force max component initial, final = 63.7534 63.7535
  Final line search alpha, max atom move = 1.86985e-13 1.19209e-11
  Iterations, force evaluations = 1 47

MPI task timing breakdown:
Section |  min time  |  avg time  |  max time  |%varavg| %total
---------------------------------------------------------------
Pair    | 0.18916    | 0.19224    | 0.19665    |   0.5 | 89.21
Neigh   | 0          | 0          | 0          |   0.0 |  0.00
Comm    | 0.0019183  | 0.0063213  | 0.0093971  |   3.0 |  2.93
Output  | 0          | 0          | 0          |   0.0 |  0.00
Modify  | 0.015659   | 0.015684   | 0.015711   |   0.0 |  7.28
Other   |            | 0.001242   |            |       |  0.58

Nlocal:    10.125 ave 11 max 10 min
Histogram: 7 0 0 0 0 0 0 0 0 1
Nghost:    1105.5 ave 1116 max 1098 min
Histogram: 1 0 3 0 0 3 0 0 0 1
Neighs:    2405.5 ave 2610 max 2372 min
Histogram: 7 0 0 0 0 0 0 0 0 1

Total # of neighbors = 19244
Ave neighs/atom = 237.58
Neighbor list builds = 0
Dangerous builds = 0
WARNING: Using 'neigh_modify every 1 delay 0 check yes' setting during minimization (../min.cpp:190)
Setting up cg style minimization ...
  Unit style    : real
  Current step  : 55
Per MPI rank memory allocation (min/avg/max) = 27.51 | 27.65 | 27.84 Mbytes
Step Temp E_pair E_mol TotEng Press 
      55            0    -14354.87            0    -14354.87   -1224.5987 
      56            0    -14354.87            0    -14354.87   -1224.6004 
Loop time of 0.281294 on 8 procs for 1 steps with 81 atoms

99.3% CPU use with 8 MPI tasks x no OpenMP threads

Minimization stats:
  Stopping criterion = linesearch alpha is zero
  Energy initial, next-to-last, final = 
        -14354.8702081     -14354.8702081     -14354.8702087
  Force two-norm initial, final = 230.005 230.005
  Force max component initial, final = 57.3058 57.3058
  Final line search alpha, max atom move = 2.03148e-13 1.16415e-11
  Iterations, force evaluations = 1 61

MPI task timing breakdown:
Section |  min time  |  avg time  |  max time  |%varavg| %total
---------------------------------------------------------------
Pair    | 0.24479    | 0.24867    | 0.25407    |   0.6 | 88.40
Neigh   | 0          | 0          | 0          |   0.0 |  0.00
Comm    | 0.0027384  | 0.0081396  | 0.01201    |   3.4 |  2.89
Output  | 0          | 0          | 0          |   0.0 |  0.00
Modify  | 0.023827   | 0.02386    | 0.023897   |   0.0 |  8.48
Other   |            | 0.0006276  |            |       |  0.22

Nlocal:    10.125 ave 11 max 10 min
Histogram: 7 0 0 0 0 0 0 0 0 1
Nghost:    1105.5 ave 1116 max 1098 min
Histogram: 1 0 3 0 0 3 0 0 0 1
Neighs:    2405.5 ave 2610 max 2372 min
Histogram: 7 0 0 0 0 0 0 0 0 1

Total # of neighbors = 19244
Ave neighs/atom = 237.58
Neighbor list builds = 0
Dangerous builds = 0
Setting up Verlet run ...
  Unit style    : real
  Current step  : 0
  Time step     : 0.25
Per MPI rank memory allocation (min/avg/max) = 26.39 | 26.52 | 26.72 Mbytes
Step Temp TotEng KinEng PotEng Press 
       0          300   -14283.331    71.539441    -14354.87    129.28115 
     200    194.45628   -14255.782    46.370978   -14302.153     9257.416 
     400    313.26331   -14214.872    74.702273   -14289.574   -8073.7366 
     600    357.87569   -14195.314    85.340757   -14280.655   -20061.635 
     800    287.57556   -14218.323    68.576649   -14286.899    1542.0202 
    1000     259.0982   -14230.793    61.785802   -14292.579   -20395.002 
    1200    293.94053   -14208.268    70.094471   -14278.363   -924.64876 
    1400    316.86923   -14207.227    75.562158   -14282.789    6904.1342 
    1600    329.60295   -14235.537    78.598704   -14314.136    4351.8369 
    1800    307.13599   -14253.077    73.241124   -14326.318   -11818.629 
    2000    294.44459   -14267.333    70.214671   -14337.547    4633.2326 
    2200    315.51923   -14275.769    75.240231   -14351.009     2549.795 
    2400    288.97661   -14274.962     68.91075   -14343.872    12198.479 
    2600    317.27823   -14258.191    75.659691   -14333.851    12165.567 
    2800    313.88343   -14283.225    74.850151   -14358.075   -3071.9375 
    3000     235.0514   -14292.469    56.051485   -14348.521    10087.096 
    3200    271.28553   -14275.725    64.692051   -14340.417    14806.556 
    3400    303.29473   -14274.058    72.325118   -14346.383   -13584.812 
    3600    311.43001   -14279.614    74.265096   -14353.879   -12076.596 
    3800    262.51538   -14293.169     62.60068   -14355.769     10918.16 
    4000    244.06036   -14294.685    58.199806   -14352.884   -5471.9681 
    4200    306.93119   -14277.173    73.192286   -14350.365    7397.5546 
    4400    265.13592   -14272.179    63.225586   -14335.405    12250.563 
    4600    313.69081   -14273.572    74.804218   -14348.376   -7986.6261 
    4800    313.90645    -14286.98    74.855641   -14361.836     17056.35 
    5000    248.95708   -14304.099    59.367501   -14363.466    15930.198 
    5200    324.93752    -14283.43    77.486161   -14360.916   -1200.4289 
    5400    309.16092    -14271.17    73.723999   -14344.894    19125.735 
    5600    277.36743   -14268.519     66.14237   -14334.661   -14184.556 
    5800    260.31236   -14291.548    62.075337   -14353.623    5813.5872 
    6000    346.49244    -14283.09    82.626251   -14365.716   -1987.9591 
    6200    312.73258   -14271.282    74.575713   -14345.858    14813.964 
    6400    286.31558   -14294.891    68.276188   -14363.167   -5354.9836 
    6600    316.17511   -14278.234    75.396637   -14353.631    10906.359 
    6800    307.75857   -14277.223    73.389587   -14350.613    -12075.67 
    7000    253.07097   -14295.683     60.34852   -14356.032    1915.4626 
    7200    317.74691    -14286.73    75.771456   -14362.502    11771.133 
    7400    311.69381   -14282.366    74.328003   -14356.694   -18641.788 
    7600    279.54275    -14291.87    66.661106   -14358.531    11929.576 
    7800    292.60063   -14270.415    69.774953    -14340.19    2406.2511 
    8000    292.94013   -14281.443    69.855911   -14351.299   -6723.6281 
    8200    257.29923   -14291.276     61.35681   -14352.633   -10692.158 
    8400    308.84122   -14284.805    73.647761   -14358.453    8811.6175 
    8600    349.63785   -14260.892    83.376321   -14344.269    16478.994 
    8800    288.40556   -14275.762    68.774575   -14344.536   -10660.049 
    9000    300.41329    -14277.87    71.637997   -14349.508    3083.0988 
    9200    280.82369   -14299.466    66.966566   -14366.433    8324.8871 
    9400    300.05264   -14285.509    71.551994   -14357.061   -14924.826 
    9600    294.01114   -14280.719    70.111309    -14350.83    15225.351 
    9800    337.85144   -14266.968    80.565678   -14347.534   -3186.1379 
   10000    295.62061   -14279.686    70.495112   -14350.181   -6035.0275 
   10200     313.8086   -14279.126    74.832305   -14353.959    12012.643 
   10400    323.13372   -14284.493    77.056019   -14361.549   -22818.041 
   10600    310.77798   -14288.992     74.10961   -14363.101   -23459.477 
   10800    288.50861     -14276.4    68.799148   -14345.199    2620.0613 
   11000     359.8461    -14253.23     85.81063   -14339.041   -21092.952 
   11200    307.32916   -14277.598    73.287188   -14350.886   -7688.8075 
   11400    293.54108   -14286.633    69.999216   -14356.632    20053.141 
   11600    315.57703   -14279.726    75.254014    -14354.98    -16724.05 
   11800    281.61038   -14295.281    67.154163   -14362.435    223.99156 
   12000    321.16218    -14275.89    76.585876   -14352.476     3254.541 
   12200    295.62181   -14276.982    70.495398   -14347.478    -11344.23 
   12400    287.48822   -14299.314    68.555822    -14367.87   -21251.625 
   12600     276.7481   -14292.407    65.994681   -14358.402   -2528.6635 
   12800    301.24301   -14275.773    71.835856   -14347.608   -5049.0421 
   13000    320.33659   -14276.958    76.389002   -14353.347    2651.4136 
   13200    307.76477   -14282.996    73.391065   -14356.387     15628.04 
   13400    297.55272   -14278.618    70.955851   -14349.574   -9334.9162 
   13600    350.07713   -14274.777    83.481074   -14358.258    10213.395 
   13800    258.23426   -14295.278    61.579782   -14356.858    12866.177 
   14000    295.44954   -14277.022    70.454317   -14347.476    1574.7924 
   14200    335.08191   -14268.466    79.905242   -14348.371    19079.765 
   14400    289.20495   -14290.611    68.965201   -14359.576   -9655.2096 
   14600    310.46744   -14279.467    74.035557   -14353.502   -1088.5346 
   14800    298.20663   -14275.712    71.111786   -14346.824   -6015.0284 
   15000    284.36261    -14287.02    67.810475   -14354.831    -3010.888 
   15200    304.78725   -14265.835    72.681032   -14338.516   -6409.4952 
   15400    293.94525   -14279.241    70.095595   -14349.337    11706.801 
   15600    305.64579   -14286.898    72.885764   -14359.784    406.02659 
   15800     285.9015   -14283.236    68.177446   -14351.413    4048.1498 
   16000    312.31821   -14275.618    74.476901   -14350.095    16772.615 
   16200    280.56672   -14289.716    66.905289   -14356.622    -9124.247 
   16400    294.15247    -14290.32    70.145012   -14360.465    594.61334 
   16600    295.11641   -14274.911    70.374878   -14345.286    14481.497 
   16800    327.41717   -14278.285    78.077471   -14356.362    1911.3249 
   17000    266.72839   -14296.665    63.605333    -14360.27    4762.4453 
   17200    262.95292   -14276.077    62.705017   -14338.782    278.38711 
   17400    304.43771   -14280.921    72.597678   -14353.519   -4764.6891 
   17600    256.32442   -14294.966    61.124353   -14356.091    1593.1716 
   17800    370.00757    -14270.57    88.233782   -14358.803    9347.2194 
   18000     290.0422   -14292.408    69.164855   -14361.573    1549.6691 
   18200    298.76453   -14277.784    71.244826   -14349.029   -14013.894 
   18400    322.29095   -14276.394    76.855049   -14353.249    13191.941 
   18600    274.64423   -14293.157    65.492982    -14358.65   -3733.6086 
   18800    273.69087   -14289.742    65.265641   -14355.008    14422.324 
   19000    297.36054   -14267.241    70.910023   -14338.151   -8487.1833 
   19200    278.51769   -14288.423    66.416667    -14354.84   -31715.208 
   19400    259.77473   -14289.846    61.947129   -14351.793    -11538.94 
   19600    337.55515   -14270.206    80.495023   -14350.701    5943.5982 
   19800     273.5283   -14286.587    65.226873   -14351.814   -10267.245 
   20000     331.1923   -14277.646    78.977707   -14356.624     13021.36 
   20200    333.15259   -14275.408    79.445167   -14354.853   -1595.4804 
   20400    255.78351   -14293.251    60.995366   -14354.247    10695.084 
   20600    344.77174   -14274.315    82.215925   -14356.531     12869.81 
   20800    316.25978   -14275.367    75.416828   -14350.784   -1919.7368 
   21000    280.78502   -14282.889    66.957344   -14349.846   -18750.081 
   21200    267.26379   -14300.355    63.733007   -14364.088    10136.106 
   21400     282.2632   -14287.211    67.309839   -14354.521   -3826.3579 
   21600    326.18552   -14271.285    77.783765   -14349.069    10051.376 
   21800    329.23872   -14277.476    78.511846   -14355.988   -13139.402 
   22000    288.15235   -14295.228    68.714193   -14363.942    3858.2184 
   22200      305.416   -14276.602    72.830966   -14349.433    -17678.32 
   22400    329.40537   -14275.067    78.551587   -14353.618    8746.9459 
   22600    282.83554   -14283.686    67.446323   -14351.133    5881.7448 
   22800    257.86868   -14294.699    61.492605   -14356.192   -32.246729 
   23000    278.08434   -14289.052    66.313328   -14355.365    6505.9601 
   23200    320.34637   -14278.589    76.391335   -14354.981    9112.1318 
   23400     314.2479   -14286.579    74.937064   -14361.516   -1886.3283 
   23600    258.40212   -14290.945    61.619812   -14352.565    2535.3736 
   23800    340.31682   -14271.207    81.153585   -14352.361    1100.1474 
   24000    271.89782   -14290.663    64.838059   -14355.501    132.01139 
   24200    266.00872   -14291.613    63.433718   -14355.046   -17748.635 
   24400    334.36758   -14274.301    79.734899   -14354.036    6197.2588 
   24600    295.85754    -14281.57     70.55161   -14352.121    11003.884 
   24800    303.19574   -14281.696    72.301513   -14353.997   -7594.3966 
   25000    347.11864   -14271.996    82.775579   -14354.771   -7524.5283 
   25200    332.32389   -14285.153     79.24755   -14364.401   -827.63331 
   25400    297.15168   -14287.755    70.860217   -14358.615   -2013.2247 
   25600    334.87256   -14257.863    79.855318   -14337.719   -256.40661 
   25800    317.27323   -14266.448    75.658499   -14342.107    2994.8336 
   26000    322.13736   -14280.978    76.818422   -14357.797    7934.4154 
   26200    282.07248   -14292.816     67.26436    -14360.08    12429.264 
   26400    323.93052   -14268.111    77.246029   -14345.357    871.14036 
   26600    265.87379    -14284.14    63.401541   -14347.542   -5760.0945 
   26800    296.84131   -14283.425    70.786205   -14354.211      7209.82 
   27000    332.64913    -14287.46    79.325111   -14366.785    9799.5689 
   27200    258.60017   -14298.107    61.667039   -14359.774    13466.644 
   27400    327.45109   -14273.681     78.08556   -14351.767    -12612.62 
   27600    293.41774   -14290.057    69.969804   -14360.027    -14581.15 
   27800    313.62187   -14272.804    74.787778   -14347.592    24384.528 
   28000    316.62803   -14274.876     75.50464    -14350.38   -4839.8862 
   28200     277.1226   -14286.557    66.083986   -14352.641   -11491.697 
   28400    253.75747   -14292.389    60.512226   -14352.902   -2291.0421 
   28600    267.30201    -14294.18    63.742121   -14357.923    17909.803 
   28800    272.55126   -14280.585    64.993884   -14345.578   -4016.0979 
   29000    254.40482    -14290.53    60.666595   -14351.196   -15375.451 
   29200    278.74094   -14285.856    66.469905   -14352.326    14790.855 
   29400    296.39772   -14268.707    70.680425   -14339.387    18996.418 
   29600    276.73084   -14286.828    65.990565   -14352.818   -3090.7367 
   29800    247.99775   -14292.671    59.138735   -14351.809    10376.101 
   30000    295.18901    -14293.29     70.39219   -14363.682    8261.3385 
   30200      280.363   -14284.615    66.856708   -14351.472   -9812.3177 
   30400     279.9596   -14289.614    66.760511   -14356.374    14383.928 
   30600    322.84015   -14284.666    76.986014   -14361.652    4272.9934 
   30800    309.46568   -14278.115    73.796672   -14351.912   -4296.8311 
   31000    235.82019   -14302.851    56.234814   -14359.086    8678.3768 
   31200     319.3931   -14288.035    76.164013   -14364.199    806.81069 
   31400    295.59512   -14275.251    70.489032    -14345.74    356.23971 
   31600    288.10133   -14280.595    68.702027   -14349.297   -11922.724 
   31800    301.29955   -14290.521    71.849339    -14362.37   -19985.169 
   32000    318.25043    -14269.58    75.891527   -14345.472   -5686.9715 
   32200    284.32199   -14282.291    67.800787   -14350.092   -9405.8333 
   32400    314.61551   -14278.546    75.024726   -14353.571    27730.955 
   32600    294.37894   -14281.787    70.199016   -14351.986    3735.4734 
   32800    313.66664   -14284.813    74.798454   -14359.611   -6160.8233 
   33000    302.51695   -14277.515    72.139646   -14349.655   -5337.0272 
   33200    288.90477   -14291.043    68.893619   -14359.937   -3647.8187 
   33400    284.88533   -14290.051    67.935123   -14357.986   -4959.2556 
   33600    307.64317   -14271.037    73.362069   -14344.399   -9217.6513 
   33800    323.17486   -14285.967    77.065829   -14363.033    2781.9827 
   34000    259.83673    -14307.83    61.961915   -14369.792    7845.7189 
   34200    278.04262   -14289.269     66.30338   -14355.573    31044.656 
   34400    343.62455   -14274.127    81.942362    -14356.07   -2256.4242 
   34600    291.09851   -14281.888     69.41675   -14351.305   -8692.4128 
   34800    269.98902   -14293.272    64.382878   -14357.655    13331.334 
   35000    309.57676    -14280.15    73.823162   -14353.973   -1930.0736 
   35200    280.64333   -14281.884    66.923557   -14348.807    6408.0486 
   35400    296.23744    -14283.25    70.642204   -14353.892   -4418.8922 
   35600    301.84047   -14259.619    71.978329   -14331.597   -6435.8758 
   35800    295.03513   -14280.704    70.355493   -14351.059   -467.40087 
   36000    261.61864   -14287.354    62.386838   -14349.741    594.89575 
   36200    305.15737   -14276.387    72.769293   -14349.156    6724.9172 
   36400    300.13305    -14275.42     71.57117   -14346.991   -17144.095 
   36600    269.02675   -14288.709    64.153411   -14352.862    9608.7624 
   36800    274.22375   -14274.159    65.392714   -14339.552   -10183.975 
   37000    345.24625   -14273.575    82.329079   -14355.904    9817.3816 
   37200    249.05905   -14289.372    59.391817   -14348.764    10562.541 
   37400    317.75202   -14274.528    75.772673     -14350.3   -5019.9268 
   37600    391.66702   -14262.209    93.398799   -14355.608   -9182.4204 
   37800    258.46379   -14289.261    61.634516   -14350.895    3427.0572 
   38000     334.1641   -14282.467    79.686376   -14362.154    1356.4749 
   38200    314.65333   -14272.993    75.033744   -14348.027   -1940.2498 
   38400    305.98417   -14279.539    72.966455   -14352.506    7925.5335 
   38600    283.07213   -14292.837    67.502741    -14360.34   -3908.0259 
   38800    295.67891   -14281.458    70.509012   -14351.967    8524.8939 
   39000    325.95004   -14280.499    77.727612   -14358.226   -6453.8153 
   39200    250.36483   -14296.945    59.703201   -14356.648    10351.135 
   39400    288.31392   -14287.577    68.752723    -14356.33    4642.4714 
   39600    312.83963   -14273.496    74.601241   -14348.098    10168.721 
   39800    352.94213   -14270.165    84.164275   -14354.329    12366.251 
   40000    309.89575   -14282.067    73.899228   -14355.966    7113.7691 
   40200    328.92975   -14268.101    78.438168    -14346.54   -21254.862 
   40400    285.10692    -14290.38    67.987966   -14358.368   -4968.3474 
   40600     300.8769   -14288.236     71.74855   -14359.985    15361.925 
   40800    334.35169   -14277.423     79.73111   -14357.154    20126.353 
   41000    261.30436   -14301.067    62.311892   -14363.379   -16056.868 
   41200    288.24462   -14282.677    68.736196   -14351.413    13781.249 
   41400    300.87041   -14280.143    71.747003    -14351.89   -8148.2331 
   41600    314.86443   -14281.432    75.084083   -14356.516   -2887.7408 
   41800    287.87462   -14289.908    68.647965   -14358.556    11907.656 
   42000    343.99425   -14277.976    82.030522   -14360.006   -3323.4595 
   42200    300.47019     -14286.2    71.651564   -14357.851    1311.1692 
   42400    279.82205   -14285.396    66.727709   -14352.124    104.88196 
   42600    328.34303   -14277.946    78.298257   -14356.244    468.83688 
   42800    244.15922   -14298.909     58.22338   -14357.133   -3433.6694 
   43000    315.81467   -14281.339    75.310683    -14356.65    6444.6748 
   43200    262.65552   -14276.821    62.634097   -14339.455   -30291.353 
   43400    354.83813   -14266.486    84.616404   -14351.103   -7044.1249 
   43600    301.89759   -14290.431    71.991951   -14362.423    5501.7544 
   43800    302.05171   -14281.074    72.028702   -14353.103   -19191.349 
   44000    349.47631   -14270.042    83.337801   -14353.379    6059.1668 
   44200    319.61575   -14268.822    76.217108   -14345.039    2932.2677 
   44400    332.15432   -14285.961    79.207114   -14365.168   -19282.563 
   44600    284.26469   -14292.824    67.787124   -14360.611    3274.5798 
   44800     309.1463   -14270.664    73.720513   -14344.384   -7098.5687 
   45000    278.03345   -14286.998    66.301191   -14353.299   -20994.837 
   45200    305.19714   -14286.737    72.778777   -14359.516    849.00229 
   45400    316.26078   -14278.083    75.417064     -14353.5     10468.55 
   45600    344.38925   -14264.178    82.124715   -14346.303   -23005.822 
   45800    258.12949   -14286.559    61.554797   -14348.114   -3942.2286 
   46000    320.45386    -14273.99    76.416968   -14350.407    -13091.54 
   46200    299.47159    -14279.68    71.413435   -14351.093    4762.7926 
   46400    278.49234   -14295.324    66.410622   -14361.734   -9458.7216 
   46600    292.42739   -14277.328     69.73364   -14347.061    7389.3306 
   46800    304.24521   -14279.195    72.551773   -14351.747   -8221.2503 
   47000    260.66551   -14293.388    62.159551   -14355.547    818.04085 
   47200    316.88732   -14278.903    75.566472   -14354.469     2910.289 
   47400    322.48202   -14280.478    76.900612   -14357.378    2448.1537 
   47600    278.98848   -14302.073    66.528933   -14368.602   -4550.8222 
   47800    292.87234   -14283.835    69.839744   -14353.675   -22055.753 
   48000    330.35087   -14275.588    78.777056   -14354.365    2737.1804 
   48200    284.29631   -14289.219    67.794663   -14357.014    5046.3023 
   48400    291.31777   -14283.303    69.469034   -14352.772    9094.2026 
   48600    308.16174   -14283.761    73.485728   -14357.246   -6671.3174 
   48800    275.02702    -14293.82    65.584264   -14359.404   -10729.455 
   49000    304.31127   -14282.687    72.567527   -14355.255   -6082.4574 
   49200    288.64406    -14280.72    68.831449   -14349.551    19751.846 
   49400    297.74123   -14282.698    71.000804   -14353.699    4432.4762 
   49600    310.79647   -14278.591     74.11402   -14352.705   -15822.388 
   49800    308.29102   -14274.173    73.516557   -14347.689   -12865.846 
   50000    255.12337   -14295.789    60.837944   -14356.627    8028.9728 
   50200    277.48022   -14287.161    66.169266    -14353.33   -14663.534 
   50400    315.71074   -14272.916    75.285899   -14348.202   -9108.5617 
   50600    277.90587   -14290.814    66.270769   -14357.085   -12355.267 
   50800    299.17868   -14276.063    71.343586   -14347.407   -6588.0422 
   51000    352.31692   -14270.356    84.015185   -14354.371   -10822.894 
   51200    308.10313   -14287.076    73.471753   -14360.548   -1962.5615 
   51400    283.93408   -14278.414    67.708286   -14346.122    6230.3281 
   51600    359.04493   -14255.515     85.61958   -14341.134    1712.8852 
   51800     322.7695   -14278.896    76.969165   -14355.865   -16660.228 
   52000    294.33857   -14286.172    70.189388   -14356.361   -2018.3484 
   52200    293.08737   -14291.966    69.891021   -14361.857   -1267.3835 
   52400    367.04573   -14267.944    87.527489   -14355.471    -4065.623 
   52600    286.87267   -14283.133    68.409036   -14351.542    2622.5117 
   52800    271.86227   -14284.423    64.829583   -14349.252   -11409.931 
   53000    325.49544   -14279.569    77.619207   -14357.188   -7077.7247 
   53200    266.58575   -14299.074    63.571318   -14362.645   -79.651985 
   53400    314.83124   -14286.877     75.07617   -14361.953    5866.6064 
   53600    279.17338   -14276.168    66.573025   -14342.741    5681.0352 
   53800    323.79018   -14269.034    77.212562   -14346.246   -3656.7827 
   54000    314.82493   -14286.835    75.074666    -14361.91    7228.5418 
   54200    314.53893    -14278.87    75.006465   -14353.876    503.49663 
   54400    290.30734   -14274.317    69.228082   -14343.545   -29727.546 
   54600    252.89269   -14292.696    60.306006   -14353.002    8430.2889 
   54800    319.89527   -14273.816    76.283762     -14350.1    14284.829 
   55000    301.48811   -14281.255    71.894304    -14353.15    -7736.875 
   55200    273.62323   -14285.637    65.249509   -14350.886    7675.4928 
   55400    333.50218   -14267.745    79.528532   -14347.273   -12081.902 
   55600    300.14751   -14279.153    71.574617   -14350.728   -9527.0035 
   55800    280.94744   -14290.495    66.996075   -14357.491     14580.79 
   56000    320.52395   -14273.382    76.433682   -14349.815    37.641921 
   56200    312.46127   -14282.983    74.511015   -14357.494     4763.329 
   56400    265.11675    -14306.24    63.221013   -14369.461    1570.5006 
   56600    283.79974   -14299.738    67.676249   -14367.414   -2272.6454 
   56800    351.39125   -14278.757    83.794445   -14362.551   -3538.2228 
   57000    310.26452   -14275.297    73.987167   -14349.284    -11604.49 
   57200    292.35419   -14296.017    69.716185   -14365.733   -9245.8807 
   57400    343.03069    -14279.49    81.800747   -14361.291    6573.5978 
   57600    290.45728   -14283.118    69.263839   -14352.382    4342.2218 
   57800    271.79195   -14286.854    64.812813   -14351.667    3328.2384 
   58000    292.64428   -14279.376    69.785361   -14349.162    8750.6796 
   58200    256.03713   -14281.188    61.055844   -14342.243   -16606.228 
   58400     295.4044   -14296.446    70.443551   -14366.889    12377.368 
   58600    307.14801   -14276.555    73.243991   -14349.799    11822.431 
   58800    320.30348   -14278.358    76.381106   -14354.739   -5126.2106 
   59000    264.80755   -14297.372    63.147281   -14360.519    2161.0511 
   59200    295.23438   -14281.306    70.403009   -14351.709    2071.4038 
   59400    296.12175   -14280.948    70.614615   -14351.563     5312.041 
   59600    286.54132    -14289.02     68.33002    -14357.35    778.47376 
   59800    286.47535   -14277.885    68.314288   -14346.199   -4130.2682 
   60000    317.35461   -14274.997    75.677905   -14350.675   -13073.563 
   60200    295.25211   -14294.778    70.407237   -14365.185    9744.8956 
   60400    313.35755   -14285.722    74.724748   -14360.447    17838.717 
   60600     297.6637   -14280.251    70.982316   -14351.233     4358.026 
   60800     272.5631   -14284.542    64.996707   -14349.539   -10136.898 
   61000    298.21073   -14298.882    71.112763   -14369.995   -20353.621 
   61200    313.77258   -14280.119    74.823718   -14354.943   -4145.2505 
   61400    298.47258   -14278.486    71.175205   -14349.662    9362.8223 
   61600     346.2241   -14253.264    82.562262   -14335.827    17504.407 
   61800    312.86711   -14279.201    74.607793   -14353.809   -4225.5557 
   62000    298.61949   -14286.883    71.210238   -14358.093     15934.75 
   62200    306.37261   -14277.732    73.059085   -14350.792    7526.2743 
   62400    295.59151   -14273.777    70.488172   -14344.265   -16788.172 
   62600    275.02415    -14291.76     65.58358   -14357.343   -5886.5708 
   62800    302.73507   -14285.693    72.191659   -14357.884   -179.75299 
   63000    298.64643    -14276.32    71.216663   -14347.537   -12961.836 
   63200    267.61837   -14301.985    63.817563   -14365.803    11546.083 
   63400    297.32855   -14283.249    70.902394   -14354.152   -5713.8903 
   63600    299.67995   -14278.092    71.463121   -14349.555    7446.0849 
   63800    261.96753   -14301.134    62.470036   -14363.604    5340.4025 
   64000    346.02762   -14275.278    82.515408   -14357.794    6104.4728 
   64200    275.79235     -14284.8     65.76677   -14350.567    6757.7757 
   64400    303.58035   -14290.496    72.393229    -14362.89    4979.7742 
   64600    335.58144   -14270.289    80.024362   -14350.313   -1735.5691 
   64800    313.26536   -14272.666    74.702762   -14347.369   -2470.5877 
   65000    319.03942   -14295.831    76.079673   -14371.911    -17048.58 
   65200    294.91339   -14279.933    70.326463    -14350.26   -674.02683 
   65400    288.47831   -14279.133    68.791925   -14347.925    10728.641 
   65600    295.11858   -14294.322    70.375395   -14364.698   -25224.698 
   65800    293.61024   -14293.079    70.015708   -14363.095   -11586.061 
   66000    325.54245   -14278.037    77.630416   -14355.667   -19754.337 
   66200    306.48588   -14272.665    73.086096   -14345.751   -477.87064 
   66400    299.54802   -14290.671    71.431659   -14362.103     804.2925 
   66600    321.20422   -14282.818    76.595901   -14359.414    3901.4688 
   66800    332.32394   -14270.369    79.247563   -14349.617   -6483.6635 
   67000    267.01775   -14281.664    63.674336   -14345.338    7029.0479 
   67200    252.00487   -14291.461    60.094293   -14351.556   -4108.3546 
   67400    310.96442   -14274.439    74.154071   -14348.593    25526.053 
   67600    269.72562   -14275.543    64.320067   -14339.863    1651.7737 
   67800    286.48659   -14294.158     68.31697   -14362.475    251.82432 
   68000     263.4317   -14305.836     62.81919   -14368.655    -13569.37 
   68200    306.56053   -14284.363    73.103897   -14357.466     19636.45 
   68400    366.08954   -14269.101    87.299471     -14356.4   -221.30852 
   68600    244.69428   -14290.755    58.350973   -14349.106   -12044.188 
   68800     287.0038   -14288.906    68.440305   -14357.346    11088.655 
   69000    305.88622   -14264.099    72.943097   -14337.042   -6558.6245 
   69200    275.39812   -14288.659    65.672758   -14354.332    25219.969 
   69400    318.19383    -14285.19    75.878029   -14361.068    11970.198 
   69600    329.97345    -14271.25    78.687054   -14349.937   -10764.103 
   69800    276.48625   -14292.093    65.932239   -14358.026    3149.6433 
   70000    254.22665   -14287.877    60.624109   -14348.501   -19279.945 
   70200    321.31243   -14275.985    76.621706   -14352.607    6185.7137 
   70400    308.51475   -14287.687     73.56991   -14361.256   -620.11888 
   70600    275.56467   -14286.308    65.712476    -14352.02    5959.0422 
   70800     312.3948   -14273.095    74.495164    -14347.59    16221.684 
   71000    272.72394   -14295.743    65.035061   -14360.778    2654.0313 
   71200    269.87619    -14290.91    64.355974   -14355.266   -20013.271 
   71400    298.28693   -14281.012    71.130935   -14352.143   -2615.6444 
   71600    346.31015   -14264.823    82.582782   -14347.406   -23716.564 
   71800    334.16937    -14286.15    79.687632   -14365.838   -7466.3012 
   72000    271.50756   -14285.035    64.744997    -14349.78    22949.742 
   72200    325.15264   -14275.181     77.53746   -14352.719   -9801.3242 
   72400    266.82593   -14290.087    63.628593   -14353.716    22084.528 
   72600    293.55525     -14276.3    70.002595   -14346.302   -4152.7167 
   72800    269.44662   -14278.936    64.253535   -14343.189    21008.224 
   73000    279.94379   -14295.161    66.756741   -14361.918    -13941.84 
   73200    328.57136   -14269.912    78.352706   -14348.264    11492.547 
   73400    307.43926   -14269.519    73.313444   -14342.833    12619.784 
   73600    287.88783   -14291.157    68.651114   -14359.808   -1842.8405 
   73800    309.88089   -14280.633    73.895686   -14354.529    11436.142 
   74000    301.72335   -14281.684      71.9504   -14353.635    2637.2102 
   74200    320.60018   -14281.754    76.451858   -14358.206    9005.3741 
   74400    309.86416   -14278.145    73.891695   -14352.037     17624.36 
   74600    276.45271    -14289.79    65.924242   -14355.714   -4327.6067 
   74800    274.13457   -14296.263    65.371447   -14361.635    29469.722 
   75000    326.89872   -14275.423    77.953839   -14353.377    9982.3003 
   75200    312.36145   -14286.424    74.487213   -14360.911    2871.0543 
   75400    258.32472   -14290.868    61.601355   -14352.469   -2442.0143 
   75600    304.97464   -14271.467    72.725717   -14344.193   -7834.3601 
   75800    298.17494   -14289.374     71.10423   -14360.479   -1762.8565 
   76000    301.62082   -14286.036    71.925949   -14357.962    21131.356 
   76200    342.67756   -14270.029    81.716537   -14351.745   -1001.8345 
   76400    306.47391    -14288.85     73.08324   -14361.933   -7796.8927 
   76600    333.55601    -14268.26    79.541369   -14347.801   -2331.1166 
   76800    274.29272   -14270.894    65.409159   -14336.303   -13938.795 
   77000    310.63005   -14288.052    74.074334   -14362.127    4804.3373 
   77200    306.16805   -14285.405    73.010304   -14358.415   0.25909116 
   77400    352.00113   -14263.269    83.939879   -14347.208   -420.32983 
   77600    320.49262   -14272.424    76.426211    -14348.85    12136.681 
   77800    332.64105   -14280.809    79.323182   -14360.132   -5665.0846 
   78000    289.35175   -14299.494    69.000208   -14368.495   -1878.5879 
   78200    319.64478   -14287.766     76.22403    -14363.99   -3341.2322 
   78400    304.95218    -14274.35    72.720363    -14347.07   -2591.3574 
   78600     303.1449   -14282.395    72.289389   -14354.685   -2647.4878 
   78800    284.44019   -14288.079    67.828975   -14355.908    9730.2414 
   79000    313.29322   -14271.764    74.709407   -14346.474    2994.6734 
   79200     266.3749   -14288.635    63.521039   -14352.156   -11176.245 
   79400    323.24927   -14283.869    77.083575   -14360.952    6493.4283 
   79600    305.37197   -14271.711    72.820468   -14344.532    337.76656 
   79800    287.36569   -14286.922    68.526603   -14355.449    18044.054 
   80000    249.71569    -14304.27    59.548403   -14363.818   -2762.3525 
   80200    315.26773   -14286.094    75.180257   -14361.274   -5028.3555 
   80400    290.95862   -14282.474     69.38339   -14351.858    1959.6232 
   80600    255.92134   -14298.046    61.028231   -14359.074    2102.6512 
   80800    311.57566   -14277.857    74.299828   -14352.157   -19814.892 
   81000    319.68597    -14284.59    76.233852   -14360.823   -3565.6728 
   81200    239.34084   -14295.234    57.074365   -14352.308    10621.516 
   81400    278.81634   -14284.716    66.487883   -14351.204   -4783.9361 
   81600    355.50027   -14270.489    84.774302   -14355.263    14830.756 
   81800    294.58006   -14291.559    70.246977   -14361.806    5640.4621 
   82000    285.62166   -14283.192    68.110713   -14351.303    5413.1281 
   82200    328.67355   -14273.006    78.377075   -14351.383   -5434.5647 
   82400    264.46561   -14284.935     63.06574   -14348.001    22505.915 
   82600     274.7415   -14293.996    65.516178   -14359.512   -134.73952 
   82800    311.80764   -14282.771    74.355147   -14357.126   -24189.165 
   83000    315.80631   -14275.684    75.308689   -14350.993    23800.768 
   83200    272.58079   -14299.065    65.000925   -14364.066   -5078.2965 
   83400     303.3889   -14282.304    72.347574   -14354.652    -28534.38 
   83600    286.61088   -14277.564    68.346607    -14345.91    22381.522 
   83800    274.69713   -14299.996    65.505597   -14365.502   -8795.9414 
   84000    292.86658   -14281.588    69.838371   -14351.426   -11357.311 
   84200    341.44625   -14274.904    81.422912   -14356.327   -4881.3148 
   84400    271.26012   -14293.447    64.685992   -14358.133   -15752.175 
   84600    298.85334   -14283.625    71.266003   -14354.891    5182.9242 
   84800    336.85138   -14264.031    80.327199   -14344.358    3832.7022 
   85000    360.02788   -14242.075    85.853977   -14327.929    1094.4635 
   85200    305.46472   -14281.404    72.842584   -14354.246   -17667.258 
   85400    304.67232   -14288.897    72.653624   -14361.551   -10222.742 
   85600    321.90054   -14270.265     76.76195   -14347.027   -3645.0395 
   85800    308.09953   -14279.156    73.470894   -14352.627   -20550.544 
   86000    331.31094   -14284.459    79.005998   -14363.465    12384.198 
   86200    312.92661   -14267.037    74.621982   -14341.659    1121.5385 
   86400    314.39032   -14276.831    74.971026   -14351.802   -16544.245 
   86600    301.30463   -14285.199     71.85055    -14357.05     -7636.59 
   86800     292.7138   -14284.637    69.801938   -14354.439   -3639.6578 
   87000    344.68088   -14264.178    82.194258   -14346.373   -16734.299 
   87200    295.26843   -14287.108    70.411128   -14357.519    5168.4483 
   87400    274.42684   -14283.886    65.441143   -14349.327   -4711.2238 
   87600      283.459   -14274.069    67.594995   -14341.664    17102.308 
   87800    330.86904   -14271.124    78.900621   -14350.024    5500.6341 
   88000    283.09933   -14293.074    67.509226   -14360.583    319.73438 
   88200    267.30727   -14283.225    63.743375   -14346.969    3365.5855 
   88400    323.25668   -14281.708    77.085342   -14358.794    11582.071 
   88600    270.33801   -14279.432      64.4661   -14343.898    471.89914 
   88800    327.31839   -14270.104    78.053916   -14348.158    1665.9131 
   89000    303.22815   -14283.885    72.309242   -14356.194   -1189.3623 
   89200    328.81532   -14281.775     78.41088   -14360.185    -12239.85 
   89400     276.9457   -14290.353    66.041802   -14356.395    9838.5046 
   89600    329.95496   -14275.805    78.682645   -14354.488   -14993.969 
   89800    254.46191   -14278.818     60.68021   -14339.498   -9263.4194 
   90000    320.40804    -14295.28     76.40604   -14371.686    3258.5442 
   90200    291.13737   -14278.829    69.426017   -14348.255     4489.487 
   90400    353.64475   -14268.423    84.331826   -14352.755   -3787.7644 
   90600    270.35698   -14292.353    64.470624   -14356.824    10305.234 
   90800    322.67319   -14279.013    76.946199   -14355.959    3981.1707 
   91000    270.15332   -14287.268    64.422059    -14351.69    6030.3264 
   91200    213.55593   -14302.381    50.925573   -14353.306    4334.1746 
   91400     291.1907   -14285.036    69.438734   -14354.475   -2282.3199 
   91600    294.61952   -14275.209    70.256387   -14345.465    559.17605 
   91800    289.72783   -14293.684    69.089891   -14362.774   -6376.1708 
   92000    293.69359   -14286.994    70.035584   -14357.029   -10657.093 
   92200    333.42148   -14279.588    79.509288   -14359.097   -12091.244 
   92400    277.76395   -14297.285    66.236926   -14363.522    8610.8655 
   92600    284.33751   -14273.669    67.804488   -14341.473    13296.868 
   92800    266.06227   -14289.601    63.446486   -14353.047    10596.276 
   93000    297.10584   -14281.416    70.849285   -14352.265    3181.1147 
   93200    307.50112   -14271.625    73.328193   -14344.954   -14448.532 
   93400    274.14611   -14288.059    65.374197   -14353.433    6297.6626 
   93600    322.32977   -14271.128    76.864305   -14347.992   -2513.8771 
   93800    285.22001   -14285.131    68.014933   -14353.146    17509.362 
   94000    287.72888   -14291.305     68.61321   -14359.918   -8622.7482 
   94200    319.04552   -14277.219    76.081127   -14353.301   -1428.9413 
   94400    335.66956   -14279.209    80.045377   -14359.254   -3898.4348 
   94600    279.00734   -14296.591    66.533431   -14363.124   -24776.093 
   94800     299.5058   -14280.556    71.421591   -14351.978   -6533.6398 
   95000    312.29193   -14275.299    74.470634    -14349.77    11423.487 
   95200    285.10537   -14290.192    67.987595   -14358.179   -1941.8772 
   95400    293.20319     -14288.4    69.918641   -14358.319    22287.332 
   95600    317.35903   -14269.337     75.67896   -14345.016    4551.3752 
   95800     289.4137   -14284.116    69.014982   -14353.131   -5083.0001 
   96000    276.53088   -14294.893    65.942882   -14360.835   -35508.226 
   96200    296.17369   -14271.373    70.627001       -14342    12936.119 
   96400    311.79156   -14285.379    74.351312    -14359.73   -31085.854 
   96600     278.5415   -14284.278    66.422345     -14350.7     15427.33 
   96800    262.29527   -14282.212     62.54819   -14344.761   -5954.9717 
   97000    285.05497   -14283.926    67.975577   -14351.901   -17162.479 
   97200    363.89768       -14259     86.77679   -14345.777   -9092.7529 
   97400    263.46311   -14284.977     62.82668   -14347.804   -6756.0162 
   97600     326.0954    -14283.48    77.762275   -14361.243   -2771.3899 
   97800    382.47207   -14261.964    91.206128    -14353.17    4789.5174 
   98000    308.15194   -14286.409    73.483391   -14359.892    7030.8762 
   98200    281.94369   -14292.115    67.233646   -14359.349   -10573.011 
   98400    348.86426   -14269.009    83.191848   -14352.201   -4774.5269 
   98600     301.9675   -14278.344     72.00862   -14350.353   -3732.0911 
   98800    325.22421   -14280.389    77.554529   -14357.944   -18756.474 
   99000     276.6034   -14303.435    65.960177   -14369.395    6729.2047 
   99200    271.20829   -14288.286    64.673632    -14352.96    13139.289 
   99400    322.68746   -14273.259    76.949601   -14350.209   -6009.9689 
   99600    296.56231   -14283.322    70.719673   -14354.042    5712.4919 
   99800     270.0944   -14292.814    64.408008   -14357.222    11530.765 
  100000    300.97575   -14273.618    71.772123    -14345.39    -9768.225 
  100200    316.17557   -14276.024    75.396745   -14351.421   -23787.545 
  100400    275.65935   -14300.191    65.735053   -14365.926    1184.1335 
  100600    268.28068   -14292.243      63.9755   -14356.218   -3488.7198 
  100800    300.54396   -14280.561    71.669157    -14352.23   -4852.9886 
  101000    351.74649   -14266.737    83.879157   -14350.616   -16368.399 
  101200    306.78769   -14293.287    73.158067   -14366.445    19586.314 
  101400    299.84716   -14286.091    71.502993   -14357.594   -2248.2154 
  101600    323.01459   -14273.932     77.02761    -14350.96    5673.6903 
  101800     274.2741   -14284.974     65.40472   -14350.379   -17455.874 
  102000    289.10295   -14292.364    68.940877   -14361.304    1941.8229 
  102200    304.73163   -14273.158    72.667769   -14345.825     -17348.2 
  102400    304.62096   -14284.013    72.641379   -14356.654   -4751.9592 
  102600    307.99996   -14289.771    73.447149   -14363.218    10251.832 
  102800    350.10407   -14260.913    83.487498   -14344.401    5520.8157 
  103000    298.85184   -14272.221    71.265646   -14343.486    13426.917 
  103200    248.18061   -14289.844     59.18234   -14349.026   -16719.659 
  103400    271.21732   -14272.949    64.675784   -14337.625   -1386.1912 
  103600    363.56333    -14258.78    86.697058   -14345.477   -3492.3026 
  103800    250.20232    -14280.95    59.664447   -14340.615    1687.3833 
  104000    270.46952   -14289.437    64.497462   -14353.935    8114.2927 
  104200    327.04228   -14281.205    77.988072   -14359.193    1820.2365 
  104400    251.16012   -14285.668    59.892849   -14345.561   -12834.168 
  104600    315.93415   -14286.029    75.339175   -14361.368    24218.169 
  104800    302.86666     -14268.2    72.223038   -14340.423   -14271.683 
  105000    294.95134   -14285.517    70.335514   -14355.852    9260.9381 
  105200    304.70242   -14291.077    72.660803   -14363.737     4351.762 
  105400    282.29265   -14270.537    67.316861   -14337.853   -6031.4227 
  105600    309.36606   -14281.692    73.772916   -14355.465   -5750.5507 
  105800    287.73786   -14290.393    68.615353   -14359.008   -7611.4625 
  106000     361.0704   -14268.286    86.102583   -14354.388    20740.175 
  106200    278.25045   -14282.705    66.352938   -14349.058   -18200.513 
  106400     313.9037   -14272.622    74.854984   -14347.477   -5654.7339 
  106600    257.01166   -14296.805    61.288236   -14358.093    22102.787 
  106800     305.7728   -14282.511    72.916052   -14355.427    11252.825 
  107000    258.60487   -14287.325    61.668161   -14348.993    8352.9133 
  107200    270.62069   -14297.564     64.53351   -14362.098   -7430.3696 
  107400    297.16849    -14281.67    70.864225   -14352.535   -104.60233 
  107600    298.58286     -14270.3    71.201504   -14341.501   -8826.6426 
  107800    371.39605   -14271.227    88.564885   -14359.791   -6508.2907 
  108000    274.59479   -14284.907    65.481192   -14350.388    8335.1336 
  108200    306.81593    -14277.32      73.1648   -14350.485   -17203.022 
  108400    279.82298    -14300.36    66.727932   -14367.088   -5082.8115 
  108600    282.04573   -14280.192     67.25798    -14347.45     26737.08 
  108800    291.52326   -14282.791    69.518038   -14352.309   -10766.209 
  109000     321.1733   -14264.609    76.588527   -14341.198    6851.8632 
  109200    303.61712   -14274.626    72.401996   -14347.028     2279.015 
  109400    308.87992    -14281.68    73.656989   -14355.337   -1078.5283 
  109600    307.77086   -14281.639    73.392518   -14355.031    12602.055 
  109800    279.77799    -14296.42    66.717203   -14363.137    9684.9114 
  110000    293.90643   -14278.918    70.086338   -14349.005   -7671.2885 
  110200    287.20473   -14283.915     68.48822   -14352.403   -15925.346 
  110400    297.57586   -14283.747     70.96137   -14354.709   -6286.9504 
  110600    295.14866   -14280.503    70.382566   -14350.885    6453.5571 
  110800    331.03438   -14272.294    78.940048   -14351.234   -12749.437 
  111000    255.70304   -14293.157    60.976175   -14354.133    32737.212 
  111200    346.03953   -14276.095    82.518249   -14358.613   -5156.7361 
  111400     298.4084   -14284.294      71.1599   -14355.454   -17410.517 
  111600     303.3407    -14294.44     72.33608   -14366.776    9947.2511 
  111800    266.02049   -14285.246    63.436525   -14348.682   -2554.0659 
  112000    313.33771   -14268.466    74.720016   -14343.186    5242.5847 
  112200    333.31017   -14288.068    79.482744   -14367.551    8034.2332 
  112400    255.86869    -14288.48    61.015678   -14349.496    -8317.185 
  112600    309.75634   -14280.676    73.865986   -14354.542    24388.003 
  112800    288.07009   -14297.229    68.694578   -14365.923   -13495.619 
  113000    295.66593   -14291.394    70.505917     -14361.9    19573.545 
  113200    297.17065   -14282.018     70.86474   -14352.883    2362.7159 
  113400    326.50082    -14279.94    77.858953   -14357.799    16342.455 
  113600    295.14397   -14274.261    70.381449   -14344.643   -1382.8062 
  113800    281.09443   -14292.582    67.031127   -14359.613    668.16753 
  114000    345.26502   -14280.486    82.333556    -14362.82   -8553.3945 
  114200    300.63511   -14282.642    71.690893   -14354.333    5891.7054 
  114400    359.26687   -14263.402    85.672503   -14349.075    9318.4239 
  114600    303.94951   -14278.831     72.48126   -14351.313    8851.0418 
  114800    328.60113   -14276.489    78.359804   -14354.849   -9675.4629 
  115000    287.39098   -14281.483    68.532635   -14350.015    -8534.566 
  115200     295.5768   -14292.027    70.484663   -14362.512   -14600.385 
  115400    316.74655   -14280.705    75.532904   -14356.238    7451.6971 
  115600    274.07195   -14288.008    65.356514   -14353.365   -4763.6447 
  115800    305.45228   -14290.868    72.839619   -14363.707    14970.528 
  116000    300.32408   -14282.097    71.616723   -14353.714    -2637.028 
  116200    302.48165   -14275.084    72.131227   -14347.215   -13486.465 
  116400     270.2862   -14286.235    64.453746   -14350.689    7440.1898 
  116600    278.54074   -14285.883    66.422163   -14352.306    352.74777 
  116800    316.73435   -14270.998    75.529994   -14346.528    2778.9953 
  117000    259.46607   -14282.741    61.873526   -14344.614    18648.528 
  117200    320.42292   -14278.235    76.409589   -14354.644    4390.8342 
  117400    274.55297   -14286.993     65.47122   -14352.464    6051.4773 
  117600    318.90709   -14267.387    76.048117   -14343.435    14583.998 
  117800    247.52017   -14283.136    59.024849   -14342.161    2868.7295 
  118000    281.61814   -14282.559    67.156016   -14349.715    -20769.95 
  118200    350.80653   -14255.434    83.655011   -14339.089    25841.866 
  118400    303.44647   -14282.242    72.361303   -14354.604   -15580.097 
  118600    299.25266   -14290.966    71.361226   -14362.327    957.24438 
  118800    291.77726   -14289.457    69.578607   -14359.036    -6125.967 
  119000    307.30148   -14280.635    73.280587   -14353.916     3665.799 
  119200    250.17454   -14296.878    59.657824   -14356.535    12438.049 
  119400     279.8974   -14294.588    66.745679   -14361.334    3631.0664 
  119600    307.61623   -14274.861    73.355643   -14348.217    -12779.73 
  119800    296.68645   -14282.058    70.749277   -14352.808    7134.8637 
  120000    326.71651   -14287.835     77.91039   -14365.746    2807.1421 
  120200    253.26254   -14276.073    60.394203   -14336.468   -1257.1347 
  120400    323.62552   -14271.043    77.173297   -14348.217    22833.488 
  120600    293.51439   -14286.862    69.992852   -14356.855    4329.8756 
  120800    306.17624   -14273.774    73.012258   -14346.786    2755.1081 
  121000    287.01972   -14278.595    68.444101   -14347.039    14953.713 
  121200    294.32864   -14291.703    70.187022    -14361.89   -1468.9499 
  121400     296.8609   -14287.426    70.790876   -14358.217    12531.549 
  121600    313.18259   -14277.739    74.683024   -14352.422   -15739.398 
  121800    263.62414   -14292.737     62.86508   -14355.602    8267.3431 
  122000    297.52735   -14284.886    70.949802   -14355.836    -8041.721 
  122200    300.77999   -14286.517    71.725441   -14358.242   -9438.3005 
  122400    276.38245   -14285.789    65.907486   -14351.696   -4146.3477 
  122600    363.76011   -14264.686    86.743982    -14351.43    13621.292 
  122800     283.8548   -14281.111    67.689378   -14348.801   -5703.2353 
  123000    299.41515   -14282.049    71.399975   -14353.449   -19129.988 
  123200    280.59685   -14290.705    66.912473   -14357.617    7174.4463 
  123400    338.53469   -14271.615     80.72861   -14352.343    5646.4591 
  123600    298.89366   -14275.589    71.275618   -14346.865   -17644.157 
  123800    264.67173   -14294.328    63.114891   -14357.443    9378.5042 
  124000    309.14181   -14275.836    73.719441   -14349.555    18294.644 
  124200    323.10722   -14276.358    77.049699   -14353.407   -15987.293 
  124400    264.47454   -14297.729     63.06787   -14360.797    618.99136 
  124600     289.7879   -14283.482    69.104215   -14352.586    21055.657 
  124800     293.2241   -14278.304    69.923628   -14348.228    13585.722 
  125000    326.90269   -14284.743    77.954786   -14362.697    6974.9075 
  125200    271.90619   -14291.351    64.840056   -14356.191    8789.3004 
  125400    286.51128   -14270.191    68.322856   -14338.514    8296.5978 
  125600    344.94496   -14277.825    82.257233   -14360.082   -13691.619 
  125800     319.1118   -14275.267    76.096933   -14351.363    5923.1869 
  126000    300.00314   -14292.842     71.54019   -14364.382   -320.44925 
  126200    345.57045   -14273.955    82.406389   -14356.361    19084.603 
  126400    332.00821   -14272.714    79.172272   -14351.886   -10881.678 
  126600    305.07528   -14287.629    72.749717   -14360.379   -8695.3132 
  126800    335.99184   -14268.148    80.122229   -14348.271    15122.874 
  127000    301.44424   -14277.093    71.883842   -14348.977    963.35263 
  127200    277.68325   -14287.673    66.217683   -14353.891   -8074.1521 
  127400    346.00964   -14255.334    82.511121   -14337.845   -8179.9928 
  127600     294.9402    -14275.18    70.332857   -14345.513    173.36076 
  127800    266.22991   -14295.682    63.486464   -14359.168    1133.2557 
  128000    278.17734   -14278.453    66.335506   -14344.789    18695.546 
  128200    312.54723   -14274.853    74.531514   -14349.384    16729.689 
  128400    306.67936   -14290.341    73.132233   -14363.473    7587.3639 
  128600    288.94282   -14271.657    68.902692   -14340.559   -12869.729 
  128800     310.7551   -14272.044    74.104154   -14346.148    6392.0617 
  129000    262.18481   -14288.947     62.52185   -14351.469   -19411.176 
  129200    358.53893   -14267.397    85.498916   -14352.896    19341.173 
  129400    309.43335   -14274.815    73.788962   -14348.604    19201.668 
  129600    291.95606   -14283.282    69.621246   -14352.903   -2466.2093 
  129800    343.69524   -14276.692    81.959218   -14358.652   -11469.442 
  130000    365.84023   -14261.583    87.240018   -14348.823    4096.0479 
  130200    280.10861   -14285.115    66.796044   -14351.911   -13723.271 
  130400    282.61252   -14282.527    67.393138    -14349.92   -21458.606 
  130600    265.30612   -14282.974    63.266173    -14346.24    6710.5715 
  130800    231.42925   -14290.625     55.18773   -14345.812    18340.379 
  131000    297.13442   -14274.365    70.856101   -14345.221   -139.27198 
  131200    340.02696   -14264.405    81.084463   -14345.489    3998.5101 
  131400    318.78674   -14284.708    76.019417   -14360.727    4918.6729 
  131600    328.18837   -14281.428    78.261376   -14359.689   -7395.3646 
  131800    341.09098   -14265.762    81.338194     -14347.1   -12870.861 
  132000    269.07725    -14290.97    64.165455   -14355.136   -3591.7727 
  132200     290.2389   -14278.828    69.211761    -14348.04   -7770.9028 
  132400    318.36272   -14272.586    75.918304   -14348.504    2364.7012 
  132600    247.68677   -14299.846    59.064576    -14358.91   -7681.3891 
  132800    297.69084   -14275.203    70.988787   -14346.192   -1601.6286 
  133000     335.5125   -14275.334    80.007923   -14355.341    272.11984 
  133200    289.04341   -14294.056     68.92668   -14362.983   -13630.629 
  133400    278.81178   -14281.514    66.486796       -14348    4284.3128 
  133600      310.821   -14280.594     74.11987   -14354.714    11141.984 
  133800    281.35888   -14295.848     67.09419   -14362.943    11447.188 
  134000    289.38547    -14286.46    69.008249   -14355.468   -30426.928 
  134200    335.60654   -14272.248    80.030347   -14352.278    12039.508 
  134400    324.96439   -14283.253    77.492571   -14360.746    1892.5045 
  134600    327.51328    -14276.28     78.10039    -14354.38    12379.573 
  134800    376.60185   -14265.017    89.806287   -14354.823     -17593.7 
  135000    298.89477   -14286.868    71.275882   -14358.144    7863.0574 
  135200    287.49647   -14290.091    68.557789   -14358.649    31398.956 
  135400    300.20063   -14272.453    71.587283    -14344.04   -1710.3399 
  135600    270.42549   -14291.326    64.486962   -14355.813    1821.2032 
  135800    286.60473   -14287.651    68.345141   -14355.997    26045.693 
  136000    315.91534   -14279.754    75.334689   -14355.088   -4996.5888 
  136200      302.583   -14279.736    72.155396   -14351.892    -22473.22 
  136400    294.36647   -14278.042    70.196042   -14348.238   -18301.229 
  136600    306.60141   -14282.164    73.113646   -14355.278   -1934.1319 
  136800     315.2258   -14285.589    75.170259   -14360.759    6799.1436 
  137000    347.49213   -14270.341    82.864642   -14353.206   -3718.0556 
  137200    279.71573   -14286.252    66.702358   -14352.954   -1028.7188 
  137400    251.58063   -14290.039    59.993126   -14350.033   -5994.9898 
  137600    369.57454   -14263.064    88.130521   -14351.194   -11069.912 
  137800    352.57759   -14275.842    84.077346   -14359.919   -3747.4109 
  138000    274.26481   -14288.014    65.402505   -14353.416   -9338.5991 
  138200    270.87077   -14281.697    64.593145   -14346.291    12685.559 
  138400    315.67643   -14278.546    75.277717   -14353.824   -5492.9733 
  138600    276.87582    -14300.85    66.025137   -14366.875     557.7198 
  138800    304.08365   -14289.719    72.513249   -14362.232   -466.53816 
  139000    325.81331    -14277.02    77.695007   -14354.715   -12840.422 
  139200    286.80863   -14266.501    68.393764   -14334.895    4369.5003 
  139400    243.49358   -14293.253    58.064648   -14351.318   -598.29852 
  139600    297.84552   -14278.033    71.025673   -14349.059    2382.2695 
  139800    293.71647   -14282.948    70.041041   -14352.989    11641.893 
  140000    269.92639   -14303.395    64.367944   -14367.763   -4307.0706 
  140200    341.37738   -14281.793    81.406491   -14363.199    5788.5538 
  140400    343.17246   -14277.359    81.834553   -14359.193    10051.501 
  140600    267.28487   -14297.562    63.738035     -14361.3   -3584.1363 
  140800    298.94535   -14280.997    71.287945   -14352.285    10089.257 
  141000    282.55686   -14277.827    67.379866   -14345.207    13995.467 
  141200    268.56286   -14290.379    64.042789   -14354.421    2061.6636 
  141400    265.79047   -14294.786    63.381672   -14358.168   -149.68752 
  141600    292.03743   -14275.085    69.640648   -14344.726   -811.97888 
  141800    283.66216   -14285.868    67.643442   -14353.512   -5255.1424 
  142000    288.51743   -14295.588    68.801252   -14364.389    4825.4183 
  142200    278.83373   -14279.432    66.492031   -14345.924   -13198.414 
  142400    297.51251   -14280.287    70.946262   -14351.234   -16519.917 
  142600    295.72828   -14296.321    70.520785   -14366.842   -3539.4649 
  142800    282.07658   -14271.774    67.265337   -14339.039    440.33614 
  143000    339.55441   -14280.154    80.971776   -14361.125    19767.654 
  143200    274.60471   -14286.803    65.483558   -14352.287    14160.376 
  143400    260.22755   -14284.506    62.055111   -14346.561   -8963.2836 
  143600    280.19496   -14274.974    66.816635   -14341.791   -12675.746 
  143800    317.09565   -14286.608    75.616152   -14362.224    -10300.26 
  144000    312.42904   -14279.083     74.50333   -14353.587   -15033.399 
  144200     335.3088   -14267.825    79.959346   -14347.784   -5056.6748 
  144400    295.11971   -14289.621    70.375663   -14359.997   -14594.434 
  144600    328.78695   -14285.223    78.404116   -14363.627   -8623.7028 
  144800    359.53063    -14263.53    85.735401   -14349.265   -6490.1649 
  145000    299.50613   -14283.013     71.42167   -14354.434   -9236.4868 
  145200    267.44538   -14284.311    63.776309   -14348.087   -10552.415 
  145400    300.85016   -14276.361    71.742174   -14348.103    17919.362 
  145600    259.46091   -14300.317    61.872296   -14362.189   -12318.413 
  145800     304.4824   -14278.818    72.608337   -14351.426   -7072.4293 
  146000    315.04033   -14281.102    75.126031   -14356.228    14074.685 
  146200     225.2702   -14305.699    53.719014   -14359.418    7847.5011 
  146400    292.63084   -14292.224    69.782155   -14362.006    12569.646 
  146600     358.3502   -14272.766     85.45391    -14358.22    18499.715 
  146800    276.46268   -14287.431    65.926619   -14353.358    14795.438 
  147000    264.13695   -14296.774    62.987366   -14359.761    9496.6833 
  147200    334.11104   -14282.278    79.673725   -14361.952    4049.1197 
  147400    287.21257    -14277.59     68.49009    -14346.08   -839.53207 
  147600    264.96142   -14288.907    63.183972   -14352.091    -6012.206 
  147800    324.17558   -14274.758    77.304466   -14352.063   -22913.173 
  148000    318.10452   -14276.969    75.856733   -14352.826   -946.66193 
  148200    299.46717   -14292.528     71.41238   -14363.941     8733.669 
  148400    323.82128   -14272.291    77.219978   -14349.511   -23895.839 
  148600    292.64035   -14277.348    69.784425   -14347.133   -1818.8079 
  148800    277.66041   -14295.918    66.212235   -14362.131    18984.406 
  149000    293.88561   -14290.284    70.081375   -14360.366   -8821.2932 
  149200    323.03038   -14274.882    77.031376   -14351.913    2191.6814 
  149400    263.68422    -14292.35    62.879406    -14355.23   -13787.951 
  149600    314.01404   -14277.578    74.881297   -14352.459   -15243.044 
  149800    291.09277   -14277.154     69.41538   -14346.569    -4520.899 
  150000    292.56478    -14286.41    69.766403   -14356.176    6703.1618 
  150200    319.80396   -14262.147    76.261989   -14338.409    1318.3086 
  150400    319.50269   -14278.236    76.190146   -14354.426   -11373.918 
  150600    302.86772   -14286.369    72.223292   -14358.592     5177.096 
  150800    249.83611   -14292.965    59.577118   -14352.542   -4022.2623 
  151000    342.34337   -14274.256    81.636844   -14355.893    1429.7683 
  151200    269.68167   -14291.837    64.309586   -14356.146    -27966.57 
  151400    298.46494   -14279.569    71.173383   -14350.743   -11678.809 
  151600    339.86026   -14281.334    81.044711   -14362.378     -12779.3 
  151800    270.82952    -14292.82    64.583308   -14357.403   -264.12869 
  152000    314.77931   -14280.374    75.063786   -14355.438    10528.618 
  152200    334.48327   -14277.515    79.762486   -14357.277   -4712.7273 
  152400     263.8316   -14297.458    62.914551   -14360.373    18591.434 
  152600    296.53948   -14287.844    70.714229   -14358.558   -18208.977 
  152800    309.11528   -14275.692    73.713114   -14349.405    6717.4942 
  153000    370.46963   -14261.484    88.343967   -14349.827   -7312.7887 
  153200    290.29381   -14283.303    69.224856   -14352.528   -14751.355 
  153400    317.68964   -14276.208    75.757798   -14351.966   -8192.5122 
  153600    282.09026   -14283.015    67.268599   -14350.284    10122.254 
  153800     264.1734   -14284.548    62.996059   -14347.544   -14779.015 
  154000    305.19668   -14263.998    72.778666   -14336.777   -11793.444 
  154200    293.22535   -14283.835    69.923926   -14353.759    17884.746 
  154400    297.99912   -14285.739    71.062301   -14356.801   -12289.854 
  154600    272.90743   -14293.926    65.078817   -14359.005    4778.6336 
  154800     326.2897   -14286.064    77.808609   -14363.873    2688.5682 
  155000    309.99157   -14274.653    73.922079   -14348.575   -6999.2349 
  155200    322.38403    -14284.93    76.877244   -14361.807    17152.518 
  155400    281.74428   -14289.025    67.186095   -14356.211    -10396.34 
  155600    311.29263   -14273.232    74.232336   -14347.464   -7497.5185 
  155800    329.43533   -14276.919    78.558732   -14355.477   -15024.775 
  156000    295.29295   -14284.753    70.416975    -14355.17    17675.067 
  156200    339.99283   -14270.726    81.076324   -14351.803   -8589.6991 
  156400    283.67361   -14289.902    67.646171   -14357.548    -7174.084 
  156600    319.21824   -14279.028    76.122315    -14355.15    19599.006 
  156800    282.15163   -14270.434    67.283234   -14337.717      4548.34 
  157000    278.09838   -14288.871    66.316675   -14355.187    -7178.468 
  157200    239.57635   -14300.544    57.130528   -14357.674    6208.5723 
  157400    298.84065   -14282.212    71.262978   -14353.475    3455.3073 
  157600    298.71066   -14278.413     71.23198   -14349.645    14948.961 
  157800    258.59808   -14296.067     61.66654   -14357.734   -2885.9503 
  158000    317.24042   -14284.911    75.650674   -14360.561   -6291.1072 
  158200    325.50325   -14285.328     77.62107   -14362.949    7026.0943 
  158400    376.17178   -14260.256    89.703729   -14349.959    13882.869 
  158600     290.2171   -14284.078    69.206564   -14353.285   -16091.434 
  158800    317.83868    -14283.91    75.793339   -14359.704    3708.0766 
  159000    324.55755   -14273.186    77.395552   -14350.582   -2513.9481 
  159200    291.88943   -14275.595    69.605356     -14345.2    562.06088 
  159400    258.76571   -14292.092    61.706513   -14353.798   -2354.6328 
  159600    259.17775    -14275.97    61.804771   -14337.774    -6686.221 
  159800    295.74331   -14282.014     70.52437   -14352.538   -14515.704 
  160000     262.1818   -14297.957    62.521131   -14360.478    15380.618 
  160200    319.20566   -14278.299    76.119315   -14354.419   -6387.5264 
  160400    272.97205   -14284.071    65.094227   -14349.165   -95.900552 
  160600    264.74744   -14299.279    63.132946   -14362.412    360.18278 
  160800    267.16942   -14308.547    63.710503   -14372.257   -13816.005 
  161000    262.98757   -14282.709    62.713279   -14345.422   -15964.224 
  161200    312.25899   -14282.807    74.462779    -14357.27    6717.6339 
  161400    301.61855   -14294.746    71.925408   -14366.671   -1262.7687 
  161600    338.59595   -14270.162    80.743217   -14350.905   -218.79794 
  161800    264.95057    -14286.41    63.181385   -14349.592    13645.219 
  162000    280.54532   -14297.211    66.900184   -14364.111   -15870.556 
  162200    323.03683   -14275.086    77.032915   -14352.119   -4978.8806 
  162400    304.67808   -14269.478    72.654999   -14342.133   -7827.6293 
  162600    279.74591   -14290.881    66.709555    -14357.59    1384.9093 
  162800    313.31603   -14281.186    74.714846   -14355.901   -4086.2718 
  163000    317.21739   -14279.894    75.645182    -14355.54   -605.69089 
  163200    251.98886   -14291.611    60.090474   -14351.701    4268.6911 
  163400    316.24869   -14278.081    75.414183   -14353.495   -11242.593 
  163600    321.58207   -14277.203    76.686006   -14353.889   -3412.4908 
  163800    258.88584   -14292.298    61.735161   -14354.033    5980.7369 
  164000    296.24159   -14288.253    70.643193   -14358.896   -11016.718 
  164200    332.48245   -14266.097    79.285362   -14345.382    -13554.04 
  164400    304.56957   -14289.024    72.629123   -14361.653   -6358.2254 
  164600    307.17677   -14286.392    73.250849   -14359.643   -3698.7553 
  164800    295.66002   -14273.541     70.50451   -14344.046    15283.574 
  165000    265.52547   -14298.574    63.318479   -14361.892   -12643.846 
  165200    304.90003   -14285.512    72.707926    -14358.22    145.50438 
  165400    308.39416   -14274.526    73.541153   -14348.067   -9689.4938 
  165600     259.8978   -14283.938    61.976477   -14345.914    7214.0558 
  165800    277.26813   -14287.619    66.118689   -14353.737   -3438.7261 
  166000     327.7141   -14271.336    78.148278   -14349.485   -16220.207 
  166200    304.01356    -14287.41    72.496533   -14359.907    6723.5918 
  166400    320.37091   -14282.094    76.397186   -14358.491   -8517.0468 
  166600    349.38286   -14278.933    83.315515   -14362.248    20438.946 
  166800    309.67552    -14294.89    73.846713   -14368.737   -18902.089 
  167000    326.07403   -14281.529    77.757179   -14359.286   -1905.9707 
  167200     308.5224   -14278.871    73.571733   -14352.442   -7223.4199 
  167400    246.29915   -14303.004    58.733679   -14361.738    4095.4754 
  167600    291.88809   -14287.122    69.605035   -14356.727   -9311.6577 
  167800     360.8759   -14272.222    86.056201   -14358.278   -3325.1996 
  168000    274.85265   -14288.764    65.542683   -14354.307    25815.478 
  168200    311.62946   -14267.316    74.312658   -14341.629    2802.9971 
  168400    279.45915   -14277.386    66.641173   -14344.027   -426.30429 
  168600    282.25978   -14286.428    67.309023   -14353.737    24338.589 
  168800    311.60078   -14261.646    74.305819   -14335.952    18851.383 
  169000    321.20249   -14268.699     76.59549   -14345.294   -6968.9936 
  169200    302.92901   -14284.266    72.237907   -14356.503   -35281.512 
  169400    256.35789   -14297.782    61.132335   -14358.915    1782.3153 
  169600    336.18003   -14272.339    80.167104   -14352.507    15620.042 
  169800    291.02361   -14285.805    69.398888   -14355.204   -4429.6463 
  170000    293.26928   -14283.132    69.934402   -14353.067   -107.17519 
  170200    339.49856   -14271.644    80.958458   -14352.603    3800.3787 
  170400    284.64315   -14285.706    67.877374   -14353.584    8871.9595 
  170600    270.79626   -14287.244    64.575377   -14351.819     17148.54 
  170800    346.66944   -14265.258     82.66846   -14347.926    6063.8013 
  171000    323.23736   -14280.977    77.080734   -14358.058    945.66757 
  171200    300.64747   -14283.544    71.693839   -14355.238    25143.246 
  171400    362.39187   -14254.431    86.417706   -14340.849    4672.4027 
  171600    314.83699   -14271.127    75.077541   -14346.205    6696.9119 
  171800    298.57078   -14284.233    71.198622   -14355.432    12203.411 
  172000    267.54694   -14299.018     63.80053   -14362.818   -1101.0522 
  172200    303.84425   -14289.746     72.45616   -14362.202   -1584.6673 
  172400    346.76213   -14277.017    82.690562   -14359.708    6531.2029 
  172600    287.75859   -14283.459    68.620295   -14352.079    6896.0616 
  172800    334.44003   -14277.867    79.752177   -14357.619   -8527.6142 
  173000    291.18623   -14293.479    69.437666   -14362.916    10187.497 
  173200    315.25626   -14280.328    75.177523   -14355.506    20891.625 
  173400    307.48938   -14272.899    73.325394   -14346.225   -17344.586 
  173600    338.64994   -14291.672    80.756092   -14372.428   -3476.1265 
  173800    252.68717   -14288.344    60.256997   -14348.601    22135.396 
  174000     330.0819   -14271.384    78.712916   -14350.097    6466.6284 
  174200    268.60851   -14290.613    64.053675   -14354.666    1488.1376 
  174400    274.38468     -14282.9    65.431089   -14348.331    1529.5893 
  174600    324.36129    -14278.59    77.348753   -14355.939    945.44418 
  174800    382.49285   -14259.619    91.211082    -14350.83    2409.0959 
  175000    281.69276   -14285.535    67.173809   -14352.709   -9479.1387 
  175200    325.89724   -14286.782     77.71502   -14364.497   -9242.3108 
  175400    305.32334   -14277.474    72.808871   -14350.283    4234.2502 
  175600    256.37366   -14301.921    61.136095   -14363.057    8165.9074 
  175800    294.29854   -14289.569    70.179844   -14359.749    -18985.05 
  176000    299.62669   -14278.129     71.45042    -14349.58    15212.838 
  176200    305.82778   -14286.809    72.929161   -14359.738    13468.659 
  176400    280.38267    -14294.79    66.861398   -14361.651    7276.9844 
  176600    335.72911   -14274.272    80.059576   -14354.332   -25992.241 
  176800    258.85882   -14289.235    61.728719   -14350.964    -2750.128 
  177000    239.36531   -14296.868    57.080201   -14353.948   -19473.837 
  177200     315.9043   -14274.099    75.332057   -14349.431   -13381.723 
  177400     290.7751   -14286.346    69.339628   -14355.685    16121.305 
  177600    280.33521   -14287.775    66.850081   -14354.625    10934.997 
  177800    259.73131    -14281.39    61.936775   -14343.327    8624.1983 
  178000    298.00799   -14287.088    71.064416   -14358.152   -2441.4969 
  178200     296.0294   -14292.809    70.592592   -14363.402   -4809.2028 
  178400    304.43423   -14272.024     72.59685   -14344.621   -1976.6616 
  178600    281.99972   -14288.408    67.247008   -14355.655    577.28696 
  178800    337.80203   -14279.702    80.553894   -14360.256    13054.044 
  179000    339.59677    -14258.21    80.981877   -14339.192    2282.7401 
  179200    277.43234   -14288.518    66.157847   -14354.676   -2993.2623 
  179400    295.68827   -14288.457    70.511246   -14358.968    15893.276 
  179600    303.31945   -14272.479    72.331014    -14344.81    13136.088 
  179800    280.81042   -14286.496    66.963403   -14353.459   -2570.3416 
  180000    293.10243   -14286.989    69.894612   -14356.883    10411.628 
  180200    366.53425   -14270.784    87.405519    -14358.19    10326.512 
  180400    281.49066   -14285.681    67.125616   -14352.807    5934.2792 
  180600      371.152   -14259.101    88.506688   -14347.608    1473.2165 
  180800    323.74793   -14271.547    77.202486    -14348.75    4766.2802 
  181000    291.67238   -14283.575    69.553598   -14353.129    4072.5091 
[...]
  950000    225.15105   -14287.275      53.6906   -14340.965   -12630.458 
  950200    296.15603    -14285.18    70.622789   -14355.803    10717.981 
  950400    359.59899   -14267.257    85.751703   -14353.009   -15971.071 
  950600    263.99494   -14289.253    62.953501   -14352.206    1126.3187 
  950800    280.54205   -14290.625    66.899405   -14357.524   -17402.427 
  951000    366.64584   -14271.509    87.432129   -14358.942    6200.1899 
  951200      286.135   -14284.279    68.233126   -14352.513    -8792.725 
  951400    295.56461    -14271.99    70.481758   -14342.471   -8848.8226 
  951600    333.53577   -14273.806    79.536542   -14353.342    4015.3459 
  951800    312.87634   -14287.943    74.609994   -14362.553    5914.4853 
  952000    343.72829   -14271.088      81.9671   -14353.055    8354.9544 
  952200      298.343   -14274.476    71.144305    -14345.62   -16354.103 
  952400    280.51814   -14293.562    66.893703   -14360.456    3192.6456 
  952600    333.91021   -14276.147    79.625832   -14355.772   -1032.1849 
  952800    311.07237   -14276.343    74.179813   -14350.523    5223.5682 
  953000    302.01991   -14282.659    72.021118    -14354.68    2089.2837 
  953200    318.20717   -14279.249     75.88121   -14355.131    19253.179 
  953400    264.57241   -14297.317    63.091209   -14360.408    15332.944 
  953600    303.92822   -14277.556    72.476184   -14350.032   -16735.849 
  953800    285.86858     -14278.3    68.169595   -14346.469    2051.9507 
  954000    294.14993   -14289.179    70.144406   -14359.324    8735.1923 
  954200    263.28676   -14297.143    62.784625   -14359.928   -22565.399 
  954400    296.61829   -14275.707    70.733023    -14346.44    12984.731 
  954600    306.60207   -14286.918    73.113803   -14360.031   -3256.8695 
  954800    320.66652   -14289.001    76.467678   -14365.469   -14864.646 
  955000    283.18755   -14284.397    67.530264   -14351.927     4465.767 
  955200     307.9664    -14279.99    73.439147   -14353.429   -6854.5714 
  955400    295.45827   -14299.776      70.4564   -14370.233   -16358.456 
  955600    292.35293   -14284.191    69.715884   -14353.907     10167.03 
  955800    307.35964   -14275.474    73.294457   -14348.769   -4792.9972 
  956000    297.04463   -14288.222    70.834689   -14359.057    11864.684 
  956200    296.55919   -14288.883    70.718928   -14359.602    1661.5077 
  956400    353.94236   -14268.685    84.402796   -14353.088    951.73683 
  956600    322.49513   -14275.388    76.903739   -14352.292   -2678.6043 
  956800    266.10195   -14287.753    63.455949   -14351.209    -3111.328 
  957000    303.33309   -14272.496    72.334267    -14344.83    15000.847 
  957200    296.89406   -14287.044    70.798785   -14357.843   -376.78178 
  957400    314.89404   -14281.872    75.091145   -14356.963    -1256.243 
  957600    292.62516   -14265.785    69.780802   -14335.566    27178.734 
  957800    285.19688   -14283.923    68.009417   -14351.933   -12616.602 
  958000    326.70002   -14288.777    77.906455   -14366.684    15625.669 
  958200    280.64247   -14282.167    66.923351   -14349.091    15658.432 
  958400    311.40322   -14275.892    74.258708    -14350.15   -10152.929 
  958600    268.77618   -14293.374    64.093659   -14357.468    8974.6108 
  958800    357.95565   -14270.427    85.359823   -14355.787    14488.274 
  959000    337.77981   -14277.142    80.548597   -14357.691    -2967.783 
  959200    273.80556   -14290.285     65.29299   -14355.578    6929.4851 
  959400    333.73374   -14268.539     79.58375   -14348.123    3961.5518 
  959600    311.48475     -14282.6     74.27815   -14356.878   -25597.038 
  959800    281.90063   -14289.129    67.223377   -14356.352      1651.85 
  960000    275.76289   -14269.269    65.759744   -14335.028   -5776.3899 
  960200    292.41997    -14278.62    69.731871   -14348.352   -18650.704 
  960400    287.72339   -14290.554    68.611901   -14359.166   -4563.6595 
  960600    340.92772   -14273.568    81.299262   -14354.868   -1587.2354 
  960800    330.36324   -14275.025    78.780006   -14353.805    15787.249 
  961000    271.77654   -14291.067     64.80914   -14355.877   -10753.686 
  961200    339.80166   -14274.158    81.030737   -14355.189   -10679.131 
  961400    311.59745   -14290.298    74.305025   -14364.603    13830.173 
  961600    298.66882   -14285.162       71.222   -14356.384    2509.8881 
  961800     290.0986   -14278.925    69.178305   -14348.103   -14121.653 
  962000    245.96442   -14298.936    58.653857    -14357.59    6667.8034 
  962200    313.94642     -14284.5    74.865171   -14359.365    10856.603 
  962400    300.99752   -14281.211    71.777316   -14352.988    12114.053 
  962600    353.49286   -14266.306    84.295606   -14350.602   -16211.524 
  962800    318.99409   -14279.061    76.068863    -14355.13   -3619.0223 
  963000    269.39683   -14284.267    64.241663   -14348.509    9784.5344 
  963200    329.76172   -14265.809    78.636564   -14344.445     19473.79 
  963400    243.84694   -14283.813    58.148914   -14341.962   -8151.3921 
  963600    275.15274   -14284.084    65.614244   -14349.698    12708.099 
  963800    315.41407   -14273.964    75.215154   -14349.179    2936.3758 
  964000    268.53452   -14295.037    64.036031   -14359.073   -4677.4594 
  964200    318.93465   -14279.592    76.054688   -14355.647    4057.1087 
  964400    320.46807   -14256.568    76.420356   -14332.988   -16524.443 
  964600    322.40615   -14278.366     76.88252   -14355.249   -6444.9987 
  964800    251.08039   -14295.912    59.873836   -14355.786   -5751.6607 
  965000    311.48603    -14278.74    74.278456   -14353.018   -18691.564 
  965200    303.29457   -14282.532    72.325079   -14354.857   -3359.6826 
  965400    245.59252   -14300.323    58.565173   -14358.888    26540.071 
  965600    303.43778   -14284.421     72.35923    -14356.78   -11415.894 
  965800    302.38909   -14283.107    72.109156   -14355.216     20806.27 
  966000    309.30986   -14268.458    73.759515   -14342.218    1051.6816 
  966200    310.15385   -14281.939    73.960777     -14355.9    8823.4507 
  966400    319.81533   -14282.883      76.2647   -14359.148   -7566.0459 
  966600     324.7365   -14274.448    77.438226   -14351.886    8981.1629 
  966800    275.78827   -14281.173    65.765796   -14346.938   -5391.3203 
  967000    261.99583   -14290.727    62.476784   -14353.204    -6508.036 
  967200    308.09759   -14292.835    73.470432   -14366.305    3920.4101 
  967400    290.31305   -14276.735    69.229444   -14345.964    11990.669 
  967600    303.74391   -14282.444    72.432231   -14354.876   -3512.9083 
  967800    278.01171    -14291.39    66.296008   -14357.686    8865.0787 
  968000    304.03169   -14272.166    72.500857   -14344.667    22176.194 
  968200    290.69849   -14286.607    69.321357   -14355.928    2472.8664 
  968400    244.34593   -14290.166    58.267904   -14348.434   -14353.324 
  968600    284.67491   -14273.457    67.884947   -14341.342    9240.5601 
  968800    300.14162   -14282.619    71.573212   -14354.192    13679.353 
  969000    252.87641   -14301.541    60.302122   -14361.844   -7283.6126 
  969200    303.03127   -14289.639    72.262292   -14361.901   -15571.763 
  969400    276.31441   -14277.637    65.891261   -14343.528   -8585.6674 
  969600    324.79648    -14267.83     77.45253   -14345.282     9567.143 
  969800    285.32942   -14295.912    68.041025   -14363.953   -25077.022 
  970000    327.73588   -14279.786    78.153472    -14357.94    5583.1287 
  970200    310.18428   -14284.275    73.968034   -14358.243    3019.2937 
  970400    286.47541   -14289.041    68.314303   -14357.356   -8769.0024 
  970600     347.7125   -14273.819    82.917192   -14356.736    2657.1698 
  970800    315.73399    -14291.66    75.291444   -14366.951    22852.494 
  971000     292.9072   -14288.716    69.848059   -14358.564    14689.857 
  971200    387.42074   -14263.678    92.386212   -14356.064    2898.0361 
  971400     319.9492   -14283.305    76.296623   -14359.602   -3976.4843 
  971600    294.66982   -14290.773    70.268382   -14361.042    11611.864 
  971800    310.13836   -14277.316    73.957083   -14351.273   -5186.7919 
  972000    328.20358   -14271.615    78.265002    -14349.88    4846.3514 
  972200    248.65596   -14295.466    59.295696   -14354.762    3899.6286 
  972400    327.42004   -14281.018    78.078155   -14359.096    5086.0464 
  972600    301.06253   -14282.296    71.792817   -14354.089    14859.178 
  972800    296.17924   -14282.905    70.628323   -14353.533    6683.4499 
  973000    300.60968   -14279.971    71.684828   -14351.655   -6880.2123 
  973200    314.00434   -14275.334    74.878982   -14350.213   -7971.9579 
  973400    261.05097   -14294.235    62.251467   -14356.487    8125.4459 
  973600    283.87055   -14276.747    67.693136    -14344.44    9660.3727 
  973800    342.34416   -14269.208    81.637032   -14350.845   -15537.855 
  974000    289.31975   -14284.104    68.992579   -14353.097    5049.7159 
  974200    293.58031     -14287.3    70.008572   -14357.308    10350.746 
  974400    278.04839   -14285.666    66.304756   -14351.971    11060.271 
  974600    310.08138   -14278.225    73.943496   -14352.168    14332.081 
  974800    335.64066    -14265.94    80.038484   -14345.978   -13036.666 
  975000    317.51392    -14277.68    75.715896   -14353.396    10645.871 
  975200    303.60699   -14284.884    72.399581   -14357.283    16982.976 
  975400    281.79043   -14270.655    67.197099   -14337.852    -7920.822 
  975600    316.24048   -14276.739    75.412225   -14352.151   -24079.724 
  975800    285.96947     -14288.1    68.193653   -14356.294   -10748.643 
  976000    276.86724   -14281.857    66.023092    -14347.88    7127.5296 
  976200    305.52437   -14272.765    72.856808   -14345.622    5661.1458 
  976400    275.29943   -14289.047    65.649224   -14354.697    15422.446 
  976600    372.52624   -14281.017    88.834397   -14369.851    -2532.789 
  976800    331.04069   -14262.702    78.941554   -14341.644    19534.056 
  977000    303.68685   -14286.132    72.418624    -14358.55     5573.966 
  977200    260.61445   -14282.518    62.147374   -14344.665   -5977.5997 
  977400      309.632   -14263.811    73.836333   -14337.647      49.7817 
  977600     289.9239    -14294.86    69.136647   -14363.997    5504.4287 
  977800     296.2414   -14279.282    70.643147   -14349.925    1875.1597 
  978000    344.02918   -14269.788    82.038852   -14351.827   -10131.099 
  978200    269.05591     -14292.1    64.160365   -14356.261     2830.663 
  978400     306.1162   -14282.196    72.997939   -14355.194   -12714.474 
  978600    309.76628   -14273.722    73.868355    -14347.59   -9735.0334 
  978800    279.74936   -14289.383    66.710376   -14356.094   -9130.7258 
  979000    319.76051   -14274.486    76.251627   -14350.738   -12183.786 
  979200    324.57653   -14264.999    77.400078   -14342.399    5572.6563 
  979400    279.40393   -14288.253    66.628002   -14354.881   -2884.7322 
  979600    332.66839   -14278.852    79.329703   -14358.182   -1367.1241 
  979800     315.1624   -14269.258     75.15514   -14344.413   -8277.2837 
  980000    297.14333   -14291.861    70.858225   -14362.719   -14912.815 
  980200     331.8272   -14272.823    79.129109   -14351.952    1574.9397 
  980400    311.71991   -14270.525    74.334228   -14344.859   -1387.0195 
  980600    286.62381   -14287.764    68.349691   -14356.113   -815.46633 
  980800    310.17821   -14286.153    73.966586    -14360.12    2518.5503 
  981000    295.06153   -14269.945    70.361789   -14340.307   -1531.5565 
  981200    256.03445   -14294.596    61.055204   -14355.651    13350.923 
  981400    284.10289   -14286.489    67.748539   -14354.238    17502.935 
  981600    328.26633   -14268.025    78.279966   -14346.305   -11215.212 
  981800    319.41262   -14280.001    76.168667    -14356.17    3939.3403 
  982000    269.59746   -14286.753    64.289506   -14351.042    674.64258 
  982200    336.40816   -14270.619    80.221506    -14350.84    -13630.89 
  982400    271.02464   -14287.789    64.629837   -14352.419   -19457.871 
  982600    324.55591   -14283.886    77.395162   -14361.281    -5180.223 
  982800    344.44646   -14263.796    82.138359   -14345.935   -26216.693 
  983000    297.36848   -14272.933    70.911915   -14343.844   -1607.3655 
  983200    262.22204   -14288.161    62.530728   -14350.692    15892.077 
  983400    329.45688   -14276.235    78.563871   -14354.799    7422.9312 
  983600    334.43857   -14272.121    79.751828   -14351.873    2003.6272 
  983800    273.11193   -14285.729    65.127584   -14350.857   -3140.0355 
  984000    359.59858   -14266.155    85.751606   -14351.907    7433.5643 
  984200    303.59432   -14279.517    72.396561   -14351.914    14590.493 
  984400     328.6162   -14283.388    78.363397   -14361.751    6627.4706 
  984600    322.80366   -14274.577    76.977311   -14351.554   -145.64741 
  984800    295.47828   -14291.883     70.46117   -14362.344   -1272.2723 
  985000    292.06901   -14295.944     69.64818   -14365.592    6781.6662 
  985200    304.64999    -14271.11    72.648301   -14343.758    -2889.732 
  985400    317.89261   -14282.157    75.806199   -14357.963   -15308.266 
  985600    274.92305   -14295.683    65.559471   -14361.243   -6595.2792 
  985800    335.23669   -14277.755    79.942152   -14357.698   -12938.613 
  986000    274.28917   -14285.267    65.408312   -14350.675   -10246.406 
  986200    321.17579   -14272.631    76.589121    -14349.22   -12390.042 
  986400    293.74109   -14267.741    70.046913   -14337.788   -25403.578 
  986600     303.1854   -14286.802    72.299048   -14359.101   -4161.9802 
  986800    341.55832   -14275.331    81.449638    -14356.78   -6040.9839 
  987000    317.99858   -14259.568    75.831469     -14335.4    21276.971 
  987200    305.77423   -14284.099    72.916393   -14357.015   -19928.339 
  987400    280.30509   -14281.929    66.842898   -14348.772    -20852.74 
  987600    338.76728   -14269.996    80.784072    -14350.78   -3771.8321 
  987800      286.207   -14290.398    68.250297   -14358.648    13497.182 
  988000    270.90431   -14280.419    64.601143    -14345.02   -2751.0823 
  988200    336.45448   -14266.717    80.232552    -14346.95    1895.3522 
  988400    333.33681   -14284.078    79.489098   -14363.567   -9632.4335 
  988600    323.32258   -14284.402    77.101054   -14361.503   -499.59597 
  988800    365.02503   -14266.365    87.045623   -14353.411    6722.3522 
  989000     294.0636   -14283.296    70.123818   -14353.419    13704.207 
  989200    291.07321   -14281.918    69.410716   -14351.329   -16522.087 
  989400    287.93287   -14287.024    68.661856   -14355.686   -11741.546 
  989600     316.9672   -14281.133    75.585521   -14356.719    20251.226 
  989800    303.43653   -14268.904    72.358933   -14341.263    -1959.635 
  990000    279.70535   -14283.176    66.699882   -14349.876    32577.466 
  990200     282.7111   -14291.157    67.416647   -14358.573   -2139.0832 
  990400    291.78115   -14283.924    69.579536   -14353.503   -7007.1587 
  990600    365.60448   -14257.137    87.183802   -14344.321    3202.3918 
  990800    312.84236   -14272.454    74.601892   -14347.056   -19010.543 
  991000    269.50673   -14288.988     64.26787   -14353.255    6697.9674 
  991200    340.42225   -14272.841    81.178725    -14354.02    2910.9755 
  991400    300.70277   -14278.796    71.707027   -14350.503   -8289.0696 
  991600    292.14469   -14293.757    69.666226   -14363.423   -4011.0268 
  991800    351.01473   -14275.916     83.70466   -14359.621    4069.8417 
  992000    298.31137   -14283.789    71.136763   -14354.926     12.64999 
  992200    300.63014   -14281.861    71.689708   -14353.551    7803.7638 
  992400    259.20157   -14287.329    61.810451   -14349.139   -14216.036 
  992600    356.20411   -14267.816    84.942144   -14352.759    8127.1054 
  992800    281.71818   -14288.326    67.179871   -14355.506    5667.0736 
  993000      296.595   -14287.332    70.727468    -14358.06    3095.3619 
  993200    291.62054   -14273.839    69.541234    -14343.38   -5386.3542 
  993400    254.95713    -14296.46    60.798303   -14357.258    4012.0868 
  993600    269.91459   -14295.265    64.365129    -14359.63     2671.587 
  993800    256.53138    -14285.98    61.173704   -14347.153   -6383.1154 
  994000    339.04364   -14270.868    80.849976   -14351.718   -320.83716 
  994200    305.24469   -14278.551    72.790115   -14351.341    -23663.19 
  994400    307.20988   -14285.179    73.258743   -14358.438    19717.013 
  994600     287.7648   -14285.923    68.621777   -14354.545    4721.4681 
  994800    304.62235    -14283.53    72.641709   -14356.172    3136.6218 
  995000    316.19444   -14266.638    75.401245   -14342.039   -525.71521 
  995200    297.16827   -14286.898    70.864172   -14357.763    191.51829 
  995400     347.4218   -14278.949    82.847871   -14361.797    11581.893 
  995600    233.03181   -14293.207    55.569885   -14348.777   -9350.9958 
  995800    302.64786   -14278.935    72.170863   -14351.105   -363.28131 
  996000    291.05582   -14280.351     69.40657   -14349.758    16129.065 
  996200    317.63932   -14265.785    75.745798   -14341.531    5170.1169 
  996400    280.94484   -14286.482    66.995456   -14353.478    2721.0647 
  996600    325.92159   -14281.919    77.720827    -14359.64   -1602.0982 
  996800    320.20427   -14267.118    76.357447   -14343.476    -20645.09 
  997000    286.51844   -14288.299    68.324563   -14356.624    7528.4293 
  997200    300.73355   -14290.329    71.714366   -14362.043   -2626.6104 
  997400     382.3535   -14272.316    91.177853   -14363.494     406.7486 
  997600    284.57093    -14278.15     67.86015    -14346.01    -12391.41 
  997800    287.39248   -14295.255    68.532992   -14363.788   -5067.8662 
  998000     312.0674   -14274.981    74.417091   -14349.398   -4562.1542 
  998200    330.21682   -14284.531    78.745089   -14363.276    20060.752 
  998400    320.57253     -14283.9    76.445264   -14360.345    5242.9452 
  998600    297.52185   -14269.618    70.948489   -14340.566   -3671.4117 
  998800    282.47282   -14287.258    67.359826   -14354.618    4326.6915 
  999000    281.65182   -14289.315    67.164047    -14356.48    12067.457 
  999200    338.60278   -14267.361    80.744845   -14348.106   -10504.603 
  999400    312.32131   -14279.446     74.47764   -14353.924    4136.3869 
  999600    274.57266   -14301.124    65.475916     -14366.6   -15052.862 
  999800    275.37911     -14297.9    65.668226   -14363.568   -16737.087 
 1000000    299.27644   -14280.388    71.366898   -14351.755   -14729.647 
Loop time of 4670.64 on 8 procs for 1000000 steps with 81 atoms

Performance: 4.625 ns/day, 5.190 hours/ns, 214.104 timesteps/s
99.1% CPU use with 8 MPI tasks x no OpenMP threads

MPI task timing breakdown:
Section |  min time  |  avg time  |  max time  |%varavg| %total
---------------------------------------------------------------
Pair    | 4165.3     | 4212.4     | 4267.8     |  62.3 | 90.19
Neigh   | 1.8106     | 1.8377     | 1.8574     |   1.0 |  0.04
Comm    | 46.798     | 102.37     | 149.69     | 399.3 |  2.19
Output  | 0.093514   | 0.10351    | 0.16904    |   7.7 |  0.00
Modify  | 348.58     | 349.04     | 349.58     |   1.6 |  7.47
Other   |            | 4.904      |            |       |  0.10

Nlocal:    10.125 ave 11 max 9 min
Histogram: 1 0 0 0 0 5 0 0 0 2
Nghost:    1105.5 ave 1116 max 1099 min
Histogram: 1 3 0 0 0 3 0 0 0 1
Neighs:    2437.38 ave 2657 max 2180 min
Histogram: 1 0 0 0 4 1 0 0 0 2

Total # of neighbors = 19499
Ave neighs/atom = 240.728
Neighbor list builds = 964
Dangerous builds = 0

Please see the log.cite file for references relevant to this simulation

Total wall time: 1:17:53
