ITEM: TIMESTEP
0
ITEM: NUMBER OF ATOMS
161
ITEM: BOX BOUNDS xy xz yz pp pp pp
-6.7755000000000001e+00 1.3552000000000000e+01 -6.7755000000000001e+00
0.0000000000000000e+00 1.1735510246683001e+01 0.0000000000000000e+00
0.0000000000000000e+00 2.2149999999999999e+01 0.0000000000000000e+00
ITEM: ATOMS id type x y z 
8 1 -2.486 5.297 9.849 
87 1 3.001 4.231 10.696 
90 1 2.733 5.481 9.824 
109 1 -2.486 5.297 0.765 
158 1 2.733 5.481 0.79 
11 1 4.24 4.139 20.131 
14 1 3.031 4.094 19.728 
18 1 1.299 5.827 18.554 
33 1 2.266 4.151 20.924 
43 1 4.343 3.96 21.647 
47 1 3.32 5.732 17.88 
52 1 4.24 4.139 12.633 
76 1 2.552 4.924 14.209 
85 1 4.343 3.96 11.117 
89 1 3.32 5.732 14.883 
91 1 1.036 5.037 11.84 
102 1 3.031 4.094 13.035 
105 1 1.299 5.827 14.209 
114 1 2.266 4.151 11.84 
150 1 2.552 4.924 18.554 
156 1 3.001 4.231 22.068 
159 1 1.036 5.037 20.924 
5 1 -5.049 10.63 8.653 
9 1 -3.317 8.897 7.479 
19 1 -1.707 7.414 10.572 
21 1 -2.66 8.795 10.993 
23 1 -3.31 7.532 6.805 
25 1 -4.284 10.573 9.849 
32 1 1.503 6.367 0.79 
36 1 -1.869 7.426 9.056 
38 1 -2.209 6.086 8.653 
54 1 0.3 8.576 10.696 
57 1 1.291 8.001 9.824 
60 1 -1.707 7.414 0.042 
65 1 -3.31 7.532 3.808 
78 1 -1.869 7.426 1.558 
80 1 -2.566 8.842 1.961 
84 1 -4.57 9.799 3.135 
99 1 -3.054 9.687 0.765 
100 1 -2.96 6.142 3.135 
107 1 -5.049 10.63 1.961 
110 1 -3.317 8.897 3.135 
111 1 0.642 5.929 10.696 
113 1 1.503 6.367 9.824 
119 1 -4.284 10.573 0.765 
127 1 -2.209 6.086 1.961 
131 1 -2.318 6.148 10.993 
138 1 1.291 8.001 0.79 
142 1 -2.566 8.842 8.653 
145 1 -4.57 9.799 7.479 
151 1 -5.019 10.493 10.993 
154 1 -3.054 9.687 9.849 
155 1 -2.96 6.142 7.479 
12 1 2.53 7.1 17.202 
17 1 0.468 9.427 20.924 
24 1 -3.52 8.357 11.865 
27 1 -0.31 7.31 21.647 
29 1 0.642 5.929 22.068 
31 1 1.292 7.192 17.88 
44 1 -0.148 7.298 20.131 
46 1 0.191 8.638 19.728 
51 1 -0.31 7.31 11.117 
53 1 2.53 7.1 15.561 
56 1 1.292 7.192 14.883 
63 1 -2.318 6.148 21.771 
66 1 -3.309 6.723 20.899 
70 1 -0.148 7.298 12.633 
72 1 0.548 5.882 13.035 
92 1 0.942 8.582 14.209 
95 1 -5.019 10.493 21.771 
98 1 -4.751 9.243 20.899 
104 1 0.468 9.427 11.84 
116 1 -2.66 8.795 21.771 
118 1 -3.52 8.357 20.899 
122 1 0.191 8.638 13.035 
133 1 -3.309 6.723 11.865 
136 1 0.3 8.576 22.068 
147 1 0.548 5.882 19.728 
153 1 -4.751 9.243 11.865 
160 1 0.942 8.582 18.554 
1 1 7.976 4.694 10.572 
4 1 9.274 4.77 10.993 
20 1 8.034 4.861 9.056 
42 1 9.55 5.41 7.479 
67 1 10.043 4.578 0.765 
77 1 7.976 4.694 0.042 
94 1 8.035 4.861 1.558 
96 1 9.278 4.635 1.961 
121 1 4.688 5.417 10.696 
130 1 9.55 5.41 3.135 
134 1 10.043 4.578 9.849 
152 1 9.278 4.635 8.653 
45 1 4.688 5.417 22.068 
55 1 4.788 5.329 13.035 
106 1 9.274 4.77 21.771 
137 1 4.788 5.329 19.728 
2 1 7.294 10.585 9.056 
3 1 9.004 7.624 6.127 
6 1 8.556 6.347 6.805 
16 1 2.314 8.72 0.79 
22 1 7.166 6.156 8.653 
26 1 7.226 8.565 7.479 
35 1 7.191 10.764 10.572 
37 1 6.846 9.307 10.993 
39 1 8.214 8.992 6.805 
41 1 6.677 7.002 9.849 
48 1 3.775 6.213 0.79 
61 1 7.294 10.585 1.558 
62 1 9.004 7.624 4.487 
64 1 6.747 9.395 1.961 
68 1 7.437 6.931 3.135 
71 1 4.29 8.493 10.696 
74 1 3.567 7.818 9.824 
81 1 8.556 6.347 3.808 
83 1 6.47 8.606 0.765 
93 1 7.191 10.764 0.042 
97 1 8.214 8.992 3.808 
101 1 2.261 9.954 10.696 
103 1 2.314 8.72 9.824 
117 1 7.166 6.156 1.961 
120 1 7.226 8.565 3.135 
123 1 3.775 6.213 9.824 
129 1 6.677 7.002 0.765 
132 1 6.747 9.395 8.653 
135 1 7.437 6.931 7.479 
141 1 7.244 6.231 10.993 
144 1 6.47 8.606 9.849 
148 1 3.567 7.818 0.79 
161 2 5.577 7.002 9.849 
7 1 9.22 6.004 11.865 
10 1 3.558 10.029 21.647 
13 1 2.261 9.954 22.068 
15 1 2.978 8.376 17.88 
28 1 3.5 9.862 20.131 
30 1 4.369 8.568 19.728 
34 1 4.308 6.159 18.554 
40 1 7.76 8.511 11.865 
49 1 4.857 7.722 20.924 
50 1 1.984 9.314 18.554 
58 1 1.491 10.146 11.84 
59 1 4.097 7.793 14.209 
69 1 3.558 10.029 11.117 
73 1 2.978 8.376 14.883 
75 1 5.064 6.118 11.84 
79 1 7.244 6.231 21.771 
82 1 7.967 6.906 20.899 
86 1 3.5 9.862 12.633 
88 1 2.256 10.089 13.035 
108 1 9.22 6.004 20.899 
112 1 4.369 8.568 13.035 
115 1 4.308 6.159 14.209 
124 1 4.857 7.722 11.84 
125 1 1.984 9.314 14.209 
126 1 6.846 9.307 21.771 
128 1 7.76 8.511 20.899 
139 1 1.491 10.146 20.924 
140 1 4.097 7.793 18.554 
143 1 7.967 6.906 11.865 
146 1 4.29 8.493 22.068 
149 1 5.064 6.118 20.924 
157 1 2.256 10.089 19.728 
ITEM: TIMESTEP
10
ITEM: NUMBER OF ATOMS
161
ITEM: BOX BOUNDS xy xz yz pp pp pp
-6.7755000000000001e+00 1.3552000000000000e+01 -6.7755000000000001e+00
0.0000000000000000e+00 1.1735510246683001e+01 0.0000000000000000e+00
0.0000000000000000e+00 2.2149999999999999e+01 0.0000000000000000e+00
ITEM: ATOMS id type x y z 
8 1 -2.42873 5.40652 9.85831 
87 1 2.99333 4.35542 10.6449 
90 1 2.63245 5.47927 9.78713 
109 1 -2.43293 5.39643 0.765871 
158 1 2.65868 5.44163 0.851967 
11 1 4.29499 4.23908 20.1018 
14 1 2.91464 4.13421 19.6857 
18 1 1.34363 5.83089 18.5858 
33 1 2.09524 4.25182 20.9138 
43 1 4.31109 4.18146 21.5702 
47 1 3.21402 5.78503 17.8605 
52 1 4.2832 4.23564 12.6666 
76 1 2.45697 4.89098 14.1779 
85 1 4.2716 4.12856 11.1614 
89 1 3.18817 5.77818 14.9043 
91 1 0.961229 5.10432 11.8665 
102 1 2.89975 4.13252 13.0843 
105 1 1.36204 5.82866 14.2028 
114 1 2.09571 4.26333 11.8304 
150 1 2.44202 4.90853 18.5791 
156 1 2.97113 4.26935 22.1229 
159 1 0.941026 5.11953 20.9254 
5 1 -4.91784 10.6316 8.59984 
9 1 -3.35237 8.84251 7.50596 
19 1 -1.74545 7.49263 10.5635 
21 1 -2.56561 8.76469 10.9315 
23 1 -3.29977 7.53162 6.83121 
25 1 -4.09295 10.4746 9.85918 
32 1 1.58501 6.34792 0.748031 
36 1 -1.89655 7.56531 9.06558 
38 1 -2.14644 6.21322 8.66041 
54 1 0.324286 8.49226 10.7061 
57 1 1.34571 7.96672 9.79867 
60 1 -1.76262 7.51122 0.0502676 
65 1 -3.28687 7.55044 3.79399 
78 1 -1.88598 7.56261 1.54564 
80 1 -2.56773 8.80539 1.89617 
84 1 -4.44991 9.81774 3.0992 
99 1 -2.97405 9.60651 0.784114 
100 1 -2.92071 6.26269 3.18283 
107 1 -4.91858 10.5916 2.00626 
110 1 -3.34793 8.8687 3.10374 
111 1 0.562877 5.95939 10.7507 
113 1 1.50222 6.36682 9.81655 
119 1 -4.09602 10.4587 0.769887 
127 1 -2.14822 6.20419 1.96191 
131 1 -2.33789 6.22762 10.9887 
138 1 1.3663 7.97985 0.834209 
142 1 -2.5785 8.79879 8.70967 
145 1 -4.44902 9.83622 7.50255 
151 1 -4.98172 10.4308 11.0755 
154 1 -2.96899 9.61142 9.81266 
155 1 -2.90479 6.27251 7.42878 
12 1 2.58487 7.05908 17.1004 
17 1 0.419014 9.3395 20.9031 
24 1 -3.57227 8.35799 11.8791 
27 1 -0.256204 7.17624 21.6366 
29 1 0.628207 5.99078 22.0141 
31 1 1.25438 7.18083 17.8793 
44 1 -0.122784 7.16266 20.1458 
46 1 0.132735 8.51369 19.7298 
51 1 -0.262194 7.23725 11.1278 
53 1 2.58516 7.06998 15.6639 
56 1 1.25728 7.20391 14.8845 
63 1 -2.33178 6.22195 21.768 
66 1 -3.38074 6.77587 20.8647 
70 1 -0.126459 7.17193 12.6146 
72 1 0.528343 5.91711 12.9473 
92 1 0.896179 8.47148 14.2471 
95 1 -4.97516 10.4215 21.7103 
98 1 -4.68654 9.22569 20.8579 
104 1 0.415662 9.31492 11.8308 
116 1 -2.62171 8.75449 21.8015 
118 1 -3.56605 8.37222 20.9273 
122 1 0.136583 8.50994 13.0281 
133 1 -3.36887 6.76235 11.8957 
136 1 0.305738 8.51917 22.0849 
147 1 0.535572 5.93222 19.8099 
153 1 -4.67468 9.21853 11.9117 
160 1 0.886798 8.46995 18.5168 
1 1 7.88349 4.96048 10.5361 
4 1 9.18489 4.78043 11.0141 
20 1 7.85586 4.9567 9.02566 
42 1 9.4533 5.41835 7.44898 
67 1 10.0002 4.58369 0.776846 
77 1 7.8265 4.94842 0.100619 
94 1 7.84434 4.95762 1.56899 
96 1 9.18038 4.65195 1.98873 
121 1 4.65926 5.44344 10.6667 
130 1 9.44799 5.42258 3.1781 
134 1 9.97337 4.58017 9.85573 
152 1 9.20345 4.64689 8.62342 
45 1 4.66633 5.46626 22.0479 
55 1 4.82154 5.49092 13.0702 
106 1 9.20779 4.73805 21.7174 
137 1 4.81076 5.47794 19.7048 
2 1 7.24701 10.5212 9.05928 
3 1 8.9785 7.63524 6.05138 
6 1 8.50483 6.36963 6.82563 
16 1 2.36349 8.67011 0.873459 
22 1 7.20559 6.14617 8.63554 
26 1 7.22354 8.40138 7.53375 
35 1 7.26734 10.5809 10.5032 
37 1 6.8197 9.26392 11.0498 
39 1 8.27919 8.94116 6.79526 
41 1 6.6178 6.9794 9.78826 
48 1 3.68904 6.38148 0.841274 
61 1 7.24028 10.4837 1.59461 
62 1 8.97101 7.64678 4.56394 
64 1 6.72508 9.22297 2.01386 
68 1 7.39849 6.99373 3.03991 
71 1 4.29512 8.53177 10.7555 
74 1 3.60996 7.752 9.81729 
81 1 8.49488 6.39269 3.77791 
83 1 6.53825 8.44181 0.795998 
93 1 7.23324 10.5629 0.0871337 
97 1 8.26837 8.93839 3.83234 
101 1 2.3377 9.92705 10.672 
103 1 2.34303 8.67979 9.77805 
117 1 7.1345 6.18455 1.93219 
120 1 7.20054 8.39734 3.04695 
123 1 3.7707 6.34011 9.80524 
129 1 6.71501 6.99723 0.807425 
132 1 6.705 9.24683 8.59602 
135 1 7.37615 6.96063 7.5818 
141 1 7.24104 6.14819 10.9901 
144 1 6.56658 8.54523 9.80893 
148 1 3.59856 7.77735 0.806021 
161 2 5.57273 6.97207 9.78916 
7 1 9.22884 6.02321 11.9394 
10 1 3.69904 9.78879 21.6022 
13 1 2.33204 9.97601 22.1 
15 1 3.04011 8.34239 17.8975 
28 1 3.69658 9.76757 20.113 
30 1 4.40655 8.5298 19.7855 
34 1 4.344 6.31079 18.6238 
40 1 7.7677 8.39349 11.8841 
49 1 4.80505 7.71977 20.8861 
50 1 2.0813 9.30903 18.5078 
58 1 1.55911 10.1298 11.8162 
59 1 4.14315 7.76245 14.1239 
69 1 3.67472 9.77743 11.1526 
73 1 3.01797 8.34188 14.8614 
75 1 4.97366 6.30968 11.8987 
79 1 7.21964 6.1871 21.8169 
82 1 7.92637 6.99312 20.8742 
86 1 3.68482 9.77818 12.6338 
88 1 2.35168 10.0722 13.062 
108 1 9.18169 6.07176 20.8185 
112 1 4.41067 8.54786 12.9926 
115 1 4.35208 6.30929 14.1416 
124 1 4.80962 7.71415 11.8739 
125 1 2.08539 9.29861 14.2532 
126 1 6.87135 9.23517 21.7349 
128 1 7.77485 8.35761 20.8872 
139 1 1.5437 10.1349 20.9241 
140 1 4.14935 7.75993 18.656 
143 1 7.92385 6.96264 11.8781 
146 1 4.32275 8.52985 22.0022 
149 1 4.98408 6.28472 20.9177 
157 1 2.34636 10.0784 19.7057 
ITEM: TIMESTEP
20
ITEM: NUMBER OF ATOMS
161
ITEM: BOX BOUNDS xy xz yz pp pp pp
-6.7755000000000001e+00 1.3552000000000000e+01 -6.7755000000000001e+00
0.0000000000000000e+00 1.1735510246683001e+01 0.0000000000000000e+00
0.0000000000000000e+00 2.2149999999999999e+01 0.0000000000000000e+00
ITEM: ATOMS id type x y z 
8 1 -2.43283 5.42002 9.8454 
87 1 2.95252 4.34681 10.6558 
90 1 2.62144 5.52051 9.7451 
109 1 -2.43349 5.42405 0.776797 
158 1 2.66408 5.41594 0.874525 
11 1 4.27139 4.24613 20.1038 
14 1 2.87723 4.14959 19.7099 
18 1 1.29763 5.85861 18.5751 
33 1 2.08657 4.27564 20.9063 
43 1 4.30027 4.21126 21.5519 
47 1 3.23816 5.78982 17.8425 
52 1 4.26358 4.24088 12.6491 
76 1 2.42859 4.89642 14.1821 
85 1 4.27878 4.18665 11.2092 
89 1 3.22085 5.78789 14.9194 
91 1 0.939739 5.11034 11.8512 
102 1 2.8767 4.13585 13.0494 
105 1 1.31326 5.85839 14.1959 
114 1 2.08027 4.28169 11.8488 
150 1 2.43072 4.91372 18.5811 
156 1 2.96096 4.27554 22.1042 
159 1 0.939348 5.10605 20.9258 
5 1 -4.88047 10.595 8.63435 
9 1 -3.32912 8.86311 7.4998 
19 1 -1.7457 7.52466 10.5592 
21 1 -2.58009 8.77187 10.9659 
23 1 -3.30791 7.52807 6.81163 
25 1 -4.1029 10.4533 9.84447 
32 1 1.6043 6.35718 0.781687 
36 1 -1.87971 7.57223 9.06028 
38 1 -2.13978 6.25046 8.63959 
54 1 0.322367 8.48966 10.6794 
57 1 1.3656 7.95276 9.78123 
60 1 -1.75296 7.52124 0.0567485 
65 1 -3.2982 7.53691 3.80254 
78 1 -1.87656 7.56783 1.54793 
80 1 -2.54138 8.80042 1.90684 
84 1 -4.45534 9.80322 3.11143 
99 1 -2.95873 9.60741 0.769658 
100 1 -2.93409 6.27667 3.17096 
107 1 -4.89101 10.5713 1.97876 
110 1 -3.31788 8.86412 3.11522 
111 1 0.543597 5.94976 10.729 
113 1 1.47556 6.36391 9.81209 
119 1 -4.09576 10.4451 0.778974 
127 1 -2.1513 6.24564 1.98126 
131 1 -2.33868 6.24053 11.0034 
138 1 1.36162 8.00882 0.833299 
142 1 -2.55191 8.79698 8.703 
145 1 -4.45101 9.8184 7.50685 
151 1 -4.967 10.3981 11.0482 
154 1 -2.9621 9.61444 9.84603 
155 1 -2.91224 6.26205 7.43962 
12 1 2.56088 7.08258 17.1402 
17 1 0.414076 9.30174 20.909 
24 1 -3.52686 8.3526 11.8621 
27 1 -0.256019 7.18686 21.6359 
29 1 0.613793 5.97606 22.0336 
31 1 1.28078 7.18538 17.8848 
44 1 -0.138959 7.1529 20.1446 
46 1 0.132906 8.48042 19.7101 
51 1 -0.273093 7.19939 11.1363 
53 1 2.55909 7.09071 15.6303 
56 1 1.27643 7.19057 14.8856 
63 1 -2.33961 6.23781 21.7633 
66 1 -3.39725 6.77444 20.8524 
70 1 -0.138686 7.14786 12.6315 
72 1 0.532618 5.92305 12.9846 
92 1 0.911224 8.45187 14.2492 
95 1 -4.98396 10.4004 21.7317 
98 1 -4.66882 9.21694 20.8276 
104 1 0.417197 9.30445 11.8547 
116 1 -2.58902 8.76829 21.7909 
118 1 -3.54362 8.36049 20.9069 
122 1 0.134938 8.47368 13.0518 
133 1 -3.38956 6.77937 11.9087 
136 1 0.322774 8.49166 22.0845 
147 1 0.524118 5.92605 19.7845 
153 1 -4.66698 9.19692 11.9278 
160 1 0.913653 8.44218 18.5105 
1 1 7.86735 4.96651 10.5215 
4 1 9.15828 4.81251 11.0309 
20 1 7.83874 4.93841 9.04283 
42 1 9.46138 5.45321 7.44321 
67 1 9.95489 4.58904 0.761464 
77 1 7.85622 4.94075 0.0851937 
94 1 7.82592 4.94614 1.55763 
96 1 9.15278 4.67847 1.99786 
121 1 4.67121 5.48304 10.677 
130 1 9.44917 5.45172 3.16927 
134 1 9.96306 4.59143 9.84719 
152 1 9.17664 4.66076 8.60668 
45 1 4.63969 5.5019 22.0754 
55 1 4.82794 5.52962 13.0734 
106 1 9.14498 4.80765 21.759 
137 1 4.82404 5.52523 19.6919 
2 1 7.28678 10.5175 9.04242 
3 1 8.97337 7.63091 6.06966 
6 1 8.51266 6.37326 6.80064 
16 1 2.37078 8.69379 0.886037 
22 1 7.15585 6.14246 8.64984 
26 1 7.21683 8.40606 7.53055 
35 1 7.28 10.5372 10.4914 
37 1 6.85521 9.2563 11.0453 
39 1 8.27993 8.9453 6.77659 
41 1 6.59649 6.98232 9.80541 
48 1 3.67503 6.3582 0.840468 
61 1 7.27093 10.4792 1.56675 
62 1 8.97293 7.65039 4.54363 
64 1 6.69928 9.19556 1.98862 
68 1 7.39126 6.96114 3.06043 
71 1 4.32099 8.49553 10.7345 
74 1 3.59927 7.75818 9.80193 
81 1 8.5176 6.39201 3.79773 
83 1 6.5378 8.41055 0.804015 
93 1 7.26209 10.5055 0.128368 
97 1 8.28435 8.93806 3.8537 
101 1 2.37987 9.89583 10.6735 
103 1 2.36549 8.66947 9.76001 
117 1 7.08814 6.17218 1.92652 
120 1 7.20502 8.41328 3.0779 
123 1 3.76007 6.33163 9.79675 
129 1 6.69635 6.99467 0.795873 
132 1 6.7102 9.23398 8.60639 
135 1 7.39116 6.94616 7.54811 
141 1 7.22364 6.17017 11.0156 
144 1 6.57244 8.52479 9.81162 
148 1 3.59686 7.81054 0.826887 
161 2 5.5481 6.95854 9.76129 
7 1 9.19282 6.03126 11.943 
10 1 3.70253 9.80745 21.6046 
13 1 2.38682 9.93545 22.074 
15 1 3.02606 8.33627 17.8955 
28 1 3.70354 9.77526 20.1211 
30 1 4.43735 8.55169 19.7784 
34 1 4.32789 6.30964 18.6105 
40 1 7.75943 8.37655 11.8957 
49 1 4.82747 7.7342 20.9079 
50 1 2.08816 9.26968 18.5156 
58 1 1.57914 10.1248 11.8365 
59 1 4.14779 7.7673 14.1417 
69 1 3.7011 9.80356 11.1527 
73 1 3.02279 8.33803 14.8721 
75 1 4.96866 6.31286 11.8908 
79 1 7.19662 6.21063 21.8038 
82 1 7.92322 6.94928 20.8521 
86 1 3.70255 9.77458 12.6318 
88 1 2.38483 10.0453 13.0728 
108 1 9.17053 6.05274 20.8205 
112 1 4.44456 8.56133 12.9992 
115 1 4.32304 6.31439 14.1622 
124 1 4.82364 7.73049 11.8729 
125 1 2.08854 9.27199 14.2433 
126 1 6.85986 9.22253 21.7383 
128 1 7.76179 8.37844 20.8706 
139 1 1.57655 10.1315 20.9222 
140 1 4.14923 7.76597 18.6285 
143 1 7.93693 6.95375 11.884 
146 1 4.33644 8.50444 22.0226 
149 1 4.98558 6.30487 20.905 
157 1 2.38641 10.0432 19.6856 
ITEM: TIMESTEP
30
ITEM: NUMBER OF ATOMS
161
ITEM: BOX BOUNDS xy xz yz pp pp pp
-6.7755000000000001e+00 1.3552000000000000e+01 -6.7755000000000001e+00
0.0000000000000000e+00 1.1735510246683001e+01 0.0000000000000000e+00
0.0000000000000000e+00 2.2149999999999999e+01 0.0000000000000000e+00
ITEM: ATOMS id type x y z 
8 1 -2.44566 5.43834 9.83018 
87 1 2.92268 4.3515 10.6543 
90 1 2.60537 5.52187 9.74735 
109 1 -2.45469 5.4352 0.785022 
158 1 2.63452 5.44354 0.860051 
11 1 4.25994 4.25542 20.1106 
14 1 2.8636 4.17287 19.7066 
18 1 1.27681 5.85149 18.5641 
33 1 2.07709 4.28013 20.9082 
43 1 4.2669 4.24934 21.544 
47 1 3.24103 5.79484 17.8289 
52 1 4.2491 4.25576 12.6549 
76 1 2.42329 4.92805 14.1877 
85 1 4.2525 4.22449 11.2033 
89 1 3.2437 5.7913 14.9352 
91 1 0.919556 5.12989 11.8398 
102 1 2.86383 4.1677 13.0613 
105 1 1.2756 5.85001 14.2017 
114 1 2.06825 4.28501 11.8481 
150 1 2.42079 4.93385 18.5768 
156 1 2.94393 4.29643 22.1154 
159 1 0.935016 5.12497 20.9245 
5 1 -4.86742 10.5672 8.63072 
9 1 -3.30449 8.86891 7.48705 
19 1 -1.75172 7.53445 10.556 
21 1 -2.56483 8.78812 10.9814 
23 1 -3.30135 7.53452 6.82091 
25 1 -4.0852 10.4469 9.84575 
32 1 1.59858 6.36114 0.79847 
36 1 -1.85926 7.58573 9.05857 
38 1 -2.14581 6.25824 8.63985 
54 1 0.328403 8.47303 10.6763 
57 1 1.3731 7.93025 9.78245 
60 1 -1.75065 7.52974 0.0539583 
65 1 -3.29514 7.54229 3.7995 
78 1 -1.85992 7.58252 1.55652 
80 1 -2.52058 8.80529 1.90254 
84 1 -4.44373 9.79172 3.11156 
99 1 -2.94438 9.59585 0.764204 
100 1 -2.93976 6.28773 3.17225 
107 1 -4.88085 10.5476 1.97827 
110 1 -3.30236 8.87158 3.12657 
111 1 0.530673 5.92747 10.7101 
113 1 1.47 6.38453 9.80902 
119 1 -4.09311 10.4359 0.772477 
127 1 -2.15344 6.26083 1.97504 
131 1 -2.34847 6.25685 11.0091 
138 1 1.38087 7.99256 0.832702 
142 1 -2.52784 8.80443 8.70806 
145 1 -4.44423 9.79338 7.50334 
151 1 -4.94217 10.3836 11.0504 
154 1 -2.94262 9.59986 9.85117 
155 1 -2.92341 6.28385 7.43756 
12 1 2.57109 7.06766 17.1518 
17 1 0.433208 9.28847 20.9013 
24 1 -3.51565 8.34253 11.8712 
27 1 -0.251354 7.1825 21.6392 
29 1 0.601751 5.95832 22.0516 
31 1 1.27992 7.18489 17.8943 
44 1 -0.156308 7.14072 20.1381 
46 1 0.136045 8.46177 19.7129 
51 1 -0.271646 7.19514 11.1403 
53 1 2.56487 7.07189 15.611 
56 1 1.28034 7.18603 14.8769 
63 1 -2.35973 6.25555 21.751 
66 1 -3.40159 6.78758 20.8617 
70 1 -0.157746 7.14032 12.6331 
72 1 0.510633 5.91363 12.9864 
92 1 0.918358 8.44059 14.2497 
95 1 -4.95507 10.3652 21.7226 
98 1 -4.65908 9.19898 20.8295 
104 1 0.432865 9.28787 11.8578 
116 1 -2.56895 8.78411 21.7839 
118 1 -3.52712 8.34516 20.895 
122 1 0.135236 8.4611 13.0535 
133 1 -3.39778 6.78792 11.9081 
136 1 0.331853 8.47519 22.0888 
147 1 0.50267 5.91509 19.7888 
153 1 -4.66389 9.18176 11.9269 
160 1 0.91757 8.43773 18.516 
1 1 7.85559 4.97204 10.5219 
4 1 9.15216 4.83254 11.0261 
20 1 7.80821 4.94071 9.04325 
42 1 9.46225 5.46417 7.44719 
67 1 9.94263 4.61314 0.779369 
77 1 7.82361 4.96939 0.0945286 
94 1 7.79543 4.944 1.54031 
96 1 9.14252 4.69742 1.99225 
121 1 4.66953 5.50607 10.6888 
130 1 9.44557 5.46853 3.16507 
134 1 9.94307 4.6118 9.83617 
152 1 9.1673 4.68618 8.61416 
45 1 4.63742 5.52898 22.0836 
55 1 4.80972 5.53249 13.0797 
106 1 9.12922 4.85089 21.7473 
137 1 4.81875 5.54214 19.696 
2 1 7.29822 10.5228 9.04838 
3 1 8.96109 7.64265 6.07993 
6 1 8.50987 6.37425 6.78957 
16 1 2.36974 8.70722 0.880823 
22 1 7.1392 6.13498 8.64205 
26 1 7.20297 8.4031 7.53183 
35 1 7.30444 10.5062 10.4759 
37 1 6.85347 9.238 11.0411 
39 1 8.28601 8.92379 6.75904 
41 1 6.58127 6.96906 9.8153 
48 1 3.70452 6.35352 0.848767 
61 1 7.28055 10.464 1.57618 
62 1 8.96778 7.65545 4.54267 
64 1 6.71475 9.18284 1.99421 
68 1 7.38255 6.95222 3.07055 
71 1 4.31675 8.49409 10.7436 
74 1 3.60636 7.76691 9.8015 
81 1 8.50541 6.39382 3.80588 
83 1 6.52902 8.39449 0.802024 
93 1 7.27074 10.4751 0.136582 
97 1 8.29164 8.92353 3.86341 
101 1 2.40606 9.84968 10.6829 
103 1 2.36986 8.66209 9.7589 
117 1 7.06274 6.16667 1.93135 
120 1 7.20045 8.40729 3.08546 
123 1 3.74805 6.33487 9.78802 
129 1 6.68942 6.96833 0.781543 
132 1 6.7324 9.22629 8.60112 
135 1 7.39267 6.9418 7.54209 
141 1 7.20678 6.17073 11.011 
144 1 6.57073 8.50878 9.81054 
148 1 3.60059 7.80262 0.822109 
161 2 5.53128 6.94756 9.72805 
7 1 9.17684 6.03936 11.9439 
10 1 3.75428 9.82429 21.6088 
13 1 2.41187 9.88155 22.069 
15 1 3.03049 8.32763 17.8837 
28 1 3.72231 9.76553 20.1483 
30 1 4.46208 8.55743 19.7653 
34 1 4.33225 6.32058 18.6006 
40 1 7.76257 8.37233 11.9123 
49 1 4.83562 7.75349 20.9208 
50 1 2.0883 9.25662 18.5207 
58 1 1.58922 10.1086 11.8502 
59 1 4.15469 7.77965 14.1494 
69 1 3.75437 9.8158 11.1415 
73 1 3.02892 8.33246 14.8859 
75 1 4.97611 6.3285 11.8926 
79 1 7.19759 6.20649 21.8023 
82 1 7.91799 6.94265 20.8612 
86 1 3.72317 9.76611 12.614 
88 1 2.39617 10.0282 13.071 
108 1 9.15611 6.0526 20.8268 
112 1 4.46622 8.56583 13.0095 
115 1 4.32444 6.31756 14.1716 
124 1 4.82815 7.75551 11.8574 
125 1 2.08888 9.25992 14.2379 
126 1 6.86373 9.19269 21.7427 
128 1 7.75713 8.37204 20.851 
139 1 1.58313 10.1161 20.9049 
140 1 4.15517 7.77407 18.62 
143 1 7.94403 6.95078 11.8974 
146 1 4.32391 8.50192 22.0337 
149 1 4.98326 6.32888 20.8897 
157 1 2.3981 10.0278 19.6865 
ITEM: TIMESTEP
40
ITEM: NUMBER OF ATOMS
161
ITEM: BOX BOUNDS xy xz yz pp pp pp
-6.7755000000000001e+00 1.3552000000000000e+01 -6.7755000000000001e+00
0.0000000000000000e+00 1.1735510246683001e+01 0.0000000000000000e+00
0.0000000000000000e+00 2.2149999999999999e+01 0.0000000000000000e+00
ITEM: ATOMS id type x y z 
8 1 -2.44768 5.44216 9.83029 
87 1 2.92121 4.35586 10.654 
90 1 2.60484 5.52429 9.74561 
109 1 -2.4559 5.44123 0.784696 
158 1 2.63502 5.44219 0.866145 
11 1 4.2585 4.2604 20.1067 
14 1 2.86057 4.17354 19.7104 
18 1 1.27711 5.85114 18.5618 
33 1 2.07403 4.28296 20.9079 
43 1 4.26749 4.25498 21.5421 
47 1 3.23698 5.79696 17.8289 
52 1 4.24611 4.25819 12.6526 
76 1 2.41786 4.92818 14.1906 
85 1 4.2484 4.22819 11.2093 
89 1 3.23738 5.7932 14.9371 
91 1 0.917421 5.12771 11.8393 
102 1 2.85884 4.16908 13.0558 
105 1 1.2778 5.85034 14.2068 
114 1 2.0648 4.2893 11.8495 
150 1 2.41625 4.93308 18.5745 
156 1 2.94227 4.29793 22.1155 
159 1 0.932683 5.12658 20.9284 
5 1 -4.86319 10.5652 8.63407 
9 1 -3.3033 8.87115 7.48562 
19 1 -1.75127 7.53967 10.5564 
21 1 -2.55998 8.78958 10.9837 
23 1 -3.30244 7.53555 6.81897 
25 1 -4.08033 10.4422 9.84661 
32 1 1.59897 6.3685 0.80155 
36 1 -1.8551 7.58904 9.05731 
38 1 -2.14413 6.26276 8.63897 
54 1 0.329518 8.46982 10.6776 
57 1 1.37003 7.92933 9.78183 
60 1 -1.7509 7.53369 0.0549283 
65 1 -3.29682 7.54161 3.80043 
78 1 -1.85519 7.58648 1.55448 
80 1 -2.5175 8.80742 1.90478 
84 1 -4.43975 9.79039 3.11361 
99 1 -2.94199 9.59649 0.764014 
100 1 -2.93809 6.28869 3.17104 
107 1 -4.87687 10.5456 1.97539 
110 1 -3.29974 8.87279 3.12709 
111 1 0.52351 5.92947 10.7091 
113 1 1.46454 6.38295 9.80535 
119 1 -4.08938 10.4308 0.772598 
127 1 -2.15318 6.26351 1.97568 
131 1 -2.34989 6.25842 11.0085 
138 1 1.38036 7.98958 0.832955 
142 1 -2.52307 8.80648 8.70739 
145 1 -4.43921 9.79119 7.50185 
151 1 -4.93926 10.3778 11.0497 
154 1 -2.93952 9.60007 9.85147 
155 1 -2.92138 6.28445 7.43884 
12 1 2.57179 7.06782 17.1512 
17 1 0.434575 9.28238 20.9008 
24 1 -3.51147 8.34252 11.8745 
27 1 -0.249863 7.17416 21.6409 
29 1 0.597554 5.96064 22.0505 
31 1 1.28038 7.18388 17.8926 
44 1 -0.159964 7.13579 20.1386 
46 1 0.134811 8.45916 19.714 
51 1 -0.270531 7.18956 11.1389 
53 1 2.56688 7.07074 15.6127 
56 1 1.28052 7.18574 14.8761 
63 1 -2.35885 6.2588 21.7533 
66 1 -3.4026 6.7903 20.8598 
70 1 -0.161983 7.13608 12.6346 
72 1 0.504063 5.91369 12.9862 
92 1 0.917901 8.43929 14.2489 
95 1 -4.95638 10.3615 21.7243 
98 1 -4.65764 9.19175 20.8249 
104 1 0.434281 9.2815 11.8585 
116 1 -2.56234 8.78361 21.7825 
118 1 -3.51993 8.34367 20.8917 
122 1 0.134954 8.45938 13.0531 
133 1 -3.39798 6.78951 11.9096 
136 1 0.335267 8.47358 22.0894 
147 1 0.497871 5.91476 19.786 
153 1 -4.66167 9.17848 11.929 
160 1 0.91654 8.43738 18.5167 
1 1 7.85193 4.97242 10.521 
4 1 9.14793 4.83547 11.0267 
20 1 7.80433 4.94006 9.04304 
42 1 9.45943 5.46479 7.44601 
67 1 9.93796 4.61757 0.778078 
77 1 7.81769 4.9693 0.092528 
94 1 7.78947 4.9454 1.54576 
96 1 9.13401 4.70175 1.99293 
121 1 4.66112 5.50822 10.6907 
130 1 9.44259 5.47014 3.16443 
134 1 9.94105 4.61584 9.83644 
152 1 9.15949 4.68993 8.6131 
45 1 4.63148 5.5303 22.0811 
55 1 4.80929 5.5395 13.0798 
106 1 9.12514 4.8548 21.7471 
137 1 4.81677 5.54627 19.6932 
2 1 7.30037 10.5197 9.04328 
3 1 8.95957 7.64348 6.07825 
6 1 8.51169 6.37468 6.78977 
16 1 2.37299 8.70716 0.883156 
22 1 7.13286 6.13641 8.64156 
26 1 7.20332 8.39929 7.53027 
35 1 7.30719 10.5032 10.476 
37 1 6.86184 9.23618 11.0429 
39 1 8.28752 8.923 6.75874 
41 1 6.57835 6.96369 9.81332 
48 1 3.69563 6.35614 0.854519 
61 1 7.28253 10.4602 1.57438 
62 1 8.96621 7.65549 4.54296 
64 1 6.7149 9.17586 1.99283 
68 1 7.37812 6.95089 3.07068 
71 1 4.31963 8.49891 10.7418 
74 1 3.60611 7.76627 9.79548 
81 1 8.50663 6.39525 3.80661 
83 1 6.52899 8.38915 0.803817 
93 1 7.27546 10.4684 0.139283 
97 1 8.29414 8.92329 3.86296 
101 1 2.4143 9.84622 10.6848 
103 1 2.37461 8.66068 9.75821 
117 1 7.05783 6.16461 1.93139 
120 1 7.20102 8.40245 3.08793 
123 1 3.74536 6.33536 9.78528 
129 1 6.68428 6.96961 0.784473 
132 1 6.73643 9.22597 8.60057 
135 1 7.39054 6.94225 7.54309 
141 1 7.20224 6.17283 11.0119 
144 1 6.57067 8.50483 9.81043 
148 1 3.60156 7.80373 0.826143 
161 2 5.5277 6.94416 9.71791 
7 1 9.17428 6.04011 11.9452 
10 1 3.75994 9.82681 21.6129 
13 1 2.41942 9.88 22.0648 
15 1 3.03038 8.32742 17.8825 
28 1 3.72928 9.76609 20.1466 
30 1 4.46811 8.55788 19.7649 
34 1 4.33265 6.3238 18.6 
40 1 7.76005 8.37171 11.9155 
49 1 4.83989 7.75616 20.9166 
50 1 2.0923 9.2551 18.5208 
58 1 1.59295 10.104 11.8509 
59 1 4.15728 7.77862 14.1513 
69 1 3.75955 9.81925 11.1412 
73 1 3.0287 8.33242 14.8856 
75 1 4.97516 6.33127 11.8949 
79 1 7.19275 6.20667 21.8015 
82 1 7.91495 6.94409 20.8571 
86 1 3.72967 9.76669 12.6139 
88 1 2.4018 10.0236 13.0705 
108 1 9.15242 6.05384 20.8263 
112 1 4.47099 8.56656 13.0105 
115 1 4.32683 6.32473 14.1716 
124 1 4.83416 7.75184 11.8635 
125 1 2.09225 9.25738 14.2383 
126 1 6.86498 9.18857 21.744 
128 1 7.75623 8.36851 20.8469 
139 1 1.58798 10.112 20.9039 
140 1 4.15872 7.77425 18.6187 
143 1 7.94018 6.94858 11.8997 
146 1 4.32646 8.50665 22.0359 
149 1 4.98338 6.33125 20.8921 
157 1 2.40241 10.0233 19.6866 
ITEM: TIMESTEP
50
ITEM: NUMBER OF ATOMS
161
ITEM: BOX BOUNDS xy xz yz pp pp pp
-6.7755000000000001e+00 1.3552000000000000e+01 -6.7755000000000001e+00
0.0000000000000000e+00 1.1735510246683001e+01 0.0000000000000000e+00
0.0000000000000000e+00 2.2149999999999999e+01 0.0000000000000000e+00
ITEM: ATOMS id type x y z 
8 1 -2.46323 5.46624 9.82775 
87 1 2.89924 4.37091 10.6496 
90 1 2.58667 5.537 9.73614 
109 1 -2.47148 5.4697 0.783944 
158 1 2.63155 5.45053 0.888071 
11 1 4.24382 4.28833 20.0935 
14 1 2.84398 4.18691 19.7136 
18 1 1.26274 5.85007 18.5562 
33 1 2.05909 4.29627 20.9148 
43 1 4.25003 4.28202 21.5316 
47 1 3.22636 5.79678 17.8331 
52 1 4.22783 4.27757 12.6621 
76 1 2.39871 4.93198 14.1979 
85 1 4.21499 4.2544 11.2252 
89 1 3.22751 5.79659 14.9389 
91 1 0.88608 5.13066 11.8391 
102 1 2.83747 4.18845 13.0528 
105 1 1.26304 5.84927 14.215 
114 1 2.04084 4.30309 11.8469 
150 1 2.39949 4.93066 18.5692 
156 1 2.92799 4.31808 22.1173 
159 1 0.91392 5.13607 20.9327 
5 1 -4.84089 10.5538 8.64038 
9 1 -3.28832 8.87328 7.47912 
19 1 -1.75 7.56043 10.5563 
21 1 -2.53449 8.79573 10.9992 
23 1 -3.30223 7.53624 6.8139 
25 1 -4.05603 10.4267 9.85097 
32 1 1.58008 6.38834 0.817965 
36 1 -1.83105 7.60724 9.05152 
38 1 -2.13745 6.28489 8.63673 
54 1 0.338613 8.45184 10.6783 
57 1 1.36944 7.91952 9.77625 
60 1 -1.74413 7.55338 0.0579134 
65 1 -3.29886 7.53911 3.80179 
78 1 -1.83134 7.6048 1.55858 
80 1 -2.49571 8.81878 1.91489 
84 1 -4.4219 9.79159 3.11841 
99 1 -2.9146 9.59253 0.760504 
100 1 -2.9348 6.29197 3.16721 
107 1 -4.86057 10.5307 1.96863 
110 1 -3.28363 8.87365 3.13399 
111 1 0.493895 5.9246 10.6958 
113 1 1.43847 6.38129 9.78869 
119 1 -4.0732 10.4104 0.766228 
127 1 -2.14754 6.28371 1.97587 
131 1 -2.35887 6.275 11.0041 
138 1 1.39189 7.97864 0.840383 
142 1 -2.4969 8.8177 8.69734 
145 1 -4.42007 9.79167 7.49765 
151 1 -4.91896 10.3546 11.0502 
154 1 -2.90576 9.59579 9.85436 
155 1 -2.91866 6.28994 7.4429 
12 1 2.57295 7.06352 17.1473 
17 1 0.44975 9.25344 20.9008 
24 1 -3.49047 8.3429 11.8931 
27 1 -0.248692 7.15302 21.6419 
29 1 0.582739 5.95792 22.0658 
31 1 1.28298 7.1869 17.8898 
44 1 -0.18124 7.11573 20.1372 
46 1 0.128799 8.43833 19.7162 
51 1 -0.275355 7.16766 11.141 
53 1 2.57393 7.06141 15.6168 
56 1 1.28291 7.18544 14.8745 
63 1 -2.36321 6.27628 21.7577 
66 1 -3.40555 6.79853 20.853 
70 1 -0.18707 7.11975 12.6412 
72 1 0.475891 5.90493 12.9939 
92 1 0.917772 8.43514 14.2449 
95 1 -4.94575 10.328 21.7197 
98 1 -4.64617 9.16043 20.8112 
104 1 0.449603 9.25394 11.8613 
116 1 -2.53387 8.79152 21.7704 
118 1 -3.49073 8.34028 20.873 
122 1 0.128489 8.44232 13.0534 
133 1 -3.4024 6.79488 11.9176 
136 1 0.349175 8.45629 22.0873 
147 1 0.47659 5.90338 19.7728 
153 1 -4.64964 9.15803 11.9399 
160 1 0.914873 8.43344 18.5219 
1 1 7.82701 4.97826 10.519 
4 1 9.12691 4.85364 11.0246 
20 1 7.77575 4.93822 9.0438 
42 1 9.45276 5.4729 7.44375 
67 1 9.91282 4.6509 0.774433 
77 1 7.78151 4.9639 0.0896363 
94 1 7.75425 4.94579 1.55494 
96 1 9.09812 4.72233 1.99163 
121 1 4.63463 5.52924 10.6926 
130 1 9.43229 5.48047 3.1602 
134 1 9.92361 4.64474 9.83595 
152 1 9.12932 4.70785 8.61271 
45 1 4.61292 5.55536 22.0792 
55 1 4.80184 5.56087 13.0869 
106 1 9.09802 4.87509 21.7526 
137 1 4.81113 5.56883 19.6878 
2 1 7.32 10.5012 9.03713 
3 1 8.95774 7.646 6.07453 
6 1 8.51031 6.37491 6.79114 
16 1 2.39095 8.70166 0.885357 
22 1 7.09653 6.13069 8.63423 
26 1 7.20844 8.38992 7.51949 
35 1 7.33234 10.4813 10.4704 
37 1 6.88015 9.21472 11.0421 
39 1 8.29811 8.92369 6.76149 
41 1 6.55421 6.95152 9.80684 
48 1 3.67861 6.3637 0.879048 
61 1 7.29658 10.4316 1.58042 
62 1 8.96187 7.65912 4.5427 
64 1 6.72154 9.15218 1.99726 
68 1 7.35747 6.9377 3.07988 
71 1 4.33743 8.50741 10.7384 
74 1 3.61639 7.77815 9.77983 
81 1 8.50034 6.39655 3.80708 
83 1 6.5202 8.37053 0.807426 
93 1 7.29676 10.4307 0.144841 
97 1 8.30517 8.92628 3.85698 
101 1 2.44674 9.83028 10.6893 
103 1 2.38995 8.64353 9.75936 
117 1 7.02149 6.15333 1.94298 
120 1 7.20359 8.38534 3.10061 
123 1 3.73357 6.33994 9.7743 
129 1 6.65397 6.95216 0.789914 
132 1 6.75013 9.21034 8.60441 
135 1 7.3809 6.93802 7.54108 
141 1 7.1803 6.17598 11.0173 
144 1 6.57663 8.48594 9.80847 
148 1 3.60896 7.81528 0.843112 
161 2 5.50841 6.92498 9.65393 
7 1 9.16257 6.04947 11.9514 
10 1 3.79539 9.83398 21.6195 
13 1 2.45008 9.87007 22.0545 
15 1 3.03682 8.32631 17.88 
28 1 3.76841 9.7716 20.1437 
30 1 4.50221 8.56731 19.7554 
34 1 4.331 6.33765 18.5869 
40 1 7.75938 8.36349 11.9346 
49 1 4.85949 7.77321 20.9161 
50 1 2.10354 9.243 18.5224 
58 1 1.61718 10.0694 11.8501 
59 1 4.17379 7.78813 14.1627 
69 1 3.79708 9.8235 11.1409 
73 1 3.0325 8.33031 14.8875 
75 1 4.97399 6.34358 11.9022 
79 1 7.16785 6.21029 21.7961 
82 1 7.8947 6.93567 20.8366 