ITEM: TIMESTEP
0
ITEM: NUMBER OF ATOMS
161
ITEM: BOX BOUNDS xy xz yz pp pp pp
-6.7755000000000001e+00 1.3552000000000000e+01 -6.7755000000000001e+00
0.0000000000000000e+00 1.1735510246683001e+01 0.0000000000000000e+00
0.0000000000000000e+00 2.2149999999999999e+01 0.0000000000000000e+00
ITEM: ATOMS id type x y z 
8 1 -2.486 5.297 9.849 
87 1 3.001 4.231 10.696 
90 1 2.733 5.481 9.824 
109 1 -2.486 5.297 0.765 
158 1 2.733 5.481 0.79 
161 2 3.001 2.881 10.696 
11 1 4.24 4.139 20.131 
14 1 3.031 4.094 19.728 
18 1 1.299 5.827 18.554 
33 1 2.266 4.151 20.924 
43 1 4.343 3.96 21.647 
47 1 3.32 5.732 17.88 
52 1 4.24 4.139 12.633 
76 1 2.552 4.924 14.209 
85 1 4.343 3.96 11.117 
89 1 3.32 5.732 14.883 
91 1 1.036 5.037 11.84 
102 1 3.031 4.094 13.035 
105 1 1.299 5.827 14.209 
114 1 2.266 4.151 11.84 
150 1 2.552 4.924 18.554 
156 1 3.001 4.231 22.068 
159 1 1.036 5.037 20.924 
5 1 -5.049 10.63 8.653 
9 1 -3.317 8.897 7.479 
19 1 -1.707 7.414 10.572 
21 1 -2.66 8.795 10.993 
23 1 -3.31 7.532 6.805 
25 1 -4.284 10.573 9.849 
32 1 1.503 6.367 0.79 
36 1 -1.869 7.426 9.056 
38 1 -2.209 6.086 8.653 
54 1 0.3 8.576 10.696 
57 1 1.291 8.001 9.824 
60 1 -1.707 7.414 0.042 
65 1 -3.31 7.532 3.808 
78 1 -1.869 7.426 1.558 
80 1 -2.566 8.842 1.961 
84 1 -4.57 9.799 3.135 
99 1 -3.054 9.687 0.765 
100 1 -2.96 6.142 3.135 
107 1 -5.049 10.63 1.961 
110 1 -3.317 8.897 3.135 
111 1 0.642 5.929 10.696 
113 1 1.503 6.367 9.824 
119 1 -4.284 10.573 0.765 
127 1 -2.209 6.086 1.961 
131 1 -2.318 6.148 10.993 
138 1 1.291 8.001 0.79 
142 1 -2.566 8.842 8.653 
145 1 -4.57 9.799 7.479 
151 1 -5.019 10.493 10.993 
154 1 -3.054 9.687 9.849 
155 1 -2.96 6.142 7.479 
12 1 2.53 7.1 17.202 
17 1 0.468 9.427 20.924 
24 1 -3.52 8.357 11.865 
27 1 -0.31 7.31 21.647 
29 1 0.642 5.929 22.068 
31 1 1.292 7.192 17.88 
44 1 -0.148 7.298 20.131 
46 1 0.191 8.638 19.728 
51 1 -0.31 7.31 11.117 
53 1 2.53 7.1 15.561 
56 1 1.292 7.192 14.883 
63 1 -2.318 6.148 21.771 
66 1 -3.309 6.723 20.899 
70 1 -0.148 7.298 12.633 
72 1 0.548 5.882 13.035 
92 1 0.942 8.582 14.209 
95 1 -5.019 10.493 21.771 
98 1 -4.751 9.243 20.899 
104 1 0.468 9.427 11.84 
116 1 -2.66 8.795 21.771 
118 1 -3.52 8.357 20.899 
122 1 0.191 8.638 13.035 
133 1 -3.309 6.723 11.865 
136 1 0.3 8.576 22.068 
147 1 0.548 5.882 19.728 
153 1 -4.751 9.243 11.865 
160 1 0.942 8.582 18.554 
1 1 7.976 4.694 10.572 
4 1 9.274 4.77 10.993 
20 1 8.034 4.861 9.056 
42 1 9.55 5.41 7.479 
67 1 10.043 4.578 0.765 
77 1 7.976 4.694 0.042 
94 1 8.035 4.861 1.558 
96 1 9.278 4.635 1.961 
121 1 4.688 5.417 10.696 
130 1 9.55 5.41 3.135 
134 1 10.043 4.578 9.849 
152 1 9.278 4.635 8.653 
45 1 4.688 5.417 22.068 
55 1 4.788 5.329 13.035 
106 1 9.274 4.77 21.771 
137 1 4.788 5.329 19.728 
2 1 7.294 10.585 9.056 
3 1 9.004 7.624 6.127 
6 1 8.556 6.347 6.805 
16 1 2.314 8.72 0.79 
22 1 7.166 6.156 8.653 
26 1 7.226 8.565 7.479 
35 1 7.191 10.764 10.572 
37 1 6.846 9.307 10.993 
39 1 8.214 8.992 6.805 
41 1 6.677 7.002 9.849 
48 1 3.775 6.213 0.79 
61 1 7.294 10.585 1.558 
62 1 9.004 7.624 4.487 
64 1 6.747 9.395 1.961 
68 1 7.437 6.931 3.135 
71 1 4.29 8.493 10.696 
74 1 3.567 7.818 9.824 
81 1 8.556 6.347 3.808 
83 1 6.47 8.606 0.765 
93 1 7.191 10.764 0.042 
97 1 8.214 8.992 3.808 
101 1 2.261 9.954 10.696 
103 1 2.314 8.72 9.824 
117 1 7.166 6.156 1.961 
120 1 7.226 8.565 3.135 
123 1 3.775 6.213 9.824 
129 1 6.677 7.002 0.765 
132 1 6.747 9.395 8.653 
135 1 7.437 6.931 7.479 
141 1 7.244 6.231 10.993 
144 1 6.47 8.606 9.849 
148 1 3.567 7.818 0.79 
7 1 9.22 6.004 11.865 
10 1 3.558 10.029 21.647 
13 1 2.261 9.954 22.068 
15 1 2.978 8.376 17.88 
28 1 3.5 9.862 20.131 
30 1 4.369 8.568 19.728 
34 1 4.308 6.159 18.554 
40 1 7.76 8.511 11.865 
49 1 4.857 7.722 20.924 
50 1 1.984 9.314 18.554 
58 1 1.491 10.146 11.84 
59 1 4.097 7.793 14.209 
69 1 3.558 10.029 11.117 
73 1 2.978 8.376 14.883 
75 1 5.064 6.118 11.84 
79 1 7.244 6.231 21.771 
82 1 7.967 6.906 20.899 
86 1 3.5 9.862 12.633 
88 1 2.256 10.089 13.035 
108 1 9.22 6.004 20.899 
112 1 4.369 8.568 13.035 
115 1 4.308 6.159 14.209 
124 1 4.857 7.722 11.84 
125 1 1.984 9.314 14.209 
126 1 6.846 9.307 21.771 
128 1 7.76 8.511 20.899 
139 1 1.491 10.146 20.924 
140 1 4.097 7.793 18.554 
143 1 7.967 6.906 11.865 
146 1 4.29 8.493 22.068 
149 1 5.064 6.118 20.924 
157 1 2.256 10.089 19.728 
ITEM: TIMESTEP
10
ITEM: NUMBER OF ATOMS
161
ITEM: BOX BOUNDS xy xz yz pp pp pp
-6.7755000000000001e+00 1.3552000000000000e+01 -6.7755000000000001e+00
0.0000000000000000e+00 1.1735510246683001e+01 0.0000000000000000e+00
0.0000000000000000e+00 2.2149999999999999e+01 0.0000000000000000e+00
ITEM: ATOMS id type x y z 
8 1 -2.40877 5.33102 9.85472 
87 1 2.83005 4.16388 10.5985 
90 1 2.64288 5.52564 9.80941 
109 1 -2.41111 5.33071 0.755221 
158 1 2.66652 5.45905 0.830167 
161 2 2.99292 2.85876 10.5684 
11 1 4.28489 4.18804 20.1567 
14 1 2.92594 4.11735 19.6992 
18 1 1.3152 5.86511 18.5949 
33 1 2.15576 4.20662 20.9064 
43 1 4.3151 4.13534 21.5885 
47 1 3.26527 5.79381 17.8191 
52 1 4.29094 4.22722 12.6927 
76 1 2.41644 4.92407 14.2062 
85 1 4.49747 4.04385 11.1277 
89 1 3.27138 5.80033 14.9373 
91 1 0.983476 5.04514 11.8626 
102 1 2.93777 4.10902 13.0934 
105 1 1.31278 5.86197 14.179 
114 1 2.13281 4.23093 11.9049 
150 1 2.43086 4.91205 18.5825 
156 1 2.97717 4.256 22.111 
159 1 0.997334 5.06072 20.9028 
5 1 -4.94577 10.6098 8.62949 
9 1 -3.34239 8.87117 7.5125 
19 1 -1.73764 7.49414 10.5484 
21 1 -2.58954 8.77136 10.8847 
23 1 -3.31593 7.53877 6.8291 
25 1 -4.17193 10.5121 9.83279 
32 1 1.57739 6.3469 0.776439 
36 1 -1.89325 7.54047 9.06604 
38 1 -2.14249 6.19563 8.62063 
54 1 0.309536 8.51319 10.6579 
57 1 1.30371 7.92003 9.80075 
60 1 -1.73935 7.49429 0.0621707 
65 1 -3.31572 7.52569 3.79344 
78 1 -1.89171 7.54526 1.54527 
80 1 -2.53956 8.79301 1.85573 
84 1 -4.47451 9.82992 3.11424 
99 1 -3.01372 9.65773 0.78761 
100 1 -2.92622 6.25598 3.1989 
107 1 -4.94565 10.6127 1.98155 
110 1 -3.34749 8.87911 3.10609 
111 1 0.570162 5.97323 10.8156 
113 1 1.52609 6.3665 9.85201 
119 1 -4.17176 10.5104 0.779989 
127 1 -2.13832 6.19017 1.99297 
131 1 -2.31213 6.20431 11.0453 
138 1 1.30274 7.94991 0.829583 
142 1 -2.54526 8.79266 8.74995 
145 1 -4.46406 9.82163 7.5022 
151 1 -4.9897 10.4655 11.0367 
154 1 -3.01575 9.65996 9.82562 
155 1 -2.92779 6.25587 7.41903 
12 1 2.56672 7.08259 17.1414 
17 1 0.388069 9.39206 20.9302 
24 1 -3.57923 8.3677 11.8667 
27 1 -0.278244 7.23331 21.629 
29 1 0.581839 5.96118 21.948 
31 1 1.30111 7.17366 17.9186 
44 1 -0.130179 7.18787 20.1398 
46 1 0.130412 8.53019 19.693 
51 1 -0.283321 7.27113 11.1301 
53 1 2.5718 7.07791 15.618 
56 1 1.29517 7.16925 14.8501 
63 1 -2.31258 6.20537 21.7206 
66 1 -3.32514 6.77887 20.8647 
70 1 -0.142177 7.21762 12.6237 
72 1 0.51713 5.94904 12.9057 
92 1 0.903818 8.46731 14.265 
95 1 -4.99316 10.4668 21.7307 
98 1 -4.65742 9.27645 20.869 
104 1 0.393635 9.38095 11.8198 
116 1 -2.59922 8.76483 21.8661 
118 1 -3.59063 8.3707 20.908 
122 1 0.129126 8.53023 13.0649 
133 1 -3.32313 6.77294 11.9005 
136 1 0.289251 8.51852 22.1125 
147 1 0.534671 5.92896 19.8309 
153 1 -4.69126 9.26153 11.8961 
160 1 0.908001 8.46031 18.4959 
1 1 7.8737 4.90716 10.5316 
4 1 9.17456 4.79478 11.0527 
20 1 7.88056 4.94243 9.06786 
42 1 9.46229 5.42936 7.42159 
67 1 9.99199 4.5338 0.761256 
77 1 7.8735 4.91035 0.0840499 
94 1 7.88056 4.9442 1.54545 
96 1 9.20777 4.63471 1.99705 
121 1 4.69107 5.56509 10.6903 
130 1 9.46091 5.42541 3.19467 
134 1 9.99082 4.53281 9.85228 
152 1 9.20837 4.63616 8.61319 
45 1 4.70209 5.42073 22.0292 
55 1 4.82675 5.4609 13.0702 
106 1 9.17534 4.79456 21.7106 
137 1 4.81455 5.47421 19.7068 
2 1 7.2506 10.5361 9.08632 
3 1 8.95776 7.64167 6.06357 
6 1 8.52026 6.3938 6.83167 
16 1 2.40773 8.73006 0.836264 
22 1 7.16804 6.18653 8.71159 
26 1 7.1793 8.42556 7.5553 
35 1 7.22769 10.5822 10.5108 
37 1 6.83771 9.29314 10.9709 
39 1 8.28694 8.9211 6.75765 
41 1 6.72975 7.01814 9.82814 
48 1 3.72306 6.35984 0.836734 
61 1 7.25155 10.5345 1.52361 
62 1 8.95523 7.64202 4.55173 
64 1 6.71614 9.24959 1.98195 
68 1 7.4056 6.96173 3.05988 
71 1 4.2793 8.53703 10.783 
74 1 3.621 7.76522 9.84304 
81 1 8.51921 6.39808 3.78352 
83 1 6.53567 8.45824 0.794285 
93 1 7.22669 10.5797 0.105147 
97 1 8.29728 8.92155 3.85119 
101 1 2.35877 9.91508 10.6384 
103 1 2.39887 8.70042 9.78976 
117 1 7.16515 6.19106 1.88887 
120 1 7.17912 8.4233 3.06053 
123 1 3.8271 6.29767 9.84889 
129 1 6.73637 7.02034 0.784212 
132 1 6.72189 9.25021 8.63005 
135 1 7.40829 6.96489 7.5535 
141 1 7.25105 6.17683 10.9121 
144 1 6.52838 8.46786 9.82182 
148 1 3.61264 7.80538 0.780747 
7 1 9.13173 6.00383 11.9082 
10 1 3.66035 9.81654 21.6067 
13 1 2.36157 9.93149 22.1255 
15 1 3.01285 8.32719 17.9063 
28 1 3.653 9.78087 20.1425 
30 1 4.36986 8.53406 19.7989 
34 1 4.35979 6.29762 18.6332 
40 1 7.77749 8.37777 11.9031 
49 1 4.79897 7.70406 20.9068 
50 1 2.06879 9.29447 18.4938 
58 1 1.54733 10.1838 11.8378 
59 1 4.12821 7.75775 14.1295 
69 1 3.66 9.82582 11.1651 
73 1 3.02249 8.33342 14.8567 
75 1 5.00461 6.26781 11.838 
79 1 7.24493 6.183 21.8625 
82 1 7.92093 6.88792 20.916 
86 1 3.63933 9.77068 12.6137 
88 1 2.33565 10.0822 13.0687 
108 1 9.13403 6.00454 20.8559 
112 1 4.36149 8.54347 12.9654 
115 1 4.35985 6.30966 14.1343 
124 1 4.80143 7.72473 11.8648 
125 1 2.07583 9.29643 14.2594 
126 1 6.82782 9.30904 21.8133 
128 1 7.77829 8.3734 20.841 
139 1 1.54459 10.1927 20.9274 
140 1 4.12636 7.76421 18.6269 
143 1 7.91825 6.92438 11.8516 
146 1 4.29097 8.5452 21.977 
149 1 5.0002 6.25856 20.8987 
157 1 2.32793 10.0897 19.6911 
ITEM: TIMESTEP
20
ITEM: NUMBER OF ATOMS
161
ITEM: BOX BOUNDS xy xz yz pp pp pp
-6.7755000000000001e+00 1.3552000000000000e+01 -6.7755000000000001e+00
0.0000000000000000e+00 1.1735510246683001e+01 0.0000000000000000e+00
0.0000000000000000e+00 2.2149999999999999e+01 0.0000000000000000e+00
ITEM: ATOMS id type x y z 
8 1 -2.42304 5.37657 9.84845 
87 1 2.8251 4.16522 10.5792 
90 1 2.64035 5.54296 9.81385 
109 1 -2.42256 5.37554 0.766801 
158 1 2.66101 5.46843 0.83165 
161 2 2.99088 2.83884 10.5335 
11 1 4.28255 4.2008 20.1315 
14 1 2.90652 4.13113 19.6899 
18 1 1.31716 5.86074 18.5975 
33 1 2.13931 4.21226 20.9064 
43 1 4.3094 4.16133 21.5895 
47 1 3.25739 5.79714 17.835 
52 1 4.27894 4.24335 12.7064 
76 1 2.42369 4.93643 14.2006 
85 1 4.48885 4.07303 11.1448 
89 1 3.2576 5.80096 14.93 
91 1 0.975477 5.05602 11.8668 
102 1 2.92963 4.12825 13.0967 
105 1 1.3124 5.86214 14.1696 
114 1 2.11353 4.24624 11.9243 
150 1 2.43804 4.93067 18.5824 
156 1 2.97384 4.26417 22.1171 
159 1 0.991532 5.05782 20.9114 
5 1 -4.92572 10.5941 8.61555 
9 1 -3.33741 8.86577 7.51722 
19 1 -1.73397 7.49564 10.5417 
21 1 -2.60833 8.7744 10.8656 
23 1 -3.30918 7.55241 6.84029 
25 1 -4.15638 10.5101 9.83037 
32 1 1.58007 6.372 0.761722 
36 1 -1.88219 7.52097 9.06223 
38 1 -2.15881 6.20588 8.63849 
54 1 0.311281 8.51586 10.6632 
57 1 1.30149 7.90319 9.78917 
60 1 -1.73387 7.4978 0.0699509 
65 1 -3.31066 7.55147 3.77374 
78 1 -1.88148 7.52104 1.55055 
80 1 -2.55005 8.79308 1.84418 
84 1 -4.4546 9.80001 3.10437 
99 1 -3.00602 9.66553 0.778103 
100 1 -2.93089 6.2677 3.17916 
107 1 -4.9246 10.5964 1.99653 
110 1 -3.33959 8.86485 3.09656 
111 1 0.56454 5.951 10.816 
113 1 1.52224 6.36624 9.85728 
119 1 -4.15698 10.5078 0.782308 
127 1 -2.15851 6.20599 1.97625 
131 1 -2.32691 6.20904 11.0278 
138 1 1.30211 7.93019 0.816244 
142 1 -2.54779 8.79451 8.76879 
145 1 -4.45478 9.79652 7.50867 
151 1 -4.99129 10.4595 11.041 
154 1 -3.00648 9.6667 9.8349 
155 1 -2.93173 6.267 7.43577 
12 1 2.56621 7.0795 17.1483 
17 1 0.405042 9.34875 20.9221 
24 1 -3.5924 8.35492 11.8475 
27 1 -0.283987 7.23085 21.616 
29 1 0.599096 5.95252 21.9442 
31 1 1.29333 7.16996 17.9172 
44 1 -0.138713 7.20252 20.1414 
46 1 0.142517 8.51878 19.7151 
51 1 -0.296402 7.251 11.1463 
53 1 2.56628 7.08075 15.6141 
56 1 1.2905 7.17419 14.8466 
63 1 -2.32629 6.21141 21.7365 
66 1 -3.31831 6.79184 20.8706 
70 1 -0.151493 7.21563 12.6296 
72 1 0.518534 5.94737 12.9162 
92 1 0.912452 8.45731 14.2533 
95 1 -4.99098 10.4604 21.7232 
98 1 -4.6781 9.25755 20.8575 
104 1 0.404102 9.35348 11.8364 
116 1 -2.61058 8.76843 21.8951 
118 1 -3.59643 8.3567 20.9215 
122 1 0.140367 8.5246 13.0545 
133 1 -3.31788 6.7901 11.8924 
136 1 0.30838 8.5131 22.1013 
147 1 0.527799 5.92842 19.8452 
153 1 -4.67788 9.25872 11.9091 
160 1 0.914085 8.45552 18.5113 
1 1 7.84751 4.90299 10.527 
4 1 9.16556 4.80823 11.0404 
20 1 7.87412 4.9403 9.06404 
42 1 9.46324 5.44193 7.43727 
67 1 9.98319 4.5626 0.760398 
77 1 7.8461 4.89459 0.0858676 
94 1 7.87343 4.94417 1.55081 
96 1 9.20024 4.65553 1.99719 
121 1 4.69006 5.58623 10.6884 
130 1 9.46437 5.44339 3.18009 
134 1 9.98286 4.56186 9.84878 
152 1 9.20045 4.65912 8.61831 
45 1 4.67519 5.4571 22.0538 
55 1 4.82834 5.47833 13.0754 
106 1 9.16789 4.80616 21.7258 
137 1 4.81744 5.4966 19.7001 
2 1 7.25248 10.5225 9.06009 
3 1 8.96632 7.64314 6.07427 
6 1 8.51708 6.38558 6.82309 
16 1 2.41978 8.72425 0.833128 
22 1 7.14416 6.19387 8.7181 
26 1 7.19321 8.42636 7.54794 
35 1 7.22741 10.5594 10.5124 
37 1 6.85654 9.26445 10.9808 
39 1 8.27642 8.92631 6.76118 
41 1 6.73105 7.01026 9.83236 
48 1 3.70224 6.35736 0.821481 
61 1 7.25148 10.5205 1.55554 
62 1 8.96905 7.64271 4.54124 
64 1 6.71507 9.22742 1.9904 
68 1 7.39572 6.96663 3.05908 
71 1 4.2947 8.52359 10.772 
74 1 3.60986 7.78568 9.83323 
81 1 8.51587 6.38543 3.7906 
83 1 6.53677 8.44875 0.789334 
93 1 7.22438 10.5624 0.102156 
97 1 8.27987 8.92664 3.85024 
101 1 2.37103 9.90228 10.6444 
103 1 2.43871 8.68945 9.79312 
117 1 7.14524 6.1917 1.89475 
120 1 7.19342 8.42471 3.06568 
123 1 3.80848 6.30824 9.84125 
129 1 6.73004 7.01098 0.779624 
132 1 6.71735 9.22715 8.62731 
135 1 7.39849 6.96713 7.55432 
141 1 7.23152 6.19233 10.9065 
144 1 6.53273 8.44591 9.82464 
148 1 3.60007 7.81018 0.795892 
7 1 9.11257 6.00298 11.9041 
10 1 3.68606 9.81583 21.5994 
13 1 2.37104 9.9191 22.1162 
15 1 3.01706 8.33654 17.8977 
28 1 3.6601 9.78405 20.1403 
30 1 4.39127 8.52864 19.7961 
34 1 4.34103 6.29744 18.6218 
40 1 7.81605 8.37184 11.9007 
49 1 4.80243 7.71514 20.911 
50 1 2.07007 9.28135 18.5127 
58 1 1.55545 10.1603 11.8368 
59 1 4.13843 7.75415 14.1363 
69 1 3.68866 9.83165 11.158 
73 1 3.0188 8.33727 14.8684 
75 1 5.00539 6.28545 11.8398 
79 1 7.2257 6.19656 21.857 
82 1 7.93319 6.91174 20.8941 
86 1 3.65392 9.78476 12.6179 
88 1 2.3339 10.0663 13.0707 
108 1 9.11385 6.00115 20.8563 
112 1 4.39215 8.5362 12.972 
115 1 4.34491 6.30675 14.1437 
124 1 4.80961 7.73054 11.855 
125 1 2.07367 9.28006 14.2504 
126 1 6.86069 9.2649 21.7834 
128 1 7.82448 8.36873 20.8641 
139 1 1.55059 10.1619 20.9225 
140 1 4.13594 7.7578 18.6289 
143 1 7.93081 6.91011 11.8676 
146 1 4.30567 8.53364 21.98 
149 1 4.99911 6.27664 20.9018 
157 1 2.33445 10.0641 19.6931 
ITEM: TIMESTEP
30
ITEM: NUMBER OF ATOMS
161
ITEM: BOX BOUNDS xy xz yz pp pp pp
-6.7755000000000001e+00 1.3552000000000000e+01 -6.7755000000000001e+00
0.0000000000000000e+00 1.1735510246683001e+01 0.0000000000000000e+00
0.0000000000000000e+00 2.2149999999999999e+01 0.0000000000000000e+00
ITEM: ATOMS id type x y z 
8 1 -2.43434 5.40387 9.84979 
87 1 2.81334 4.1481 10.5603 
90 1 2.62909 5.55911 9.82462 
109 1 -2.43377 5.40384 0.764641 
158 1 2.64017 5.46325 0.824725 
161 2 2.97635 2.83797 10.4822 
11 1 4.27894 4.2229 20.1198 
14 1 2.8977 4.14676 19.6941 
18 1 1.30724 5.859 18.6005 
33 1 2.12081 4.21244 20.9077 
43 1 4.29582 4.20497 21.5703 
47 1 3.24971 5.80417 17.8266 
52 1 4.27031 4.27165 12.7248 
76 1 2.4183 4.94566 14.2031 
85 1 4.47512 4.11941 11.1635 
89 1 3.24797 5.80786 14.9413 
91 1 0.966584 5.04635 11.8674 
102 1 2.91518 4.13657 13.0933 
105 1 1.30281 5.86512 14.167 
114 1 2.11019 4.25543 11.9244 
150 1 2.43155 4.93938 18.5878 
156 1 2.96365 4.2775 22.1243 
159 1 0.975512 5.04736 20.918 
5 1 -4.91734 10.5774 8.61935 
9 1 -3.32384 8.86596 7.52232 
19 1 -1.72607 7.51653 10.5355 
21 1 -2.61478 8.77552 10.8722 
23 1 -3.3025 7.5557 6.83984 
25 1 -4.13749 10.5111 9.83232 
32 1 1.58793 6.38987 0.754719 
36 1 -1.85525 7.53248 9.05836 
38 1 -2.15962 6.21799 8.63773 
54 1 0.320462 8.49194 10.6611 
57 1 1.29977 7.88501 9.78646 
60 1 -1.72155 7.51344 0.0782795 
65 1 -3.30239 7.55609 3.7734 
78 1 -1.85326 7.53195 1.55221 
80 1 -2.53952 8.7943 1.83991 
84 1 -4.44963 9.78451 3.10165 
99 1 -2.99157 9.67637 0.769863 
100 1 -2.93835 6.28131 3.1736 
107 1 -4.91771 10.5778 1.9952 
110 1 -3.32305 8.86556 3.09007 
111 1 0.547504 5.93579 10.8205 
113 1 1.51155 6.37375 9.868 
119 1 -4.1371 10.51 0.781348 
127 1 -2.15965 6.2172 1.97687 
131 1 -2.33483 6.23252 11.0253 
138 1 1.30711 7.91209 0.821556 
142 1 -2.53688 8.79484 8.77383 
145 1 -4.45038 9.78329 7.51144 
151 1 -4.98246 10.4463 11.0474 
154 1 -2.99128 9.67778 9.84365 
155 1 -2.93869 6.28108 7.44109 
12 1 2.56713 7.07903 17.1538 
17 1 0.416691 9.3212 20.9238 
24 1 -3.60778 8.33892 11.8311 
27 1 -0.294287 7.20988 21.6118 
29 1 0.594968 5.9499 21.9478 
31 1 1.28369 7.16879 17.9164 
44 1 -0.164886 7.19069 20.1358 
46 1 0.141802 8.50542 19.7139 
51 1 -0.307769 7.22923 11.155 
53 1 2.56447 7.0868 15.6158 
56 1 1.28207 7.17485 14.8513 
63 1 -2.33304 6.23435 21.7394 
66 1 -3.32594 6.81318 20.8666 
70 1 -0.179261 7.20477 12.6347 
72 1 0.506369 5.94721 12.9182 
92 1 0.918865 8.44785 14.2476 
95 1 -4.98292 10.4471 21.7153 
98 1 -4.6595 9.2609 20.8619 
104 1 0.415489 9.32514 11.8352 
116 1 -2.61295 8.77522 21.8902 
118 1 -3.60539 8.33619 20.9331 
122 1 0.138473 8.51551 13.0522 
133 1 -3.32417 6.81186 11.8955 
136 1 0.315071 8.49034 22.0985 
147 1 0.516985 5.92847 19.8493 
153 1 -4.66029 9.26292 11.9065 
160 1 0.920278 8.44194 18.5167 
1 1 7.80278 4.91127 10.5225 
4 1 9.13268 4.82397 11.03 
20 1 7.84089 4.94122 9.06516 
42 1 9.45357 5.45468 7.44298 
67 1 9.96661 4.58635 0.767425 
77 1 7.79805 4.90474 0.0896682 
94 1 7.84311 4.94364 1.54566 
96 1 9.18328 4.68252 1.99386 
121 1 4.68533 5.62247 10.6862 
130 1 9.45339 5.45515 3.17162 
134 1 9.96592 4.58679 9.84609 
152 1 9.18332 4.68289 8.6227 
45 1 4.65124 5.50471 22.0779 
55 1 4.83436 5.50476 13.0807 
106 1 9.13062 4.82884 21.7336 
137 1 4.81483 5.51692 19.6992 
2 1 7.25629 10.5 9.045 
3 1 8.96668 7.64494 6.07762 
6 1 8.51231 6.39175 6.81118 
16 1 2.44044 8.72568 0.830701 
22 1 7.11886 6.18812 8.70788 
26 1 7.20124 8.41899 7.54001 
35 1 7.23852 10.515 10.4935 
37 1 6.88444 9.21983 11.0017 
39 1 8.28303 8.92077 6.75267 
41 1 6.71686 6.99509 9.8385 
48 1 3.68277 6.35525 0.811277 
61 1 7.25668 10.4998 1.56883 
62 1 8.96692 7.64431 4.53626 
64 1 6.71875 9.20977 1.98989 
68 1 7.38573 6.95772 3.0617 
71 1 4.30998 8.53453 10.7662 
74 1 3.61785 7.80334 9.80942 
81 1 8.51203 6.3923 3.80264 
83 1 6.53669 8.42512 0.787898 
93 1 7.23958 10.5164 0.119621 
97 1 8.28282 8.92052 3.85983 
101 1 2.40467 9.87826 10.6538 
103 1 2.45743 8.68152 9.79747 
117 1 7.11932 6.18872 1.9048 
120 1 7.2016 8.41918 3.07461 
123 1 3.78922 6.31667 9.83229 
129 1 6.71532 6.9946 0.775895 
132 1 6.71962 9.20994 8.62517 
135 1 7.38691 6.95955 7.55149 
141 1 7.22103 6.18456 10.9141 
144 1 6.53326 8.42589 9.82801 
148 1 3.60237 7.83138 0.814139 
7 1 9.0935 6.00126 11.9042 
10 1 3.73069 9.80773 21.5963 
13 1 2.4006 9.90073 22.1069 
15 1 3.02117 8.33236 17.8868 
28 1 3.69499 9.78103 20.1384 
30 1 4.41509 8.53524 19.7844 
34 1 4.3336 6.30457 18.6151 
40 1 7.85556 8.36835 11.8919 
49 1 4.81933 7.72834 20.9134 
50 1 2.08159 9.26844 18.5176 
58 1 1.57475 10.1348 11.836 
59 1 4.14967 7.76103 14.1405 
69 1 3.73283 9.82586 11.1589 
73 1 3.02291 8.33372 14.8793 
75 1 5.00667 6.3033 11.8396 
79 1 7.22065 6.18618 21.8473 
82 1 7.9318 6.89566 20.8764 
86 1 3.68815 9.78552 12.6161 
88 1 2.35114 10.043 13.0648 
108 1 9.0955 5.99892 20.8591 
112 1 4.42108 8.54202 12.9837 
115 1 4.33384 6.31534 14.1552 
124 1 4.82545 7.74416 11.8507 
125 1 2.08344 9.26894 14.2447 
126 1 6.88475 9.21859 21.7611 
128 1 7.85205 8.36866 20.8749 
139 1 1.5699 10.1375 20.9211 
140 1 4.14855 7.76491 18.6286 
143 1 7.93096 6.89658 11.8887 
146 1 4.31345 8.53764 21.9932 
149 1 4.99822 6.29993 20.9011 
157 1 2.35133 10.0406 19.6986 
ITEM: TIMESTEP
40
ITEM: NUMBER OF ATOMS
161
ITEM: BOX BOUNDS xy xz yz pp pp pp
-6.7755000000000001e+00 1.3552000000000000e+01 -6.7755000000000001e+00
0.0000000000000000e+00 1.1735510246683001e+01 0.0000000000000000e+00
0.0000000000000000e+00 2.2149999999999999e+01 0.0000000000000000e+00
ITEM: ATOMS id type x y z 
8 1 -2.50276 5.50347 9.85278 
87 1 2.75493 4.11978 10.5118 
90 1 2.58803 5.57181 9.86994 
109 1 -2.50081 5.50436 0.758164 
158 1 2.57356 5.4865 0.846386 
161 2 2.84855 2.83663 10.2503 
11 1 4.25673 4.31635 20.0937 
14 1 2.85504 4.18583 19.7216 
18 1 1.27725 5.87103 18.6058 
33 1 2.06667 4.20953 20.9168 
43 1 4.23454 4.36116 21.5152 
47 1 3.21958 5.78509 17.8255 
52 1 4.22542 4.38713 12.7817 
76 1 2.36982 4.96115 14.2128 
85 1 4.44679 4.29845 11.2294 
89 1 3.21564 5.80652 14.9566 
91 1 0.924968 5.01516 11.8853 
102 1 2.87177 4.18679 13.0876 
105 1 1.27138 5.88982 14.1763 
114 1 2.10713 4.26829 11.884 
150 1 2.38135 4.94861 18.5893 
156 1 2.94726 4.33516 22.1296 
159 1 0.895853 5.00561 20.9269 
5 1 -4.86819 10.5349 8.64269 
9 1 -3.29234 8.85616 7.53272 
19 1 -1.72036 7.59481 10.5021 
21 1 -2.55402 8.82298 10.8669 
23 1 -3.3012 7.54048 6.83682 
25 1 -4.08507 10.5171 9.83819 
32 1 1.54127 6.4068 0.758724 
36 1 -1.7541 7.58348 9.03579 
38 1 -2.12734 6.27965 8.64493 
54 1 0.346903 8.39509 10.6617 
57 1 1.33616 7.84522 9.77688 
60 1 -1.71315 7.58867 0.112616 
65 1 -3.29859 7.54566 3.77727 
78 1 -1.75195 7.5798 1.57383 
80 1 -2.47562 8.82952 1.84301 
84 1 -4.40419 9.77318 3.09921 
99 1 -2.91898 9.71318 0.759677 
100 1 -2.936 6.29454 3.15174 
107 1 -4.86419 10.5331 1.97341 
110 1 -3.29504 8.85698 3.08458 
111 1 0.463196 5.86922 10.8341 
113 1 1.46628 6.36279 9.89335 
119 1 -4.07719 10.5126 0.770815 
127 1 -2.12456 6.2818 1.96463 
131 1 -2.37232 6.3245 11.0229 
138 1 1.35224 7.91783 0.847105 
142 1 -2.47885 8.8264 8.76482 
145 1 -4.40705 9.77557 7.51383 
151 1 -4.95705 10.3956 11.0596 
154 1 -2.91506 9.71706 9.85654 
155 1 -2.93829 6.29525 7.46283 
12 1 2.56641 7.04005 17.1527 
17 1 0.484902 9.2206 20.9267 
24 1 -3.57057 8.31295 11.8361 
27 1 -0.309812 7.13766 21.5788 
29 1 0.530902 5.9087 21.9485 
31 1 1.28453 7.17829 17.916 
44 1 -0.266451 7.14196 20.1103 
46 1 0.108439 8.44378 19.7208 
51 1 -0.321042 7.14788 11.1917 
53 1 2.56159 7.0626 15.625 
56 1 1.2775 7.19505 14.8607 
63 1 -2.37214 6.32314 21.7415 
66 1 -3.37182 6.80684 20.8432 
70 1 -0.27715 7.15461 12.6656 
72 1 0.444768 5.91775 12.9287 
92 1 0.916565 8.4472 14.2215 
95 1 -4.95463 10.3948 21.7082 
98 1 -4.5921 9.24391 20.8446 
104 1 0.484217 9.2214 11.8236 
116 1 -2.54859 8.818 21.891 
118 1 -3.56486 8.31051 20.9288 
122 1 0.102943 8.45818 13.0421 
133 1 -3.3682 6.80922 11.923 
136 1 0.354403 8.40203 22.1009 
147 1 0.46087 5.8979 19.8447 
153 1 -4.5896 9.24356 11.9184 
160 1 0.918673 8.43687 18.5417 
1 1 7.6543 4.87738 10.5074 
4 1 9.01487 4.87456 10.9996 
20 1 7.70895 4.94547 9.04349 
42 1 9.42171 5.49325 7.45637 
67 1 9.887 4.69967 0.763853 
77 1 7.64474 4.86406 0.105727 
94 1 7.71066 4.94872 1.57828 
96 1 9.05945 4.75976 1.97036 
121 1 4.67027 5.76067 10.6668 
130 1 9.42021 5.49034 3.15693 
134 1 9.8868 4.69707 9.85338 
152 1 9.06503 4.75844 8.64289 
45 1 4.58629 5.60476 22.1074 
55 1 4.84045 5.60125 13.1117 
106 1 9.02063 4.87271 21.7548 
137 1 4.82372 5.60665 19.698 
2 1 7.27507 10.4044 9.01561 
3 1 8.96563 7.68628 6.07287 
6 1 8.49757 6.40413 6.80404 
16 1 2.47857 8.7235 0.855163 
22 1 6.99192 6.14553 8.6519 
26 1 7.20706 8.36858 7.49605 
35 1 7.3009 10.3582 10.4453 
37 1 6.9494 9.12119 11.041 
39 1 8.31683 8.93229 6.75199 
41 1 6.64075 6.91391 9.83441 
48 1 3.6187 6.39806 0.85845 
61 1 7.27299 10.4134 1.60343 
62 1 8.96437 7.68675 4.54118 
64 1 6.71182 9.11425 1.99557 
68 1 7.34978 6.92518 3.09748 
71 1 4.41014 8.5546 10.7177 
74 1 3.68002 7.84919 9.72981 
81 1 8.49763 6.40349 3.81153 
83 1 6.52852 8.3434 0.788903 
93 1 7.30164 10.3596 0.162459 
97 1 8.31549 8.93321 3.86491 
101 1 2.53085 9.81341 10.6824 
103 1 2.4854 8.65135 9.77647 
117 1 6.9952 6.14068 1.95698 
120 1 7.20595 8.37024 3.11992 
123 1 3.73943 6.37838 9.78554 
129 1 6.63688 6.91226 0.77632 
132 1 6.71401 9.11965 8.61796 
135 1 7.35133 6.92654 7.51526 
141 1 7.13296 6.19021 10.9785 
144 1 6.52987 8.34511 9.82066 
148 1 3.64847 7.87467 0.879849 
7 1 9.05658 6.0015 11.9296 
10 1 3.8766 9.84228 21.5864 
13 1 2.51656 9.84952 22.074 
15 1 3.03321 8.3207 17.8828 
28 1 3.82875 9.77782 20.1145 
30 1 4.54251 8.57778 19.7314 
34 1 4.32819 6.35803 18.5704 
40 1 7.91388 8.33422 11.9248 
49 1 4.90136 7.80543 20.9123 
50 1 2.10708 9.23374 18.5348 
58 1 1.65279 10.0177 11.8258 
59 1 4.18713 7.80895 14.1758 
69 1 3.87952 9.84294 11.1788 
73 1 3.03406 8.3329 14.8847 
75 1 5.0274 6.37446 11.8554 
79 1 7.12361 6.19217 21.7892 
82 1 7.89238 6.85024 20.8061 
86 1 3.83226 9.78095 12.6291 
88 1 2.47491 9.96504 13.0342 
108 1 9.06202 6.01108 20.8347 
112 1 4.54161 8.58826 13.0287 
115 1 4.32044 6.36777 14.2092 
124 1 4.90712 7.81101 11.8584 
125 1 2.11392 9.24138 14.2251 
126 1 6.94715 9.11328 21.7247 
128 1 7.91445 8.33065 20.8401 
139 1 1.64896 10.0263 20.9295 
140 1 4.18758 7.79922 18.5942 
143 1 7.8862 6.84521 11.9569 
146 1 4.4013 8.53683 22.0469 
149 1 5.00271 6.37345 20.8979 
157 1 2.46775 9.96612 19.7182 
ITEM: TIMESTEP
50
ITEM: NUMBER OF ATOMS
161
ITEM: BOX BOUNDS xy xz yz pp pp pp
-6.7755000000000001e+00 1.3552000000000000e+01 -6.7755000000000001e+00
0.0000000000000000e+00 1.1735510246683001e+01 0.0000000000000000e+00
0.0000000000000000e+00 2.2149999999999999e+01 0.0000000000000000e+00
ITEM: ATOMS id type x y z 
8 1 -2.50808 5.50936 9.84682 
87 1 2.74864 4.12352 10.5065 
90 1 2.59905 5.57499 9.8667 
109 1 -2.50686 5.50925 0.766008 
158 1 2.57766 5.48674 0.85377 
161 2 2.83584 2.8462 10.2294 
11 1 4.251 4.33034 20.0845 
14 1 2.85438 4.18446 19.7201 
18 1 1.27527 5.87316 18.6059 
33 1 2.06624 4.21215 20.9244 
43 1 4.2374 4.35812 21.5187 
47 1 3.21916 5.79145 17.833 
52 1 4.22491 4.39647 12.7783 
76 1 2.36636 4.96019 14.2157 
85 1 4.44549 4.30673 11.2256 
89 1 3.21188 5.80902 14.9536 
91 1 0.922755 5.01168 11.8837 
102 1 2.86606 4.18952 13.0824 
105 1 1.26765 5.89035 14.1758 
114 1 2.09877 4.27 11.8899 
150 1 2.3798 4.94397 18.5882 
156 1 2.92991 4.33787 22.1286 
159 1 0.889106 5.00023 20.9219 
5 1 -4.87178 10.5394 8.64376 
9 1 -3.29329 8.85134 7.53053 
19 1 -1.71434 7.59217 10.5013 
21 1 -2.54663 8.82397 10.8682 
23 1 -3.2993 7.54793 6.83611 
25 1 -4.08535 10.5161 9.84774 
32 1 1.52775 6.40532 0.765288 
36 1 -1.75127 7.5915 9.02934 
38 1 -2.12689 6.28094 8.64507 
54 1 0.354019 8.39259 10.659 
57 1 1.33752 7.8412 9.77942 
60 1 -1.70778 7.58888 0.110678 
65 1 -3.29947 7.5486 3.77673 
78 1 -1.74876 7.59148 1.58448 
80 1 -2.46818 8.8281 1.83862 
84 1 -4.39662 9.77697 3.10276 
99 1 -2.90856 9.72477 0.767973 
100 1 -2.93536 6.29136 3.14834 
107 1 -4.87031 10.5382 1.96823 
110 1 -3.29371 8.85089 3.08295 
111 1 0.459896 5.86555 10.8369 
113 1 1.46077 6.35156 9.89232 
119 1 -4.08466 10.5146 0.765817 
127 1 -2.12743 6.28109 1.96691 
131 1 -2.37746 6.32141 11.024 
138 1 1.34774 7.90801 0.848559 
142 1 -2.47021 8.82988 8.773 
145 1 -4.39778 9.77868 7.51148 
151 1 -4.94758 10.3891 11.0563 
154 1 -2.90942 9.72919 9.8445 
155 1 -2.93655 6.29135 7.46433 
12 1 2.56765 7.04531 17.1552 
17 1 0.489852 9.21438 20.9226 
24 1 -3.54677 8.31758 11.8413 
27 1 -0.310695 7.13647 21.5776 
29 1 0.523466 5.90493 21.9458 
31 1 1.28045 7.17727 17.9154 
44 1 -0.269103 7.13265 20.1066 
46 1 0.107123 8.44299 19.7213 
51 1 -0.321554 7.14108 11.1946 
53 1 2.56157 7.06771 15.6254 
56 1 1.27584 7.19859 14.8617 
63 1 -2.37591 6.31939 21.7397 
66 1 -3.36234 6.81737 20.8394 
70 1 -0.281115 7.14766 12.6652 
72 1 0.43852 5.91219 12.9345 
92 1 0.915074 8.44889 14.2211 
95 1 -4.94784 10.3876 21.7096 
98 1 -4.59408 9.23891 20.8347 
104 1 0.489359 9.21456 11.8307 
116 1 -2.5408 8.8183 21.8942 
118 1 -3.54542 8.31857 20.9233 
122 1 0.103896 8.45801 13.0409 
133 1 -3.36546 6.81747 11.9255 
136 1 0.358674 8.40381 22.1008 
147 1 0.451632 5.89444 19.8493 
153 1 -4.59466 9.2395 11.9279 
160 1 0.916581 8.43563 18.5405 
1 1 7.64451 4.8798 10.5129 
4 1 9.00441 4.87111 11.0001 
20 1 7.69609 4.94458 9.04606 
42 1 9.41742 5.49642 7.46109 
67 1 9.87227 4.70928 0.76815 
77 1 7.64293 4.87798 0.100116 
94 1 7.69526 4.94385 1.5674 
96 1 9.06142 4.76335 1.97687 
121 1 4.66256 5.76083 10.669 
130 1 9.41782 5.49649 3.15181 
134 1 9.87421 4.70608 9.84624 
152 1 9.06216 4.76219 8.63756 
45 1 4.58638 5.62099 22.1023 
55 1 4.83903 5.60982 13.1172 
106 1 9.00233 4.86863 21.762 
137 1 4.81876 5.61399 19.6875 
2 1 7.28348 10.3928 9.0099 
3 1 8.96702 7.6787 6.0732 
6 1 8.49838 6.40745 6.79767 
16 1 2.48861 8.72956 0.864697 
22 1 6.98174 6.14099 8.64763 
26 1 7.20821 8.36962 7.49689 
35 1 7.29916 10.3671 10.4439 
37 1 6.94976 9.10696 11.0316 
39 1 8.31562 8.92883 6.75614 
41 1 6.63144 6.91771 9.83071 
48 1 3.62465 6.40537 0.866029 
61 1 7.28306 10.3932 1.60401 
62 1 8.9662 7.67961 4.54054 
64 1 6.71742 9.10846 2.00035 
68 1 7.34215 6.92396 3.09679 
71 1 4.41849 8.55386 10.7154 
74 1 3.68563 7.8511 9.73301 
81 1 8.49809 6.40849 3.81535 
83 1 6.53358 8.33925 0.78786 
93 1 7.29773 10.3659 0.170849 
97 1 8.31591 8.92858 3.85856 
101 1 2.53397 9.80911 10.6784 
103 1 2.49333 8.6548 9.77134 
117 1 6.98213 6.14346 1.96357 
120 1 7.2077 8.36874 3.11674 
123 1 3.7388 6.37628 9.78596 
129 1 6.62809 6.91449 0.781104 
132 1 6.71557 9.11021 8.61174 
135 1 7.34162 6.92346 7.51441 
141 1 7.12536 6.1744 10.9765 
144 1 6.53496 8.34228 9.82472 
148 1 3.65436 7.87095 0.881369 
7 1 9.04582 5.99448 11.9389 
10 1 3.8879 9.84453 21.5873 
13 1 2.52753 9.85286 22.0757 
15 1 3.03596 8.31769 17.8786 
28 1 3.8386 9.77897 20.1215 
30 1 4.55523 8.58068 19.7272 
34 1 4.32554 6.35479 18.5726 
40 1 7.9046 8.32146 11.9375 
49 1 4.90964 7.80448 20.9082 
50 1 2.11379 9.23027 18.5377 
58 1 1.66555 10.0069 11.8281 
59 1 4.19308 7.81329 14.1786 
69 1 3.89134 9.84823 11.1662 
73 1 3.03557 8.33059 14.89 
75 1 5.02854 6.37987 11.8575 
79 1 7.12379 6.1716 21.7905 
82 1 7.87913 6.85307 20.8093 
86 1 3.84233 9.78728 12.633 