ITEM: TIMESTEP
0
ITEM: NUMBER OF ATOMS
49
ITEM: BOX BOUNDS pp pp pp
0.0000000000000000e+00 1.1000000000000000e+01
0.0000000000000000e+00 1.1002000000000001e+01
0.0000000000000000e+00 1.1000000000000000e+01
ITEM: ATOMS id type x y z 
10 1 4.603 4.603 4.603 
11 1 3.085 3.085 3.085 
12 1 3.796 3.796 3.796 
46 1 0.726 0.725 0.725 
47 1 2.26 2.259 2.26 
48 1 1.551 1.55 1.55 
19 1 4.546 4.545 6.226 
20 1 3.013 3.013 7.764 
21 1 3.721 3.721 7.053 
31 1 0.668 0.667 10.103 
32 1 2.187 2.187 8.589 
33 1 1.476 1.475 9.298 
16 1 4.546 6.225 4.546 
17 1 3.013 7.765 3.013 
18 1 3.721 7.053 3.722 
25 1 0.668 10.103 0.668 
26 1 2.188 8.589 2.188 
27 1 1.476 9.298 1.476 
49 2 0.455 10.491 1.954 
4 1 4.608 6.169 6.169 
5 1 3.086 7.684 7.684 
6 1 3.799 6.974 6.974 
37 1 0.729 10.046 10.046 
38 1 2.259 8.509 8.508 
39 1 1.552 9.219 9.219 
13 1 6.225 4.546 4.546 
14 1 7.764 3.013 3.013 
15 1 7.053 3.721 3.722 
28 1 10.102 0.667 0.668 
29 1 8.589 2.187 2.188 
30 1 9.298 1.475 1.476 
1 1 6.168 4.608 6.169 
2 1 7.684 3.086 7.684 
3 1 6.974 3.799 6.974 
40 1 10.045 0.728 10.046 
41 1 8.508 2.259 8.508 
42 1 9.218 1.551 9.218 
7 1 6.169 6.169 4.608 
8 1 7.684 7.684 3.086 
9 1 6.974 6.974 3.799 
43 1 10.046 10.047 0.729 
44 1 8.508 8.509 2.259 
45 1 9.219 9.219 1.552 
22 1 6.229 6.229 6.229 
23 1 7.764 7.765 7.765 
24 1 7.055 7.056 7.055 
34 1 10.108 10.108 10.107 
35 1 8.59 8.59 8.59 
36 1 9.301 9.301 9.3 
ITEM: TIMESTEP
10
ITEM: NUMBER OF ATOMS
49
ITEM: BOX BOUNDS pp pp pp
0.0000000000000000e+00 1.1000000000000000e+01
0.0000000000000000e+00 1.1002000000000001e+01
0.0000000000000000e+00 1.1000000000000000e+01
ITEM: ATOMS id type x y z 
10 1 4.60375 4.60011 4.60512 
11 1 3.08878 3.08832 3.08927 
12 1 3.80214 3.80029 3.80007 
46 1 0.738778 0.775599 0.749232 
47 1 2.27256 2.26885 2.26678 
48 1 1.55596 1.57537 1.55075 
19 1 4.54616 4.5449 6.22624 
20 1 3.01187 3.0123 7.76433 
21 1 3.72358 3.72219 7.05229 
31 1 0.66444 0.660315 10.0884 
32 1 2.19229 2.1885 8.58652 
33 1 1.47105 1.48103 9.29288 
16 1 4.5365 6.23556 4.53587 
17 1 3.02101 7.7596 3.01736 
18 1 3.72873 7.04476 3.73047 
25 1 0.662774 10.0908 0.618124 
26 1 2.22225 8.54753 2.20013 
27 1 1.4914 9.27885 1.5277 
49 2 0.508351 10.5106 2.04901 
4 1 4.60811 6.16687 6.17157 
5 1 3.08855 7.68013 7.68 
6 1 3.80511 6.97018 6.97052 
37 1 0.725771 10.0487 10.0087 
38 1 2.26655 8.50203 8.50539 
39 1 1.5541 9.21612 9.20748 
13 1 6.22606 4.54573 4.54558 
14 1 7.7636 3.01343 3.01332 
15 1 7.05233 3.72139 3.72369 
28 1 10.0813 0.665954 0.658748 
29 1 8.58704 2.18994 2.19367 
30 1 9.28971 1.47966 1.4721 
1 1 6.16605 4.6102 6.1663 
2 1 7.68456 3.08663 7.6834 
3 1 6.97202 3.79816 6.97444 
40 1 10.0449 0.733037 10.0404 
41 1 8.50596 2.26276 8.50523 
42 1 9.21505 1.55187 9.21625 
7 1 6.17246 6.16816 4.60807 
8 1 7.68265 7.68265 3.08719 
9 1 6.97163 6.97089 3.80244 
43 1 9.95926 10.0347 0.672891 
44 1 8.5118 8.50826 2.2631 
45 1 9.19628 9.20931 1.55014 
22 1 6.22939 6.2292 6.22898 
23 1 7.76285 7.76422 7.76355 
24 1 7.05477 7.05437 7.05519 
34 1 10.1059 10.1054 10.1105 
35 1 8.58825 8.58534 8.58601 
36 1 9.2926 9.30129 9.29467 
ITEM: TIMESTEP
20
ITEM: NUMBER OF ATOMS
49
ITEM: BOX BOUNDS pp pp pp
0.0000000000000000e+00 1.1000000000000000e+01
0.0000000000000000e+00 1.1002000000000001e+01
0.0000000000000000e+00 1.1000000000000000e+01
ITEM: ATOMS id type x y z 
10 1 4.60783 4.5958 4.60992 
11 1 3.09635 3.09454 3.09564 
12 1 3.81106 3.80484 3.80769 
46 1 0.723185 0.803652 0.751964 
47 1 2.28253 2.27974 2.26869 
48 1 1.55652 1.59819 1.55393 
19 1 4.54353 4.54312 6.23035 
20 1 3.01073 3.01121 7.76589 
21 1 3.72139 3.71885 7.05601 
31 1 0.658878 0.648418 10.0759 
32 1 2.18691 2.19146 8.59028 
33 1 1.47171 1.4692 9.28576 
16 1 4.5406 6.23454 4.54192 
17 1 3.02564 7.7537 3.01394 
18 1 3.73621 7.03804 3.73376 
25 1 0.637718 10.1036 0.618668 
26 1 2.2434 8.51642 2.1979 
27 1 1.4856 9.29167 1.6078 
49 2 0.586342 10.4762 2.05283 
4 1 4.60848 6.16339 6.17661 
5 1 3.08796 7.68 7.68117 
6 1 3.80577 6.97012 6.97372 
37 1 0.726858 10.0652 9.98276 
38 1 2.26901 8.49752 8.50369 
39 1 1.55528 9.22029 9.1989 
13 1 6.23018 4.54414 4.54271 
14 1 7.76559 3.01209 3.01254 
15 1 7.055 3.7198 3.72243 
28 1 10.0674 0.665953 0.645992 
29 1 8.58848 2.18981 2.193 
30 1 9.28107 1.4763 1.46547 
1 1 6.16825 4.60584 6.16775 
2 1 7.68395 3.08775 7.6823 
3 1 6.96963 3.79882 6.97346 
40 1 10.0476 0.755606 10.039 
41 1 8.5004 2.26399 8.50101 
42 1 9.21626 1.56124 9.21354 
7 1 6.17626 6.16443 4.60889 
8 1 7.68211 7.68213 3.09016 
9 1 6.97488 6.968 3.80491 
43 1 9.91359 10.0492 0.647979 
44 1 8.50474 8.49796 2.27471 
45 1 9.18019 9.21032 1.53356 
22 1 6.23078 6.23181 6.23016 
23 1 7.76207 7.7639 7.76258 
24 1 7.05392 7.05187 7.05402 
34 1 10.0992 10.0928 10.0964 
35 1 8.58205 8.58521 8.57911 
36 1 9.29394 9.2932 9.29266 
ITEM: TIMESTEP
30
ITEM: NUMBER OF ATOMS
49
ITEM: BOX BOUNDS pp pp pp
0.0000000000000000e+00 1.1000000000000000e+01
0.0000000000000000e+00 1.1002000000000001e+01
0.0000000000000000e+00 1.1000000000000000e+01
ITEM: ATOMS id type x y z 
10 1 4.62458 4.5946 4.61935 
11 1 3.1043 3.09704 3.08721 
12 1 3.80586 3.79389 3.82244 
46 1 0.700667 0.815855 0.721714 
47 1 2.27747 2.29232 2.26204 
48 1 1.55566 1.61536 1.54474 
19 1 4.54505 4.53849 6.23883 
20 1 3.00992 3.00692 7.77173 
21 1 3.71275 3.72054 7.06009 
31 1 0.660308 0.650517 10.0735 
32 1 2.18277 2.18807 8.59069 
33 1 1.46838 1.46183 9.28051 
16 1 4.54781 6.22649 4.55661 
17 1 3.03213 7.73248 3.00066 
18 1 3.75367 7.03738 3.73556 
25 1 0.60161 10.1589 0.623751 
26 1 2.25298 8.49445 2.19669 
27 1 1.47979 9.29969 1.65841 
49 2 0.637656 10.4226 2.08261 
4 1 4.61347 6.16292 6.1889 
5 1 3.09568 7.68216 7.68136 
6 1 3.79913 6.95547 6.97764 
37 1 0.722205 10.0703 10.0097 
38 1 2.26877 8.49758 8.50282 
39 1 1.55286 9.23004 9.19113 
13 1 6.23731 4.53944 4.54444 
14 1 7.77033 3.00482 3.01362 
15 1 7.06122 3.72303 3.71367 
28 1 10.0573 0.679212 0.627038 
29 1 8.58183 2.18789 2.18249 
30 1 9.28366 1.47153 1.46863 
1 1 6.16528 4.59689 6.17467 
2 1 7.6731 3.08755 7.68175 
3 1 6.97565 3.80641 6.96226 
40 1 10.0391 0.781353 10.025 
41 1 8.49645 2.26685 8.4973 
42 1 9.22114 1.57231 9.21346 
7 1 6.18816 6.16022 4.60902 
8 1 7.68293 7.67821 3.09771 
9 1 6.97845 6.96292 3.81043 
43 1 9.91844 10.0618 0.641292 
44 1 8.50667 8.49823 2.26805 
45 1 9.1567 9.21825 1.51582 
22 1 6.23467 6.22919 6.23471 
23 1 7.76256 7.76026 7.7623 
24 1 7.04966 7.05663 7.0494 
34 1 10.0923 10.0839 10.083 
35 1 8.57624 8.58074 8.57295 
36 1 9.29235 9.28851 9.28238 
ITEM: TIMESTEP
40
ITEM: NUMBER OF ATOMS
49
ITEM: BOX BOUNDS pp pp pp
0.0000000000000000e+00 1.1000000000000000e+01
0.0000000000000000e+00 1.1002000000000001e+01
0.0000000000000000e+00 1.1000000000000000e+01
ITEM: ATOMS id type x y z 
10 1 4.62052 4.58288 4.62345 
11 1 3.10372 3.09757 3.09521 
12 1 3.81728 3.79769 3.81819 
46 1 0.706556 0.840719 0.700521 
47 1 2.2748 2.29471 2.25414 
48 1 1.54408 1.62027 1.53134 
19 1 4.54185 4.53668 6.24274 
20 1 3.00481 3.00832 7.7728 
21 1 3.71694 3.71655 7.0637 
31 1 0.657798 0.646485 10.0672 
32 1 2.1844 2.18548 8.58413 
33 1 1.46962 1.46558 9.28248 
16 1 4.55217 6.23066 4.55786 
17 1 3.04868 7.72026 2.99756 
18 1 3.75519 7.02389 3.73741 
25 1 0.597057 10.1865 0.66013 
26 1 2.25379 8.48658 2.19486 
27 1 1.48912 9.27972 1.64144 
49 2 0.625315 10.4063 2.1118 
4 1 4.61144 6.15475 6.19222 
5 1 3.08734 7.68005 7.68661 
6 1 3.80311 6.96413 6.98464 
37 1 0.717581 10.0606 10.0204 
38 1 2.2609 8.51122 8.50379 
39 1 1.55132 9.23116 9.20349 
13 1 6.24085 4.54036 4.53961 
14 1 7.77069 3.00705 3.00873 
15 1 7.06276 3.71844 3.7187 
28 1 10.0557 0.686283 0.619127 
29 1 8.58234 2.18438 2.18915 
30 1 9.2747 1.47687 1.45481 
1 1 6.1675 4.59831 6.17016 
2 1 7.68104 3.08697 7.68052 
3 1 6.96776 3.79884 6.96903 
40 1 10.0393 0.775818 10.0231 
41 1 8.49205 2.27716 8.49315 
42 1 9.21318 1.57609 9.20564 
7 1 6.19091 6.15335 4.61329 
8 1 7.69056 7.68068 3.09608 
9 1 6.98429 6.96428 3.80814 
43 1 9.92196 10.0619 0.6358 
44 1 8.49815 8.50165 2.26118 
45 1 9.15774 9.21877 1.51307 
22 1 6.23479 6.23192 6.23445 
23 1 7.76086 7.76407 7.76033 
24 1 7.05193 7.05123 7.0516 
34 1 10.1004 10.0879 10.0812 
35 1 8.57876 8.58112 8.5718 
36 1 9.29341 9.28978 9.2831 
ITEM: TIMESTEP
50
ITEM: NUMBER OF ATOMS
49
ITEM: BOX BOUNDS pp pp pp
0.0000000000000000e+00 1.1000000000000000e+01
0.0000000000000000e+00 1.1002000000000001e+01
0.0000000000000000e+00 1.1000000000000000e+01
ITEM: ATOMS id type x y z 
10 1 4.61981 4.57988 4.6215 
11 1 3.10187 3.0957 3.0913 
12 1 3.81526 3.79202 3.81719 
46 1 0.696876 0.878132 0.650404 
47 1 2.2729 2.29712 2.25489 
48 1 1.54064 1.63186 1.51659 
19 1 4.54128 4.53758 6.24154 
20 1 3.00548 3.0086 7.77386 
21 1 3.71771 3.7172 7.0615 
31 1 0.666389 0.640254 10.0636 
32 1 2.18429 2.18702 8.57989 
33 1 1.47426 1.46305 9.27784 
16 1 4.55558 6.22615 4.56485 
17 1 3.05647 7.70678 2.99343 
18 1 3.76074 7.01236 3.73497 
25 1 0.590254 10.2262 0.712035 
26 1 2.26197 8.48285 2.19073 
27 1 1.50246 9.25496 1.63971 
49 2 0.608704 10.3472 2.14858 
4 1 4.60638 6.15863 6.19569 
5 1 3.08155 7.68587 7.69105 
6 1 3.80052 6.96847 6.99392 
37 1 0.70806 10.0564 10.0339 
38 1 2.25612 8.51873 8.51083 
39 1 1.543 9.23489 9.20833 
13 1 6.23889 4.53869 4.5383 
14 1 7.77333 3.00342 3.00756 
15 1 7.06374 3.71659 3.71984 
28 1 10.0562 0.694095 0.61003 
29 1 8.5801 2.18161 2.18381 
30 1 9.27803 1.48027 1.44888 
1 1 6.16656 4.6003 6.16804 
2 1 7.68088 3.08684 7.67985 
3 1 6.96565 3.79867 6.96939 
40 1 10.024 0.770871 10.0199 
41 1 8.49439 2.28068 8.49278 
42 1 9.21133 1.57498 9.2049 
7 1 6.1947 6.15368 4.61217 
8 1 7.69637 7.68086 3.09315 
9 1 6.98798 6.96817 3.80663 
43 1 9.93326 10.0712 0.64042 
44 1 8.49396 8.5016 2.25632 
45 1 9.15301 9.22581 1.50945 
22 1 6.23246 6.23119 6.23588 
23 1 7.76148 7.76706 7.76098 
24 1 7.05289 7.04881 7.05277 
34 1 10.1192 10.0861 10.0771 
35 1 8.58044 8.58434 8.57196 
36 1 9.29952 9.28825 9.28175 
ITEM: TIMESTEP
60
ITEM: NUMBER OF ATOMS
49
ITEM: BOX BOUNDS pp pp pp
0.0000000000000000e+00 1.1000000000000000e+01
0.0000000000000000e+00 1.1002000000000001e+01
0.0000000000000000e+00 1.1000000000000000e+01
ITEM: ATOMS id type x y z 
10 1 4.62194 4.57396 4.62382 
11 1 3.09666 3.08943 3.09175 
12 1 3.81532 3.79028 3.80728 
46 1 0.692877 0.893533 0.639448 
47 1 2.26846 2.29516 2.25259 
48 1 1.53999 1.64314 1.50506 
19 1 4.54051 4.53838 6.2413 
20 1 3.00677 3.00976 7.77146 
21 1 3.71931 3.71936 7.06125 
31 1 0.672664 0.638247 10.0634 
32 1 2.18446 2.18675 8.57755 
33 1 1.47667 1.46067 9.27533 
16 1 4.55638 6.225 4.56756 
17 1 3.06183 7.69999 2.99141 
18 1 3.76618 7.00505 3.73455 
25 1 0.586228 10.2417 0.734069 
26 1 2.27478 8.47188 2.18671 
27 1 1.48973 9.26354 1.6516 
49 2 0.615274 10.3094 2.16716 
4 1 4.60631 6.16274 6.2049 
5 1 3.08089 7.68899 7.6966 
6 1 3.79518 6.97119 6.99356 
37 1 0.706248 10.0589 10.0245 
38 1 2.25375 8.52364 8.51228 
39 1 1.53666 9.23441 9.21574 
13 1 6.23987 4.53905 4.53937 
14 1 7.77339 3.00319 3.01103 
15 1 7.06143 3.71607 3.71697 
28 1 10.0597 0.696919 0.605755 
29 1 8.58167 2.18087 2.18512 
30 1 9.27288 1.4847 1.44025 
1 1 6.16991 4.59884 6.16924 
2 1 7.67736 3.09012 7.67746 
3 1 6.96395 3.80208 6.96512 
40 1 10.0172 0.767007 10.0173 
41 1 8.49706 2.28187 8.49256 
42 1 9.208 1.57165 9.20678 
7 1 6.19928 6.1562 4.61212 
8 1 7.69336 7.68314 3.09304 
9 1 6.99494 6.9608 3.80728 
43 1 9.92223 10.0747 0.646586 
44 1 8.49469 8.50693 2.24832 
45 1 9.15564 9.23199 1.50647 
22 1 6.23229 6.22828 6.23659 
23 1 7.76199 7.76415 7.76093 
24 1 7.05024 7.05298 7.05173 
34 1 10.1272 10.0825 10.0781 
35 1 8.5795 8.58625 8.57394 
36 1 9.30809 9.28664 9.27717 
ITEM: TIMESTEP
70
ITEM: NUMBER OF ATOMS
49
ITEM: BOX BOUNDS pp pp pp
0.0000000000000000e+00 1.1000000000000000e+01
0.0000000000000000e+00 1.1002000000000001e+01
0.0000000000000000e+00 1.1000000000000000e+01
ITEM: ATOMS id type x y z 
10 1 4.62214 4.57321 4.62212 
11 1 3.09738 3.08997 3.09056 
12 1 3.81452 3.78839 3.81002 
46 1 0.692883 0.891562 0.639064 
47 1 2.26821 2.29527 2.25139 
48 1 1.53863 1.64532 1.5043 
19 1 4.5405 4.53907 6.24088 
20 1 3.00741 3.01 7.77095 
21 1 3.71876 3.71974 7.06111 
31 1 0.673904 0.638363 10.0625 
32 1 2.18555 2.18719 8.57703 
33 1 1.4768 1.46026 9.27309 
16 1 4.55803 6.22317 4.56983 
17 1 3.06232 7.69928 2.98881 
18 1 3.76615 7.00491 3.73277 
25 1 0.582592 10.246 0.741315 
26 1 2.27784 8.46905 2.18707 
27 1 1.49364 9.25721 1.64973 
49 2 0.610243 10.311 2.17107 
4 1 4.60564 6.16288 6.20551 
5 1 3.07943 7.6895 7.6965 
6 1 3.79653 6.97247 6.99599 
37 1 0.706223 10.0588 10.0271 
38 1 2.25328 8.5235 8.51337 
39 1 1.53624 9.23507 9.21491 
13 1 6.23915 4.53951 4.53818 
14 1 7.7729 3.00317 3.01037 
15 1 7.06274 3.71479 3.71822 
28 1 10.0572 0.69886 0.602711 
29 1 8.58028 2.18147 2.18368 
30 1 9.27433 1.48511 1.44167 
1 1 6.16949 4.59946 6.16911 
2 1 7.67752 3.08976 7.6777 
3 1 6.96491 3.80235 6.96549 
40 1 10.0148 0.765622 10.0164 
41 1 8.49603 2.28216 8.49224 
42 1 9.2082 1.57226 9.20601 
7 1 6.20149 6.15517 4.61294 
8 1 7.69511 7.68204 3.09236 
9 1 6.99372 6.96323 3.80682 
43 1 9.92495 10.0763 0.647803 
44 1 8.49369 8.50752 2.24756 
45 1 9.15505 9.23232 1.50697 
22 1 6.23136 6.22909 6.23611 
23 1 7.7613 7.76473 7.76021 
24 1 7.0509 7.05202 7.05293 
34 1 10.1294 10.0814 10.0769 
35 1 8.58077 8.58564 8.57295 
36 1 9.30691 9.28679 9.27768 
ITEM: TIMESTEP
80
ITEM: NUMBER OF ATOMS
49
ITEM: BOX BOUNDS pp pp pp
0.0000000000000000e+00 1.1000000000000000e+01
0.0000000000000000e+00 1.1002000000000001e+01
0.0000000000000000e+00 1.1000000000000000e+01
ITEM: ATOMS id type x y z 
10 1 4.62296 4.56539 4.61625 
11 1 3.09691 3.08613 3.0865 
12 1 3.81172 3.77725 3.81571 
46 1 0.688673 0.896915 0.629914 
47 1 2.26083 2.30494 2.23935 
48 1 1.53227 1.65219 1.4935 
19 1 4.53937 4.54466 6.23992 
20 1 3.01021 3.01308 7.76763 
21 1 3.72015 3.72217 7.05565 
31 1 0.682129 0.634817 10.0558 
32 1 2.1901 2.18664 8.56936 
33 1 1.48215 1.45582 9.26256 
16 1 4.56636 6.212 4.58028 
17 1 3.08061 7.68083 2.97229 
18 1 3.77641 6.99395 3.73031 
25 1 0.56014 10.2742 0.801098 
26 1 2.29438 8.45237 2.17016 
27 1 1.49445 9.23857 1.66514 
49 2 0.604311 10.282 2.21875 
4 1 4.60209 6.17012 6.21661 
5 1 3.07559 7.69806 7.70386 
6 1 3.79181 6.97719 7.00593 
37 1 0.704669 10.0655 10.0266 
38 1 2.24579 8.52551 8.51879 
39 1 1.53147 9.24044 9.21975 
13 1 6.23935 4.53923 4.53403 
14 1 7.77376 2.99889 3.01218 
15 1 7.06223 3.71213 3.71815 
28 1 10.0447 0.714745 0.580907 
29 1 8.57926 2.18466 2.18171 
30 1 9.26628 1.49342 1.42832 
1 1 6.16887 4.60135 6.16973 
2 1 7.67826 3.09163 7.67724 
3 1 6.96699 3.8056 6.96501 
40 1 10.0015 0.754067 10.0077 
41 1 8.49224 2.28536 8.49046 
42 1 9.20307 1.57029 9.20143 
7 1 6.21444 6.1539 4.6146 
8 1 7.70028 7.67974 3.08538 
9 1 6.99686 6.96942 3.80665 
43 1 9.92752 10.0877 0.65772 
44 1 8.48654 8.5129 2.23862 
45 1 9.15307 9.24264 1.50664 
22 1 6.22836 6.23209 6.23935 
23 1 7.76051 7.76606 7.76281 
24 1 7.05335 7.05407 7.05181 
34 1 10.1453 10.0698 10.0759 
35 1 8.5867 8.58157 8.572 
36 1 9.31194 9.29006 9.26986 
ITEM: TIMESTEP
90
ITEM: NUMBER OF ATOMS
49
ITEM: BOX BOUNDS pp pp pp
0.0000000000000000e+00 1.1000000000000000e+01
0.0000000000000000e+00 1.1002000000000001e+01
0.0000000000000000e+00 1.1000000000000000e+01
ITEM: ATOMS id type x y z 
10 1 4.6234 4.56467 4.61729 
11 1 3.09549 3.0848 3.0874 
12 1 3.81228 3.77799 3.81234 
46 1 0.688467 0.894719 0.630608 
47 1 2.26036 2.30597 2.23838 
48 1 1.53238 1.65292 1.49279 
19 1 4.5394 4.54385 6.23975 
20 1 3.00986 3.01212 7.76656 
21 1 3.71991 3.72316 7.05785 
31 1 0.68276 0.63384 10.0559 
32 1 2.18963 2.18545 8.56813 
33 1 1.48301 1.45578 9.26381 
16 1 4.56557 6.21342 4.57956 
17 1 3.08297 7.6793 2.9711 
18 1 3.77795 6.99214 3.7292 
25 1 0.55881 10.2751 0.805034 
26 1 2.29475 8.45124 2.16768 
27 1 1.49226 9.23938 1.66703 
49 2 0.605229 10.2802 2.2241 
4 1 4.60183 6.17054 6.21714 
5 1 3.07485 7.69721 7.70482 
6 1 3.7926 6.97916 7.00552 
37 1 0.705347 10.0666 10.0266 
38 1 2.24592 8.5257 8.51939 
39 1 1.53063 9.24101 9.2191 
13 1 6.2396 4.53923 4.53456 
14 1 7.77325 2.9988 3.01297 
15 1 7.06227 3.71272 3.71817 
28 1 10.0433 0.715931 0.578763 
29 1 8.5784 2.18489 2.18088 
30 1 9.26652 1.49456 1.42773 
1 1 6.17027 4.60194 6.16959 
2 1 7.67819 3.09293 7.67656 
3 1 6.96531 3.80596 6.96449 
40 1 10.0026 0.755154 10.0063 
41 1 8.49286 2.28605 8.49026 
42 1 9.20096 1.56864 9.20075 
7 1 6.21382 6.15513 4.61541 
8 1 7.69851 7.6815 3.08546 
9 1 6.99953 6.96607 3.80587 
43 1 9.92844 10.088 0.658142 
44 1 8.48589 8.51385 2.23834 
45 1 9.15311 9.24217 1.50662 
22 1 6.22947 6.2322 6.23851 
23 1 7.76156 7.76571 7.7619 
24 1 7.05143 7.05417 7.05342 
34 1 10.145 10.0699 10.0756 
35 1 8.58665 8.58347 8.57095 
36 1 9.31443 9.28663 9.27161 
ITEM: TIMESTEP
100
ITEM: NUMBER OF ATOMS
49
ITEM: BOX BOUNDS pp pp pp
0.0000000000000000e+00 1.1000000000000000e+01
0.0000000000000000e+00 1.1002000000000001e+01
0.0000000000000000e+00 1.1000000000000000e+01
ITEM: ATOMS id type x y z 
10 1 4.62318 4.56314 4.61868 
11 1 3.09422 3.08383 3.08837 
12 1 3.81338 3.77988 3.8082 
46 1 0.688129 0.890015 0.63354 
47 1 2.25885 2.30881 2.23571 
48 1 1.53172 1.65342 1.49156 
19 1 4.53908 4.54525 6.24009 
20 1 3.00911 3.01185 7.7654 
21 1 3.72086 3.72319 7.05821 
31 1 0.685316 0.631156 10.0565 
32 1 2.18951 2.18298 8.56571 
33 1 1.48429 1.45511 9.26466 
16 1 4.56534 6.21401 4.58056 
17 1 3.08731 7.67612 2.96497 
18 1 3.78152 6.9894 3.72438 
25 1 0.554032 10.2779 0.818169 
26 1 2.29657 8.44744 2.16282 
27 1 1.48997 9.23744 1.67334 
49 2 0.606017 10.2769 2.23778 
4 1 4.60147 6.17191 6.21645 
5 1 3.07439 7.69722 7.70626 
6 1 3.79242 6.9802 7.00624 
37 1 0.705513 10.0681 10.0251 
38 1 2.24525 8.52616 8.52022 
39 1 1.52991 9.24262 9.21895 
13 1 6.23954 4.53949 4.53508 
14 1 7.7729 2.99832 3.01356 
15 1 7.0624 3.71273 3.71865 
28 1 10.0402 0.719257 0.572556 
29 1 8.57719 2.18605 2.17918 
30 1 9.26502 1.4969 1.42474 
1 1 6.1702 4.60279 6.16895 
2 1 7.67783 3.09433 7.67541 
3 1 6.96441 3.80828 6.96466 
40 1 10.0022 0.755224 10.0039 
41 1 8.49077 2.28597 8.48893 
42 1 9.20031 1.56901 9.19863 
7 1 6.21431 6.15575 4.61617 
8 1 7.69767 7.68179 3.08475 
9 1 7.00014 6.96474 3.80488 
43 1 9.93109 10.0885 0.658833 
44 1 8.48374 8.51583 2.2374 
45 1 9.15319 9.24333 1.5069 
22 1 6.22966 6.23336 6.23846 
23 1 7.76247 7.76634 7.76164 
24 1 7.05091 7.05481 7.05496 
34 1 10.1469 10.069 10.076 
35 1 8.58838 8.5856 8.56861 
36 1 9.31819 9.28049 9.27527 
ITEM: TIMESTEP
110
ITEM: NUMBER OF ATOMS
49
ITEM: BOX BOUNDS pp pp pp
0.0000000000000000e+00 1.1000000000000000e+01
0.0000000000000000e+00 1.1002000000000001e+01
0.0000000000000000e+00 1.1000000000000000e+01
ITEM: ATOMS id type x y z 
10 1 4.6233 4.56253 4.61926 
11 1 3.09416 3.08401 3.08809 
12 1 3.81335 3.78086 3.80716 
46 1 0.688013 0.887763 0.635081 
47 1 2.25792 2.31041 2.23456 
48 1 1.53167 1.65383 1.49117 
19 1 4.53935 4.54572 6.24036 
20 1 3.00966 3.01138 7.76509 
21 1 3.71985 3.72375 7.05722 
31 1 0.687095 0.629559 10.0575 
32 1 2.19 2.18179 8.56529 
33 1 1.48412 1.45428 9.26352 
16 1 4.56557 6.21384 4.58045 
17 1 3.09028 7.67371 2.96054 
18 1 3.78322 6.98825 3.72213 
25 1 0.550991 10.2796 0.827118 
26 1 2.29765 8.44524 2.15998 
27 1 1.48874 9.23606 1.6773 
49 2 0.606065 10.2752 2.2457 
4 1 4.60128 6.17322 6.21626 
5 1 3.07457 7.69781 7.70693 
6 1 3.79147 6.97978 7.00679 
37 1 0.705537 10.0691 10.0235 
38 1 2.24511 8.52631 8.52049 
39 1 1.52954 9.24337 9.21869 
13 1 6.23944 4.53973 4.53505 
14 1 7.77313 2.99814 3.01387 
15 1 7.06188 3.71246 3.71891 
28 1 10.0386 0.721487 0.568861 
29 1 8.57714 2.18658 2.17851 
30 1 9.26299 1.4983 1.42144 
1 1 6.16998 4.60355 6.16859 
2 1 7.67784 3.09502 7.67462 
3 1 6.96361 3.80926 6.96536 
40 1 10.0025 0.755542 10.0028 
41 1 8.49043 2.286 8.48777 
42 1 9.19916 1.5686 9.19864 
7 1 6.215 6.15588 4.61668 
8 1 7.69754 7.68182 3.08444 
9 1 6.99939 6.96468 3.80407 
43 1 9.93242 10.0886 0.659837 
44 1 8.48254 8.51684 2.23697 
45 1 9.15314 9.24385 1.50703 
22 1 6.22947 6.23423 6.23893 
23 1 7.76253 7.76673 7.76173 
24 1 7.05146 7.05555 7.05476 
34 1 10.1485 10.0672 10.0772 
35 1 8.58953 8.58494 8.56883 
36 1 9.32024 9.27962 9.27494 
ITEM: TIMESTEP
120
ITEM: NUMBER OF ATOMS
49
ITEM: BOX BOUNDS pp pp pp
0.0000000000000000e+00 1.1000000000000000e+01
0.0000000000000000e+00 1.1002000000000001e+01
0.0000000000000000e+00 1.1000000000000000e+01
ITEM: ATOMS id type x y z 
10 1 4.62327 4.56203 4.61986 
11 1 3.09402 3.08617 3.08574 
12 1 3.81273 3.78129 3.80681 
46 1 0.688216 0.881307 0.639304 
47 1 2.25595 2.31461 2.23179 
48 1 1.53075 1.65481 1.48987 
19 1 4.53854 4.54775 6.24003 
20 1 3.00973 3.01076 7.76312 
21 1 3.71977 3.72407 7.05658 
31 1 0.69186 0.625036 10.0601 
32 1 2.19083 2.1793 8.56345 
33 1 1.4854 1.45092 9.26102 
16 1 4.56656 6.21351 4.58003 
17 1 3.09866 7.66698 2.94771 
18 1 3.78717 6.98537 3.7161 
25 1 0.542278 10.2849 0.852089 
26 1 2.30118 8.43858 2.15235 
27 1 1.48486 9.23275 1.68814 
49 2 0.605807 10.2708 2.26835 
4 1 4.60039 6.17553 6.21614 
5 1 3.07404 7.69814 7.70896 
6 1 3.79068 6.98068 7.00781 
37 1 0.705225 10.0716 10.0184 
38 1 2.24482 8.52709 8.52116 
39 1 1.52836 9.24532 9.21784 
13 1 6.23916 4.53949 4.53473 
14 1 7.77304 2.99708 3.01459 
15 1 7.06225 3.71238 3.7194 
28 1 10.0331 0.727747 0.557909 
29 1 8.57523 2.18831 2.17475 
30 1 9.26045 1.5019 1.41551 
1 1 6.16948 4.60591 6.1676 
2 1 7.67835 3.09632 7.67221 
3 1 6.96046 3.81273 6.96889 
40 1 10.0019 0.75622 10.0009 
41 1 8.48854 2.28527 8.48575 
42 1 9.19825 1.56899 9.19554 
7 1 6.21561 6.15656 4.61747 
8 1 7.69565 7.682 3.08228 
9 1 6.99965 6.96502 3.80409 
43 1 9.93627 10.0885 0.662735 
44 1 8.47945 8.51932 2.23599 
45 1 9.1527 9.24509 1.5074 
22 1 6.22894 6.23647 6.23915 
23 1 7.76359 7.76791 7.76153 
24 1 7.05143 7.05722 7.05489 
34 1 10.1543 10.0625 10.0795 
35 1 8.59339 8.58366 8.5685 
36 1 9.32469 9.27609 9.2759 
ITEM: TIMESTEP
130
ITEM: NUMBER OF ATOMS
49
ITEM: BOX BOUNDS pp pp pp
0.0000000000000000e+00 1.1000000000000000e+01
0.0000000000000000e+00 1.1002000000000001e+01
0.0000000000000000e+00 1.1000000000000000e+01
ITEM: ATOMS id type x y z 
10 1 4.62386 4.56224 4.61936 
11 1 3.09356 3.08732 3.08513 
12 1 3.8132 3.78078 3.80682 
46 1 0.688535 0.87945 0.640132 
47 1 2.25544 2.31571 2.23101 
48 1 1.53062 1.65491 1.48962 
19 1 4.53825 4.54798 6.24015 
20 1 3.00973 3.01019 7.76288 
21 1 3.71909 3.72423 7.05649 
31 1 0.692451 0.623484 10.0599 
32 1 2.18974 2.17853 8.56185 
33 1 1.48817 1.44985 9.26292 
16 1 4.56664 6.21383 4.58008 
17 1 3.1004 7.66556 2.94467 
18 1 3.78893 6.98387 3.71327 
25 1 0.539758 10.287 0.859529 
26 1 2.30196 8.43698 2.15006 
27 1 1.48348 9.23234 1.69113 
49 2 0.605496 10.2698 2.27484 
4 1 4.59963 6.17589 6.21641 
5 1 3.07361 7.69765 7.70973 
6 1 3.79117 6.98207 7.00736 
37 1 0.704827 10.0722 10.0161 
38 1 2.24475 8.52708 8.52139 
39 1 1.52813 9.2461 9.21695 
13 1 6.23893 4.53992 4.53515 
14 1 7.77262 2.99749 3.01515 
15 1 7.06196 3.71227 3.7196 
28 1 10.0322 0.729254 0.555687 
29 1 8.57469 2.18886 2.17402 
30 1 9.25933 1.50318 1.4136 
1 1 6.16819 4.60732 6.16964 
2 1 7.67621 3.09798 7.67489 
3 1 6.96319 3.81128 6.96347 
40 1 10.0019 0.756529 10.0005 
41 1 8.4883 2.28523 8.48494 
42 1 9.19807 1.5689 9.19496 
7 1 6.21555 6.15612 4.61739 
8 1 7.69483 7.68251 3.0821 
9 1 6.9999 6.96443 3.80374 
43 1 9.9375 10.0883 0.663615 
44 1 8.47854 8.51979 2.23584 
45 1 9.15256 9.24516 1.50749 
22 1 6.22892 6.23715 6.23898 
23 1 7.76425 7.76831 7.76145 
24 1 7.05127 7.05769 7.05518 
34 1 10.1563 10.0609 10.0802 
35 1 8.59422 8.58332 8.56867 
36 1 9.32622 9.27507 9.27592 
ITEM: TIMESTEP
140
ITEM: NUMBER OF ATOMS
49
ITEM: BOX BOUNDS pp pp pp
0.0000000000000000e+00 1.1000000000000000e+01
0.0000000000000000e+00 1.1002000000000001e+01
0.0000000000000000e+00 1.1000000000000000e+01
ITEM: ATOMS id type x y z 
10 1 4.62318 4.56303 4.61971 
11 1 3.09198 3.08981 3.08432 
12 1 3.81524 3.7803 3.8053 
46 1 0.689035 0.875264 0.64255 
47 1 2.25418 2.31822 2.22928 
48 1 1.53078 1.65559 1.48938 
19 1 4.5374 4.55012 6.24114 
20 1 3.00918 3.01034 7.76271 
21 1 3.71887 3.7227 7.05379 
31 1 0.69568 0.620281 10.0608 
32 1 2.18995 2.17619 8.56046 
33 1 1.49024 1.44821 9.26376 
16 1 4.56747 6.21346 4.57938 
17 1 3.10544 7.66098 2.93592 
18 1 3.79186 6.98202 3.70907 
25 1 0.532839 10.2918 0.878167 
26 1 2.30345 8.43351 2.1447 
27 1 1.48067 9.23101 1.69872 
49 2 0.604637 10.2673 2.29119 
4 1 4.59892 6.17743 6.21543 
5 1 3.07351 7.69812 7.71056 
6 1 3.79076 6.98244 7.00802 
37 1 0.704771 10.0736 10.0095 
38 1 2.24555 8.52727 8.52122 
39 1 1.52672 9.24638 9.21478 
13 1 6.23835 4.54014 4.53517 
14 1 7.77227 2.99719 3.01489 
15 1 7.06234 3.71212 3.7204 
28 1 10.0297 0.732454 0.549025 
29 1 8.57341 2.19026 2.17184 
30 1 9.25701 1.50573 1.40952 
1 1 6.16784 4.60875 6.17018 
2 1 7.67548 3.09889 7.67395 
3 1 6.96254 3.81278 6.96308 
40 1 10.0029 0.757312 9.99948 
41 1 8.48911 2.28516 8.48255 
42 1 9.19506 1.56831 9.19678 
7 1 6.21647 6.15476 4.61696 
8 1 7.69455 7.68132 3.08094 
9 1 6.99709 6.96752 3.80434 
43 1 9.94072 10.0881 0.665486 
44 1 8.47675 8.52121 2.23511 
45 1 9.15237 9.2456 1.50752 
22 1 6.22721 6.2387 6.24017 
23 1 7.76339 7.76842 7.76193 
24 1 7.05415 7.05908 7.05326 
34 1 10.1609 10.0575 10.0816 
35 1 8.59747 8.58214 8.5681 
36 1 9.32755 9.27314 9.27781 
ITEM: TIMESTEP
145
ITEM: NUMBER OF ATOMS
49
ITEM: BOX BOUNDS pp pp pp
0.0000000000000000e+00 1.1000000000000000e+01
0.0000000000000000e+00 1.1002000000000001e+01
0.0000000000000000e+00 1.1000000000000000e+01
ITEM: ATOMS id type x y z 
10 1 4.62318 4.56303 4.61971 
11 1 3.09198 3.08981 3.08431 
12 1 3.81524 3.7803 3.8053 
46 1 0.689035 0.875263 0.64255 
47 1 2.25418 2.31822 2.22928 
48 1 1.53077 1.65558 1.48938 
19 1 4.5374 4.55012 6.24114 
20 1 3.00918 3.01034 7.76271 
21 1 3.71887 3.7227 7.05379 
31 1 0.695681 0.62028 10.0608 
32 1 2.18995 2.17619 8.56046 
33 1 1.49024 1.44821 9.26376 
16 1 4.56747 6.21346 4.57938 
17 1 3.10544 7.66098 2.93592 
18 1 3.79186 6.98202 3.70906 
25 1 0.532839 10.2918 0.878168 
26 1 2.30345 8.43351 2.1447 
27 1 1.48067 9.23101 1.69872 
49 2 0.604637 10.2673 2.29119 
4 1 4.59892 6.17743 6.21543 
5 1 3.07351 7.69812 7.71056 
6 1 3.79076 6.98244 7.00802 
37 1 0.70477 10.0736 10.0095 
38 1 2.24555 8.52727 8.52122 
39 1 1.52672 9.24639 9.21478 
13 1 6.23835 4.54014 4.53517 
14 1 7.77227 2.99719 3.0149 
15 1 7.06234 3.71211 3.7204 
28 1 10.0297 0.732454 0.549025 
29 1 8.57341 2.19026 2.17184 
30 1 9.25701 1.50573 1.40952 
1 1 6.16784 4.60875 6.17018 
2 1 7.67548 3.09889 7.67395 
3 1 6.96254 3.81278 6.96308 
40 1 10.0029 0.757312 9.99948 
41 1 8.48911 2.28516 8.48255 
42 1 9.19506 1.56831 9.19678 
7 1 6.21647 6.15476 4.61696 
8 1 7.69455 7.68132 3.08094 
9 1 6.99709 6.96752 3.80434 
43 1 9.94072 10.0881 0.665486 
44 1 8.47675 8.52121 2.23511 
45 1 9.15237 9.24559 1.50752 
22 1 6.22721 6.2387 6.24017 
23 1 7.76339 7.76842 7.76193 
24 1 7.05415 7.05908 7.05326 
34 1 10.1609 10.0575 10.0816 
35 1 8.59747 8.58214 8.5681 
36 1 9.32755 9.27314 9.27781 
ITEM: TIMESTEP
146
ITEM: NUMBER OF ATOMS
49
ITEM: BOX BOUNDS pp pp pp
0.0000000000000000e+00 1.1000000000000000e+01
0.0000000000000000e+00 1.1002000000000001e+01
0.0000000000000000e+00 1.1000000000000000e+01
ITEM: ATOMS id type x y z 
10 1 4.62318 4.56303 4.61971 
11 1 3.09198 3.08981 3.08431 
12 1 3.81524 3.7803 3.8053 
46 1 0.689035 0.875263 0.64255 
47 1 2.25418 2.31822 2.22928 
48 1 1.53077 1.65558 1.48938 
19 1 4.5374 4.55012 6.24114 
20 1 3.00918 3.01034 7.76271 
21 1 3.71887 3.7227 7.05379 
31 1 0.695681 0.620279 10.0608 
32 1 2.18995 2.17619 8.56046 
33 1 1.49024 1.44821 9.26376 
16 1 4.56747 6.21346 4.57938 
17 1 3.10544 7.66098 2.93592 
18 1 3.79186 6.98202 3.70906 
25 1 0.532839 10.2918 0.878168 
26 1 2.30345 8.43351 2.1447 
27 1 1.48067 9.23101 1.69872 
49 2 0.604637 10.2673 2.29119 
4 1 4.59892 6.17743 6.21543 
5 1 3.07351 7.69812 7.71056 
6 1 3.79076 6.98244 7.00802 
37 1 0.70477 10.0736 10.0095 
38 1 2.24555 8.52727 8.52122 
39 1 1.52672 9.24639 9.21478 
13 1 6.23835 4.54014 4.53517 
14 1 7.77227 2.99719 3.0149 
15 1 7.06234 3.71211 3.7204 
28 1 10.0297 0.732454 0.549025 
29 1 8.57341 2.19026 2.17184 
30 1 9.25701 1.50573 1.40952 
1 1 6.16784 4.60875 6.17018 
2 1 7.67548 3.09889 7.67395 
3 1 6.96254 3.81278 6.96308 
40 1 10.0029 0.757312 9.99948 
41 1 8.48911 2.28516 8.48255 
42 1 9.19506 1.56831 9.19678 
7 1 6.21647 6.15476 4.61696 
8 1 7.69455 7.68132 3.08094 
9 1 6.99709 6.96752 3.80434 
43 1 9.94072 10.0881 0.665486 
44 1 8.47675 8.52121 2.23511 
45 1 9.15237 9.24559 1.50752 
22 1 6.22721 6.2387 6.24017 
23 1 7.76339 7.76842 7.76193 
24 1 7.05415 7.05908 7.05326 
34 1 10.1609 10.0575 10.0816 
35 1 8.59747 8.58214 8.5681 
36 1 9.32755 9.27314 9.27781 
ITEM: TIMESTEP
150
ITEM: NUMBER OF ATOMS
49
ITEM: BOX BOUNDS pp pp pp
-2.1631456063889308e-03 1.1002163145606387e+01
-2.1831658582097541e-03 1.1004183165858210e+01
-2.0875125308644567e-03 1.1002087512530865e+01
ITEM: ATOMS id type x y z 
10 1 4.62286 4.56266 4.6194 
11 1 3.09105 3.08886 3.0834 
12 1 3.81456 3.77962 3.80466 
46 1 0.687133 0.873383 0.640699 
47 1 2.25291 2.31697 2.22805 
48 1 1.52918 1.65403 1.48782 
19 1 4.53704 4.54976 6.2414 
20 1 3.00822 3.00936 7.76354 
21 1 3.71817 3.72201 7.05439 
31 1 0.693794 0.618303 10.0626 
32 1 2.18864 2.17488 8.56164 
33 1 1.48867 1.44659 9.26517 
16 1 4.56712 6.21374 4.57905 
17 1 3.10451 7.66183 2.93494 
18 1 3.79118 6.98261 3.70837 
25 1 0.530871 10.2937 0.87643 
26 1 2.30219 8.43467 2.14342 
27 1 1.47909 9.2325 1.69729 
49 2 0.602711 10.2692 2.28997 
4 1 4.59862 6.17768 6.21571 
5 1 3.07256 7.69898 7.7114 
6 1 3.79008 6.98304 7.00859 
37 1 0.702845 10.0754 10.0113 
38 1 2.24426 8.52847 8.52237 
39 1 1.52513 9.24791 9.21621 
13 1 6.23864 4.53978 4.53482 
14 1 7.77316 2.99621 3.01397 
15 1 7.06295 3.7114 3.71972 
28 1 10.0315 0.730562 0.547133 
29 1 8.57462 2.18894 2.17056 
30 1 9.25849 1.50416 1.40798 
1 1 6.16808 4.60845 6.17043 
2 1 7.67633 3.09795 7.67478 
3 1 6.96313 3.8121 6.96363 
40 1 10.0047 0.755421 10.0012 
41 1 8.4903 2.28386 8.4837 
42 1 9.19651 1.56677 9.19816 
7 1 6.21674 6.15501 4.61668 
8 1 7.6954 7.68219 3.08002 
9 1 6.9977 6.96809 3.80369 
43 1 9.94249 10.0899 0.663645 
44 1 8.47792 8.52242 2.23386 