ITEM: TIMESTEP
0
ITEM: NUMBER OF ATOMS
58
ITEM: BOX BOUNDS pp pp pp
0.0000000000000000e+00 3.2808000000000000e+01
0.0000000000000000e+00 1.7780000000000001e+01
0.0000000000000000e+00 2.4729999999999999e+00
ITEM: ATOMS id type x y z 
13 1 7.043 0.849 2.464 
29 1 7.397 1.432 1.228 
37 1 8.035 2.733 1.228 
57 2 1.083 0.968 1.228 
58 3 1.083 1.944 1.228 
1 1 6.173 17.398 2.464 
5 1 5.371 17.398 1.228 
9 1 3.973 17.398 1.228 
16 1 7.043 16.167 2.464 
32 1 7.397 15.584 1.228 
40 1 8.035 14.283 1.228 
45 1 3.236 17.398 2.464 
49 1 1.81 17.398 2.464 
53 1 1.083 17.398 1.228 
4 1 10.968 8.508 2.464 
8 1 11.771 8.508 1.228 
12 1 13.168 8.508 1.228 
18 1 10.098 7.277 2.464 
21 1 8.308 3.392 2.464 
26 1 8.833 4.734 2.464 
34 1 9.745 6.694 1.228 
42 1 9.106 5.393 1.228 
48 1 13.906 8.508 2.464 
52 1 15.331 8.508 2.464 
56 1 16.058 8.508 1.228 
19 1 10.098 9.739 2.464 
24 1 8.308 13.624 2.464 
27 1 8.833 12.282 2.464 
35 1 9.745 10.322 1.228 
43 1 9.106 11.623 1.228 
3 1 22.577 8.508 2.464 
7 1 21.775 8.508 1.228 
11 1 20.377 8.508 1.228 
20 1 23.447 7.277 2.464 
36 1 23.801 6.694 1.228 
44 1 24.439 5.393 1.228 
47 1 19.64 8.508 2.464 
51 1 18.214 8.508 2.464 
55 1 17.487 8.508 1.228 
17 1 23.447 9.739 2.464 
33 1 23.801 10.322 1.228 
41 1 24.439 11.623 1.228 
15 1 26.502 0.849 2.464 
23 1 25.237 3.392 2.464 
28 1 24.712 4.734 2.464 
31 1 26.149 1.432 1.228 
39 1 25.511 2.733 1.228 
2 1 27.373 17.398 2.464 
6 1 28.175 17.398 1.228 
10 1 29.572 17.398 1.228 
14 1 26.502 16.167 2.464 
22 1 25.237 13.624 2.464 
25 1 24.712 12.282 2.464 
30 1 26.149 15.584 1.228 
38 1 25.511 14.283 1.228 
46 1 30.31 17.398 2.464 
50 1 31.735 17.398 2.464 
54 1 32.462 17.398 1.228 
ITEM: TIMESTEP
10
ITEM: NUMBER OF ATOMS
58
ITEM: BOX BOUNDS pp pp pp
0.0000000000000000e+00 3.2808000000000000e+01
0.0000000000000000e+00 1.7780000000000001e+01
0.0000000000000000e+00 2.4729999999999999e+00
ITEM: ATOMS id type x y z 
13 1 7.08649 0.84133 2.4642 
29 1 7.44075 1.45061 1.22783 
37 1 8.04781 2.69498 1.22782 
57 2 1.07412 1.15289 1.2279 
58 3 1.08079 2.04914 1.22802 
1 1 6.17417 17.3979 2.46411 
5 1 5.35469 17.3992 1.22782 
9 1 3.96021 17.4052 1.22784 
16 1 7.08639 16.1747 2.4642 
32 1 7.44073 15.5654 1.22783 
40 1 8.04781 14.321 1.22782 
45 1 3.17463 17.3966 2.46419 
49 1 1.75228 17.2224 2.46419 
53 1 1.07864 17.3422 1.2279 
4 1 10.9581 8.508 2.46413 
8 1 11.7964 8.508 1.22783 
12 1 13.2148 8.508 1.22781 
18 1 10.0506 7.28283 2.4642 
21 1 8.31007 3.36985 2.46417 
26 1 8.82939 4.75266 2.46417 
34 1 9.69821 6.67027 1.22783 
42 1 9.09324 5.43123 1.22782 
48 1 13.9053 8.508 2.46419 
52 1 15.3165 8.508 2.4642 
56 1 16.0513 8.508 1.2278 
19 1 10.0506 9.73317 2.4642 
24 1 8.31007 13.6462 2.46417 
27 1 8.82937 12.2634 2.46417 
35 1 9.69821 10.3457 1.22783 
43 1 9.09324 11.5848 1.22782 
3 1 22.5844 8.508 2.46413 
7 1 21.7493 8.508 1.22783 
11 1 20.3322 8.508 1.22781 
20 1 23.4945 7.2829 2.4642 
36 1 23.8478 6.6703 1.22783 
44 1 24.4515 5.43195 1.22782 
47 1 19.6444 8.508 2.46419 
51 1 18.2323 8.508 2.4642 
55 1 17.4877 8.508 1.2278 
17 1 23.4945 9.7331 2.4642 
33 1 23.8478 10.3457 1.22783 
41 1 24.4515 11.5841 1.22782 
15 1 26.4518 0.844277 2.4642 
23 1 25.2346 3.37046 2.46417 
28 1 24.7158 4.75164 2.46417 
31 1 26.1015 1.45749 1.22783 
39 1 25.4969 2.69849 1.22782 
2 1 27.3515 17.398 2.46414 
6 1 28.2001 17.398 1.22784 
10 1 29.5932 17.3982 1.2278 
14 1 26.4518 16.1717 2.4642 
22 1 25.2346 13.6455 2.46417 
25 1 24.7158 12.2644 2.46417 
30 1 26.1014 15.5585 1.22783 
38 1 25.4969 14.3175 1.22782 
46 1 30.3092 17.4006 2.46419 
50 1 31.8152 17.3981 2.46419 
54 1 32.5442 17.3295 1.2278 
ITEM: TIMESTEP
20
ITEM: NUMBER OF ATOMS
58
ITEM: BOX BOUNDS pp pp pp
0.0000000000000000e+00 3.2808000000000000e+01
0.0000000000000000e+00 1.7780000000000001e+01
0.0000000000000000e+00 2.4729999999999999e+00
ITEM: ATOMS id type x y z 
13 1 7.09879 0.840239 2.46419 
29 1 7.45388 1.43923 1.22782 
37 1 8.06027 2.68977 1.22784 
57 2 1.07717 1.30682 1.22791 
58 3 1.07935 2.14861 1.22803 
1 1 6.17598 17.3977 2.46408 
5 1 5.35179 17.4016 1.2279 
9 1 3.94604 17.4151 1.22788 
16 1 7.09829 16.1758 2.46419 
32 1 7.4538 15.5769 1.22782 
40 1 8.06026 14.3263 1.22784 
45 1 3.19413 17.394 2.46414 
49 1 1.7276 17.165 2.4642 
53 1 1.07036 17.151 1.22787 
4 1 10.9619 8.50801 2.46413 
8 1 11.7659 8.508 1.22788 
12 1 13.1928 8.508 1.22785 
18 1 10.0417 7.28925 2.46418 
21 1 8.31732 3.36965 2.46416 
26 1 8.82361 4.75675 2.46416 
34 1 9.68556 6.68299 1.22782 
42 1 9.07944 5.43228 1.22784 
48 1 13.9036 8.508 2.46414 
52 1 15.2945 8.508 2.46415 
56 1 16.052 8.508 1.22785 
19 1 10.0417 9.72675 2.46418 
24 1 8.31732 13.6464 2.46416 
27 1 8.82358 12.2593 2.46416 
35 1 9.68556 10.333 1.22782 
43 1 9.07943 11.5837 1.22784 
3 1 22.5806 8.508 2.46412 
7 1 21.775 8.508 1.22788 
11 1 20.3509 8.508 1.22785 
20 1 23.504 7.28949 2.46419 
36 1 23.8614 6.68126 1.22782 
44 1 24.4648 5.43492 1.22784 
47 1 19.6498 8.508 2.46414 
51 1 18.2464 8.508 2.46415 
55 1 17.4945 8.508 1.22785 
17 1 23.504 9.72651 2.46419 
33 1 23.8614 10.3347 1.22782 
41 1 24.4648 11.5811 1.22784 
15 1 26.4438 0.836902 2.46419 
23 1 25.2276 3.36966 2.46416 
28 1 24.7222 4.75369 2.46416 
31 1 26.0906 1.44113 1.22782 
39 1 25.4826 2.69808 1.22784 
2 1 27.3725 17.398 2.46414 
6 1 28.1801 17.3978 1.22789 
10 1 29.5961 17.3988 1.22781 
14 1 26.4437 16.1791 2.46419 
22 1 25.2276 13.6463 2.46416 
25 1 24.7222 12.2623 2.46416 
30 1 26.0906 15.5748 1.22782 
38 1 25.4826 14.3179 1.22784 
46 1 30.3468 17.4049 2.46415 
50 1 31.7868 17.3953 2.46416 
54 1 32.55 17.3129 1.22783 
ITEM: TIMESTEP
30
ITEM: NUMBER OF ATOMS
58
ITEM: BOX BOUNDS pp pp pp
0.0000000000000000e+00 3.2808000000000000e+01
0.0000000000000000e+00 1.7780000000000001e+01
0.0000000000000000e+00 2.4729999999999999e+00
ITEM: ATOMS id type x y z 
13 1 7.09609 0.82768 2.46428 
29 1 7.46547 1.43639 1.22773 
37 1 8.06865 2.68329 1.22772 
57 2 1.07852 1.27791 1.22791 
58 3 1.07975 2.19688 1.22803 
1 1 6.17133 17.3976 2.46428 
5 1 5.33447 17.4046 1.22769 
9 1 3.95163 17.4215 1.22773 
16 1 7.09453 16.1884 2.46428 
32 1 7.46527 15.5798 1.22773 
40 1 8.06859 14.3329 1.22772 
45 1 3.21062 17.3946 2.4643 
49 1 1.76119 17.1511 2.46431 
53 1 1.06475 17.13 1.22775 
4 1 10.9603 8.50802 2.46428 
8 1 11.7745 8.508 1.2277 
12 1 13.1873 8.508 1.22772 
18 1 10.0347 7.29252 2.46428 
21 1 8.32021 3.36307 2.46428 
26 1 8.81865 4.75813 2.46428 
34 1 9.67248 6.68435 1.22773 
42 1 9.07085 5.43805 1.22772 
48 1 13.9166 8.508 2.46427 
52 1 15.3013 8.508 2.46428 
56 1 16.0399 8.508 1.22772 
19 1 10.0347 9.72349 2.46428 
24 1 8.32019 13.653 2.46428 
27 1 8.81859 12.2581 2.46428 
35 1 9.67248 10.3317 1.22773 
43 1 9.07082 11.578 1.22772 
3 1 22.5845 8.508 2.46428 
7 1 21.7678 8.508 1.2277 
11 1 20.3569 8.508 1.22772 
20 1 23.5104 7.2932 2.46428 
36 1 23.8733 6.68495 1.22774 
44 1 24.4736 5.44058 1.22772 
47 1 19.6344 8.508 2.46427 
51 1 18.2417 8.508 2.46428 
55 1 17.5046 8.508 1.22772 
17 1 23.5104 9.7228 2.46428 
33 1 23.8733 10.331 1.22774 
41 1 24.4736 11.5754 1.22772 
15 1 26.4434 0.828358 2.46428 
23 1 25.2238 3.36519 2.46428 
28 1 24.7254 4.75969 2.46428 
31 1 26.0796 1.43663 1.22773 
39 1 25.477 2.68531 1.22772 
2 1 27.3709 17.398 2.46429 
6 1 28.2043 17.3975 1.22771 
10 1 29.5926 17.3999 1.22771 
14 1 26.4433 16.1876 2.46428 
22 1 25.2238 13.6508 2.46428 
25 1 24.7254 12.2563 2.46428 
30 1 26.0795 15.5793 1.22773 
38 1 25.477 14.3307 1.22772 
46 1 30.3235 17.4103 2.46426 
50 1 31.7932 17.4021 2.46427 
54 1 32.5254 17.3054 1.22772 
ITEM: TIMESTEP
40
ITEM: NUMBER OF ATOMS
58
ITEM: BOX BOUNDS pp pp pp
0.0000000000000000e+00 3.2808000000000000e+01
0.0000000000000000e+00 1.7780000000000001e+01
0.0000000000000000e+00 2.4729999999999999e+00
ITEM: ATOMS id type x y z 
13 1 7.1104 0.827389 2.46427 
29 1 7.49118 1.42721 1.22774 
37 1 8.09135 2.67269 1.22773 
57 2 1.08169 1.30265 1.2279 
58 3 1.08035 2.21742 1.22804 
1 1 6.18168 17.3975 2.46426 
5 1 5.34333 17.4113 1.22772 
9 1 3.96039 17.4414 1.22774 
16 1 7.10487 16.1878 2.46427 
32 1 7.49007 15.5894 1.22774 
40 1 8.09118 14.3439 1.22773 
45 1 3.22048 17.4086 2.46428 
49 1 1.77274 17.1046 2.46429 
53 1 1.03682 17.0718 1.22775 
4 1 10.9556 8.50811 2.46426 
8 1 11.7486 8.50803 1.22773 
12 1 13.1799 8.508 1.22773 
18 1 10.0211 7.29528 2.46427 
21 1 8.33182 3.35781 2.46426 
26 1 8.8072 4.76326 2.46426 
34 1 9.64704 6.69514 1.22774 
42 1 9.04742 5.44521 1.22773 
48 1 13.946 8.508 2.46425 
52 1 15.3027 8.508 2.46426 
56 1 16.0373 8.508 1.22774 
19 1 10.0211 9.72082 2.46427 
24 1 8.33176 13.6585 2.46426 
27 1 8.80704 12.2533 2.46426 
35 1 9.64701 10.321 1.22774 
43 1 9.0473 11.5712 1.22773 
3 1 22.5877 8.50797 2.46426 
7 1 21.7886 8.50799 1.22773 
11 1 20.3625 8.508 1.22773 
20 1 23.5233 7.29614 2.46427 
36 1 23.8985 6.6967 1.22774 
44 1 24.4976 5.44704 1.22773 
47 1 19.6077 8.508 2.46425 
51 1 18.2421 8.508 2.46427 
55 1 17.5099 8.508 1.22774 
17 1 23.5233 9.71984 2.46427 
33 1 23.8985 10.3193 1.22774 
41 1 24.4976 11.5689 1.22773 
15 1 26.433 0.827616 2.46427 
23 1 25.2126 3.35951 2.46426 
28 1 24.7374 4.76306 2.46426 
31 1 26.0547 1.42607 1.22774 
39 1 25.4546 2.67495 1.22773 
2 1 27.3622 17.3979 2.46427 
6 1 28.1982 17.3955 1.22773 
10 1 29.591 17.4028 1.22773 
14 1 26.4322 16.1884 2.46427 
22 1 25.2125 13.6564 2.46426 
25 1 24.7374 12.2528 2.46426 
30 1 26.0544 15.5896 1.22774 
38 1 25.4545 14.3409 1.22773 
46 1 30.3212 17.4262 2.46425 
50 1 31.7946 17.4236 2.46426 
54 1 32.5137 17.2854 1.22774 
ITEM: TIMESTEP
50
ITEM: NUMBER OF ATOMS
58
ITEM: BOX BOUNDS pp pp pp
0.0000000000000000e+00 3.2808000000000000e+01
0.0000000000000000e+00 1.7780000000000001e+01
0.0000000000000000e+00 2.4729999999999999e+00
ITEM: ATOMS id type x y z 
13 1 7.11821 0.821597 2.46421 
29 1 7.51106 1.40699 1.22779 
37 1 8.11792 2.6638 1.22779 
57 2 1.08404 1.32088 1.2279 
58 3 1.08096 2.2372 1.22804 
1 1 6.166 17.3983 2.4642 
5 1 5.35734 17.4184 1.22781 
9 1 3.94752 17.4611 1.22781 
16 1 7.10741 16.1916 2.46421 
32 1 7.5081 15.6099 1.22779 
40 1 8.11776 14.3533 1.22779 
45 1 3.21989 17.4149 2.4642 
49 1 1.7977 17.0669 2.46422 
53 1 1.05366 17.0112 1.22782 
4 1 10.9508 8.50832 2.46421 
8 1 11.7417 8.50813 1.2278 
12 1 13.174 8.50798 1.22777 
18 1 10.0083 7.29799 2.46421 
21 1 8.34616 3.35399 2.46421 
26 1 8.79187 4.763 2.46421 
34 1 9.62213 6.70873 1.22779 
42 1 9.02088 5.45394 1.22779 
48 1 13.9406 8.50799 2.46422 
52 1 15.2972 8.508 2.46421 
56 1 16.0401 8.508 1.22779 
19 1 10.0082 9.71836 2.46421 
24 1 8.34606 13.6628 2.46421 
27 1 8.79153 12.2543 2.46421 
35 1 9.62205 10.3077 1.22779 
43 1 9.02063 11.563 1.22779 
3 1 22.5942 8.5079 2.46421 
7 1 21.7987 8.50797 1.2278 
11 1 20.3705 8.508 1.22777 
20 1 23.5386 7.2959 2.46421 
36 1 23.9249 6.70811 1.22779 
44 1 24.525 5.45431 1.22779 
47 1 19.599 8.508 2.46422 
51 1 18.2471 8.508 2.46422 
55 1 17.5041 8.508 1.22779 
17 1 23.5385 9.72 2.46421 
33 1 23.9249 10.3078 1.22779 
41 1 24.5249 11.5613 1.22779 
15 1 26.4286 0.822301 2.46422 
23 1 25.1994 3.35316 2.46421 
28 1 24.752 4.76482 2.46421 
31 1 26.0316 1.41225 1.22779 
39 1 25.4282 2.66496 1.22779 
2 1 27.3635 17.3976 2.46421 
6 1 28.1808 17.3921 1.2278 
10 1 29.5854 17.4073 1.22777 
14 1 26.4262 16.1939 2.46422 
22 1 25.1993 13.6626 2.46421 
25 1 24.7519 12.2507 2.46421 
30 1 26.0305 15.6029 1.22779 
38 1 25.428 14.3507 1.22779 
46 1 30.3339 17.4466 2.46421 
50 1 31.781 17.4478 2.46422 
54 1 32.5165 17.2669 1.22779 
ITEM: TIMESTEP
60
ITEM: NUMBER OF ATOMS
58
ITEM: BOX BOUNDS pp pp pp
0.0000000000000000e+00 3.2808000000000000e+01
0.0000000000000000e+00 1.7780000000000001e+01
0.0000000000000000e+00 2.4729999999999999e+00
ITEM: ATOMS id type x y z 
13 1 7.13558 0.791808 2.4644 
29 1 7.58504 1.34287 1.22761 
37 1 8.22601 2.62695 1.22758 
57 2 1.08933 1.36446 1.22789 
58 3 1.083 2.29499 1.22806 
1 1 6.17049 17.4006 2.46446 
5 1 5.30667 17.4512 1.2275 
9 1 3.96382 17.5391 1.22755 
16 1 7.09999 16.2108 2.4644 
32 1 7.56871 15.673 1.22761 
40 1 8.2255 14.3936 1.22758 
45 1 3.15683 17.4284 2.46448 
49 1 1.83928 16.9258 2.46441 
53 1 1.0716 16.829 1.2276 
4 1 10.9163 8.50951 2.46443 
8 1 11.724 8.50889 1.22755 
12 1 13.1384 8.50787 1.22764 
18 1 9.9749 7.31176 2.4644 
21 1 8.40639 3.33264 2.46441 
26 1 8.72849 4.76694 2.46441 
34 1 9.53051 6.75405 1.22761 
42 1 8.90769 5.47853 1.22759 
48 1 13.911 8.50792 2.46436 
52 1 15.3144 8.50799 2.4644 
56 1 16.0228 8.508 1.2276 
19 1 9.97444 9.70624 2.4644 
24 1 8.40693 13.687 2.46441 
27 1 8.72769 12.254 2.46441 
35 1 9.53014 10.2641 1.22761 
43 1 8.90695 11.5411 1.22759 
3 1 22.6174 8.50719 2.46444 
7 1 21.8317 8.50762 1.22755 
11 1 20.3929 8.50805 1.22764 
20 1 23.5635 7.31704 2.4644 
36 1 24.0198 6.74968 1.22761 
44 1 24.6382 5.48092 1.22759 
47 1 19.6454 8.50802 2.46436 
51 1 18.2297 8.508 2.4644 
55 1 17.5173 8.508 1.2276 
17 1 23.5633 9.69802 2.4644 
33 1 24.0197 10.2652 1.22761 
41 1 24.6377 11.5326 1.22759 
15 1 26.427 0.802108 2.46439 
23 1 25.1372 3.337 2.46441 
28 1 24.8168 4.76623 2.46441 
31 1 25.9692 1.33711 1.22762 
39 1 25.319 2.62609 1.22759 
2 1 27.3842 17.3944 2.46444 
6 1 28.2307 17.3764 1.22753 
10 1 29.6037 17.4403 1.22763 
14 1 26.4132 16.2158 2.46439 
22 1 25.1365 13.677 2.46441 
25 1 24.8161 12.2466 2.46441 
30 1 25.9615 15.6754 1.22762 
38 1 25.3175 14.3876 1.22759 
46 1 30.3161 17.5306 2.46438 
50 1 31.8117 17.4873 2.46439 
54 1 32.4572 17.2304 1.22762 
ITEM: TIMESTEP
70
ITEM: NUMBER OF ATOMS
58
ITEM: BOX BOUNDS pp pp pp
0.0000000000000000e+00 3.2808000000000000e+01
0.0000000000000000e+00 1.7780000000000001e+01
0.0000000000000000e+00 2.4729999999999999e+00
ITEM: ATOMS id type x y z 
13 1 7.14549 0.771173 2.46426 
29 1 7.61544 1.30127 1.22776 
37 1 8.28616 2.60105 1.22775 
57 2 1.09254 1.39412 1.22788 
58 3 1.08438 2.3215 1.22807 
1 1 6.12842 17.4022 2.46425 
5 1 5.31688 17.4736 1.22772 
9 1 3.91027 17.56 1.22776 
16 1 7.10024 16.2234 2.46426 
32 1 7.58369 15.7099 1.22776 
40 1 8.28076 14.4224 1.22775 
45 1 3.15343 17.4157 2.46425 
49 1 1.83398 16.8663 2.46426 
53 1 1.07492 16.7687 1.22775 
4 1 10.8871 8.51259 2.46426 
8 1 11.7146 8.50997 1.22774 
12 1 13.1072 8.50782 1.22774 
18 1 9.94423 7.31691 2.46425 
21 1 8.44761 3.31848 2.46425 
26 1 8.68131 4.75262 2.46425 
34 1 9.48114 6.78365 1.22775 
42 1 8.82804 5.47538 1.22775 
48 1 13.8667 8.50779 2.46424 
52 1 15.3087 8.50797 2.46425 
56 1 16.0413 8.50801 1.22775 
19 1 9.94241 9.70423 2.46425 
24 1 8.44783 13.7041 2.46425 
27 1 8.68095 12.2713 2.46425 
35 1 9.48049 10.2383 1.22775 
43 1 8.82838 11.5493 1.22775 
3 1 22.6551 8.50516 2.46426 
7 1 21.8264 8.50689 1.22774 
11 1 20.4346 8.50809 1.22774 
20 1 23.5994 7.31323 2.46425 
36 1 24.0666 6.78276 1.22775 
44 1 24.7164 5.47518 1.22775 
47 1 19.6794 8.50808 2.46425 
51 1 18.235 8.50801 2.46425 
55 1 17.4976 8.508 1.22774 
17 1 23.5983 9.69963 2.46425 
33 1 24.0656 10.2286 1.22775 
41 1 24.7172 11.535 1.22775 
15 1 26.4215 0.788887 2.46425 
23 1 25.0974 3.31999 2.46425 
28 1 24.8644 4.75041 2.46425 
31 1 25.9421 1.3065 1.22776 
39 1 25.2609 2.59865 1.22775 
2 1 27.4011 17.3928 2.46425 
6 1 28.2149 17.3713 1.22773 
10 1 29.6176 17.4739 1.22775 
14 1 26.4031 16.2322 2.46425 
22 1 25.0949 13.69 2.46425 
25 1 24.8638 12.2599 2.46425 
30 1 25.9266 15.7082 1.22775 
38 1 25.2545 14.4128 1.22776 
46 1 30.372 17.5769 2.46425 
50 1 31.8075 17.4807 2.46426 
54 1 32.5086 17.1986 1.22776 
ITEM: TIMESTEP
80
ITEM: NUMBER OF ATOMS
58
ITEM: BOX BOUNDS pp pp pp
0.0000000000000000e+00 3.2808000000000000e+01
0.0000000000000000e+00 1.7780000000000001e+01
0.0000000000000000e+00 2.4729999999999999e+00
ITEM: ATOMS id type x y z 
13 1 7.14803 0.778528 2.46425 
29 1 7.61657 1.30861 1.22775 
37 1 8.29905 2.59234 1.22775 
57 2 1.09338 1.39684 1.22788 
58 3 1.08492 2.32014 1.22807 
1 1 6.13244 17.406 2.46424 
5 1 5.32006 17.4841 1.22775 
9 1 3.91917 17.5466 1.22775 
16 1 7.09068 16.2195 2.46425 
32 1 7.57064 15.6965 1.22775 
40 1 8.28661 14.4326 1.22775 
45 1 3.16498 17.3931 2.46425 
49 1 1.83238 16.8663 2.46426 
53 1 1.07978 16.7763 1.22775 
4 1 10.8795 8.51371 2.46425 
8 1 11.6942 8.51167 1.22775 
12 1 13.1 8.50796 1.22774 
18 1 9.91885 7.3204 2.46425 
21 1 8.46204 3.31808 2.46425 
26 1 8.66479 4.74922 2.46425 
34 1 9.48384 6.77292 1.22775 
42 1 8.81489 5.47515 1.22775 
48 1 13.8604 8.50747 2.46424 
52 1 15.3 8.50787 2.46425 
56 1 16.047 8.50801 1.22775 
19 1 9.91659 9.70385 2.46425 
24 1 8.46108 13.7078 2.46425 
27 1 8.66648 12.278 2.46425 
35 1 9.48287 10.2516 1.22775 
43 1 8.81649 11.5526 1.22775 
3 1 22.6601 8.50426 2.46425 
7 1 21.8447 8.50543 1.22775 
11 1 20.439 8.50804 1.22775 
20 1 23.6246 7.31521 2.46425 
36 1 24.0652 6.77074 1.22775 
44 1 24.7346 5.47229 1.22775 
47 1 19.6762 8.5083 2.46425 
51 1 18.24 8.50807 2.46425 
55 1 17.4908 8.50801 1.22775 
17 1 23.6229 9.69495 2.46425 
33 1 24.0645 10.239 1.22775 
41 1 24.7365 11.5357 1.22775 
15 1 26.4249 0.789555 2.46425 
23 1 25.0825 3.31366 2.46425 
28 1 24.881 4.74692 2.46425 
31 1 25.9536 1.31462 1.22775 
39 1 25.2482 2.58854 1.22775 
2 1 27.3988 17.388 2.46424 
6 1 28.22 17.3835 1.22775 
10 1 29.6129 17.5065 1.22775 
14 1 26.4038 16.2295 2.46425 
22 1 25.0785 13.6952 2.46425 
25 1 24.8817 12.2612 2.46425 
30 1 25.9297 15.702 1.22775 
38 1 25.2378 14.4217 1.22775 
46 1 30.3634 17.5781 2.46425 
50 1 31.8053 17.4489 2.46426 
54 1 32.5078 17.1983 1.22776 
ITEM: TIMESTEP
90
ITEM: NUMBER OF ATOMS
58
ITEM: BOX BOUNDS pp pp pp
0.0000000000000000e+00 3.2808000000000000e+01
0.0000000000000000e+00 1.7780000000000001e+01
0.0000000000000000e+00 2.4729999999999999e+00
ITEM: ATOMS id type x y z 
13 1 7.15814 0.784496 2.46425 
29 1 7.62474 1.31662 1.22775 
37 1 8.33409 2.59439 1.22775 
57 2 1.09485 1.39585 1.22787 
58 3 1.08579 2.32326 1.22808 
1 1 6.14375 17.4172 2.46425 
5 1 5.33266 17.4974 1.22775 
9 1 3.92596 17.5282 1.22775 
16 1 7.08089 16.207 2.46425 
32 1 7.55143 15.6857 1.22775 
40 1 8.30556 14.4341 1.22775 
45 1 3.17616 17.3641 2.46425 
49 1 1.83488 16.8563 2.46426 
53 1 1.07989 16.7793 1.22775 
4 1 10.8831 8.51637 2.46425 
8 1 11.7081 8.51397 1.22775 
12 1 13.1033 8.50857 1.22775 
18 1 9.92016 7.33228 2.46425 
21 1 8.48276 3.31768 2.46425 
26 1 8.64774 4.76224 2.46425 
34 1 9.48253 6.77787 1.22775 
42 1 8.80223 5.48377 1.22775 
48 1 13.8605 8.50715 2.46425 
52 1 15.3043 8.50751 2.46425 
56 1 16.0476 8.50791 1.22775 
19 1 9.9178 9.69626 2.46425 
24 1 8.47771 13.7148 2.46425 
27 1 8.65368 12.272 2.46425 
35 1 9.48045 10.2524 1.22775 
43 1 8.8069 11.5501 1.22775 
3 1 22.6581 8.50338 2.46425 
7 1 21.8325 8.50415 1.22775 
11 1 20.438 8.50751 1.22775 
20 1 23.6251 7.32369 2.46425 
36 1 24.0634 6.76911 1.22775 
44 1 24.7405 5.47636 1.22775 
47 1 19.6822 8.50857 2.46425 
51 1 18.2368 8.50833 2.46425 
55 1 17.4943 8.50809 1.22775 
17 1 23.6244 9.6852 2.46425 
33 1 24.0628 10.2386 1.22775 
41 1 24.7432 11.5295 1.22775 
15 1 26.422 0.798585 2.46425 
23 1 25.0639 3.31194 2.46425 
28 1 24.8967 4.75264 2.46425 
31 1 25.963 1.32689 1.22775 
39 1 25.23 2.58965 1.22775 
2 1 27.3884 17.3832 2.46425 
6 1 28.2027 17.3995 1.22775 
10 1 29.6013 17.543 1.22775 
14 1 26.4004 16.2161 2.46425 
22 1 25.0578 13.6951 2.46425 
25 1 24.8994 12.2536 2.46425 
30 1 25.932 15.6903 1.22775 
38 1 25.2138 14.42 1.22775 
46 1 30.3621 17.5944 2.46425 
50 1 31.7904 17.4205 2.46425 
54 1 32.5043 17.1774 1.22775 
ITEM: TIMESTEP
100
ITEM: NUMBER OF ATOMS
58
ITEM: BOX BOUNDS pp pp pp
0.0000000000000000e+00 3.2808000000000000e+01
0.0000000000000000e+00 1.7780000000000001e+01
0.0000000000000000e+00 2.4729999999999999e+00
ITEM: ATOMS id type x y z 
13 1 7.16581 0.787191 2.46425 
29 1 7.62684 1.31972 1.22775 
37 1 8.33464 2.59433 1.22775 
57 2 1.09534 1.39756 1.22787 
58 3 1.08611 2.32218 1.22809 
1 1 6.14744 17.4205 2.46425 
5 1 5.33559 17.5002 1.22775 
9 1 3.92974 17.5132 1.22775 
16 1 7.08012 16.2084 2.46425 
32 1 7.54417 15.6809 1.22775 
40 1 8.29999 14.4351 1.22775 
45 1 3.18328 17.3487 2.46425 
49 1 1.83242 16.862 2.46426 
53 1 1.08037 16.7908 1.22775 
4 1 10.8797 8.51691 2.46425 
8 1 11.6983 8.51492 1.22775 
12 1 13.1007 8.50876 1.22775 
18 1 9.9163 7.32772 2.46425 
21 1 8.48749 3.32057 2.46425 
26 1 8.64696 4.76059 2.46425 
34 1 9.48141 6.7765 1.22775 
42 1 8.80216 5.48543 1.22775 
48 1 13.8601 8.50709 2.46425 
52 1 15.301 8.50733 2.46425 
56 1 16.0481 8.50781 1.22775 
19 1 9.91364 9.70271 2.46425 
24 1 8.47933 13.714 2.46425 
27 1 8.65444 12.2758 2.46425 
35 1 9.4795 10.2557 1.22775 
43 1 8.80833 11.551 1.22775 
3 1 22.6605 8.50379 2.46425 
7 1 21.8419 8.50407 1.22775 
11 1 20.4394 8.50741 1.22775 
20 1 23.6276 7.31812 2.46425 
36 1 24.0648 6.76813 1.22775 
44 1 24.743 5.47628 1.22775 
47 1 19.6803 8.50855 2.46425 
51 1 18.2392 8.50846 2.46425 
55 1 17.4923 8.50817 1.22775 
17 1 23.6268 9.69039 2.46425 
33 1 24.0645 10.2398 1.22775 
41 1 24.7461 11.5297 1.22775 
15 1 26.4208 0.796612 2.46425 
23 1 25.0616 3.31151 2.46425 
28 1 24.8967 4.75105 2.46425 
31 1 25.965 1.32903 1.22775 
39 1 25.23 2.58852 1.22775 
2 1 27.3867 17.3828 2.46425 
6 1 28.2049 17.4054 1.22775 
10 1 29.599 17.5519 1.22775 
14 1 26.4014 16.2163 2.46425 
22 1 25.0548 13.6957 2.46425 
25 1 24.8996 12.2554 2.46425 
30 1 25.9354 15.6873 1.22775 
38 1 25.213 14.4215 1.22775 
46 1 30.3578 17.5942 2.46425 
50 1 31.7864 17.4062 2.46425 
54 1 32.4984 17.1701 1.22775 
ITEM: TIMESTEP
110
ITEM: NUMBER OF ATOMS
58
ITEM: BOX BOUNDS pp pp pp
0.0000000000000000e+00 3.2808000000000000e+01
0.0000000000000000e+00 1.7780000000000001e+01
0.0000000000000000e+00 2.4729999999999999e+00
ITEM: ATOMS id type x y z 
13 1 7.17039 0.788565 2.46425 
29 1 7.63162 1.32149 1.22775 
37 1 8.33998 2.59508 1.22775 
57 2 1.09574 1.39776 1.22786 
58 3 1.08636 2.32249 1.22809 
1 1 6.15146 17.4236 2.46425 
5 1 5.33901 17.5029 1.22775 
9 1 3.93366 17.5037 1.22775 
16 1 7.07809 16.2072 2.46425 
32 1 7.54057 15.679 1.22775 
40 1 8.29928 14.4353 1.22775 
45 1 3.18674 17.3382 2.46425 
49 1 1.8321 16.8634 2.46425 
53 1 1.07968 16.7937 1.22775 
4 1 10.88 8.51782 2.46425 
8 1 11.6988 8.51568 1.22775 
12 1 13.1011 8.50896 1.22775 
18 1 9.91671 7.32873 2.46425 
21 1 8.49165 3.32221 2.46425 
26 1 8.6465 4.7625 2.46425 
34 1 9.4813 6.77825 1.22775 
42 1 8.79925 5.48738 1.22775 
48 1 13.8603 8.50708 2.46425 
52 1 15.3008 8.50719 2.46425 
56 1 16.0484 8.50771 1.22775 
19 1 9.91401 9.70305 2.46425 
24 1 8.48088 13.7141 2.46425 
27 1 8.6553 12.2762 2.46425 
35 1 9.47985 10.2553 1.22775 
43 1 8.80683 11.5517 1.22775 
3 1 22.66 8.50398 2.46425 
7 1 21.8417 8.50415 1.22775 
11 1 20.4394 8.50732 1.22775 
20 1 23.6271 7.31823 2.46425 
36 1 24.0647 6.76852 1.22775 
44 1 24.7448 5.47716 1.22775 
47 1 19.6805 8.5085 2.46425 
51 1 18.2391 8.50855 2.46425 
55 1 17.4922 8.50824 1.22775 
17 1 23.6266 9.69048 2.46425 
33 1 24.0647 10.2396 1.22775 
41 1 24.748 11.5291 1.22775 
15 1 26.419 0.797382 2.46425 
23 1 25.0595 3.31239 2.46425 
28 1 24.8964 4.75178 2.46425 
31 1 25.9639 1.3305 1.22775 
39 1 25.2282 2.58874 1.22775 
2 1 27.3847 17.3831 2.46425 
6 1 28.2023 17.4084 1.22775 
10 1 29.596 17.5584 1.22775 
14 1 26.4021 16.2141 2.46425 
22 1 25.0521 13.6951 2.46425 
25 1 24.8993 12.2549 2.46425 
30 1 25.9359 15.6849 1.22775 
38 1 25.2109 14.4217 1.22775 
46 1 30.3548 17.5973 2.46425 
50 1 31.7824 17.3985 2.46425 
54 1 32.4945 17.163 1.22775 
ITEM: TIMESTEP
112
ITEM: NUMBER OF ATOMS
58
ITEM: BOX BOUNDS pp pp pp
0.0000000000000000e+00 3.2808000000000000e+01
0.0000000000000000e+00 1.7780000000000001e+01
0.0000000000000000e+00 2.4729999999999999e+00
ITEM: ATOMS id type x y z 
13 1 7.17039 0.788565 2.46425 
29 1 7.63162 1.32149 1.22775 
37 1 8.33998 2.59508 1.22775 
57 2 1.09574 1.39776 1.22786 
58 3 1.08636 2.32249 1.22809 
1 1 6.15146 17.4236 2.46425 
5 1 5.33901 17.5029 1.22775 
9 1 3.93366 17.5037 1.22775 
16 1 7.07809 16.2072 2.46425 
32 1 7.54057 15.679 1.22775 
40 1 8.29928 14.4353 1.22775 
45 1 3.18674 17.3382 2.46425 
49 1 1.8321 16.8634 2.46425 
53 1 1.07968 16.7937 1.22775 
4 1 10.88 8.51782 2.46425 
8 1 11.6988 8.51568 1.22775 
12 1 13.1011 8.50896 1.22775 
18 1 9.91671 7.32873 2.46425 
21 1 8.49165 3.32221 2.46425 
26 1 8.6465 4.7625 2.46425 
34 1 9.4813 6.77825 1.22775 
42 1 8.79925 5.48738 1.22775 
48 1 13.8603 8.50708 2.46425 
52 1 15.3009 8.50719 2.46425 
56 1 16.0484 8.50771 1.22775 
19 1 9.91401 9.70305 2.46425 
24 1 8.48088 13.7141 2.46425 
27 1 8.6553 12.2762 2.46425 
35 1 9.47985 10.2553 1.22775 
43 1 8.80683 11.5517 1.22775 
3 1 22.66 8.50398 2.46425 
7 1 21.8417 8.50415 1.22775 
11 1 20.4394 8.50732 1.22775 
20 1 23.6271 7.31823 2.46425 
36 1 24.0647 6.76852 1.22775 
44 1 24.7448 5.47716 1.22775 
47 1 19.6805 8.5085 2.46425 
51 1 18.2391 8.50855 2.46425 
55 1 17.4922 8.50824 1.22775 
17 1 23.6266 9.69048 2.46425 
33 1 24.0647 10.2396 1.22775 
41 1 24.748 11.5291 1.22775 
15 1 26.419 0.797382 2.46425 
23 1 25.0595 3.31239 2.46425 
28 1 24.8964 4.75178 2.46425 
31 1 25.9639 1.3305 1.22775 
39 1 25.2282 2.58874 1.22775 
2 1 27.3847 17.3831 2.46425 
6 1 28.2023 17.4084 1.22775 
10 1 29.596 17.5584 1.22775 
14 1 26.4021 16.2141 2.46425 
22 1 25.0521 13.6951 2.46425 
25 1 24.8993 12.2549 2.46425 
30 1 25.9359 15.6849 1.22775 
38 1 25.2109 14.4217 1.22775 
46 1 30.3548 17.5973 2.46425 
50 1 31.7824 17.3985 2.46425 
54 1 32.4945 17.163 1.22775 
ITEM: TIMESTEP
113
ITEM: NUMBER OF ATOMS
58
ITEM: BOX BOUNDS pp pp pp
0.0000000000000000e+00 3.2808000000000000e+01
0.0000000000000000e+00 1.7780000000000001e+01
0.0000000000000000e+00 2.4729999999999999e+00
ITEM: ATOMS id type x y z 
13 1 7.17039 0.788565 2.46425 
29 1 7.63162 1.32149 1.22775 
58 3 1.08636 2.32249 1.22809 
57 2 1.09574 1.39776 1.22786 
1 1 6.15146 17.4236 2.46425 
5 1 5.33901 17.5029 1.22775 
9 1 3.93366 17.5037 1.22775 
16 1 7.07809 16.2072 2.46425 
32 1 7.54057 15.679 1.22775 
53 1 1.07968 16.7937 1.22775 
45 1 3.18674 17.3382 2.46425 
49 1 1.8321 16.8634 2.46425 
4 1 10.88 8.51782 2.46425 
8 1 11.6988 8.51568 1.22775 
12 1 13.1011 8.50896 1.22775 
18 1 9.91671 7.32873 2.46425 
21 1 8.49165 3.32221 2.46425 
26 1 8.6465 4.7625 2.46425 
34 1 9.4813 6.77825 1.22775 
42 1 8.79925 5.48738 1.22775 
48 1 13.8603 8.50708 2.46425 
52 1 15.3009 8.50719 2.46425 
56 1 16.0484 8.50771 1.22775 
37 1 8.33998 2.59508 1.22775 
19 1 9.91401 9.70305 2.46425 
24 1 8.48088 13.7141 2.46425 
27 1 8.6553 12.2762 2.46425 
35 1 9.47985 10.2553 1.22775 
43 1 8.80683 11.5517 1.22775 
40 1 8.29928 14.4353 1.22775 
3 1 22.66 8.50398 2.46425 
7 1 21.8417 8.50415 1.22775 
11 1 20.4394 8.50732 1.22775 
20 1 23.6271 7.31823 2.46425 
36 1 24.0647 6.76852 1.22775 
55 1 17.4922 8.50824 1.22775 
47 1 19.6805 8.5085 2.46425 
51 1 18.2391 8.50855 2.46425 
17 1 23.6266 9.69048 2.46425 
33 1 24.0647 10.2396 1.22775 
15 1 26.419 0.797382 2.46425 
23 1 25.0595 3.31239 2.46425 
28 1 24.8964 4.75178 2.46425 
31 1 25.9639 1.3305 1.22775 
39 1 25.2282 2.58874 1.22775 
44 1 24.7448 5.47717 1.22775 
2 1 27.3847 17.3831 2.46425 
6 1 28.2023 17.4084 1.22775 
10 1 29.596 17.5584 1.22775 
14 1 26.4021 16.2141 2.46425 
22 1 25.0521 13.6951 2.46425 
25 1 24.8993 12.2549 2.46425 
30 1 25.9359 15.6849 1.22775 
38 1 25.2109 14.4217 1.22775 
46 1 30.3548 17.5973 2.46425 
50 1 31.7824 17.3985 2.46425 
54 1 32.4945 17.163 1.22775 
41 1 24.748 11.5291 1.22775 
ITEM: TIMESTEP
120
ITEM: NUMBER OF ATOMS
58
ITEM: BOX BOUNDS pp pp pp
-4.1888923300272395e-03 3.2812188892330035e+01
-3.0993160729042438e-03 1.7783099316072907e+01
-8.6554999999999998e-04 2.4738655499999993e+00
ITEM: ATOMS id type x y z 
13 1 7.16803 0.78574 2.46511 
29 1 7.62938 1.31886 1.22774 
58 3 1.08245 2.3202 1.22808 
57 2 1.09183 1.39514 1.22786 
1 1 6.14884 17.4266 2.46511 
5 1 5.33619 17.5059 1.22775 
9 1 3.93048 17.5067 1.22775 
16 1 7.07571 16.2098 2.46511 
32 1 7.5383 15.6814 1.22775 
53 1 1.07577 16.7965 1.22775 
45 1 3.18337 17.3411 2.46511 
49 1 1.82838 16.8661 2.46511 
4 1 10.8786 8.51769 2.46511 
8 1 11.6976 8.51555 1.22774 
12 1 13.1003 8.50883 1.22774 
18 1 9.91505 7.32819 2.46511 
21 1 8.48963 3.32026 2.46511 
26 1 8.64452 4.76106 2.46511 
34 1 9.47954 6.77751 1.22774 
42 1 8.79731 5.4862 1.22775 
48 1 13.8597 8.50695 2.46511 
52 1 15.3006 8.50705 2.46511 
56 1 16.0483 8.50758 1.22774 
37 1 8.33792 2.59289 1.22775 
19 1 9.91235 9.70334 2.46511 
24 1 8.47885 13.7157 2.46511 
27 1 8.65332 12.2774 2.46511 
35 1 9.47808 10.2558 1.22774 
43 1 8.80489 11.5526 1.22775 
40 1 8.29721 14.4373 1.22775 
3 1 22.6616 8.50384 2.46511 
7 1 21.8431 8.50402 1.22774 
11 1 20.4405 8.50719 1.22774 
20 1 23.6289 7.31768 2.46511 
36 1 24.0667 6.76778 1.22774 
55 1 17.4925 8.50811 1.22774 
47 1 19.6813 8.50836 2.46511 
51 1 18.2396 8.50842 2.46511 
17 1 23.6284 9.69076 2.46511 
33 1 24.0667 10.2401 1.22774 
15 1 26.4215 0.79456 2.46511 
23 1 25.0617 3.31044 2.46511 
28 1 24.8985 4.75034 2.46511 
31 1 25.9663 1.32786 1.22775 
39 1 25.2304 2.58655 1.22775 
44 1 24.7469 5.47597 1.22775 
2 1 27.3875 17.386 2.46511 
6 1 28.2053 17.4113 1.22774 
10 1 29.5994 17.5614 1.22774 
14 1 26.4046 16.2166 2.46511 
22 1 25.0543 13.6968 2.46511 
25 1 24.9014 12.2561 2.46511 
30 1 25.9384 15.6873 1.22774 
38 1 25.2131 14.4236 1.22775 
46 1 30.3584 17.6003 2.46511 
50 1 31.7863 17.4015 2.46511 
54 1 32.4986 17.1659 1.22775 
41 1 24.7501 11.53 1.22775 
ITEM: TIMESTEP
130
ITEM: NUMBER OF ATOMS
58
ITEM: BOX BOUNDS pp pp pp
6.6401662934612148e-03 3.2801359833706549e+01
-3.3093509947596396e-03 1.7783309350994767e+01
-1.9030921255485161e-03 2.4749030921255470e+00
ITEM: ATOMS id type x y z 
13 1 7.17414 0.785537 2.46614 
29 1 7.63513 1.31868 1.22774 
58 3 1.09256 2.32004 1.22808 
57 2 1.10194 1.39497 1.22785 
1 1 6.15563 17.4268 2.46614 
5 1 5.34353 17.5061 1.22774 
9 1 3.9387 17.5068 1.22774 
16 1 7.08189 16.21 2.46614 
32 1 7.54411 15.6815 1.22774 
53 1 1.08588 16.7968 1.22774 
45 1 3.19212 17.3413 2.46614 
49 1 1.83799 16.8664 2.46614 
4 1 10.8822 8.51768 2.46614 
8 1 11.7007 8.51554 1.22774 
12 1 13.1025 8.50882 1.22773 
18 1 9.91933 7.32816 2.46614 
21 1 8.49483 3.32007 2.46614 
26 1 8.64967 4.76102 2.46614 
34 1 9.48413 6.77743 1.22774 
42 1 8.80237 5.48606 1.22774 
48 1 13.8614 8.50694 2.46614 
52 1 15.3013 8.50704 2.46614 
56 1 16.0485 8.50757 1.22773 
37 1 8.34321 2.59284 1.22774 
19 1 9.91663 9.70335 2.46614 
24 1 8.48405 13.7159 2.46614 
27 1 8.65847 12.2774 2.46614 
35 1 9.48266 10.2558 1.22774 
43 1 8.80996 11.5527 1.22774 