ITEM: TIMESTEP
0
ITEM: NUMBER OF ATOMS
128
ITEM: BOX BOUNDS xy xz yz pp pp pp
-7.7138999999999998e+00 1.5427800000000000e+01 -7.7138999999999998e+00
0.0000000000000000e+00 1.3360866724506000e+01 0.0000000000000000e+00
0.0000000000000000e+00 2.5208400000000001e+01 0.0000000000000000e+00
ITEM: ATOMS id type x y z 
33 1 0 6.63367 0.887588 
77 1 0 6.63367 11.7166 
41 1 5.74493 3.31684 13.4918 
68 1 5.74493 3.31684 24.3208 
11 1 0 7.53072 3.57455 
12 1 -7.7139e-05 8.90729 4.25846 
14 1 0 11.435 0.678862 
15 1 1.19172 11.0194 1.56595 
16 1 -1.96897 10.044 0.887588 
18 1 -1.2208 7.3458 2.87275 
19 1 -7.7139e-05 8.90729 5.69785 
20 1 3.36403 6.96502 0.199146 
29 1 1.19211 9.59551 3.57455 
31 1 -2.18913 7.64335 0.678862 
32 1 -2.42502 8.88324 1.56595 
35 1 1.96265 8.63072 2.87275 
36 1 0 12.7917 0.199146 
45 1 -1.19211 9.59551 3.57455 
47 1 2.18913 7.64335 0.678862 
48 1 1.2333 6.81912 1.56595 
51 1 -0.741846 10.7452 2.87275 
52 1 -3.36403 6.96502 0.199146 
53 1 0 7.53072 9.02965 
54 1 7.7139e-05 8.90729 8.34574 
56 1 0 11.435 11.9253 
57 1 -1.19172 11.0194 11.0383 
60 1 1.2208 7.3458 9.73145 
61 1 7.7139e-05 8.90729 6.90635 
62 1 -3.36403 6.96502 12.4051 
73 1 -1.19211 9.59551 9.02965 
75 1 2.18913 7.64335 11.9253 
76 1 2.42502 8.88324 11.0383 
79 1 -1.96265 8.63072 9.73145 
80 1 0 12.7917 12.4051 
89 1 1.19211 9.59551 9.02965 
91 1 -2.18913 7.64335 11.9253 
92 1 -1.2333 6.81912 11.0383 
93 1 -1.96897 10.044 11.7166 
95 1 0.741846 10.7452 9.73145 
96 1 3.36403 6.96502 12.4051 
105 1 1.19172 11.0194 11.0383 
106 1 -1.2208 7.3458 9.73145 
109 1 -2.42502 8.88324 11.0383 
110 1 1.96265 8.63072 9.73145 
113 1 1.2333 6.81912 11.0383 
114 1 -0.741846 10.7452 9.73145 
119 1 -1.19172 11.0194 1.56595 
120 1 1.2208 7.3458 2.87275 
123 1 2.42502 8.88324 1.56595 
124 1 -1.96265 8.63072 2.87275 
127 1 -1.2333 6.81912 1.56595 
128 1 0.741846 10.7452 2.87275 
13 1 -7.7139e-05 10.3251 24.8114 
17 1 -1.21016 9.60593 24.8671 
30 1 -1.2279 8.19823 24.8114 
34 1 0 7.50988 24.8671 
46 1 1.22798 8.19836 24.8114 
50 1 1.21016 9.60593 24.8671 
55 1 7.7139e-05 10.3251 13.0012 
59 1 1.21016 9.60593 12.9455 
74 1 1.2279 8.19823 13.0012 
78 1 0 7.50988 12.9455 
90 1 -1.22798 8.19836 13.0012 
94 1 -1.21016 9.60593 12.9455 
3 1 7.71398 3.03572 12.2072 
7 1 8.92406 3.75494 12.2629 
22 1 8.9418 5.16264 12.2072 
26 1 7.7139 5.85099 12.2629 
38 1 6.48592 5.16251 12.2072 
42 1 6.50374 3.75494 12.2629 
65 1 7.71382 3.03572 0.397032 
69 1 6.50374 3.75494 0.341322 
82 1 6.486 5.16264 0.397032 
86 1 7.7139 5.85099 0.341322 
98 1 8.94188 5.16251 0.397032 
102 1 8.92406 3.75494 0.341322 
1 1 7.7139 5.83015 16.1788 
2 1 7.71398 4.45358 16.8627 
4 1 7.7139 1.92584 13.2831 
5 1 6.52218 2.34149 14.1701 
6 1 9.68287 3.31684 13.4918 
8 1 8.9347 6.01506 15.4769 
9 1 7.71398 4.45358 18.3021 
10 1 4.34987 6.39585 12.8033 
21 1 6.52179 3.76536 16.1788 
23 1 9.90303 5.71752 13.2831 
24 1 10.1389 4.47763 14.1701 
27 1 5.75125 4.73015 15.4769 
28 1 7.7139 0.569173 12.8033 
37 1 8.90601 3.76536 16.1788 
39 1 5.52477 5.71752 13.2831 
40 1 6.4806 6.54175 14.1701 
43 1 8.45575 2.61566 15.4769 
44 1 11.0779 6.39585 12.8033 
63 1 7.7139 5.83015 21.6338 
64 1 7.71382 4.45358 20.9499 
66 1 7.7139 1.92584 24.5295 
67 1 8.90562 2.34149 23.6425 
70 1 6.4931 6.01506 22.3357 
71 1 7.71382 4.45358 19.5105 
72 1 11.0779 6.39585 25.0093 
81 1 8.90601 3.76536 21.6338 
83 1 5.52477 5.71752 24.5295 
84 1 5.28888 4.47763 23.6425 
87 1 9.67655 4.73015 22.3357 
88 1 7.7139 0.569173 25.0093 
97 1 6.52179 3.76536 21.6338 
99 1 9.90303 5.71752 24.5295 
100 1 8.9472 6.54175 23.6425 
101 1 9.68287 3.31684 24.3208 
103 1 6.97205 2.61566 22.3357 
104 1 4.34987 6.39585 25.0093 
107 1 6.52218 2.34149 23.6425 
108 1 8.9347 6.01506 22.3357 
111 1 10.1389 4.47763 23.6425 
112 1 5.75125 4.73015 22.3357 
115 1 6.4806 6.54175 23.6425 
116 1 8.45575 2.61566 22.3357 
117 1 8.90562 2.34149 14.1701 
118 1 6.4931 6.01506 15.4769 
121 1 5.28888 4.47763 14.1701 
122 1 9.67655 4.73015 15.4769 
125 1 8.9472 6.54175 14.1701 
126 1 6.97205 2.61566 15.4769 
49 1 1.96897 10.044 0.887588 
58 1 1.96897 10.044 11.7166 
25 1 7.7139 6.7272 13.4918 
85 1 7.7139 6.7272 24.3208 
ITEM: TIMESTEP
10
ITEM: NUMBER OF ATOMS
128
ITEM: BOX BOUNDS xy xz yz pp pp pp
-7.7138999999999998e+00 1.5427800000000000e+01 -7.7138999999999998e+00
0.0000000000000000e+00 1.3360866724506000e+01 0.0000000000000000e+00
0.0000000000000000e+00 2.5208400000000001e+01 0.0000000000000000e+00
ITEM: ATOMS id type x y z 
33 1 1.93789e-06 6.63135 0.891613 
77 1 -1.93793e-06 6.63135 11.7126 
41 1 5.74293 3.31567 13.4958 
68 1 5.74293 3.31569 24.3168 
11 1 -2.90901e-06 7.51022 3.56713 
12 1 0.000162194 8.90699 4.20299 
14 1 -7.73799e-06 11.3751 0.696741 
15 1 1.20476 11.0168 1.56585 
16 1 -1.97097 10.0452 0.891628 
18 1 -1.21464 7.33045 2.87948 
19 1 -0.000778447 8.90764 5.69568 
20 1 3.36194 6.96623 0.201748 
29 1 1.2098 9.60573 3.56709 
31 1 -2.1372 7.67333 0.696735 
32 1 -2.42933 8.89581 1.56587 
35 1 1.97284 8.64379 2.8795 
36 1 -9.50085e-08 12.7893 0.201748 
45 1 -1.20984 9.60576 3.567 
47 1 2.13722 7.67334 0.696734 
48 1 1.22459 6.80908 1.56586 
51 1 -0.758271 10.7474 2.87951 
52 1 -3.36194 6.96622 0.201747 
53 1 2.9089e-06 7.51022 9.03707 
54 1 -0.000162191 8.90699 8.40121 
56 1 7.7379e-06 11.3751 11.9075 
57 1 -1.20476 11.0168 11.0384 
60 1 1.21464 7.33045 9.72472 
61 1 0.000778442 8.90764 6.90852 
62 1 -3.36194 6.96623 12.4025 
73 1 -1.2098 9.60573 9.03711 
75 1 2.1372 7.67333 11.9075 
76 1 2.42933 8.89581 11.0383 
79 1 -1.97284 8.64379 9.7247 
80 1 9.5007e-08 12.7893 12.4025 
89 1 1.20984 9.60576 9.0372 
91 1 -2.13722 7.67334 11.9075 
92 1 -1.22459 6.80908 11.0383 
93 1 -1.97097 10.0452 11.7126 
95 1 0.758271 10.7474 9.72469 
96 1 3.36194 6.96622 12.4025 
105 1 1.20476 11.0168 11.0383 
106 1 -1.21462 7.33044 9.72472 
109 1 -2.42934 8.89581 11.0383 
110 1 1.97279 8.64384 9.72469 
113 1 1.22458 6.80908 11.0384 
114 1 -0.758222 10.7475 9.7247 
119 1 -1.20476 11.0168 1.56588 
120 1 1.21462 7.33044 2.87948 
123 1 2.42934 8.89581 1.56585 
124 1 -1.97279 8.64384 2.87951 
127 1 -1.22458 6.80908 1.56585 
128 1 0.758222 10.7475 2.8795 
13 1 6.82975e-06 10.3275 24.8083 
17 1 -1.21948 9.61126 24.8598 
30 1 -1.22997 8.19714 24.8083 
34 1 4.77641e-05 7.49914 24.8598 
46 1 1.22996 8.19712 24.8082 
50 1 1.21943 9.61135 24.8598 
55 1 -6.82977e-06 10.3275 13.0043 
59 1 1.21948 9.61126 12.9528 
74 1 1.22997 8.19714 13.0043 
78 1 -4.77641e-05 7.49914 12.9528 
90 1 -1.22996 8.19712 13.0044 
94 1 -1.21943 9.61135 12.9528 
3 1 7.71389 3.03338 12.2041 
7 1 8.93338 3.74961 12.2556 
22 1 8.94387 5.16373 12.2041 
26 1 7.71385 5.86173 12.2556 
38 1 6.48394 5.16375 12.204 
42 1 6.49447 3.74952 12.2556 
65 1 7.71391 3.03338 0.400144 
69 1 6.49442 3.74961 0.348623 
82 1 6.48393 5.16373 0.400149 
86 1 7.71395 5.86173 0.348636 
98 1 8.94386 5.16375 0.400152 
102 1 8.93333 3.74952 0.348631 
1 1 7.7139 5.85064 16.1713 
2 1 7.71374 4.45388 16.8072 
4 1 7.71391 1.9858 13.3009 
5 1 6.50914 2.34403 14.17 
6 1 9.68487 3.31569 13.4958 
8 1 8.92854 6.03041 15.4837 
9 1 7.71468 4.45323 18.2999 
10 1 4.35196 6.39464 12.8059 
21 1 6.5041 3.75513 16.1713 
23 1 9.8511 5.68754 13.3009 
24 1 10.1432 4.46506 14.1701 
27 1 5.74106 4.71708 15.4837 
28 1 7.7139 0.571585 12.8059 
37 1 8.92374 3.75511 16.1712 
39 1 5.57668 5.68752 13.3009 
40 1 6.48931 6.55179 14.1701 
43 1 8.47217 2.61345 15.4837 
44 1 11.0758 6.39465 12.8059 
63 1 7.7139 5.85064 21.6413 
64 1 7.71406 4.45388 21.0054 
66 1 7.71389 1.9858 24.5117 
67 1 8.91866 2.34403 23.6426 
70 1 6.49926 6.03041 22.3289 
71 1 7.71312 4.45323 19.5127 
72 1 11.0758 6.39464 25.0067 
81 1 8.9237 3.75513 21.6413 
83 1 5.5767 5.68754 24.5117 
84 1 5.28457 4.46506 23.6425 
87 1 9.68674 4.71708 22.3289 
88 1 7.7139 0.571585 25.0067 
97 1 6.50406 3.75511 21.6414 
99 1 9.85112 5.68752 24.5117 
100 1 8.93849 6.55179 23.6425 
101 1 9.68487 3.31567 24.3168 
103 1 6.95563 2.61345 22.3289 
104 1 4.35196 6.39465 25.0067 
107 1 6.50914 2.34405 23.6425 
108 1 8.92852 6.03042 22.3289 
111 1 10.1432 4.46505 23.6425 
112 1 5.74111 4.71702 22.3289 
115 1 6.48932 6.55179 23.6426 
116 1 8.47212 2.61336 22.3289 
117 1 8.91866 2.34405 14.1701 
118 1 6.49928 6.03042 15.4837 
121 1 5.28456 4.46505 14.1701 
122 1 9.68669 4.71702 15.4837 
125 1 8.93848 6.55179 14.17 
126 1 6.95568 2.61336 15.4837 
49 1 1.97097 10.0452 0.891623 
58 1 1.97097 10.0452 11.7126 
25 1 7.7139 6.72951 13.4958 
85 1 7.7139 6.72951 24.3168 
ITEM: TIMESTEP
20
ITEM: NUMBER OF ATOMS
128
ITEM: BOX BOUNDS xy xz yz pp pp pp
-7.7138999999999998e+00 1.5427800000000000e+01 -7.7138999999999998e+00
0.0000000000000000e+00 1.3360866724506000e+01 0.0000000000000000e+00
0.0000000000000000e+00 2.5208400000000001e+01 0.0000000000000000e+00
ITEM: ATOMS id type x y z 
33 1 1.41271e-05 6.62831 0.888561 
77 1 -1.41271e-05 6.62831 11.7156 
41 1 5.74027 3.31416 13.4928 
68 1 5.74026 3.31417 24.3198 
11 1 -3.96004e-06 7.51752 3.56935 
12 1 -5.0498e-05 8.90733 4.19581 
14 1 -4.76268e-06 11.3733 0.701436 
15 1 1.20125 11.018 1.56512 
16 1 -1.97364 10.0467 0.888555 
18 1 -1.21748 7.32946 2.87984 
19 1 5.19781e-05 8.90735 5.69761 
20 1 3.36336 6.96541 0.200742 
29 1 1.20347 9.60205 3.56938 
31 1 -2.1356 7.67425 0.701432 
32 1 -2.42856 8.89219 1.56511 
35 1 1.97515 8.64174 2.87982 
36 1 -2.55715e-06 12.7909 0.200741 
45 1 -1.20351 9.60207 3.56938 
47 1 2.1356 7.67427 0.701438 
48 1 1.22731 6.81159 1.56511 
51 1 -0.757644 10.7505 2.87984 
52 1 -3.36336 6.9654 0.200741 
53 1 3.96005e-06 7.51752 9.03485 
54 1 5.0501e-05 8.90733 8.40839 
56 1 4.76248e-06 11.3733 11.9028 
57 1 -1.20125 11.018 11.0391 
60 1 1.21748 7.32946 9.72436 
61 1 -5.19864e-05 8.90735 6.90659 
62 1 -3.36336 6.96541 12.4035 
73 1 -1.20347 9.60205 9.03482 
75 1 2.1356 7.67425 11.9028 
76 1 2.42856 8.89219 11.0391 
79 1 -1.97515 8.64174 9.72438 
80 1 2.5571e-06 12.7909 12.4035 
89 1 1.20351 9.60207 9.03482 
91 1 -2.1356 7.67427 11.9028 
92 1 -1.22731 6.81159 11.0391 
93 1 -1.97363 10.0467 11.7156 
95 1 0.757644 10.7505 9.72436 
96 1 3.36336 6.9654 12.4035 
105 1 1.20126 11.018 11.0391 
106 1 -1.21747 7.32946 9.72437 
109 1 -2.42855 8.89219 11.0391 
110 1 1.97516 8.64173 9.72439 
113 1 1.22731 6.81158 11.0391 
114 1 -0.757645 10.7505 9.72435 
119 1 -1.20126 11.018 1.56512 
120 1 1.21747 7.32946 2.87983 
123 1 2.42855 8.89219 1.56511 
124 1 -1.97516 8.64173 2.87981 
127 1 -1.22731 6.81158 1.56511 
128 1 0.757645 10.7505 2.87985 
13 1 -1.37008e-05 10.3247 24.8076 
17 1 -1.21866 9.6108 24.8595 
30 1 -1.22757 8.19848 24.8076 
34 1 2.51202e-05 7.50009 24.8595 
46 1 1.22759 8.19851 24.8076 
50 1 1.21864 9.61081 24.8595 
55 1 1.37007e-05 10.3247 13.005 
59 1 1.21866 9.6108 12.9531 
74 1 1.22757 8.19848 13.005 
78 1 -2.51202e-05 7.50009 12.9531 
90 1 -1.22759 8.19851 13.005 
94 1 -1.21864 9.61081 12.9531 
3 1 7.71391 3.03612 12.2034 
7 1 8.93256 3.75007 12.2553 
22 1 8.94147 5.16239 12.2034 
26 1 7.71387 5.86078 12.2553 
38 1 6.48631 5.16235 12.2034 
42 1 6.49526 3.75005 12.2553 
65 1 7.71389 3.03612 0.4008 
69 1 6.49524 3.75007 0.34893 
82 1 6.48633 5.16239 0.400775 
86 1 7.71393 5.86078 0.348915 
98 1 8.94149 5.16235 0.400763 
102 1 8.93254 3.75005 0.348929 
1 1 7.7139 5.84335 16.1736 
2 1 7.71395 4.45353 16.8 
4 1 7.7139 1.98762 13.3056 
5 1 6.51265 2.34289 14.1693 
6 1 9.68754 3.31417 13.4928 
8 1 8.93138 6.03141 15.484 
9 1 7.71385 4.45352 18.3018 
10 1 4.35054 6.39545 12.8049 
21 1 6.51043 3.75882 16.1736 
23 1 9.8495 5.68662 13.3056 
24 1 10.1425 4.46868 14.1693 
27 1 5.73875 4.71913 15.484 
28 1 7.7139 0.569943 12.8049 
37 1 8.91741 3.7588 16.1736 
39 1 5.5783 5.6866 13.3056 
40 1 6.48659 6.54928 14.1693 
43 1 8.47154 2.61034 15.484 
44 1 11.0773 6.39546 12.8049 
63 1 7.7139 5.84335 21.639 
64 1 7.71385 4.45353 21.0126 
66 1 7.7139 1.98762 24.507 
67 1 8.91515 2.34289 23.6433 
70 1 6.49642 6.03141 22.3286 
71 1 7.71395 4.45352 19.5108 
72 1 11.0773 6.39545 25.0077 
81 1 8.91737 3.75882 21.639 
83 1 5.5783 5.68662 24.507 
84 1 5.28534 4.46868 23.6433 
87 1 9.68905 4.71913 22.3286 
88 1 7.7139 0.569943 25.0077 
97 1 6.51039 3.7588 21.639 
99 1 9.8495 5.6866 24.507 
100 1 8.94121 6.54928 23.6433 
101 1 9.68753 3.31416 24.3198 
103 1 6.95626 2.61034 22.3286 
104 1 4.35054 6.39546 25.0077 
107 1 6.51264 2.34289 23.6433 
108 1 8.93137 6.0314 22.3286 
111 1 10.1424 4.46867 23.6433 
112 1 5.73874 4.71913 22.3286 
115 1 6.48659 6.54929 23.6433 
116 1 8.47154 2.61034 22.3286 
117 1 8.91516 2.34289 14.1693 
118 1 6.49643 6.0314 15.484 
121 1 5.28535 4.46867 14.1693 
122 1 9.68906 4.71913 15.484 
125 1 8.94121 6.54929 14.1693 
126 1 6.95626 2.61034 15.484 
49 1 1.97363 10.0467 0.888555 
58 1 1.97364 10.0467 11.7156 
25 1 7.71389 6.73256 13.4928 
85 1 7.71391 6.73256 24.3198 
ITEM: TIMESTEP
30
ITEM: NUMBER OF ATOMS
128
ITEM: BOX BOUNDS xy xz yz pp pp pp
-7.7138999999999998e+00 1.5427800000000000e+01 -7.7138999999999998e+00
0.0000000000000000e+00 1.3360866724506000e+01 0.0000000000000000e+00
0.0000000000000000e+00 2.5208400000000001e+01 0.0000000000000000e+00
ITEM: ATOMS id type x y z 
33 1 -6.20088e-07 6.62713 0.887639 
77 1 6.2032e-07 6.62713 11.7166 
41 1 5.73928 3.31355 13.4918 
68 1 5.73927 3.31356 24.3208 
11 1 -4.97457e-07 7.51959 3.57004 
12 1 -3.20168e-05 8.90737 4.19297 
14 1 -4.07284e-06 11.3722 0.702277 
15 1 1.20124 11.0178 1.56482 
16 1 -1.97463 10.0473 0.887632 
18 1 -1.21918 7.32994 2.88025 
19 1 6.71356e-05 8.90718 5.69802 
20 1 3.36355 6.9653 0.200776 
29 1 1.20179 9.60109 3.57007 
31 1 -2.1347 7.67475 0.702304 
32 1 -2.4284 8.89231 1.5648 
35 1 1.97557 8.63999 2.88023 
36 1 -6.11768e-06 12.7912 0.200874 
45 1 -1.20183 9.60112 3.57009 
47 1 2.1347 7.67475 0.702305 
48 1 1.22713 6.81169 1.56482 
51 1 -0.756347 10.7518 2.88021 
52 1 -3.36354 6.96527 0.200772 
53 1 4.97734e-07 7.51959 9.03416 
54 1 3.18308e-05 8.90737 8.41123 
56 1 4.07167e-06 11.3722 11.9019 
57 1 -1.20124 11.0178 11.0394 
60 1 1.21918 7.32994 9.72395 
61 1 -6.69498e-05 8.90718 6.90618 
62 1 -3.36355 6.9653 12.4034 
73 1 -1.20179 9.60109 9.03413 
75 1 2.1347 7.67475 11.9019 
76 1 2.4284 8.89231 11.0394 
79 1 -1.97557 8.63999 9.72397 
80 1 6.1213e-06 12.7912 12.4033 
89 1 1.20183 9.60112 9.03411 
91 1 -2.1347 7.67475 11.9019 
92 1 -1.22713 6.81169 11.0394 
93 1 -1.97462 10.0473 11.7166 
95 1 0.756347 10.7518 9.72399 
96 1 3.36354 6.96527 12.4034 
105 1 1.20125 11.0177 11.0394 
106 1 -1.21917 7.32996 9.72394 
109 1 -2.42839 8.89232 11.0394 
110 1 1.9756 8.63997 9.72398 
113 1 1.22712 6.81169 11.0394 
114 1 -0.756348 10.7518 9.72398 
119 1 -1.20125 11.0177 1.56481 
120 1 1.21917 7.32996 2.88026 
123 1 2.42839 8.89232 1.56482 
124 1 -1.9756 8.63997 2.88022 
127 1 -1.22712 6.81169 1.56481 
128 1 0.756348 10.7518 2.88022 
13 1 -1.3082e-05 10.3244 24.808 
17 1 -1.21926 9.61118 24.8594 
30 1 -1.22725 8.19868 24.808 
34 1 9.33439e-06 7.49936 24.8594 
46 1 1.22726 8.1987 24.808 
50 1 1.21925 9.61121 24.8594 
55 1 1.30818e-05 10.3244 13.0046 
59 1 1.21926 9.61118 12.9532 
74 1 1.22725 8.19868 13.0046 
78 1 -9.33452e-06 7.49936 12.9532 
90 1 -1.22726 8.1987 13.0046 
94 1 -1.21925 9.61121 12.9532 
3 1 7.71391 3.03651 12.2038 
7 1 8.93316 3.74968 12.2552 
22 1 8.94115 5.16219 12.2038 
26 1 7.71389 5.8615 12.2552 
38 1 6.48664 5.16217 12.2038 
42 1 6.49465 3.74966 12.2552 
65 1 7.71389 3.03651 0.400396 
69 1 6.49464 3.74968 0.348998 
82 1 6.48665 5.16219 0.400406 
86 1 7.71391 5.8615 0.349003 
98 1 8.94116 5.16217 0.400408 
102 1 8.93315 3.74966 0.349001 
1 1 7.7139 5.84127 16.1742 
2 1 7.71393 4.4535 16.7972 
4 1 7.7139 1.98869 13.3065 
5 1 6.51266 2.34312 14.169 
6 1 9.68853 3.31356 13.4918 
8 1 8.93308 6.03093 15.4844 
9 1 7.71383 4.45369 18.3022 
10 1 4.35035 6.39556 12.805 
21 1 6.51211 3.75977 16.1743 
23 1 9.8486 5.68612 13.3065 
24 1 10.1423 4.46856 14.169 
27 1 5.73833 4.72088 15.4844 
28 1 7.71391 0.569697 12.8051 
37 1 8.91573 3.75975 16.1743 
39 1 5.5792 5.68612 13.3065 
40 1 6.48677 6.54918 14.169 
43 1 8.47025 2.60908 15.4844 
44 1 11.0774 6.3956 12.805 
63 1 7.7139 5.84127 21.6384 
64 1 7.71387 4.4535 21.0154 
66 1 7.7139 1.98869 24.5061 
67 1 8.91514 2.34312 23.6436 
70 1 6.49472 6.03093 22.3282 
71 1 7.71397 4.45369 19.5104 
72 1 11.0775 6.39556 25.0076 
81 1 8.91569 3.75977 21.6383 
83 1 5.5792 5.68612 24.5061 
84 1 5.2855 4.46856 23.6436 
87 1 9.68947 4.72088 22.3282 
88 1 7.71389 0.569697 25.0075 
97 1 6.51207 3.75975 21.6383 
99 1 9.8486 5.68612 24.5061 
100 1 8.94103 6.54918 23.6436 
101 1 9.68852 3.31355 24.3208 
103 1 6.95755 2.60908 22.3282 
104 1 4.35036 6.3956 25.0076 
107 1 6.51265 2.34312 23.6436 
108 1 8.93307 6.03091 22.3281 
111 1 10.1423 4.46855 23.6436 
112 1 5.7383 4.7209 22.3282 
115 1 6.48678 6.54917 23.6436 
116 1 8.47025 2.60909 22.3282 
117 1 8.91515 2.34312 14.169 
118 1 6.49473 6.03091 15.4845 
121 1 5.28551 4.46855 14.169 
122 1 9.6895 4.7209 15.4844 
125 1 8.94102 6.54917 14.169 
126 1 6.95755 2.60909 15.4844 
49 1 1.97462 10.0473 0.887635 
58 1 1.97463 10.0473 11.7166 
25 1 7.7139 6.73374 13.4918 
85 1 7.7139 6.73374 24.3208 
ITEM: TIMESTEP
40
ITEM: NUMBER OF ATOMS
128
ITEM: BOX BOUNDS xy xz yz pp pp pp
-7.7138999999999998e+00 1.5427800000000000e+01 -7.7138999999999998e+00
0.0000000000000000e+00 1.3360866724506000e+01 0.0000000000000000e+00
0.0000000000000000e+00 2.5208400000000001e+01 0.0000000000000000e+00
ITEM: ATOMS id type x y z 
33 1 6.6567e-06 6.62704 0.88762 
77 1 -6.65457e-06 6.62704 11.7166 
41 1 5.73919 3.31352 13.4918 
68 1 5.73919 3.31353 24.3208 
11 1 -4.91126e-06 7.51953 3.57002 
12 1 -2.33187e-05 8.90727 4.19285 
14 1 6.84329e-06 11.3721 0.70226 
15 1 1.20129 11.0177 1.56482 
16 1 -1.97471 10.0473 0.887622 
18 1 -1.21927 7.32991 2.88024 
19 1 -4.51033e-06 8.90731 5.69803 
20 1 3.36366 6.96524 0.201122 
29 1 1.20182 9.60111 3.57 
31 1 -2.13463 7.67479 0.70226 
32 1 -2.42835 8.89238 1.56481 
35 1 1.97562 8.63998 2.88023 
36 1 -3.15662e-05 12.7913 0.20114 
45 1 -1.20185 9.60113 3.57001 
47 1 2.13464 7.67481 0.702263 
48 1 1.22704 6.81168 1.56482 
51 1 -0.756363 10.7518 2.88023 
52 1 -3.36365 6.96523 0.201118 
53 1 4.92651e-06 7.51953 9.03418 
54 1 2.38864e-05 8.90727 8.41135 
56 1 5.38259e-06 11.3721 11.9019 
57 1 -1.20129 11.0177 11.0394 
60 1 1.21927 7.32991 9.72396 
61 1 4.10354e-06 8.9073 6.90617 
62 1 -3.36366 6.96524 12.4031 
73 1 -1.20182 9.60111 9.0342 
75 1 2.13463 7.67479 11.9019 
76 1 2.42835 8.89238 11.0394 
79 1 -1.97562 8.63998 9.72397 
80 1 -1.1573e-05 12.7913 12.4031 
89 1 1.20185 9.60113 9.03419 
91 1 -2.13464 7.67481 11.9019 
92 1 -1.22704 6.81168 11.0394 
93 1 -1.97471 10.0473 11.7166 
95 1 0.756363 10.7518 9.72397 
96 1 3.36365 6.96523 12.4031 
105 1 1.2013 11.0177 11.0394 
106 1 -1.21926 7.32992 9.72396 
109 1 -2.42834 8.89238 11.0394 
110 1 1.97564 8.63997 9.72398 
113 1 1.22704 6.81168 11.0394 
114 1 -0.756356 10.7518 9.72397 
119 1 -1.2013 11.0177 1.56481 
120 1 1.21926 7.32992 2.88024 
123 1 2.42834 8.89238 1.56482 
124 1 -1.97564 8.63997 2.88022 
127 1 -1.22704 6.81168 1.56481 
128 1 0.756356 10.7518 2.88023 
13 1 -1.0733e-05 10.3244 24.8081 
17 1 -1.21938 9.61124 24.8594 
30 1 -1.22725 8.19868 24.8081 
34 1 1.16062e-05 7.49923 24.8594 
46 1 1.22726 8.1987 24.8081 
50 1 1.21937 9.61126 24.8594 
55 1 1.07195e-05 10.3244 13.0045 
59 1 1.21938 9.61124 12.9532 
74 1 1.22725 8.19868 13.0045 
78 1 -1.16066e-05 7.49923 12.9532 
90 1 -1.22726 8.1987 13.0045 
94 1 -1.21937 9.61126 12.9532 
3 1 7.71391 3.03651 12.2039 
7 1 8.93328 3.74962 12.2552 
22 1 8.94115 5.16219 12.2039 
26 1 7.71389 5.86164 12.2552 
38 1 6.48664 5.16217 12.2039 
42 1 6.49453 3.7496 12.2552 
65 1 7.71389 3.03651 0.400338 
69 1 6.49452 3.74962 0.34899 
82 1 6.48665 5.16219 0.400339 
86 1 7.71391 5.86164 0.348992 
98 1 8.94116 5.16217 0.400338 
102 1 8.93327 3.7496 0.348991 
1 1 7.7139 5.84133 16.1742 
2 1 7.71392 4.4536 16.7971 
4 1 7.71389 1.98875 13.3065 
5 1 6.51261 2.34319 14.169 
6 1 9.68861 3.31353 13.4918 
8 1 8.93317 6.03095 15.4844 
9 1 7.71391 4.45355 18.3022 
10 1 4.35024 6.39563 12.8053 
21 1 6.51208 3.75975 16.1742 
23 1 9.84853 5.68608 13.3065 
24 1 10.1422 4.46849 14.169 
27 1 5.73828 4.72089 15.4844 
28 1 7.71393 0.569599 12.8053 
37 1 8.91575 3.75974 16.1742 
39 1 5.57926 5.68606 13.3065 
40 1 6.48686 6.54918 14.169 
43 1 8.47026 2.60904 15.4844 
44 1 11.0776 6.39564 12.8053 
63 1 7.7139 5.84133 21.6384 
64 1 7.71388 4.4536 21.0155 
66 1 7.71389 1.98875 24.5061 
67 1 8.91519 2.34319 23.6436 
70 1 6.49463 6.03095 22.3282 
71 1 7.71389 4.45357 19.5104 
72 1 11.0776 6.39563 25.0073 
81 1 8.91572 3.75975 21.6384 
83 1 5.57927 5.68608 24.5061 
84 1 5.28555 4.46849 23.6436 
87 1 9.68952 4.72089 22.3282 
88 1 7.71391 0.569598 25.0073 
97 1 6.51205 3.75974 21.6384 
99 1 9.84854 5.68606 24.5061 
100 1 8.94094 6.54918 23.6436 
101 1 9.68861 3.31352 24.3208 
103 1 6.95754 2.60904 22.3282 
104 1 4.35025 6.39564 25.0073 
107 1 6.5126 2.34319 23.6436 
108 1 8.93316 6.03094 22.3282 
111 1 10.1422 4.46848 23.6436 
112 1 5.73826 4.7209 22.3282 
115 1 6.48686 6.54919 23.6436 
116 1 8.47026 2.60904 22.3282 
117 1 8.9152 2.34319 14.169 
118 1 6.49464 6.03094 15.4844 
121 1 5.28556 4.46848 14.169 
122 1 9.68954 4.7209 15.4844 
125 1 8.94094 6.54919 14.169 
126 1 6.95754 2.60904 15.4844 
49 1 1.97471 10.0473 0.887624 
58 1 1.97471 10.0473 11.7166 
25 1 7.71389 6.73382 13.4918 
85 1 7.71391 6.73382 24.3208 
ITEM: TIMESTEP
41
ITEM: NUMBER OF ATOMS
128
ITEM: BOX BOUNDS xy xz yz pp pp pp
-7.7138999999999998e+00 1.5427800000000000e+01 -7.7138999999999998e+00
0.0000000000000000e+00 1.3360866724506000e+01 0.0000000000000000e+00
0.0000000000000000e+00 2.5208400000000001e+01 0.0000000000000000e+00
ITEM: ATOMS id type x y z 
33 1 7.04751e-06 6.62704 0.887618 
77 1 -7.04675e-06 6.62704 11.7166 
41 1 5.73919 3.31352 13.4918 
68 1 5.73918 3.31353 24.3208 
11 1 -5.45098e-06 7.51953 3.57002 
12 1 -2.65323e-05 8.90728 4.19285 
14 1 -1.04894e-06 11.3721 0.702258 
15 1 1.20129 11.0177 1.56482 
16 1 -1.97472 10.0473 0.887621 
18 1 -1.21927 7.32991 2.88024 
19 1 3.70065e-06 8.9073 5.69803 
20 1 3.36366 6.96523 0.201137 
29 1 1.20182 9.60111 3.57 
31 1 -2.13463 7.6748 0.702257 
32 1 -2.42834 8.89238 1.56481 
35 1 1.97562 8.63997 2.88023 
36 1 -8.95812e-06 12.7913 0.201152 
45 1 -1.20185 9.60113 3.57001 
47 1 2.13464 7.67481 0.702261 
48 1 1.22704 6.81168 1.56482 
51 1 -0.756364 10.7518 2.88023 
52 1 -3.36365 6.96522 0.201133 
53 1 5.45155e-06 7.51953 9.03418 
54 1 2.85827e-05 8.90728 8.41135 
56 1 -4.75107e-07 11.3721 11.9019 
57 1 -1.20129 11.0177 11.0394 
60 1 1.21927 7.32991 9.72396 
61 1 -5.69715e-06 8.90729 6.90617 
62 1 -3.36366 6.96523 12.4031 
73 1 -1.20182 9.60111 9.0342 
75 1 2.13463 7.6748 11.9019 
76 1 2.42834 8.89238 11.0394 
79 1 -1.97562 8.63997 9.72397 
80 1 9.99978e-06 12.7913 12.403 
89 1 1.20185 9.60113 9.03419 
91 1 -2.13464 7.67481 11.9019 
92 1 -1.22704 6.81168 11.0394 
93 1 -1.97471 10.0474 11.7166 
95 1 0.756364 10.7518 9.72397 
96 1 3.36365 6.96522 12.4031 
105 1 1.2013 11.0177 11.0394 
106 1 -1.21927 7.32992 9.72396 
109 1 -2.42834 8.89239 11.0394 
110 1 1.97564 8.63997 9.72398 
113 1 1.22704 6.81168 11.0394 
114 1 -0.756355 10.7518 9.72397 
119 1 -1.2013 11.0177 1.56481 
120 1 1.21927 7.32992 2.88024 
123 1 2.42834 8.89239 1.56482 
124 1 -1.97564 8.63997 2.88022 
127 1 -1.22704 6.81168 1.56481 
128 1 0.756355 10.7518 2.88024 
13 1 -1.0769e-05 10.3244 24.8081 
17 1 -1.21938 9.61125 24.8594 
30 1 -1.22725 8.19868 24.8081 
34 1 1.17068e-05 7.49923 24.8594 
46 1 1.22726 8.1987 24.8081 
50 1 1.21937 9.61126 24.8594 
55 1 1.06064e-05 10.3244 13.0045 
59 1 1.21938 9.61125 12.9532 
74 1 1.22725 8.19868 13.0045 
78 1 -1.172e-05 7.49923 12.9532 
90 1 -1.22726 8.1987 13.0045 
94 1 -1.21937 9.61126 12.9532 
3 1 7.71391 3.03651 12.2039 
7 1 8.93328 3.74962 12.2552 
22 1 8.94115 5.16219 12.2039 
26 1 7.71389 5.86164 12.2552 
38 1 6.48664 5.16217 12.2039 
42 1 6.49453 3.7496 12.2552 
65 1 7.71389 3.03651 0.400336 
69 1 6.49452 3.74962 0.348989 
82 1 6.48665 5.16219 0.400336 
86 1 7.71391 5.86164 0.348992 
98 1 8.94116 5.16217 0.400335 
102 1 8.93327 3.7496 0.34899 
1 1 7.71391 5.84134 16.1742 
2 1 7.71393 4.45359 16.797 
4 1 7.7139 1.98875 13.3065 
5 1 6.51261 2.34319 14.169 
6 1 9.68862 3.31353 13.4918 
8 1 8.93317 6.03095 15.4844 
9 1 7.7139 4.45356 18.3022 
10 1 4.35024 6.39563 12.8053 
21 1 6.51208 3.75975 16.1742 
23 1 9.84853 5.68607 13.3065 
24 1 10.1422 4.46849 14.169 
27 1 5.73828 4.72089 15.4844 
28 1 7.71391 0.569595 12.8054 
37 1 8.91575 3.75974 16.1742 
39 1 5.57926 5.68606 13.3065 
40 1 6.48686 6.54919 14.169 
43 1 8.47026 2.60904 15.4844 
44 1 11.0776 6.39565 12.8053 
63 1 7.71389 5.84133 21.6384 
64 1 7.71387 4.45359 21.0156 
66 1 7.7139 1.98875 24.5061 
67 1 8.91519 2.34319 23.6436 
70 1 6.49463 6.03095 22.3282 
71 1 7.7139 4.45358 19.5104 
72 1 11.0776 6.39563 25.0073 
81 1 8.91572 3.75975 21.6384 
83 1 5.57927 5.68607 24.5061 
84 1 5.28556 4.46849 23.6436 
87 1 9.68952 4.72089 22.3282 
88 1 7.71389 0.569595 25.0072 
97 1 6.51205 3.75974 21.6384 
99 1 9.84854 5.68606 24.5061 
100 1 8.94094 6.54919 23.6436 
101 1 9.68861 3.31352 24.3208 
103 1 6.95754 2.60904 22.3282 
104 1 4.35025 6.39565 25.0073 
107 1 6.5126 2.34319 23.6436 
108 1 8.93317 6.03094 22.3282 
111 1 10.1422 4.46848 23.6436 
112 1 5.73826 4.7209 22.3282 
115 1 6.48686 6.54919 23.6436 
116 1 8.47026 2.60904 22.3282 
117 1 8.9152 2.34319 14.169 
118 1 6.49463 6.03094 15.4844 
121 1 5.28556 4.46848 14.169 
122 1 9.68954 4.7209 15.4844 
125 1 8.94094 6.54919 14.169 
126 1 6.95754 2.60904 15.4844 
49 1 1.97471 10.0473 0.887622 
58 1 1.97472 10.0473 11.7166 
25 1 7.71389 6.73383 13.4918 
85 1 7.71391 6.73383 24.3208 
ITEM: TIMESTEP
50
ITEM: NUMBER OF ATOMS
128
ITEM: BOX BOUNDS xy xz yz pp pp pp
-7.7199653656669369e+00 1.5430899170487811e+01 -7.7168661951791266e+00
-2.5688003777059611e-03 1.3363435524883707e+01 0.0000000000000000e+00
3.6924771229101226e-05 2.5208363075228771e+01 0.0000000000000000e+00
ITEM: ATOMS id type x y z 
33 1 -0.00302012 6.62745 0.887726 
77 1 -0.00303912 6.62745 11.7165 
41 1 5.7388 3.31244 13.4919 
68 1 5.73879 3.31245 24.3207 
11 1 -0.00303332 7.52025 3.56946 
12 1 -0.00298656 8.90813 4.19226 
14 1 -0.00303254 11.3735 0.702362 
15 1 1.19856 11.0188 1.56486 
16 1 -1.97814 10.0484 0.887737 
18 1 -1.22245 7.33049 2.8801 
19 1 -0.00315939 8.90819 5.69802 
20 1 3.36213 6.96551 0.201033 
29 1 1.19895 9.60204 3.56946 
31 1 -2.1381 7.67535 0.702378 
32 1 -2.43177 8.89328 1.56486 
35 1 1.97297 8.64086 2.88008 
36 1 -0.00294123 12.7937 0.201117 
45 1 -1.20499 9.60204 3.56944 
47 1 2.13206 7.67537 0.702385 
48 1 1.22418 6.81218 1.56486 
51 1 -0.759558 10.7529 2.88009 
52 1 -3.36819 6.96549 0.201029 
53 1 -0.00301322 7.52025 9.03477 
54 1 -0.00298755 8.90816 8.41197 
56 1 -0.00294064 11.3735 11.9019 
57 1 -1.20454 11.0188 11.0394 
60 1 1.2164 7.33049 9.72414 
61 1 -0.00291345 8.90809 6.90622 
62 1 -3.36819 6.96551 12.4032 
73 1 -1.20496 9.60204 9.03478 
75 1 2.13205 7.67535 11.9019 
76 1 2.42575 8.89328 11.0394 
79 1 -1.97899 8.64086 9.72416 
80 1 -0.00300029 12.7937 12.4031 
89 1 1.19898 9.60205 9.03479 
91 1 -2.13811 7.67537 11.9019 
92 1 -1.23024 6.81217 11.0394 
93 1 -1.97813 10.0484 11.7165 
95 1 0.753572 10.7529 9.72415 
96 1 3.36213 6.96549 12.4032 
105 1 1.19856 11.0188 11.0394 
106 1 -1.22244 7.33049 9.72413 
109 1 -2.43176 8.89329 11.0394 
110 1 1.97297 8.64086 9.72416 
113 1 1.22417 6.81217 11.0394 
114 1 -0.759542 10.7529 9.72415 
119 1 -1.20454 11.0188 1.56486 
120 1 1.21639 7.33049 2.8801 
123 1 2.42574 8.89329 1.56486 
124 1 -1.979 8.64086 2.88008 
127 1 -1.23024 6.81217 1.56486 
128 1 0.753555 10.7529 2.88009 
13 1 -0.00300794 10.3253 24.8086 
17 1 -1.22253 9.61217 24.8598 
30 1 -1.23036 8.1995 24.8086 
34 1 -0.00301054 7.49995 24.8598 
46 1 1.22433 8.19951 24.8086 
50 1 1.21651 9.61219 24.8598 
55 1 -0.00298783 10.3253 13.0039 
59 1 1.21652 9.61217 12.9528 
74 1 1.22432 8.1995 13.0039 
78 1 -0.00303417 7.49995 12.9528 
90 1 -1.23037 8.19952 13.0039 
94 1 -1.22251 9.61219 12.9528 
3 1 7.71394 3.03558 12.2045 
7 1 8.93346 3.74869 12.2556 
22 1 8.94129 5.16137 12.2045 
26 1 7.71394 5.86092 12.2556 
38 1 6.4866 5.16135 12.2045 
42 1 6.49443 3.74868 12.2556 
65 1 7.71392 3.03558 0.399773 
69 1 6.49442 3.7487 0.348632 
82 1 6.48661 5.16137 0.399775 
86 1 7.71397 5.86092 0.34863 
98 1 8.9413 5.16135 0.399775 
102 1 8.93345 3.74867 0.348628 
1 1 7.71397 5.84061 16.1736 
2 1 7.71393 4.45272 16.7964 
4 1 7.71397 1.9874 13.3065 
5 1 6.51237 2.34202 14.169 
6 1 9.68907 3.31245 13.4919 
8 1 8.93338 6.03037 15.4843 
9 1 7.71406 4.4527 18.3022 
10 1 4.3488 6.39536 12.8052 
21 1 6.51198 3.75882 16.1736 
23 1 9.84904 5.68552 13.3065 
24 1 10.1427 4.46758 14.169 
27 1 5.73797 4.72001 15.4842 
28 1 7.71386 0.567173 12.8053 
37 1 8.91592 3.75882 16.1736 
39 1 5.57887 5.6855 13.3065 
40 1 6.48676 6.54869 14.169 
43 1 8.47049 2.60793 15.4842 
44 1 11.0791 6.39537 12.8052 
63 1 7.71395 5.84062 21.6389 
64 1 7.71392 4.4527 21.0161 
66 1 7.71387 1.9874 24.506 
67 1 8.91547 2.34203 23.6435 
70 1 6.49454 6.03037 22.3283 
71 1 7.71386 4.45278 19.5104 
72 1 11.0791 6.39536 25.0074 
81 1 8.91589 3.75883 21.6389 
83 1 5.57888 5.68552 24.506 
84 1 5.28518 4.46759 23.6435 
87 1 9.68993 4.72001 22.3283 
88 1 7.71394 0.567175 25.0073 
97 1 6.51195 3.75882 21.639 
99 1 9.84904 5.6855 24.506 
100 1 8.94118 6.54869 23.6435 
101 1 9.68907 3.31244 24.3207 
103 1 6.95736 2.60793 22.3283 
104 1 4.34881 6.39537 25.0074 
107 1 6.51237 2.34203 23.6435 
108 1 8.93338 6.03038 22.3283 
111 1 10.1427 4.46757 23.6435 
112 1 5.73796 4.72001 22.3283 
115 1 6.48676 6.54869 23.6435 
116 1 8.47048 2.60793 22.3283 
117 1 8.91548 2.34203 14.169 
118 1 6.49455 6.03038 15.4843 
121 1 5.28519 4.46758 14.169 
122 1 9.68993 4.72001 15.4842 
125 1 8.94117 6.5487 14.169 
126 1 6.95738 2.60792 15.4843 
49 1 1.97214 10.0484 0.887738 
58 1 1.97214 10.0484 11.7165 
25 1 7.71395 6.73342 13.4919 
85 1 7.71397 6.73342 24.3207 
ITEM: TIMESTEP
60
ITEM: NUMBER OF ATOMS
128
ITEM: BOX BOUNDS xy xz yz pp pp pp
-7.7221649506437284e+00 1.5431826933245013e+01 -7.7181380173987133e+00
-3.6702307289655481e-03 1.3364536955234968e+01 0.0000000000000000e+00
-3.1691882411410497e-03 2.5211569188241139e+01 0.0000000000000000e+00
ITEM: ATOMS id type x y z 