ITEM: TIMESTEP
0
ITEM: NUMBER OF ATOMS
130
ITEM: BOX BOUNDS pp pp pp
0.0000000000000000e+00 1.8762000000000000e+01
0.0000000000000000e+00 1.8762000000000000e+01
0.0000000000000000e+00 1.8760999999999999e+01
ITEM: ATOMS id type x y z 
1 1 3.12 3.119 3.121 
10 1 5.595 5.596 5.595 
17 1 4.011 4.011 4.012 
26 1 4.704 4.704 4.704 
33 1 0.414 3.456 3.456 
41 1 3.456 0.413 3.456 
49 1 3.456 3.456 0.414 
58 1 8.301 5.259 5.259 
66 1 5.259 8.301 5.259 
74 1 5.259 5.259 8.301 
81 1 1.612 3.354 3.354 
89 1 3.353 1.612 3.354 
97 1 3.354 3.354 1.613 
106 1 7.103 5.361 5.361 
114 1 5.362 7.103 5.361 
122 1 5.361 5.361 7.103 
4 1 3.12 3.12 14.976 
11 1 5.595 5.595 12.5 
20 1 4.011 4.011 14.084 
27 1 4.704 4.704 13.392 
36 1 0.414 3.456 14.639 
46 1 3.456 0.414 14.639 
56 1 3.456 3.456 17.682 
59 1 8.301 5.259 12.837 
69 1 5.259 8.301 12.837 
79 1 5.259 5.259 9.794 
84 1 1.612 3.354 14.742 
94 1 3.354 1.612 14.742 
104 1 3.354 3.354 16.483 
107 1 7.103 5.361 12.735 
117 1 5.361 7.103 12.735 
127 1 5.361 5.361 10.993 
6 1 3.12 14.976 3.12 
13 1 5.595 12.501 5.596 
22 1 4.011 14.085 4.011 
29 1 4.704 13.392 4.705 
38 1 0.414 14.64 3.457 
48 1 3.456 17.682 3.456 
52 1 3.456 14.64 0.414 
61 1 8.301 12.837 5.259 
71 1 5.259 9.794 5.259 
75 1 5.259 12.837 8.301 
86 1 1.612 14.742 3.354 
96 1 3.354 16.483 3.354 
100 1 3.354 14.742 1.612 
109 1 7.103 12.735 5.361 
119 1 5.361 10.993 5.361 
123 1 5.361 12.735 7.103 
7 1 3.12 14.976 14.976 
16 1 5.595 12.501 12.5 
23 1 4.011 14.085 14.084 
32 1 4.704 13.392 13.391 
39 1 0.414 14.64 14.639 
43 1 3.456 17.682 14.639 
53 1 3.456 14.64 17.682 
64 1 8.302 12.837 12.837 
68 1 5.259 9.795 12.837 
78 1 5.259 12.837 9.794 
87 1 1.612 14.742 14.741 
91 1 3.354 16.483 14.741 
101 1 3.353 14.742 16.483 
112 1 7.103 12.735 12.735 
116 1 5.361 10.993 12.735 
126 1 5.361 12.735 10.993 
8 1 14.976 3.12 3.12 
15 1 12.501 5.595 5.595 
24 1 14.084 4.011 4.011 
31 1 13.392 4.704 4.704 
40 1 17.682 3.456 3.456 
44 1 14.64 0.414 3.457 
54 1 14.64 3.456 0.414 
63 1 9.795 5.259 5.259 
67 1 12.837 8.301 5.259 
77 1 12.837 5.259 8.301 
88 1 16.483 3.354 3.354 
92 1 14.742 1.612 3.354 
102 1 14.742 3.354 1.612 
111 1 10.993 5.361 5.361 
115 1 12.735 7.103 5.361 
125 1 12.735 5.361 7.103 
5 1 14.976 3.119 14.975 
14 1 12.501 5.596 12.501 
21 1 14.085 4.011 14.084 
30 1 13.392 4.703 13.392 
37 1 17.682 3.456 14.639 
47 1 14.64 0.413 14.639 
51 1 14.64 3.456 17.682 
62 1 9.794 5.259 12.837 
72 1 12.837 8.301 12.837 
76 1 12.837 5.259 9.795 
85 1 16.483 3.354 14.741 
95 1 14.742 1.612 14.741 
99 1 14.742 3.354 16.483 
110 1 10.993 5.361 12.735 
120 1 12.734 7.103 12.735 
124 1 12.735 5.361 10.993 
3 1 14.976 14.976 3.12 
12 1 12.501 12.501 5.595 
19 1 14.085 14.085 4.011 
28 1 13.392 13.392 4.704 
35 1 17.682 14.64 3.457 
45 1 14.64 17.682 3.457 
55 1 14.64 14.64 0.414 
60 1 9.794 12.837 5.259 
70 1 12.837 9.794 5.259 
80 1 12.837 12.837 8.301 
83 1 16.484 14.742 3.354 
93 1 14.742 16.483 3.354 
103 1 14.742 14.742 1.613 
108 1 10.993 12.735 5.361 
118 1 12.734 10.993 5.361 
128 1 12.734 12.734 7.103 
129 2 12.288 13.459 3.917 
130 3 12.288 13.459 2.941 
2 1 14.976 14.976 14.975 
9 1 12.501 12.501 12.501 
18 1 14.084 14.085 14.084 
25 1 13.391 13.393 13.392 
34 1 17.682 14.64 14.639 
42 1 14.64 17.682 14.639 
50 1 14.64 14.64 17.682 
57 1 9.795 12.837 12.837 
65 1 12.837 9.794 12.837 
73 1 12.837 12.837 9.794 
82 1 16.483 14.742 14.741 
90 1 14.742 16.483 14.741 
98 1 14.742 14.742 16.483 
105 1 10.993 12.734 12.734 
113 1 12.735 10.993 12.735 
121 1 12.735 12.734 10.993 
ITEM: TIMESTEP
10
ITEM: NUMBER OF ATOMS
130
ITEM: BOX BOUNDS pp pp pp
0.0000000000000000e+00 1.8762000000000000e+01
0.0000000000000000e+00 1.8762000000000000e+01
0.0000000000000000e+00 1.8760999999999999e+01
ITEM: ATOMS id type x y z 
1 1 3.11969 3.11948 3.12058 
10 1 5.59513 5.59521 5.59496 
17 1 4.01122 4.01105 4.01146 
26 1 4.70381 4.70368 4.70404 
33 1 0.414432 3.45492 3.45485 
41 1 3.45457 0.413799 3.45494 
49 1 3.45489 3.45488 0.414279 
58 1 8.30203 5.25995 5.25996 
66 1 5.26041 8.30067 5.25998 
74 1 5.26003 5.26005 8.30076 
81 1 1.61176 3.35313 3.35347 
89 1 3.35281 1.61171 3.35337 
97 1 3.35323 3.35311 1.61235 
106 1 7.10229 5.36185 5.36178 
114 1 5.36207 7.10334 5.36172 
122 1 5.36176 5.36182 7.10286 
4 1 3.11983 3.11981 14.9758 
11 1 5.59496 5.59513 12.5007 
20 1 4.01119 4.01103 14.0847 
27 1 4.70367 4.70374 13.3915 
36 1 0.414084 3.45488 14.6405 
46 1 3.45484 0.41429 14.6405 
56 1 3.45488 3.4549 17.6819 
59 1 8.30082 5.26006 12.836 
69 1 5.26002 8.3018 12.8361 
79 1 5.25995 5.25992 9.79366 
84 1 1.61162 3.3532 14.7424 
94 1 3.35318 1.61149 14.7424 
104 1 3.35325 3.35327 16.4838 
107 1 7.10266 5.36173 12.7341 
117 1 5.3618 7.10216 12.734 
127 1 5.36185 5.36185 10.9939 
6 1 3.12137 14.9761 3.12022 
13 1 5.59578 12.5006 5.59527 
22 1 4.0123 14.084 4.01241 
29 1 4.70433 13.3921 4.70415 
38 1 0.420384 14.6404 3.45634 
48 1 3.45504 17.6824 3.45507 
52 1 3.45505 14.6409 0.41374 
61 1 8.30158 12.8371 5.25853 
71 1 5.25991 9.79384 5.25992 
75 1 5.25995 12.836 8.30099 
86 1 1.61877 14.7429 3.35341 
96 1 3.35364 16.4846 3.35339 
100 1 3.35368 14.7424 1.61119 
109 1 7.10076 12.7339 5.36216 
119 1 5.36191 10.9939 5.36194 
123 1 5.36179 12.7344 7.10319 
7 1 3.1195 14.9759 14.9751 
16 1 5.59552 12.5009 12.5007 
23 1 4.01105 14.0846 14.0842 
32 1 4.70379 13.3919 13.3913 
39 1 0.414603 14.6411 14.6401 
43 1 3.45501 17.6829 14.64 
53 1 3.45469 14.6409 17.6818 
64 1 8.30216 12.836 12.8361 
68 1 5.26002 9.79416 12.836 
78 1 5.25992 12.8361 9.7938 
87 1 1.61203 14.7428 14.7419 
91 1 3.35325 16.4832 14.7419 
101 1 3.35282 14.7429 16.4819 
112 1 7.10195 12.7342 12.7339 
116 1 5.36186 10.994 12.7339 
126 1 5.36187 12.7342 10.9939 
8 1 14.976 3.12144 3.12002 
15 1 12.5011 5.5968 5.59495 
24 1 14.0839 4.01178 4.01169 
31 1 13.3913 4.70485 4.70414 
40 1 17.6834 3.45514 3.45509 
44 1 14.6406 0.421732 3.45611 
54 1 14.6409 3.45506 0.41355 
63 1 9.7943 5.25995 5.26004 
67 1 12.8367 8.30263 5.25895 
77 1 12.836 5.25995 8.30192 
88 1 16.4837 3.35351 3.35339 
92 1 14.7428 1.61697 3.35361 
102 1 14.7425 3.35355 1.61141 
111 1 10.9936 5.36196 5.36176 
115 1 12.7337 7.10055 5.36246 
125 1 12.7343 5.36193 7.10234 
5 1 14.9758 3.11928 14.9755 
14 1 12.5009 5.59524 12.5006 
21 1 14.0855 4.0109 14.0845 
30 1 13.3912 4.70352 13.3913 
37 1 17.6828 3.45506 14.64 
47 1 14.641 0.413727 14.64 
51 1 14.641 3.45509 17.6817 
62 1 9.79373 5.25994 12.836 
72 1 12.8356 8.30097 12.836 
76 1 12.836 5.26 9.79419 
85 1 16.4831 3.35299 14.7417 
95 1 14.7428 1.61204 14.7418 
99 1 14.7429 3.35284 16.4816 
110 1 10.994 5.36194 12.7342 
120 1 12.7338 7.10279 12.7343 
124 1 12.734 5.36201 10.994 
3 1 14.9634 14.9514 3.14864 
12 1 12.4493 12.4299 5.67722 
19 1 14.1755 14.1303 3.99977 
28 1 13.3377 13.466 4.58604 
35 1 17.6914 14.6406 3.45614 
45 1 14.64 17.6892 3.45562 
55 1 14.6399 14.6408 0.408846 
60 1 9.78795 12.8386 5.25871 
70 1 12.8391 9.78428 5.2542 
80 1 12.8402 12.8411 8.31472 
83 1 16.491 14.7366 3.361 
93 1 14.7361 16.4875 3.36116 
103 1 14.7352 14.735 1.60833 
108 1 10.9842 12.7135 5.39132 
118 1 12.7259 10.9849 5.37613 
128 1 12.728 12.7227 7.1137 
129 2 12.359 13.4625 3.91865 
130 3 12.2475 13.4563 2.90924 
2 1 14.9757 14.9761 14.974 
9 1 12.5009 12.501 12.4983 
18 1 14.084 14.0847 14.0835 
25 1 13.3913 13.3919 13.3903 
34 1 17.6834 14.6408 14.6398 
42 1 14.6409 17.6826 14.6399 
50 1 14.6405 14.6405 17.6746 
57 1 9.79476 12.8356 12.8357 
65 1 12.8361 9.79332 12.8361 
73 1 12.837 12.8368 9.79274 
82 1 16.4837 14.7425 14.7415 
90 1 14.7425 16.4843 14.7415 
98 1 14.7428 14.7428 16.4781 
105 1 10.9926 12.7339 12.7337 
113 1 12.7343 10.9937 12.7341 
121 1 12.7332 12.7329 10.9971 
ITEM: TIMESTEP
20
ITEM: NUMBER OF ATOMS
130
ITEM: BOX BOUNDS pp pp pp
0.0000000000000000e+00 1.8762000000000000e+01
0.0000000000000000e+00 1.8762000000000000e+01
0.0000000000000000e+00 1.8760999999999999e+01
ITEM: ATOMS id type x y z 
1 1 3.11979 3.1201 3.12052 
10 1 5.59508 5.59526 5.59523 
17 1 4.01225 4.01155 4.01074 
26 1 4.70354 4.70357 4.70449 
33 1 0.415184 3.45399 3.45414 
41 1 3.45386 0.41504 3.45428 
49 1 3.45394 3.4539 0.413532 
58 1 8.30013 5.26088 5.26094 
66 1 5.26122 8.29992 5.26097 
74 1 5.26112 5.26117 8.30115 
81 1 1.61273 3.35259 3.35286 
89 1 3.35224 1.61406 3.35274 
97 1 3.35262 3.35253 1.6125 
106 1 7.10173 5.36241 5.36244 
114 1 5.36269 7.10238 5.36232 
122 1 5.36235 5.36229 7.10364 
4 1 3.11961 3.12038 14.9762 
11 1 5.59544 5.59456 12.5003 
20 1 4.01238 4.00812 14.0825 
27 1 4.70202 4.70701 13.3935 
36 1 0.414126 3.45379 14.6415 
46 1 3.45374 0.41426 14.6415 
56 1 3.45388 3.45389 17.682 
59 1 8.30068 5.26119 12.8348 
69 1 5.26118 8.30084 12.8348 
79 1 5.26106 5.26112 9.79393 
84 1 1.61192 3.35256 14.7431 
94 1 3.35248 1.61192 14.7431 
104 1 3.35249 3.35253 16.4829 
107 1 7.1029 5.36233 12.7335 
117 1 5.36251 7.1028 12.7334 
127 1 5.36251 5.36243 10.9937 
6 1 3.12709 14.9769 3.11936 
13 1 5.59582 12.5004 5.59686 
22 1 4.01527 14.0851 4.01191 
29 1 4.70517 13.3888 4.70448 
38 1 0.429563 14.64 3.45626 
48 1 3.45442 17.6849 3.45475 
52 1 3.45429 14.6412 0.411718 
61 1 8.29935 12.8401 5.25538 
71 1 5.2607 9.79242 5.26063 
75 1 5.26062 12.8354 8.3024 
86 1 1.6278 14.7429 3.35359 
96 1 3.35478 16.4859 3.35324 
100 1 3.35486 14.7427 1.60918 
109 1 7.10026 12.734 5.36122 
119 1 5.36227 10.9923 5.36224 
123 1 5.36213 12.734 7.10475 
7 1 3.12106 14.9771 14.9751 
16 1 5.59557 12.501 12.5007 
23 1 4.00956 14.084 14.0833 
32 1 4.70383 13.3918 13.3917 
39 1 0.415047 14.6419 14.641 
43 1 3.45404 17.6835 14.6411 
53 1 3.45393 14.6418 17.6802 
64 1 8.30002 12.8351 12.8351 
68 1 5.26109 9.79427 12.8348 
78 1 5.26079 12.8352 9.79479 
87 1 1.61263 14.7434 14.7423 
91 1 3.3526 16.4836 14.7423 
101 1 3.35225 14.7434 16.4806 
112 1 7.10041 12.7334 12.7334 
116 1 5.36244 10.9924 12.7336 
126 1 5.36255 12.7335 10.9944 
8 1 14.9767 3.1252 3.11884 
15 1 12.5001 5.59521 5.59572 
24 1 14.0853 4.0137 4.01084 
31 1 13.3921 4.70473 4.70401 
40 1 17.6845 3.4543 3.45457 
44 1 14.6407 0.422978 3.45488 
54 1 14.6415 3.4542 0.412472 
63 1 9.79288 5.26052 5.26063 
67 1 12.8392 8.29669 5.25457 
77 1 12.8354 5.26051 8.30303 
88 1 16.4848 3.35439 3.35283 
92 1 14.7427 1.6204 3.3538 
102 1 14.743 3.35442 1.61003 
111 1 10.991 5.36227 5.36184 
115 1 12.7331 7.09704 5.36255 
125 1 12.7342 5.36226 7.10493 
5 1 14.9767 3.11946 14.974 
14 1 12.5 5.59528 12.5017 
21 1 14.0831 4.01295 14.0871 
30 1 13.3936 4.7016 13.3888 
37 1 17.6835 3.45393 14.6411 
47 1 14.6418 0.414262 14.6409 
51 1 14.6418 3.45401 17.6806 
62 1 9.79326 5.26108 12.835 
72 1 12.8348 8.29884 12.8353 
76 1 12.835 5.26094 9.79587 
85 1 16.4837 3.35251 14.7423 
95 1 14.7434 1.61332 14.7424 
99 1 14.7435 3.35238 16.4812 
110 1 10.9929 5.3623 12.7336 
120 1 12.7333 7.10126 12.7336 
124 1 12.7334 5.36248 10.9942 
3 1 14.9814 14.9575 3.14763 
12 1 12.4564 12.4374 5.67161 
19 1 14.1689 14.1328 4.01642 
28 1 13.289 13.4912 4.56406 
35 1 17.7009 14.6375 3.45904 
45 1 14.6368 17.6915 3.45609 
55 1 14.6368 14.6399 0.410227 
60 1 9.78717 12.8325 5.26985 
70 1 12.8402 9.78261 5.25534 
80 1 12.8437 12.842 8.31871 
83 1 16.5006 14.7343 3.36485 
93 1 14.7378 16.4892 3.36417 
103 1 14.7359 14.732 1.61094 
108 1 10.9803 12.6919 5.41713 
118 1 12.7175 10.9802 5.39127 
128 1 12.7229 12.7122 7.11996 
129 2 12.414 13.4625 3.86776 
130 3 12.1871 13.4533 2.89096 
2 1 14.9769 14.978 14.9704 
9 1 12.4997 12.5011 12.5014 
18 1 14.0861 14.0858 14.0824 
25 1 13.3941 13.3915 13.3922 
34 1 17.6843 14.6414 14.6407 
42 1 14.6414 17.684 14.6407 
50 1 14.6409 14.6418 17.6754 
57 1 9.79233 12.8352 12.8355 
65 1 12.8356 9.79152 12.8359 
73 1 12.8403 12.8411 9.80186 
82 1 16.4845 14.7433 14.7409 
90 1 14.7431 16.4848 14.7409 
98 1 14.7425 14.7425 16.4773 
105 1 10.9901 12.7343 12.7336 
113 1 12.7344 10.9909 12.7338 
121 1 12.7327 12.7329 11.0032 
ITEM: TIMESTEP
30
ITEM: NUMBER OF ATOMS
130
ITEM: BOX BOUNDS pp pp pp
0.0000000000000000e+00 1.8762000000000000e+01
0.0000000000000000e+00 1.8762000000000000e+01
0.0000000000000000e+00 1.8760999999999999e+01
ITEM: ATOMS id type x y z 
1 1 3.12102 3.12261 3.11863 
10 1 5.59433 5.59424 5.59662 
17 1 4.01109 4.01292 4.01155 
26 1 4.70504 4.70383 4.7038 
33 1 0.414655 3.4522 3.45336 
41 1 3.45236 0.418763 3.45378 
49 1 3.45218 3.45206 0.412091 
58 1 8.29951 5.26225 5.26209 
66 1 5.26254 8.30051 5.26206 
74 1 5.26287 5.26287 8.30342 
81 1 1.61403 3.35239 3.35194 
89 1 3.35218 1.6174 3.35198 
97 1 3.35209 3.35222 1.61092 
106 1 7.10059 5.36289 5.36365 
114 1 5.3629 7.10087 5.36355 
122 1 5.36306 5.36321 7.1036 
4 1 3.12007 3.11929 14.975 
11 1 5.5943 5.59571 12.501 
20 1 4.01141 4.01164 14.0851 
27 1 4.70315 4.70347 13.3913 
36 1 0.413985 3.45204 14.6436 
46 1 3.45184 0.414142 14.6436 
56 1 3.45191 3.45202 17.6808 
59 1 8.30061 5.26284 12.8329 
69 1 5.26314 8.30078 12.8327 
79 1 5.26316 5.26299 9.79549 
84 1 1.6135 3.35131 14.744 
94 1 3.35107 1.61365 14.7442 
104 1 3.3514 3.35135 16.4821 
107 1 7.10081 5.36359 12.7324 
117 1 5.36377 7.1016 12.7321 
127 1 5.36346 5.36363 10.9939 
6 1 3.14258 14.9794 3.11698 
13 1 5.59822 12.4966 5.59891 
22 1 4.02391 14.082 4.01224 
29 1 4.71119 13.386 4.70637 
38 1 0.447362 14.6365 3.45897 
48 1 3.45377 17.6889 3.45471 
52 1 3.45362 14.6412 0.407156 
61 1 8.30336 12.8415 5.25627 
71 1 5.26243 9.79228 5.26195 
75 1 5.26195 12.8345 8.30424 
86 1 1.64625 14.7426 3.35365 
96 1 3.36048 16.4898 3.35243 
100 1 3.36028 14.744 1.60673 
109 1 7.10226 12.7384 5.35595 
119 1 5.36348 10.9904 5.36432 
123 1 5.36324 12.7322 7.10495 
7 1 3.12001 14.9773 14.973 
16 1 5.59302 12.4988 12.5017 
23 1 4.0107 14.0857 14.0826 
32 1 4.70172 13.3918 13.39 
39 1 0.413494 14.643 14.6429 
43 1 3.45218 17.6841 14.643 
53 1 3.45237 14.6424 17.6762 
64 1 8.29794 12.8341 12.8339 
68 1 5.2629 9.79226 12.8331 
78 1 5.26233 12.834 9.79629 
87 1 1.61295 14.7446 14.7428 
91 1 3.35223 16.4858 14.7428 
101 1 3.35221 14.7444 16.4781 
112 1 7.09949 12.7326 12.7335 
116 1 5.36304 10.9914 12.733 
126 1 5.36288 12.7323 10.9945 
8 1 14.9789 3.12939 3.11718 
15 1 12.4986 5.59253 5.59829 
24 1 14.0869 4.0181 4.00976 
31 1 13.3915 4.70673 4.70395 
40 1 17.6843 3.45325 3.4532 
44 1 14.6383 0.423411 3.45305 
54 1 14.6427 3.45316 0.410413 
63 1 9.79153 5.26234 5.26152 
67 1 12.8428 8.29666 5.24965 
77 1 12.8345 5.26236 8.30437 
88 1 16.4859 3.35631 3.35122 
92 1 14.7429 1.62253 3.35202 
102 1 14.7447 3.35624 1.61016 
111 1 10.9906 5.3618 5.36374 
115 1 12.7349 7.0956 5.3576 
125 1 12.7323 5.36198 7.105 
5 1 14.9775 3.12082 14.9748 
14 1 12.4994 5.59249 12.5011 
21 1 14.0852 4.01053 14.0838 
30 1 13.3921 4.70357 13.3925 
37 1 17.6838 3.45188 14.6429 
47 1 14.643 0.414693 14.6427 
51 1 14.6431 3.45187 17.6795 
62 1 9.7927 5.2629 12.8333 
72 1 12.8341 8.29858 12.8342 
76 1 12.8339 5.26239 9.79574 
85 1 16.4854 3.35195 14.743 
95 1 14.7444 1.61361 14.7428 
99 1 14.7447 3.35174 16.4811 
110 1 10.9914 5.36255 12.733 
120 1 12.7324 7.09889 12.7334 
124 1 12.732 5.36258 10.995 
3 1 14.9949 14.9547 3.15913 
12 1 12.4561 12.4336 5.68325 
19 1 14.1429 14.1639 4.02101 
28 1 13.2457 13.536 4.57071 
35 1 17.7212 14.6312 3.4655 
45 1 14.6353 17.6924 3.45606 
55 1 14.6356 14.6393 0.418243 
60 1 9.78634 12.8053 5.30644 
70 1 12.834 9.77941 5.27007 
80 1 12.8441 12.8334 8.32832 
83 1 16.5193 14.7287 3.37476 
93 1 14.7456 16.4924 3.36688 
103 1 14.7416 14.7305 1.61715 
108 1 10.9792 12.6631 5.45411 
118 1 12.711 10.9763 5.40819 
128 1 12.7217 12.7028 7.12929 
129 2 12.4884 13.4608 3.71519 
130 3 12.0358 13.444 2.83711 
2 1 14.98 14.9799 14.9713 
9 1 12.4986 12.4984 12.5088 
18 1 14.0908 14.0858 14.0821 
25 1 13.3943 13.3923 13.3948 
34 1 17.6835 14.6431 14.6422 
42 1 14.6428 17.6843 14.642 
50 1 14.64 14.644 17.682 
57 1 9.79009 12.8351 12.8339 
65 1 12.8349 9.79068 12.8339 
73 1 12.846 12.8471 9.80762 
82 1 16.485 14.7457 14.7403 
90 1 14.745 16.4852 14.7401 
98 1 14.7434 14.7451 16.4837 
105 1 10.9898 12.7329 12.7358 
113 1 12.7324 10.9893 12.7356 
121 1 12.7354 12.7379 11.0092 
ITEM: TIMESTEP
40
ITEM: NUMBER OF ATOMS
130
ITEM: BOX BOUNDS pp pp pp
0.0000000000000000e+00 1.8762000000000000e+01
0.0000000000000000e+00 1.8762000000000000e+01
0.0000000000000000e+00 1.8760999999999999e+01
ITEM: ATOMS id type x y z 
1 1 3.12049 3.12347 3.11859 
10 1 5.59447 5.59484 5.59654 
17 1 4.01143 4.01327 4.0108 
26 1 4.7044 4.70371 4.7049 
33 1 0.414165 3.45243 3.45344 
41 1 3.45256 0.419279 3.4544 
49 1 3.45244 3.45229 0.411852 
58 1 8.29979 5.26221 5.26199 
66 1 5.26205 8.29946 5.26191 
74 1 5.26279 5.26277 8.30266 
81 1 1.61334 3.353 3.35192 
89 1 3.35194 1.61887 3.3522 
97 1 3.35208 3.35304 1.61134 
106 1 7.10164 5.36267 5.36348 
114 1 5.36288 7.10057 5.36356 
122 1 5.36296 5.36295 7.10436 
4 1 3.11947 3.12041 14.9752 
11 1 5.59501 5.59473 12.5011 
20 1 4.01193 4.01092 14.0846 
27 1 4.7026 4.70396 13.3916 
36 1 0.413681 3.45194 14.6433 
46 1 3.45202 0.414185 14.6434 
56 1 3.45215 3.45202 17.6811 
59 1 8.30049 5.26299 12.833 
69 1 5.26308 8.3004 12.8329 
79 1 5.26296 5.26296 9.79524 
84 1 1.61255 3.35158 14.7438 
94 1 3.3515 1.61329 14.7438 
104 1 3.35155 3.35153 16.4816 
107 1 7.10232 5.36331 12.7326 
117 1 5.36323 7.10215 12.7324 
127 1 5.3632 5.36338 10.9936 
6 1 3.14603 14.9798 3.1162 
13 1 5.59942 12.497 5.59782 
22 1 4.02672 14.0827 4.01116 
29 1 4.71359 13.3882 4.70551 
38 1 0.45018 14.6346 3.46067 
48 1 3.45552 17.6898 3.45494 
52 1 3.45537 14.6413 0.406528 
61 1 8.30339 12.8357 5.26384 
71 1 5.26214 9.79124 5.26212 
75 1 5.26192 12.8344 8.30423 
86 1 1.6472 14.7414 3.35421 
96 1 3.36392 16.4896 3.35219 
100 1 3.36368 14.7441 1.60623 
109 1 7.10113 12.7389 5.35647 
119 1 5.36471 10.99 5.36434 
123 1 5.36438 12.7319 7.10566 
7 1 3.11928 14.9781 14.9714 
16 1 5.59304 12.4987 12.5016 
23 1 4.01055 14.0851 14.0819 
32 1 4.70209 13.3923 13.3909 
39 1 0.412589 14.6431 14.6427 
43 1 3.45247 17.6842 14.643 
53 1 3.45255 14.6418 17.6759 
64 1 8.29838 12.8344 12.8339 
68 1 5.26286 9.793 12.8333 
78 1 5.26195 12.8342 9.7962 
87 1 1.61158 14.7445 14.7423 
91 1 3.35175 16.485 14.7422 
101 1 3.3517 14.744 16.4768 
112 1 7.10013 12.7327 12.7335 
116 1 5.36251 10.9913 12.733 
126 1 5.36233 12.7322 10.9951 
8 1 14.9785 3.12838 3.11735 
15 1 12.4995 5.59374 5.5959 
24 1 14.0857 4.01571 4.01047 
31 1 13.3923 4.70586 4.70342 
40 1 17.6844 3.45389 3.45296 
44 1 14.6376 0.423913 3.45257 
54 1 14.6432 3.45376 0.411194 
63 1 9.79247 5.26194 5.26214 
67 1 12.8409 8.29616 5.25287 
77 1 12.8339 5.2622 8.30331 
88 1 16.4849 3.35625 3.35104 
92 1 14.742 1.62149 3.35069 
102 1 14.7449 3.35637 1.61005 
111 1 10.9907 5.36217 5.36364 
115 1 12.7365 7.09511 5.35606 
125 1 12.7325 5.36242 7.10537 
5 1 14.9777 3.12005 14.9744 
14 1 12.4991 5.59302 12.502 
21 1 14.0855 4.01057 14.0839 
30 1 13.3919 4.70255 13.3923 
37 1 17.6836 3.45207 14.643 
47 1 14.6432 0.413613 14.6426 
51 1 14.6432 3.45203 17.6798 
62 1 9.79303 5.2627 12.8332 
72 1 12.8342 8.29802 12.8339 
76 1 12.8338 5.26231 9.79631 
85 1 16.4846 3.3517 14.7431 
95 1 14.7445 1.61255 14.7431 
99 1 14.7446 3.35148 16.4811 
110 1 10.9913 5.36239 12.7331 
120 1 12.7326 7.1 12.7335 
124 1 12.7323 5.36222 10.9943 
3 1 14.9949 14.9568 3.16174 
12 1 12.4591 12.436 5.68362 
19 1 14.1252 14.1697 4.01214 
28 1 13.2303 13.5349 4.55877 
35 1 17.722 14.6296 3.46785 
45 1 14.6394 17.6932 3.45528 
55 1 14.6395 14.6403 0.420853 
60 1 9.78745 12.7988 5.31344 
70 1 12.833 9.7808 5.27309 
80 1 12.8448 12.8321 8.32977 
83 1 16.5217 14.7269 3.37799 
93 1 14.7504 16.4938 3.3656 
103 1 14.7461 14.7329 1.61977 
108 1 10.9826 12.6649 5.45396 
118 1 12.7156 10.9783 5.40624 
128 1 12.7263 12.7058 7.13059 
129 2 12.4969 13.4598 3.68683 
130 3 12.002 13.4382 2.82951 
2 1 14.9794 14.9788 14.9765 
9 1 12.5004 12.4996 12.51 
18 1 14.0893 14.087 14.0876 
25 1 13.395 13.3941 13.3951 
34 1 17.6825 14.644 14.6417 
42 1 14.6436 17.6832 14.6415 
50 1 14.6402 14.6451 17.6857 
57 1 9.79113 12.8345 12.8344 
65 1 12.8342 9.7909 12.8343 
73 1 12.846 12.8454 9.81099 
82 1 16.4836 14.7458 14.7426 
90 1 14.7454 16.4844 14.7421 
98 1 14.7438 14.7467 16.4882 
105 1 10.9895 12.7329 12.7369 
113 1 12.7326 10.9891 12.7366 
121 1 12.7375 12.7394 11.0124 
ITEM: TIMESTEP
50
ITEM: NUMBER OF ATOMS
130
ITEM: BOX BOUNDS pp pp pp
0.0000000000000000e+00 1.8762000000000000e+01
0.0000000000000000e+00 1.8762000000000000e+01
0.0000000000000000e+00 1.8760999999999999e+01
ITEM: ATOMS id type x y z 
1 1 3.11957 3.12504 3.11832 
10 1 5.59503 5.59408 5.59665 
17 1 4.01242 4.01366 4.01012 
26 1 4.70377 4.70294 4.70642 
33 1 0.41415 3.45326 3.45337 
41 1 3.45293 0.42022 3.45488 
49 1 3.45268 3.45279 0.411865 
58 1 8.3009 5.26172 5.26217 
66 1 5.26143 8.29911 5.26181 
74 1 5.26254 5.26246 8.30303 
81 1 1.6129 3.35372 3.352 
89 1 3.35165 1.61833 3.35283 
97 1 3.3521 3.35387 1.6106 
106 1 7.10188 5.36275 5.36323 
114 1 5.3624 7.1004 5.36325 
122 1 5.363 5.36303 7.10391 
4 1 3.11964 3.12034 14.9755 
11 1 5.5946 5.59494 12.5008 
20 1 4.01249 4.0087 14.0831 
27 1 4.70225 4.70546 13.3924 
36 1 0.413247 3.45211 14.6431 
46 1 3.4525 0.414802 14.6433 
56 1 3.45252 3.45198 17.6806 
59 1 8.30117 5.26278 12.8332 
69 1 5.26266 8.3004 12.8332 
79 1 5.26254 5.26281 9.79519 
84 1 1.6122 3.35196 14.7435 
94 1 3.3513 1.6135 14.7437 
104 1 3.35143 3.35194 16.482 
107 1 7.102 5.36309 12.7328 
117 1 5.36352 7.10133 12.7327 
127 1 5.3634 5.36308 10.9942 
6 1 3.14821 14.981 3.1154 
13 1 5.5999 12.4971 5.59745 
22 1 4.03075 14.0852 4.00829 
29 1 4.71656 13.3902 4.70527 
38 1 0.451561 14.6324 3.46253 
48 1 3.45832 17.6896 3.45489 
52 1 3.45825 14.6415 0.405903 
61 1 8.30515 12.829 5.27248 
71 1 5.26247 9.79123 5.26223 
75 1 5.26245 12.8341 8.30411 
86 1 1.65002 14.7402 3.35463 
96 1 3.36734 16.4909 3.35181 
100 1 3.36724 14.7443 1.60493 
109 1 7.10335 12.7363 5.3603 
119 1 5.36542 10.9896 5.3642 
123 1 5.3652 12.7317 7.10575 
7 1 3.11806 14.9776 14.9709 
16 1 5.5938 12.4994 12.5017 
23 1 4.01001 14.0848 14.0828 
32 1 4.70229 13.3919 13.3899 
39 1 0.411724 14.6435 14.6419 
43 1 3.45254 17.6844 14.6426 
53 1 3.45278 14.6413 17.6745 
64 1 8.29926 12.8344 12.834 
68 1 5.26238 9.7926 12.8334 
78 1 5.26128 12.8343 9.79658 
87 1 1.61067 14.7449 14.7412 
91 1 3.35147 16.4857 14.7413 
101 1 3.35088 14.7437 16.4762 
112 1 7.10042 12.7327 12.7334 
116 1 5.36236 10.9917 12.7333 
126 1 5.36186 12.7323 10.9951 
8 1 14.9773 3.12832 3.1163 
15 1 12.4999 5.59525 5.59399 
24 1 14.0849 4.01326 4.01154 
31 1 13.3924 4.70398 4.7059 
40 1 17.6839 3.45456 3.45297 
44 1 14.6375 0.424438 3.45179 
54 1 14.6435 3.45468 0.410387 
63 1 9.79302 5.26175 5.26259 
67 1 12.8394 8.29806 5.25607 
77 1 12.8335 5.26238 8.30302 
88 1 16.4852 3.35635 3.35114 
92 1 14.7408 1.62328 3.34986 
102 1 14.7448 3.35671 1.60951 
111 1 10.9921 5.36259 5.36324 
115 1 12.7369 7.09731 5.35606 
125 1 12.7325 5.36307 7.10401 
5 1 14.977 3.11919 14.9747 
14 1 12.4997 5.59307 12.5019 
21 1 14.0847 4.01031 14.0844 
30 1 13.3924 4.70166 13.391 
37 1 17.6831 3.45211 14.643 
47 1 14.6436 0.412719 14.6422 
51 1 14.6433 3.45236 17.6795 
62 1 9.79326 5.26244 12.8333 
72 1 12.834 8.29865 12.8338 
76 1 12.8336 5.26203 9.79574 
85 1 16.4842 3.35146 14.7431 
95 1 14.7447 1.61149 14.743 
99 1 14.7447 3.35108 16.4807 
110 1 10.9925 5.36234 12.7332 
120 1 12.7326 7.09949 12.7335 
124 1 12.7322 5.36217 10.9948 
3 1 14.9961 14.9576 3.16587 
12 1 12.4644 12.4406 5.68204 
19 1 14.1091 14.1718 3.99953 
28 1 13.2101 13.5328 4.53983 
35 1 17.724 14.627 3.47131 
45 1 14.6441 17.6949 3.45425 
55 1 14.6444 14.6421 0.424987 
60 1 9.79006 12.7935 5.32028 
70 1 12.8336 9.7833 5.27558 
80 1 12.8469 12.8314 8.33071 
83 1 16.522 14.7246 3.38321 
93 1 14.7559 16.4943 3.36592 
103 1 14.7517 14.7355 1.62465 
108 1 10.9855 12.6642 5.45683 
118 1 12.7191 10.9811 5.4064 
128 1 12.7308 12.7083 7.13117 
129 2 12.4938 13.4562 3.656 
130 3 11.9663 13.4309 2.81998 
2 1 14.9785 14.9787 14.9811 
9 1 12.5022 12.501 12.5115 
18 1 14.0873 14.0876 14.091 
25 1 13.3928 13.3959 13.4013 
34 1 17.6817 14.6443 14.642 
42 1 14.6442 17.6825 14.6417 
50 1 14.6414 14.6463 17.6908 
57 1 9.7918 12.8341 12.8353 
65 1 12.8336 9.79082 12.835 
73 1 12.8467 12.8439 9.81256 
82 1 16.483 14.7457 14.745 
90 1 14.7458 16.4839 14.7445 
98 1 14.7437 14.7474 16.4924 
105 1 10.9911 12.733 12.738 
113 1 12.7332 10.9903 12.7378 
121 1 12.7398 12.7398 11.0136 
ITEM: TIMESTEP
60
ITEM: NUMBER OF ATOMS
130
ITEM: BOX BOUNDS pp pp pp
0.0000000000000000e+00 1.8762000000000000e+01
0.0000000000000000e+00 1.8762000000000000e+01
0.0000000000000000e+00 1.8760999999999999e+01
ITEM: ATOMS id type x y z 
1 1 3.12281 3.12048 3.12091 
10 1 5.60021 5.59166 5.59652 
17 1 4.004 4.01872 4.01502 
26 1 4.69897 4.71505 4.70071 
33 1 0.414705 3.45638 3.45337 
41 1 3.45583 0.421214 3.45642 
49 1 3.45257 3.45523 0.411721 
58 1 8.30372 5.26249 5.26255 
66 1 5.26129 8.29681 5.26208 
74 1 5.26182 5.26305 8.30356 
81 1 1.61303 3.35669 3.35067 
89 1 3.35227 1.61939 3.35229 
97 1 3.35356 3.35526 1.61037 
106 1 7.10452 5.35913 5.36592 
114 1 5.36332 7.09854 5.36476 
122 1 5.36477 5.3604 7.10469 
4 1 3.11694 3.12089 14.9718 
11 1 5.5998 5.59253 12.5023 
20 1 4.01064 4.0217 14.0927 
27 1 4.70362 4.69583 13.3828 
36 1 0.412788 3.45338 14.6431 
46 1 3.45229 0.412574 14.6428 
56 1 3.45246 3.454 17.679 
59 1 8.3027 5.26228 12.8332 
69 1 5.26266 8.30265 12.8336 
79 1 5.26261 5.26178 9.79628 
84 1 1.61188 3.35093 14.7427 
94 1 3.35313 1.61157 14.743 
104 1 3.35284 3.35038 16.4806 
107 1 7.10353 5.36397 12.7327 
117 1 5.36201 7.1037 12.7333 
127 1 5.36244 5.36417 10.9951 
6 1 3.15645 14.9806 3.10915 
13 1 5.6053 12.4956 5.59679 
22 1 4.04823 14.0987 4.00809 
29 1 4.73076 13.3993 4.70404 
38 1 0.459525 14.6257 3.46845 
48 1 3.46706 17.691 3.45447 
52 1 3.46787 14.6422 0.402822 
61 1 8.31564 12.8073 5.30061 
71 1 5.26353 9.78967 5.2624 
75 1 5.26349 12.8326 8.30381 
86 1 1.6568 14.7373 3.35399 
96 1 3.37606 16.4923 3.34804 
100 1 3.37647 14.7462 1.60194 
109 1 7.1127 12.718 5.38152 
119 1 5.36536 10.9881 5.36335 
123 1 5.36593 12.7305 7.1055 
7 1 3.11418 14.9776 14.966 
16 1 5.59621 12.4985 12.5013 
23 1 4.01731 14.1 14.0721 
32 1 4.69631 13.3754 13.3997 
39 1 0.408911 14.6455 14.6389 
43 1 3.45217 17.6822 14.6406 
53 1 3.45546 14.6411 17.6721 
64 1 8.30225 12.8323 12.8343 
68 1 5.26219 9.79533 12.8341 
78 1 5.26127 12.8332 9.79621 
87 1 1.60793 14.7449 14.7376 
91 1 3.34927 16.4836 14.7408 
101 1 3.34885 14.7419 16.4739 
112 1 7.10308 12.7329 12.7323 
116 1 5.36363 10.9939 12.7316 
126 1 5.36156 12.7335 10.9949 
8 1 14.9753 3.12638 3.12203 
15 1 12.5008 5.59478 5.60299 
24 1 14.0857 4.02352 4.00866 
31 1 13.3904 4.71547 4.69858 
40 1 17.6829 3.45637 3.45271 
44 1 14.6412 0.426487 3.44762 
54 1 14.6437 3.45773 0.41066 
63 1 9.79539 5.26309 5.26123 
67 1 12.8381 8.30728 5.26356 
77 1 12.8321 5.26443 8.30249 
88 1 16.4844 3.3569 3.35119 
92 1 14.7379 1.62674 3.3485 
102 1 14.7434 3.35901 1.60903 
111 1 10.9943 5.36308 5.36456 
115 1 12.7336 7.10761 5.36395 
125 1 12.731 5.36536 7.10291 
5 1 14.9771 3.11337 14.9665 
14 1 12.4998 5.59116 12.4969 
21 1 14.0813 4.01388 14.0882 
30 1 13.3913 4.70655 13.3938 
37 1 17.6831 3.45238 14.6431 
47 1 14.6453 0.410444 14.641 
51 1 14.6441 3.45402 17.6763 
62 1 9.7942 5.26272 12.8339 
72 1 12.8315 8.30049 12.8341 
76 1 12.8317 5.26258 9.79217 
85 1 16.484 3.34966 14.742 
95 1 14.745 1.61015 14.7407 
99 1 14.7436 3.35025 16.4783 
110 1 10.9934 5.36161 12.7315 
120 1 12.7329 7.1019 12.7312 
124 1 12.7323 5.36134 10.992 
3 1 14.9997 14.9558 3.18647 
12 1 12.4801 12.4572 5.67402 
19 1 14.0709 14.1655 3.9719 
28 1 13.1501 13.5231 4.45257 
35 1 17.7307 14.6156 3.48884 
45 1 14.6602 17.6994 3.45382 
55 1 14.6635 14.6508 0.438027 
60 1 9.79958 12.7741 5.34946 
70 1 12.8375 9.79533 5.28644 
80 1 12.8569 12.8313 8.32834 
83 1 16.5282 14.7123 3.40752 
93 1 14.7702 16.497 3.37353 
103 1 14.7703 14.7438 1.63865 
108 1 10.9987 12.6567 5.47415 
118 1 12.7298 10.9945 5.41039 
128 1 12.7484 12.7205 7.1271 
129 2 12.4279 13.4363 3.56497 
130 3 11.8413 13.3994 2.76108 
2 1 14.9706 14.9822 14.9954 
9 1 12.499 12.5074 12.5167 
18 1 14.0849 14.0782 14.1108 
25 1 13.3961 13.3819 13.4204 
34 1 17.6781 14.6441 14.6463 
42 1 14.6459 17.6826 14.6452 
50 1 14.65 14.6506 17.7048 
57 1 9.79323 12.8323 12.8374 
65 1 12.8335 9.7949 12.8363 
73 1 12.8546 12.8391 9.81323 
82 1 16.4801 14.7472 14.7533 
90 1 14.7448 16.4834 14.7522 
98 1 14.7448 14.7517 16.5054 
105 1 10.9933 12.7348 12.7413 
113 1 12.7319 10.994 12.7417 
121 1 12.7422 12.7408 11.0134 
ITEM: TIMESTEP
70
ITEM: NUMBER OF ATOMS
130
ITEM: BOX BOUNDS pp pp pp
0.0000000000000000e+00 1.8762000000000000e+01
0.0000000000000000e+00 1.8762000000000000e+01
0.0000000000000000e+00 1.8760999999999999e+01
ITEM: ATOMS id type x y z 
1 1 3.11826 3.12624 3.11834 
10 1 5.59598 5.59373 5.59769 
17 1 4.00771 4.01954 4.00925 
26 1 4.69987 4.70846 4.70541 
33 1 0.414059 3.45623 3.45213 
41 1 3.45709 0.421145 3.45554 
49 1 3.45321 3.45432 0.411624 
58 1 8.30311 5.26094 5.26301 
66 1 5.26201 8.29772 5.2629 
74 1 5.26277 5.2618 8.30359 
81 1 1.61272 3.35554 3.35127 
89 1 3.35266 1.61944 3.35388 
97 1 3.3521 3.35526 1.61058 
106 1 7.10438 5.36108 5.36405 
114 1 5.36423 7.09909 5.3645 
122 1 5.36438 5.36183 7.10465 
4 1 3.11959 3.12004 14.9749 
11 1 5.59579 5.59515 12.5008 
20 1 4.01154 4.01054 14.0834 
27 1 4.70291 4.70564 13.3925 
36 1 0.413072 3.45234 14.643 
46 1 3.45275 0.414324 14.6426 
56 1 3.4525 3.45273 17.6806 
59 1 8.30226 5.26306 12.8337 
69 1 5.2623 8.30057 12.8337 
79 1 5.26216 5.26303 9.79534 
84 1 1.61191 3.35238 14.7433 
94 1 3.35162 1.61332 14.7432 
104 1 3.35109 3.35209 16.4817 
107 1 7.10349 5.36293 12.7326 
117 1 5.36383 7.1017 12.7327 
127 1 5.36387 5.3631 10.9943 
6 1 3.15768 14.984 3.1119 
13 1 5.60634 12.4957 5.59733 
22 1 4.04706 14.0946 4.00627 
29 1 4.73043 13.3987 4.70393 
38 1 0.459659 14.6251 3.46863 
48 1 3.46677 17.6902 3.45336 
52 1 3.46735 14.6424 0.401968 
61 1 8.31768 12.803 5.3056 
71 1 5.26251 9.79026 5.26225 
75 1 5.26281 12.8322 8.3042 
86 1 1.65608 14.7377 3.35444 
96 1 3.37636 16.4911 3.34775 
100 1 3.3782 14.7465 1.60155 
109 1 7.1138 12.7181 5.38218 
119 1 5.36657 10.9887 5.3635 
123 1 5.36667 12.7304 7.1056 
7 1 3.11529 14.9778 14.967 
16 1 5.59512 12.4988 12.5017 