ITEM: TIMESTEP
0
ITEM: NUMBER OF ATOMS
49
ITEM: BOX BOUNDS pp pp pp
0.0000000000000000e+00 1.1000000000000000e+01
0.0000000000000000e+00 1.1002000000000001e+01
0.0000000000000000e+00 1.1000000000000000e+01
ITEM: ATOMS id type x y z 
10 1 4.603 4.603 4.603 
11 1 3.085 3.085 3.085 
12 1 3.796 3.796 3.796 
46 1 0.726 0.725 0.725 
47 1 2.26 2.259 2.26 
48 1 1.551 1.55 1.55 
19 1 4.546 4.545 6.226 
20 1 3.013 3.013 7.764 
21 1 3.721 3.721 7.053 
31 1 0.668 0.667 10.103 
32 1 2.187 2.187 8.589 
33 1 1.476 1.475 9.298 
16 1 4.546 6.225 4.546 
17 1 3.013 7.765 3.013 
18 1 3.721 7.053 3.722 
25 1 0.668 10.103 0.668 
26 1 2.188 8.589 2.188 
27 1 1.476 9.298 1.476 
4 1 4.608 6.169 6.169 
5 1 3.086 7.684 7.684 
6 1 3.799 6.974 6.974 
37 1 0.729 10.046 10.046 
38 1 2.259 8.509 8.508 
39 1 1.552 9.219 9.219 
49 2 2.728 7.951 9.321 
13 1 6.225 4.546 4.546 
14 1 7.764 3.013 3.013 
15 1 7.053 3.721 3.722 
28 1 10.102 0.667 0.668 
29 1 8.589 2.187 2.188 
30 1 9.298 1.475 1.476 
1 1 6.168 4.608 6.169 
2 1 7.684 3.086 7.684 
3 1 6.974 3.799 6.974 
40 1 10.045 0.728 10.046 
41 1 8.508 2.259 8.508 
42 1 9.218 1.551 9.218 
7 1 6.169 6.169 4.608 
8 1 7.684 7.684 3.086 
9 1 6.974 6.974 3.799 
43 1 10.046 10.047 0.729 
44 1 8.508 8.509 2.259 
45 1 9.219 9.219 1.552 
22 1 6.229 6.229 6.229 
23 1 7.764 7.765 7.765 
24 1 7.055 7.056 7.055 
34 1 10.108 10.108 10.107 
35 1 8.59 8.59 8.59 
36 1 9.301 9.301 9.3 
ITEM: TIMESTEP
10
ITEM: NUMBER OF ATOMS
49
ITEM: BOX BOUNDS pp pp pp
0.0000000000000000e+00 1.1000000000000000e+01
0.0000000000000000e+00 1.1002000000000001e+01
0.0000000000000000e+00 1.1000000000000000e+01
ITEM: ATOMS id type x y z 
10 1 4.59505 4.59288 4.59166 
11 1 3.08127 3.08122 3.08249 
12 1 3.79114 3.79061 3.78841 
46 1 0.738281 0.731643 0.733115 
47 1 2.27269 2.27237 2.27279 
48 1 1.56583 1.56427 1.565 
19 1 4.53745 4.51938 6.23514 
20 1 2.99821 3.00042 7.77921 
21 1 3.70758 3.70223 7.06574 
31 1 0.669243 0.720376 10.1005 
32 1 2.19824 2.18602 8.57801 
33 1 1.47633 1.5009 9.29692 
16 1 4.53757 6.23327 4.52145 
17 1 2.99902 7.77803 3.00212 
18 1 3.70988 7.0658 3.70395 
25 1 0.670047 10.101 0.720453 
26 1 2.19872 8.57795 2.18708 
27 1 1.47731 9.29714 1.50129 
4 1 4.6293 6.14682 6.15703 
5 1 3.08101 7.69757 7.58864 
6 1 3.80875 6.96521 6.93095 
37 1 0.736583 10.0425 10.0273 
38 1 2.29706 8.46372 8.52537 
39 1 1.49043 9.28537 9.19828 
49 2 2.77313 7.89423 9.43596 
13 1 6.23593 4.53573 4.53554 
14 1 7.77585 3.00113 3.00152 
15 1 7.06545 3.70859 3.7088 
28 1 10.0907 0.67817 0.681383 
29 1 8.58465 2.19071 2.19266 
30 1 9.29172 1.48242 1.48176 
1 1 6.17962 4.59496 6.17639 
2 1 7.68709 3.08232 7.6883 
3 1 6.98126 3.79232 6.97885 
40 1 10.0367 0.735794 10.0328 
41 1 8.49546 2.2714 8.49583 
42 1 9.20388 1.566 9.20334 
7 1 6.17896 6.17629 4.5957 
8 1 7.68846 7.68825 3.08295 
9 1 6.97939 6.9798 3.79051 
43 1 10.0392 10.0339 0.736462 
44 1 8.49614 8.49699 2.27115 
45 1 9.20445 9.20486 1.56639 
22 1 6.25565 6.23834 6.23809 
23 1 7.77569 7.77949 7.77907 
24 1 7.07375 7.06819 7.06809 
34 1 10.0538 10.1065 10.1045 
35 1 8.59078 8.57908 8.57868 
36 1 9.27524 9.29982 9.29937 
ITEM: TIMESTEP
20
ITEM: NUMBER OF ATOMS
49
ITEM: BOX BOUNDS pp pp pp
0.0000000000000000e+00 1.1000000000000000e+01
0.0000000000000000e+00 1.1002000000000001e+01
0.0000000000000000e+00 1.1000000000000000e+01
ITEM: ATOMS id type x y z 
10 1 4.59918 4.59447 4.58871 
11 1 3.08249 3.08576 3.08291 
12 1 3.79463 3.78832 3.79238 
46 1 0.738568 0.736589 0.74249 
47 1 2.27497 2.27514 2.27538 
48 1 1.5694 1.5663 1.56887 
19 1 4.54326 4.51475 6.23101 
20 1 3.00009 3.00225 7.77729 
21 1 3.71006 3.70017 7.0643 
31 1 0.661334 0.724784 10.1077 
32 1 2.19568 2.18986 8.57933 
33 1 1.47853 1.49812 9.29512 
16 1 4.54237 6.22825 4.51784 
17 1 3.00043 7.77699 3.00274 
18 1 3.71191 7.06388 3.70297 
25 1 0.665153 10.1068 0.717181 
26 1 2.1952 8.58073 2.19024 
27 1 1.47912 9.29525 1.49593 
4 1 4.6343 6.14122 6.15173 
5 1 3.07066 7.71141 7.5602 
6 1 3.79821 6.97757 6.90879 
37 1 0.71475 10.0643 10.0324 
38 1 2.31873 8.43364 8.59527 
39 1 1.48358 9.29604 9.1751 
49 2 2.7958 7.86864 9.44651 
13 1 6.24131 4.53226 4.53167 
14 1 7.77786 3.00062 2.99989 
15 1 7.06675 3.7056 3.70588 
28 1 10.0944 0.675202 0.679508 
29 1 8.58456 2.19105 2.1918 
30 1 9.29168 1.48077 1.48428 
1 1 6.17942 4.59228 6.17128 
2 1 7.68309 3.08384 7.68712 
3 1 6.98248 3.79474 6.97456 
40 1 10.0261 0.745868 10.0349 
41 1 8.49321 2.27529 8.4931 
42 1 9.20001 1.56812 9.20016 
7 1 6.1797 6.17113 4.59427 
8 1 7.68626 7.68767 3.084 
9 1 6.98051 6.97696 3.79159 
43 1 10.0344 10.0342 0.744402 
44 1 8.4929 8.49537 2.27352 
45 1 9.20314 9.20162 1.56912 
22 1 6.25975 6.23285 6.23267 
23 1 7.77367 7.77739 7.77734 
24 1 7.0757 7.06546 7.06556 
34 1 10.0501 10.1137 10.1111 
35 1 8.58645 8.581 8.58014 
36 1 9.2781 9.29778 9.29666 
ITEM: TIMESTEP
30
ITEM: NUMBER OF ATOMS
49
ITEM: BOX BOUNDS pp pp pp
0.0000000000000000e+00 1.1000000000000000e+01
0.0000000000000000e+00 1.1002000000000001e+01
0.0000000000000000e+00 1.1000000000000000e+01
ITEM: ATOMS id type x y z 
10 1 4.60277 4.59064 4.5905 
11 1 3.0858 3.0837 3.08707 
12 1 3.79417 3.79704 3.78867 
46 1 0.737854 0.733862 0.742026 
47 1 2.27574 2.275 2.27547 
48 1 1.56769 1.56716 1.57021 
19 1 4.54338 4.51867 6.22997 
20 1 3.00178 3.00221 7.77493 
21 1 3.71219 3.70056 7.06316 
31 1 0.65824 0.726141 10.1079 
32 1 2.19275 2.18598 8.5829 
33 1 1.47215 1.50109 9.30041 
16 1 4.54439 6.22773 4.52045 
17 1 3.00462 7.7731 3.00527 
18 1 3.70909 7.06567 3.69908 
25 1 0.666636 10.1047 0.708331 
26 1 2.19304 8.5816 2.18565 
27 1 1.47423 9.30283 1.4993 
4 1 4.62613 6.14834 6.15362 
5 1 3.05964 7.72327 7.54503 
6 1 3.78963 6.98982 6.89427 
37 1 0.70625 10.0743 10.0283 
38 1 2.33109 8.41795 8.63219 
39 1 1.48197 9.29844 9.15728 
49 2 2.82294 7.83731 9.46951 
13 1 6.24159 4.52919 4.52933 
14 1 7.77895 2.99643 2.99747 
15 1 7.07099 3.70702 3.70397 
28 1 10.0929 0.677058 0.681641 
29 1 8.58826 2.18673 2.18927 
30 1 9.29511 1.47843 1.47908 
1 1 6.18046 4.59286 6.16956 
2 1 7.68205 3.08642 7.68697 
3 1 6.98181 3.79264 6.96995 
40 1 10.0266 0.743994 10.0378 
41 1 8.49343 2.27293 8.48953 
42 1 9.19811 1.57384 9.2079 
7 1 6.18104 6.16978 4.59223 
8 1 7.68525 7.6851 3.08606 
9 1 6.977 6.97562 3.79187 
43 1 10.0372 10.0344 0.743435 
44 1 8.4928 8.49429 2.2739 
45 1 9.20368 9.20459 1.56949 
22 1 6.25597 6.23144 6.23197 
23 1 7.7736 7.77494 7.77478 
24 1 7.07537 7.06441 7.06461 
34 1 10.0499 10.1148 10.1111 
35 1 8.59017 8.58163 8.58363 
36 1 9.27352 9.30622 9.29996 
ITEM: TIMESTEP
40
ITEM: NUMBER OF ATOMS
49
ITEM: BOX BOUNDS pp pp pp
0.0000000000000000e+00 1.1000000000000000e+01
0.0000000000000000e+00 1.1002000000000001e+01
0.0000000000000000e+00 1.1000000000000000e+01
ITEM: ATOMS id type x y z 
10 1 4.60317 4.59267 4.59087 
11 1 3.08472 3.08582 3.08548 
12 1 3.79623 3.79263 3.79077 
46 1 0.738799 0.734312 0.743561 
47 1 2.27549 2.27556 2.27592 
48 1 1.56863 1.56682 1.57083 
19 1 4.54298 4.52069 6.23021 
20 1 3.00209 3.00101 7.77461 
21 1 3.71186 3.70107 7.06347 
31 1 0.658324 0.725129 10.1089 
32 1 2.19334 2.1883 8.58225 
33 1 1.47328 1.50198 9.29939 
16 1 4.54368 6.22853 4.52066 
17 1 3.00153 7.77581 3.00172 
18 1 3.71159 7.06367 3.70062 
25 1 0.66594 10.1068 0.706557 
26 1 2.19147 8.58463 2.18883 
27 1 1.47607 9.2983 1.49333 
4 1 4.62502 6.15024 6.15233 
5 1 3.05328 7.73028 7.54271 
6 1 3.78352 6.99602 6.89601 
37 1 0.706587 10.0741 10.0231 
38 1 2.33733 8.41052 8.64533 
39 1 1.48201 9.29877 9.15209 
49 2 2.83387 7.82492 9.47551 
13 1 6.24308 4.52937 4.52801 
14 1 7.77979 2.99712 2.99682 
15 1 7.07124 3.70394 3.70325 
28 1 10.0946 0.675758 0.681408 
29 1 8.58775 2.18775 2.18863 
30 1 9.29512 1.47733 1.48159 
1 1 6.18075 4.59415 6.167 
2 1 7.68331 3.08632 7.68466 
3 1 6.97889 3.79328 6.97235 
40 1 10.0233 0.748436 10.0395 
41 1 8.49213 2.27562 8.49089 
42 1 9.1972 1.57224 9.20372 
7 1 6.18034 6.16893 4.59368 
8 1 7.68472 7.68592 3.0852 
9 1 6.97907 6.97477 3.79195 
43 1 10.0371 10.0335 0.744586 
44 1 8.49314 8.49544 2.27372 
45 1 9.20319 9.20278 1.57044 
22 1 6.25394 6.2316 6.23199 
23 1 7.77463 7.7744 7.77432 
24 1 7.07423 7.06399 7.06406 
34 1 10.0504 10.1158 10.1116 
35 1 8.5872 8.58257 8.58277 
36 1 9.27413 9.3024 9.29967 
ITEM: TIMESTEP
50
ITEM: NUMBER OF ATOMS
49
ITEM: BOX BOUNDS pp pp pp
0.0000000000000000e+00 1.1000000000000000e+01
0.0000000000000000e+00 1.1002000000000001e+01
0.0000000000000000e+00 1.1000000000000000e+01
ITEM: ATOMS id type x y z 
10 1 4.6077 4.59288 4.59336 
11 1 3.08815 3.08789 3.08552 
12 1 3.79686 3.79369 3.79471 
46 1 0.741441 0.730362 0.741874 
47 1 2.27333 2.27784 2.27591 
48 1 1.57105 1.56217 1.57324 
19 1 4.53932 4.53652 6.23361 
20 1 3.007 3.00016 7.77274 
21 1 3.71113 3.70182 7.05835 
31 1 0.656772 0.721457 10.1087 
32 1 2.19183 2.19199 8.58284 
33 1 1.47258 1.50741 9.30172 
16 1 4.54195 6.23124 4.52456 
17 1 3.00131 7.77568 2.99748 
18 1 3.70999 7.06509 3.69889 
25 1 0.669314 10.1014 0.680597 
26 1 2.18715 8.58585 2.18424 
27 1 1.47397 9.30645 1.49391 
4 1 4.60745 6.16693 6.15451 
5 1 3.02715 7.75723 7.53473 
6 1 3.75719 7.02682 6.8862 
37 1 0.701894 10.0796 10.0002 
38 1 2.36396 8.37811 8.7188 
39 1 1.48545 9.29657 9.13045 
49 2 2.89256 7.75842 9.50553 
13 1 6.24362 4.52788 4.52503 
14 1 7.78065 2.99497 2.99513 
15 1 7.07372 3.70337 3.70141 
28 1 10.1017 0.670354 0.68236 
29 1 8.59046 2.18701 2.18576 
30 1 9.29697 1.47192 1.48305 
1 1 6.17703 4.5978 6.16496 
2 1 7.68134 3.08944 7.68109 
3 1 6.97625 3.79385 6.96711 
40 1 10.018 0.750869 10.0426 
41 1 8.48903 2.27647 8.489 
42 1 9.19442 1.57916 9.20611 
7 1 6.18047 6.16583 4.59641 
8 1 7.6846 7.68463 3.08604 
9 1 6.97705 6.97324 3.79082 
43 1 10.042 10.0297 0.740464 
44 1 8.49234 8.49751 2.27266 
45 1 9.2081 9.20281 1.57267 
22 1 6.23827 6.23672 6.23356 
23 1 7.77494 7.77189 7.77046 
24 1 7.07449 7.05972 7.06243 
34 1 10.0536 10.1215 10.1074 
35 1 8.58124 8.58939 8.58005 
36 1 9.27313 9.29239 9.30781 
ITEM: TIMESTEP
60
ITEM: NUMBER OF ATOMS
49
ITEM: BOX BOUNDS pp pp pp
0.0000000000000000e+00 1.1000000000000000e+01
0.0000000000000000e+00 1.1002000000000001e+01
0.0000000000000000e+00 1.1000000000000000e+01
ITEM: ATOMS id type x y z 
10 1 4.60639 4.59422 4.59583 
11 1 3.0859 3.08768 3.08645 
12 1 3.79985 3.79274 3.79186 
46 1 0.743796 0.726989 0.741112 
47 1 2.27358 2.27588 2.27698 
48 1 1.57044 1.56485 1.57131 
19 1 4.53739 4.53923 6.23264 
20 1 3.00774 2.99803 7.7699 
21 1 3.71094 3.70695 7.06171 
31 1 0.655502 0.722804 10.1077 
32 1 2.1918 2.19421 8.58506 
33 1 1.47211 1.50563 9.2984 
16 1 4.54043 6.23249 4.52507 
17 1 3.00088 7.77554 2.99575 
18 1 3.70852 7.06684 3.69848 
25 1 0.67029 10.1034 0.679515 
26 1 2.18545 8.59008 2.18826 
27 1 1.47638 9.29981 1.48347 
4 1 4.60194 6.17389 6.15247 
5 1 3.02292 7.76179 7.538 
6 1 3.75328 7.02994 6.89074 
37 1 0.70258 10.0797 9.99406 
38 1 2.37012 8.37144 8.7243 
39 1 1.49084 9.29043 9.13708 
49 2 2.9024 7.74731 9.50916 
13 1 6.24317 4.52959 4.52691 
14 1 7.78132 2.99564 2.99519 
15 1 7.07232 3.70203 3.70078 
28 1 10.1015 0.668687 0.68243 
29 1 8.59058 2.18457 2.18664 
30 1 9.29913 1.47421 1.48086 
1 1 6.17463 4.59962 6.16333 
2 1 7.68135 3.088 7.67859 
3 1 6.97608 3.79686 6.97033 
40 1 10.0199 0.752228 10.0446 
41 1 8.48978 2.27816 8.49093 
42 1 9.19324 1.57563 9.20536 
7 1 6.17879 6.16628 4.59618 
8 1 7.68331 7.68491 3.08394 
9 1 6.98022 6.97354 3.79386 
43 1 10.0451 10.0284 0.740123 
44 1 8.49422 8.49862 2.27394 
45 1 9.2063 9.20123 1.56989 
22 1 6.23616 6.23582 6.23394 
23 1 7.7778 7.76847 7.76868 
24 1 7.0679 7.06388 7.06217 
34 1 10.0541 10.1184 10.1094 
35 1 8.57953 8.58469 8.58514 
36 1 9.2722 9.30066 9.29846 
ITEM: TIMESTEP
70
ITEM: NUMBER OF ATOMS
49
ITEM: BOX BOUNDS pp pp pp
0.0000000000000000e+00 1.1000000000000000e+01
0.0000000000000000e+00 1.1002000000000001e+01
0.0000000000000000e+00 1.1000000000000000e+01
ITEM: ATOMS id type x y z 
10 1 4.60645 4.59397 4.5959 
11 1 3.08696 3.0878 3.08643 
12 1 3.79846 3.79307 3.79272 
46 1 0.744548 0.726598 0.7399 
47 1 2.27306 2.27596 2.27674 
48 1 1.57081 1.56357 1.57116 
19 1 4.5359 4.54215 6.23288 
20 1 3.0082 2.99829 7.76897 
21 1 3.71155 3.70808 7.06207 
31 1 0.655067 0.723179 10.1067 
32 1 2.19211 2.19532 8.58484 
33 1 1.4721 1.50558 9.29804 
16 1 4.53994 6.23346 4.5254 
17 1 3.00052 7.77605 2.99504 
18 1 3.70781 7.06714 3.69824 
25 1 0.671598 10.1028 0.677517 
26 1 2.18506 8.59118 2.18816 
27 1 1.47617 9.29877 1.48059 
4 1 4.59937 6.17669 6.15155 
5 1 3.02176 7.76393 7.53806 
6 1 3.75128 7.03025 6.89214 
37 1 0.702315 10.0799 9.99167 
38 1 2.37324 8.3678 8.72989 
39 1 1.49342 9.2875 9.14141 
49 2 2.9077 7.74133 9.51107 
13 1 6.2424 4.53 4.52686 
14 1 7.78051 2.99569 2.99471 
15 1 7.07317 3.70247 3.70212 
28 1 10.1021 0.668309 0.682227 
29 1 8.5911 2.18429 2.18632 
30 1 9.29933 1.47358 1.48125 
1 1 6.17354 4.60036 6.16422 
2 1 7.68136 3.08863 7.67842 
3 1 6.97514 3.79658 6.96933 
40 1 10.0195 0.75117 10.0447 
41 1 8.48936 2.27735 8.49116 
42 1 9.19419 1.57693 9.20635 
7 1 6.17924 6.16638 4.59674 
8 1 7.68375 7.68464 3.08488 
9 1 6.97913 6.9739 3.79251 
43 1 10.046 10.0279 0.739306 
44 1 8.49461 8.49943 2.27435 
45 1 9.20693 9.20032 1.56841 
22 1 6.23353 6.23753 6.23414 
23 1 7.77778 7.76816 7.76832 
24 1 7.067 7.06366 7.06234 
34 1 10.0553 10.1169 10.1079 
35 1 8.58088 8.58251 8.5853 
36 1 9.26874 9.30498 9.29804 
ITEM: TIMESTEP
80
ITEM: NUMBER OF ATOMS
49
ITEM: BOX BOUNDS pp pp pp
0.0000000000000000e+00 1.1000000000000000e+01
0.0000000000000000e+00 1.1002000000000001e+01
0.0000000000000000e+00 1.1000000000000000e+01
ITEM: ATOMS id type x y z 
10 1 4.60626 4.59414 4.59614 
11 1 3.08691 3.0877 3.08632 
12 1 3.79818 3.79287 3.79302 
46 1 0.745713 0.725199 0.738356 
47 1 2.27251 2.27526 2.27681 
48 1 1.57118 1.56321 1.5702 
19 1 4.53427 4.54562 6.23356 
20 1 3.00905 2.99788 7.76854 
21 1 3.71103 3.71029 7.06205 
31 1 0.655176 0.723705 10.1054 
32 1 2.19243 2.19658 8.58458 
33 1 1.47229 1.5063 9.29727 
16 1 4.53889 6.23485 4.52506 
17 1 2.99949 7.77688 2.9938 
18 1 3.70706 7.06809 3.69761 
25 1 0.672744 10.1017 0.673385 
26 1 2.18449 8.59162 2.18708 
27 1 1.47641 9.29882 1.47819 
4 1 4.59556 6.18096 6.1505 
5 1 3.01894 7.76677 7.53875 
6 1 3.74921 7.0324 6.89437 
37 1 0.702427 10.0801 9.98806 
38 1 2.37845 8.36184 8.73831 
39 1 1.49775 9.28256 9.14834 
49 2 2.9161 7.73182 9.51429 
13 1 6.24227 4.53085 4.52846 
14 1 7.78048 2.99597 2.99561 
15 1 7.07218 3.7028 3.70129 
28 1 10.1033 0.66709 0.682826 
29 1 8.59138 2.18391 2.18629 
30 1 9.29994 1.47311 1.4817 
1 1 6.17205 4.60178 6.1646 
2 1 7.68102 3.08879 7.67759 
3 1 6.97459 3.79728 6.96927 
40 1 10.0195 0.751707 10.0453 
41 1 8.48917 2.27855 8.49152 
42 1 9.19294 1.57639 9.20603 
7 1 6.17904 6.16639 4.59721 
8 1 7.68383 7.68491 3.08472 
9 1 6.97948 6.97413 3.79263 
43 1 10.0475 10.0262 0.737119 
44 1 8.49517 8.49952 2.27374 
45 1 9.20799 9.20087 1.56852 
22 1 6.22994 6.23942 6.2344 
23 1 7.77759 7.76701 7.76788 
24 1 7.06545 7.06404 7.06203 
34 1 10.054 10.1182 10.106 
35 1 8.5788 8.58337 8.58479 
36 1 9.26993 9.30258 9.29756 
ITEM: TIMESTEP
90
ITEM: NUMBER OF ATOMS
49
ITEM: BOX BOUNDS pp pp pp
0.0000000000000000e+00 1.1000000000000000e+01
0.0000000000000000e+00 1.1002000000000001e+01
0.0000000000000000e+00 1.1000000000000000e+01
ITEM: ATOMS id type x y z 
10 1 4.6063 4.5942 4.59614 
11 1 3.08691 3.08767 3.0863 
12 1 3.79812 3.79285 3.79304 
46 1 0.745766 0.725133 0.738276 
47 1 2.27247 2.27518 2.27681 
48 1 1.57125 1.56325 1.57015 
19 1 4.53414 4.5458 6.23357 
20 1 3.0091 2.99792 7.76852 
21 1 3.71102 3.71035 7.06204 
31 1 0.655215 0.723706 10.1054 
32 1 2.19252 2.1966 8.58459 
33 1 1.47217 1.50644 9.29718 
16 1 4.53884 6.23489 4.52499 
17 1 2.99942 7.77694 2.99372 
18 1 3.70704 7.06811 3.6976 
25 1 0.672756 10.1016 0.67316 
26 1 2.18445 8.59163 2.18703 
27 1 1.47648 9.29882 1.47802 
4 1 4.59534 6.18121 6.15045 
5 1 3.01879 7.76694 7.53883 
6 1 3.74904 7.03254 6.89446 
37 1 0.702425 10.0801 9.98785 
38 1 2.37878 8.36147 8.73881 
39 1 1.49806 9.28222 9.14879 
49 2 2.91661 7.73124 9.51451 
13 1 6.24221 4.53092 4.52848 
14 1 7.78047 2.99601 2.99556 
15 1 7.07214 3.70279 3.70142 
28 1 10.1033 0.667026 0.682852 
29 1 8.59141 2.18391 2.1863 
30 1 9.29994 1.47306 1.48174 
1 1 6.17199 4.6019 6.16463 
2 1 7.68101 3.08885 7.67757 
3 1 6.97451 3.79724 6.96922 
40 1 10.0195 0.751734 10.0453 
41 1 8.48916 2.27856 8.49154 
42 1 9.1929 1.57644 9.20604 
7 1 6.17901 6.16638 4.59719 
8 1 7.68385 7.68492 3.0847 
9 1 6.97951 6.97417 3.79263 
43 1 10.0476 10.0263 0.73712 
44 1 8.49516 8.4996 2.27392 
45 1 9.20807 9.20069 1.56818 
22 1 6.22981 6.23956 6.23437 
23 1 7.77758 7.76695 7.76779 
24 1 7.06533 7.06408 7.06215 
34 1 10.0539 10.1182 10.1059 
35 1 8.5787 8.58335 8.58475 
36 1 9.26994 9.30253 9.2975 
ITEM: TIMESTEP
96
ITEM: NUMBER OF ATOMS
49
ITEM: BOX BOUNDS pp pp pp
0.0000000000000000e+00 1.1000000000000000e+01
0.0000000000000000e+00 1.1002000000000001e+01
0.0000000000000000e+00 1.1000000000000000e+01
ITEM: ATOMS id type x y z 
10 1 4.6063 4.5942 4.59614 
11 1 3.08691 3.08767 3.0863 
12 1 3.79812 3.79286 3.79304 
46 1 0.745768 0.725133 0.738272 
47 1 2.27247 2.27519 2.2768 
48 1 1.57125 1.56324 1.57015 
19 1 4.53414 4.5458 6.23357 
20 1 3.0091 2.99792 7.76852 
21 1 3.71102 3.71035 7.06204 
31 1 0.655214 0.723707 10.1054 
32 1 2.19252 2.19661 8.58459 
33 1 1.47217 1.50644 9.29718 
16 1 4.53884 6.23489 4.52499 
17 1 2.99942 7.77695 2.99372 
18 1 3.70704 7.06811 3.69759 
25 1 0.67276 10.1016 0.673151 
26 1 2.18445 8.59163 2.18702 
27 1 1.47647 9.29883 1.47802 
4 1 4.59534 6.18122 6.15045 
5 1 3.01879 7.76695 7.53883 
6 1 3.74904 7.03254 6.89446 
37 1 0.702425 10.0801 9.98785 
38 1 2.37879 8.36146 8.73882 
39 1 1.49806 9.28221 9.1488 
49 2 2.91662 7.73123 9.51451 
13 1 6.24221 4.53092 4.52848 
14 1 7.78047 2.99601 2.99556 
15 1 7.07214 3.70279 3.70142 
28 1 10.1033 0.667026 0.682852 
29 1 8.59141 2.18391 2.1863 
30 1 9.29994 1.47306 1.48174 
1 1 6.17199 4.6019 6.16463 
2 1 7.68102 3.08885 7.67757 
3 1 6.9745 3.79724 6.96922 
40 1 10.0195 0.751734 10.0453 
41 1 8.48916 2.27856 8.49154 
42 1 9.1929 1.57644 9.20604 
7 1 6.17901 6.16638 4.59719 
8 1 7.68385 7.68492 3.0847 
9 1 6.9795 6.97417 3.79263 
43 1 10.0476 10.0263 0.737117 
44 1 8.49516 8.4996 2.27392 
45 1 9.20807 9.20069 1.56818 
22 1 6.22981 6.23956 6.23438 
23 1 7.77758 7.76695 7.76779 
24 1 7.06533 7.06408 7.06215 
34 1 10.0539 10.1182 10.1059 
35 1 8.5787 8.58335 8.58475 
36 1 9.26994 9.30253 9.2975 
ITEM: TIMESTEP
98
ITEM: NUMBER OF ATOMS
49
ITEM: BOX BOUNDS pp pp pp
0.0000000000000000e+00 1.1000000000000000e+01
0.0000000000000000e+00 1.1002000000000001e+01
0.0000000000000000e+00 1.1000000000000000e+01
ITEM: ATOMS id type x y z 
10 1 4.6063 4.59419 4.59614 
11 1 3.08691 3.08767 3.0863 
12 1 3.79812 3.79286 3.79304 
46 1 0.745768 0.725133 0.738272 
47 1 2.27247 2.27518 2.27681 
48 1 1.57125 1.56324 1.57015 
19 1 4.53414 4.54581 6.23357 
20 1 3.0091 2.99792 7.76852 
21 1 3.71102 3.71035 7.06204 
31 1 0.655214 0.723708 10.1054 
32 1 2.19252 2.19661 8.58459 
33 1 1.47217 1.50644 9.29718 
16 1 4.53884 6.23489 4.52499 
17 1 2.99942 7.77695 2.99372 
18 1 3.70704 7.06811 3.69759 
25 1 0.67276 10.1016 0.67315 
26 1 2.18445 8.59163 2.18702 
27 1 1.47647 9.29883 1.47802 
4 1 4.59534 6.18122 6.15045 
5 1 3.01879 7.76695 7.53883 
6 1 3.74904 7.03254 6.89446 
37 1 0.702425 10.0801 9.98785 
38 1 2.37879 8.36146 8.73882 
39 1 1.49806 9.28221 9.1488 
49 2 2.91662 7.73123 9.51451 
13 1 6.2422 4.53092 4.52848 
14 1 7.78047 2.99601 2.99556 
15 1 7.07214 3.70279 3.70142 
28 1 10.1033 0.667026 0.682851 
29 1 8.59141 2.18391 2.1863 
30 1 9.29994 1.47306 1.48174 
1 1 6.17199 4.6019 6.16463 
2 1 7.68102 3.08884 7.67757 
3 1 6.9745 3.79724 6.96922 
40 1 10.0195 0.751734 10.0453 
41 1 8.48916 2.27856 8.49154 
42 1 9.1929 1.57644 9.20604 
7 1 6.17901 6.16638 4.59719 
8 1 7.68385 7.68492 3.0847 
9 1 6.9795 6.97417 3.79263 
43 1 10.0476 10.0263 0.737117 
44 1 8.49516 8.4996 2.27392 
45 1 9.20807 9.20069 1.56818 
22 1 6.22981 6.23956 6.23438 
23 1 7.77758 7.76695 7.76779 
24 1 7.06533 7.06408 7.06215 
34 1 10.0539 10.1182 10.1059 
35 1 8.5787 8.58335 8.58475 
36 1 9.26994 9.30253 9.2975 
ITEM: TIMESTEP
100
ITEM: NUMBER OF ATOMS
49
ITEM: BOX BOUNDS pp pp pp
-1.0935730575036037e-03 1.1001093573057505e+01
-1.1002000000000002e-03 1.1003100200000000e+01
-1.0581477945125891e-03 1.1001058147794513e+01
ITEM: ATOMS id type x y z 
10 1 4.60612 4.59401 4.59597 
11 1 3.08643 3.08719 3.08584 
12 1 3.79778 3.79251 3.79271 
46 1 0.744822 0.724177 0.737354 
47 1 2.27182 2.27454 2.27618 
48 1 1.57047 1.56246 1.5694 
19 1 4.53395 4.54562 6.23372 
20 1 3.0086 2.99742 7.76895 
21 1 3.71066 3.70999 7.06234 
31 1 0.65425 0.722752 10.1062 
32 1 2.19186 2.19595 8.58518 
33 1 1.47137 1.50564 9.29791 
16 1 4.53865 6.23504 4.5248 
17 1 2.99892 7.7774 2.99324 
18 1 3.70668 7.06842 3.69725 
25 1 0.6718 10.1026 0.67222 
26 1 2.18379 8.59225 2.18639 
27 1 1.47567 9.29959 1.47725 
4 1 4.59516 6.18136 6.15057 
5 1 3.01829 7.7674 7.53923 
6 1 3.74869 7.03285 6.89473 
37 1 0.701471 10.081 9.98871 
38 1 2.37817 8.36203 8.73945 
39 1 1.49727 9.28296 9.14951 
49 2 2.91611 7.73167 9.51529 
13 1 6.24235 4.53073 4.5283 
14 1 7.78092 2.99551 2.99508 
15 1 7.07246 3.70243 3.70108 
28 1 10.1043 0.666058 0.681924 
29 1 8.59202 2.18325 2.18566 
30 1 9.30069 1.47225 1.48097 
1 1 6.17212 4.60172 6.16476 
2 1 7.68145 3.08836 7.67799 
3 1 6.9748 3.7969 6.96951 
40 1 10.0204 0.750784 10.0461 
41 1 8.48975 2.27792 8.49212 
42 1 9.19363 1.57565 9.20675 
7 1 6.17914 6.16652 4.59702 
8 1 7.68428 7.68536 3.08424 
9 1 6.9798 6.97446 3.7923 
43 1 10.0485 10.0272 0.736199 
44 1 8.49576 8.5002 2.2733 
45 1 9.20881 9.20143 1.56742 
22 1 6.22995 6.23971 6.23452 
23 1 7.77803 7.7674 7.76822 
24 1 7.06564 7.06439 7.06245 
34 1 10.0548 10.1191 10.1068 
35 1 8.57931 8.58397 8.58535 
36 1 9.27069 9.30329 9.29823 
ITEM: TIMESTEP
110
ITEM: NUMBER OF ATOMS
49
ITEM: BOX BOUNDS pp pp pp
-5.9053725846315219e-03 1.1005905372584630e+01
-6.4302546309157171e-03 1.1008430254630914e+01
-2.3087328622586395e-03 1.1002308732862261e+01
ITEM: ATOMS id type x y z 
10 1 4.60597 4.59379 4.59639 
11 1 3.0845 3.08501 3.08546 
12 1 3.79605 3.79066 3.79211 
46 1 0.740184 0.71906 0.735753 
47 1 2.26872 2.27109 2.27514 
48 1 1.56668 1.5583 1.56818 
19 1 4.53358 4.54529 6.23338 
20 1 3.00674 2.9953 7.76918 
21 1 3.7094 3.70862 7.06235 
31 1 0.649325 0.717841 10.1079 
32 1 2.1888 2.1926 8.58605 
33 1 1.46806 1.502 9.29855 
16 1 4.53828 6.23529 4.52512 
17 1 2.99703 7.77933 2.99294 
18 1 3.7054 7.06961 3.69714 
25 1 0.666909 10.1077 0.670785 
26 1 2.18074 8.5954 2.18539 
27 1 1.47231 9.30311 1.47654 
4 1 4.59487 6.18152 6.15006 
5 1 3.01629 7.76942 7.53962 
6 1 3.74688 7.03462 6.89525 
37 1 0.696888 10.0859 9.98996 
38 1 2.3756 8.36462 8.74033 
39 1 1.49366 9.28671 9.15086 
49 2 2.91407 7.73358 9.51627 
13 1 6.24248 4.53031 4.5286 
14 1 7.7826 2.99338 2.99482 
15 1 7.07351 3.70101 3.70097 
28 1 10.1089 0.660722 0.680189 
29 1 8.59491 2.17984 2.18475 
30 1 9.30382 1.46856 1.48026 
1 1 6.17203 4.60151 6.16431 
2 1 7.68316 3.0862 7.67828 
3 1 6.9763 3.79509 6.97005 
40 1 10.0248 0.745696 10.0476 
41 1 8.49267 2.27451 8.49309 
42 1 9.19717 1.57153 9.20798 
7 1 6.1791 6.16655 4.59745 
8 1 7.68604 7.68732 3.08387 
9 1 6.98129 6.97611 3.79167 
43 1 10.0529 10.032 0.734597 
44 1 8.49871 8.5034 2.27225 
45 1 9.21239 9.20535 1.56622 
22 1 6.22999 6.23996 6.23418 
23 1 7.7797 7.76927 7.76845 
24 1 7.06665 7.0656 7.06245 
34 1 10.0591 10.1243 10.1084 
35 1 8.58218 8.5871 8.58619 
36 1 9.27369 9.3068 9.29889 
ITEM: TIMESTEP
120
ITEM: NUMBER OF ATOMS
49
ITEM: BOX BOUNDS pp pp pp
-9.1481331327091433e-03 1.1009148133132710e+01
-1.0148591471694012e-02 1.1012148591471691e+01
-1.5708782397596704e-03 1.1001570878239759e+01
ITEM: ATOMS id type x y z 
10 1 4.60618 4.59393 4.59723 
11 1 3.08325 3.08354 3.08596 
12 1 3.79479 3.78926 3.7921 
46 1 0.736774 0.715218 0.735769 
47 1 2.26624 2.26832 2.27502 
48 1 1.56422 1.55544 1.5685 
19 1 4.53356 4.54539 6.23266 
20 1 3.00584 2.99418 7.76829 
21 1 3.70853 3.70766 7.06199 
31 1 0.645704 0.714142 10.108 
32 1 2.18672 2.19017 8.58576 
33 1 1.46586 1.4997 9.29784 
16 1 4.53827 6.23521 4.52589 
17 1 2.99608 7.78032 2.99378 
18 1 3.70449 7.07057 3.69755 
25 1 0.663288 10.1116 0.670953 
26 1 2.17863 8.59763 2.18554 
27 1 1.47011 9.30553 1.47736 
4 1 4.5949 6.18144 6.14924 
5 1 3.01505 7.7707 7.53931 
6 1 3.7455 7.036 6.89528 
37 1 0.69354 10.0895 9.98966 
38 1 2.37395 8.36635 8.7401 
39 1 1.49116 9.28937 9.15114 
49 2 2.91285 7.73475 9.5158 
13 1 6.24226 4.5303 4.52935 
14 1 7.78338 2.99226 2.99571 
15 1 7.07426 3.69997 3.70141 
28 1 10.1124 0.656704 0.680095 
29 1 8.59692 2.17741 2.18502 
30 1 9.30584 1.46605 1.48107 
1 1 6.17165 4.60171 6.16351 
2 1 7.68426 3.08477 7.67778 
3 1 6.97735 3.79369 6.9701 
40 1 10.0281 0.741889 10.0476 
41 1 8.49497 2.2718 8.4933 
42 1 9.19954 1.56869 9.20763 
7 1 6.17877 6.16628 4.59829 
8 1 7.68716 7.68863 3.08437 
9 1 6.98242 6.97735 3.79165 
43 1 10.0562 10.0357 0.734606 
44 1 8.50108 8.50599 2.27212 
45 1 9.21477 9.20802 1.56655 
22 1 6.2297 6.2399 6.23346 
23 1 7.78047 7.77024 7.76756 
24 1 7.06732 7.06647 7.06209 
34 1 10.0622 10.1282 10.1085 
35 1 8.58415 8.58932 8.58593 
36 1 9.27559 9.30917 9.29812 
ITEM: TIMESTEP
130
ITEM: NUMBER OF ATOMS
49
ITEM: BOX BOUNDS pp pp pp
-1.2261908871393425e-02 1.1012261908871396e+01
-1.3645625029762106e-02 1.1015645625029757e+01
-1.4048157022094583e-03 1.1001404815702207e+01
ITEM: ATOMS id type x y z 
10 1 4.60632 4.59404 4.59793 
11 1 3.08201 3.08216 3.08621 
12 1 3.79363 3.78793 3.79189 
46 1 0.733509 0.711569 0.735295 
47 1 2.26385 2.26568 2.27454 
48 1 1.56189 1.5528 1.56849 
19 1 4.53355 4.54552 6.23205 
20 1 3.00501 2.99318 7.76764 
21 1 3.70763 3.70672 7.06182 
31 1 0.642248 0.710659 10.1085 
32 1 2.18472 2.18794 8.5858 
33 1 1.46377 1.49747 9.29749 
16 1 4.53827 6.23513 4.52652 
17 1 2.99521 7.78122 2.99438 
18 1 3.70355 7.07147 3.6977 
25 1 0.659845 10.1152 0.670635 
26 1 2.17661 8.59973 2.18538 
27 1 1.468 9.30779 1.4777 
4 1 4.59486 6.18142 6.14856 
5 1 3.01387 7.77189 7.53927 
6 1 3.7442 7.03729 6.89541 
37 1 0.690292 10.0929 9.98981 
38 1 2.37234 8.36799 8.74023 
39 1 1.48879 9.29184 9.15186 
49 2 2.9117 7.73581 9.51574 
13 1 6.24205 4.53032 4.52999 
14 1 7.78409 2.99124 2.99636 
15 1 7.075 3.69897 3.70159 
28 1 10.1157 0.652938 0.679595 
29 1 8.59885 2.17512 2.18497 
30 1 9.30779 1.4637 1.48141 
1 1 6.17131 4.60187 6.16286 
2 1 7.68532 3.08341 7.67752 
3 1 6.97837 3.79243 6.97029 
40 1 10.0312 0.738281 10.048 
41 1 8.4972 2.26921 8.49381 
42 1 9.20174 1.56608 9.20763 
7 1 6.17847 6.16604 4.59895 
8 1 7.68825 7.68987 3.08458 
9 1 6.9835 6.97854 3.79149 
43 1 10.0594 10.0392 0.73414 
44 1 8.50337 8.50848 2.27165 
45 1 9.21703 9.21045 1.56651 
22 1 6.22938 6.23983 6.23285 
23 1 7.78117 7.77108 7.76692 
24 1 7.06802 7.06734 7.06191 
34 1 10.0653 10.1319 10.109 
35 1 8.58605 8.5914 8.58595 
36 1 9.27739 9.31139 9.29779 
ITEM: TIMESTEP
140
ITEM: NUMBER OF ATOMS
49
ITEM: BOX BOUNDS pp pp pp
-1.5663610011571436e-02 1.1015663610011572e+01
-1.7595968035324771e-02 1.1019595968035320e+01
-1.7401364845761192e-03 1.1001740136484571e+01
ITEM: ATOMS id type x y z 
10 1 4.60649 4.59419 4.59866 
11 1 3.08064 3.08059 3.08631 
12 1 3.79239 3.78643 3.79141 
46 1 0.729869 0.707358 0.734238 
47 1 2.26118 2.26264 2.27365 
48 1 1.55933 1.54982 1.56812 
19 1 4.53363 4.54576 6.2314 
20 1 3.00421 2.99209 7.76709 
21 1 3.70662 3.7057 7.06175 
31 1 0.638437 0.706699 10.1095 
32 1 2.18253 2.18548 8.58618 
33 1 1.46149 1.4949 9.29735 
16 1 4.53835 6.23498 4.52716 
17 1 2.99431 7.7822 2.99482 
18 1 3.70251 7.07252 3.69773 
25 1 0.656019 10.1194 0.669794 
26 1 2.17436 8.60213 2.18488 
27 1 1.46576 9.31032 1.47765 
4 1 4.59478 6.18145 6.14788 
5 1 3.01264 7.77318 7.53951 
6 1 3.74276 7.03876 6.89565 
37 1 0.686635 10.0969 9.99041 
38 1 2.37058 8.36986 8.74074 
39 1 1.48623 9.29457 9.15324 
49 2 2.91053 7.73693 9.51604 
13 1 6.24173 4.5304 4.5307 
14 1 7.78481 2.99013 2.99694 
15 1 7.07578 3.69787 3.70157 
28 1 10.1194 0.648641 0.678635 
29 1 8.60098 2.17248 2.18467 
30 1 9.30986 1.46113 1.48134 
1 1 6.17084 4.60207 6.16219 
2 1 7.68644 3.08184 7.67741 
3 1 6.97956 3.79105 6.97068 
40 1 10.0347 0.73411 10.0489 
41 1 8.49968 2.26624 8.49471 
42 1 9.20419 1.56317 9.20798 
7 1 6.17818 6.16571 4.59962 
8 1 7.6895 7.69122 3.08462 
9 1 6.98458 6.97999 3.79109 
43 1 10.063 10.0431 0.733064 
44 1 8.50597 8.51129 2.27074 
45 1 9.21946 9.21328 1.56616 
22 1 6.22892 6.2397 6.23219 
23 1 7.78187 7.77198 7.76635 
24 1 7.06872 7.06834 7.06187 
34 1 10.0686 10.136 10.1099 
35 1 8.58802 8.59376 8.58634 
36 1 9.27948 9.31387 9.2976 
ITEM: TIMESTEP
150
ITEM: NUMBER OF ATOMS
49
ITEM: BOX BOUNDS pp pp pp
-1.7971207022300248e-02 1.1017971207022301e+01
-2.0254596075647183e-02 1.1022254596075642e+01
-1.7146637139520281e-03 1.1001714663713944e+01
ITEM: ATOMS id type x y z 
10 1 4.60685 4.59448 4.59926 
11 1 3.07984 3.07957 3.08643 
12 1 3.7913 3.78535 3.79125 
46 1 0.727164 0.704255 0.73353 
47 1 2.25917 2.26039 2.27305 
48 1 1.55761 1.54774 1.56794 
19 1 4.53386 4.54626 6.23075 
20 1 3.00385 2.99159 7.76643 
21 1 3.706 3.70507 7.06155 
31 1 0.635663 0.703874 10.11 
32 1 2.18099 2.18381 8.5863 
33 1 1.46008 1.49328 9.29702 
16 1 4.53858 6.23466 4.52784 
17 1 2.99385 7.78268 2.9954 
18 1 3.70188 7.07323 3.69784 
25 1 0.653266 10.1224 0.669317 
26 1 2.17281 8.60383 2.18462 
27 1 1.46425 9.31187 1.47781 
4 1 4.59477 6.18143 6.14725 
5 1 3.01193 7.7739 7.53972 
6 1 3.74169 7.03985 6.89574 
37 1 0.683921 10.0999 9.9907 
38 1 2.3694 8.37111 8.74107 
39 1 1.48455 9.29633 9.15452 
49 2 2.90991 7.73749 9.51603 
13 1 6.24126 4.53073 4.53142 
14 1 7.7851 2.98958 2.99763 
15 1 7.07626 3.69717 3.70171 
28 1 10.122 0.645589 0.678068 
29 1 8.60247 2.17068 2.18456 
30 1 9.31123 1.45944 1.48162 
1 1 6.17039 4.60254 6.16164 
2 1 7.68722 3.08099 7.67724 
3 1 6.98027 3.78979 6.97083 
40 1 10.0374 0.731103 10.0496 
41 1 8.50154 2.26412 8.49539 
42 1 9.20583 1.56112 9.20804 
7 1 6.17772 6.16541 4.60026 
8 1 7.69021 7.69219 3.0848 
9 1 6.98559 6.98086 3.79082 
43 1 10.0657 10.046 0.732358 
44 1 8.5079 8.51342 2.27015 
45 1 9.22123 9.21509 1.56596 