LAMMPS (3 Mar 2020)
Reading data file ...
  orthogonal box = (0 0 0) to (16.114 16.113 16.112)
  2 by 2 by 2 MPI processor grid
  reading atoms ...
  201 atoms
  read_data CPU = 0.223998 secs
WARNING: Using 'neigh_modify every 1 delay 0 check yes' setting during minimization (../min.cpp:190)
WARNING: Total cutoff < 2*bond cutoff. May need to use an increased neighbor list skin. (../pair_reaxc.cpp:413)
Neighbor list info ...
  update every 1 steps, delay 0 steps, check yes
  max neighbors/atom: 2000, page size: 100000
  master list distance cutoff = 9.5
  ghost atom cutoff = 9.5
  binsize = 4.75, bins = 4 4 4
  2 neighbor lists, perpetual/occasional/extra = 2 0 0
  (1) pair reax/c, perpetual
      attributes: half, newton off, ghost
      pair build: half/bin/newtoff/ghost
      stencil: half/ghost/bin/3d/newtoff
      bin: standard
  (2) fix qeq/reax, perpetual, copy from (1)
      attributes: half, newton off, ghost
      pair build: copy
      stencil: none
      bin: none
Setting up cg style minimization ...
  Unit style    : real
  Current step  : 0
Per MPI rank memory allocation (min/avg/max) = 25.2 | 25.47 | 25.79 Mbytes
Step Temp E_pair E_mol TotEng Press 
       0            0   -38974.922            0   -38974.922    35801.654 
      74            0   -39027.321            0   -39027.321    17318.618 
Loop time of 3.22396 on 8 procs for 74 steps with 201 atoms

99.3% CPU use with 8 MPI tasks x no OpenMP threads

Minimization stats:
  Stopping criterion = energy tolerance
  Energy initial, next-to-last, final = 
         -38974.921591       -39027.32064     -39027.3207839
  Force two-norm initial, final = 815.903 14.233
  Force max component initial, final = 535.701 2.22959
  Final line search alpha, max atom move = 0.0134156 0.0299112
  Iterations, force evaluations = 74 350

MPI task timing breakdown:
Section |  min time  |  avg time  |  max time  |%varavg| %total
---------------------------------------------------------------
Pair    | 2.2473     | 2.3167     | 2.4165     |   3.3 | 71.86
Neigh   | 0          | 0          | 0          |   0.0 |  0.00
Comm    | 0.024197   | 0.12294    | 0.19125    |  14.0 |  3.81
Output  | 0.00028159 | 0.00035809 | 0.00052314 |   0.0 |  0.01
Modify  | 0.77799    | 0.77922    | 0.78038    |   0.1 | 24.17
Other   |            | 0.004753   |            |       |  0.15

Nlocal:    25.125 ave 28 max 23 min
Histogram: 1 0 3 0 0 0 3 0 0 1
Nghost:    963.75 ave 979 max 950 min
Histogram: 1 0 0 3 0 0 3 0 0 1
Neighs:    4316.25 ave 4688 max 4049 min
Histogram: 1 3 0 0 0 0 3 0 0 1

Total # of neighbors = 34530
Ave neighs/atom = 171.791
Neighbor list builds = 0
Dangerous builds = 0
WARNING: Using 'neigh_modify every 1 delay 0 check yes' setting during minimization (../min.cpp:190)
WARNING: Total cutoff < 2*bond cutoff. May need to use an increased neighbor list skin. (../pair_reaxc.cpp:413)
Setting up cg style minimization ...
  Unit style    : real
  Current step  : 74
Per MPI rank memory allocation (min/avg/max) = 25.2 | 25.47 | 25.79 Mbytes
Step Temp E_pair E_mol TotEng Press 
      74            0   -39027.321            0   -39027.321    17318.618 
      80            0   -39027.334            0   -39027.334    17557.907 
Loop time of 0.308927 on 8 procs for 6 steps with 201 atoms

99.4% CPU use with 8 MPI tasks x no OpenMP threads

Minimization stats:
  Stopping criterion = energy tolerance
  Energy initial, next-to-last, final = 
        -39027.3207839     -39027.3341605       -39027.33432
  Force two-norm initial, final = 14.233 18.4941
  Force max component initial, final = 2.22959 3.54842
  Final line search alpha, max atom move = 0.00360239 0.0127828
  Iterations, force evaluations = 6 33

MPI task timing breakdown:
Section |  min time  |  avg time  |  max time  |%varavg| %total
---------------------------------------------------------------
Pair    | 0.21813    | 0.22437    | 0.23344    |   1.0 | 72.63
Neigh   | 0          | 0          | 0          |   0.0 |  0.00
Comm    | 0.0020957  | 0.01107    | 0.017217   |   4.4 |  3.58
Output  | 0          | 0          | 0          |   0.0 |  0.00
Modify  | 0.072801   | 0.072918   | 0.073032   |   0.0 | 23.60
Other   |            | 0.0005691  |            |       |  0.18

Nlocal:    25.125 ave 28 max 23 min
Histogram: 1 0 3 0 0 0 3 0 0 1
Nghost:    964.875 ave 979 max 951 min
Histogram: 1 0 1 2 0 0 2 1 0 1
Neighs:    4313.75 ave 4680 max 4053 min
Histogram: 1 3 0 0 0 0 3 0 0 1

Total # of neighbors = 34510
Ave neighs/atom = 171.692
Neighbor list builds = 0
Dangerous builds = 0
WARNING: Using 'neigh_modify every 1 delay 0 check yes' setting during minimization (../min.cpp:190)
WARNING: Total cutoff < 2*bond cutoff. May need to use an increased neighbor list skin. (../pair_reaxc.cpp:413)
Setting up cg style minimization ...
  Unit style    : real
  Current step  : 80
WARNING: Energy due to 3 extra global DOFs will be included in minimizer energies
Per MPI rank memory allocation (min/avg/max) = 25.2 | 25.47 | 25.79 Mbytes
Step Temp E_pair E_mol TotEng Press Volume 
      80            0   -39027.334            0   -39027.334    17557.907    4183.3983 
     161            0   -39029.456            0   -39029.456   -660.73639     4193.699 
Loop time of 1.14802 on 8 procs for 81 steps with 201 atoms

99.3% CPU use with 8 MPI tasks x no OpenMP threads

Minimization stats:
  Stopping criterion = energy tolerance
  Energy initial, next-to-last, final = 
          -39027.33432     -39029.4552842     -39029.4556701
  Force two-norm initial, final = 1855.59 80.0738
  Force max component initial, final = 1084.78 41.2128
  Final line search alpha, max atom move = 4.26744e-06 0.000175873
  Iterations, force evaluations = 81 141

MPI task timing breakdown:
Section |  min time  |  avg time  |  max time  |%varavg| %total
---------------------------------------------------------------
Pair    | 0.89118    | 0.93301    | 0.97247    |   2.2 | 81.27
Neigh   | 0          | 0          | 0          |   0.0 |  0.00
Comm    | 0.0088321  | 0.047867   | 0.089205   |   9.5 |  4.17
Output  | 0.00028356 | 0.00039962 | 0.00059914 |   0.0 |  0.03
Modify  | 0.16152    | 0.16208    | 0.16262    |   0.1 | 14.12
Other   |            | 0.004669   |            |       |  0.41

Nlocal:    25.125 ave 28 max 23 min
Histogram: 1 0 3 0 0 0 3 0 0 1
Nghost:    964.875 ave 979 max 951 min
Histogram: 1 0 1 2 0 0 2 1 0 1
Neighs:    4312.5 ave 4676 max 4048 min
Histogram: 1 3 0 0 0 0 3 0 0 1

Total # of neighbors = 34500
Ave neighs/atom = 171.642
Neighbor list builds = 0
Dangerous builds = 0
WARNING: Using 'neigh_modify every 1 delay 0 check yes' setting during minimization (../min.cpp:190)
WARNING: Total cutoff < 2*bond cutoff. May need to use an increased neighbor list skin. (../pair_reaxc.cpp:413)
Setting up cg style minimization ...
  Unit style    : real
  Current step  : 161
Per MPI rank memory allocation (min/avg/max) = 25.2 | 25.47 | 25.79 Mbytes
Step Temp E_pair E_mol TotEng Press 
     161            0   -39029.456            0   -39029.456   -660.73639 
     189            0    -39029.75            0    -39029.75    11369.946 
Loop time of 1.34914 on 8 procs for 28 steps with 201 atoms

99.3% CPU use with 8 MPI tasks x no OpenMP threads

Minimization stats:
  Stopping criterion = energy tolerance
  Energy initial, next-to-last, final = 
        -39029.4556701     -39029.7502078     -39029.7502084
  Force two-norm initial, final = 38.9501 12.9128
  Force max component initial, final = 6.72489 2.86841
  Final line search alpha, max atom move = 0.012054 0.0345759
  Iterations, force evaluations = 28 148

MPI task timing breakdown:
Section |  min time  |  avg time  |  max time  |%varavg| %total
---------------------------------------------------------------
Pair    | 0.9504     | 0.98027    | 1.0188     |   1.9 | 72.66
Neigh   | 0          | 0          | 0          |   0.0 |  0.00
Comm    | 0.011507   | 0.049611   | 0.079056   |   8.1 |  3.68
Output  | 9.1261e-05 | 0.00011454 | 0.00017287 |   0.0 |  0.01
Modify  | 0.3166     | 0.31712    | 0.31765    |   0.1 | 23.51
Other   |            | 0.002031   |            |       |  0.15

Nlocal:    25.125 ave 28 max 23 min
Histogram: 1 0 3 0 0 0 3 0 0 1
Nghost:    963.75 ave 979 max 950 min
Histogram: 1 0 0 3 0 0 3 0 0 1
Neighs:    4307 ave 4668 max 4036 min
Histogram: 1 3 0 0 0 0 3 0 0 1

Total # of neighbors = 34456
Ave neighs/atom = 171.423
Neighbor list builds = 0
Dangerous builds = 0
WARNING: Using 'neigh_modify every 1 delay 0 check yes' setting during minimization (../min.cpp:190)
WARNING: Total cutoff < 2*bond cutoff. May need to use an increased neighbor list skin. (../pair_reaxc.cpp:413)
Setting up cg style minimization ...
  Unit style    : real
  Current step  : 189
WARNING: Energy due to 3 extra global DOFs will be included in minimizer energies
Per MPI rank memory allocation (min/avg/max) = 25.2 | 25.47 | 25.79 Mbytes
Step Temp E_pair E_mol TotEng Press Volume 
     189            0    -39029.75            0    -39029.75    11369.946     4193.699 
     256            0   -39030.971            0   -39030.971   -260.09568    4202.3298 
Loop time of 0.96015 on 8 procs for 67 steps with 201 atoms

99.3% CPU use with 8 MPI tasks x no OpenMP threads

Minimization stats:
  Stopping criterion = energy tolerance
  Energy initial, next-to-last, final = 
        -39029.7502084     -39030.9705277     -39030.9706612
  Force two-norm initial, final = 1204.63 37.0908
  Force max component initial, final = 707.367 17.3959
  Final line search alpha, max atom move = 3.74832e-06 6.52053e-05
  Iterations, force evaluations = 67 119

MPI task timing breakdown:
Section |  min time  |  avg time  |  max time  |%varavg| %total
---------------------------------------------------------------
Pair    | 0.76071    | 0.78414    | 0.81339    |   1.6 | 81.67
Neigh   | 0          | 0          | 0          |   0.0 |  0.00
Comm    | 0.0074312  | 0.036294   | 0.059311   |   7.4 |  3.78
Output  | 0.0002543  | 0.00031174 | 0.00044126 |   0.0 |  0.03
Modify  | 0.135      | 0.13547    | 0.13596    |   0.1 | 14.11
Other   |            | 0.003929   |            |       |  0.41

Nlocal:    25.125 ave 28 max 23 min
Histogram: 1 0 3 0 0 0 3 0 0 1
Nghost:    963.75 ave 979 max 950 min
Histogram: 1 0 0 3 0 0 3 0 0 1
Neighs:    4310.75 ave 4676 max 4037 min
Histogram: 1 3 0 0 0 0 3 0 0 1

Total # of neighbors = 34486
Ave neighs/atom = 171.572
Neighbor list builds = 0
Dangerous builds = 0
WARNING: Using 'neigh_modify every 1 delay 0 check yes' setting during minimization (../min.cpp:190)
WARNING: Total cutoff < 2*bond cutoff. May need to use an increased neighbor list skin. (../pair_reaxc.cpp:413)
Setting up cg style minimization ...
  Unit style    : real
  Current step  : 256
Per MPI rank memory allocation (min/avg/max) = 25.2 | 25.47 | 25.79 Mbytes
Step Temp E_pair E_mol TotEng Press 
     256            0   -39030.971            0   -39030.971   -260.09568 
     271            0   -39031.057            0   -39031.057    7779.9704 
Loop time of 1.10219 on 8 procs for 15 steps with 201 atoms

99.4% CPU use with 8 MPI tasks x no OpenMP threads

Minimization stats:
  Stopping criterion = energy tolerance
  Energy initial, next-to-last, final = 
        -39030.9706612     -39031.0569984     -39031.0573692
  Force two-norm initial, final = 24.634 2.44465
  Force max component initial, final = 3.60499 0.499016
  Final line search alpha, max atom move = 0.00289186 0.00144308
  Iterations, force evaluations = 15 123

MPI task timing breakdown:
Section |  min time  |  avg time  |  max time  |%varavg| %total
---------------------------------------------------------------
Pair    | 0.7878     | 0.81267    | 0.84343    |   1.7 | 73.73
Neigh   | 0          | 0          | 0          |   0.0 |  0.00
Comm    | 0.008454   | 0.038883   | 0.063399   |   7.5 |  3.53
Output  | 7.4709e-05 | 9.3296e-05 | 0.00013519 |   0.0 |  0.01
Modify  | 0.24854    | 0.24897    | 0.24939    |   0.1 | 22.59
Other   |            | 0.001575   |            |       |  0.14

Nlocal:    25.125 ave 28 max 23 min
Histogram: 1 0 3 0 0 0 3 0 0 1
Nghost:    963.75 ave 979 max 950 min
Histogram: 1 0 0 3 0 0 3 0 0 1
Neighs:    4303.25 ave 4668 max 4030 min
Histogram: 1 3 0 0 0 0 3 0 0 1

Total # of neighbors = 34426
Ave neighs/atom = 171.274
Neighbor list builds = 0
Dangerous builds = 0
WARNING: Total cutoff < 2*bond cutoff. May need to use an increased neighbor list skin. (../pair_reaxc.cpp:413)
Setting up Verlet run ...
  Unit style    : real
  Current step  : 0
  Time step     : 0.25
Per MPI rank memory allocation (min/avg/max) = 24.07 | 24.35 | 24.67 Mbytes
Step Temp TotEng KinEng PotEng Press 
       0          300   -38852.209     178.8486   -39031.057    9725.4571 
     200    205.74981   -38794.348    122.66022   -38917.008   -8362.7583 
     400    252.05562   -38700.536    150.26599   -38850.802    26958.454 
     600     351.2202   -38626.942    209.38414   -38836.326   -6229.5297 
     800    302.71588    -38652.98    180.46771   -38833.448    4919.4304 
    1000    244.53682   -38684.929    145.78356   -38830.712   -10279.612 
    1200    338.82816   -38643.804    201.99648     -38845.8   -3106.2028 
    1400    309.65853   -38641.145    184.60665   -38825.752    16051.175 
    1600    310.49442   -38670.793    185.10498   -38855.898   -18546.337 
    1800    299.37302   -38659.007    178.47482   -38837.482   -21935.697 
    2000    319.04706   -38637.069    190.20374   -38827.273   -8236.7411 
    2200    315.52911   -38651.635    188.10647   -38839.741    -19278.91 
    2400    281.84071   -38667.124    168.02272   -38835.147    8651.8009 
    2600    272.96822   -38684.345    162.73329   -38847.078    14467.871 
    2800    300.28725   -38647.308    179.01985   -38826.328    10635.833 
    3000    293.38373   -38663.603    174.90423   -38838.507   -9584.7295 
    3200    281.47091   -38690.668    167.80226   -38858.471    25439.274 
    3400    319.89429   -38662.179    190.70882   -38852.888    -6840.367 
    3600    291.63105   -38652.193    173.85935   -38826.053     47157.01 
    3800      314.146   -38645.902    187.28191   -38833.184    28686.087 
    4000    300.36886   -38671.427    179.06851   -38850.496    39822.013 
    4200    289.08479   -38660.206    172.34137   -38832.547   -7946.6302 
    4400    322.90027   -38644.312    192.50088   -38836.813     -13155.6 
    4600    302.11273   -38667.312    180.10813    -38847.42    12219.835 
    4800     260.1173   -38699.841    155.07205   -38854.913     21345.46 
    5000    294.12176   -38669.654    175.34422   -38844.998    1589.0897 
    5200    297.12918   -38641.593    177.13713    -38818.73   -34887.337 
    5400    287.08416   -38654.842    171.14867   -38825.991    6397.2454 
    5600    301.19611   -38670.026    179.56168   -38849.588   -6635.5359 
    5800    327.44013   -38637.669    195.20737   -38832.877   -9786.5854 
    6000    316.19727   -38642.007     188.5048   -38830.512    20798.106 
    6200    301.49559   -38660.678    179.74022   -38840.419    7306.5445 
    6400    291.99743   -38669.475    174.07778   -38843.553   -12257.649 
    6600    313.13572   -38635.981    186.67962   -38822.661   -7828.9815 
    6800    318.55935   -38660.894    189.91298   -38850.807    7724.1732 
    7000    309.73314   -38668.435    184.65113   -38853.086   -423.52433 
    7200    316.23508   -38634.736    188.52734   -38823.264    14832.749 
    7400    306.33905   -38658.765     182.6277   -38841.393   -13470.139 
    7600     308.7029   -38663.022    184.03694   -38847.059    1642.2532 
    7800     337.7266   -38623.322    201.33977   -38824.661   -41500.592 
    8000     325.2569   -38636.841    193.90581   -38830.747    7719.4871 
    8200    287.56442   -38660.376    171.43498   -38831.811    8008.4804 
    8400    313.82414   -38658.993    187.09003   -38846.083    22899.822 
    8600    333.02945   -38629.248    198.53951   -38827.787   -19225.739 
    8800    270.99008   -38668.623    161.55399   -38830.177    12579.916 
    9000    331.09656   -38649.952    197.38719   -38847.339    2878.8924 
    9200    303.47579    -38652.28    180.92074     -38833.2   -5022.7495 
    9400    285.19564   -38676.594     170.0228   -38846.617   -10314.147 
    9600    333.84266    -38645.04    199.02431   -38844.064   -39498.586 
    9800    314.98225   -38650.064    187.78045   -38837.844    32211.428 
   10000    309.06751    -38661.35    184.25431   -38845.604    -9727.112 
   10200    318.10137   -38653.955    189.63995   -38843.595    4392.6841 
   10400    319.62195   -38625.879    190.54647   -38816.425    6003.4702 
   10600    313.52441   -38659.553    186.91134   -38846.464    13152.595 
   10800    312.67584   -38661.547    186.40546   -38847.953    -49766.22 
   11000    349.99904   -38622.688    208.65613   -38831.344   -20740.166 
   11200    306.88922   -38652.104     182.9557   -38835.059   -33068.429 
   11400    291.23353   -38660.937    173.62237   -38834.559     7761.067 
   11600    312.04433    -38651.46    186.02898   -38837.489    5940.0449 
   11800    308.54799   -38634.294    183.94459   -38818.238    15663.884 
   12000    292.12844   -38669.602    174.15588   -38843.758    5468.2701 
   12200    307.55548   -38663.117    183.35289    -38846.47   -7728.1522 
   12400    296.58847   -38653.783    176.81478   -38830.598    18836.326 
   12600     303.0858   -38652.077    180.68824   -38832.765   -2183.2506 
   12800    283.47191   -38671.505    168.99518     -38840.5   -10719.564 
   13000    285.55876   -38660.858    170.23929   -38831.097   -4816.7823 
   13200    306.88441   -38635.327    182.95283    -38818.28   -14800.046 
   13400    297.44306   -38671.967    177.32425   -38849.291    2939.2432 
   13600    276.21367   -38660.638     164.6681   -38825.306    2008.9932 
   13800     304.1348     -38645.8    181.31361   -38827.113    36468.215 
   14000    274.33017    -38684.59    163.54523   -38848.135   -20954.673 
   14200    285.49181   -38663.977    170.19937   -38834.176    9947.9331 
   14400     301.3432   -38648.888    179.64937   -38828.537   -26093.876 
   14600     280.3576   -38662.869    167.13855   -38830.008    9192.2266 
   14800    276.51697   -38673.167    164.84891   -38838.016   -27487.761 
   15000    330.84347    -38643.19    197.23631   -38840.427   -10041.198 
   15200    313.49285   -38660.072    186.89253   -38846.965   -5638.5172 
   15400    275.70539   -38696.711    164.36508   -38861.076    4037.8616 
   15600    281.74164   -38667.915    167.96367   -38835.879    37638.179 
   15800    309.93632   -38650.237    184.77226   -38835.009    5456.3927 
   16000     312.8593   -38641.369    186.51483   -38827.884    15540.655 
   16200    290.40143   -38674.103     173.1263   -38847.229    -815.2558 
   16400    305.79471   -38649.592    182.30319   -38831.895    31726.932 
   16600    317.56313    -38640.03    189.31907   -38829.349    1480.7457 
   16800    288.16097   -38661.234    171.79062   -38833.025    23308.634 
   17000    278.93689   -38659.747    166.29157   -38826.038   -13629.969 
   17200     310.6644    -38636.28    185.20631   -38821.487   -15259.283 
   17400    293.28252   -38667.425     174.8439   -38842.269    40902.221 
   17600    330.92506   -38642.153    197.28495   -38839.438    3423.5435 
   17800    340.87824   -38616.716    203.21866   -38819.935   -9781.0462 
   18000    310.37799    -38662.78    185.03557   -38847.815   -7672.4216 
   18200    311.10217   -38661.398    185.46729   -38846.866   -1888.7409 
   18400     301.6499   -38638.822    179.83221   -38818.654    11234.103 
   18600    284.04724   -38679.582    169.33817    -38848.92    19955.688 
   18800    293.51607   -38660.132    174.98313   -38835.116    5651.2107 
   19000    310.47449   -38637.986     185.0931   -38823.079   -3934.4211 
   19200    297.11169   -38673.392     177.1267   -38850.518    29963.919 
   19400    295.23223   -38659.929    176.00624   -38835.935    17382.115 
   19600    313.37066   -38639.241    186.81968    -38826.06   -30835.082 
   19800    322.89911   -38628.532    192.50018   -38821.032    20809.976 
   20000    286.11661   -38669.321    170.57185   -38839.893     14699.92 
   20200    319.28453   -38651.751    190.34531   -38842.096    -603.0517 
   20400    334.81471   -38628.882    199.60381   -38828.486   -28337.214 
   20600    283.61158   -38671.457    169.07845   -38840.536   -9523.5223 
   20800    289.90076   -38657.211    172.82782   -38830.039    13571.765 
   21000    335.63166   -38637.141    200.09085   -38837.232   -5504.0324 
   21200    281.63441   -38670.556    167.89974   -38838.456   -25981.935 
   21400    297.70358   -38662.074    177.47957   -38839.553    7418.9849 
   21600     287.5989   -38633.916    171.45554   -38805.371    45648.682 
   21800    309.18132   -38656.077    184.32216   -38840.399   -31872.842 
   22000    290.91476   -38658.933    173.43233   -38832.365    25317.673 
   22200    328.51665   -38636.468    195.84915   -38832.317   -4053.5446 
   22400    297.58468   -38670.401    177.40868    -38847.81     2777.128 
   22600    285.13709   -38663.135     169.9879   -38833.123    11005.487 
   22800     305.2457   -38653.697    181.97589   -38835.673   -11462.003 
   23000    278.57159   -38663.996     166.0738    -38830.07    12384.537 
   23200    295.15186   -38671.587    175.95833   -38847.546    21537.389 
   23400    309.12029   -38641.237    184.28577   -38825.522   -705.46292 
   23600    298.23691   -38662.468    177.79752   -38840.266    -10067.12 
   23800     299.0822   -38676.615    178.30145   -38854.916    2060.9698 
   24000    305.11591    -38653.66    181.89851   -38835.559     11413.09 
   24200    292.67186   -38646.145    174.47984   -38820.625    7074.7486 
   24400    282.30832   -38681.243     168.3015   -38849.544    32955.576 
   24600    277.49476   -38664.297    165.43183   -38829.729   -8632.0795 
   24800    302.28493   -38653.819    180.21079    -38834.03   -47554.583 
   25000    297.43134   -38665.941    177.31727   -38843.258   -20498.505 
   25200    311.04447   -38672.805     185.4329   -38858.238     10063.46 
   25400    301.27995   -38641.824    179.61166   -38821.435   -14287.688 
   25600    307.40548   -38659.788    183.26347   -38843.052   -8501.3103 
   25800    274.25552    -38673.43    163.50072   -38836.931    8011.7324 
   26000    311.77225   -38625.316    185.86677   -38811.183   -40410.257 
   26200    264.82015   -38662.443    157.87571   -38820.319   -6213.1707 
   26400    277.49232   -38665.969    165.43038     -38831.4    8554.9623 
   26600    298.31334   -38631.652    177.84308   -38809.495    17252.114 
   26800    289.11656   -38654.483    172.36031   -38826.843   -3018.1261 
   27000    307.61622   -38654.594     183.3891   -38837.983   -6402.8152 
   27200     273.5728   -38662.887    163.09371    -38825.98    35855.109 
   27400    306.62684   -38675.981    182.79927   -38858.781   -20126.954 
   27600    324.60516   -38647.524    193.51726   -38841.041    7542.8042 
   27800    303.38231   -38652.618      180.865   -38833.483   -15893.934 
   28000    268.65751   -38688.932     160.1634   -38849.095   -222.24337 
   28200    282.72161   -38662.433    168.54789   -38830.981   -703.48438 
   28400    298.04467   -38654.216    177.68291   -38831.898     69966.27 
   28600    278.40219   -38686.185    165.97281   -38852.158    25114.832 
   28800    301.73116   -38672.076    179.88065   -38851.956    1235.2458 
   29000    298.98893   -38651.046    178.24584   -38829.292    19076.272 
   29200    326.89048   -38665.724    194.87968   -38860.603   -16043.331 
   29400    285.26838   -38677.778    170.06617   -38847.844    -8740.005 
   29600    328.52956   -38638.806    195.85684   -38834.663    -26028.41 
   29800    319.46175   -38661.469    190.45096    -38851.92    18256.084 
   30000    285.33802   -38676.106    170.10769   -38846.213    7739.1107 
   30200    306.63612   -38653.034    182.80481   -38835.839   -14054.818 
   30400    283.78813   -38665.687     169.1837    -38834.87   -23816.429 
   30600     303.3834    -38677.86    180.86566   -38858.726   -2228.1202 
   30800    300.96301   -38643.255    179.42271   -38822.678    10734.222 
   31000    297.59688   -38663.271    177.41595   -38840.687    13283.432 
   31200    297.36567   -38663.485    177.27812   -38840.763    1911.8446 
   31400    319.93205   -38655.394    190.73134   -38846.126   -3630.7368 
   31600    286.84639   -38674.571    171.00692   -38845.578    11789.644 
   31800    302.83387   -38678.431    180.53805   -38858.969   -28923.453 
   32000    313.18551   -38643.788     186.7093   -38830.498    7230.8933 
   32200    279.72529   -38672.272    166.76159   -38839.033    17913.743 
   32400    312.76566   -38670.514    186.45901   -38856.973    2357.7315 
   32600    305.96606   -38651.881    182.40534   -38834.286   -25476.326 
   32800    311.23739     -38661.5    185.54791   -38847.048   -17108.537 
   33000    290.06588   -38680.771    172.92626   -38853.697    51438.163 
   33200    309.77875   -38644.929    184.67832   -38829.607   -5278.5629 
   33400    315.73236   -38655.407    188.22764   -38843.634    8067.3905 
   33600    298.81541   -38690.938     178.1424    -38869.08   -30523.109 
   33800    285.24343   -38683.203    170.05129   -38853.254   -15992.134 
   34000    294.21049   -38655.992    175.39712   -38831.389    36191.426 
   34200     315.3905   -38653.189    188.02383   -38841.213   -19946.947 
   34400    283.02899   -38685.454    168.73113   -38854.185   -27557.964 
   34600    291.34648   -38649.594    173.68971   -38823.284   -24662.365 
   34800    313.92117   -38651.751    187.14788   -38838.898    7316.1618 
   35000    261.95572    -38686.31    156.16805   -38842.478    22135.885 
   35200    322.44694   -38643.676    192.23061   -38835.907    6817.5316 
   35400    306.28458   -38661.266    182.59523   -38843.861    49642.271 
   35600     284.2977   -38669.056    169.48749   -38838.543    -3760.599 
   35800    324.55674   -38636.029     193.4884   -38829.517   -2870.8172 
   36000    278.81053   -38667.984    166.21625   -38834.201   -38018.542 
   36200    293.44203   -38667.637    174.93899   -38842.576    972.26053 
   36400    328.59627   -38637.236    195.89661   -38833.133   -14594.685 
   36600    288.08818   -38678.477    171.74723   -38850.224    32098.427 
   36800    289.88746   -38666.425    172.81989   -38839.245    14650.474 
   37000    313.07474   -38647.552    186.64327   -38834.195   -25376.049 
   37200     282.8356   -38683.132    168.61584   -38851.748    8831.0253 
   37400    280.36376   -38680.903    167.14222   -38848.045    18361.066 
   37600    292.95731   -38658.597    174.65002   -38833.247     41048.25 
   37800    291.24423   -38639.851    173.62874   -38813.479    21442.775 
   38000    283.47654   -38680.904    168.99795   -38849.902    10332.752 
   38200    291.44404    -38659.79    173.74787   -38833.538   -35755.176 
   38400    327.83238   -38647.372    195.44121   -38842.813   -4079.9429 
   38600     298.1468   -38657.516    177.74379    -38835.26    21676.423 
   38800    275.70035    -38685.19    164.36207   -38849.552   -10275.726 
   39000    292.63842   -38687.686    174.45991   -38862.146   -24857.047 
   39200    274.66115   -38659.282    163.74254   -38823.024     20316.49 
   39400    317.27813   -38645.782    189.14917   -38834.931   -1088.6874 
   39600    268.87575   -38678.726    160.29351   -38839.019     34066.04 
   39800    310.06041   -38662.837    184.84624   -38847.683   -19850.055 
   40000     328.7316   -38642.445    195.97729   -38838.422    2370.3585 
   40200    286.28352   -38671.504    170.67136   -38842.176     17849.83 
   40400     314.5046   -38656.143    187.49569   -38843.639    4531.8817 
   40600    350.45121   -38603.518     208.9257   -38812.443    6879.9873 
   40800    352.14844   -38631.387    209.93752   -38841.325   -12702.891 
   41000    305.35117   -38671.372    182.03877   -38853.411    2399.2549 
   41200     297.1583   -38654.668    177.15449   -38831.823   -8697.6395 
   41400    334.36684   -38623.622    199.33681   -38822.959   -2202.8229 
   41600    309.58664   -38643.494    184.56379   -38828.057   -22408.016 
   41800    289.94435   -38671.794    172.85381   -38844.648    22688.962 
   42000    326.36195   -38646.599     194.5646   -38841.163   -13609.277 
   42200    291.24882   -38650.258    173.63148   -38823.889   -43491.881 
   42400    282.33284   -38683.487    168.31611   -38851.804   -856.77937 
   42600    272.06969   -38688.888    162.19761   -38851.086   -15270.707 
   42800    309.74368   -38641.581    184.65742   -38826.238   -17729.004 
   43000    285.68281    -38661.13    170.31324   -38831.443    3291.9642 
   43200    298.92196   -38668.001    178.20592   -38846.207    2521.6266 
   43400     299.3894   -38665.022    178.48459   -38843.507    12389.985 
   43600    320.70304    -38637.49    191.19097   -38828.681    6837.4701 
   43800    263.20697   -38675.371      156.914   -38832.285   -25954.188 
   44000    327.25512   -38658.933    195.09707    -38854.03    -6984.219 
   44200    338.70828   -38627.134    201.92501   -38829.059   -20994.256 
   44400    304.71878   -38641.457    181.66176   -38823.119   -21394.314 
   44600    319.79607   -38659.511    190.65027   -38850.161   -24744.759 
   44800    301.09933   -38657.373    179.50398   -38836.877   -3770.2582 
   45000    332.49965   -38633.149    198.22366   -38831.373   -17043.489 
   45200    303.68727   -38664.387    181.04681   -38845.434    11150.464 
   45400    285.82624   -38663.243    170.39875   -38833.642   -27936.427 
   45600    314.42559   -38634.756    187.44859   -38822.204    242.48498 
   45800    301.91551   -38649.306    179.99056   -38829.296    2680.5803 
   46000    315.57169   -38657.206    188.13185   -38845.338   -13330.112 
   46200    283.89518   -38671.451    169.24752   -38840.699   -23131.882 
   46400    320.00599   -38635.835    190.77542    -38826.61   -20487.559 
   46600    308.98832   -38660.325     184.2071   -38844.532    8109.7143 
   46800     276.7687   -38674.194    164.99899   -38839.193   -32887.375 
   47000     315.2308   -38644.884    187.92863   -38832.812    5551.4562 
   47200    305.61914   -38653.302    182.19852     -38835.5   -13771.822 
   47400    305.09499   -38655.607    181.88604   -38837.493    8382.5243 
   47600     301.1802   -38665.523    179.55219   -38845.076    28389.027 
   47800    275.80508   -38668.146    164.42451   -38832.571    9831.0833 
   48000    306.57848   -38639.401    182.77044   -38822.171   -15570.973 
   48200    290.29368   -38673.949    173.06206   -38847.011   -25245.587 
   48400     295.9545   -38665.386    176.43683   -38841.823   -10444.818 
   48600    300.59478   -38649.294    179.20319   -38828.497     11205.73 
   48800    317.13561   -38668.968     189.0642   -38858.032    254.69061 
   49000    303.13134   -38681.168    180.71539   -38861.884     11239.73 
   49200    299.60136   -38656.963    178.61095   -38835.574   -1966.5351 
   49400    291.19528   -38651.948    173.59957   -38825.547     4091.516 
   49600    323.68206   -38632.815    192.96695   -38825.782   -14440.322 
   49800    260.98791   -38670.617    155.59108   -38826.209   -9325.3893 
   50000    302.38006   -38662.099     180.2675   -38842.367    25641.444 
   50200     329.8858   -38628.548    196.66538   -38825.213    30505.478 
   50400    323.34426   -38657.174    192.76557   -38849.939    5234.7198 
   50600     284.6696   -38661.594     169.7092   -38831.303   -18286.516 
   50800    336.03116   -38626.188    200.32901   -38826.517    13381.966 
   51000     309.0426   -38653.201    184.23946   -38837.441     7263.966 
   51200    281.39848   -38660.268    167.75908   -38828.027    8990.3592 
   51400    283.85269   -38654.759    169.22219   -38823.981   -8500.4393 
   51600     319.6108   -38638.398    190.53982   -38828.938    12579.212 
   51800    303.93127   -38671.277    181.19228    -38852.47   -33971.163 
   52000    302.73747   -38654.737    180.48058   -38835.218   -1449.8118 
   52200    315.36746    -38639.29     188.0101     -38827.3   -4902.1975 
   52400    313.04106   -38655.559    186.62319   -38842.182      1990.17 
   52600    298.80372   -38670.854    178.13543   -38848.989    23879.733 
   52800    309.67653   -38636.141    184.61738   -38820.758   -10754.007 
   53000    316.76349   -38648.255    188.84236   -38837.098    1156.6206 
   53200    287.21874   -38658.538     171.2289   -38829.767    9673.4798 
   53400    299.73554   -38656.327    178.69094   -38835.018   -23645.758 
   53600    299.07757    -38641.41    178.29869   -38819.709    29900.365 
   53800    294.55691   -38664.358    175.60364   -38839.961    25492.874 
   54000    298.04919   -38671.235     177.6856   -38848.921   -20173.777 
   54200     341.4015   -38644.779     203.5306    -38848.31   -5808.9249 
   54400    275.38822    -38665.01      164.176   -38829.186   -19356.026 
   54600    291.80021   -38657.514     173.9602   -38831.474   -12845.886 
   54800    315.91254   -38634.336    188.33505   -38822.671    18692.837 
   55000    287.42992   -38674.832     171.3548   -38846.187    1827.9688 
   55200    295.25231   -38655.855    176.01821   -38831.874   -632.39697 
   55400    308.32235   -38631.191    183.81007   -38815.001   -29460.441 
   55600    285.15017   -38675.615     169.9957   -38845.611   -38381.282 
   55800    308.32326    -38648.81    183.81061   -38832.621   -24430.928 
   56000    341.58376   -38641.252    203.63926   -38844.891    25832.594 
   56200    287.19473   -38678.956    171.21459    -38850.17   -129.84694 
   56400    308.97115   -38654.373    184.19686    -38838.57     26626.12 
   56600    316.26486   -38652.253    188.54509   -38840.798    18607.712 
   56800    290.87513   -38671.959     173.4087   -38845.368   -17317.548 
   57000    292.49153   -38652.943    174.37234   -38827.315    20270.641 
   57200    333.35546   -38645.176    198.73386    -38843.91    -17415.54 
   57400     309.3156   -38674.024    184.40221   -38858.427    17587.627 
   57600    318.85093   -38658.804    190.08681   -38848.891   -11664.139 
   57800    294.69634   -38659.234    175.68676   -38834.921    29311.451 
   58000    304.19865    -38679.31    181.35168   -38860.661    24486.434 
   58200    317.91873   -38645.485    189.53107   -38835.017   -1860.3118 
   58400     296.0156   -38654.844    176.47325   -38831.317    9463.2857 
   58600    298.59499   -38664.593    178.01099   -38842.604    22541.551 
   58800    287.00067    -38692.19    171.09889   -38863.289    14628.419 
   59000    304.06715   -38657.135    181.27328   -38838.408   -8224.9703 
   59200    294.71939   -38650.178     175.7005   -38825.878   -24932.152 
   59400    259.49797   -38689.713    154.70283   -38844.416    10277.619 
   59600    288.85135    -38661.32     172.2022   -38833.522    21610.706 
   59800    287.56399   -38659.815    171.43472   -38831.249    3600.3516 
   60000    292.58866   -38669.657    174.43025   -38844.087   -8742.5136 
   60200    299.15277   -38655.665    178.34351   -38834.009    3199.2178 
   60400    341.41744   -38635.248    203.54011   -38838.788   -7287.7451 
   60600    290.82447   -38672.832     173.3785    -38846.21   -12156.288 
   60800    297.23864   -38658.992    177.20239   -38836.194    1330.1845 
   61000    313.88541   -38637.283    187.12656    -38824.41    4839.1046 
   61200    314.74259   -38653.157    187.63758   -38840.795    4238.3177 
   61400    304.08267   -38669.944    181.28253   -38851.227   -11081.735 
   61600    314.90272   -38647.169    187.73304   -38834.902    2502.7676 
   61800    297.90882    -38648.55    177.60192   -38826.152   -31437.037 
   62000    287.39174   -38673.353    171.33204   -38844.685   -18402.565 
   62200    319.88917   -38636.499    190.70577   -38827.205   -20989.142 
   62400    316.67466   -38649.044     188.7894   -38837.833   -2516.3233 
   62600      291.724   -38660.083    173.91477   -38833.998    35273.387 
   62800    311.58084   -38651.899    185.75266   -38837.652   -26244.541 
   63000    265.97799   -38674.415    158.56597   -38832.981    43236.909 
   63200    307.62724   -38667.666    183.39567   -38851.062     5534.921 
   63400    296.52925   -38642.881    176.77948    -38819.66    -11653.27 
   63600    288.19495   -38669.968    171.81088   -38841.779    17483.048 
   63800    292.29519   -38677.874    174.25529   -38852.129   -3032.4738 
   64000    298.61262   -38653.022     178.0215   -38831.044     5589.247 
   64200    288.67567   -38659.231    172.09746   -38831.328    36287.289 
   64400    288.40338   -38675.836    171.93514   -38847.771   -2062.0579 
   64600    310.84688   -38651.053     185.3151   -38836.368   -13868.697 
   64800    296.95251   -38662.507    177.03181   -38839.539   -2829.2651 
   65000    281.90524   -38688.061     168.0612   -38856.122   -941.64451 
   65200    313.16904   -38649.501    186.69949   -38836.201    11818.912 
   65400    290.02047   -38661.927    172.89918   -38834.826    17643.361 
   65600    277.87243   -38675.965    165.65699   -38841.622    8861.2044 
   65800    329.18055   -38641.337    196.24494   -38837.582    19049.985 
   66000    310.31533   -38652.246    184.99821   -38837.245   -30956.711 
   66200    267.93135    -38696.24    159.73049   -38855.971   -1155.5517 
   66400    268.44625   -38676.413    160.03746    -38836.45    17092.757 
   66600    323.57713    -38646.37    192.90439   -38839.274    14655.331 
   66800    296.38023   -38668.793    176.69064   -38845.484   -2267.2932 
   67000    279.73057   -38673.833    166.76474   -38840.597    3178.7366 
   67200    303.01503   -38657.571    180.64605   -38838.217    18163.598 
   67400    306.87912   -38652.875    182.94967   -38835.824    28774.779 
   67600    281.43499   -38667.386    167.78085   -38835.167    16844.932 
   67800    305.42883   -38653.553    182.08506   -38835.638   -23149.278 
   68000    291.53209   -38635.713    173.80036   -38809.513   -34065.814 
   68200    270.50025   -38677.306    161.26197   -38838.568   -16629.199 
   68400    317.90989   -38648.987     189.5258   -38838.512    12039.502 
   68600    284.70185   -38656.059    169.72843   -38825.788    10181.386 
   68800    303.02176    -38681.91    180.65006    -38862.56    18975.624 
   69000    313.89541   -38657.399    187.13252   -38844.531    3340.8383 
   69200    326.55768   -38647.053    194.68128   -38841.735   -2553.6346 
   69400    273.46925   -38677.134    163.03198   -38840.166     8704.931 
   69600    276.90904    -38665.31    165.08265   -38830.393    8511.2596 
   69800    299.03477   -38649.098    178.27317   -38827.371   -13199.711 
   70000    338.64087   -38625.322    201.88482   -38827.207   -29131.176 
   70200    294.84783   -38663.975    175.77708   -38839.752    13230.678 
   70400    274.57738   -38658.891     163.6926   -38822.584   -30729.169 
   70600    327.09067   -38627.799    194.99903   -38822.798   -12378.131 
   70800    289.42009   -38668.677    172.54127   -38841.218    14855.825 
   71000    318.00811    -38662.98    189.58435   -38852.564    -21832.05 
   71200    327.39272   -38640.133     195.1791   -38835.312   -21968.399 
   71400    281.57685   -38679.729    167.86542   -38847.595   -10845.821 
   71600    286.74929   -38675.014    170.94903   -38845.963    36264.061 
   71800    298.60106   -38642.892    178.01461   -38820.907   -8004.2285 
   72000    299.64653   -38661.439    178.63788   -38840.077   -9063.7012 
   72200    298.30594   -38668.907    177.83867   -38846.746    13140.623 
   72400    299.44651   -38653.349    178.51863   -38831.868   -29784.925 
   72600    298.82951   -38650.901     178.1508   -38829.052    19498.993 
   72800    301.10656   -38652.067    179.50829   -38831.575   -4063.2771 
   73000    291.75882   -38668.026    173.93552   -38841.962   -12976.028 
   73200    307.44401   -38657.402    183.28644   -38840.688    4317.8096 
   73400    310.86553   -38629.355    185.32622   -38814.682   -30462.804 
   73600    304.65415   -38671.262    181.62323   -38852.885    14105.067 
   73800    280.08268   -38653.731    166.97465   -38820.705   -610.69404 
   74000    293.96905   -38651.299    175.25318   -38826.553   -7718.6065 
   74200    281.43993   -38683.509    167.78379   -38851.293   -318.72485 
   74400    295.36228   -38658.951    176.08377   -38835.035    6439.8246 
   74600    304.10628   -38652.779    181.29661   -38834.076    22358.401 
   74800    278.56942    -38669.86     166.0725   -38835.932    7433.7987 
   75000    286.38901   -38689.691    170.73425   -38860.425    15825.682 
   75200    318.51728   -38654.098     189.8879   -38843.986    26468.921 
   75400    297.74944   -38653.461    177.50691   -38830.968   -3115.7038 
   75600    269.29064   -38685.071    160.54085   -38845.612    800.74484 
   75800    292.66478   -38656.542    174.47562   -38831.018   -6241.8354 
   76000    307.29259    -38658.44    183.19617   -38841.636   -24435.422 
   76200    270.35637   -38650.009     161.1762   -38811.185    14760.425 
   76400    293.20928   -38670.877    174.80023   -38845.677    8990.0859 
   76600    288.24195    -38668.46     171.8389   -38840.298   -27954.603 
   76800    302.74766   -38641.559    180.48665   -38822.045    -35511.61 
   77000     278.7724   -38676.256    166.19352   -38842.449    41718.897 
   77200    289.09856   -38662.988    172.34958   -38835.337   -26715.086 
   77400    307.43561   -38650.111    183.28143   -38833.392   -28791.992 
   77600    267.30185   -38679.521    159.35521   -38838.877    17090.372 
   77800    288.87515   -38678.151    172.21639   -38850.368   -36305.114 
   78000     286.8086   -38653.664    170.98439   -38824.649   -20711.129 
   78200    312.29276   -38660.451    186.17708   -38846.628   -3029.2528 
   78400     267.1598   -38682.538    159.27052   -38841.808   -15514.523 
   78600    296.06636   -38656.199    176.50351   -38832.702    16121.954 
   78800    292.50227   -38661.261    174.37874    -38835.64   -858.98738 
   79000    274.45627    -38681.83     163.6204    -38845.45    -38839.99 
   79200    297.46118   -38654.993    177.33505   -38832.328   -3998.7142 
   79400    299.23081   -38654.803    178.39004   -38833.193   -19522.577 
   79600    278.80925   -38693.807    166.21548   -38860.023    3714.7333 
   79800    290.60034   -38674.452    173.24488   -38847.697    27623.957 
   80000    306.55589   -38651.709    182.75697   -38834.466   -36013.933 
   80200    299.12401   -38668.653    178.32637    -38846.98      1703.61 
   80400    274.50673   -38675.209    163.65048   -38838.859   -11697.537 
   80600    306.51628   -38652.902    182.73336   -38835.636   -19765.989 
   80800    270.52784   -38665.498    161.27842   -38826.776    3133.8577 
   81000    293.93248       -38677    175.23138   -38852.232   -26035.919 
   81200    314.47914    -38641.93    187.48052    -38829.41     5294.825 
   81400    275.80843   -38663.363    164.42651    -38827.79    22424.513 
   81600    297.74425   -38668.181    177.50381   -38845.685    39164.441 
   81800    318.55205   -38632.495    189.90863   -38822.404   -14641.753 
   82000     290.7778   -38661.063    173.35068   -38834.413   -15769.492 
   82200    300.78639   -38670.329    179.31742   -38849.646   -7098.0886 
   82400    297.61276   -38635.638    177.42542   -38813.063   -30585.796 
   82600    309.53838   -38660.169    184.53502   -38844.704    7507.4179 
   82800    301.67861   -38669.785    179.84932   -38849.634    -40640.05 
   83000    298.69933   -38656.289    178.07319   -38834.363   -33435.987 
   83200    316.20866   -38647.675    188.51159   -38836.187    5067.5101 
   83400    311.05531   -38656.648    185.43936   -38842.087    17218.672 
   83600    278.26951   -38680.316    165.89371    -38846.21   -19648.149 
   83800    329.45534    -38640.57    196.40876   -38836.979   -28949.856 
   84000    272.85321   -38658.234    162.66472   -38820.899   -1865.5215 
   84200    277.16785   -38675.829    165.23694   -38841.066    27572.277 
   84400     285.7298   -38679.264    170.34125   -38849.605   -318.02481 
   84600    288.11646   -38645.824    171.76409   -38817.588   -179.05008 
   84800    290.40433   -38666.809    173.12803   -38839.937    39275.323 
   85000    277.95041   -38675.138    165.70348   -38840.841    6016.4555 
   85200    296.62714   -38639.779    176.83783   -38816.617    27149.897 
   85400    301.65674   -38669.408    179.83629   -38849.244    24259.027 
   85600    304.27571   -38651.258    181.39762   -38832.656    3019.0943 
   85800    300.60931   -38641.335    179.21185   -38820.547   -19566.841 
   86000     283.3342   -38665.973    168.91308   -38834.886    26419.525 
   86200    293.51926   -38658.454    174.98503   -38833.439   -15089.878 
   86400     313.9117   -38611.615    187.14223   -38798.757   -25499.248 
   86600    310.34796   -38653.676    185.01766   -38838.694     31814.61 
   86800    295.64674   -38669.945    176.25336   -38846.198   -13855.147 
   87000    294.97535   -38659.599     175.8531   -38835.452    112.50981 
   87200    321.38743   -38639.746    191.59898   -38831.345   -1063.3221 
   87400    293.97195   -38661.643    175.25491   -38836.897   -1196.3176 
   87600    308.16938    -38653.99    183.71888   -38837.709    7197.5594 
   87800    314.40583   -38642.808    187.43681   -38830.245   -26111.492 
   88000    287.26898   -38671.579    171.25885   -38842.838   -1370.9699 
   88200    287.20313    -38669.13    171.21959   -38840.349   -12404.479 
   88400    313.04514    -38637.66    186.62562   -38824.286   -13429.793 
   88600    286.80369   -38673.079    170.98146    -38844.06    21082.034 
   88800     287.0176   -38664.016    171.10899   -38835.125    11334.388 
   89000    308.02826   -38643.987    183.63474   -38827.621   -34851.537 
   89200     280.0872   -38661.317    166.97735   -38828.294   -8557.2624 
   89400    299.13635   -38659.646    178.33373    -38837.98    11358.109 
   89600    316.47204   -38650.183    188.66861   -38838.852   -27797.158 
   89800    338.23135   -38639.625    201.64068   -38841.266   -20715.752 
   90000    283.71108    -38671.51    169.13777   -38840.648    7773.9623 
   90200    320.71711   -38644.992    191.19936   -38836.191   -9559.1351 
   90400    310.40234   -38636.531    185.05008   -38821.581   -23864.333 
   90600    302.59434   -38660.854    180.39525    -38841.25    2236.8466 
   90800    271.87929   -38669.402     162.0841   -38831.487   -7096.4126 
   91000    298.46926   -38666.268    177.93604   -38844.204   -13688.553 
   91200    301.45566   -38643.635    179.71641   -38823.351   -5475.7414 
   91400    279.54633    -38676.41     166.6549   -38843.065    22844.867 
   91600    298.51499    -38670.39     177.9633   -38848.354     1967.157 
   91800     307.4719   -38649.974    183.30307   -38833.277    19650.108 
   92000    328.45144   -38650.274    195.81027   -38846.085    9834.7613 
   92200     313.9399   -38654.945    187.15904   -38842.104   -26973.463 
   92400    338.35474    -38623.79    201.71424   -38825.505   -48056.139 
   92600    308.19204   -38646.254    183.73238   -38829.986   -22084.192 
   92800    295.31607    -38668.19    176.05622   -38844.247    24739.919 
   93000    288.97194   -38655.338    172.27409   -38827.612   -8492.7095 
   93200     295.2707    -38654.92    176.02917    -38830.95    4468.6132 
   93400    270.06275   -38672.858    161.00115   -38833.859    25646.675 
   93600     300.2993   -38639.327    179.02704   -38818.354   -5523.2857 
   93800    285.68122   -38658.037    170.31229   -38828.349    436.31852 
   94000    272.59503   -38670.648     162.5108   -38833.159   -19948.211 
   94200     304.3544   -38650.659    181.44453   -38832.103     37861.57 
   94400    301.97872   -38663.018    180.02824   -38843.046    -15074.28 
   94600    266.10936   -38676.878    158.64429   -38835.523    23406.904 
   94800    314.33315   -38645.777    187.39348   -38833.171    -15892.94 
   95000    307.04457   -38661.078    183.04831   -38844.126    13124.093 
   95200    285.75256     -38681.3    170.35482   -38851.654   -3377.7903 
   95400    302.13696   -38653.188    180.12258    -38833.31    4165.7989 
   95600    308.70184   -38660.486    184.03631   -38844.522    18991.962 
   95800     276.2621   -38688.298    164.69697   -38852.995    3056.3506 
   96000    295.23727   -38653.812    176.00925   -38829.821   -8323.2374 
   96200    317.76257   -38643.425    189.43797   -38832.863     5567.967 
   96400    281.19526   -38673.107    167.63793   -38840.745    4418.9735 
   96600    302.29043   -38654.021    180.21407   -38834.235   -24520.383 
   96800     290.3188   -38660.714    173.07704   -38833.791    2553.0234 
   97000    316.06336   -38625.521    188.42497   -38813.946    19801.627 
   97200    291.16269   -38650.364    173.58013   -38823.944    2436.0226 
   97400    294.88102    -38660.65    175.79686   -38836.446    11872.504 
   97600    294.83552   -38652.188    175.76974   -38827.957   -2878.5168 
   97800    303.59822   -38632.375    180.99373   -38813.369   -25158.582 
   98000    284.16548   -38669.973    169.40866   -38839.382   -7746.3057 
   98200       310.14   -38653.871    184.89369   -38838.764   -5783.3623 
   98400    330.73407   -38621.823    197.17109   -38818.994   -7096.1476 
   98600    297.22207   -38653.245     177.1925   -38830.438   -39318.449 
   98800    295.32556   -38666.982    176.06188   -38843.043   -35673.605 
   99000    326.33648   -38636.291    194.54941   -38830.841    55156.102 
   99200     287.6067   -38650.499    171.46019   -38821.959   -17475.614 
   99400    267.39626   -38665.253    159.41149   -38824.665   -13455.569 
   99600    293.87759   -38643.401    175.19866     -38818.6    12524.705 
   99800    325.98267   -38635.275    194.33848   -38829.613   -21146.878 
  100000    285.38776   -38668.702    170.13734   -38838.839   -10589.178 
  100200    276.72245   -38649.186    164.97141   -38814.158    8659.9354 
  100400    319.90527   -38631.276    190.71537   -38821.991     29991.46 
  100600    300.16819   -38653.622    178.94887   -38832.571   -6078.9198 
  100800    308.12904   -38665.326    183.69482   -38849.021   -1538.1374 
  101000    300.35635   -38658.745    179.06104   -38837.806    -20652.76 
  101200    299.00682   -38639.033     178.2565   -38817.289    18470.478 
  101400    294.53955   -38673.543    175.59329   -38849.136    3820.3794 
  101600    297.00497   -38654.386    177.06308   -38831.449    14996.176 
  101800    297.92745   -38643.975    177.61302   -38821.588   -8622.8689 
  102000    276.98288   -38669.438    165.12667   -38834.565    28210.619 
  102200    320.54469    -38636.44    191.09657   -38827.536   -40156.867 
  102400    290.24023    -38642.31     173.0302    -38815.34    -10531.78 
  102600    308.56461   -38659.992     183.9545   -38843.946    13001.162 
  102800    268.50401   -38698.283    160.07189   -38858.355     8855.079 
  103000    298.62459    -38665.85    178.02864   -38843.878    19557.518 
  103200    308.36119   -38643.278    183.83323   -38827.111    53250.835 
  103400    300.85638   -38651.636    179.35915   -38830.995    3697.4465 
  103600    284.58147   -38674.706    169.65666   -38844.363    13916.728 
  103800    282.56428   -38655.374    168.45409   -38823.829   -25530.518 
  104000    297.39901   -38656.701    177.29799   -38833.999   -2642.9261 
  104200    304.43546   -38650.478    181.49285   -38831.971    13154.963 
  104400    294.91577   -38661.183    175.81758   -38837.001   -34261.588 
  104600    314.13363   -38667.254    187.27453   -38854.529    -3547.572 
  104800    307.47536    -38634.69    183.30513   -38817.995   -5952.7755 
  105000    292.51496   -38660.754    174.38631    -38835.14    3436.2964 
  105200      312.857   -38664.006    186.51346    -38850.52   -9808.1459 
  105400    315.23807   -38649.573    187.93296   -38837.506    9136.9256 
  105600    365.13311   -38630.532    217.67849   -38848.211    20495.796 
  105800    292.08713   -38666.862    174.13125   -38840.994     68.96596 
  106000    304.36399   -38656.353    181.45025   -38837.803   -17479.539 
  106200    317.49035    -38637.31    189.27569   -38826.586   -5447.2267 
  106400    314.87857   -38668.027    187.71864   -38855.745     28000.77 
  106600    293.64771   -38655.291    175.06161   -38830.352   -20511.117 
  106800    316.15273   -38642.856    188.47825   -38831.335   -15351.455 
  107000    280.86338   -38681.125    167.44007   -38848.565    8201.1418 
  107200    299.54696   -38654.937    178.57852   -38833.515    5277.1286 
  107400     335.4348   -38646.468    199.97348   -38846.442   -24934.676 
  107600    305.01952   -38683.332    181.84105   -38865.173    8338.6786 
  107800    293.51751   -38657.873    174.98399   -38832.857   -27356.379 
  108000    311.74832   -38650.608    185.85251   -38836.461   -2723.5591 
  108200    306.37828   -38679.001    182.65109   -38861.652   -1607.1174 
  108400    279.08864   -38678.746    166.38204   -38845.128   -2846.9344 
  108600     291.8833   -38649.032    174.00973   -38823.042    15099.163 
  108800    268.38039   -38659.454     159.9982   -38819.452    23058.821 
  109000    257.81861   -38677.219    153.70166   -38830.921    10943.169 
  109200    291.46375   -38646.707    173.75961   -38820.467   -14902.751 
  109400    280.32108   -38661.287    167.11678   -38828.404    23127.644 
  109600     275.6247   -38680.486    164.31697   -38844.803    3765.7828 
  109800    304.73387   -38658.605    181.67075   -38840.276    2947.4477 
  110000    294.27296   -38647.471    175.43436   -38822.906    -17863.21 
  110200    300.87561   -38679.846    179.37061   -38859.217   -29508.225 
  110400    275.48049   -38664.259      164.231    -38828.49    756.52507 
  110600    296.29559   -38651.096    176.64018   -38827.737   -16306.716 
  110800     284.3842    -38667.89    169.53906    -38837.43   -23435.215 
  111000    277.88898   -38675.969    165.66685   -38841.635    11671.671 
  111200    318.25973   -38647.514    189.73436   -38837.248    9673.5294 
  111400    296.96492    -38666.37     177.0392    -38843.41   -7406.2176 
  111600    260.63122   -38693.797    155.37843   -38849.175    39164.118 
  111800    303.89594   -38651.588    181.17121   -38832.759    7395.5812 
  112000    298.63956    -38650.13    178.03756   -38828.168   -24962.075 
  112200     283.9991   -38675.264    169.30948   -38844.574    17714.843 
  112400     312.7768   -38655.039    186.46565   -38841.504    52909.236 
  112600    288.99271   -38644.877    172.28648   -38817.164    18433.356 
  112800    296.14849   -38673.523    176.55248   -38850.076    25061.962 
  113000    313.85214   -38634.255    187.10672   -38821.361    2052.6582 
  113200    299.23942   -38646.359    178.39518   -38824.755   -11635.127 
  113400    285.01961   -38665.919    169.91786   -38835.837    57834.119 
  113600    308.60141   -38632.934    183.97644   -38816.911   -20215.025 
  113800    345.33273   -38617.423    205.87425   -38823.297   -14156.023 
  114000    301.03911   -38654.205    179.46808   -38833.674   -18672.462 
  114200    281.62351     -38675.7    167.89324   -38843.593    23436.865 
  114400    306.90027   -38636.873    182.96228   -38819.835    -26989.86 
  114600    276.92178   -38655.865    165.09024   -38820.956    504.13653 
  114800    272.47203    -38668.22    162.43747   -38830.657   -5768.8259 
  115000    324.76847   -38625.936    193.61462   -38819.551   -31906.775 
  115200    284.15079   -38657.091    169.39991   -38826.491   -5094.4124 
  115400    297.17463   -38663.226    177.16423   -38840.391   -547.87927 
  115600    310.68482   -38644.797    185.21849   -38830.016    22552.026 
  115800    268.26586   -38681.543    159.92991   -38841.473    6966.8108 
  116000    321.97523   -38651.404     191.9494   -38843.354    13669.033 
  116200    308.69284   -38650.483    184.03095   -38834.514    4296.0065 
  116400    265.18236   -38687.235    158.09165   -38845.326    18192.284 
  116600     301.5663   -38665.182    179.78237   -38844.965    21168.862 
  116800    294.10691   -38650.581    175.33536   -38825.917   -25744.088 
  117000    288.07364   -38651.421    171.73856   -38823.159   -6866.3727 
  117200    284.71066   -38680.313    169.73368   -38850.047    25990.429 
  117400    327.51761   -38645.467    195.25355   -38840.721   -1771.1921 
  117600    304.31241   -38658.483     181.4195   -38839.903    13037.608 
  117800    275.24774   -38685.826    164.09225   -38849.919    45108.361 
  118000    296.41117   -38661.791    176.70908     -38838.5   -9870.9802 
  118200    301.47485   -38645.522    179.72785    -38825.25   -16122.541 
  118400    254.42252   -38668.323    151.67704       -38820    13526.175 
  118600    290.83937   -38662.847    173.38739   -38836.234   -2000.6202 
  118800    282.67158   -38644.537    168.51806   -38813.055   -2391.0272 
  119000      316.911   -38625.974     188.9303   -38814.904   -15482.864 
  119200    291.87586   -38664.639     174.0053   -38838.645   -40166.154 
  119400    321.14045   -38655.696    191.45174   -38847.148   -14435.119 
  119600    336.36157   -38628.179    200.52599   -38828.705    3917.5431 
  119800    276.04781   -38674.353    164.56922   -38838.922    19744.343 
  120000    311.91538   -38651.493     185.9521   -38837.446    21649.536 
  120200    322.86474   -38642.703    192.47969   -38835.183    32530.182 
  120400    278.46728   -38680.788    166.01161   -38846.799   -32467.619 
  120600    308.20181   -38656.549    183.73821   -38840.287   -40019.462 
  120800    319.60752   -38654.289    190.53786   -38844.827    33974.125 
  121000    278.72449   -38684.376    166.16495   -38850.541   -16855.302 
  121200    299.87322   -38657.022    178.77302   -38835.795    5079.0429 
  121400    309.23806   -38652.961    184.35599   -38837.317    43934.013 
  121600    266.43622     -38691.1    158.83916    -38849.94    12986.227 
  121800    306.54589   -38662.657    182.75102   -38845.408    4656.1203 
  122000    298.02222   -38653.616    177.66953   -38831.285    2765.1331 
  122200    321.40043   -38638.989    191.60673   -38830.596    10845.284 
  122400    282.46706    -38663.85    168.39613   -38832.246    33138.959 
  122600    282.58945   -38674.763    168.46909   -38843.232   -39029.431 
  122800    305.79536   -38644.362    182.30357   -38826.665    -1804.729 
  123000    309.94025   -38653.089    184.77461   -38837.864   -5337.6671 
  123200     309.6309   -38675.125    184.59018   -38859.715    10452.806 
  123400    331.25274   -38652.501     197.4803   -38849.981    871.44827 
  123600    297.63981   -38657.902    177.44155   -38835.344   -8042.3845 
  123800    289.33089   -38684.407    172.48808   -38856.895    14938.154 
  124000    313.27922   -38650.535    186.76517     -38837.3   -2832.0971 
  124200    301.70929   -38657.021    179.86762   -38836.888   -16929.913 
  124400    266.50044   -38684.957    158.87744   -38843.835   -16802.275 
  124600     313.3612   -38641.112    186.81404   -38827.926   -23716.926 
  124800    277.43845   -38669.354    165.39826   -38834.753   -11225.836 
  125000     290.5937   -38661.257    173.24092   -38834.498   -921.78891 
  125200    286.36963   -38631.075    170.72269   -38801.797    -24144.22 
  125400    284.83526   -38658.157    169.80796   -38827.965    11033.831 
  125600     316.1445   -38659.529    188.47334   -38848.003    23088.623 
  125800    262.98672    -38680.93    156.78269   -38837.712    34275.685 
  126000    306.37932   -38658.794    182.65171   -38841.446    43269.899 
  126200    316.25014   -38649.987    188.53632   -38838.523    41988.269 
  126400    300.70863   -38666.647    179.27106   -38845.918   -14146.619 
  126600     311.2403   -38657.182    185.54965   -38842.731    14805.125 
  126800       339.78   -38643.921    202.56393   -38846.485    9639.3883 
  127000    298.79446   -38678.953    178.12991   -38857.083   -25937.593 
  127200    278.74947   -38665.304    166.17984   -38831.484    -33514.27 
  127400     295.8344   -38657.639    176.36523   -38834.005    17695.623 
  127600    284.01621   -38647.806    169.31967   -38817.126   -16161.246 
  127800    276.90405   -38665.069    165.07967   -38830.149     2175.046 
  128000    314.14701   -38663.588    187.28251    -38850.87   -18013.871 
  128200    317.82953   -38633.544    189.47789   -38823.022    7559.6461 
  128400    297.17012   -38655.514    177.16154   -38832.676   -27370.732 
  128600    303.52279   -38663.867    180.94876   -38844.816     8542.422 
  128800    301.12791   -38635.365    179.52102   -38814.886    16257.419 
  129000    315.99808   -38652.019    188.38605   -38840.406    17218.584 
  129200    303.49982   -38669.794    180.93506   -38850.729   -23214.974 
  129400    330.78072   -38635.314     197.1989   -38832.513   -6405.9888 
  129600    311.92243   -38635.576     185.9563   -38821.533    11520.531 
  129800     305.4425   -38664.986    182.09321    -38847.08   -8280.3496 
  130000    294.13507   -38664.909    175.35215   -38840.261   -35.364906 
  130200    328.31723   -38633.283    195.73026   -38829.013    15624.569 
  130400    288.18861    -38659.52     171.8071   -38831.328    13067.392 
  130600    297.59448   -38660.999    177.41453   -38838.413    7805.8089 
  130800    305.94765   -38658.248    182.39436   -38840.643   -20720.955 
  131000    288.69046   -38647.141    172.10629   -38819.248    466.25469 
  131200    302.16001   -38658.734    180.13632    -38838.87    18784.627 
  131400    283.53038   -38673.495    169.03004   -38842.525   -14055.161 
  131600    299.00587   -38650.526    178.25594   -38828.782    15935.055 
  131800    314.80334   -38661.628    187.67379   -38849.302    2899.1642 
  132000    282.18638   -38683.758     168.2288   -38851.987    17031.685 
  132200    299.79583   -38662.471    178.72688   -38841.198   -8965.6906 
  132400    315.01574   -38649.015    187.80042   -38836.815   -4781.4884 
  132600    270.46337   -38683.885    161.23999   -38845.125   -7033.9541 
  132800     286.8119   -38667.918    170.98636   -38838.905    16135.391 
  133000    281.37862   -38654.805    167.74724   -38822.552    -15941.12 
  133200    309.13948   -38641.828    184.29722   -38826.126   -17934.622 
  133400    284.98351   -38671.194    169.89634    -38841.09    25424.315 
  133600    301.84718   -38651.011    179.94982   -38830.961   -9103.7903 
  133800    319.86706   -38641.038    190.69259   -38831.731   -2957.4438 
  134000    267.36003   -38678.244    159.38989   -38837.634   -42420.175 
  134200    306.81539   -38649.223    182.91168   -38832.135        21436 
  134400    319.19517   -38655.452    190.29204   -38845.744    1315.0322 
  134600     273.3771   -38681.022    162.97704       -38844    3829.2885 
  134800    278.93662   -38675.969    166.29141    -38842.26   -16349.438 
  135000    298.82374   -38645.039    178.14736   -38823.186   -5559.4251 
  135200    297.72537   -38666.609    177.49255   -38844.102   -28572.803 
  135400    283.41522   -38667.594    168.96139   -38836.555     5060.375 
  135600    296.98796   -38651.714    177.05294   -38828.767   -26575.351 
  135800    319.88864   -38657.125    190.70545    -38847.83     18380.98 
  136000    257.74063   -38684.661    153.65517   -38838.316   -17469.989 
  136200    300.51042   -38649.087     179.1529    -38828.24    15632.373 
  136400    328.43224   -38657.616    195.79882   -38853.415   -33351.584 
  136600     272.8366   -38688.419    162.65482   -38851.074    45592.682 
  136800    291.29931   -38649.264    173.66158   -38822.925    5057.1047 
  137000    318.78794    -38645.79    190.04926   -38835.839    1214.6141 
  137200    279.87597   -38680.413    166.85142   -38847.264   -14007.225 
  137400    299.10829   -38658.349      178.317   -38836.666    -50033.56 
  137600    300.02604   -38652.459    178.86413   -38831.323     3105.109 
  137800    264.65125   -38665.459    157.77502   -38823.234   -28029.499 
  138000    282.41921   -38674.657     168.3676   -38843.024    13168.565 
  138200    327.14168   -38641.493    195.02944   -38836.522    19875.875 
  138400    293.49738   -38655.957    174.97199   -38830.929   -10038.758 
  138600    297.16518   -38668.151    177.15859   -38845.309    5893.7751 
  138800    279.37374   -38688.952    166.55201   -38855.504     17698.65 
  139000    305.18039   -38650.149    181.93696   -38832.086   -1898.7915 
  139200    309.53643   -38657.842    184.53386   -38842.376    3923.7004 
  139400     275.8332   -38688.157    164.44127   -38852.598    13462.798 
  139600    302.68404   -38664.074    180.44873   -38844.523   -16622.809 
  139800    294.46654   -38652.938    175.54976   -38828.488   -4872.2254 
  140000    320.89447   -38647.506    191.30509   -38838.812   -5037.0983 
  140200    299.47545   -38671.845    178.53589   -38850.381    2835.3276 
  140400    296.13282   -38656.897    176.54314    -38833.44    279.20675 
  140600    322.59504   -38650.003     192.3189   -38842.322    38533.544 
  140800    289.27534   -38674.421    172.45497   -38846.876   -245.27768 
  141000    296.90727   -38632.892    177.00484   -38809.897   -29089.843 
  141200    319.92379   -38652.806    190.72641   -38843.532    16299.048 
  141400    287.86269   -38664.828     171.6128   -38836.441    27233.255 
  141600    285.57189   -38658.305    170.24711   -38828.553   -9681.4811 
  141800    288.27034   -38657.414    171.85583    -38829.27   -42499.702 
  142000    300.02562   -38622.391    178.86388   -38801.254   -26481.085 
  142200    311.51417    -38651.97    185.71292   -38837.683    12355.237 
  142400    287.59201   -38666.599    171.45143   -38838.051   -14072.111 
  142600    321.36953   -38646.109     191.5883   -38837.697    26682.332 
  142800    323.87828   -38642.178    193.08393   -38835.262   -20488.552 
  143000    300.41805   -38667.123    179.09783   -38846.221   -12496.952 
  143200    290.99436   -38654.615    173.47978   -38828.095   -11801.916 
  143400    318.59253   -38624.288    189.93276    -38814.22    40637.673 
  143600    288.39481   -38663.721    171.93003   -38835.651   -3868.3027 
  143800    272.65768   -38665.104    162.54815   -38827.652    9988.0861 
  144000    307.45395   -38631.493    183.29237   -38814.785    6981.6365 
  144200    298.72452   -38653.498    178.08821   -38831.587   -2272.1713 
  144400    273.62427   -38664.878    163.12439   -38828.002   -17993.977 
  144600    307.31907   -38660.653    183.21195   -38843.865    -24063.28 
  144800     339.3968   -38634.662    202.33548   -38836.997     13105.19 
  145000    293.06718   -38664.898    174.71552   -38839.614    9350.9926 
  145200     287.6287   -38660.616     171.4733   -38832.089   -4939.7144 
  145400    328.74412   -38630.296    195.98476    -38826.28    29631.289 
  145600    289.84191   -38651.993    172.79274   -38824.785    8777.0194 
  145800    304.97142   -38662.562    181.81238   -38844.374    12358.356 
  146000    330.65484   -38647.073    197.12385   -38844.197   -3140.9385 
  146200    310.29572   -38638.553    184.98652   -38823.539    4182.1415 
  146400    301.50289   -38660.289    179.74457   -38840.033    15735.608 
  146600    308.69568    -38661.12    184.03264   -38845.153    27694.302 
  146800    297.13565   -38678.275    177.14099   -38855.416   -17152.784 
  147000    301.82911   -38650.457    179.93905   -38830.396    -15458.21 
  147200    335.29243   -38646.324    199.88861   -38846.213    22414.709 
  147400    289.96731   -38658.731     172.8675   -38831.598   -14121.199 
  147600    311.85276    -38660.87    185.91477   -38846.785    10840.027 
  147800    315.27998    -38631.56    187.95795   -38819.518   -18230.301 
  148000    300.20766   -38656.158     178.9724   -38835.131    23634.793 
  148200    298.25086   -38665.397    177.80583   -38843.203    5772.9162 
  148400    309.12665   -38632.708    184.28957   -38816.997   -37058.215 
  148600    275.37441   -38662.731    164.16776   -38826.899   -31777.373 
  148800    269.27482   -38664.705    160.53142   -38825.237   -10986.762 
  149000    313.43072   -38640.713    186.85549   -38827.569    -18026.61 
  149200    288.88104   -38669.735     172.2199   -38841.955    26832.062 
  149400    283.78624   -38666.715    169.18258   -38835.898    -36128.26 
  149600    316.97188   -38647.389    188.96659   -38836.356   -1372.8292 
  149800    295.00303   -38658.843     175.8696   -38834.713    4660.7065 
  150000    259.08693   -38682.573    154.45779   -38837.031    22638.474 
  150200    324.31097   -38644.554    193.34188   -38837.896    14896.744 
  150400    290.45655   -38656.823    173.15916   -38829.982   -4475.8233 
  150600     293.2399    -38690.12    174.81849   -38864.939   -20002.795 
  150800    275.35599   -38669.948    164.15678   -38834.105   -3225.3841 
  151000    296.74044   -38651.772    176.90538   -38828.677   -2301.0997 
  151200    305.20875   -38656.276    181.95386    -38838.23   -36612.502 
  151400    269.76401   -38680.192    160.82306   -38841.015   -5484.8812 
  151600    275.19646   -38646.523    164.06168   -38810.585   -9394.9422 
  151800    298.14063   -38654.959    177.74012   -38832.699   -11251.729 
  152000    286.29361    -38660.91    170.67737   -38831.587   -3262.4069 
  152200    274.96895   -38658.248    163.92604   -38822.174    817.65499 
  152400    309.61891   -38647.455    184.58303   -38832.038    5225.2531 
  152600    291.40406   -38660.379    173.72403   -38834.103    -17688.81 
  152800    264.86361   -38681.413    157.90162   -38839.314    19835.282 
  153000    304.43587   -38647.148     181.4931   -38828.641   -31583.978 
  153200    284.70296   -38655.345    169.72909   -38825.074    24341.211 
  153400    295.33932   -38678.127    176.07008   -38854.197   -17786.422 
  153600    311.73851   -38639.477    185.84666   -38825.324    34552.563 
  153800      293.524   -38658.842    174.98785    -38833.83   -12826.438 
  154000    291.64158   -38660.117    173.86563   -38833.983    26403.926 
  154200     299.0863   -38628.443    178.30389   -38806.747   -6122.6418 
  154400    302.07678   -38662.327     180.0867   -38842.414    30870.232 
  154600    286.09096   -38661.178    170.55656   -38831.735   -2532.6335 
  154800     307.9191   -38627.325    183.56967   -38810.895   -29139.242 
  155000    291.96264   -38655.787    174.05704   -38829.844    29678.437 
  155200    296.61025   -38655.377    176.82777   -38832.205   -8657.5794 
  155400    334.95099   -38626.485    199.68506    -38826.17     10131.94 
  155600    314.08082   -38646.263    187.24306   -38833.507   -24887.582 
  155800    314.82844   -38658.102    187.68875   -38845.791    23251.445 
  156000    294.24128   -38645.818    175.41547   -38821.233    21808.561 
  156200    297.22889    -38650.78    177.19657   -38827.976   -44935.211 
  156400    276.99743   -38680.098    165.13535   -38845.234      32962.8 
  156600    311.06018    -38635.16    185.44226   -38820.602    6327.1567 
  156800    305.05349    -38658.67     181.8613   -38840.531    7703.5703 
  157000    275.99973    -38662.67    164.54055    -38827.21   -27107.572 
  157200    301.69821   -38627.118    179.86101   -38806.979    5253.4273 
  157400    294.37538   -38653.788    175.49542   -38829.284     6384.633 
  157600    289.89508   -38664.261    172.82443   -38837.085   -6700.6202 
  157800    287.87138   -38653.299    171.61798   -38824.917   -15091.528 
  158000    303.35112    -38639.06    180.84641   -38819.907   -32843.893 
  158200    298.98328   -38674.122    178.24247   -38852.364    355.71797 
  158400    311.19347   -38647.729    185.52173   -38833.251   -24155.282 
  158600    315.48146   -38644.445    188.07806   -38832.523    19958.775 
  158800    297.55592    -38655.33    177.39153   -38832.721   -28199.529 
  159000    294.47421   -38662.471    175.55434   -38838.026    7304.2469 
  159200    305.14238   -38648.884    181.91429   -38830.799   -6747.8399 
  159400    320.86019    -38635.97    191.28465   -38827.254    1694.3224 
  159600    267.06635   -38675.443    159.21481   -38834.658   -17659.746 
  159800    316.68837   -38649.706    188.79758   -38838.504    7402.3231 
  160000    296.54574   -38654.074     176.7893   -38830.863    629.85062 
  160200    282.11411   -38682.446    168.18572   -38850.632    2424.1941 
  160400    291.26694   -38649.695    173.64228   -38823.338    31388.989 
  160600     325.7707   -38651.787    194.21212   -38845.999   -9878.5813 
  160800    286.47247   -38679.061      170.784   -38849.845   -19543.384 
  161000     315.3416   -38649.897    187.99468   -38837.892    26193.485 
  161200    316.62702   -38651.475      188.761   -38840.236    5284.2678 
  161400    267.67408   -38680.152    159.57712   -38839.729   -2494.6588 
  161600      279.064   -38674.816    166.36735   -38841.184     -5398.02 
  161800    310.87882   -38647.499    185.33414   -38832.833   -23385.813 
  162000    294.04068   -38661.005    175.29588   -38836.301   -22927.001 
  162200    267.71612    -38679.28    159.60218   -38838.883     21912.49 
  162400      324.087   -38657.262    193.20836   -38850.471   -25445.091 
  162600    287.56058   -38650.859    171.43269   -38822.292    11909.622 
  162800    302.78386   -38638.587    180.50823   -38819.095     1537.903 
  163000    318.03552   -38661.105    189.60069   -38850.706    5337.6423 
  163200    290.80259   -38672.397    173.36546   -38845.763    20211.768 
  163400     301.2765   -38638.002    179.60961   -38817.612    13997.573 
  163600    297.86357   -38664.093    177.57495   -38841.668     6619.294 
  163800    275.86666   -38660.666    164.46122   -38825.128    9370.6838 
  164000    328.87732   -38637.452    196.06417   -38833.516    8832.3851 
  164200    302.17006    -38664.83    180.14231   -38844.973   -25372.634 
  164400    301.09527   -38656.236    179.50156   -38835.738    18321.873 
  164600    337.65475   -38634.882    201.29693   -38836.179    479.41441 
  164800    277.42492   -38670.003     165.3902   -38835.393    9813.4072 
  165000    281.92783   -38660.393    168.07466   -38828.467    -3232.994 
  165200    304.47901   -38647.452    181.51882   -38828.971    35934.616 
  165400    332.95644   -38623.143    198.49598   -38821.639    23793.878 
  165600    292.52651   -38659.825    174.39319   -38834.218   -10168.494 
  165800     300.4534    -38657.87     179.1189   -38836.988   -22476.409 
  166000    317.07469   -38642.088    189.02788   -38831.115    15205.185 
  166200    286.50178   -38656.936    170.80148   -38827.738    -32403.03 
  166400    294.44297   -38669.952    175.53572   -38845.488   -24119.149 
  166600    316.48451   -38632.785    188.67604   -38821.461    20015.966 
  166800    314.61821   -38657.973    187.56343   -38845.537   -8183.2695 
  167000     281.0364    -38663.65    167.54323   -38831.193    6555.5219 
  167200    312.48391   -38655.882    186.29104   -38842.173   -4973.8092 
  167400    288.77145   -38664.374    172.15457   -38836.528   -1062.3522 
  167600    277.04802   -38681.779    165.16551   -38846.945    1341.6082 
  167800    307.00254    -38644.66    183.02325   -38827.683   -33596.885 
  168000    304.80629   -38661.578    181.71393   -38843.292   -21575.251 
  168200    266.96983   -38693.495    159.15727   -38852.652    43.045668 
  168400    285.34722   -38660.358    170.11317   -38830.471    6229.1442 
  168600    287.46234   -38654.844    171.37412   -38826.219   -38186.877 
  168800    290.53268   -38668.337    173.20454   -38841.541   -13180.254 
  169000    286.08313   -38665.872    170.55189   -38836.424   -2282.1619 
  169200    318.31943   -38641.642    189.76995   -38831.412   -26633.576 
  169400    259.40184   -38671.419    154.64552   -38826.065   -2161.6617 
  169600    300.11178   -38661.414    178.91524   -38840.329    5027.6193 
  169800    294.19598       -38646    175.38847   -38821.389    5465.4727 
  170000    342.59009   -38605.119     204.2392   -38809.358    27341.946 
  170200    308.23862   -38644.425    183.76016   -38828.185    48045.815 
  170400    276.36859    -38670.58    164.76045    -38835.34    1768.3152 
  170600    283.24098   -38646.325    168.85751   -38815.182    2495.2595 
  170800    325.88087   -38648.273     194.2778   -38842.551   -7986.7144 
  171000      298.086   -38663.514    177.70755   -38841.222   -19304.125 
  171200    315.57437   -38623.046    188.13345    -38811.18   -15981.637 
  171400    319.86442   -38644.548    190.69102   -38835.239    16341.008 
  171600    284.68178    -38659.59    169.71646   -38829.306    7640.3092 
  171800    306.70298   -38631.534    182.84466   -38814.378   -45126.699 
  172000    311.59278   -38647.442    185.75978   -38833.202   -296.13849 
  172200    310.11979   -38658.282    184.88164   -38843.164   -22592.494 
  172400    305.52394   -38657.649    182.14176    -38839.79    -8451.633 
  172600    339.99361   -38627.624    202.69127   -38830.315    42549.807 
  172800    307.14294   -38664.681    183.10695   -38847.788   -3065.3042 
  173000    299.54386   -38659.048    178.57667   -38837.625    14080.525 
  173200    337.25364   -38624.807     201.0578   -38825.865   -14074.048 
  173400    304.47629       -38625    181.51719   -38806.517    23972.832 
  173600    281.97494   -38665.181    168.10275   -38833.284   -2644.0169 
  173800    291.58738   -38663.051    173.83332   -38836.885    19844.259 
  174000    299.74705    -38632.67     178.6978   -38811.368   -11099.819 
  174200    298.96853   -38657.787    178.23368   -38836.021   -12041.367 
  174400      302.976   -38655.826    180.62278   -38836.449    6836.8699 
  174600    293.98531   -38643.896    175.26287   -38819.159   -18360.696 
  174800    296.75169   -38659.143    176.91208   -38836.055   -7880.9232 
  175000    296.47399   -38678.604    176.74653    -38855.35    12414.609 
  175200    321.38874   -38638.139    191.59976   -38829.739     53458.64 
  175400    288.59769   -38661.902    172.05098   -38833.953   -672.49431 
  175600    259.39152   -38667.243    154.63937   -38821.882    12008.132 
  175800    344.65584   -38626.225    205.47072   -38831.696   -1156.2196 
  176000    323.14742   -38641.045    192.64821   -38833.693    9037.5595 
  176200    301.33208   -38667.529    179.64274   -38847.171   -17653.371 
  176400    305.72906   -38664.535    182.26405   -38846.799    8697.8348 
  176600    336.60792   -38636.706    200.67285   -38837.379     -15005.4 
  176800    307.61002   -38652.456    183.38541   -38835.842    30137.587 
  177000    277.17801   -38660.052      165.243   -38825.295    18133.447 
  177200    301.04216   -38656.718     179.4699   -38836.188   -23530.977 
  177400    318.83697   -38652.966    190.07849   -38843.044    7586.4268 
  177600    280.04694   -38659.078    166.95334   -38826.031    6219.0875 
  177800    280.00694   -38664.137     166.9295   -38831.067    21099.235 
  178000    310.11944    -38639.86    184.88143   -38824.741    25351.737 
  178200    291.87353   -38668.805    174.00391   -38842.809   -3273.7947 
  178400    279.18458   -38662.391    166.43924    -38828.83    10378.823 
  178600    318.62825   -38640.587    189.95406   -38830.541   -7732.0062 
  178800    336.49501   -38651.467    200.60554   -38852.073   -5565.4724 
  179000    283.04779   -38674.337    168.74234   -38843.079    1186.8703 
  179200    259.55541   -38687.183    154.73708    -38841.92   -31723.505 
  179400    295.30906   -38648.949    176.05205   -38825.001    -3175.545 
[...]
  950000    283.27992   -38675.005    168.88072   -38843.886    1333.7524 
  950200    308.62625   -38652.051    183.99125   -38836.042   -779.92597 
  950400     316.4853   -38647.224    188.67651   -38835.901     14306.67 
  950600    305.72045   -38675.362    182.25892   -38857.621   -15441.211 
  950800    291.65409   -38661.449    173.87309   -38835.322    10803.659 
  951000    319.93328   -38642.694    190.73207   -38833.426    1367.3314 
  951200    282.46091   -38655.767    168.39246   -38824.159    33481.877 
  951400    326.94094   -38662.554    194.90977   -38857.463   -24613.719 
  951600    318.22997   -38647.194    189.71662   -38836.911   -7170.2478 
  951800    301.60934   -38647.432    179.80803    -38827.24    26274.623 
  952000     296.0565   -38667.835    176.49764   -38844.332   -5451.5599 
  952200    327.92326   -38628.867    195.49539   -38824.362    35043.404 
  952400     294.4491   -38643.647    175.53937   -38819.187   -12196.269 
  952600    298.30082   -38662.731    177.83562   -38840.567    13243.366 
  952800    277.86157   -38655.069    165.65051    -38820.72    2435.5742 
  953000    311.49571   -38635.384    185.70191   -38821.086   -5721.3205 
  953200    302.64735   -38659.388    180.42685   -38839.815     32391.54 
  953400    286.28092   -38659.099    170.66981   -38829.769   -5774.2355 
  953600    329.60178   -38633.557    196.49606   -38830.053    10163.997 
  953800     266.1838   -38664.614    158.68867   -38823.303   -13241.824 
  954000    296.31543    -38659.22      176.652   -38835.872    3688.6659 
  954200    319.92132   -38639.625    190.72494    -38830.35   -1794.6976 
  954400    280.83184   -38674.065    167.42127   -38841.486    7454.8303 
  954600    326.92274   -38645.171    194.89892    -38840.07    4079.4119 
  954800    294.25112   -38659.898    175.42134   -38835.319   -13039.158 
  955000    281.58144    -38684.95    167.86816   -38852.819    7269.1064 
  955200     312.7302   -38645.942    186.43786    -38832.38    42008.857 
  955400    301.41399   -38656.132    179.69157   -38835.824   -28328.415 
  955600    260.75702   -38681.191    155.45343   -38836.645   -3103.5498 
  955800    294.33627    -38667.03     175.4721   -38842.502   -18544.527 
  956000     294.0742   -38648.246    175.31586   -38823.562    45275.787 
  956200    280.23569   -38670.567    167.06588   -38837.633    23873.335 
  956400    293.64865   -38667.178    175.06217    -38842.24    2752.5227 
  956600    326.53527   -38641.912    194.66792    -38836.58    20477.575 
  956800    310.29568     -38672.6    184.98649   -38857.587    -21219.43 
  957000     318.7687   -38653.104    190.03779   -38843.142   -13298.775 
  957200    310.95512   -38653.014    185.37963   -38838.394    5131.2615 
  957400    273.62686   -38674.186    163.12594   -38837.312    -152.5711 
  957600    297.42025   -38640.189    177.31065   -38817.499   -19439.535 
  957800    308.59444   -38654.222    183.97228   -38838.194   -4275.0198 
  958000    291.35473    -38663.27    173.69462   -38836.964    24890.777 
  958200    284.98741   -38679.106    169.89867   -38849.004   -6626.9947 
  958400     284.0222   -38650.362    169.32324   -38819.685   -16473.629 
  958600    313.20097   -38657.039    186.71852   -38843.757   -2240.3937 
  958800    263.68726   -38686.016    157.20033   -38843.216    32639.483 
  959000    271.06739   -38669.308    161.60008   -38830.908    5513.5395 
  959200    304.54885   -38644.496    181.56045   -38826.056    17477.906 
  959400    275.20972   -38677.473    164.06958   -38841.543   -16776.578 
  959600    274.89636   -38677.588    163.88276   -38841.471   -20929.802 
  959800    320.30865   -38655.054    190.95585    -38846.01    4102.0312 
  960000    337.43277   -38640.857     201.1646   -38842.021   -28489.009 
  960200    267.90555   -38677.884    159.71511   -38837.599   -3280.3492 
  960400    297.01282   -38657.724    177.06776   -38834.792   -22317.963 
  960600    295.49338    -38647.58    176.16193   -38823.742   -61460.099 
  960800    267.68485   -38668.848    159.58354   -38828.432    17053.423 
  961000    323.24705   -38635.071    192.70761   -38827.778     1683.343 
  961200     298.7107   -38638.825    178.07997   -38816.905   -14955.236 
  961400    299.39019   -38663.244    178.48505   -38841.729   -6177.1697 
  961600    297.18189    -38656.83    177.16855   -38833.998    1614.7535 
  961800    318.25132   -38632.433    189.72935   -38822.162    20161.168 
  962000    326.40983   -38669.236    194.59314   -38863.829    -23714.15 
  962200    302.92777   -38656.951    180.59403   -38837.545   -26004.644 
  962400    310.85556   -38641.297    185.32027   -38826.617    19883.199 
  962600     288.7614   -38669.237    172.14858   -38841.385   -13035.174 
  962800    301.36687   -38657.122    179.66348   -38836.786    5456.1052 
  963000    304.45132   -38637.535    181.50231   -38819.037   -20029.444 
  963200    287.43119   -38664.829    171.35555   -38836.185   -16297.696 
  963400    279.87662   -38657.112    166.85181   -38823.964   -12613.133 
  963600    326.31868   -38631.537     194.5388   -38826.076    25487.354 
  963800    292.42222   -38671.354    174.33102   -38845.685    9746.0301 
  964000    295.48878   -38651.131    176.15919   -38827.291    34220.026 
  964200    325.12332   -38639.025    193.82617   -38832.852    11993.073 
  964400    274.96493   -38672.573    163.92364   -38836.496    15615.454 
  964600    282.61531   -38659.004    168.48451   -38827.489    -32297.69 
  964800     323.6305   -38640.477    192.93621   -38833.413    30300.202 
  965000    282.51015   -38665.287    168.42182   -38833.708    51935.627 
  965200    301.65887   -38641.557    179.83756   -38821.395   -11988.818 
  965400    298.34776   -38636.022     177.8636   -38813.886    28449.316 
  965600    289.96612   -38665.067    172.86678   -38837.934   -17687.556 
  965800    290.56148   -38647.756    173.22171   -38820.978   -8332.9547 
  966000    300.57555   -38637.908    179.19173     -38817.1    1695.2012 
  966200    292.06197   -38663.025    174.11625   -38837.142    16522.279 
  966400    300.18402   -38640.461    178.95831   -38819.419    37776.397 
  966600    306.18943   -38635.502    182.53851   -38818.041   -11936.008 
  966800    290.20013   -38663.671    173.00629   -38836.677    21683.816 
  967000     307.6706   -38639.575    183.42152   -38822.996    33509.674 
  967200    318.88776   -38634.517    190.10877   -38824.625    5334.9829 
  967400    287.21477   -38660.128    171.22653   -38831.355    8440.3037 
  967600     310.2029    -38659.68    184.93118   -38844.612    21032.314 
  967800    310.75857   -38622.504    185.26245   -38807.767    20716.322 
  968000    291.49328   -38660.318    173.77722   -38834.095   -21391.448 
  968200    295.61185   -38654.623    176.23255   -38830.855   -13538.379 
  968400    341.97527   -38628.423    203.87266   -38832.296   -11442.966 
  968600    304.32722   -38658.809    181.42833   -38840.238   -3681.7528 
  968800    295.96052   -38668.484    176.44042   -38844.924    19349.868 
  969000    323.56465   -38631.127    192.89695   -38824.023   -10692.959 
  969200    304.10994   -38647.143    181.29879   -38828.442   -36763.815 
  969400    291.01873    -38666.52    173.49431   -38840.014   -21242.645 
  969600    291.36078    -38677.86    173.69823   -38851.558   -15448.194 
  969800    280.92165   -38646.729    167.47482   -38814.204   -27876.701 
  970000     301.6799   -38649.052     179.8501   -38828.902   -11920.786 
  970200    275.67519   -38678.424    164.34707   -38842.771    5102.8431 
  970400    300.80063   -38654.401    179.32591   -38833.727   -5590.8578 
  970600    281.50384   -38653.811    167.82189   -38821.633    7985.1886 
  970800    333.23564   -38635.896    198.66243   -38834.558    25148.365 
  971000    325.10852   -38640.161    193.81735   -38833.979    14620.788 
  971200    282.47982   -38662.917    168.40374    -38831.32    12653.827 
  971400    296.16632   -38641.849    176.56311   -38818.413   -30820.473 
  971600    355.85099   -38615.906    212.14484   -38828.051   -15837.642 
  971800    307.50651   -38661.433     183.3237   -38844.757    12927.881 
  972000    284.36173   -38663.467    169.52566   -38832.993    -12956.67 
  972200    302.89717   -38633.484    180.57578   -38814.059   -4724.0857 
  972400      267.949   -38670.652    159.74101   -38830.393   -6769.7347 
  972600    306.21454    -38660.44    182.55347   -38842.993   -11393.987 
  972800    301.76114   -38637.731    179.89853   -38817.629   -4088.4011 
  973000    295.58776   -38669.401    176.21819   -38845.619    7264.2731 
  973200    304.78638   -38655.654    181.70206   -38837.356    17557.154 
  973400    298.52426   -38638.878    177.96883   -38816.847    8043.4737 
  973600    295.39043   -38658.839    176.10056    -38834.94    25836.385 
  973800     289.9755   -38668.607    172.87238   -38841.479    40042.596 
  974000    309.31584   -38629.787    184.40235   -38814.189    36596.413 
  974200    317.55889   -38617.327    189.31655   -38806.644   -16005.826 
  974400     312.5954   -38666.124     186.3575   -38852.481    16242.265 
  974600    282.98308   -38661.719    168.70376   -38830.422   -20801.415 
  974800    305.86797   -38641.207    182.34686   -38823.554   -5427.4716 
  975000    306.14857   -38670.396    182.51415    -38852.91    11442.622 
  975200    277.31904   -38703.517    165.32707   -38868.844     3515.523 
  975400    297.93119   -38665.765    177.61526    -38843.38   -9014.1907 
  975600    295.00665   -38642.874    175.87176   -38818.745    21922.537 
  975800    307.54262   -38665.776    183.34523   -38849.121   -14211.086 
  976000    299.79201   -38672.373    178.72461   -38851.097    17568.456 
  976200    311.99826   -38650.632    186.00151   -38836.633    -30262.81 
  976400    288.60288   -38658.767    172.05407   -38830.821    -6338.821 
  976600    288.21584   -38668.655    171.82333   -38840.479    10586.065 
  976800    323.85501   -38640.312    193.07005   -38833.382    1727.4919 
  977000    288.73183   -38657.722    172.13095   -38829.853    19586.574 
  977200    279.16676   -38669.605    166.42861   -38836.034   -20175.807 
  977400    303.73438   -38654.379     181.0749   -38835.454    32114.167 
  977600    307.63617   -38659.232      183.401   -38842.633   -33482.593 
  977800    319.36913   -38654.935    190.39574    -38845.33     1263.108 
  978000    278.55632   -38686.528     166.0647   -38852.592    565.22546 
  978200    315.57781   -38661.072     188.1355   -38849.207   -5301.1357 
  978400     304.6197    -38650.57    181.60269   -38832.173   -12984.029 
  978600    303.80359   -38667.226    181.11616   -38848.342    18196.886 
  978800    286.06964   -38671.498    170.54385   -38842.042     -2618.15 
  979000    308.19955   -38646.176    183.73686   -38829.913     18772.46 
  979200    286.87641   -38661.721    171.02482   -38832.746    4710.8255 
  979400    293.98246   -38649.297    175.26117   -38824.559    43338.129 
  979600     293.7195   -38654.404    175.10441   -38829.509   -11175.891 
  979800    264.34069   -38675.317    157.58988   -38832.906   -10178.655 
  980000    290.01679   -38665.941    172.89699   -38838.838    -8335.437 
  980200    316.72187   -38641.194    188.81754   -38830.012   -37041.658 
  980400    281.87936   -38674.412    168.04577   -38842.457    -28349.88 
  980600    301.72282   -38668.045    179.87568   -38847.921   -20731.745 
  980800    313.24692    -38646.64    186.74591   -38833.385     26585.74 
  981000    293.22668   -38664.116     174.8106   -38838.927   -19802.737 
  981200    296.32995   -38670.721    176.66066   -38847.382    30880.908 
  981400    293.28309   -38652.596    174.84424    -38827.44   -17600.931 
  981600    315.44913   -38655.042    188.05879     -38843.1   -15171.662 
  981800    267.37995   -38692.495    159.40177   -38851.897    14919.113 
  982000      316.082   -38662.638    188.43608   -38851.074    34187.228 
  982200    289.42845   -38645.702    172.54625   -38818.248     53571.92 
  982400    319.35225   -38632.178    190.38568   -38822.564   -2096.2802 
  982600    290.81026   -38671.647    173.37003   -38845.017   -4970.1577 
  982800    316.18996   -38645.511    188.50044   -38834.011    19546.615 
  983000    291.09138   -38656.816    173.53762   -38830.353   -2661.2978 
  983200    284.94005   -38673.369    169.87043   -38843.239    1227.8769 
  983400    280.22431   -38652.046    167.05908   -38819.105    7645.3435 
  983600    307.19508   -38643.802    183.13803    -38826.94    -2470.855 
  983800    281.32365   -38677.504    167.71447   -38845.219    24093.346 
  984000    298.46849   -38643.738    177.93557   -38821.674    27004.721 
  984200    316.55472   -38647.737     188.7179   -38836.455    31019.007 
  984400    291.68122   -38677.579    173.88926   -38851.468    27459.676 
  984600    299.65816   -38655.618    178.64481   -38834.263    1847.0933 
  984800    331.01527   -38638.641    197.33873   -38835.979   -5059.4499 
  985000     284.8077   -38672.934    169.79153   -38842.726   -11618.127 
  985200    284.86465    -38663.71    169.82548   -38833.535    -17030.21 
  985400    302.68579   -38652.456    180.44977   -38832.906   -9550.9027 
  985600    288.19384    -38669.53    171.81022   -38841.341   -15955.559 
  985800    286.17976   -38674.991     170.6095     -38845.6   -24928.487 
  986000    282.66048   -38643.845    168.51144   -38812.356   -5052.4604 
  986200    295.65741   -38662.093    176.25971   -38838.353    15888.622 
  986400    276.11466   -38679.116    164.60907   -38843.725    9529.7983 
  986600    313.77895   -38651.911    187.06309   -38838.974    18013.775 
  986800      312.037   -38655.632    186.02461   -38841.657   -35888.503 
  987000    302.50735   -38657.573    180.34339   -38837.916   -30571.864 
  987200    284.73742   -38663.482    169.74963   -38833.232   -10488.351 
  987400    317.38817    -38635.09    189.21477   -38824.305    551.56569 
  987600    265.18843   -38670.919    158.09527   -38829.015   -18268.625 
  987800    286.31064   -38657.373    170.68752   -38828.061   -4045.6863 
  988000    346.25045   -38634.729    206.42137    -38841.15   -25364.205 
  988200    294.03266   -38651.617     175.2911   -38826.908    23664.519 
  988400    316.23335   -38663.783    188.52631   -38852.309   -38140.685 
  988600    300.82821   -38637.754    179.34235   -38817.096   -3515.2561 
  988800    310.26104   -38646.013    184.96584   -38830.979    9844.3589 
  989000    298.54364   -38674.351    177.98038   -38852.332    28520.711 
  989200     296.9068   -38643.662    177.00456   -38820.666    3475.8838 
  989400    301.02804   -38649.569    179.46148   -38829.031   -23017.286 
  989600    295.67165    -38660.78     176.2682   -38837.049     15662.93 
  989800    331.01415   -38627.579    197.33806   -38824.917   -21343.808 
  990000    331.86485   -38639.071    197.84522   -38836.916    42250.936 
  990200    312.49019    -38663.62    186.29478   -38849.914   -5786.6206 
  990400    314.28377   -38635.856    187.36404    -38823.22    13589.127 
  990600    311.61604   -38647.291    185.77364   -38833.065    11314.491 
  990800    314.92249   -38653.454    187.74483   -38841.198    31663.487 
  991000     297.4845   -38667.713    177.34895   -38845.062    24735.519 
  991200    285.27875   -38673.443    170.07235   -38843.515   -6914.6964 
  991400    313.18256   -38641.782    186.70754    -38828.49    3521.7795 
  991600    346.71144   -38663.164    206.69619    -38869.86    4806.0732 
  991800    293.49737    -38665.96    174.97198   -38840.932   -18219.035 
  992000     327.0879   -38642.606    194.99738   -38837.604   -17534.082 
  992200    274.99905   -38679.333    163.94399   -38843.277    7160.1484 
  992400    297.13433   -38666.353     177.1402   -38843.493   -12586.642 
  992600     307.4358   -38648.911    183.28155   -38832.192   -6858.7328 
  992800    305.34679   -38655.937    182.03616   -38837.973    -20881.28 
  993000    280.86502   -38663.166    167.44106   -38830.607   -13414.092 
  993200    273.63199    -38667.56      163.129   -38830.689    4667.6394 
  993400    320.68903   -38635.046    191.18262   -38826.229   -5292.3813 
  993600    308.83904   -38653.576    184.11811   -38837.694   -24243.212 
  993800    287.62787   -38653.479    171.47281   -38824.952    6099.9327 
  994000    332.35487   -38637.017    198.13735   -38835.154   -36418.296 
  994200    307.08968   -38656.383     183.0752   -38839.458    23764.635 
  994400    275.79137   -38673.789    164.41634   -38838.206    9183.4042 
  994600    330.62189   -38637.513    197.10421   -38834.618   -2270.4114 
  994800    286.74941   -38657.862    170.94911   -38828.811   -9280.7892 
  995000    296.43122   -38671.812    176.72103   -38848.533      35569.4 
  995200    313.96347   -38652.817    187.17309    -38839.99   -1301.1627 
  995400    338.05192   -38632.459    201.53371   -38833.993    13292.093 
  995600    285.90365   -38660.233    170.44489   -38830.678    24960.644 
  995800    290.12884   -38651.585    172.96379   -38824.549    1817.3937 
  996000     321.5924   -38632.102    191.72117   -38823.823    2696.9806 
  996200    296.18254   -38670.115    176.57278   -38846.688   -3291.2086 
  996400     269.6264   -38654.304    160.74102   -38815.045   -14683.797 
  996600    291.53187   -38645.652    173.80022   -38819.452   -20086.592 
  996800    277.29705   -38661.277    165.31397   -38826.591   -395.25076 
  997000    265.63347   -38689.101    158.36058   -38847.462    6634.6729 
  997200    281.79449   -38659.201    167.99517   -38827.196    6573.7906 
  997400    296.09948   -38652.647    176.52326    -38829.17    8865.6777 
  997600    297.46457   -38672.592    177.33708   -38849.929   -17594.479 
  997800    317.56988   -38668.986     189.3231   -38858.309   -24610.727 
  998000    310.77002   -38642.566    185.26928   -38827.836    20165.289 
  998200    286.97252    -38674.37    171.08211   -38845.452    -4855.635 
  998400    320.78919   -38663.199    191.24233   -38854.442   -6783.7507 
  998600    306.90196   -38652.311    182.96329   -38835.274     28656.54 
  998800    277.34885   -38670.971    165.34485   -38836.316     -26165.9 
  999000    283.99971    -38666.86    169.30984    -38836.17    14489.735 
  999200    298.64388   -38637.452    178.04014   -38815.492   -2818.5987 
  999400     292.2879   -38665.433    174.25094   -38839.684    9675.9299 
  999600    277.22445   -38668.854    165.27069   -38834.125   -8852.3084 
  999800     308.7641   -38646.966    184.07343   -38831.039    9004.0028 
 1000000    312.89705   -38637.768    186.53733   -38824.306   -22184.696 
Loop time of 8163.1 on 8 procs for 1000000 steps with 201 atoms

Performance: 2.646 ns/day, 9.070 hours/ns, 122.502 timesteps/s
99.3% CPU use with 8 MPI tasks x no OpenMP threads

MPI task timing breakdown:
Section |  min time  |  avg time  |  max time  |%varavg| %total
---------------------------------------------------------------
Pair    | 6628.4     | 6795.4     | 7028.9     | 137.3 | 83.25
Neigh   | 0          | 0          | 0          |   0.0 |  0.00
Comm    | 57.942     | 292.05     | 459.41     | 664.4 |  3.58
Output  | 0.1068     | 0.11873    | 0.18302    |   7.1 |  0.00
Modify  | 1066.2     | 1070.1     | 1074       |   8.6 | 13.11
Other   |            | 5.421      |            |       |  0.07

Nlocal:    25.125 ave 28 max 23 min
Histogram: 1 0 3 0 0 0 3 0 0 1
Nghost:    963.75 ave 979 max 950 min
Histogram: 1 0 0 3 0 0 3 0 0 1
Neighs:    4304 ave 4668 max 4030 min
Histogram: 1 3 0 0 0 0 3 0 0 1

Total # of neighbors = 34432
Ave neighs/atom = 171.303
Neighbor list builds = 0
Dangerous builds = 0

Please see the log.cite file for references relevant to this simulation

Total wall time: 2:16:11
