ITEM: TIMESTEP
0
ITEM: NUMBER OF ATOMS
49
ITEM: BOX BOUNDS pp pp pp
0.0000000000000000e+00 1.1000000000000000e+01
0.0000000000000000e+00 1.1002000000000001e+01
0.0000000000000000e+00 1.1000000000000000e+01
ITEM: ATOMS id type x y z 
10 1 4.603 4.603 4.603 
11 1 3.085 3.085 3.085 
12 1 3.796 3.796 3.796 
46 1 0.726 0.725 0.725 
47 1 2.26 2.259 2.26 
48 1 1.551 1.55 1.55 
49 2 3.414 3.24 4.663 
19 1 4.546 4.545 6.226 
20 1 3.013 3.013 7.764 
21 1 3.721 3.721 7.053 
31 1 0.668 0.667 10.103 
32 1 2.187 2.187 8.589 
33 1 1.476 1.475 9.298 
16 1 4.546 6.225 4.546 
17 1 3.013 7.765 3.013 
18 1 3.721 7.053 3.722 
25 1 0.668 10.103 0.668 
26 1 2.188 8.589 2.188 
27 1 1.476 9.298 1.476 
4 1 4.608 6.169 6.169 
5 1 3.086 7.684 7.684 
6 1 3.799 6.974 6.974 
37 1 0.729 10.046 10.046 
38 1 2.259 8.509 8.508 
39 1 1.552 9.219 9.219 
13 1 6.225 4.546 4.546 
14 1 7.764 3.013 3.013 
15 1 7.053 3.721 3.722 
28 1 10.102 0.667 0.668 
29 1 8.589 2.187 2.188 
30 1 9.298 1.475 1.476 
1 1 6.168 4.608 6.169 
2 1 7.684 3.086 7.684 
3 1 6.974 3.799 6.974 
40 1 10.045 0.728 10.046 
41 1 8.508 2.259 8.508 
42 1 9.218 1.551 9.218 
7 1 6.169 6.169 4.608 
8 1 7.684 7.684 3.086 
9 1 6.974 6.974 3.799 
43 1 10.046 10.047 0.729 
44 1 8.508 8.509 2.259 
45 1 9.219 9.219 1.552 
22 1 6.229 6.229 6.229 
23 1 7.764 7.765 7.765 
24 1 7.055 7.056 7.055 
34 1 10.108 10.108 10.107 
35 1 8.59 8.59 8.59 
36 1 9.301 9.301 9.3 
ITEM: TIMESTEP
10
ITEM: NUMBER OF ATOMS
49
ITEM: BOX BOUNDS pp pp pp
0.0000000000000000e+00 1.1000000000000000e+01
0.0000000000000000e+00 1.1002000000000001e+01
0.0000000000000000e+00 1.1000000000000000e+01
ITEM: ATOMS id type x y z 
10 1 4.63158 4.63422 4.62924 
11 1 3.07254 3.08789 2.9527 
12 1 3.77867 3.77623 3.80261 
46 1 0.743086 0.742416 0.742034 
47 1 2.26289 2.26305 2.26658 
48 1 1.54692 1.54457 1.54866 
49 2 3.43894 3.25014 4.78896 
19 1 4.53134 4.53031 6.23133 
20 1 2.99814 2.9983 7.78178 
21 1 3.70267 3.70229 7.06559 
31 1 0.671681 0.671548 10.0784 
32 1 2.19065 2.19048 8.58902 
33 1 1.47993 1.47928 9.28664 
16 1 4.53242 6.2316 4.5284 
17 1 2.99913 7.78149 3.0001 
18 1 3.70215 7.0662 3.70127 
25 1 0.672094 10.079 0.672667 
26 1 2.19096 8.58939 2.19105 
27 1 1.4802 9.28716 1.48013 
4 1 4.60484 6.18427 6.18552 
5 1 3.07904 7.68806 7.68812 
6 1 3.7936 6.98513 6.98504 
37 1 0.737797 10.0374 10.0372 
38 1 2.26879 8.49909 8.49858 
39 1 1.56644 9.20473 9.20384 
13 1 6.23166 4.53238 4.52943 
14 1 7.78066 2.99925 3.00025 
15 1 7.06582 3.7019 3.70123 
28 1 10.0784 0.671061 0.6717 
29 1 8.58922 2.19059 2.19157 
30 1 9.2863 1.47921 1.48011 
1 1 6.18438 4.60462 6.18496 
2 1 7.68803 3.0795 7.68775 
3 1 6.98485 3.79309 6.98534 
40 1 10.0365 0.736352 10.0374 
41 1 8.49846 2.26823 8.49865 
42 1 9.20458 1.56495 9.20422 
7 1 6.18552 6.18478 4.60467 
8 1 7.68791 7.68815 3.07892 
9 1 6.98582 6.98548 3.79337 
43 1 10.037 10.0383 0.737728 
44 1 8.49845 8.49927 2.26869 
45 1 9.20488 9.20509 1.5659 
22 1 6.23912 6.23918 6.23951 
23 1 7.77413 7.77478 7.77468 
24 1 7.06891 7.0703 7.0696 
34 1 10.1003 10.101 10.0996 
35 1 8.58678 8.58636 8.58619 
36 1 9.29188 9.29292 9.29211 
ITEM: TIMESTEP
20
ITEM: NUMBER OF ATOMS
49
ITEM: BOX BOUNDS pp pp pp
0.0000000000000000e+00 1.1000000000000000e+01
0.0000000000000000e+00 1.1002000000000001e+01
0.0000000000000000e+00 1.1000000000000000e+01
ITEM: ATOMS id type x y z 
10 1 4.63785 4.64132 4.63031 
11 1 3.07316 3.08987 2.94675 
12 1 3.76493 3.75858 3.81551 
46 1 0.734543 0.733179 0.735084 
47 1 2.26282 2.26271 2.26248 
48 1 1.54743 1.5463 1.54768 
49 2 3.43894 3.2505 4.78349 
19 1 4.53506 4.5342 6.23705 
20 1 2.99978 2.9999 7.77833 
21 1 3.70434 3.70397 7.06703 
31 1 0.671809 0.670835 10.0825 
32 1 2.18984 2.18953 8.58845 
33 1 1.47872 1.47838 9.29014 
16 1 4.53471 6.23841 4.53063 
17 1 2.99854 7.78025 2.99955 
18 1 3.70343 7.06788 3.70224 
25 1 0.671975 10.0832 0.671864 
26 1 2.18995 8.58901 2.18993 
27 1 1.47871 9.29099 1.47906 
4 1 4.60351 6.18221 6.18557 
5 1 3.08025 7.68796 7.68752 
6 1 3.79483 6.98211 6.98302 
37 1 0.739046 10.037 10.0365 
38 1 2.26946 8.49821 8.49754 
39 1 1.56491 9.20646 9.20586 
13 1 6.23807 4.53471 4.53179 
14 1 7.77933 2.9988 2.99978 
15 1 7.06706 3.7035 3.70274 
28 1 10.0826 0.671012 0.671944 
29 1 8.58908 2.18954 2.19064 
30 1 9.28953 1.47791 1.4787 
1 1 6.18229 4.60328 6.18482 
2 1 7.68797 3.08057 7.68779 
3 1 6.98208 3.79422 6.9824 
40 1 10.0359 0.737657 10.0364 
41 1 8.49749 2.26887 8.49737 
42 1 9.20582 1.56417 9.20601 
7 1 6.18627 6.18465 4.60357 
8 1 7.68816 7.68815 3.07995 
9 1 6.98281 6.98293 3.79439 
43 1 10.0365 10.0374 0.739038 
44 1 8.49771 8.49826 2.26924 
45 1 9.20613 9.20683 1.5648 
22 1 6.23827 6.23875 6.23918 
23 1 7.77548 7.77653 7.77592 
24 1 7.06844 7.06906 7.06932 
34 1 10.0989 10.099 10.0981 
35 1 8.587 8.58672 8.58668 
36 1 9.29464 9.29546 9.29436 
ITEM: TIMESTEP
30
ITEM: NUMBER OF ATOMS
49
ITEM: BOX BOUNDS pp pp pp
0.0000000000000000e+00 1.1000000000000000e+01
0.0000000000000000e+00 1.1002000000000001e+01
0.0000000000000000e+00 1.1000000000000000e+01
ITEM: ATOMS id type x y z 
10 1 4.64603 4.65376 4.61803 
11 1 3.0877 3.11148 2.91757 
12 1 3.74225 3.72529 3.86998 
46 1 0.727861 0.728723 0.734247 
47 1 2.26839 2.27338 2.24261 
48 1 1.55103 1.54779 1.54254 
49 2 3.43 3.23293 4.81887 
19 1 4.542 4.54234 6.24147 
20 1 3.0006 3.00046 7.77578 
21 1 3.70861 3.70851 7.06769 
31 1 0.666534 0.665842 10.0808 
32 1 2.1886 2.18841 8.58755 
33 1 1.47822 1.47786 9.29058 
16 1 4.53972 6.24713 4.5325 
17 1 2.99659 7.78014 2.9977 
18 1 3.70445 7.0714 3.70199 
25 1 0.66626 10.0815 0.665813 
26 1 2.18689 8.58993 2.18727 
27 1 1.47551 9.29419 1.47617 
4 1 4.606 6.1785 6.18894 
5 1 3.08292 7.68839 7.68875 
6 1 3.7925 6.97989 6.98039 
37 1 0.73663 10.0332 10.0301 
38 1 2.27061 8.49542 8.49469 
39 1 1.56849 9.20529 9.20395 
13 1 6.24586 4.5398 4.53389 
14 1 7.77824 2.99725 2.99842 
15 1 7.07111 3.70379 3.70232 
28 1 10.0819 0.666711 0.667483 
29 1 8.59145 2.18722 2.18858 
30 1 9.28996 1.47417 1.47483 
1 1 6.17952 4.60325 6.18545 
2 1 7.6888 3.08103 7.68659 
3 1 6.9791 3.79591 6.98378 
40 1 10.0329 0.737126 10.0316 
41 1 8.49636 2.27116 8.49622 
42 1 9.20292 1.5644 9.20276 
7 1 6.18787 6.18553 4.60626 
8 1 7.68752 7.68786 3.0795 
9 1 6.98471 6.98367 3.79751 
43 1 10.0295 10.0326 0.736178 
44 1 8.49399 8.49598 2.27101 
45 1 9.20644 9.2048 1.56673 
22 1 6.24265 6.24339 6.24356 
23 1 7.77742 7.77844 7.77861 
24 1 7.0705 7.07094 7.07005 
34 1 10.0986 10.0994 10.0977 
35 1 8.58804 8.58813 8.58743 
36 1 9.29627 9.29659 9.29662 
ITEM: TIMESTEP
40
ITEM: NUMBER OF ATOMS
49
ITEM: BOX BOUNDS pp pp pp
0.0000000000000000e+00 1.1000000000000000e+01
0.0000000000000000e+00 1.1002000000000001e+01
0.0000000000000000e+00 1.1000000000000000e+01
ITEM: ATOMS id type x y z 
10 1 4.64216 4.64964 4.61288 
11 1 3.09285 3.11868 2.91147 
12 1 3.73864 3.71881 3.88627 
46 1 0.727547 0.726125 0.733392 
47 1 2.27305 2.27747 2.23531 
48 1 1.5512 1.55188 1.54045 
49 2 3.42845 3.22813 4.83403 
19 1 4.54334 4.5438 6.23777 
20 1 3.00149 3.00133 7.7751 
21 1 3.70763 3.70761 7.06869 
31 1 0.667691 0.666958 10.0817 
32 1 2.18883 2.18868 8.58854 
33 1 1.47725 1.47678 9.28816 
16 1 4.54022 6.24371 4.53226 
17 1 2.99484 7.78007 2.99607 
18 1 3.70486 7.07456 3.7018 
25 1 0.666536 10.084 0.667282 
26 1 2.18577 8.59331 2.18797 
27 1 1.47454 9.28966 1.47209 
4 1 4.60734 6.17893 6.18921 
5 1 3.0839 7.68755 7.68707 
6 1 3.79348 6.97859 6.98132 
37 1 0.738091 10.034 10.0303 
38 1 2.27218 8.4962 8.49577 
39 1 1.56492 9.20462 9.20226 
13 1 6.24199 4.54021 4.53387 
14 1 7.77857 2.99543 2.99693 
15 1 7.07278 3.70501 3.70268 
28 1 10.0819 0.666546 0.666744 
29 1 8.5914 2.18644 2.18758 
30 1 9.29033 1.47405 1.47531 
1 1 6.17841 4.6045 6.1866 
2 1 7.68647 3.08207 7.6864 
3 1 6.98106 3.79665 6.98221 
40 1 10.0328 0.736721 10.0307 
41 1 8.49549 2.27107 8.49574 
42 1 9.20421 1.56472 9.20293 
7 1 6.18939 6.18641 4.60826 
8 1 7.68679 7.68711 3.08016 
9 1 6.98464 6.9836 3.79876 
43 1 10.0307 10.0319 0.737399 
44 1 8.49664 8.4966 2.27229 
45 1 9.20189 9.20396 1.56348 
22 1 6.24278 6.24302 6.24279 
23 1 7.77741 7.77816 7.77762 
24 1 7.0706 7.07142 7.07196 
34 1 10.0985 10.0993 10.0981 
35 1 8.588 8.58802 8.58849 
36 1 9.29646 9.29707 9.2948 
ITEM: TIMESTEP
50
ITEM: NUMBER OF ATOMS
49
ITEM: BOX BOUNDS pp pp pp
0.0000000000000000e+00 1.1000000000000000e+01
0.0000000000000000e+00 1.1002000000000001e+01
0.0000000000000000e+00 1.1000000000000000e+01
ITEM: ATOMS id type x y z 
10 1 4.63031 4.63777 4.59678 
11 1 3.11479 3.14806 2.88731 
12 1 3.7055 3.67236 3.94705 
46 1 0.728647 0.728973 0.736048 
47 1 2.29479 2.30916 2.19215 
48 1 1.5625 1.56622 1.52564 
49 2 3.42172 3.20289 4.91907 
19 1 4.54212 4.54312 6.2265 
20 1 3.00293 3.00294 7.77525 
21 1 3.7078 3.70826 7.06605 
31 1 0.666381 0.666475 10.083 
32 1 2.18745 2.1867 8.58076 
33 1 1.48365 1.48396 9.29617 
16 1 4.53845 6.2327 4.52638 
17 1 2.99315 7.78055 2.99742 
18 1 3.70722 7.07655 3.69948 
25 1 0.66443 10.0884 0.65952 
26 1 2.18607 8.58807 2.18409 
27 1 1.4731 9.29249 1.47806 
4 1 4.60746 6.1755 6.17918 
5 1 3.08177 7.68729 7.68803 
6 1 3.79305 6.98015 6.98321 
37 1 0.738521 10.036 10.0259 
38 1 2.27463 8.49507 8.49408 
39 1 1.56747 9.20343 9.20019 
13 1 6.23097 4.53893 4.53026 
14 1 7.78005 2.99647 3.00046 
15 1 7.06841 3.70593 3.69809 
28 1 10.0884 0.665642 0.664283 
29 1 8.59114 2.18585 2.18546 
30 1 9.28821 1.47041 1.47509 
1 1 6.17751 4.60968 6.18515 
2 1 7.68493 3.0888 7.69211 
3 1 6.98074 3.78774 6.97068 
40 1 10.0345 0.73937 10.0286 
41 1 8.49496 2.27265 8.49487 
42 1 9.20279 1.56353 9.20006 
7 1 6.18867 6.18265 4.61055 
8 1 7.68845 7.68585 3.08261 
9 1 6.9836 6.98585 3.80163 
43 1 10.0267 10.0318 0.732359 
44 1 8.49483 8.4953 2.27176 
45 1 9.20003 9.20278 1.56308 
22 1 6.24779 6.24509 6.24615 
23 1 7.77865 7.77924 7.78057 
24 1 7.07256 7.07281 7.07098 
34 1 10.0985 10.1002 10.0995 
35 1 8.5901 8.58972 8.59186 
36 1 9.29959 9.30167 9.29551 
ITEM: TIMESTEP
60
ITEM: NUMBER OF ATOMS
49
ITEM: BOX BOUNDS pp pp pp
0.0000000000000000e+00 1.1000000000000000e+01
0.0000000000000000e+00 1.1002000000000001e+01
0.0000000000000000e+00 1.1000000000000000e+01
ITEM: ATOMS id type x y z 
10 1 4.62647 4.63501 4.59759 
11 1 3.11627 3.15044 2.8848 
12 1 3.69421 3.65715 3.96099 
46 1 0.729865 0.72825 0.736283 
47 1 2.30242 2.31986 2.17807 
48 1 1.5672 1.5729 1.5205 
49 2 3.4219 3.19846 4.93717 
19 1 4.54202 4.5447 6.227 
20 1 3.00346 3.00318 7.77437 
21 1 3.70811 3.70918 7.06577 
31 1 0.66983 0.669606 10.0886 
32 1 2.18934 2.189 8.58594 
33 1 1.47877 1.47846 9.28849 
16 1 4.53854 6.23067 4.52503 
17 1 2.99593 7.78213 2.99824 
18 1 3.70427 7.07157 3.69842 
25 1 0.666185 10.0893 0.663693 
26 1 2.18209 8.59129 2.18414 
27 1 1.47271 9.29226 1.47147 
4 1 4.60674 6.17893 6.18127 
5 1 3.08449 7.683 7.68602 
6 1 3.79769 6.97926 6.97834 
37 1 0.738869 10.038 10.0281 
38 1 2.27266 8.49614 8.49527 
39 1 1.56688 9.20523 9.20104 
13 1 6.22716 4.53766 4.52578 
14 1 7.77994 2.99674 2.99809 
15 1 7.06908 3.70361 3.70044 
28 1 10.0878 0.665975 0.66559 
29 1 8.58953 2.1836 2.18556 
30 1 9.29144 1.47378 1.47407 
1 1 6.17896 4.60662 6.17926 
2 1 7.68431 3.08503 7.68593 
3 1 6.97951 3.79697 6.9789 
40 1 10.0361 0.739038 10.0291 
41 1 8.49486 2.27125 8.4954 
42 1 9.20402 1.56567 9.20099 
7 1 6.18726 6.18405 4.61153 
8 1 7.68774 7.68624 3.08419 
9 1 6.98386 6.98352 3.80191 
43 1 10.0286 10.0315 0.733527 
44 1 8.49512 8.49567 2.27012 
45 1 9.20112 9.20387 1.5633 
22 1 6.24335 6.243 6.24285 
23 1 7.77874 7.77895 7.77983 
24 1 7.07241 7.07279 7.07219 
34 1 10.1011 10.1027 10.0986 
35 1 8.58924 8.58953 8.59046 
36 1 9.29774 9.29918 9.2948 
ITEM: TIMESTEP
70
ITEM: NUMBER OF ATOMS
49
ITEM: BOX BOUNDS pp pp pp
0.0000000000000000e+00 1.1000000000000000e+01
0.0000000000000000e+00 1.1002000000000001e+01
0.0000000000000000e+00 1.1000000000000000e+01
ITEM: ATOMS id type x y z 
10 1 4.62046 4.62839 4.59888 
11 1 3.11925 3.1543 2.88576 
12 1 3.68367 3.64203 3.98 
46 1 0.731764 0.730081 0.737952 
47 1 2.31257 2.33524 2.15639 
48 1 1.57351 1.58143 1.50931 
49 2 3.42046 3.18932 4.96548 
19 1 4.54219 4.54491 6.22721 
20 1 3.00385 3.00371 7.77478 
21 1 3.70796 3.70924 7.06559 
31 1 0.670807 0.667798 10.0876 
32 1 2.18887 2.1868 8.58247 
33 1 1.47993 1.48281 9.29471 
16 1 4.5349 6.22456 4.52008 
17 1 2.99663 7.78322 2.99835 
18 1 3.70212 7.06825 3.69627 
25 1 0.667137 10.0922 0.663514 
26 1 2.18235 8.59061 2.18415 
27 1 1.47272 9.29266 1.47245 
4 1 4.60775 6.18092 6.17671 
5 1 3.08358 7.6846 7.68599 
6 1 3.79833 6.97862 6.98029 
37 1 0.740327 10.0392 10.0289 
38 1 2.27218 8.49565 8.49516 
39 1 1.56619 9.20706 9.20168 
13 1 6.22219 4.53507 4.52348 
14 1 7.7814 2.99795 3.00026 
15 1 7.06308 3.70213 3.6964 
28 1 10.0915 0.668264 0.666208 
29 1 8.59055 2.18398 2.18519 
30 1 9.29018 1.47192 1.4741 
1 1 6.18015 4.60612 6.17734 
2 1 7.68324 3.08552 7.68543 
3 1 6.97979 3.79778 6.97785 
40 1 10.0381 0.741239 10.0309 
41 1 8.4951 2.27207 8.4955 
42 1 9.20327 1.56476 9.19996 
7 1 6.18518 6.18273 4.60972 
8 1 7.68819 7.68724 3.08531 
9 1 6.98401 6.98237 3.80103 
43 1 10.0305 10.0333 0.733826 
44 1 8.49586 8.49683 2.26896 
45 1 9.20055 9.20242 1.56375 
22 1 6.24327 6.24387 6.23966 
23 1 7.7778 7.77963 7.77777 
24 1 7.07161 7.06871 7.07383 
34 1 10.1007 10.1044 10.0983 
35 1 8.58746 8.59146 8.59276 
36 1 9.30287 9.29761 9.29173 
ITEM: TIMESTEP
80
ITEM: NUMBER OF ATOMS
49
ITEM: BOX BOUNDS pp pp pp
0.0000000000000000e+00 1.1000000000000000e+01
0.0000000000000000e+00 1.1002000000000001e+01
0.0000000000000000e+00 1.1000000000000000e+01
ITEM: ATOMS id type x y z 
10 1 4.61843 4.62619 4.59926 
11 1 3.11932 3.15451 2.88731 
12 1 3.6807 3.63763 3.98583 
46 1 0.732475 0.730749 0.738345 
47 1 2.31575 2.33975 2.14956 
48 1 1.57638 1.58545 1.50563 
49 2 3.4195 3.18589 4.97208 
19 1 4.54242 4.54557 6.22791 
20 1 3.00344 3.00336 7.77459 
21 1 3.70858 3.70979 7.06692 
31 1 0.671158 0.670952 10.0912 
32 1 2.1891 2.18877 8.58544 
33 1 1.47953 1.47936 9.28943 
16 1 4.53436 6.22267 4.51951 
17 1 2.99652 7.78322 2.99821 
18 1 3.70209 7.06717 3.69603 
25 1 0.666714 10.0925 0.664949 
26 1 2.18209 8.59049 2.18371 
27 1 1.47287 9.29358 1.47297 
4 1 4.60744 6.18165 6.17624 
5 1 3.08462 7.68346 7.68582 
6 1 3.79807 6.97967 6.97901 
37 1 0.740381 10.0393 10.0288 
38 1 2.27202 8.49586 8.49509 
39 1 1.56711 9.20588 9.20102 
13 1 6.21951 4.5343 4.52206 
14 1 7.78028 2.99749 2.99909 
15 1 7.06433 3.70242 3.69768 
28 1 10.0915 0.667065 0.666282 
29 1 8.58946 2.18339 2.18538 
30 1 9.29185 1.47367 1.47454 
1 1 6.18047 4.60646 6.17549 
2 1 7.6838 3.08532 7.68526 
3 1 6.97921 3.79793 6.97851 
40 1 10.0377 0.740409 10.0305 
41 1 8.49467 2.27099 8.49478 
42 1 9.20438 1.56653 9.20126 
7 1 6.18423 6.18197 4.60891 
8 1 7.68833 7.68736 3.08616 
9 1 6.98348 6.9819 3.79997 
43 1 10.0308 10.0337 0.733368 
44 1 8.4956 8.49654 2.26909 
45 1 9.20221 9.20404 1.56239 
22 1 6.24284 6.24209 6.23957 
23 1 7.7777 7.77805 7.77957 
24 1 7.07197 7.07181 7.07132 
34 1 10.103 10.1049 10.0979 
35 1 8.58928 8.59025 8.58995 
36 1 9.29836 9.29895 9.29521 
ITEM: TIMESTEP
90
ITEM: NUMBER OF ATOMS
49
ITEM: BOX BOUNDS pp pp pp
0.0000000000000000e+00 1.1000000000000000e+01
0.0000000000000000e+00 1.1002000000000001e+01
0.0000000000000000e+00 1.1000000000000000e+01
ITEM: ATOMS id type x y z 
10 1 4.61828 4.62593 4.59932 
11 1 3.11933 3.15452 2.88757 
12 1 3.68034 3.63709 3.98655 
46 1 0.732572 0.730842 0.73837 
47 1 2.31615 2.34034 2.14871 
48 1 1.57669 1.5859 1.50505 
49 2 3.41933 3.1854 4.97288 
19 1 4.54253 4.54568 6.22823 
20 1 3.00355 3.00342 7.77482 
21 1 3.70836 3.7097 7.06669 
31 1 0.671209 0.671049 10.0913 
32 1 2.18904 2.18881 8.58557 
33 1 1.47951 1.47916 9.28931 
16 1 4.5343 6.22243 4.51938 
17 1 2.99651 7.78318 2.99814 
18 1 3.70203 7.06711 3.69605 
25 1 0.666778 10.0926 0.664975 
26 1 2.18209 8.59054 2.18372 
27 1 1.47287 9.29357 1.47295 
4 1 4.60747 6.18171 6.17624 
5 1 3.08467 7.68333 7.68593 
6 1 3.79805 6.9799 6.97871 
37 1 0.740362 10.0393 10.0289 
38 1 2.27193 8.49581 8.4952 
39 1 1.56718 9.20604 9.20092 
13 1 6.2193 4.53423 4.52195 
14 1 7.78019 2.99751 2.9991 
15 1 7.06425 3.70244 3.69769 
28 1 10.0914 0.667051 0.666306 
29 1 8.58932 2.18327 2.18533 
30 1 9.29218 1.47388 1.47461 
1 1 6.18045 4.60649 6.17549 
2 1 7.68363 3.08534 7.68541 
3 1 6.97951 3.79791 6.97813 
40 1 10.0377 0.740356 10.0305 
41 1 8.49459 2.27086 8.49477 
42 1 9.20458 1.56674 9.20134 
7 1 6.18414 6.18185 4.60884 
8 1 7.68836 7.68741 3.08626 
9 1 6.9834 6.9818 3.79982 
43 1 10.0308 10.0337 0.733378 
44 1 8.49562 8.49655 2.26912 
45 1 9.20219 9.20402 1.56232 
22 1 6.24288 6.24216 6.23937 
23 1 7.77765 7.77799 7.7795 
24 1 7.07191 7.07177 7.07129 
34 1 10.1033 10.1049 10.0976 
35 1 8.58957 8.59021 8.58979 
36 1 9.2979 9.29913 9.2956 
ITEM: TIMESTEP
100
ITEM: NUMBER OF ATOMS
49
ITEM: BOX BOUNDS pp pp pp
0.0000000000000000e+00 1.1000000000000000e+01
0.0000000000000000e+00 1.1002000000000001e+01
0.0000000000000000e+00 1.1000000000000000e+01
ITEM: ATOMS id type x y z 
10 1 4.60284 4.60917 4.60971 
11 1 3.1175 3.15158 2.90781 
12 1 3.65828 3.60301 4.03781 
46 1 0.741039 0.739542 0.74003 
47 1 2.34544 2.38287 2.08795 
48 1 1.59929 1.62042 1.46239 
49 2 3.40454 3.1458 5.0289 
19 1 4.5452 4.55066 6.23641 
20 1 3.00286 3.00282 7.77906 
21 1 3.7083 3.71215 7.07276 
31 1 0.671915 0.671043 10.099 
32 1 2.18944 2.18877 8.58575 
33 1 1.48026 1.48072 9.29186 
16 1 4.52625 6.20638 4.51202 
17 1 2.99682 7.78079 2.9971 
18 1 3.69827 7.05812 3.69193 
25 1 0.669461 10.1015 0.667876 
26 1 2.18168 8.591 2.18455 
27 1 1.47505 9.29744 1.47309 
4 1 4.60918 6.18766 6.16778 
5 1 3.08452 7.68243 7.68573 
6 1 3.80015 6.98551 6.97437 
37 1 0.741308 10.041 10.0315 
38 1 2.26984 8.49638 8.49652 
39 1 1.56836 9.20755 9.20243 
13 1 6.20453 4.52674 4.51568 
14 1 7.77795 2.99754 2.99766 
15 1 7.05737 3.69921 3.69466 
28 1 10.0993 0.669295 0.668503 
29 1 8.58852 2.18308 2.18549 
30 1 9.29481 1.47553 1.47637 
1 1 6.18469 4.60838 6.16903 
2 1 7.68228 3.08422 7.68466 
3 1 6.98425 3.79943 6.97417 
40 1 10.0389 0.742013 10.0338 
41 1 8.49388 2.27102 8.49584 
42 1 9.20627 1.56845 9.20153 
7 1 6.17845 6.1753 4.60135 
8 1 7.69186 7.68808 3.08991 
9 1 6.97797 6.98098 3.79213 
43 1 10.0335 10.0372 0.732642 
44 1 8.49625 8.49804 2.26831 
45 1 9.20456 9.20479 1.56175 
22 1 6.24393 6.24413 6.22659 
23 1 7.77528 7.77495 7.7795 
24 1 7.07247 7.07297 7.06567 
34 1 10.1046 10.1074 10.0977 
35 1 8.58761 8.58957 8.59007 
36 1 9.29899 9.2984 9.29168 
ITEM: TIMESTEP
110
ITEM: NUMBER OF ATOMS
49
ITEM: BOX BOUNDS pp pp pp
0.0000000000000000e+00 1.1000000000000000e+01
0.0000000000000000e+00 1.1002000000000001e+01
0.0000000000000000e+00 1.1000000000000000e+01
ITEM: ATOMS id type x y z 
10 1 4.60228 4.60816 4.61103 
11 1 3.11719 3.15089 2.91044 
12 1 3.65721 3.60132 4.0399 
46 1 0.74107 0.740514 0.73919 
47 1 2.3464 2.38521 2.08506 
48 1 1.60085 1.62137 1.46054 
49 2 3.40281 3.14257 5.02992 
19 1 4.54537 4.55091 6.23709 
20 1 3.00355 3.00435 7.77809 
21 1 3.70956 3.71251 7.07343 
31 1 0.672202 0.672207 10.0984 
32 1 2.18854 2.18795 8.58644 
33 1 1.4802 1.48024 9.29289 
16 1 4.52548 6.20611 4.51175 
17 1 2.99627 7.78063 2.99632 
18 1 3.69769 7.05816 3.6917 
25 1 0.669475 10.1022 0.668239 
26 1 2.18196 8.59129 2.18373 
27 1 1.47458 9.29769 1.47461 
4 1 4.60978 6.18847 6.16773 
5 1 3.08533 7.68382 7.68525 
6 1 3.79862 6.9837 6.97479 
37 1 0.741454 10.0413 10.0321 
38 1 2.27106 8.49623 8.49599 
39 1 1.56746 9.2065 9.20246 
13 1 6.20475 4.52604 4.51614 
14 1 7.77783 2.99762 2.9977 
15 1 7.05627 3.69878 3.69429 
28 1 10.0999 0.669339 0.668954 
29 1 8.58905 2.18312 2.18509 
30 1 9.29495 1.47485 1.47644 
1 1 6.18547 4.60907 6.16848 
2 1 7.68351 3.08515 7.68373 
3 1 6.98173 3.79833 6.9748 
40 1 10.0392 0.741925 10.0338 
41 1 8.49475 2.27101 8.49572 
42 1 9.20534 1.56806 9.20261 
7 1 6.17637 6.17525 4.59839 
8 1 7.68992 7.6885 3.08789 
9 1 6.98146 6.98007 3.79495 
43 1 10.0347 10.0376 0.73248 
44 1 8.49757 8.49852 2.26766 
45 1 9.20433 9.20601 1.56163 
22 1 6.24428 6.24454 6.22588 
23 1 7.77518 7.77527 7.77895 
24 1 7.07205 7.0719 7.06552 
34 1 10.1049 10.1072 10.0972 
35 1 8.58901 8.58967 8.58911 
36 1 9.29717 9.29896 9.29439 
ITEM: TIMESTEP
120
ITEM: NUMBER OF ATOMS
49
ITEM: BOX BOUNDS pp pp pp
0.0000000000000000e+00 1.1000000000000000e+01
0.0000000000000000e+00 1.1002000000000001e+01
0.0000000000000000e+00 1.1000000000000000e+01
ITEM: ATOMS id type x y z 
10 1 4.60217 4.60801 4.61114 
11 1 3.11709 3.15073 2.91094 
12 1 3.65697 3.60091 4.04056 
46 1 0.741121 0.740629 0.739111 
47 1 2.3466 2.38557 2.08453 
48 1 1.60123 1.62189 1.45982 
49 2 3.4024 3.1418 5.03014 
19 1 4.54556 4.55108 6.23747 
20 1 3.00363 3.00448 7.77841 
21 1 3.7095 3.71249 7.0732 
31 1 0.672262 0.672263 10.0983 
32 1 2.18843 2.18798 8.58665 
33 1 1.48015 1.47988 9.2928 
16 1 4.52536 6.20598 4.51181 
17 1 2.99611 7.78052 2.99627 
18 1 3.69776 7.05812 3.69157 
25 1 0.669714 10.1023 0.668072 
26 1 2.18192 8.59123 2.18363 
27 1 1.47465 9.29802 1.47476 
4 1 4.60969 6.18855 6.16765 
5 1 3.08523 7.68379 7.68509 
6 1 3.79891 6.98384 6.97486 
37 1 0.741285 10.0413 10.0323 
38 1 2.2709 8.49622 8.49611 
39 1 1.56752 9.20677 9.20257 
13 1 6.20469 4.52599 4.5162 
14 1 7.77773 2.99758 2.99765 
15 1 7.05614 3.69871 3.69425 
28 1 10.0999 0.669476 0.669085 
29 1 8.58895 2.18287 2.18509 
30 1 9.29541 1.47525 1.47633 
1 1 6.18537 4.60908 6.16856 
2 1 7.6833 3.08512 7.68379 
3 1 6.98212 3.79851 6.9745 
40 1 10.0393 0.741942 10.0338 
41 1 8.49498 2.271 8.49568 
42 1 9.2051 1.56792 9.20293 
7 1 6.17632 6.1751 4.59814 
8 1 7.68991 7.68842 3.08788 
9 1 6.98132 6.98009 3.79487 
43 1 10.0348 10.0376 0.732509 
44 1 8.49755 8.49841 2.26769 
45 1 9.20431 9.20614 1.56177 
22 1 6.24432 6.24452 6.22565 
23 1 7.77509 7.77506 7.77879 
24 1 7.07197 7.07203 7.06539 
34 1 10.1048 10.1071 10.0972 
35 1 8.58892 8.58973 8.58936 
36 1 9.2975 9.29903 9.29414 
ITEM: TIMESTEP
130
ITEM: NUMBER OF ATOMS
49
ITEM: BOX BOUNDS pp pp pp
0.0000000000000000e+00 1.1000000000000000e+01
0.0000000000000000e+00 1.1002000000000001e+01
0.0000000000000000e+00 1.1000000000000000e+01
ITEM: ATOMS id type x y z 
10 1 4.60213 4.60796 4.61119 
11 1 3.11705 3.15067 2.91109 
12 1 3.65691 3.60078 4.04077 
46 1 0.74116 0.740701 0.73903 
47 1 2.3467 2.38573 2.08429 
48 1 1.6013 1.62199 1.45973 
49 2 3.40226 3.14155 5.03022 
19 1 4.54561 4.55113 6.23757 
20 1 3.00366 3.00452 7.7785 
21 1 3.70948 3.71248 7.07314 
31 1 0.672282 0.672272 10.0983 
32 1 2.18841 2.18795 8.58667 
33 1 1.48013 1.47987 9.29283 
16 1 4.52534 6.20594 4.51181 
17 1 2.99611 7.78048 2.99624 
18 1 3.69771 7.05809 3.69157 
25 1 0.669757 10.1024 0.668085 
26 1 2.18193 8.59126 2.18362 
27 1 1.47464 9.29804 1.47477 
4 1 4.60972 6.18857 6.16767 
5 1 3.08527 7.68379 7.6851 
6 1 3.79886 6.98386 6.97478 
37 1 0.741276 10.0413 10.0324 
38 1 2.2709 8.49624 8.49612 
39 1 1.56749 9.20675 9.20259 
13 1 6.20466 4.52597 4.51621 
14 1 7.7777 2.99756 2.99764 
15 1 7.05611 3.69868 3.69423 
28 1 10.0999 0.669519 0.669126 
29 1 8.58898 2.18285 2.1851 
30 1 9.29544 1.47527 1.47629 
1 1 6.18539 4.6091 6.16855 
2 1 7.68331 3.08513 7.68377 
3 1 6.98212 3.79852 6.97449 
40 1 10.0393 0.74194 10.0338 
41 1 8.49501 2.27099 8.4957 
42 1 9.20511 1.5679 9.20295 
7 1 6.17627 6.17509 4.59806 
8 1 7.68989 7.68844 3.08789 
9 1 6.98133 6.98002 3.79483 
43 1 10.0348 10.0376 0.732505 
44 1 8.49755 8.49842 2.26767 
45 1 9.20438 9.20615 1.56181 
22 1 6.24432 6.24453 6.22558 
23 1 7.77508 7.77504 7.77876 
24 1 7.07196 7.07204 7.06535 
34 1 10.1048 10.1071 10.0971 
35 1 8.58893 8.58975 8.58937 
36 1 9.29751 9.29903 9.29417 
ITEM: TIMESTEP
132
ITEM: NUMBER OF ATOMS
49
ITEM: BOX BOUNDS pp pp pp
0.0000000000000000e+00 1.1000000000000000e+01
0.0000000000000000e+00 1.1002000000000001e+01
0.0000000000000000e+00 1.1000000000000000e+01
ITEM: ATOMS id type x y z 
10 1 4.60213 4.60796 4.6112 
11 1 3.11705 3.15067 2.9111 
12 1 3.6569 3.60078 4.04078 
46 1 0.74116 0.740704 0.73903 
47 1 2.3467 2.38573 2.08428 
48 1 1.6013 1.622 1.45972 
49 2 3.40226 3.14154 5.03022 
19 1 4.54561 4.55113 6.23757 
20 1 3.00366 3.00452 7.7785 
21 1 3.70949 3.71248 7.07314 
31 1 0.672283 0.672273 10.0983 
32 1 2.18841 2.18794 8.58667 
33 1 1.48013 1.47988 9.29284 
16 1 4.52534 6.20593 4.51181 
17 1 2.99611 7.78048 2.99624 
18 1 3.69771 7.05809 3.69157 
25 1 0.669753 10.1024 0.668089 
26 1 2.18192 8.59126 2.18362 
27 1 1.47465 9.29805 1.47476 
4 1 4.60972 6.18857 6.16767 
5 1 3.08527 7.68379 7.6851 
6 1 3.79886 6.98386 6.97478 
37 1 0.741277 10.0413 10.0324 
38 1 2.27091 8.49625 8.49612 
39 1 1.56748 9.20675 9.20259 
13 1 6.20466 4.52597 4.51621 
14 1 7.7777 2.99756 2.99764 
15 1 7.05611 3.69867 3.69422 
28 1 10.0999 0.669519 0.669128 
29 1 8.58898 2.18285 2.1851 
30 1 9.29544 1.47528 1.47629 
1 1 6.18539 4.60911 6.16855 
2 1 7.68331 3.08513 7.68377 
3 1 6.98212 3.79851 6.97448 
40 1 10.0393 0.741939 10.0338 
41 1 8.49501 2.27099 8.4957 
42 1 9.20511 1.5679 9.20295 
7 1 6.17627 6.17509 4.59805 
8 1 7.68988 7.68844 3.08789 
9 1 6.98133 6.98001 3.79483 
43 1 10.0348 10.0376 0.732506 
44 1 8.49755 8.49842 2.26767 
45 1 9.20438 9.20615 1.56181 
22 1 6.24432 6.24453 6.22558 
23 1 7.77508 7.77504 7.77876 
24 1 7.07196 7.07204 7.06534 
34 1 10.1048 10.1071 10.0971 
35 1 8.58893 8.58975 8.58937 
36 1 9.29752 9.29903 9.29418 
ITEM: TIMESTEP
137
ITEM: NUMBER OF ATOMS
49
ITEM: BOX BOUNDS pp pp pp
0.0000000000000000e+00 1.1000000000000000e+01
0.0000000000000000e+00 1.1002000000000001e+01
0.0000000000000000e+00 1.1000000000000000e+01
ITEM: ATOMS id type x y z 
10 1 4.60212 4.60796 4.6112 
11 1 3.11705 3.15067 2.9111 
12 1 3.6569 3.60077 4.04078 
46 1 0.741162 0.740705 0.739027 
47 1 2.3467 2.38574 2.08427 
48 1 1.6013 1.622 1.45972 
49 2 3.40225 3.14153 5.03022 
19 1 4.54562 4.55113 6.23757 
20 1 3.00366 3.00452 7.7785 
21 1 3.70948 3.71248 7.07314 
31 1 0.672284 0.672275 10.0983 
32 1 2.18841 2.18794 8.58667 
33 1 1.48013 1.47987 9.29283 
16 1 4.52534 6.20593 4.51181 
17 1 2.99611 7.78048 2.99624 
18 1 3.69771 7.05809 3.69157 
25 1 0.669757 10.1024 0.668088 
26 1 2.18192 8.59126 2.18362 
27 1 1.47464 9.29805 1.47476 
4 1 4.60971 6.18857 6.16767 
5 1 3.08527 7.68379 7.6851 
6 1 3.79887 6.98387 6.97478 
37 1 0.741275 10.0413 10.0324 
38 1 2.2709 8.49624 8.49612 
39 1 1.56748 9.20675 9.2026 
13 1 6.20466 4.52597 4.51621 
14 1 7.77769 2.99756 2.99763 
15 1 7.05611 3.69867 3.69423 
28 1 10.0999 0.669521 0.669129 
29 1 8.58898 2.18285 2.1851 
30 1 9.29544 1.47528 1.47629 
1 1 6.18539 4.6091 6.16855 
2 1 7.68331 3.08513 7.68377 
3 1 6.98213 3.79851 6.97448 
40 1 10.0393 0.741939 10.0338 
41 1 8.49501 2.27099 8.4957 
42 1 9.20511 1.5679 9.20295 
7 1 6.17627 6.17509 4.59805 
8 1 7.68988 7.68844 3.08789 
9 1 6.98133 6.98001 3.79483 
43 1 10.0348 10.0376 0.732506 
44 1 8.49755 8.49843 2.26767 
45 1 9.20438 9.20615 1.56181 
22 1 6.24432 6.24453 6.22558 
23 1 7.77508 7.77504 7.77876 
24 1 7.07196 7.07204 7.06534 
34 1 10.1048 10.1071 10.0971 
35 1 8.58893 8.58975 8.58937 
36 1 9.29752 9.29904 9.29416 
ITEM: TIMESTEP
140
ITEM: NUMBER OF ATOMS
49
ITEM: BOX BOUNDS pp pp pp
-1.5399671822602017e-03 1.1001539967182261e+01
-1.5484450451490077e-03 1.1003548445045150e+01
-1.6500000000000000e-03 1.1001650000000001e+01
ITEM: ATOMS id type x y z 
10 1 4.60188 4.60771 4.61093 
11 1 3.11638 3.15 2.91033 
12 1 3.65638 3.60024 4.04035 
46 1 0.739829 0.739365 0.737595 
47 1 2.34582 2.38486 2.08324 
48 1 1.60021 1.62091 1.45851 
49 2 3.40167 3.14087 5.03008 
19 1 4.54535 4.55087 6.23779 
20 1 3.00296 3.00382 7.77918 
21 1 3.70899 3.71198 7.07361 
31 1 0.67093 0.670913 10.0996 
32 1 2.18748 2.18701 8.5876 
33 1 1.479 1.47874 9.29397 
16 1 4.52507 6.20613 4.51151 
17 1 2.99541 7.78112 2.99549 
18 1 3.69721 7.05852 3.69103 
25 1 0.668401 10.1037 0.666637 
26 1 2.18099 8.59213 2.18262 
27 1 1.47352 9.29912 1.47356 
4 1 4.60946 6.18876 6.16787 
5 1 3.08459 7.68441 7.68575 
6 1 3.7984 6.98429 6.97522 
37 1 0.739942 10.0426 10.0337 
38 1 2.27 8.49709 8.49702 
39 1 1.56638 9.2078 9.20371 
13 1 6.20485 4.5257 4.51592 
14 1 7.77833 2.99686 2.99688 
15 1 7.05655 3.69816 3.69369 
28 1 10.1012 0.668158 0.667677 
29 1 8.58984 2.18191 2.1841 
30 1 9.29651 1.47415 1.47509 
1 1 6.18558 4.60886 6.16875 
2 1 7.68392 3.08445 7.68442 
3 1 6.98254 3.79803 6.97492 
40 1 10.0406 0.740598 10.0352 
41 1 8.49585 2.27008 8.4966 
42 1 9.20614 1.56679 9.20407 
7 1 6.17645 6.17528 4.59778 
8 1 7.6905 7.68905 3.08716 
9 1 6.98175 6.98043 3.79431 
43 1 10.0361 10.0389 0.731074 
44 1 8.49839 8.49927 2.2667 
45 1 9.20542 9.2072 1.56062 
22 1 6.24453 6.24474 6.22579 
23 1 7.77571 7.77568 7.77944 
24 1 7.0724 7.07248 7.06581 
34 1 10.1061 10.1084 10.0985 
35 1 8.5898 8.59062 8.5903 
36 1 9.29858 9.3001 9.2953 
ITEM: TIMESTEP
150
ITEM: NUMBER OF ATOMS
49
ITEM: BOX BOUNDS pp pp pp
-2.2351258277033882e-03 1.1002235125827704e+01
-2.1841136307406378e-03 1.1004184113630741e+01
-7.1500000000000001e-03 1.1007150000000006e+01
ITEM: ATOMS id type x y z 
10 1 4.60214 4.60799 4.61048 
11 1 3.11604 3.14968 2.90782 
12 1 3.65618 3.60002 4.03904 
46 1 0.738995 0.738596 0.732491 
47 1 2.34526 2.38434 2.07956 
48 1 1.59963 1.62041 1.45427 
49 2 3.40136 3.1405 5.02965 
19 1 4.54554 4.55108 6.23814 
20 1 3.00282 3.00372 7.78132 
21 1 3.70901 3.71202 7.07495 
31 1 0.669964 0.670007 10.1046 
32 1 2.18695 2.18653 8.59081 
33 1 1.4786 1.47837 9.29764 
16 1 4.52524 6.2058 4.51083 
17 1 2.99525 7.78121 2.99314 
18 1 3.69717 7.05845 3.68941 
25 1 0.667441 10.1046 0.66146 
26 1 2.18047 8.5926 2.17921 
27 1 1.47313 9.29944 1.46963 
4 1 4.60972 6.18843 6.16819 
5 1 3.08439 7.68457 7.68782 
6 1 3.79807 6.98456 6.97681 
37 1 0.739039 10.0434 10.0386 
38 1 2.26944 8.49759 8.50018 
39 1 1.56568 9.20843 9.20762 
13 1 6.20455 4.52589 4.51524 
14 1 7.77844 2.99673 2.99453 
15 1 7.0565 3.69814 3.69208 
28 1 10.1022 0.667264 0.662494 
29 1 8.59035 2.18143 2.18068 
30 1 9.29688 1.47379 1.47118 
1 1 6.18526 4.60913 6.16906 
2 1 7.68411 3.08428 7.68649 
3 1 6.98283 3.79772 6.97652 
40 1 10.0414 0.739751 10.04 
41 1 8.4964 2.26954 8.49977 
42 1 9.20681 1.56613 9.20798 
7 1 6.17617 6.17498 4.59721 
8 1 7.69067 7.6892 3.08485 
9 1 6.98203 6.9807 3.79247 
43 1 10.037 10.0398 0.726021 
44 1 8.49894 8.49979 2.26331 
45 1 9.2061 9.20783 1.55649 