ITEM: TIMESTEP
0
ITEM: NUMBER OF ATOMS
201
ITEM: BOX BOUNDS pp pp pp
0.0000000000000000e+00 1.6114000000000001e+01
0.0000000000000000e+00 1.6113000000000000e+01
0.0000000000000000e+00 1.6111999999999998e+01
ITEM: ATOMS id type x y z 
5 1 5.384 5.384 5.384 
65 1 5.66 6.662 2.461 
66 1 5.336 7.323 3.711 
68 1 4.865 6.606 4.866 
79 1 5.364 7.322 1.219 
89 1 6.662 2.461 5.66 
90 1 7.323 3.711 5.336 
92 1 6.606 4.866 4.866 
101 1 7.322 1.219 5.364 
109 1 2.461 5.66 6.662 
110 1 3.71 5.336 7.323 
112 1 4.865 4.866 6.606 
121 1 1.218 5.364 7.322 
129 1 6.662 5.66 2.461 
130 1 7.323 5.336 3.711 
137 1 7.322 5.364 1.219 
141 1 2.461 6.662 5.66 
142 1 3.71 7.323 5.336 
149 1 1.218 7.322 5.364 
153 1 5.66 2.461 6.662 
154 1 5.336 3.711 7.323 
161 1 5.364 1.219 7.322 
7 1 6.662 5.66 13.616 
8 1 7.323 5.336 12.366 
10 1 6.606 4.866 11.211 
21 1 7.322 5.364 14.858 
32 1 1.218 7.322 10.713 
40 1 2.461 6.662 10.417 
41 1 3.71 7.323 10.741 
43 1 4.865 6.606 11.211 
47 1 5.364 1.219 8.755 
55 1 5.66 2.461 9.415 
56 1 5.336 3.711 8.754 
58 1 4.865 4.866 9.471 
64 1 5.629 6.643 16.094 
75 1 5.384 5.384 10.693 
118 1 6.643 5.629 16.094 
168 1 5.66 6.662 13.616 
169 1 5.336 7.323 12.366 
176 1 5.364 7.322 14.858 
182 1 7.322 1.219 10.713 
186 1 6.662 2.461 10.417 
187 1 7.323 3.711 10.741 
191 1 1.218 5.364 8.755 
195 1 2.461 5.66 9.415 
196 1 3.71 5.336 8.754 
9 1 7.322 10.713 1.219 
19 1 6.662 10.417 2.461 
20 1 7.323 10.741 3.711 
22 1 6.606 11.211 4.866 
27 1 1.218 8.755 5.364 
35 1 2.461 9.415 5.66 
36 1 3.71 8.754 5.336 
38 1 4.865 9.471 4.866 
44 1 6.643 16.095 5.63 
50 1 5.66 13.616 6.662 
51 1 5.336 12.366 7.323 
53 1 4.865 11.211 6.606 
62 1 5.364 14.858 7.322 
76 1 5.629 16.095 6.643 
81 1 5.384 10.693 5.384 
167 1 5.364 8.755 1.219 
171 1 5.66 9.415 2.461 
172 1 5.336 8.754 3.711 
180 1 6.662 13.616 5.66 
181 1 7.323 12.366 5.336 
188 1 7.322 14.858 5.364 
194 1 1.218 10.713 7.322 
198 1 2.461 10.417 6.662 
199 1 3.71 10.741 7.323 
17 1 5.384 10.693 10.693 
39 1 6.643 16.095 10.448 
49 1 5.629 9.434 16.095 
73 1 5.364 8.755 14.858 
82 1 5.629 16.095 9.434 
83 1 5.66 9.415 13.616 
84 1 5.336 8.754 12.366 
86 1 4.865 9.471 11.211 
91 1 7.322 14.858 10.713 
99 1 6.662 13.616 10.417 
100 1 7.323 12.366 10.741 
102 1 6.606 11.211 11.211 
113 1 6.643 10.448 16.094 
114 1 2.461 10.417 9.415 
115 1 3.71 10.741 8.754 
117 1 4.865 11.211 9.471 
126 1 1.218 10.713 8.755 
131 1 7.322 10.713 14.858 
135 1 6.662 10.417 13.616 
136 1 7.323 10.741 12.366 
144 1 2.461 9.415 10.417 
145 1 3.71 8.754 10.741 
152 1 1.218 8.755 10.713 
158 1 5.364 14.858 8.755 
162 1 5.66 13.616 9.415 
163 1 5.336 12.366 8.754 
3 1 8.755 5.364 1.219 
13 1 9.415 5.66 2.461 
14 1 8.754 5.336 3.711 
16 1 9.471 4.866 4.866 
24 1 16.095 5.629 6.643 
30 1 13.616 6.662 5.66 
31 1 12.367 7.323 5.336 
33 1 11.212 6.606 4.866 
42 1 14.859 7.322 5.364 
52 1 10.713 1.219 7.322 
60 1 10.417 2.461 6.662 
61 1 10.741 3.711 7.323 
63 1 11.212 4.866 6.606 
87 1 10.693 5.384 5.384 
98 1 16.095 6.643 5.63 
170 1 10.713 7.322 1.219 
174 1 10.417 6.662 2.461 
175 1 10.741 7.323 3.711 
179 1 8.755 1.219 5.364 
183 1 9.415 2.461 5.66 
184 1 8.754 3.711 5.336 
192 1 13.616 5.66 6.662 
193 1 12.367 5.336 7.323 
200 1 14.859 5.364 7.322 
6 1 16.096 5.629 9.434 
23 1 10.693 5.384 10.693 
59 1 10.448 6.643 16.095 
67 1 10.713 7.322 14.858 
77 1 10.417 6.662 13.616 
78 1 10.741 7.323 12.366 
80 1 11.212 6.606 11.211 
93 1 16.096 6.643 10.448 
94 1 9.415 2.461 10.417 
95 1 8.754 3.711 10.741 
97 1 9.471 4.866 11.211 
106 1 8.755 1.219 10.713 
116 1 14.859 5.364 8.755 
123 1 9.434 5.629 16.094 
124 1 13.616 5.66 9.415 
125 1 12.367 5.336 8.754 
127 1 11.212 4.866 9.471 
134 1 8.755 5.364 14.858 
138 1 9.415 5.66 13.616 
139 1 8.754 5.336 12.366 
143 1 14.859 7.322 10.713 
147 1 13.616 6.662 10.417 
148 1 12.367 7.323 10.741 
156 1 10.417 2.461 9.415 
157 1 10.741 3.711 8.754 
164 1 10.713 1.219 8.755 
11 1 10.693 10.693 5.384 
18 1 16.096 10.448 6.643 
29 1 9.434 16.095 5.63 
70 1 10.448 16.095 6.643 
71 1 10.417 9.415 2.461 
72 1 10.741 8.754 3.711 
74 1 11.212 9.471 4.866 
85 1 10.713 8.755 1.219 
96 1 8.755 14.858 5.364 
103 1 16.095 9.434 5.63 
104 1 9.415 13.616 5.66 
105 1 8.754 12.366 5.336 
107 1 9.471 11.211 4.866 
111 1 14.859 10.713 7.322 
119 1 13.616 10.417 6.662 
120 1 12.367 10.741 7.323 
122 1 11.212 11.211 6.606 
132 1 9.415 10.417 2.461 
133 1 8.754 10.741 3.711 
140 1 8.755 10.713 1.219 
146 1 14.859 8.755 5.364 
150 1 13.616 9.415 5.66 
151 1 12.367 8.754 5.336 
155 1 10.713 14.858 7.322 
159 1 10.417 13.616 6.662 
160 1 10.741 12.366 7.323 
1 1 9.415 10.417 13.616 
2 1 8.754 10.741 12.366 
4 1 9.471 11.211 11.211 
12 1 16.096 10.448 9.434 
15 1 8.755 10.713 14.858 
25 1 13.616 9.415 10.417 
26 1 12.367 8.754 10.741 
28 1 11.212 9.471 11.211 
34 1 9.434 16.095 10.448 
37 1 14.859 8.755 10.713 
45 1 10.417 13.616 9.415 
46 1 10.741 12.366 8.754 
48 1 11.212 11.211 9.471 
54 1 10.448 9.434 16.094 
57 1 10.713 14.858 8.755 
69 1 10.693 10.693 10.693 
88 1 10.448 16.095 9.434 
108 1 16.096 9.434 10.448 
128 1 9.434 10.448 16.094 
165 1 10.417 9.415 13.616 
166 1 10.741 8.754 12.366 
173 1 10.713 8.755 14.858 
177 1 9.415 13.616 10.417 
178 1 8.754 12.366 10.741 
185 1 8.755 14.858 10.713 
189 1 13.616 10.417 9.415 
190 1 12.367 10.741 8.754 
197 1 14.859 10.713 8.755 
201 2 8.754 12.091 12.366 
ITEM: TIMESTEP
10
ITEM: NUMBER OF ATOMS
201
ITEM: BOX BOUNDS pp pp pp
0.0000000000000000e+00 1.6114000000000001e+01
0.0000000000000000e+00 1.6113000000000000e+01
0.0000000000000000e+00 1.6111999999999998e+01
ITEM: ATOMS id type x y z 
5 1 5.34058 5.34243 5.34175 
65 1 5.57585 6.59731 2.42092 
66 1 5.38156 7.33061 3.69279 
68 1 4.87516 6.62388 4.87071 
79 1 5.2392 7.31241 1.1982 
89 1 6.58943 2.41851 5.57787 
90 1 7.32265 3.69464 5.38342 
92 1 6.62039 4.87581 4.87516 
101 1 7.30924 1.1982 5.23795 
109 1 2.42297 5.57654 6.59177 
110 1 3.69251 5.38278 7.32811 
112 1 4.875 4.8723 6.62204 
121 1 1.20094 5.23588 7.3082 
129 1 6.58969 5.57865 2.41807 
130 1 7.32276 5.38347 3.69424 
137 1 7.30897 5.2392 1.19756 
141 1 2.42325 6.59231 5.57635 
142 1 3.69323 7.32762 5.38196 
149 1 1.20125 7.3082 5.23623 
153 1 5.57589 2.42216 6.59496 
154 1 5.38261 3.69273 7.33062 
161 1 5.23783 1.20081 7.31258 
7 1 6.594 5.57964 13.6524 
8 1 7.32849 5.38061 12.3834 
10 1 6.62162 4.87313 11.2021 
21 1 7.31029 5.2405 14.8742 
32 1 1.20082 7.31032 10.8389 
40 1 2.42434 6.59525 10.501 
41 1 3.70148 7.33042 10.697 
43 1 4.87106 6.62557 11.203 
47 1 5.24127 1.19789 8.77201 
55 1 5.58239 2.42313 9.48628 
56 1 5.38228 3.69148 8.75336 
58 1 4.87709 4.87403 9.46057 
64 1 5.53548 6.56986 16.0917 
75 1 5.34516 5.34214 10.7349 
118 1 6.56343 5.53707 16.0921 
168 1 5.5813 6.59358 13.6608 
169 1 5.37999 7.33428 12.377 
176 1 5.24318 7.31989 14.8743 
182 1 7.30984 1.19486 10.8343 
186 1 6.59741 2.41942 10.4976 
187 1 7.32874 3.6932 10.6977 
191 1 1.20056 5.23676 8.76958 
195 1 2.42376 5.57737 9.4857 
196 1 3.69372 5.38224 8.7516 
9 1 7.31123 10.83 1.18994 
19 1 6.59576 10.4953 2.4159 
20 1 7.32444 10.6988 3.6942 
22 1 6.62599 11.2017 4.8687 
27 1 1.20099 8.77001 5.23679 
35 1 2.42371 9.48536 5.57729 
36 1 3.6919 8.75049 5.38273 
38 1 4.87698 9.45933 4.87326 
44 1 6.56463 16.0935 5.53496 
50 1 5.57686 13.655 6.59419 
51 1 5.38155 12.3755 7.33292 
53 1 4.87202 11.207 6.6298 
62 1 5.23972 14.8754 7.31637 
76 1 5.53345 16.0924 6.56688 
81 1 5.34644 10.7344 5.33857 
167 1 5.24372 8.77044 1.2002 
171 1 5.58318 9.48557 2.42142 
172 1 5.38323 8.75302 3.68708 
180 1 6.59482 13.654 5.57596 
181 1 7.32313 12.379 5.37953 
188 1 7.30931 14.8756 5.2386 
194 1 1.203 10.8395 7.31051 
198 1 2.42221 10.5002 6.59374 
199 1 3.69998 10.694 7.332 
17 1 5.38159 10.7392 10.7475 
39 1 6.57628 16.0779 10.5422 
49 1 5.54682 9.51513 16.0887 
73 1 5.25029 8.77924 14.8623 
82 1 5.54187 16.09 9.51461 
83 1 5.60295 9.49904 13.6388 
84 1 5.37051 8.76 12.3789 
86 1 4.88593 9.4818 11.2 
91 1 7.31085 14.8618 10.8278 
99 1 6.62287 13.6137 10.4924 
100 1 7.30451 12.3455 10.5974 
102 1 6.6868 11.2181 11.229 
113 1 6.57963 10.5376 16.0802 
114 1 2.43105 10.4985 9.48427 
115 1 3.70931 10.7035 8.76385 
117 1 4.88888 11.199 9.48751 
126 1 1.20479 10.8381 8.76965 
131 1 7.31498 10.833 14.846 
135 1 6.62792 10.4804 13.6226 
136 1 7.40399 10.5399 12.3671 
144 1 2.42983 9.48394 10.4984 
145 1 3.70387 8.75846 10.7012 
152 1 1.20438 8.76979 10.8377 
158 1 5.24821 14.8648 8.77749 
162 1 5.58475 13.6454 9.48341 
163 1 5.37513 12.3766 8.76171 
3 1 8.76855 5.23935 1.19988 
13 1 9.4878 5.57975 2.41764 
14 1 8.75547 5.38282 3.6952 
16 1 9.45564 4.87541 4.87456 
24 1 16.0954 5.53209 6.56357 
30 1 13.6534 6.59261 5.57612 
31 1 12.3836 7.32862 5.38161 
33 1 11.2023 6.62334 4.87188 
42 1 14.8755 7.30846 5.23633 
52 1 10.8391 1.19953 7.3118 
60 1 10.5 2.42216 6.59529 
61 1 10.6949 3.69249 7.33108 
63 1 11.2019 4.87166 6.62294 
87 1 10.7362 5.34234 5.34135 
98 1 16.0951 6.56359 5.53278 
170 1 10.8385 7.3137 1.19586 
174 1 10.4992 6.59539 2.42328 
175 1 10.6953 7.33293 3.6917 
179 1 8.77071 1.19843 5.2391 
183 1 9.48743 2.41764 5.57894 
184 1 8.75593 3.69481 5.38285 
192 1 13.6536 5.57647 6.59201 
193 1 12.384 5.38228 7.32916 
200 1 14.8758 5.23618 7.30974 
6 1 16.0944 5.53431 9.51474 
23 1 10.7328 5.34726 10.736 
59 1 10.5408 6.5723 16.0873 
67 1 10.8309 7.31665 14.8734 
77 1 10.4935 6.59777 13.6629 
78 1 10.6973 7.33129 12.3766 
80 1 11.203 6.61799 11.2042 
93 1 16.0949 6.56547 10.5441 
94 1 9.48051 2.42258 10.4977 
95 1 8.75137 3.6932 10.698 
97 1 9.45733 4.87419 11.2024 
106 1 8.76872 1.19332 10.8329 
116 1 14.8753 5.23767 8.77074 
123 1 9.51659 5.53918 16.0916 
124 1 13.6526 5.5804 9.48731 
125 1 12.382 5.38144 8.75381 
127 1 11.2002 4.87468 9.46168 
134 1 8.76826 5.24086 14.8732 
138 1 9.48685 5.5839 13.6517 
139 1 8.75142 5.38017 12.3804 
143 1 14.8725 7.30878 10.8381 
147 1 13.6583 6.59149 10.4978 
148 1 12.3725 7.32912 10.6978 
156 1 10.4954 2.42319 9.48628 
157 1 10.6959 3.69451 8.7539 
164 1 10.8361 1.20089 8.76818 
11 1 10.7302 10.7356 5.33729 
18 1 16.0962 10.5446 6.56444 
29 1 9.5135 16.0936 5.53693 
70 1 10.5419 16.092 6.56783 
71 1 10.4931 9.48639 2.42042 
72 1 10.6945 8.75056 3.68921 
74 1 11.1998 9.45589 4.87015 
85 1 10.8312 8.77175 1.19588 
96 1 8.76982 14.8749 5.23958 
103 1 16.0954 9.51326 5.5334 
104 1 9.48295 13.6559 5.57751 
105 1 8.75319 12.3798 5.38002 
107 1 9.45187 11.202 4.86903 
111 1 14.8769 10.8408 7.31051 
119 1 13.6533 10.5012 6.59291 
120 1 12.3749 10.6953 7.33075 
122 1 11.2069 11.2114 6.63457 
132 1 9.47867 10.4956 2.41345 
133 1 8.75195 10.697 3.69021 
140 1 8.76732 10.8317 1.19335 
146 1 14.876 8.76968 5.23677 
150 1 13.6525 9.48274 5.57492 
151 1 12.3865 8.74903 5.38279 
155 1 10.8364 14.8775 7.32203 
159 1 10.4992 13.6529 6.59718 
160 1 10.6959 12.3761 7.33693 
1 1 9.35985 10.399 13.6101 
2 1 8.60921 10.5118 12.3966 
4 1 9.42242 11.2534 11.4093 
12 1 16.0973 10.5417 9.5146 
15 1 8.76354 10.8269 14.8561 
25 1 13.6535 9.48689 10.4988 
26 1 12.3774 8.75549 10.6818 
28 1 11.1952 9.48332 11.1871 
34 1 9.5058 16.0856 10.5362 
37 1 14.8757 8.76696 10.8384 
45 1 10.4517 13.6439 9.49123 
46 1 10.7002 12.364 8.74968 
48 1 11.1836 11.1785 9.50563 
54 1 10.5344 9.50827 16.0963 
57 1 10.8294 14.8777 8.77077 
69 1 10.6796 10.7143 10.7206 
88 1 10.5359 16.0918 9.51175 
108 1 16.096 9.51362 10.5421 
128 1 9.50033 10.5408 16.0637 
165 1 10.4616 9.47993 13.6346 
166 1 10.6944 8.76153 12.3805 
173 1 10.8237 8.78313 14.8609 
177 1 9.41574 13.6286 10.4208 
178 1 8.71495 12.4994 10.8552 
185 1 8.76848 14.8519 10.8261 
189 1 13.6484 10.5022 9.48227 
190 1 12.3815 10.6927 8.75501 
197 1 14.8757 10.8394 8.76937 
201 2 8.99582 12.4739 12.3398 
ITEM: TIMESTEP
20
ITEM: NUMBER OF ATOMS
201
ITEM: BOX BOUNDS pp pp pp
0.0000000000000000e+00 1.6114000000000001e+01
0.0000000000000000e+00 1.6113000000000000e+01
0.0000000000000000e+00 1.6111999999999998e+01
ITEM: ATOMS id type x y z 
5 1 5.34748 5.34849 5.34803 
65 1 5.57844 6.5986 2.41819 
66 1 5.37638 7.32781 3.68908 
68 1 4.87132 6.62033 4.86971 
79 1 5.23535 7.3129 1.19602 
89 1 6.59494 2.41886 5.57903 
90 1 7.32466 3.69004 5.37761 
92 1 6.61982 4.87129 4.87088 
101 1 7.30948 1.19715 5.23495 
109 1 2.41996 5.57775 6.59584 
110 1 3.69042 5.37665 7.32619 
112 1 4.8709 4.87009 6.6201 
121 1 1.19814 5.23315 7.30976 
129 1 6.59512 5.57986 2.41837 
130 1 7.32463 5.37777 3.68956 
137 1 7.30954 5.23606 1.19669 
141 1 2.41997 6.59561 5.57783 
142 1 3.69062 7.32594 5.37631 
149 1 1.19817 7.30947 5.23335 
153 1 5.57786 2.41874 6.5981 
154 1 5.37669 3.68986 7.32733 
161 1 5.23495 1.19709 7.31247 
7 1 6.5962 5.58188 13.655 
8 1 7.32609 5.3749 12.3857 
10 1 6.61955 4.87026 11.2056 
21 1 7.31007 5.23679 14.8763 
32 1 1.19957 7.31071 10.8418 
40 1 2.42428 6.60028 10.4986 
41 1 3.69379 7.3314 10.7018 
43 1 4.87106 6.62114 11.2067 
47 1 5.23836 1.19513 8.77126 
55 1 5.58214 2.41846 9.48228 
56 1 5.3768 3.68973 8.75528 
58 1 4.87179 4.87096 9.46058 
64 1 5.53382 6.56936 16.0896 
75 1 5.34992 5.35138 10.7304 
118 1 6.56223 5.5358 16.0924 
168 1 5.58189 6.6022 13.6563 
169 1 5.37349 7.32971 12.3861 
176 1 5.24036 7.31992 14.8751 
182 1 7.31065 1.19222 10.8387 
186 1 6.60121 2.41668 10.4977 
187 1 7.32637 3.68957 10.7034 
191 1 1.19894 5.23434 8.76881 
195 1 2.42036 5.58005 9.48281 
196 1 3.69142 5.37638 8.75406 
9 1 7.31214 10.8356 1.18926 
19 1 6.60102 10.4973 2.4127 
20 1 7.32503 10.7025 3.68696 
22 1 6.61955 11.2046 4.86918 
27 1 1.19914 8.76867 5.23395 
35 1 2.4206 9.48284 5.57973 
36 1 3.69123 8.75379 5.37621 
38 1 4.87178 9.45953 4.87011 
44 1 6.56226 16.0939 5.53462 
50 1 5.57959 13.6542 6.60024 
51 1 5.37583 12.3844 7.33037 
53 1 4.87019 11.2062 6.62231 
62 1 5.2373 14.8759 7.31396 
76 1 5.53232 16.0925 6.56704 
81 1 5.34908 10.7302 5.35077 
167 1 5.24036 8.77171 1.19245 
171 1 5.58158 9.48184 2.41694 
172 1 5.37666 8.75535 3.68881 
180 1 6.59526 13.6558 5.58016 
181 1 7.32487 12.3853 5.37545 
188 1 7.3094 14.8773 5.2352 
194 1 1.20013 10.8422 7.3108 
198 1 2.42484 10.4985 6.60069 
199 1 3.69376 10.7001 7.33383 
17 1 5.40712 10.7383 10.7486 
39 1 6.57006 16.0824 10.5447 
49 1 5.54353 9.51378 16.0876 
73 1 5.24537 8.77717 14.8672 
82 1 5.53892 16.0907 9.51484 
83 1 5.6012 9.49125 13.6459 
84 1 5.36452 8.7563 12.3804 
86 1 4.88067 9.47912 11.2029 
91 1 7.29664 14.8546 10.8355 
99 1 6.61294 13.6262 10.477 
100 1 7.27826 12.3433 10.5814 
102 1 6.67405 11.2005 11.2276 
113 1 6.57392 10.5407 16.0811 
114 1 2.42783 10.4983 9.48019 
115 1 3.70756 10.7081 8.76463 
117 1 4.88397 11.2013 9.4869 
126 1 1.20295 10.8405 8.76976 
131 1 7.29766 10.8407 14.8524 
135 1 6.62043 10.4819 13.6375 
136 1 7.39015 10.5436 12.342 
144 1 2.42611 9.48064 10.4975 
145 1 3.70325 8.76101 10.7064 
152 1 1.20194 8.76953 10.8404 
158 1 5.24173 14.8733 8.77138 
162 1 5.58365 13.65 9.48392 
163 1 5.36896 12.3757 8.75888 
3 1 8.76818 5.23624 1.1968 
13 1 9.48181 5.57994 2.41858 
14 1 8.75267 5.3777 3.68966 
16 1 9.45758 4.87138 4.87099 
24 1 16.0952 5.53131 6.56304 
30 1 13.6568 6.59522 5.5782 
31 1 12.3862 7.3256 5.37612 
33 1 11.2053 6.61995 4.86986 
42 1 14.8785 7.3094 5.2334 
52 1 10.8429 1.19737 7.3106 
60 1 10.4987 2.4202 6.59827 
61 1 10.7011 3.69021 7.32814 
63 1 11.206 4.87004 6.62021 
87 1 10.7299 5.34815 5.34869 
98 1 16.0954 6.56251 5.53208 
170 1 10.8421 7.312 1.19623 
174 1 10.4983 6.59836 2.4186 
175 1 10.701 7.32726 3.68929 
179 1 8.76826 1.19737 5.23521 
183 1 9.4823 2.41899 5.57952 
184 1 8.75269 3.69016 5.37752 
192 1 13.6563 5.57796 6.5964 
193 1 12.3862 5.37586 7.32698 
200 1 14.8783 5.23357 7.31009 
6 1 16.0954 5.53269 9.51495 
23 1 10.7272 5.35253 10.7298 
59 1 10.5426 6.56935 16.0898 
67 1 10.8366 7.32018 14.8753 
77 1 10.4937 6.60406 13.6564 
78 1 10.7024 7.33196 12.384 
80 1 11.2069 6.6185 11.2076 
93 1 16.0956 6.56468 10.5453 
94 1 9.47812 2.41917 10.4974 
95 1 8.75217 3.6902 10.7032 
97 1 9.4591 4.87054 11.2054 
106 1 8.76782 1.19555 10.8379 
116 1 14.8777 5.23455 8.76901 
123 1 9.51527 5.5359 16.0924 
124 1 13.6558 5.5801 9.48242 
125 1 12.3846 5.37607 8.75405 
127 1 11.2052 4.87127 9.46151 
134 1 8.76867 5.23722 14.876 
138 1 9.48184 5.5833 13.6547 
139 1 8.7525 5.37561 12.3849 
143 1 14.8771 7.30972 10.8421 
147 1 13.6534 6.59897 10.4987 
148 1 12.3824 7.33109 10.7003 
156 1 10.4959 2.42025 9.48206 
157 1 10.7009 3.69167 8.75487 
164 1 10.8405 1.19968 8.76835 
11 1 10.7289 10.7309 5.35145 
18 1 16.0964 10.5457 6.56446 
29 1 9.51547 16.0934 5.53522 
70 1 10.5445 16.0925 6.56734 
71 1 10.4948 9.48212 2.41712 
72 1 10.7003 8.75472 3.68931 
74 1 11.2054 9.4591 4.87004 
85 1 10.8369 8.77014 1.19445 
96 1 8.76827 14.877 5.23552 
103 1 16.0955 9.51484 5.53276 
104 1 9.48321 13.6556 5.5826 
105 1 8.75265 12.3852 5.3753 
107 1 9.45674 11.205 4.86805 
111 1 14.8777 10.843 7.30962 
119 1 13.6539 10.4988 6.5991 
120 1 12.3831 10.6995 7.33356 
122 1 11.2063 11.2089 6.62283 
132 1 9.47569 10.4974 2.41334 
133 1 8.75232 10.7021 3.68626 
140 1 8.76785 10.8376 1.18697 
146 1 14.8784 8.76843 5.23372 
150 1 13.6565 9.48282 5.57929 
151 1 12.3853 8.75354 5.37578 
155 1 10.8396 14.8764 7.3188 
159 1 10.4963 13.6526 6.60486 
160 1 10.7017 12.3833 7.33807 
1 1 9.3533 10.3701 13.6347 
2 1 8.58903 10.4786 12.4188 
4 1 9.46776 11.2791 11.4344 
12 1 16.097 10.5445 9.51295 
15 1 8.75314 10.834 14.8716 
25 1 13.6538 9.48101 10.4976 
26 1 12.3872 8.75165 10.6866 
28 1 11.1984 9.47168 11.1844 
34 1 9.51194 16.0943 10.5374 
37 1 14.8773 8.7689 10.8411 
45 1 10.4599 13.6403 9.4629 
46 1 10.7072 12.3613 8.75253 
48 1 11.191 11.1854 9.48658 
54 1 10.5352 9.51384 16.0898 
57 1 10.8327 14.8803 8.76947 
69 1 10.687 10.7019 10.7181 
88 1 10.5421 16.0934 9.51051 
108 1 16.0965 9.51287 10.5444 
128 1 9.50697 10.5442 16.0791 
165 1 10.4692 9.46436 13.6381 
166 1 10.7069 8.74951 12.374 
173 1 10.8334 8.77715 14.87 
177 1 9.41237 13.6537 10.3954 
178 1 8.69501 12.5571 10.885 
185 1 8.76568 14.8741 10.8343 
189 1 13.6513 10.502 9.47847 
190 1 12.3799 10.6991 8.75704 
197 1 14.878 10.8419 8.76895 
201 2 9.04413 12.4629 12.3231 
ITEM: TIMESTEP
30
ITEM: NUMBER OF ATOMS
201
ITEM: BOX BOUNDS pp pp pp
0.0000000000000000e+00 1.6114000000000001e+01
0.0000000000000000e+00 1.6113000000000000e+01
0.0000000000000000e+00 1.6111999999999998e+01
ITEM: ATOMS id type x y z 
5 1 5.35548 5.35644 5.35627 
65 1 5.58188 6.60091 2.41511 
66 1 5.36795 7.32834 3.68583 
68 1 4.86756 6.61711 4.86611 
79 1 5.23119 7.31436 1.19335 
89 1 6.59771 2.41607 5.58266 
90 1 7.3253 3.68666 5.36904 
92 1 6.61654 4.86733 4.86705 
101 1 7.31002 1.19477 5.23102 
109 1 2.417 5.58143 6.59827 
110 1 3.68764 5.36792 7.32702 
112 1 4.86731 4.86639 6.617 
121 1 1.19573 5.22903 7.31023 
129 1 6.59746 5.58368 2.41547 
130 1 7.3252 5.36919 3.68648 
137 1 7.30933 5.23182 1.19441 
141 1 2.41678 6.59816 5.58143 
142 1 3.68749 7.32654 5.36779 
149 1 1.19567 7.31021 5.22943 
153 1 5.58158 2.41586 6.60038 
154 1 5.36793 3.68701 7.32815 
161 1 5.2305 1.19471 7.31218 
7 1 6.59808 5.5854 13.658 
8 1 7.32747 5.36684 12.3884 
10 1 6.6161 4.86661 11.2095 
21 1 7.3107 5.2322 14.8794 
32 1 1.19771 7.31092 10.8457 
40 1 2.42244 6.60463 10.495 
41 1 3.6912 7.33718 10.7111 
43 1 4.8665 6.62049 11.2107 
47 1 5.23426 1.19061 8.77217 
55 1 5.58474 2.41575 9.47976 
56 1 5.36862 3.68645 8.75383 
58 1 4.86779 4.86713 9.4636 
64 1 5.53201 6.56666 16.0903 
75 1 5.35701 5.35892 10.7214 
118 1 6.5597 5.53403 16.0922 
168 1 5.58533 6.60577 13.6567 
169 1 5.36226 7.33469 12.3886 
176 1 5.23543 7.32203 14.8768 
182 1 7.30959 1.19046 10.8443 
186 1 6.60352 2.41211 10.4957 
187 1 7.32627 3.68573 10.7118 
191 1 1.19615 5.2304 8.76909 
195 1 2.41784 5.58442 9.48091 
196 1 3.68817 5.3682 8.75277 
9 1 7.31137 10.8423 1.18879 
19 1 6.60267 10.4934 2.41137 
20 1 7.32574 10.7106 3.68192 
22 1 6.61625 11.2087 4.86497 
27 1 1.19639 8.76873 5.23036 
35 1 2.41756 9.48114 5.5844 
36 1 3.68758 8.75226 5.36823 
38 1 4.86801 9.46283 4.86629 
44 1 6.5608 16.0937 5.53179 
50 1 5.58288 13.6557 6.6046 
51 1 5.36499 12.3872 7.33168 
53 1 4.86617 11.2104 6.62221 
62 1 5.23293 14.8774 7.31001 
76 1 5.5303 16.0918 6.56435 
81 1 5.35678 10.7218 5.35789 
167 1 5.23626 8.77089 1.19073 
171 1 5.58495 9.47952 2.41234 
172 1 5.36853 8.75421 3.68458 
180 1 6.59756 13.6584 5.58399 
181 1 7.32668 12.3891 5.36743 
188 1 7.31093 14.8796 5.23133 
194 1 1.19813 10.846 7.31109 
198 1 2.42398 10.4947 6.60563 
199 1 3.69145 10.7098 7.34002 
17 1 5.4129 10.7249 10.7364 
39 1 6.56046 16.0865 10.549 
49 1 5.53841 9.51472 16.0855 
73 1 5.24029 8.77688 14.8682 
82 1 5.53505 16.0923 9.51621 
83 1 5.60081 9.47847 13.6504 
84 1 5.35693 8.75317 12.3892 
86 1 4.87815 9.47813 11.2083 
91 1 7.29395 14.8626 10.8474 
99 1 6.60281 13.6345 10.4662 
100 1 7.30401 12.3298 10.5914 
102 1 6.6786 11.2107 11.2079 
113 1 6.56556 10.5463 16.0838 
114 1 2.42697 10.4954 9.47716 
115 1 3.70257 10.7151 8.76492 
117 1 4.88045 11.2013 9.49172 
126 1 1.20128 10.8442 8.77042 
131 1 7.28653 10.8535 14.8622 
135 1 6.62585 10.4805 13.624 
136 1 7.39632 10.5368 12.3546 
144 1 2.42546 9.47729 10.4942 
145 1 3.69757 8.75994 10.7134 
152 1 1.20027 8.77009 10.844 
158 1 5.23196 14.8828 8.76763 
162 1 5.56699 13.6543 9.46626 
163 1 5.35896 12.379 8.75249 
3 1 8.76748 5.23158 1.19414 
13 1 9.47938 5.58316 2.41594 
14 1 8.75174 5.36919 3.68691 
16 1 9.46077 4.86716 4.86726 
24 1 16.0952 5.5294 6.56072 
30 1 13.6599 6.59807 5.58158 
31 1 12.3894 7.32681 5.36776 
33 1 11.2093 6.61678 4.86617 
42 1 14.8811 7.31032 5.22949 
52 1 10.8476 1.19486 7.3094 
60 1 10.4951 2.41746 6.59966 
61 1 10.7095 3.68718 7.32832 
63 1 11.2099 4.86686 6.61699 
87 1 10.7214 5.35644 5.35621 
98 1 16.0954 6.56064 5.52979 
170 1 10.8464 7.313 1.19419 
174 1 10.4957 6.601 2.41539 
175 1 10.7093 7.32827 3.68643 
179 1 8.7681 1.19443 5.23135 
183 1 9.47923 2.41595 5.58268 
184 1 8.75172 3.68716 5.36899 
192 1 13.6595 5.58148 6.59891 
193 1 12.3892 5.36733 7.32783 
200 1 14.8809 5.2294 7.31079 
6 1 16.0952 5.53102 9.51732 
23 1 10.7186 5.35849 10.7203 
59 1 10.5453 6.56574 16.0919 
67 1 10.8433 7.31745 14.8791 
77 1 10.4898 6.60433 13.6596 
78 1 10.7117 7.32651 12.3859 
80 1 11.21 6.61298 11.2071 
93 1 16.0955 6.56248 10.5471 
94 1 9.47842 2.41937 10.4946 
95 1 8.75161 3.68867 10.7117 
97 1 9.46294 4.86788 11.21 
106 1 8.76589 1.19801 10.8454 
116 1 14.8805 5.23064 8.76915 
123 1 9.51704 5.53299 16.0923 
124 1 13.6589 5.58355 9.47971 
125 1 12.3879 5.36766 8.75342 
127 1 11.2097 4.8681 9.46453 
134 1 8.76745 5.23232 14.8789 
138 1 9.47836 5.58552 13.6577 
139 1 8.75164 5.36725 12.3874 
143 1 14.8805 7.31018 10.8463 
147 1 13.6592 6.60009 10.4949 
148 1 12.3873 7.32796 10.7062 
156 1 10.4947 2.41771 9.47871 
157 1 10.7094 3.68992 8.75393 
164 1 10.8473 1.19986 8.76536 
11 1 10.7204 10.7222 5.35911 
18 1 16.096 10.5473 6.56223 
29 1 9.51721 16.093 5.53316 
70 1 10.5458 16.0941 6.56275 
71 1 10.4917 9.47913 2.41449 
72 1 10.7088 8.75488 3.68571 
74 1 11.2093 9.46333 4.86676 
85 1 10.8416 8.77045 1.19221 
96 1 8.76862 14.879 5.23239 
103 1 16.0955 9.51714 5.53111 
104 1 9.48089 13.6586 5.58786 
105 1 8.75243 12.3882 5.36693 
107 1 9.46089 11.2093 4.86461 
111 1 14.8801 10.8466 7.31001 
119 1 13.6577 10.4945 6.6022 
120 1 12.3868 10.7076 7.33495 
122 1 11.2103 11.206 6.61597 
132 1 9.4753 10.494 2.41182 
133 1 8.75177 10.7111 3.68369 
140 1 8.76765 10.8461 1.1901 
146 1 14.8807 8.76875 5.23028 
150 1 13.6596 9.48073 5.58402 
151 1 12.3886 8.75282 5.36744 
155 1 10.845 14.8797 7.31532 
159 1 10.49 13.6571 6.60631 
160 1 10.712 12.3842 7.33553 
1 1 9.3313 10.3265 13.651 
2 1 8.60259 10.4788 12.4172 
4 1 9.47438 11.292 11.4664 
12 1 16.0968 10.5465 9.51456 
15 1 8.74351 10.8271 14.878 
25 1 13.6596 9.47942 10.4939 
26 1 12.3902 8.75255 10.6943 
28 1 11.1952 9.46889 11.1759 
34 1 9.51902 16.1033 10.5404 
37 1 14.881 8.76836 10.8453 
45 1 10.4452 13.6441 9.44847 
46 1 10.7165 12.3603 8.75542 
48 1 11.1866 11.1785 9.49246 
54 1 10.5402 9.51774 16.0886 
57 1 10.8383 14.8816 8.76664 
69 1 10.6725 10.7053 10.7242 
88 1 10.5494 16.0947 9.51188 
108 1 16.0971 9.51531 10.5461 
128 1 9.51082 10.5514 16.0842 
165 1 10.4632 9.45224 13.6437 
166 1 10.7238 8.74982 12.3725 
173 1 10.8467 8.77413 14.8753 
177 1 9.38989 13.6676 10.3652 
178 1 8.68138 12.5892 10.899 
185 1 8.76241 14.8906 10.8349 
189 1 13.6542 10.5004 9.47555 
190 1 12.3813 10.7069 8.75858 
197 1 14.8811 10.8461 8.76789 
201 2 9.11056 12.466 12.3449 
ITEM: TIMESTEP
40
ITEM: NUMBER OF ATOMS
201
ITEM: BOX BOUNDS pp pp pp
0.0000000000000000e+00 1.6114000000000001e+01
0.0000000000000000e+00 1.6113000000000000e+01
0.0000000000000000e+00 1.6111999999999998e+01
ITEM: ATOMS id type x y z 
5 1 5.36091 5.36143 5.36122 
65 1 5.58402 6.60303 2.41316 
66 1 5.36108 7.32836 3.68272 
68 1 4.86505 6.61546 4.86382 
79 1 5.22815 7.3137 1.19114 
89 1 6.60009 2.41392 5.58506 
90 1 7.32512 3.68361 5.36203 
92 1 6.61465 4.8648 4.86461 
101 1 7.30922 1.19341 5.22819 
109 1 2.41488 5.58346 6.60093 
110 1 3.68457 5.36097 7.32704 
112 1 4.86505 4.86395 6.61544 
121 1 1.19393 5.22636 7.31048 
129 1 6.5998 5.5859 2.41363 
130 1 7.32544 5.36226 3.68345 
137 1 7.3088 5.22896 1.19265 
141 1 2.41491 6.6006 5.58358 
142 1 3.68447 7.32674 5.36091 
149 1 1.19391 7.31038 5.22664 
153 1 5.58408 2.41424 6.60237 
154 1 5.36096 3.68386 7.32797 
161 1 5.22727 1.19396 7.31062 
7 1 6.60035 5.58809 13.6597 
8 1 7.32637 5.35957 12.3905 
10 1 6.6132 4.86444 11.2116 
21 1 7.30941 5.22937 14.8806 
32 1 1.19643 7.31135 10.8486 
40 1 2.42143 6.60747 10.4922 
41 1 3.68852 7.33798 10.7183 
43 1 4.86471 6.61709 11.211 
47 1 5.23015 1.18976 8.77151 
55 1 5.58665 2.41541 9.47811 
56 1 5.36142 3.68454 8.75394 
58 1 4.86529 4.865 9.46558 
64 1 5.52988 6.56457 16.0898 
75 1 5.36262 5.36436 10.7166 
118 1 6.55753 5.53192 16.0921 
168 1 5.58845 6.60714 13.6584 
169 1 5.3535 7.33395 12.3917 
176 1 5.23198 7.32159 14.8782 
182 1 7.30822 1.18873 10.8492 
186 1 6.60514 2.41041 10.4944 
187 1 7.32574 3.68424 10.7196 
191 1 1.19523 5.22789 8.76937 
195 1 2.41612 5.58734 9.47857 
196 1 3.68551 5.36118 8.75332 
9 1 7.31045 10.8467 1.18587 
19 1 6.60474 10.492 2.40907 
20 1 7.32499 10.7181 3.67993 
22 1 6.61318 11.2113 4.86323 
27 1 1.19557 8.76947 5.22798 
35 1 2.41626 9.4789 5.5877 
36 1 3.68495 8.75283 5.36118 
38 1 4.86543 9.46488 4.86395 
44 1 6.5599 16.0938 5.52828 
50 1 5.58487 13.6569 6.60552 
51 1 5.35701 12.3883 7.33035 
53 1 4.86473 11.2101 6.61853 
62 1 5.22828 14.8804 7.30767 
76 1 5.52821 16.0926 6.56024 
81 1 5.36224 10.7162 5.36232 
167 1 5.23269 8.77071 1.18839 
171 1 5.58646 9.47727 2.41041 
172 1 5.36112 8.75439 3.68247 
180 1 6.60138 13.6601 5.58521 
181 1 7.32652 12.391 5.36006 
188 1 7.31025 14.881 5.22854 
194 1 1.19684 10.8486 7.31143 
198 1 2.42287 10.4918 6.60909 
199 1 3.68856 10.7169 7.34069 
17 1 5.41955 10.715 10.7297 
39 1 6.55741 16.0823 10.5564 
49 1 5.53525 9.51827 16.0848 
73 1 5.23594 8.77511 14.872 
82 1 5.53043 16.0925 9.51878 
83 1 5.60911 9.47966 13.6528 
84 1 5.34926 8.75282 12.3912 
86 1 4.87903 9.48017 11.2105 
91 1 7.28408 14.8596 10.8477 
99 1 6.60595 13.6352 10.4523 
100 1 7.30174 12.3479 10.599 
102 1 6.68669 11.2025 11.2088 
113 1 6.55844 10.5523 16.0881 
114 1 2.42386 10.4939 9.47629 
115 1 3.70075 10.721 8.76718 
117 1 4.88101 11.2021 9.49457 
126 1 1.19912 10.8473 8.76986 
131 1 7.27743 10.859 14.8597 
135 1 6.62141 10.478 13.6309 
136 1 7.39376 10.54 12.3417 
144 1 2.42395 9.47553 10.4928 
145 1 3.69637 8.76198 10.7206 
152 1 1.19843 8.76979 10.8471 
158 1 5.22455 14.8836 8.76863 
162 1 5.56832 13.6569 9.46418 
163 1 5.35038 12.3842 8.75598 
3 1 8.76724 5.2284 1.19341 
13 1 9.47718 5.58554 2.41409 
14 1 8.75167 5.36212 3.68409 
16 1 9.46286 4.86504 4.86466 
24 1 16.0954 5.52718 6.55894 
30 1 13.6618 6.60039 5.58424 
31 1 12.3923 7.32655 5.36063 
33 1 11.2118 6.61477 4.86418 
42 1 14.8825 7.30999 5.22679 
52 1 10.8516 1.19431 7.30836 
60 1 10.493 2.41639 6.6011 
61 1 10.7169 3.68506 7.32776 
63 1 11.2119 4.86506 6.61455 
87 1 10.7163 5.36171 5.36159 
98 1 16.0954 6.55874 5.52756 
170 1 10.8494 7.31312 1.19319 
174 1 10.4934 6.60291 2.41361 
175 1 10.7164 7.32788 3.68379 
179 1 8.76751 1.19335 5.22793 
183 1 9.47686 2.41446 5.58459 
184 1 8.75139 3.68451 5.36195 
192 1 13.6614 5.58412 6.60111 
193 1 12.3921 5.36011 7.32728 
200 1 14.8825 5.22662 7.31007 
6 1 16.0958 5.52844 9.51928 
23 1 10.7146 5.36478 10.7151 
59 1 10.5484 6.56253 16.093 
67 1 10.8487 7.31371 14.8805 
77 1 10.4879 6.60614 13.6612 
78 1 10.7209 7.32447 12.3873 
80 1 11.2132 6.61064 11.2072 
93 1 16.0964 6.56046 10.5497 
94 1 9.47852 2.42028 10.4922 
95 1 8.75014 3.68656 10.7183 
97 1 9.46436 4.8659 11.2126 
106 1 8.76617 1.1998 10.8506 
116 1 14.8826 5.2274 8.76888 
123 1 9.51853 5.5295 16.0925 
124 1 13.6611 5.58546 9.47769 
125 1 12.391 5.36084 8.75259 
127 1 11.2122 4.8657 9.46568 
134 1 8.76702 5.22868 14.8806 
138 1 9.47605 5.58768 13.6599 
139 1 8.75078 5.36062 12.3904 
143 1 14.8825 7.31025 10.8497 
147 1 13.6614 6.60232 10.4933 
148 1 12.3901 7.32868 10.7118 
156 1 10.4936 2.4161 9.47632 
157 1 10.7164 3.68719 8.75266 
164 1 10.8525 1.19921 8.76502 
11 1 10.7159 10.7171 5.36501 
18 1 16.0968 10.5498 6.56064 
29 1 9.51882 16.0931 5.5294 
70 1 10.5495 16.0948 6.55944 
71 1 10.4905 9.47687 2.4123 
72 1 10.7157 8.75416 3.68309 
74 1 11.2119 9.46523 4.86455 
85 1 10.8449 8.77206 1.1884 
96 1 8.76847 14.8799 5.22938 
103 1 16.0958 9.51922 5.52868 
104 1 9.47883 13.6597 5.59142 
105 1 8.75193 12.3914 5.36049 
107 1 9.46337 11.212 4.86268 
111 1 14.8821 10.8496 7.30979 
119 1 13.6585 10.4926 6.606 
120 1 12.3887 10.7142 7.33664 
122 1 11.2133 11.2071 6.61515 
132 1 9.47368 10.4933 2.41001 
133 1 8.7516 10.718 3.68129 
140 1 8.76751 10.8522 1.18922 
146 1 14.8824 8.76897 5.22751 
150 1 13.6612 9.4786 5.58667 
151 1 12.3916 8.75247 5.36075 
155 1 10.8494 14.8806 7.31302 
159 1 10.4881 13.6561 6.61061 
160 1 10.7212 12.3852 7.3364 
1 1 9.31675 10.3002 13.6645 
2 1 8.59596 10.4734 12.4217 
4 1 9.48833 11.3035 11.4766 
12 1 16.0967 10.549 9.51628 
15 1 8.73613 10.8165 14.8861 
25 1 13.6609 9.47748 10.4909 
26 1 12.3935 8.75036 10.6989 
28 1 11.1941 9.46583 11.1715 
34 1 9.52399 16.1097 10.5425 
37 1 14.8823 8.76949 10.848 
45 1 10.4311 13.6454 9.43595 
46 1 10.7235 12.3605 8.75225 