LAMMPS (3 Mar 2020)
# Alpha
clear
units		real
dimension 3
boundary        p p p
atom_style	charge
newton on
read_data       OOH_14.lmp
  triclinic box = (0 0 0) to (15.77 13.6581 25.747) with tilt (7.8845 0 0)
  2 by 2 by 2 MPI processor grid
  reading atoms ...
  131 atoms
  read_data CPU = 0.034056 secs

timestep 0.25

# ---------- Define Interatomic Potential ---------------------
pair_style      reax/c NULL checkqeq no
pair_coeff      * * ffield.reax C H O
fix             2 all qeq/reax 1 0.0 10.0 1.0e-6 reax/c

#------------ Equilibration of the system -------------------------
reset_timestep 0

dump 1 all custom 10 min.lammpstrj id type x y z

minimize 1.0e-8 1.0e-8 100000 100000
WARNING: Using 'neigh_modify every 1 delay 0 check yes' setting during minimization (../min.cpp:190)
WARNING: Total cutoff < 2*bond cutoff. May need to use an increased neighbor list skin. (../pair_reaxc.cpp:413)
Neighbor list info ...
  update every 1 steps, delay 0 steps, check yes
  max neighbors/atom: 2000, page size: 100000
  master list distance cutoff = 9.5
  ghost atom cutoff = 9.5
  binsize = 4.75, bins = 5 3 6
  2 neighbor lists, perpetual/occasional/extra = 2 0 0
  (1) pair reax/c, perpetual
      attributes: half, newton off, ghost
      pair build: half/bin/newtoff/ghost
      stencil: half/ghost/bin/3d/newtoff
      bin: standard
  (2) fix qeq/reax, perpetual, copy from (1)
      attributes: half, newton off, ghost
      pair build: copy
      stencil: none
      bin: none
Per MPI rank memory allocation (min/avg/max) = 16.41 | 16.95 | 17.55 Mbytes
Step Temp E_pair E_mol TotEng Press 
       0            0   -19615.875            0   -19615.875    58993.518 
     128            0   -22026.411            0   -22026.411    16942.871 
Loop time of 3.08875 on 8 procs for 128 steps with 131 atoms

99.4% CPU use with 8 MPI tasks x no OpenMP threads

Minimization stats:
  Stopping criterion = energy tolerance
  Energy initial, next-to-last, final = 
        -19615.8752464     -22026.4104917     -22026.4106643
  Force two-norm initial, final = 5091.76 239.78
  Force max component initial, final = 1210.94 62.2074
  Final line search alpha, max atom move = 0.000369954 0.0230139
  Iterations, force evaluations = 128 768

MPI task timing breakdown:
Section |  min time  |  avg time  |  max time  |%varavg| %total
---------------------------------------------------------------
Pair    | 1.9276     | 2.1676     | 2.3419     |  10.7 | 70.18
Neigh   | 0          | 0          | 0          |   0.0 |  0.00
Comm    | 0.014469   | 0.18929    | 0.42966    |  36.3 |  6.13
Output  | 0.00048966 | 0.00057436 | 0.00078707 |   0.0 |  0.02
Modify  | 0.72513    | 0.72559    | 0.72604    |   0.0 | 23.49
Other   |            | 0.00567    |            |       |  0.18

Nlocal:    16.375 ave 37 max 2 min
Histogram: 2 1 1 0 2 0 0 0 0 2
Nghost:    473.25 ave 516 max 423 min
Histogram: 2 1 1 0 0 0 0 0 0 4
Neighs:    1196.88 ave 2491 max 175 min
Histogram: 2 0 2 0 1 1 0 0 0 2

Total # of neighbors = 9575
Ave neighs/atom = 73.0916
Neighbor list builds = 0
Dangerous builds = 0

###
min_style cg
minimize 1.0e-8 1.0e-8 100000 100000
WARNING: Using 'neigh_modify every 1 delay 0 check yes' setting during minimization (../min.cpp:190)
WARNING: Total cutoff < 2*bond cutoff. May need to use an increased neighbor list skin. (../pair_reaxc.cpp:413)
Per MPI rank memory allocation (min/avg/max) = 16.41 | 16.95 | 17.55 Mbytes
Step Temp E_pair E_mol TotEng Press 
     128            0   -22026.411            0   -22026.411    16942.871 
     238            0   -22075.963            0   -22075.963    7148.5298 
Loop time of 2.98422 on 8 procs for 110 steps with 131 atoms

99.4% CPU use with 8 MPI tasks x no OpenMP threads

Minimization stats:
  Stopping criterion = energy tolerance
  Energy initial, next-to-last, final = 
        -22026.4106643     -22075.9632716     -22075.9633378
  Force two-norm initial, final = 239.78 164.783
  Force max component initial, final = 62.2074 41.4478
  Final line search alpha, max atom move = 7.5383e-05 0.00312446
  Iterations, force evaluations = 110 729

MPI task timing breakdown:
Section |  min time  |  avg time  |  max time  |%varavg| %total
---------------------------------------------------------------
Pair    | 1.8849     | 2.0964     | 2.2728     |   9.1 | 70.25
Neigh   | 0          | 0          | 0          |   0.0 |  0.00
Comm    | 0.013353   | 0.18935    | 0.40172    |  30.3 |  6.34
Output  | 0.00044146 | 0.00054617 | 0.00075002 |   0.0 |  0.02
Modify  | 0.69229    | 0.69241    | 0.69259    |   0.0 | 23.20
Other   |            | 0.005476   |            |       |  0.18

Nlocal:    16.375 ave 40 max 0 min
Histogram: 1 3 0 0 1 1 0 0 1 1
Nghost:    474.5 ave 522 max 418 min
Histogram: 1 2 1 0 0 0 0 0 0 4
Neighs:    1173.12 ave 2643 max 0 min
Histogram: 1 2 1 0 1 0 1 0 0 2

Total # of neighbors = 9385
Ave neighs/atom = 71.6412
Neighbor list builds = 0
Dangerous builds = 0

###
fix 1 all box/relax aniso 0.0
min_style cg
minimize 1.0e-8 1.0e-8 100000 100000
WARNING: Using 'neigh_modify every 1 delay 0 check yes' setting during minimization (../min.cpp:190)
WARNING: Total cutoff < 2*bond cutoff. May need to use an increased neighbor list skin. (../pair_reaxc.cpp:413)
Per MPI rank memory allocation (min/avg/max) = 16.41 | 16.95 | 17.55 Mbytes
Step Temp E_pair E_mol TotEng Press Volume 
     238            0   -22075.963            0   -22075.963    7148.5298    5545.5955 
     308            0   -22078.281            0   -22078.281   -1891.9153    5552.6615 
Loop time of 0.423124 on 8 procs for 70 steps with 131 atoms

99.4% CPU use with 8 MPI tasks x no OpenMP threads

Minimization stats:
  Stopping criterion = energy tolerance
  Energy initial, next-to-last, final = 
        -22075.9633378     -22078.2813413     -22078.2814626
  Force two-norm initial, final = 1125.04 298.253
  Force max component initial, final = 892.961 173.884
  Final line search alpha, max atom move = 3.52255e-09 6.12514e-07
  Iterations, force evaluations = 70 115

MPI task timing breakdown:
Section |  min time  |  avg time  |  max time  |%varavg| %total
---------------------------------------------------------------
Pair    | 0.30281    | 0.33309    | 0.35873    |   3.4 | 78.72
Neigh   | 0          | 0          | 0          |   0.0 |  0.00
Comm    | 0.0018383  | 0.027431   | 0.057695   |  11.7 |  6.48
Output  | 0.00026645 | 0.00030418 | 0.00039473 |   0.0 |  0.07
Modify  | 0.05992    | 0.059944   | 0.059961   |   0.0 | 14.17
Other   |            | 0.002356   |            |       |  0.56

Nlocal:    16.375 ave 40 max 0 min
Histogram: 1 2 1 0 1 1 0 0 1 1
Nghost:    478.625 ave 522 max 428 min
Histogram: 2 1 1 0 0 0 0 0 0 4
Neighs:    1161.5 ave 2641 max 0 min
Histogram: 1 2 1 0 1 0 1 0 0 2

Total # of neighbors = 9292
Ave neighs/atom = 70.9313
Neighbor list builds = 0
Dangerous builds = 0

unfix 1
###
min_style cg
minimize 1.0e-8 1.0e-8 100000 100000
WARNING: Using 'neigh_modify every 1 delay 0 check yes' setting during minimization (../min.cpp:190)
WARNING: Total cutoff < 2*bond cutoff. May need to use an increased neighbor list skin. (../pair_reaxc.cpp:413)
Per MPI rank memory allocation (min/avg/max) = 16.41 | 16.95 | 17.55 Mbytes
Step Temp E_pair E_mol TotEng Press 
     308            0   -22078.281            0   -22078.281   -1891.9153 
     359            0   -22082.093            0   -22082.093     8235.108 
Loop time of 1.56293 on 8 procs for 51 steps with 131 atoms

99.4% CPU use with 8 MPI tasks x no OpenMP threads

Minimization stats:
  Stopping criterion = energy tolerance
  Energy initial, next-to-last, final = 
        -22078.2814626     -22082.0932791     -22082.0932862
  Force two-norm initial, final = 131.753 212.809
  Force max component initial, final = 18.9696 34.5551
  Final line search alpha, max atom move = 0.000431802 0.0149209
  Iterations, force evaluations = 51 385

MPI task timing breakdown:
Section |  min time  |  avg time  |  max time  |%varavg| %total
---------------------------------------------------------------
Pair    | 1.0097     | 1.11       | 1.1944     |   6.1 | 71.02
Neigh   | 0          | 0          | 0          |   0.0 |  0.00
Comm    | 0.0064128  | 0.090745   | 0.19108    |  21.4 |  5.81
Output  | 0.00019597 | 0.00022587 | 0.00029987 |   0.0 |  0.01
Modify  | 0.35911    | 0.3592     | 0.35926    |   0.0 | 22.98
Other   |            | 0.002782   |            |       |  0.18

Nlocal:    16.375 ave 40 max 0 min
Histogram: 1 2 1 0 1 1 0 0 1 1
Nghost:    480.125 ave 522 max 430 min
Histogram: 2 1 1 0 0 0 0 0 0 4
Neighs:    1158 ave 2631 max 0 min
Histogram: 1 2 1 0 1 0 1 0 0 2

Total # of neighbors = 9264
Ave neighs/atom = 70.7176
Neighbor list builds = 0
Dangerous builds = 0

###
fix 1 all box/relax aniso 0.0
min_style cg
minimize 1.0e-8 1.0e-8 100000 100000
WARNING: Using 'neigh_modify every 1 delay 0 check yes' setting during minimization (../min.cpp:190)
WARNING: Total cutoff < 2*bond cutoff. May need to use an increased neighbor list skin. (../pair_reaxc.cpp:413)
Per MPI rank memory allocation (min/avg/max) = 16.41 | 16.95 | 17.55 Mbytes
Step Temp E_pair E_mol TotEng Press Volume 
     359            0   -22082.093            0   -22082.093     8235.108    5552.6615 
     403            0   -22083.441            0   -22083.441   -1622.9892     5556.488 
Loop time of 0.329949 on 8 procs for 44 steps with 131 atoms

99.4% CPU use with 8 MPI tasks x no OpenMP threads

Minimization stats:
  Stopping criterion = energy tolerance
  Energy initial, next-to-last, final = 
        -22082.0932862     -22083.4410189     -22083.4410189
  Force two-norm initial, final = 1252.96 253.313
  Force max component initial, final = 899.088 150.812
  Final line search alpha, max atom move = 2.09213e-12 3.15519e-10
  Iterations, force evaluations = 44 90

MPI task timing breakdown:
Section |  min time  |  avg time  |  max time  |%varavg| %total
---------------------------------------------------------------
Pair    | 0.2366     | 0.26059    | 0.27977    |   3.0 | 78.98
Neigh   | 0          | 0          | 0          |   0.0 |  0.00
Comm    | 0.0014708  | 0.020616   | 0.044611   |  10.5 |  6.25
Output  | 0.00019643 | 0.00022369 | 0.00029161 |   0.0 |  0.07
Modify  | 0.046719   | 0.046728   | 0.046734   |   0.0 | 14.16
Other   |            | 0.001796   |            |       |  0.54

Nlocal:    16.375 ave 42 max 0 min
Histogram: 2 2 0 1 0 1 0 0 1 1
Nghost:    480.125 ave 522 max 428 min
Histogram: 2 1 0 1 0 0 0 0 0 4
Neighs:    1152.25 ave 2742 max 0 min
Histogram: 1 2 1 1 0 1 0 0 1 1

Total # of neighbors = 9218
Ave neighs/atom = 70.3664
Neighbor list builds = 0
Dangerous builds = 0

unfix 1
###
min_style cg
minimize 1.0e-8 1.0e-8 100000 100000
WARNING: Using 'neigh_modify every 1 delay 0 check yes' setting during minimization (../min.cpp:190)
WARNING: Total cutoff < 2*bond cutoff. May need to use an increased neighbor list skin. (../pair_reaxc.cpp:413)
Per MPI rank memory allocation (min/avg/max) = 16.41 | 16.95 | 17.55 Mbytes
Step Temp E_pair E_mol TotEng Press 
     403            0   -22083.441            0   -22083.441   -1622.9892 
     542            0   -22092.157            0   -22092.157     1387.848 
Loop time of 4.38368 on 8 procs for 139 steps with 131 atoms

99.4% CPU use with 8 MPI tasks x no OpenMP threads

Minimization stats:
  Stopping criterion = energy tolerance
  Energy initial, next-to-last, final = 
        -22083.4410189     -22092.1566324      -22092.156767
  Force two-norm initial, final = 106.389 13.8422
  Force max component initial, final = 15.3923 2.88243
  Final line search alpha, max atom move = 0.000256437 0.000739163
  Iterations, force evaluations = 139 1081

MPI task timing breakdown:
Section |  min time  |  avg time  |  max time  |%varavg| %total
---------------------------------------------------------------
Pair    | 2.8521     | 3.1223     | 3.3428     |   9.5 | 71.23
Neigh   | 0          | 0          | 0          |   0.0 |  0.00
Comm    | 0.020062   | 0.23989    | 0.51046    |  34.4 |  5.47
Output  | 0.00058061 | 0.00067593 | 0.00091318 |   0.0 |  0.02
Modify  | 1.0126     | 1.0131     | 1.0135     |   0.0 | 23.11
Other   |            | 0.007772   |            |       |  0.18

Nlocal:    16.375 ave 42 max 0 min
Histogram: 2 2 0 1 0 1 0 0 1 1
Nghost:    481.125 ave 522 max 430 min
Histogram: 2 1 0 1 0 0 0 0 0 4
Neighs:    1150.12 ave 2734 max 0 min
Histogram: 1 2 1 1 0 1 0 0 1 1

Total # of neighbors = 9201
Ave neighs/atom = 70.2366
Neighbor list builds = 0
Dangerous builds = 0

undump 1
#############
#----------- Thermo ------------
reset_timestep 0
thermo  200

thermo_style    custom step temp etotal ke pe press
velocity all create 300 12345 mom yes rot yes
fix 1 all npt temp 300 300 25.0 iso 0.0 0.0 250.0

variable vpe equal pe
variable vtemp equal temp
variable vstep equal step

fix output all print 2500 "${vstep} ${vtemp} ${vpe}" file temp-tpdh-Pt.dat screen no

dump 1 all custom 2500 thermo-tpdh-Pt.lammpstrj id type x y z

run 1000000
WARNING: Total cutoff < 2*bond cutoff. May need to use an increased neighbor list skin. (../pair_reaxc.cpp:413)
Per MPI rank memory allocation (min/avg/max) = 15.27 | 15.72 | 16.44 Mbytes
Step Temp TotEng KinEng PotEng Press 
       0          300   -21975.905    116.25159   -22092.157      2344.23 
     200    216.47686   -21934.443    83.885933   -22018.329    -6855.123 
     400    321.40571   -21874.481    124.54642   -21999.027    19511.079 
     600    333.69135   -21866.236    129.30717   -21995.543    -13.17184 
     800    274.98498   -21890.231    106.55814   -21996.789    22496.053 
    1000     287.7797   -21863.983    111.51616   -21975.499     -4901.88 
    1200    334.06171   -21858.073    129.45069   -21987.524   -17720.654 
    1400     295.6813    -21880.03    114.57807   -21994.608    8173.4419 
    1600     294.0402   -21854.463    113.94214   -21968.405   -18681.134 
    1800    309.59082   -21856.875    119.96809   -21976.843     609.5565 
    2000     280.8137   -21877.013     108.8168    -21985.83    19989.527 
    2200    310.18306   -21868.433    120.19758   -21988.631    15456.617 
    2400    286.30566   -21871.674    110.94496   -21982.619   -6047.9184 
    2600    248.01152   -21897.161    96.105779   -21993.267     3139.374 
    2800    288.52937   -21865.832    111.80666   -21977.639   -2136.5981 
    3000    311.00677   -21858.604    120.51678    -21979.12   -8848.8962 
    3200    285.64133   -21880.076    110.68753   -21990.763    2456.7212 
    3400    315.09279   -21873.184    122.10013   -21995.284    7038.5992 
    3600    295.52961   -21858.948    114.51929   -21973.467   -15191.467 
    3800     279.7497   -21880.205    108.40449    -21988.61   -15961.175 
    4000    291.82638   -21872.521    113.08427   -21985.605    9567.8201 
    4200    317.50075   -21860.171    123.03323   -21983.204   -10146.906 
    4400    287.48687   -21858.069    111.40269   -21969.472    14325.999 
    4600    291.62598   -21883.161    113.00662   -21996.167   -6036.1842 
    4800    302.05442   -21858.743    117.04769   -21975.791   -5992.6366 
    5000    316.37668    -21860.13    122.59764   -21982.728    3364.8832 
    5200    269.90964   -21881.761    104.59142   -21986.352     19983.67 
    5400    311.08551   -21855.023    120.54729    -21975.57    -5231.185 
    5600    321.67231    -21862.41    124.64973    -21987.06    697.06198 
    5800    285.47892     -21874.2     110.6246   -21984.825    -21057.38 
    6000     303.3473   -21865.017    117.54869   -21982.566   -11909.878 
    6200     300.2342   -21865.773    116.34235   -21982.115    21547.608 
    6400    290.78189   -21862.458    112.67953   -21975.137    15971.561 
    6600    344.20428   -21850.862    133.38098   -21984.243    1745.2534 
    6800    305.42102   -21881.542    118.35226   -21999.894    2464.9463 
    7000    321.03351   -21862.877    124.40219   -21987.279   -2638.9566 
    7200    309.62452   -21862.905    119.98115   -21982.886    4601.3215 
    7400     314.3381   -21865.956    121.80768   -21987.764   -6521.9046 
    7600    310.64929   -21868.053    120.37825   -21988.431   -2068.0381 
    7800    299.33687   -21883.704    115.99463   -21999.699    14143.881 
    8000    305.97229   -21876.722    118.56589   -21995.288    5685.5024 
    8200    326.65083       -21855    126.57893   -21981.579    7620.7297 
    8400    314.06484   -21872.395    121.70179   -21994.097    15248.048 
    8600    284.68065   -21872.733    110.31526   -21983.048   -4347.2591 
    8800    267.07372   -21878.755    103.49248   -21982.248    7738.0707 
    9000    286.23447   -21887.431    110.91738   -21998.348    2013.8694 
    9200    283.68966   -21860.052    109.93125   -21969.983    4510.4497 
    9400    311.66529   -21866.157    120.77195   -21986.929    41929.313 
    9600    282.96635   -21892.772    109.65096   -22002.423   -5502.2432 
    9800     296.8604   -21861.521    115.03498   -21976.556    -2276.705 
   10000    280.56909   -21881.023    108.72201   -21989.745    30676.305 
   10200    312.01615   -21868.467    120.90792   -21989.375   -5515.5426 
   10400    299.76987   -21856.809    116.16241   -21972.971   -16327.672 
   10600    266.49311   -21878.134     103.2675   -21981.402   -10594.547 
   10800    262.62976   -21895.506    101.77043   -21997.276   -1674.0711 
   11000     298.4906   -21862.094    115.66669   -21977.761    1055.3473 
   11200    289.64994   -21879.849    112.24089    -21992.09   -24443.032 
   11400    290.74799   -21875.672    112.66639   -21988.339    18489.725 
   11600    302.27058   -21861.195    117.13145   -21978.327    1399.9562 
   11800    300.49421   -21875.264     116.4431   -21991.707    9547.5046 
   12000    269.95203   -21883.941    104.60785   -21988.549   -7880.8994 
   12200     270.6794   -21869.456     104.8897   -21974.346     12431.53 
   12400     306.7435   -21855.251    118.86473   -21974.116    1206.1439 
   12600    336.22929   -21845.976    130.29063   -21976.267   -14696.137 
   12800    292.76958   -21872.281    113.44977   -21985.731    10998.318 
   13000    290.44761   -21884.009    112.54999   -21996.559   -1506.2857 
   13200    278.42787   -21889.482    107.89228   -21997.374   -23573.298 
   13400    321.55131   -21861.775    124.60284   -21986.378   -5327.1656 
   13600    296.36906   -21869.904    114.84458   -21984.748    1318.8132 
   13800    295.78935   -21876.501    114.61994   -21991.121   -18487.339 
   14000    386.52277    -21897.53    149.77962   -22047.309    10387.551 
   14200    285.31799   -21898.575    110.56224   -22009.138   -1401.4317 
   14400    288.03078   -21882.842    111.61346   -21994.455    9870.6766 
   14600     378.9279   -21844.641    146.83657   -21991.478   -24.383967 
   14800    250.42817   -21822.802    97.042245   -21919.844    15197.879 
   15000    218.12251   -21832.361    84.523629   -21916.885    19826.302 
   15200    289.22334   -21779.801    112.07558   -21891.877   -1268.7069 
   15400    335.54151   -21755.389    130.02411   -21885.413    -5728.749 
   15600    463.76827   -21809.695    179.71267   -21989.408   -13930.802 
   15800     249.8459   -21796.084     96.81661   -21892.901   -2465.1369 
   16000    331.78501   -21763.492    128.56845   -21892.061   -13569.198 
   16200    336.70333   -21751.328    130.47433   -21881.802   -11514.625 
   16400     288.0194   -21774.059    111.60905   -21885.668   -10759.422 
   16600    316.17345    -21756.13    122.51889   -21878.649    6907.2371 
   16800    314.64016   -21761.026    121.92473   -21882.951   -10483.105 
   17000    294.36688   -21774.744    114.06873   -21888.813     503.0433 
   17200    350.54735    -21747.05    135.83896   -21882.889   -14362.832 
   17400    408.86944   -21899.535    158.43908   -22057.974   -4594.1731 
   17600    313.94336   -21924.625    121.65472    -22046.28   -26744.869 
   17800    296.17564   -21960.449    114.76963   -22075.218    7959.1552 
   18000    285.38215   -21953.559     110.5871   -22064.146    11357.435 
   18200    333.84325   -21939.048    129.36603   -22068.414    19439.812 
   18400    279.73835   -21956.812     108.4001   -22065.212   -1524.1716 
   18600    285.27675   -21955.439    110.54626   -22065.986     9247.341 
   18800    360.24496   -21938.469    139.59683   -22078.066    13834.179 
   19000    304.07181   -21955.098    117.82944   -22072.928   -16385.662 
   19200    264.20543   -21962.123      102.381   -22064.504   -1660.5699 
   19400    303.22079   -21933.288    117.49966   -22050.787    4669.4452 
   19600    296.93277   -21956.645    115.06303   -22071.708    4985.1528 
   19800    294.07611   -21960.427    113.95605   -22074.384    6347.2587 
   20000    310.64827   -21941.331    120.37785   -22061.709    610.05339 
   20200    301.48068   -21942.951    116.82536   -22059.776   -24216.294 
   20400     279.7254   -21959.353    108.39508   -22067.749    10671.772 
   20600    334.45857   -21952.572    129.60447   -22082.177    11562.264 
   20800    313.37057   -21933.333    121.43276   -22054.766   -14695.555 
   21000    290.58668   -21961.487    112.60388    -22074.09    8862.1493 
   21200    282.71583   -21941.874    109.55388   -22051.428    4300.5975 
   21400    275.89628   -21961.595    106.91127   -22068.507   -5778.4336 
   21600    309.79601   -21952.608     120.0476   -22072.655   -1523.1757 
   21800    354.88612   -21914.403    137.52026   -22051.923   -9474.5266 
   22000    304.09312   -21947.509     117.8377   -22065.347   -385.93911 
   22200    346.72301    -21894.65    134.35701   -22029.007    -7014.261 
   22400    266.09255   -21839.813    103.11227   -21942.925   -7648.2777 
   22600    435.29763   -21788.957    168.68014   -21957.637    2706.9843 
   22800    268.28679   -21807.891    103.96255   -21911.854    969.99695 
   23000     294.6152   -21787.879    114.16496   -21902.044    -12746.48 
   23200    399.71689   -21784.394    154.89242   -21939.286   -2704.0658 
   23400    338.83165   -21855.321    131.29906    -21986.62   -9330.6394 
   23600    275.92965    -21883.07     106.9242   -21989.995    8991.8882 
   23800    343.62196     -21857.2    133.15533   -21990.355    21791.267 
   24000    331.21544   -21863.439    128.34774   -21991.787     7965.708 
   24200      285.647   -21886.785    110.68973   -21997.475   -16810.902 
   24400    295.28853    -21866.96    114.42587   -21981.386   -15459.017 
   24600    320.77313   -21848.394    124.30129   -21972.695   -8174.3492 
   24800    297.00455     -21885.7    115.09084   -22000.791   -4034.7497 
   25000    291.27451   -21888.238    112.87042   -22001.108    2176.1324 
   25200    313.34344   -21860.861    121.42224   -21982.283    12000.027 
   25400    308.01299   -21879.583    119.35667   -21998.939   -256.25745 
   25600    293.88041   -21881.293    113.88022   -21995.173    19413.891 
   25800    316.70073   -21870.194    122.72321   -21992.917   -16310.528 
   26000    284.47012   -21897.705    110.23368   -22007.938   -19747.062 
   26200    277.25212   -21888.292    107.43667   -21995.728    15822.563 
   26400    336.03167   -21876.308    130.21405   -22006.522    21093.322 
   26600    280.26191   -21885.294    108.60298   -21993.897   -8739.0201 
   26800    252.83425   -21910.394    97.974613   -22008.369   -4212.9445 
   27000    281.87668   -21886.546    109.22871   -21995.775   -13369.562 
   27200    322.81304   -21880.794    125.09177   -22005.886   -9144.6458 
   27400     270.0951    -21902.74    104.66329   -22007.403    5431.6903 
   27600    281.19711   -21870.767    108.96537   -21979.732     20500.83 
   27800    300.42756   -21879.491    116.41728   -21995.908    10782.272 
   28000    293.34283   -21893.439     113.6719   -22007.111   -20744.911 
   28200    282.70442   -21881.814    109.54946   -21991.363   -8289.0128 
   28400    289.56452   -21885.081    112.20779   -21997.288   -9692.6172 
   28600    317.30734   -21878.993    122.95828   -22001.951    8855.6385 
   28800    335.46218   -21877.247    129.99337    -22007.24    -2769.922 
   29000    270.08321   -21898.586    104.65868   -22003.245     772.6327 
   29200    291.99998    -21869.97    113.15154   -21983.121   -7008.7625 
   29400    315.94921   -21872.927      122.432   -21995.359    8775.7514 
   29600    287.76599    -21886.24    111.51085    -21997.75    3548.4142 
   29800    307.90983   -21880.133    119.31669    -21999.45   -23697.022 
   30000    318.64659   -21864.666    123.47724   -21988.143    17668.988 
   30200    302.14056   -21890.773    117.08107   -22007.854    7508.8021 
   30400    270.65207   -21869.521    104.87911     -21974.4    21244.514 
   30600    286.72612   -21882.793    111.10789   -21993.901   -4329.7721 
   30800    386.23465   -21876.785    149.66798   -22026.453    20979.592 
   31000    378.76841   -21846.556    146.77477    -21993.33    11883.683 
   31200    228.71589   -21877.926     88.62862   -21966.555    6861.2888 
   31400    267.73071   -21890.117    103.74707   -21993.865     9205.278 
   31600    362.05991   -21863.067    140.30014   -22003.367    2548.2982 
   31800    333.98674   -21890.293    129.42164   -22019.714   -23071.238 
   32000    305.78324   -21876.929    118.49263   -21995.421    33071.366 
   32200     278.4628   -21881.972    107.90581   -21989.878   -19038.697 
   32400    318.11021   -21868.647     123.2694   -21991.916    9037.5513 
   32600    315.46201    -21863.93     122.2432   -21986.173   -34675.898 
   32800    301.79136   -21895.244    116.94575    -22012.19    15967.778 
   33000     294.1481   -21880.783    113.98395   -21994.767    32937.553 
   33200    289.74234    -21866.62    112.27669   -21978.897     1628.188 
   33400    332.13945   -21878.989     128.7058   -22007.695       5178.6 
   33600    283.70067   -21894.677    109.93551   -22004.613    9481.8619 
   33800    272.86705   -21898.737    105.73743   -22004.474    7919.0923 
   34000    317.85209   -21878.417    123.16937   -22001.586    -10430.67 
   34200    279.58327   -21888.626       108.34   -21996.966    2949.6018 
   34400    286.67577   -21907.934    111.08838   -22019.022   -18246.583 
   34600    331.43355   -21873.842    128.43226   -22002.274    21234.918 
   34800    318.32635   -21889.027    123.35315    -22012.38   -7213.4971 
   35000    262.98601   -21914.058    101.90847   -22015.966   -12227.929 
   35200    273.48415   -21887.851    105.97656   -21993.827   -10228.674 
   35400    312.73558   -21879.804     121.1867   -22000.991   -9162.0374 
   35600    253.41916   -21903.473    98.201268   -22001.674    18815.082 
   35800    297.50442   -21886.792    115.28454   -22002.076    3948.0187 
   36000    296.86023   -21886.653    115.03491   -22001.688    15012.007 
   36200    289.55618   -21887.635    112.20456   -21999.839    5660.2381 
   36400    296.49176   -21891.634    114.89213   -22006.526     10891.28 
   36600    259.65398   -21901.911     100.6173   -22002.528   -6518.9022 
   36800    309.24077   -21876.659    119.83244   -21996.491   -4044.3468 
   37000    315.82136   -21880.635    122.38245   -22003.017    6051.4484 
   37200    277.63081   -21899.735    107.58341   -22007.318   -7892.4578 
   37400    315.47302    -21879.03    122.24747   -22001.277   -10543.995 
   37600    292.96643   -21903.854    113.52605    -22017.38    8276.9426 
   37800    273.67162   -21893.741     106.0492    -21999.79   -18005.376 
   38000     264.5832    -21874.38    102.52739   -21976.908    11756.249 
   38200    279.50998   -21885.151     108.3116   -21993.463      17841.2 
   38400    286.87445   -21890.519    111.16537   -22001.684   -21912.334 
   38600    315.20586   -21871.881    122.14394   -21994.025    5566.6167 
   38800     310.6814   -21882.553    120.39069   -22002.943     15227.46 
   39000    264.42552   -21896.927    102.46629   -21999.394   -14814.925 
   39200    333.99715   -21860.844    129.42567   -21990.269   -1246.9719 
   39400    295.08627   -21886.644    114.34749   -22000.991     10121.51 
   39600    260.65065   -21885.557    101.00351    -21986.56   -18564.168 
   39800    327.07513   -21882.532    126.74335   -22009.276   -64.538609 
   40000    296.06273   -21884.736    114.72588   -21999.462    19371.543 
   40200      319.645   -21876.087    123.86414   -21999.951   -15503.489 
   40400    371.77369   -21877.204    144.06428   -22021.268   -501.50003 
   40600    316.26884   -21883.013    122.55585   -22005.568    27675.181 
   40800    271.22548    -21897.52    105.10131   -22002.622    14119.497 
   41000    278.78147   -21863.628     108.0293   -21971.657    2086.4303 
   41200    338.51272    -21878.51    131.17548   -22009.685    3060.7857 
   41400    368.09281   -21876.655    142.63792   -22019.293    6927.7626 
   41600    245.13076   -21898.009    94.989469   -21992.999   -6671.2808 
   41800    345.09412   -21851.476     133.7258   -21985.201   -46158.922 
   42000    382.86821   -21847.298    148.36346   -21995.662   -34088.766 
   42200    294.94844   -21865.643    114.29409   -21979.938   -26651.805 
   42400    277.92631   -21900.164    107.69792   -22007.862    26092.093 
   42600    325.24309   -21869.207    126.03342   -21995.241    5909.7794 
   42800    289.70582   -21875.945    112.26254   -21988.207   -2298.4998 
   43000    272.86422   -21890.716    105.73633   -21996.452    14101.154 
   43200    340.81214   -21863.388    132.06651   -21995.454    -11793.36 
   43400    332.82808   -21872.386    128.97265   -22001.358   -7903.1471 
   43600     317.1023   -21882.405    122.87882   -22005.284   -10047.216 
   43800    266.05772   -21905.455    103.09878   -22008.554   -10774.354 
   44000    293.48579   -21899.749     113.7273   -22013.477   -8416.2619 
   44200    315.90137   -21872.198    122.41346   -21994.611     6583.196 
   44400    284.15154   -21886.752    110.11023   -21996.862   -20550.669 
   44600    337.07478   -21874.512    130.61827    -22005.13   -18088.284 
   44800     277.9453   -21889.025    107.70528    -21996.73   -4851.1448 
   45000    358.15024   -21888.041    138.78512   -22026.826    10749.056 
   45200    345.61119   -21896.445    133.92617   -22030.371    30427.341 
   45400    301.67001   -21885.493    116.89873   -22002.392    4322.7032 
   45600    320.10456   -21875.636    124.04222   -21999.678   -13688.004 
   45800    270.76855   -21895.872    104.92425   -22000.796   -7753.9553 
   46000    301.64283   -21879.276     116.8882   -21996.164     3001.165 
   46200    293.33806   -21885.558    113.67005   -21999.228   -5545.6993 
   46400     326.0847   -21897.007    126.35955   -22023.367    14655.082 
   46600    332.20756   -21860.254    128.73219   -21988.986    5437.2698 
   46800    308.53544   -21882.486    119.55912   -22002.045    2045.9353 
   47000    339.24752   -21887.715    131.46021   -22019.175    7357.0377 
   47200    284.31252   -21900.424    110.17261   -22010.596    1940.6857 
   47400    322.57703   -21869.748    125.00031   -21994.748    -370.6466 
   47600    287.34552   -21886.323    111.34791   -21997.671    16005.892 
   47800    337.66705   -21877.768    130.84777   -22008.615    30252.977 
   48000    300.73075   -21896.905    116.53476    -22013.44    8489.1127 
   48200    296.82201   -21895.729     115.0201   -22010.749    31948.087 
   48400    319.20574   -21873.929    123.69392   -21997.623    10416.598 
   48600    295.85508   -21887.261    114.64541   -22001.906    2662.6987 
   48800     276.4475   -21892.374    107.12487   -21999.498   -2645.5849 
   49000    288.77097   -21885.862    111.90028   -21997.762    9703.9043 
   49200    300.52094    -21883.13    116.45346   -21999.584     4819.948 
   49400    303.45268    -21892.63    117.58952    -22010.22   -3648.7534 
   49600    259.79452   -21892.805    100.67176   -21993.477    32574.103 
   49800    302.92124   -21878.032    117.38359   -21995.416   -17647.802 
   50000     278.8837   -21880.635    108.06892   -21988.704   -7288.2919 
   50200    312.40448   -21901.711    121.05839   -22022.769    -11847.95 
   50400    318.68001   -21866.877    123.49019   -21990.367      24979.2 
   50600    306.55736   -21883.904     118.7926   -22002.697    9662.3497 
   50800    275.95568    -21900.85    106.93429   -22007.784    16725.159 
   51000    311.33734   -21875.512    120.64487   -21996.157    802.93815 
   51200    295.10903   -21887.671    114.35631   -22002.027    9546.3636 
   51400    242.33218   -21920.919    93.905005   -22014.824    2934.3619 
   51600    292.15694   -21887.746    113.21236   -22000.959   -12698.327 
   51800    317.68538   -21876.269    123.10477   -21999.374   -14996.583 
   52000    309.19521   -21894.658    119.81478   -22014.472    15141.281 
   52200     320.6997    -21887.13    124.27283   -22011.403   -27862.516 
   52400    338.68907   -21870.564    131.24381   -22001.808   -4655.1468 
   52600    313.94151   -21891.076      121.654    -22012.73    4650.7344 
   52800    314.70437   -21887.838    121.94961   -22009.787   -13709.191 
   53000    246.93223   -21907.993    95.687549   -22003.681    3587.0787 
   53200    300.56266   -21874.689    116.46963   -21991.159    22536.624 
   53400    276.26662   -21889.607    107.05478   -21996.661    20163.357 
   53600    282.55041   -21885.544    109.48978   -21995.034    15559.886 
   53800    341.31522   -21853.685    132.26146   -21985.947    15450.229 
   54000    267.34177   -21891.177    103.59635   -21994.774   -9872.4691 
   54200    308.44837   -21887.182    119.52538   -22006.707   -14865.709 
   54400    307.74127     -21879.4    119.25137   -21998.652    27740.814 
   54600    267.79187   -21903.124    103.77077   -22006.895    27767.761 
   54800      325.808   -21881.669    126.25233   -22007.921    9329.6455 
   55000     323.9541   -21877.553    125.53393   -22003.087    5531.3698 
   55200    285.95569   -21896.936    110.80935   -22007.745   -6834.4321 
   55400    306.95237   -21892.109    118.94567   -22011.055   -1245.8024 
   55600    270.75242   -21881.269      104.918   -21986.187    -5024.541 
   55800     274.7765   -21874.467    106.47735   -21980.944    7546.2671 
   56000     289.2962   -21901.512    112.10381   -22013.615    19911.306 
   56200    247.68614   -21876.821    95.979692     -21972.8    18901.318 
   56400    286.75017   -21879.017    111.11721   -21990.134    11990.679 
   56600    304.68157   -21880.651    118.06573   -21998.717   -3695.0569 
   56800     281.8201   -21888.794    109.20679   -21998.001    6255.0415 
   57000    311.88235   -21873.883    120.85607   -21994.739    20080.037 
   57200    330.12219   -21863.106     127.9241    -21991.03   -14868.169 
   57400    317.34071   -21884.724    122.97121   -22007.696    8609.2158 
   57600    275.32054   -21887.033    106.68817   -21993.721   -7174.3459 
   57800    285.64635   -21894.624    110.68948   -22005.313   -9485.6772 
   58000    306.14689   -21873.073    118.63355   -21991.707    677.49838 
   58200     288.9501   -21888.081     111.9697   -22000.051   -8048.5754 
   58400    275.47936   -21891.711    106.74971    -21998.46    4948.8372 
   58600     317.1333   -21874.342    122.89083   -21997.233   -10151.407 
   58800    286.91725   -21883.821    111.18196   -21995.003    11878.955 
   59000    321.90973   -21889.639    124.74173   -22014.381    21598.662 
   59200    285.49785   -21892.494    110.63193   -22003.126    30950.659 
   59400    350.27511   -21867.051    135.73347   -22002.784   -1781.5277 
   59600    295.88114   -21892.022    114.65551   -22006.678    5299.7167 
   59800    288.48796   -21888.307    111.79061   -22000.098   -130.53657 
   60000    324.75283    -21874.22    125.84344   -22000.064   -5429.7019 
   60200    302.95063   -21877.301    117.39498   -21994.696   -20843.368 
   60400    290.44382   -21897.662    112.54852    -22010.21    3544.3587 
   60600    310.92809   -21870.006    120.48628   -21990.492   -10370.368 
   60800    318.18466   -21877.681    123.29824   -22000.979   -853.32452 
   61000    310.89504   -21892.079    120.47348   -22012.552    6203.0557 
   61200    304.77162   -21898.223    118.10062   -22016.324   -13833.456 
   61400    321.62774   -21870.735    124.63245   -21995.368    12733.499 
   61600    304.37401   -21891.539    117.94654   -22009.485   -994.15437 
   61800    306.98194   -21890.324    118.95713   -22009.281    104.06175 
   62000    307.48499   -21883.981    119.15207   -22003.133    9265.8627 
   62200    273.95213   -21883.242     106.1579     -21989.4    20208.715 
   62400    278.44551   -21904.751    107.89911   -22012.651   -293.08932 
   62600    329.67127   -21873.934    127.74937   -22001.683    8256.3001 
   62800    315.45587    -21879.84    122.24082   -22002.081    30322.345 
   63000    311.45272   -21890.177    120.68958   -22010.867    15191.405 
   63200    301.26356   -21884.421    116.74123   -22001.162   -822.84607 
   63400    325.71883   -21850.297    126.21778   -21976.515   -15341.117 
   63600    272.97361   -21881.044    105.77872   -21986.823     19321.75 
   63800    294.12735   -21893.754    113.97591    -22007.73   -8651.0848 
   64000    315.56604   -21867.181    122.28352   -21989.465   -41.866875 
   64200    307.97619   -21882.575    119.34241   -22001.917    29419.582 
   64400     326.4457   -21883.753    126.49944   -22010.252   -4899.3644 
   64600    274.40519   -21892.997    106.33347    -21999.33    25700.037 
   64800    301.51636   -21896.259    116.83919   -22013.098    33743.598 
   65000    364.25947   -21868.013    141.15248   -22009.165   -14108.669 
   65200    279.08136   -21891.249    108.14551   -21999.394   -2395.1907 
   65400    319.07341   -21891.294    123.64264   -22014.937    9403.1167 
   65600     313.8466   -21872.742    121.61722   -21994.359   -2484.8788 
   65800    296.25257   -21892.913    114.79944   -22007.712     743.6472 
   66000    282.59257    -21895.86    109.50612   -22005.366    18499.804 
   66200     324.2642   -21878.609     125.6541   -22004.263    10184.119 
   66400    290.62547   -21887.179    112.61891   -21999.798   -9928.2628 
   66600     311.1858   -21868.741    120.58615   -21989.327    4780.6694 
   66800    280.86325   -21883.837      108.836   -21992.673    24424.785 
   67000    278.79968   -21895.121    108.03635   -22003.157    6000.2755 
   67200    338.60655   -21864.097    131.21183   -21995.308   -11309.692 
   67400    352.31737   -21873.675    136.52485     -22010.2    12807.306 
   67600    288.49148   -21888.957    111.79198   -22000.749   -2094.5791 
   67800    261.29233   -21900.454    101.25216   -22001.706    2998.2572 
   68000     289.1949   -21899.838    112.06456   -22011.903    31132.882 
   68200    331.15469   -21880.054     128.3242   -22008.378   -10237.184 
   68400    310.51585   -21888.721    120.32654   -22009.047   -10486.241 
   68600    256.59565   -21907.506    99.432176   -22006.938   -20423.645 
   68800    321.72397   -21876.726    124.66975   -22001.395    26126.569 
   69000    324.58896    -21885.53    125.77995    -22011.31    15315.058 
   69200    276.71737    -21896.82    107.22945   -22004.049   -20254.812 
   69400    296.73547   -21907.415    114.98657   -22022.401    3261.1383 
   69600    270.83815   -21875.187    104.95122   -21980.138    34241.581 
   69800    290.19424   -21890.638    112.45181    -22003.09   -25956.859 
   70000    293.19105   -21886.614    113.61309   -22000.227   -14827.132 
   70200    300.89018   -21860.033    116.59654    -21976.63   -1100.5841 
   70400    302.59563   -21891.627    117.25741   -22008.884    9066.6671 
   70600    284.98758   -21892.333     110.4342   -22002.767     1718.859 
   70800    320.54805   -21867.618    124.21407   -21991.832    1804.1092 
   71000    284.71867   -21887.582    110.32999   -21997.912   -22422.009 
   71200    297.81124   -21890.285    115.40344   -22005.689   -4803.0115 
   71400    311.35406   -21871.864    120.65135   -21992.515   -18629.706 
   71600    282.46835    -21908.04    109.45798   -22017.498   -113.21701 
   71800    280.40896   -21884.845    108.65996   -21993.505     -2794.12 
   72000     309.2062    -21880.86    119.81904   -22000.679    3994.4622 
   72200    322.45323   -21877.929    124.95234   -22002.881    -5513.995 
   72400     273.1132   -21889.111    105.83282   -21994.943    35518.079 
   72600    278.57034   -21899.937    107.94748   -22007.884   -12319.624 
   72800    292.20566   -21905.342    113.23124   -22018.573   -13147.512 
   73000    294.40413   -21896.674    114.08316   -22010.757    -11198.48 
   73200    278.69102   -21885.809    107.99425   -21993.803     4592.005 
   73400    303.51023    -21885.99    117.61182   -22003.602   -9793.0899 
   73600     265.0509   -21900.905    102.70863   -22003.614      13373.4 
   73800    304.15469   -21878.804    117.86156   -21996.665   -10980.956 
   74000    262.74947   -21888.127    101.81682   -21989.944   -9222.2953 
   74200    270.05366   -21912.275    104.64723   -22016.922    16159.933 
   74400    327.83698   -21882.163    127.03857   -22009.201   -4605.1631 
   74600    284.09821   -21866.494    110.08956   -21976.583   -11693.946 
   74800    308.97774   -21896.182    119.73052   -22015.912   -11748.155 
   75000    294.94701   -21879.882    114.29353   -21994.176   -2143.4541 
   75200    409.86802   -21849.737    158.82603   -22008.563    12805.924 
   75400    367.11757   -21885.062    142.26001   -22027.322   -8775.7308 
   75600    228.23632   -21855.109    88.442785   -21943.552     10849.58 
   75800     265.5428   -21897.042    102.89924   -21999.942    8814.7199 
   76000    283.44998   -21890.693    109.83837   -22000.531   -32673.795 
   76200     296.1578   -21869.143    114.76272   -21983.906    48342.849 
   76400    261.50157   -21879.319    101.33325   -21980.653   -15422.109 
   76600     353.8933   -21871.336    137.13553   -22008.472    25844.366 
   76800    339.68366   -21892.108    131.62922   -22023.737   -7390.7235 
   77000    359.01146   -21890.311    139.11884    -22029.43   -26625.353 
   77200    311.84455   -21898.732    120.84142   -22019.574    1130.7316 
   77400    269.14881   -21869.147    104.29659   -21973.444   -9617.9337 
   77600    270.23459   -21890.517    104.71734   -21995.235    4234.6097 
   77800    306.30882   -21881.439    118.69629   -22000.135   -22175.779 
   78000    298.97653   -21874.345    115.85499     -21990.2   -1389.4992 
   78200    348.99577   -21874.655    135.23771   -22009.892   -6979.9402 
   78400    272.59491   -21874.269    105.63198   -21979.901    9475.8144 
   78600    255.70458   -21913.035     99.08688   -22012.122    14870.225 
   78800     297.3956   -21886.319    115.24237   -22001.561    -1487.975 
   79000    304.27268   -21876.865    117.90728   -21994.772    26307.236 
   79200    334.14855   -21888.269    129.48434   -22017.753    271.94075 
   79400     277.4893   -21900.443    107.52858   -22007.971   -2694.2098 
   79600     268.7277   -21899.156    104.13341    -22003.29    37660.745 
   79800    309.01031   -21888.392    119.74313   -22008.135    27928.124 
   80000    324.07141   -21874.186    125.57939   -21999.765   -848.30295 
   80200    243.85546    -21892.84    94.495284   -21987.336   -4780.9478 
   80400    314.03215   -21883.833    121.68912   -22005.522    11500.142 
   80600    321.30467   -21863.954    124.50726   -21988.462      6572.87 
   80800    284.74027   -21898.943    110.33837   -22009.282   -11814.013 
   81000    283.32617   -21876.445     109.7904   -21986.236   -1092.7835 
   81200    268.33521    -21892.34    103.98132   -21996.321   -3511.3896 
   81400    287.52579   -21902.527    111.41777   -22013.945    20294.629 
   81600    289.04828   -21889.298    112.00774   -22001.305    8422.6752 
   81800    278.97603    -21887.21    108.10469   -21995.314   -2306.1386 
   82000    260.25213   -21922.153    100.84908   -22023.002    976.94737 
   82200    304.86398   -21890.642    118.13641   -22008.778   -9654.5936 
   82400     320.6872    -21884.83    124.26799   -22009.098    6201.4048 
   82600    335.40066   -21884.577    129.96953   -22014.547    735.11722 
   82800    266.21799   -21879.604    103.16089   -21982.765   -2400.4167 
   83000    272.97063   -21879.983    105.77757   -21985.761    21252.102 
   83200     265.4318   -21921.953    102.85623   -22024.809   -7864.8471 
   83400    329.83638   -21881.568    127.81335   -22009.381    3067.4999 
   83600    330.75954   -21894.387    128.17108   -22022.558    1540.5428 
   83800     310.7003   -21888.838    120.39801   -22009.236    8200.7492 
   84000    254.18147   -21912.592    98.496667   -22011.089   -11873.791 
   84200    273.34296    -21904.27    105.92185   -22010.191    21962.798 
   84400    306.65785   -21885.531    118.83155   -22004.362    -29108.07 
   84600    306.13636   -21896.784    118.62946   -22015.413   -13539.579 
   84800    267.73552   -21904.616    103.74893   -22008.365    4902.3604 
   85000     298.9122   -21868.205    115.83006   -21984.035   -11756.997 
   85200    321.56537   -21873.325    124.60829   -21997.933   -26836.397 
   85400    270.64835   -21900.601    104.87767   -22005.478    2491.2729 
   85600    303.32641   -21876.647    117.54059   -21994.187    2566.2758 
   85800    322.36906   -21880.166    124.91972   -22005.086   -994.24801 
   86000    253.19505   -21840.381    98.114426   -21938.496    2880.2929 
   86200    259.89073   -21879.968    100.70904   -21980.677   -22878.714 
   86400    314.57399   -21908.685    121.89909   -22030.584    10444.609 
   86600    378.17652   -21860.602    146.54541   -22007.148   -4206.4349 
   86800    299.46866   -21865.397    116.04569   -21981.443    14176.371 
   87000    293.14742   -21880.006    113.59618   -21993.602   -15797.412 
   87200    251.67993    -21903.73    97.527309   -22001.258   -3634.5346 
   87400    331.11798   -21860.836    128.30998   -21989.146    26015.585 
   87600    309.10846   -21869.708    119.78117   -21989.489   -11212.597 
   87800    293.10816   -21886.804    113.58097   -22000.385    44122.335 
   88000    388.19628   -21858.544    150.42812   -22008.972    6306.8522 
   88200     334.1514   -21881.299    129.48544   -22010.784   -20861.063 
   88400    294.22162   -21884.785    114.01244   -21998.798    5125.2665 
   88600    317.30498    -21881.43    122.95736   -22004.388    -7140.781 
   88800    279.95177   -21890.324     108.4828   -21998.807    1612.9023 
   89000    324.35771   -21877.609    125.69034     -22003.3    25089.624 
   89200     316.4761   -21864.529    122.63617   -21987.165    20743.607 
   89400    254.99349    -21899.21    98.811331   -21998.022     6438.372 
   89600    300.22333   -21883.008    116.33813   -21999.346    1787.2562 
   89800    319.76153    -21872.46    123.90929   -21996.369    3306.3617 
   90000    299.95216    -21903.35    116.23305   -22019.583   -903.03586 
   90200     328.3535   -21878.803    127.23872   -22006.042    30345.143 
   90400    275.07285   -21881.417    106.59219   -21988.009   -27880.748 
   90600    278.29519   -21914.316    107.84086   -22022.157   -19070.549 
   90800     268.9449   -21897.544    104.21757   -22001.761    9197.9803 
   91000    319.33411   -21875.442    123.74366   -21999.185   -11920.714 
   91200    280.69079   -21893.105    108.76917   -22001.874   -14923.059 
   91400    249.79042   -21896.412    96.795113   -21993.207   -12957.907 
   91600    324.89594   -21876.723     125.8989   -22002.622   -1190.1783 
   91800    337.41491   -21881.621    130.75007   -22012.371    11201.697 
   92000    278.01585    -21885.56    107.73262   -21993.292   -245.80645 
   92200    270.12362   -21898.673    104.67434   -22003.347    12455.893 
   92400    310.95358   -21895.683    120.49616   -22016.179   -10724.158 
   92600    312.13385   -21883.273    120.95352   -22004.226   -7374.9187 
   92800     294.5618   -21886.851    114.14426   -22000.995    25850.062 
   93000    270.02217   -21907.191    104.63503   -22011.826    6195.7128 
   93200    280.13516   -21877.859    108.55386   -21986.413   -13848.845 
   93400    318.52882    -21889.62    123.43161   -22013.052    23586.601 
   93600    261.07457   -21913.251    101.16778   -22014.419    16607.527 
   93800    333.32261   -21879.837    129.16428   -22009.001    -5992.727 
   94000    324.28737   -21876.935    125.66308   -22002.598    4946.8839 
   94200    336.77471   -21894.008    130.50199    -22024.51   -3882.6189 
   94400    292.03597   -21870.961    113.16549   -21984.126    3789.0258 
   94600    313.92875   -21872.174    121.64906   -21993.823    5387.3049 
   94800    283.76419   -21884.902    109.96013   -21994.862    -2422.259 
   95000    253.19594   -21891.035     98.11477    -21989.15    44036.222 
   95200    309.25484   -21876.633    119.83789   -21996.471    11118.655 
   95400    309.49969   -21878.068    119.93277   -21998.001    5808.6999 
   95600    278.06156   -21902.097    107.75033   -22009.848     13298.49 
   95800    326.11408   -21878.604    126.37094   -22004.975     4297.368 
   96000    303.77942   -21892.382    117.71614   -22010.098   -10506.527 
   96200    286.86529   -21901.827    111.16182   -22012.989    7637.1892 
   96400    336.71004   -21875.992    130.47693   -22006.469   -15862.373 
   96600    276.23797   -21904.959    107.04368   -22012.002    -10892.01 
   96800    288.91402   -21892.989    111.95571   -22004.945    2083.7986 
   97000     319.4292   -21877.177    123.78051   -22000.957   -3296.3186 
   97200    272.06781   -21907.097    105.42772   -22012.524   -12985.951 
   97400    285.80337   -21895.184    110.75032   -22005.934   -6553.0739 
   97600    279.79007   -21882.851    108.42014   -21991.272    16231.601 
   97800    277.05635   -21904.489    107.36081    -22011.85   -16086.926 
   98000      309.619   -21898.242      119.979   -22018.221    2180.1682 
   98200    337.40707    -21881.26    130.74703   -22012.007    3153.9947 
   98400    322.05047   -21893.565    124.79627   -22018.362     11020.13 
   98600    276.58278   -21904.922     107.1773   -22012.099    6113.9305 
   98800    315.16383   -21881.687    122.12766   -22003.814   -14635.022 
   99000    296.33202   -21889.104    114.83023   -22003.934    1793.4389 
   99200    267.86606   -21915.081    103.79952    -22018.88    1176.1333 
   99400    278.87523   -21880.558    108.06563   -21988.624   -7123.7964 
   99600    278.52259   -21884.531    107.92898    -21992.46    22407.397 
   99800    292.42556   -21900.649    113.31646   -22013.966   -4437.2912 
  100000    364.90816   -21866.634    141.40385   -22008.038    -16984.32 
  100200    302.85564    -21888.91    117.35817   -22006.268    26681.748 
  100400    237.44649   -21895.852    92.011774   -21987.864    16707.066 
  100600    288.80779   -21864.578    111.91455   -21976.493    15145.725 
  100800    324.80546   -21885.766    125.86384    -22011.63   -14331.547 
  101000    333.19243   -21885.465    129.11383   -22014.579     5659.207 
  101200    310.75137   -21867.469    120.41781   -21987.886   -3243.5719 
  101400    269.23467   -21877.864    104.32986   -21982.194   -14647.346 
  101600    269.19353   -21888.631    104.31392   -21992.945   -16618.989 
  101800    348.72123   -21880.499    135.13133   -22015.631   -20314.221 
  102000    319.64176   -21876.323    123.86288   -22000.185    12846.647 
  102200    313.97494   -21891.993    121.66695    -22013.66    -10762.29 
  102400    313.92186   -21890.267    121.64638   -22011.914    -9269.303 
  102600    361.37305    -21846.98    140.03398   -21987.014   -8002.1232 
  102800    355.01502    -21861.04    137.57021   -21998.611   -19274.745 
  103000    314.70783   -21877.927    121.95095   -21999.878   -679.59993 
  103200    266.28324   -21903.945    103.18617   -22007.131    15583.951 
  103400    302.60271   -21864.441    117.26016   -21981.701   -4957.3342 
  103600    288.34364   -21882.856    111.73469   -21994.591   -8502.3522 
  103800    285.71874   -21891.107    110.71753   -22001.825    -14657.61 
  104000    343.68273   -21869.583    133.17888   -22002.761    867.67606 
  104200    307.05423   -21884.173    118.98514   -22003.158    3675.2196 
  104400    274.69078   -21897.939    106.44414   -22004.383    19692.911 
  104600    333.95238   -21872.351    129.40832   -22001.759   -5422.9011 
  104800    288.73218   -21890.654    111.88525    -22002.54   -9696.1695 
  105000    276.09142   -21898.099    106.98689   -22005.086    18632.845 
  105200    306.78306   -21875.186    118.88007   -21994.066    9443.7739 
  105400    281.23856   -21901.281    108.98144   -22010.263    8647.2551 
  105600    293.23088    -21898.07    113.62852   -22011.698    2889.6637 
  105800    309.68783   -21877.451    120.00568   -21997.457   -1378.3544 
  106000    309.35818   -21891.387    119.87794   -22011.265    4833.1236 
  106200     251.9493   -21909.764     97.63169   -22007.396    117.22855 
  106400    313.46117   -21885.451    121.46786   -22006.919    1076.6018 
  106600    331.76243   -21881.444     128.5597   -22010.004   -8284.1267 
  106800    305.72578   -21901.204    118.47036   -22019.674    7792.1261 
  107000    280.97047    -21888.09    108.87755   -21996.968    10136.914 
  107200    329.38095   -21877.935    127.63687   -22005.572    656.86006 
  107400     286.7526   -21890.524    111.11815   -22001.642   -4754.3653 
  107600    291.26644   -21891.918    112.86729   -22004.785   -8261.5843 
  107800    307.76487   -21885.601    119.26052   -22004.862   -33899.617 
  108000    298.40388   -21883.231    115.63309   -21998.864   -441.90022 
  108200    279.41718   -21901.577    108.27564   -22009.852   -1157.8654 
  108400    282.57754   -21901.012     109.5003   -22010.512   -11804.182 
  108600    318.59246   -21877.134    123.45627    -22000.59   -27841.788 
  108800    251.78179   -21901.683    97.566781    -21999.25    22995.547 
  109000     296.0975   -21898.889    114.73935   -22013.629    14232.873 
  109200    325.54444   -21882.777     126.1502   -22008.928    13910.199 
  109400    308.15767   -21896.359    119.41273   -22015.772    -1686.063 
  109600    273.88191   -21903.313    106.13069   -22009.444   -3612.5316 
  109800    294.92935   -21884.578    114.28669   -21998.864   -3753.6868 
  110000    303.47271   -21891.987    117.59728   -22009.584    22879.331 
  110200    292.41253   -21903.979    113.31141    -22017.29    11985.953 
  110400    284.80033   -21873.811    110.36164   -21984.173    121.94968 
  110600       315.05   -21889.024    122.08355   -22011.107   -6668.2427 
  110800    291.56098   -21908.014    112.98143   -22020.996    9689.1301 
  111000    268.11942   -21903.872     103.8977   -22007.769   -28705.938 
  111200      331.141   -21879.449    128.31889   -22007.768     1425.256 
  111400    298.29372    -21887.18     115.5904    -22002.77   -10060.055 
  111600    292.89014    -21893.14    113.49648   -22006.637    8093.8022 
  111800    295.41924   -21874.981    114.47652   -21989.458    20706.041 
  112000     328.6265   -21854.438    127.34451   -21981.782    8431.0157 
  112200    324.56018   -21882.262    125.76879   -22008.031    1135.3956 
  112400    248.65893   -21896.194    96.356654   -21992.551   -22365.351 
  112600    411.78444   -21863.243    159.56866   -22022.812    30015.555 
  112800    278.64007   -21888.233     107.9745   -21996.208   -726.54799 
  113000    287.94719   -21897.105    111.58106   -22008.686    16170.816 
  113200    402.43337    -21857.55    155.94507   -22013.495    7058.1019 
  113400    327.43822   -21879.497    126.88405   -22006.381   -6759.4595 
  113600    238.52776     -21877.9    92.430772   -21970.331   -7637.7217 
  113800    228.65721   -21889.274    88.605884    -21977.88    14454.748 
  114000    247.04268   -21912.412    95.730348   -22008.142   -4454.0825 
  114200     266.0444   -21863.168    103.09362   -21966.261    -17772.16 
  114400    334.67537   -21883.295    129.68848   -22012.983    23837.827 
  114600    288.61665   -21900.524    111.84048   -22012.365    -6814.875 
  114800    298.81609   -21873.743    115.79282   -21989.535    2922.9276 
  115000    292.21375   -21893.261    113.23438   -22006.496   -21203.359 
  115200    243.34077    -21873.74    94.295838   -21968.036   -18849.474 
  115400    222.35697   -21875.128    86.164507   -21961.293   -5930.1449 
  115600    278.67471    -21900.49    107.98793   -22008.478   -21870.042 
  115800    271.81716   -21879.526    105.33059   -21984.856    2518.4051 
  116000    319.65819   -21884.355    123.86924   -22008.224   -2672.3908 
  116200    289.99979   -21865.415    112.37646   -21977.791    31936.604 
  116400    349.98142   -21873.452    135.61966   -22009.072   -998.22309 
  116600    305.29861   -21885.017    118.30483   -22003.322    9315.9881 
  116800      319.226   -21897.679    123.70177    -22021.38    25201.165 
  117000    289.93044   -21897.787    112.34958   -22010.136    15343.152 
  117200     300.5234   -21884.879    116.45441   -22001.334    11457.659 
  117400    303.80307   -21880.239     117.7253   -21997.964     17980.56 
  117600    284.64582   -21908.449    110.30177   -22018.751    3258.2303 
  117800    297.67025   -21884.093     115.3488   -21999.442    678.75201 
  118000    324.40858   -21880.309    125.71005   -22006.019    22071.384 
  118200    254.05723   -21906.459    98.448525   -22004.907   -14016.932 
  118400    306.04126   -21874.531    118.59261   -21993.123    -11401.48 
  118600    321.07737    -21883.01    124.41918   -22007.429    2747.8356 
  118800    320.94509   -21894.353    124.36793   -22018.721   -14230.086 
  119000    318.31006   -21860.016    123.34684   -21983.362   -17545.551 
  119200    320.31378   -21886.103    124.12329   -22010.227   -13525.072 
  119400    263.58891   -21892.648     102.1421    -21994.79    32285.811 
  119600    327.09403    -21859.08    126.75067   -21985.831   -15762.579 
  119800     313.6708   -21887.248     121.5491   -22008.797   -5621.2941 
  120000     288.0003   -21886.449    111.60164   -21998.051    6388.6537 
  120200    321.19032    -21877.88    124.46295   -22002.343    2798.9766 
  120400    307.31803   -21888.094    119.08737   -22007.182   -3141.7448 
  120600    259.77116   -21902.049     100.6627   -22002.712    8690.5934 
  120800    329.69491    -21869.36    127.75853   -21997.119    8513.8914 
  121000     317.8673   -21886.367    123.17527   -22009.543    12984.777 
  121200    282.68735   -21902.528    109.54285   -22012.071    28946.512 
  121400    291.68189   -21871.932    113.02828   -21984.961    2670.3052 
  121600    298.67713   -21894.383    115.73897   -22010.122    2233.8175 
  121800    312.10946   -21893.102    120.94407   -22014.046    6699.1453 
  122000    313.03962   -21878.547    121.30451   -21999.851    18428.519 
  122200    291.88641   -21888.307    113.10753   -22001.414    10803.363 
  122400    300.05837   -21894.392    116.27421   -22010.666   -14787.237 
  122600     270.6105   -21877.262    104.86301   -21982.125   -5407.8376 
  122800    328.77259   -21873.822    127.40113   -22001.223    4867.6268 
  123000    301.08239   -21898.662    116.67102   -22015.333    32.383377 
  123200    322.59451   -21874.843    125.00709    -21999.85    4010.3479 
  123400    318.12145   -21877.919    123.27375   -22001.192    8210.8214 
  123600     341.2614   -21886.273     132.2406   -22018.514     16300.02 
  123800    314.29051   -21887.494    121.78924   -22009.283   -7690.4236 
  124000    291.92971   -21892.539    113.12431   -22005.664    3133.0083 
  124200    291.13728   -21888.844    112.81724   -22001.661    47636.948 
  124400    334.35066    -21879.44    129.56266   -22009.002   -27470.552 
  124600    323.00512   -21895.427     125.1662   -22020.593    20017.162 
  124800    325.28585   -21900.012    126.04999   -22026.062   -12996.456 
  125000    323.83873   -21875.041    125.48923    -22000.53    12050.864 
  125200    286.01609   -21898.388    110.83275   -22009.221   -2597.9425 
  125400    285.12843   -21893.572    110.48878   -22004.061   -4004.1617 
  125600    337.18593   -21871.436    130.66134   -22002.097      3840.96 
  125800    280.46836   -21899.785    108.68298   -22008.468    -13309.91 
  126000     278.0897   -21895.241    107.76123   -22003.002    -5769.363 
  126200    336.60867   -21882.458    130.43764   -22012.896    -6857.438 
  126400    266.08513   -21898.895     103.1094   -22002.004    1723.6673 
  126600    256.40677   -21909.854    99.358986   -22009.213    6407.1377 
  126800    272.34221   -21884.719    105.53405   -21990.253    1074.8807 
  127000    288.45107   -21885.995    111.77632   -21997.771   -6864.0008 
  127200    274.66611   -21908.012    106.43458   -22014.447   -5776.3791 
  127400    322.89557   -21881.153    125.12375   -22006.276     3984.298 
  127600     276.4259    -21888.26     107.1165   -21995.377    25194.646 
  127800    275.73247   -21909.785     106.8478   -22016.633   -2910.0774 
  128000    261.63474   -21902.272    101.38485   -22003.657   -1048.9832 
  128200      299.718   -21884.752    116.14232   -22000.895   -18038.312 
  128400    300.00196   -21880.217    116.25235    -21996.47    38288.103 
  128600    287.06031   -21904.245    111.23739   -22015.482    17204.994 
  128800     347.4791   -21878.069       134.65   -22012.719    23123.719 
  129000    295.35187   -21884.281    114.45042   -21998.731    5532.0305 
  129200    251.62681   -21904.619    97.506723   -22002.126   -6548.8921 
  129400    287.64879   -21871.054    111.46543   -21982.519    18129.749 
  129600    298.57934   -21887.664    115.70108   -22003.365    1123.0288 
  129800    319.47967   -21896.767    123.80007   -22020.567   -4189.4082 
  130000    328.93534   -21886.058    127.46419   -22013.522   -7748.9795 
  130200    286.67349   -21883.595     111.0875   -21994.683    5401.8561 
  130400     277.7786   -21897.812    107.64068   -22005.453    10187.472 
  130600    285.48161   -21902.594    110.62564    -22013.22    1604.8181 
  130800    323.91513   -21879.561    125.51883    -22005.08   -33898.028 
  131000    304.15147   -21897.744    117.86031   -22015.604    12536.387 
  131200    303.26245   -21886.816    117.51581   -22004.331     4689.075 
  131400    336.29433    -21874.05    130.31584   -22004.366   -7092.8698 
  131600    286.02701   -21899.709    110.83698   -22010.546    14550.415 
  131800    297.52368   -21890.112    115.29201   -22005.404   -13835.158 
  132000    279.19457   -21887.379    108.18938   -21995.568   -1693.3458 
  132200    300.90618   -21895.919    116.60274   -22012.522   -6495.0737 
  132400    298.37025   -21886.985    115.62006   -22002.605   -6340.0002 
  132600    331.71563   -21874.712    128.54157   -22003.253   -391.93954 
  132800    281.43652   -21897.958    109.05814   -22007.016   -7869.9309 
  133000    299.49146   -21885.676    116.05453   -22001.731   -1629.7849 
  133200     302.4713   -21879.365    117.20923   -21996.575     7211.126 
  133400    268.43555   -21905.875     104.0202   -22009.896    24968.627 
  133600    304.00238   -21879.516    117.80253   -21997.319    1744.9768 
  133800    312.49191    -21884.52    121.09227   -22005.612   -14199.593 
  134000     274.8714   -21899.445    106.51413   -22005.959   -8758.7008 
  134200    312.14085   -21877.332    120.95623   -21998.288    23458.322 
  134400    305.06842   -21882.602    118.21563   -22000.818   -8303.4024 
  134600    270.90232   -21896.076    104.97609   -22001.052   -11493.737 
  134800    317.85181   -21880.948    123.16926   -22004.117   -346.85119 
  135000    303.01841   -21883.662    117.42124   -22001.084   -3535.0723 
  135200    279.00684    -21895.92    108.11663   -22004.037    7939.3849 
  135400    278.49542   -21887.431    107.91845   -21995.349    13388.095 
  135600    308.74402   -21870.989    119.63995   -21990.629   -14689.163 
  135800    299.67078   -21900.589    116.12402   -22016.713    8095.9291 
  136000    300.73227   -21887.195    116.53535    -22003.73    4818.8845 
  136200    343.88865   -21877.887    133.25868   -22011.146   -13290.347 
  136400    295.47517   -21898.786     114.4982   -22013.284    2639.2057 
  136600    296.20631    -21888.33    114.78152   -22003.111   -5099.2221 
  136800    294.92293   -21879.235     114.2842   -21993.519   -17112.087 
  137000    292.22236   -21903.344    113.23771   -22016.582     9677.321 
  137200    300.83446   -21900.814    116.57495   -22017.389   -362.35077 
  137400    304.91389   -21887.818    118.15575   -22005.974   -17486.685 
  137600    307.97545   -21869.086    119.34212   -21988.428   -9074.0136 
  137800    281.91636   -21902.738    109.24409   -22011.982    7116.4584 
  138000    297.64679   -21883.156    115.33971   -21998.496    -12824.37 
  138200    302.69001   -21876.857    117.29399   -21994.151   -15987.915 
  138400    259.66859   -21902.303    100.62296   -22002.926   -7042.9367 
  138600    280.20193   -21883.698    108.57974   -21992.278    17131.986 
  138800    304.93969   -21879.103    118.16575   -21997.268    27798.219 
  139000    275.71322   -21898.974    106.84033   -22005.815    -18.41396 
  139200    310.36579   -21886.882    120.26839    -22007.15    22922.095 
  139400    290.61553   -21876.763    112.61506   -21989.378    7861.0651 
  139600     265.3404   -21896.329    102.82081    -21999.15   -11047.676 
  139800    318.83451   -21887.764    123.55006   -22011.314   -19823.639 
  140000     353.5603   -21862.982    137.00649   -21999.989    12059.267 
  140200    307.64737   -21880.851    119.21499   -22000.066    28440.243 
  140400    305.09908   -21894.207    118.22751   -22012.434    872.63375 
  140600    350.89015    -21869.71     135.9718   -22005.681    1832.2648 
  140800    314.39768   -21883.089    121.83077    -22004.92   -2880.8611 
  141000    311.75846   -21894.464    120.80806   -22015.272   -8120.3684 
  141200    314.50475   -21873.979    121.87226   -21995.851   -15395.627 
  141400    295.35045   -21880.998    114.44987   -21995.448   -9071.6539 
  141600    311.58962   -21899.794    120.74263   -22020.537   -20723.585 
  141800    347.62986   -21876.517    134.70841   -22011.226   -1152.0309 
  142000     279.9243   -21905.065    108.47215   -22013.537    7354.7335 
  142200    280.61974   -21898.149    108.74164   -22006.891    19456.224 
  142400    333.17788    -21885.09     129.1082   -22014.198   -7594.2188 
  142600    247.89944   -21905.683    96.062349   -22001.745    -4719.664 
  142800    291.29589   -21905.675     112.8787   -22018.554    7275.9887 
  143000    281.63077    -21886.38    109.13342   -21995.514   -826.49066 
  143200    304.03734   -21888.487    117.81608   -22006.303    6136.9536 
  143400    262.19002   -21912.179    101.60003   -22013.779    12833.407 
  143600    315.74059   -21881.492    122.35115   -22003.843   -1194.2571 
  143800    309.18279   -21888.919    119.80997   -22008.729    12963.676 
  144000     303.2521    -21905.99     117.5118   -22023.502   -326.41902 
  144200    341.28728   -21880.371    132.25063   -22012.622   -11856.983 
  144400    320.51675   -21884.787    124.20194   -22008.989    8549.4225 
  144600    297.01989   -21902.268    115.09678   -22017.364     6970.736 
  144800    314.71504     -21892.4    121.95375   -22014.354   -8.9267021 
  145000    313.41386   -21879.843    121.44953   -22001.292   -9320.5114 
  145200    324.46787   -21880.415    125.73302   -22006.148   -5300.8112 
  145400    291.14436   -21903.336    112.81998   -22016.156    5186.5012 
  145600    302.25031   -21877.013     117.1236   -21994.136   -10379.693 
  145800    343.61938   -21881.945    133.15433   -22015.099   -2896.8974 
  146000    318.32326   -21886.371    123.35195   -22009.723    17771.432 
  146200    271.03182   -21899.139    105.02627   -22004.165    11282.265 
  146400    286.18788   -21885.442    110.89932   -21996.341    5779.2769 
  146600    335.50794   -21879.867    130.01111   -22009.878   -7326.1331 
  146800    261.95815   -21900.576    101.51017   -22002.086   -11151.454 
  147000    309.62631   -21884.271    119.98184   -22004.253    -11038.15 
  147200    271.91198   -21886.269    105.36734   -21991.637     6658.034 
  147400    305.23047   -21904.998    118.27843   -22023.276    11975.317 
  147600    339.12304   -21876.216    131.41198   -22007.628   -24317.967 
  147800    303.39209    -21881.86    117.56604   -21999.426    6992.4298 
  148000    283.44574   -21908.616    109.83673   -22018.453   -591.15533 
  148200    267.74397   -21900.151    103.75221   -22003.903    18333.796 
  148400    345.60072   -21878.506    133.92211   -22012.428    -13256.65 
  148600    288.22296    -21893.47    111.68793   -22005.158   -10232.389 
  148800    313.80561   -21902.436    121.60134   -22024.038    10045.356 
  149000    315.35977    -21886.11    122.20359   -22008.314   -2948.0823 
  149200    312.66187   -21882.547    121.15814   -22003.705   -23291.021 
  149400    277.62099   -21907.705    107.57961   -22015.285    20784.715 
  149600    286.89015   -21881.731    111.17145   -21992.902    13082.944 
  149800    291.22059   -21877.921    112.84953    -21990.77   -3675.0116 
  150000    296.47538   -21890.033    114.88578   -22004.919   -21396.326 
  150200    270.51736   -21893.388    104.82691   -21998.215    8416.1845 
  150400    291.84542   -21883.511    113.09165   -21996.602    7045.8635 
  150600    342.34138   -21874.096     132.6591   -22006.755   -3474.9652 
  150800    305.27292   -21899.752    118.29488   -22018.047   -1972.0988 
  151000    313.57102   -21866.509    121.51043   -21988.019    5137.3935 
  151200    293.96998   -21893.272    113.91493   -22007.187   -8994.8902 
  151400      290.373   -21892.847    112.52108   -22005.368   -14517.759 
  151600    323.62252   -21873.303    125.40544   -21998.708   -11694.834 
  151800     272.7697   -21896.658    105.69971   -22002.358   -19671.662 
  152000    313.19246   -21883.855    121.36374   -22005.218   -31539.548 
  152200    330.21644   -21874.125    127.96062   -22002.085    1653.9774 
  152400    288.34405   -21884.818    111.73485   -21996.553   -738.75857 
  152600      249.899    -21898.87    96.837188   -21995.708   -25859.088 
  152800    327.26862    -21871.27    126.81833   -21998.088   -17479.755 
  153000    262.12502   -21887.572    101.57483   -21989.147   -7779.4228 
  153200    257.06142   -21896.852    99.612665   -21996.465    2761.3351 
  153400    309.24492   -21855.471    119.83405   -21975.305    7575.4129 
  153600    287.11345   -21887.303    111.25799   -21998.561   -15181.528 
  153800    331.49107   -21889.622    128.45455   -22018.077   -17323.434 
  154000    324.43838   -21857.069    125.72159    -21982.79    13417.269 
  154200    317.61186   -21881.629    123.07628   -22004.705   -9684.2399 
  154400    321.32221   -21888.922    124.51406   -22013.436    9775.4762 
  154600    288.17436   -21878.665    111.66909   -21990.334    7437.8076 
  154800    324.90105   -21875.103    125.90088   -22001.004    3655.4442 
  155000    300.11344   -21894.265    116.29555    -22010.56    -6357.579 
  155200    303.21629   -21878.943    117.49792   -21996.441   -8029.2303 
  155400     341.9077   -21836.844    132.49105   -21969.335    34428.364 
  155600    344.06607   -21871.351    133.32743   -22004.678    23078.671 
  155800    279.69378   -21896.419    108.38282   -22004.802   -13876.646 
  156000      312.504   -21884.005    121.09696   -22005.102    18772.801 
  156200    329.08118   -21868.525    127.52071   -21996.046    -26046.96 
  156400    276.42906   -21901.917    107.11773   -22009.034   -7959.7848 
  156600    297.75129   -21878.095    115.38021   -21993.475    14973.816 
  156800    302.88516   -21883.393    117.36961   -22000.763   -1024.2994 
  157000    275.05747   -21907.309    106.58623   -22013.895    10210.905 
  157200    324.87274   -21884.371    125.88991   -22010.261    -13214.29 
  157400    310.47717   -21885.247    120.31155   -22005.558    -9100.358 
  157600    261.96422   -21911.239    101.51253   -22012.752    3901.6843 
  157800    301.11901   -21891.875    116.68521    -22008.56     -307.408 
  158000    274.68181   -21882.102    106.44066   -21988.542    374.72427 
  158200     294.4877   -21875.973    114.11555   -21990.089   -717.45474 
  158400    285.06385   -21902.739    110.46375   -22013.203    14197.495 
  158600    306.74282   -21877.302    118.86447   -21996.167    8859.2229 
  158800    280.58471   -21879.501    108.72807   -21988.229    196.28291 
  159000    294.72231   -21896.661    114.20646   -22010.868    4817.4166 
  159200    317.49405   -21873.236    123.03063   -21996.267    5481.5957 
  159400    337.04413    -21881.58    130.60639   -22012.187   -13233.113 
  159600    281.00694   -21896.423    108.89168   -22005.314    26014.051 
  159800    330.81223   -21879.961    128.19149   -22008.153    5855.5148 
  160000    366.69929   -21857.255    142.09792   -21999.353    -4707.213 
  160200      273.029   -21892.014    105.80019   -21997.814    28835.279 
  160400    288.87769   -21894.295    111.94164   -22006.237    -4259.875 
  160600    325.10655   -21868.091    125.98051   -21994.071    27201.753 
  160800     290.7588   -21893.032    112.67058   -22005.702    -6657.733 
  161000    314.22283   -21889.649    121.76301   -22011.412   -6480.3719 
  161200    330.19341   -21866.866     127.9517   -21994.818    6761.1501 
  161400    309.28064   -21898.521    119.84789   -22018.369    22567.491 
  161600    294.61115   -21889.462    114.16339   -22003.626   -1238.1938 
  161800    322.65802   -21876.988     125.0317    -22002.02   -1969.5767 
  162000    269.93108   -21913.514    104.59973   -22018.113    22510.371 
  162200    299.75756    -21891.08    116.15764   -22007.238    26487.049 
  162400    307.66494   -21882.559     119.2218    -22001.78     -5635.78 
  162600    293.63898   -21910.931    113.78666   -22024.717    -5038.812 
  162800      313.186   -21897.649    121.36124    -22019.01    -3313.164 
  163000    305.02144   -21885.994    118.19743   -22004.191    15342.082 
  163200    305.01533   -21867.167    118.19506   -21985.363    379.58619 
  163400    304.76051   -21893.843    118.09631    -22011.94   -8465.6145 
  163600     274.9606   -21893.634    106.54869   -22000.183   -15172.818 
  163800    308.28141   -21872.421    119.46068   -21991.881    5390.7541 
  164000    317.51754   -21883.841    123.03973   -22006.881   -3630.6231 
  164200    286.22668   -21896.374    110.91436   -22007.289    8471.6556 
  164400    273.74534   -21890.457    106.07777   -21996.534    31145.309 
  164600     300.7904   -21874.792    116.55788    -21991.35    8458.5659 
  164800    314.79979   -21902.502    121.98659   -22024.489    9241.6655 
  165000    294.90549   -21890.335    114.27744   -22004.612   -24114.284 
  165200    326.71323   -21883.652    126.60311   -22010.255   -2119.5017 
  165400    271.48958   -21892.283    105.20365   -21997.486   -4872.8532 
  165600    286.73941   -21902.266    111.11304   -22013.379   -7352.7631 
  165800    288.35721   -21897.023    111.73995   -22008.763   -27328.348 
  166000    319.45599    -21880.38    123.79089   -22004.171     7585.902 
  166200     260.1944    -21906.45    100.82671   -22007.277   -20060.925 
  166400    293.39007   -21902.287    113.69021   -22015.977    5403.7433 
  166600    289.79823   -21889.981    112.29835   -22002.279    12667.132 
  166800    311.37112   -21877.592    120.65796   -21998.249   -13283.809 
  167000    311.47068   -21897.833    120.69654    -22018.53    10894.283 
  167200    274.71594    -21895.22    106.45388   -22001.674    19829.462 
  167400    339.92813   -21877.537    131.72396   -22009.261   -8107.5159 
  167600    282.58128   -21899.774    109.50175   -22009.276    17247.924 
  167800     277.7049   -21889.224    107.61212   -21996.836    2170.7811 
  168000    313.31857   -21889.492    121.41261   -22010.904     23488.44 
  168200    331.77591    -21873.67    128.56492   -22002.235   -9803.9174 
  168400    296.79361   -21894.008     115.0091   -22009.017    15455.152 
  168600    253.80215   -21897.802    98.349681   -21996.152   -5835.9153 
  168800    321.52887   -21877.143    124.59414   -22001.737    37248.224 
  169000    280.62414   -21893.467    108.74335    -22002.21   -17493.052 
  169200    255.25545   -21917.473     98.91284   -22016.386    18165.134 
  169400    290.50296   -21886.883    112.57144   -21999.455    2856.1236 
  169600    307.99159    -21883.47    119.34837   -22002.819    648.16883 
  169800    296.61325    -21895.75    114.93921   -22010.689     47469.38 
  170000    296.49275   -21886.976    114.89251   -22001.868    663.98297 
  170200    307.55192   -21875.774      119.178   -21994.952    4585.9917 
  170400    294.89551   -21902.144    114.27357   -22016.417    10512.527 
  170600    295.01301   -21883.308    114.31911   -21997.627   -19415.174 
  170800    339.17228   -21877.093    131.43106   -22008.524     13251.14 
  171000    275.96299   -21879.168    106.93712   -21986.105    12378.723 
  171200    279.14011   -21888.828    108.16827   -21996.996   -6786.6485 
  171400    277.77752   -21916.931    107.64026   -22024.572    5345.6427 
  171600     303.6974   -21876.523    117.68436   -21994.207   -15836.194 
  171800    295.98724   -21884.988    114.69663   -21999.685   -10546.203 
  172000    306.95904   -21897.034    118.94826   -22015.983   -17482.699 
  172200    303.25593   -21854.531    117.51328   -21972.044   -11635.213 
  172400    300.89488   -21873.157    116.59836   -21989.756    13897.355 
  172600    265.69532   -21898.121    102.95835   -22001.079   -9318.4991 
  172800    312.92881   -21882.396    121.26158   -22003.657    16767.545 
  173000    270.67131   -21885.057    104.88657   -21989.944   -21066.459 
  173200    321.09505   -21898.018    124.42604   -22022.444    5045.6804 
  173400    331.12746   -21873.817    128.31365   -22002.131   -4821.5229 
  173600    324.56071    -21878.01      125.769   -22003.779    23889.188 
  173800    311.89832    -21901.79    120.86225   -22022.652    848.03305 
  174000    275.07701   -21889.772     106.5938   -21996.365    -1435.395 
  174200    334.00124   -21862.729    129.42725   -21992.157    15720.098 
  174400    269.23372   -21868.399    104.32949   -21972.728   -4776.7741 
  174600    284.98474    -21906.27     110.4331   -22016.703    17518.784 
  174800    261.17939    -21890.74     101.2084   -21991.948   -23083.641 
  175000    320.30228   -21868.314    124.11883   -21992.432    -7826.354 
  175200    305.00903   -21897.439    118.19262   -22015.631        27849 
  175400    288.88894   -21885.724      111.946    -21997.67    12206.421 
  175600    266.97564   -21878.501    103.45448   -21981.956    7867.7207 
  175800    274.78672   -21896.578    106.48131   -22003.059    19843.708 
  176000    343.43125   -21872.524    133.08143   -22005.606    5894.4575 
  176200    348.57362   -21854.401    135.07413   -21989.475    3458.1258 
  176400     273.9707   -21898.243     106.1651   -22004.408   -2428.5771 
  176600    302.75705   -21868.386    117.31997   -21985.705    15036.286 
  176800    380.01791   -21841.879    147.25896   -21989.138    9048.0628 
  177000    315.43475   -21894.502    122.23264   -22016.735   -12662.359 
  177200    294.74482   -21881.298    114.21518   -21995.514   -17288.707 
  177400    313.63651   -21866.435    121.53581   -21987.971   -12522.217 
  177600    310.30792   -21889.093    120.24597   -22009.339   -9171.9666 
  177800    303.24539   -21879.691     117.5092   -21997.201   -18138.875 
[...]
  950000    304.23301   -21966.297    117.89191   -22084.189    34339.151 
  950200    329.34808   -21944.112    127.62413   -22071.736    7067.0645 
  950400    290.36651   -21951.306    112.51856   -22063.825    18770.044 
  950600    334.36905   -21961.513    129.56978   -22091.083   -6130.2718 
  950800    301.29354   -21968.934    116.75285   -22085.687    -4789.371 
  951000    280.24283   -21975.465    108.59558   -22084.061   -24812.131 
  951200    344.63413   -21946.047    133.54755   -22079.595   -5243.1085 
  951400    299.32054   -21969.349     115.9883   -22085.338    998.37354 
  951600    259.15056   -21990.945    100.42222   -22091.367    719.07882 
  951800    309.67685   -21965.607    120.00142   -22085.609    28468.982 
  952000    315.90305   -21950.889    122.41411   -22073.303   -20191.944 
  952200    306.88833   -21967.114    118.92086   -22086.035   -6221.4614 
  952400    296.98596    -21973.49    115.08363   -22088.573    17061.065 
  952600    330.34543   -21950.178    128.01061   -22078.189    26526.481 
  952800    276.21512   -21965.579    107.03482   -22072.614    22648.784 
  953000    270.39382   -21983.788    104.77904   -22088.567   -1301.8135 
  953200    323.44349   -21952.115    125.33607   -22077.451   -2617.2712 
  953400    286.54259     -21956.2    111.03678   -22067.237   -22379.144 
  953600    276.98824   -21969.695    107.33441    -22077.03    4590.7582 
  953800    330.00699   -21958.975    127.87946   -22086.854    26986.285 
  954000    273.48745   -21956.861    105.97784   -22062.839    4982.8314 
  954200    294.28725   -21964.683    114.03787    -22078.72    7934.2999 
  954400    230.68692   -21988.723    89.392405   -22078.115   -19614.027 
  954600    285.99175   -21960.559    110.82332   -22071.383   -170.83605 
  954800    325.81859    -21953.01    126.25643   -22079.267   -3108.4731 
  955000    267.99579   -21982.171    103.84979   -22086.021    20961.803 
  955200    289.54174   -21964.836    112.19896   -22077.035   -7127.4972 
  955400    264.27971   -21956.286    102.40979   -22058.696    -6053.058 
  955600    336.29428   -21953.484    130.31582   -22083.799    20484.688 
  955800    273.11804   -21971.001    105.83469   -22076.836    23591.074 
  956000    313.37566   -21949.891    121.43473   -22071.326   -10656.092 
  956200    325.65601   -21950.143    126.19343   -22076.337    17757.509 
  956400     305.7493   -21962.496    118.47948   -22080.976   -14471.743 
  956600     317.0456   -21958.164    122.85685   -22081.021    1817.2011 
  956800    314.02799   -21939.181    121.68751   -22060.868   -3225.4873 
  957000    275.18316   -21962.872    106.63493   -22069.507   -17151.483 
  957200      291.109   -21966.814    112.80628    -22079.62    5706.7633 
  957400    343.45692   -21940.737    133.09138   -22073.829   -46186.564 
  957600    291.81702   -21963.109    113.08064    -22076.19    5499.0724 
  957800    287.62963   -21974.345    111.45801   -22085.803   -4617.8438 
  958000    286.92026    -21969.09    111.18312   -22080.274    8915.5816 
  958200    385.48712   -21936.206     149.3783   -22085.584    -33040.75 
  958400    324.73919   -21978.757    125.83816   -22104.595    -29771.87 
  958600    301.67217   -21944.555    116.89957   -22061.455   -25952.524 
  958800     243.8175   -21936.028    94.480577   -22030.508   -13268.285 
  959000    231.73161   -21902.836    89.797229   -21992.633   -25855.898 
  959200    277.13147   -21913.917    107.38992   -22021.307    5083.7477 
  959400    238.62885   -21925.971    92.469945   -22018.441    42074.714 
  959600    432.85257   -21927.924    167.73267   -22095.657   -12616.142 
  959800    326.83038   -21949.213    126.64851   -22075.862    21908.626 
  960000    302.75909   -21952.192    117.32075   -22069.513    15596.732 
  960200    251.55647   -21987.804    97.479466   -22085.284     208.4746 
  960400    291.53769   -21951.071     112.9724   -22064.043   -598.91382 
  960600    322.97281   -21943.552    125.15368   -22068.705    3786.1956 
  960800    293.62492    -21963.93    113.78121   -22077.711    8952.7283 
  961000    326.03151   -21940.945    126.33894   -22067.284    16984.179 
  961200     312.2743    -21928.58    121.00795   -22049.588    15724.599 
  961400    275.96524   -21956.907      106.938   -22063.845   -18902.594 
  961600    309.88368    -21957.69    120.08157   -22077.771    48068.477 
  961800    320.73323   -21928.492    124.28583   -22052.778   -22255.657 
  962000    273.58316   -21955.902    106.01492   -22061.917    4449.4949 
  962200     288.6116   -21928.271    111.83853    -22040.11     29242.24 
  962400    269.39844   -21969.197    104.39333    -22073.59    20874.611 
  962600     315.8038   -21954.668    122.37565   -22077.044   -11809.489 
  962800    318.06554   -21952.744    123.25209   -22075.996    1941.4448 
  963000    257.85341   -21973.112    99.919565   -22073.031   -14043.843 
  963200    273.03523   -21977.177     105.8026    -22082.98     10646.75 
  963400    280.43985   -21957.003    108.67193   -22065.675    6737.9218 
  963600    327.89643   -21950.244    127.06161   -22077.305    30040.011 
  963800    249.45377   -21977.158     96.66466   -22073.822    12876.876 
  964000    298.59201   -21953.997    115.70599   -22069.703    24494.244 
  964200    286.64732   -21957.077    111.07736   -22068.155   -13059.833 
  964400    274.88491   -21978.881    106.51936     -22085.4   -6718.4076 
  964600    280.56286   -21968.225     108.7196   -22076.945   -14092.935 
  964800    303.07388   -21955.516    117.44274   -22072.959    -13809.99 
  965000    261.90736   -21970.864    101.49049   -22072.355   -27023.039 
  965200    278.58274   -21967.258    107.95229    -22075.21   -17100.083 
  965400     308.2289   -21943.791    119.44033   -22063.232    8702.6429 
  965600    314.90384   -21968.418    122.02691   -22090.445    1684.6842 
  965800    297.00415   -21964.859    115.09069   -22079.949   -11384.983 
  966000    327.76575   -21951.019    127.01097    -22078.03   -11393.795 
  966200     320.6578   -21936.027     124.2566   -22060.284     -23252.1 
  966400    278.77118    -21965.78    108.02531   -22073.806   -10190.591 
  966600    304.00697   -21959.179    117.80432   -22076.983      -1196.4 
  966800    333.80246   -21939.941    129.35022   -22069.291   -13117.777 
  967000    300.91508   -21971.816    116.60619   -22088.422   -1647.5986 
  967200     308.4053   -21959.859    119.50869   -22079.368   -1919.9591 
  967400    319.03701   -21948.613    123.62854   -22072.242   -16300.598 
  967600    269.99099   -21977.807    104.62294    -22082.43   -3263.2311 
  967800    297.31069   -21945.465    115.20947   -22060.674    17730.715 
  968000    320.51544    -21958.86    124.20143   -22083.061     17125.33 
  968200    260.54713   -21969.732    100.96339   -22070.696   -16963.274 
  968400    324.20778   -21937.483    125.63223   -22063.115   -10755.561 
  968600    271.09409    -21958.12     105.0504    -22063.17    1671.9226 
  968800    335.24994   -21956.365    129.91113   -22086.276    4055.5219 
  969000     299.2785   -21953.367    115.97201   -22069.339    -18030.12 
  969200    327.11677   -21943.391    126.75948    -22070.15    18309.157 
  969400    260.31285   -21965.116    100.87261   -22065.989    -3296.082 
  969600    304.21888   -21964.376    117.88643   -22082.263    3755.9661 
  969800    315.80765   -21949.458    122.37714   -22071.835    2556.5299 
  970000    273.28995   -21979.014    105.90131   -22084.915   -15448.988 
  970200    281.38445   -21960.931    109.03797   -22069.968   -7680.6639 
  970400    307.34048   -21954.382    119.09607   -22073.478    9138.3128 
  970600    275.17068   -21979.087     106.6301   -22085.717    4011.3647 
  970800    290.94512   -21962.043    112.74278   -22074.786    474.79832 
  971000    321.07281    -21952.47    124.41742   -22076.887   -26753.729 
  971200    274.84979   -21973.453    106.50575   -22079.958   -368.33954 
  971400    237.72704   -22001.017    92.120488   -22093.138   -14267.365 
  971600    275.57874   -21966.057    106.78822   -22072.846   -22496.453 
  971800    312.84726   -21947.646    121.22997   -22068.876    31053.735 
  972000    279.78628   -21965.561    108.41867    -22073.98   -6791.5593 
  972200    279.97301   -21971.799    108.49103    -22080.29   -20271.992 
  972400    289.19818   -21956.651    112.06583   -22068.717   -13765.812 
  972600     323.9626   -21963.576    125.53723   -22089.113   -7562.3577 
  972800    271.02592    -21970.62    105.02398   -22075.644   -8447.4143 
  973000    320.42688   -21962.486    124.16712   -22086.653    10060.289 
  973200    310.08625   -21947.094    120.16007   -22067.254   -21010.851 
  973400    307.19876   -21978.935    119.04115   -22097.976   -13993.109 
  973600    298.00329   -21960.545    115.47785   -22076.022    29012.251 
  973800    315.17767   -21952.545    122.13302   -22074.678   -1301.4052 
  974000    286.92037   -21971.013    111.18317   -22082.197    8548.5153 
  974200    279.12538    -21994.91    108.16257   -22103.072   -4759.6482 
  974400    267.79034   -21970.103    103.77018   -22073.873    12271.412 
  974600    303.64108   -21951.696    117.66253   -22069.359    1403.7869 
  974800    300.40622   -21970.605      116.409   -22087.014    7859.5935 
  975000    268.14287   -21972.385    103.90678   -22076.292    28731.961 
  975200    306.99492     -21957.2    118.96216   -22076.162   -4921.6968 
  975400     299.5274   -21963.124    116.06846   -22079.193   -6624.8313 
  975600    293.76662   -21985.141    113.83613   -22098.977    29687.703 
  975800    310.20665   -21957.101    120.20672   -22077.307    3623.5123 
  976000    325.23584   -21953.206    126.03061   -22079.237   -16965.942 
  976200    263.99543   -21977.634    102.29963   -22079.934    4366.9029 
  976400    279.38276   -21965.848     108.2623    -22074.11   -19334.407 
  976600    297.83927   -21957.032     115.4143   -22072.446   -4162.4267 
  976800    265.96876   -21973.108    103.06431   -22076.172   -23086.081 
  977000    304.36712    -21962.34    117.94387   -22080.284     1795.434 
  977200    326.83148   -21952.461    126.64893    -22079.11    25894.639 
  977400    305.42352   -21970.396    118.35324   -22088.749    14023.442 
  977600    270.54117   -21963.665    104.83614   -22068.501   -5743.8086 
  977800    295.01077   -21960.886    114.31824   -22075.204   -4021.0067 
  978000      306.468   -21963.297    118.75797   -22082.055    17201.005 
  978200    316.24826   -21968.474    122.54788   -22091.022    17379.876 
  978400    317.87147   -21944.694    123.17688   -22067.871    11351.473 
  978600    286.20869   -21968.565    110.90739   -22079.472   -20142.549 
  978800    292.32551    -21967.18    113.27768   -22080.458   -7563.5864 
  979000    309.87299   -21940.791    120.07743   -22060.869   -16886.844 
  979200    334.16029   -21958.329    129.48888   -22087.818    1592.9114 
  979400    283.08049   -21975.431    109.69519   -22085.126   -18372.392 
  979600    303.81923   -21950.097    117.73156   -22067.828    8403.3066 
  979800    300.70618   -21958.792    116.52524   -22075.317    7102.5573 
  980000    317.09986   -21959.506    122.87788   -22082.384    1343.6341 
  980200    311.24862   -21955.212    120.61049   -22075.823    2595.2017 
  980400    288.01215   -21976.078    111.60624   -22087.684    4067.6468 
  980600    283.59156   -21963.948    109.89324   -22073.841    30057.735 
  980800    308.88993   -21948.443    119.69649    -22068.14    3953.4119 
  981000    292.95311   -21972.066    113.52088   -22085.587   -10497.373 
  981200     300.5623   -21964.632    116.46949   -22081.102    -3972.554 
  981400    335.82225   -21950.538     130.1329   -22080.671    -11516.53 
  981600    279.79225   -21976.113    108.42098   -22084.534    3225.7946 
  981800    290.73808    -21962.39    112.66255   -22075.053    3013.3287 
  982000    353.75217   -21945.605    137.08084   -22082.686    5025.5186 
  982200    297.36295    -21959.23    115.22972    -22074.46   -19841.432 
  982400    299.42287   -21972.294    116.02795   -22088.322    10985.629 
  982600    261.22724   -21982.795    101.22694   -22084.022   -15078.135 
  982800    327.73677   -21955.284    126.99974   -22082.284   -6310.4596 
  983000    281.02916   -21968.214    108.90029   -22077.115   -16907.764 
  983200    267.54695   -21990.998    103.67586   -22094.673    12728.458 
  983400    280.36902   -21963.497    108.64448   -22072.141   -1553.2986 
  983600    282.27362   -21963.889    109.38253   -22073.271    1909.4574 
  983800    281.74847   -21983.765    109.17903   -22092.944    3546.8654 
  984000     282.4194     -21958.8    109.43902   -22068.239    311.43734 
  984200    292.90177   -21955.357    113.50099   -22068.858   -6160.0761 
  984400    277.54963   -21986.195    107.55196   -22093.747    3822.5665 
  984600    260.11854   -21972.122    100.79732    -22072.92   -27871.658 
  984800    284.78442    -21965.88    110.35548   -22076.235   -21817.841 
  985000    336.60786   -21954.491    130.43733   -22084.928   -4026.2353 
  985200    304.34558   -21956.837    117.93553   -22074.773    -991.7052 
  985400    282.73848   -21980.855    109.56266   -22090.418   -3697.2087 
  985600    310.54814   -21947.418    120.33905   -22067.757    2561.8536 
  985800    298.22615   -21958.284    115.56422   -22073.848    -22486.05 
  986000    268.57123   -21970.858    104.07278   -22074.931     -6962.15 
  986200     300.9823   -21945.227    116.63224   -22061.859    15528.905 
  986400    325.78613   -21945.033    126.24385   -22071.277   -4343.1687 
  986600    296.88731   -21969.878    115.04541   -22084.924    5841.3882 
  986800    295.09806   -21964.731    114.35206   -22079.083   -28880.209 
  987000    316.66917   -21945.629    122.71098    -22068.34    5737.9945 
  987200    289.94821   -21972.367    112.35647   -22084.723   -25907.279 
  987400    288.71841   -21964.373    111.87992   -22076.253   -88.695813 
  987600    367.97721   -21944.154    142.59312   -22086.747   -783.84265 
  987800    319.63735   -21963.889    123.86117    -22087.75   -11579.144 
  988000     268.6357   -21975.866    104.09776   -22079.964   -20538.787 
  988200    290.29207   -21954.496    112.48972   -22066.986   -7891.6775 
  988400    283.64944   -21952.059    109.91566   -22061.975   -15941.373 
  988600    259.31406   -21973.898    100.48557   -22074.383    8354.4289 
  988800    325.49163   -21955.009    126.12973   -22081.139   -3592.6771 
  989000    390.70601   -21925.046    151.40065   -22076.447    -7456.617 
  989200    329.18654   -21953.401    127.56153   -22080.962   -1375.4047 
  989400     347.3962   -21956.866    134.61787   -22091.484    30295.187 
  989600    279.04554   -21969.169    108.13163   -22077.301    16979.451 
  989800    333.22975   -21942.251     129.1283   -22071.379   -17138.876 
  990000     290.8245   -21956.922    112.69604   -22069.618   -678.70045 
  990200    268.48349    -21971.71    104.03878   -22075.749   -9383.9605 
  990400     327.7123   -21943.258    126.99026   -22070.249   -477.42837 
  990600     286.4881   -21959.548    111.01566   -22070.564    5153.4522 
  990800    308.91852   -21967.768    119.70757   -22087.475    19903.622 
  991000    282.63059   -21940.209    109.52085    -22049.73    -6419.102 
  991200    302.78308   -21944.096    117.33005   -22061.426    -4697.084 
  991400    322.17258    -21958.17    124.84358   -22083.013   -9622.3723 
  991600    280.43635   -21955.321    108.67057   -22063.992    339.93405 
  991800    294.39411   -21935.771    114.07928   -22049.851    10754.943 
  992000    242.97879   -21962.575    94.155571   -22056.731    27650.964 
  992200    304.42032   -21963.615    117.96449    -22081.58   -26800.933 
  992400    358.99451   -21940.436    139.11228   -22079.549   -19464.602 
  992600    331.81618   -21957.472    128.58053   -22086.053   -3201.2959 
  992800    263.12088   -21962.278    101.96074   -22064.239   -4198.6639 
  993000    270.96718   -21979.945    105.00122   -22084.946    16232.355 
  993200    292.08381   -21949.434    113.18403   -22062.618    23589.352 
  993400    298.90081   -21958.253    115.82565   -22074.079    15594.653 
  993600    260.95997     -21975.5    101.12337   -22076.624    13030.666 
  993800    294.58288   -21960.764    114.15243   -22074.916   -3629.8605 
  994000    281.86951   -21955.748    109.22593   -22064.974   -32450.741 
  994200    287.23033   -21981.382    111.30328   -22092.685   -10760.727 
  994400    265.90905   -21975.173    103.04117   -22078.215    26049.035 
  994600    302.01419    -21957.39     117.0321   -22074.422   -4422.1606 
  994800    261.71355   -21963.318    101.41539   -22064.733    20488.093 
  995000    267.98268   -21979.014    103.84471   -22082.859   -7217.3521 
  995200    308.47314   -21952.597    119.53498   -22072.132    -12025.93 
  995400    281.60937   -21962.074    109.12513   -22071.199    20272.856 
  995600     259.4699   -21989.513    100.54596   -22090.059    4116.7252 
  995800    274.06311    -21966.32    106.20091   -22072.521   -6371.9239 
  996000      331.449   -21951.518    128.43825   -22079.956   -4574.0234 
  996200    288.63046   -21974.868    111.84584   -22086.714   -4373.2428 
  996400    290.30309   -21971.568    112.49399   -22084.062   -13047.283 
  996600    298.27783   -21955.815    115.58424   -22071.399    11347.626 
  996800    267.12479   -21974.859    103.51227   -22078.371   -19411.005 
  997000    317.77769   -21943.071    123.14054   -22066.211    14529.184 
  997200    343.42676   -21947.384    133.07969   -22080.464    6699.4544 
  997400    250.59009   -21970.669    97.104989   -22067.774    47.614404 
  997600    311.47867   -21962.158    120.69964   -22082.858    33900.743 
  997800     315.3062   -21958.474    122.18283   -22080.657   -234.65898 
  998000    321.36256   -21952.508     124.5297   -22077.038     18311.43 
  998200    295.22067   -21971.096    114.39957   -22085.495    1954.4516 
  998400    286.46048   -21972.021    111.00496   -22083.026   -828.91729 
  998600    323.45149   -21952.013    125.33917   -22077.352   -32696.932 
  998800     280.6652    -21966.43    108.75925   -22075.189   -17095.774 
  999000     333.4191   -21946.891    129.20167   -22076.093   -18506.429 
  999200    312.19092    -21949.43    120.97564   -22070.406   -4074.4205 
  999400    298.56097   -21963.886    115.69396    -22079.58    29357.173 
  999600    307.51592   -21961.328    119.16405   -22080.492    5310.8099 
  999800    320.74645   -21955.447    124.29095   -22079.738    16581.137 
 1000000    253.75104   -21965.811    98.329873    -22064.14   -8611.9933 
Loop time of 3746.54 on 8 procs for 1000000 steps with 131 atoms

Performance: 5.765 ns/day, 4.163 hours/ns, 266.913 timesteps/s
99.4% CPU use with 8 MPI tasks x no OpenMP threads

MPI task timing breakdown:
Section |  min time  |  avg time  |  max time  |%varavg| %total
---------------------------------------------------------------
Pair    | 2411.8     | 2802.4     | 3025.6     | 395.3 | 74.80
Neigh   | 0.10256    | 0.11283    | 0.12307    |   2.4 |  0.00
Comm    | 16.297     | 239.82     | 631.52     |1354.4 |  6.40
Output  | 0.092767   | 0.10122    | 0.15324    |   6.2 |  0.00
Modify  | 700.64     | 701.78     | 702.62     |   2.1 | 18.73
Other   |            | 2.341      |            |       |  0.06

Nlocal:    16.375 ave 42 max 2 min
Histogram: 2 2 0 2 0 0 0 0 0 2
Nghost:    485.125 ave 531 max 434 min
Histogram: 2 0 2 0 0 0 0 0 2 2
Neighs:    1151 ave 2774 max 158 min
Histogram: 2 1 1 2 0 0 0 0 0 2

Total # of neighbors = 9208
Ave neighs/atom = 70.2901
Neighbor list builds = 226
Dangerous builds = 0

unfix 1
unfix output
undump 1

Please see the log.cite file for references relevant to this simulation

Total wall time: 1:02:39
