ITEM: TIMESTEP
0
ITEM: NUMBER OF ATOMS
57
ITEM: BOX BOUNDS pp pp pp
0.0000000000000000e+00 3.2808000000000000e+01
0.0000000000000000e+00 1.7780000000000001e+01
0.0000000000000000e+00 2.4729999999999999e+00
ITEM: ATOMS id type x y z 
13 1 7.043 0.849 2.464 
29 1 7.397 1.432 1.228 
37 1 8.035 2.733 1.228 
1 1 6.173 17.398 2.464 
5 1 5.371 17.398 1.228 
9 1 3.973 17.398 1.228 
16 1 7.043 16.167 2.464 
32 1 7.397 15.584 1.228 
40 1 8.035 14.283 1.228 
45 1 3.236 17.398 2.464 
49 1 1.81 17.398 2.464 
53 1 1.083 17.398 1.228 
57 2 1.714 16.471 1.875 
4 1 10.968 8.508 2.464 
8 1 11.771 8.508 1.228 
12 1 13.168 8.508 1.228 
18 1 10.098 7.277 2.464 
21 1 8.308 3.392 2.464 
26 1 8.833 4.734 2.464 
34 1 9.745 6.694 1.228 
42 1 9.106 5.393 1.228 
48 1 13.906 8.508 2.464 
52 1 15.331 8.508 2.464 
56 1 16.058 8.508 1.228 
19 1 10.098 9.739 2.464 
24 1 8.308 13.624 2.464 
27 1 8.833 12.282 2.464 
35 1 9.745 10.322 1.228 
43 1 9.106 11.623 1.228 
3 1 22.577 8.508 2.464 
7 1 21.775 8.508 1.228 
11 1 20.377 8.508 1.228 
20 1 23.447 7.277 2.464 
36 1 23.801 6.694 1.228 
44 1 24.439 5.393 1.228 
47 1 19.64 8.508 2.464 
51 1 18.214 8.508 2.464 
55 1 17.487 8.508 1.228 
17 1 23.447 9.739 2.464 
33 1 23.801 10.322 1.228 
41 1 24.439 11.623 1.228 
15 1 26.502 0.849 2.464 
23 1 25.237 3.392 2.464 
28 1 24.712 4.734 2.464 
31 1 26.149 1.432 1.228 
39 1 25.511 2.733 1.228 
2 1 27.373 17.398 2.464 
6 1 28.175 17.398 1.228 
10 1 29.572 17.398 1.228 
14 1 26.502 16.167 2.464 
22 1 25.237 13.624 2.464 
25 1 24.712 12.282 2.464 
30 1 26.149 15.584 1.228 
38 1 25.511 14.283 1.228 
46 1 30.31 17.398 2.464 
50 1 31.735 17.398 2.464 
54 1 32.462 17.398 1.228 
ITEM: TIMESTEP
10
ITEM: NUMBER OF ATOMS
57
ITEM: BOX BOUNDS pp pp pp
0.0000000000000000e+00 3.2808000000000000e+01
0.0000000000000000e+00 1.7780000000000001e+01
0.0000000000000000e+00 2.4729999999999999e+00
ITEM: ATOMS id type x y z 
13 1 7.07486 0.832842 2.46429 
29 1 7.43259 1.44112 1.22777 
37 1 8.04522 2.6941 1.22773 
1 1 6.14423 17.3981 2.46441 
5 1 5.35752 17.3964 1.22812 
9 1 3.91228 17.4008 1.24261 
16 1 7.07502 16.1832 2.46429 
32 1 7.43269 15.5747 1.22777 
40 1 8.04524 14.3219 1.22773 
45 1 3.19098 17.4567 2.48665 
49 1 1.82874 17.4231 2.47863 
53 1 1.16882 17.368 1.22146 
57 2 1.61762 16.4092 1.83285 
4 1 10.9641 8.508 2.46423 
8 1 11.7993 8.508 1.22769 
12 1 13.2079 8.508 1.22773 
18 1 10.0567 7.28757 2.46428 
21 1 8.30845 3.3689 2.46426 
26 1 8.83054 4.75247 2.46426 
34 1 9.70271 6.67284 1.22777 
42 1 9.09511 5.43057 1.22773 
48 1 13.9078 8.508 2.46428 
52 1 15.3184 8.508 2.46428 
56 1 16.0496 8.508 1.22772 
19 1 10.0567 9.72843 2.46428 
24 1 8.30846 13.6471 2.46426 
27 1 8.83056 12.2635 2.46426 
35 1 9.70271 10.3432 1.22777 
43 1 9.09511 11.5854 1.22773 
3 1 22.5766 8.508 2.46423 
7 1 21.7459 8.508 1.22769 
11 1 20.3399 8.508 1.22773 
20 1 23.4887 7.28739 2.46428 
36 1 23.8444 6.67085 1.22777 
44 1 24.4489 5.43285 1.22773 
47 1 19.6414 8.508 2.46428 
51 1 18.229 8.508 2.46428 
55 1 17.4906 8.508 1.22772 
17 1 23.4887 9.72861 2.46428 
33 1 23.8444 10.3452 1.22777 
41 1 24.4489 11.5831 1.22773 
15 1 26.4586 0.839417 2.46428 
23 1 25.2363 3.36897 2.46426 
28 1 24.7123 4.75767 2.46426 
31 1 26.1042 1.45799 1.22777 
39 1 25.5011 2.69322 1.22773 
2 1 27.3676 17.398 2.46423 
6 1 28.2063 17.398 1.2277 
10 1 29.5935 17.398 1.22773 
14 1 26.4586 16.1766 2.46428 
22 1 25.2363 13.647 2.46426 
25 1 24.7123 12.2583 2.46426 
30 1 26.1042 15.558 1.22777 
38 1 25.5011 14.3228 1.22773 
46 1 30.3201 17.398 2.46423 
50 1 31.8014 17.3984 2.46341 
54 1 32.5241 17.4048 1.2248 
ITEM: TIMESTEP
20
ITEM: NUMBER OF ATOMS
57
ITEM: BOX BOUNDS pp pp pp
0.0000000000000000e+00 3.2808000000000000e+01
0.0000000000000000e+00 1.7780000000000001e+01
0.0000000000000000e+00 2.4729999999999999e+00
ITEM: ATOMS id type x y z 
13 1 7.08186 0.833669 2.46432 
29 1 7.44452 1.44064 1.22778 
37 1 8.0525 2.68906 1.22774 
1 1 6.14974 17.3981 2.46496 
5 1 5.37262 17.394 1.22842 
9 1 3.92045 17.4012 1.24886 
16 1 7.08271 16.1823 2.46432 
32 1 7.44485 15.575 1.22778 
40 1 8.05256 14.3268 1.22774 
45 1 3.17232 17.4806 2.49102 
49 1 1.82648 17.4139 2.47276 
53 1 1.17808 17.3458 1.22213 
57 2 1.60044 16.4094 1.83131 
4 1 10.9692 8.50798 2.46422 
8 1 11.7838 8.508 1.22772 
12 1 13.2018 8.508 1.22775 
18 1 10.0506 7.28999 2.46427 
21 1 8.31176 3.36562 2.46425 
26 1 8.82674 4.75465 2.46425 
34 1 9.6935 6.67835 1.22776 
42 1 9.08673 5.43208 1.22774 
48 1 13.9133 8.508 2.46426 
52 1 15.2982 8.508 2.46425 
56 1 16.0433 8.508 1.22775 
19 1 10.0506 9.726 2.46427 
24 1 8.3118 13.6503 2.46425 
27 1 8.8268 12.2612 2.46425 
35 1 9.6935 10.3376 1.22776 
43 1 9.08676 11.5838 1.22774 
3 1 22.5746 8.508 2.46422 
7 1 21.7603 8.508 1.22772 
11 1 20.3438 8.508 1.22775 
20 1 23.4948 7.2902 2.46427 
36 1 23.8527 6.67817 1.22776 
44 1 24.4573 5.43484 1.22774 
47 1 19.6344 8.508 2.46426 
51 1 18.2458 8.508 2.46425 
55 1 17.5012 8.508 1.22775 
17 1 23.4948 9.7258 2.46427 
33 1 23.8527 10.3378 1.22776 
41 1 24.4573 11.5812 1.22774 
15 1 26.4531 0.835884 2.46427 
23 1 25.2319 3.36836 2.46425 
28 1 24.7168 4.75813 2.46425 
31 1 26.097 1.4487 1.22776 
39 1 25.4924 2.69202 1.22774 
2 1 27.3704 17.398 2.46423 
6 1 28.2001 17.398 1.22772 
10 1 29.5919 17.398 1.22767 
14 1 26.4531 16.1801 2.46427 
22 1 25.2319 13.6476 2.46425 
25 1 24.7168 12.2579 2.46425 
30 1 26.097 15.5673 1.22776 
38 1 25.4924 14.324 1.22774 
46 1 30.3336 17.3981 2.46408 
50 1 31.791 17.3999 2.46111 
54 1 32.5183 17.4131 1.2225 
ITEM: TIMESTEP
30
ITEM: NUMBER OF ATOMS
57
ITEM: BOX BOUNDS pp pp pp
0.0000000000000000e+00 3.2808000000000000e+01
0.0000000000000000e+00 1.7780000000000001e+01
0.0000000000000000e+00 2.4729999999999999e+00
ITEM: ATOMS id type x y z 
13 1 7.09613 0.826261 2.46457 
29 1 7.47755 1.42366 1.22793 
37 1 8.08406 2.67704 1.22776 
1 1 6.15977 17.3975 2.46685 
5 1 5.38839 17.3837 1.23033 
9 1 3.93205 17.4118 1.26271 
16 1 7.10205 16.1905 2.46458 
32 1 7.4799 15.5904 1.22793 
40 1 8.0845 14.338 1.22776 
45 1 3.19553 17.562 2.50289 
49 1 1.83334 17.386 2.46842 
53 1 1.17268 17.2842 1.20966 
57 2 1.57064 16.3808 1.83347 
4 1 10.9641 8.50776 2.46425 
8 1 11.7603 8.50793 1.22773 
12 1 13.1936 8.50801 1.22775 
18 1 10.0313 7.29664 2.46427 
21 1 8.32784 3.36135 2.46428 
26 1 8.81142 4.76044 2.46426 
34 1 9.65594 6.68945 1.22774 
42 1 9.05549 5.44031 1.22774 
48 1 13.9397 8.508 2.46425 
52 1 15.2996 8.508 2.46425 
56 1 16.0411 8.508 1.22775 
19 1 10.0313 9.71914 2.46427 
24 1 8.32811 13.654 2.46428 
27 1 8.81176 12.2545 2.46426 
35 1 9.65601 10.3263 1.22774 
43 1 9.05574 11.5749 1.22774 
3 1 22.5792 8.508 2.46425 
7 1 21.7823 8.508 1.22773 
11 1 20.351 8.508 1.22775 
20 1 23.5124 7.29857 2.46427 
36 1 23.888 6.69478 1.22774 
44 1 24.4887 5.44554 1.22774 
47 1 19.6069 8.508 2.46425 
51 1 18.2461 8.508 2.46425 
55 1 17.5039 8.508 1.22775 
17 1 23.5124 9.71743 2.46427 
33 1 23.888 10.3212 1.22774 
41 1 24.4887 11.5705 1.22774 
15 1 26.4372 0.826667 2.46427 
23 1 25.2165 3.36212 2.46426 
28 1 24.7317 4.76544 2.46426 
31 1 26.062 1.43224 1.22774 
39 1 25.4619 2.68021 1.22774 
2 1 27.3608 17.398 2.46421 
6 1 28.1985 17.3978 1.22765 
10 1 29.5858 17.3973 1.22683 
14 1 26.4371 16.1893 2.46427 
22 1 25.2165 13.6539 2.46426 
25 1 24.7317 12.2506 2.46426 
30 1 26.062 15.5838 1.22774 
38 1 25.4619 14.3358 1.22774 
46 1 30.3356 17.3974 2.463 
50 1 31.7884 17.4124 2.45356 
54 1 32.5099 17.4435 1.21632 
ITEM: TIMESTEP
40
ITEM: NUMBER OF ATOMS
57
ITEM: BOX BOUNDS pp pp pp
0.0000000000000000e+00 3.2808000000000000e+01
0.0000000000000000e+00 1.7780000000000001e+01
0.0000000000000000e+00 2.4729999999999999e+00
ITEM: ATOMS id type x y z 
13 1 7.10835 0.829863 2.46489 
29 1 7.50279 1.41164 1.22824 
37 1 8.11039 2.66597 1.22783 
1 1 6.17239 17.3961 2.4684 
5 1 5.36879 17.3724 1.23242 
9 1 3.95343 17.4262 1.26829 
16 1 7.12207 16.1885 2.46491 
32 1 7.5083 15.6014 1.22825 
40 1 8.11136 14.3479 1.22783 
45 1 3.2003 17.6245 2.5053 
49 1 1.82846 17.3616 2.46562 
53 1 1.17008 17.2434 1.20344 
57 2 1.56426 16.3528 1.83796 
4 1 10.9546 8.50732 2.46424 
8 1 11.7478 8.50773 1.22776 
12 1 13.1783 8.50803 1.22775 
18 1 10.0143 7.29454 2.46424 
21 1 8.34129 3.35479 2.46429 
26 1 8.79676 4.76227 2.46424 
34 1 9.63076 6.70423 1.22776 
42 1 9.02957 5.4504 1.22776 
48 1 13.9489 8.50801 2.46425 
52 1 15.3011 8.508 2.46425 
56 1 16.0334 8.508 1.22775 
19 1 10.0144 9.72071 2.46424 
24 1 8.34186 13.6595 2.46429 
27 1 8.79745 12.2512 2.46424 
35 1 9.63095 10.3109 1.22776 
43 1 9.03008 11.5637 1.22776 
3 1 22.5877 8.508 2.46424 
7 1 21.7936 8.508 1.22776 
11 1 20.3667 8.508 1.22775 
20 1 23.5291 7.29589 2.46424 
36 1 23.9145 6.70849 1.22776 
44 1 24.5157 5.45452 1.22776 
47 1 19.5956 8.508 2.46425 
51 1 18.2426 8.508 2.46425 
55 1 17.5112 8.508 1.22775 
17 1 23.5291 9.72011 2.46424 
33 1 23.9145 10.3075 1.22776 
41 1 24.5157 11.5615 1.22776 
15 1 26.4264 0.826771 2.46422 
23 1 25.2024 3.3587 2.46424 
28 1 24.747 4.7653 2.46424 
31 1 26.0367 1.41847 1.22776 
39 1 25.4358 2.67032 1.22776 
2 1 27.3624 17.398 2.46409 
6 1 28.1919 17.3975 1.22753 
10 1 29.5798 17.3958 1.2257 
14 1 26.4263 16.1892 2.46422 
22 1 25.2024 13.6573 2.46424 
25 1 24.747 12.2507 2.46424 
30 1 26.0367 15.5975 1.22776 
38 1 25.4358 14.3457 1.22776 
46 1 30.3409 17.3971 2.46189 
50 1 31.7864 17.4282 2.4504 
54 1 32.4986 17.4648 1.21346 
ITEM: TIMESTEP
50
ITEM: NUMBER OF ATOMS
57
ITEM: BOX BOUNDS pp pp pp
0.0000000000000000e+00 3.2808000000000000e+01
0.0000000000000000e+00 1.7780000000000001e+01
0.0000000000000000e+00 2.4729999999999999e+00
ITEM: ATOMS id type x y z 
13 1 7.10779 0.826008 2.46553 
29 1 7.52105 1.39057 1.22877 
37 1 8.14262 2.65278 1.22794 
1 1 6.17708 17.3932 2.4704 
5 1 5.34479 17.3563 1.23564 
9 1 3.96469 17.4658 1.26798 
16 1 7.13539 16.1953 2.4656 
32 1 7.53487 15.6205 1.22881 
40 1 8.14487 14.3587 1.22795 
45 1 3.24205 17.6856 2.50262 
49 1 1.83142 17.3319 2.46217 
53 1 1.14723 17.2004 1.19864 
57 2 1.56264 16.3206 1.84323 
4 1 10.9451 8.50636 2.46424 
8 1 11.7422 8.50717 1.22775 
12 1 13.167 8.50811 1.22775 
18 1 10.0009 7.29635 2.46424 
21 1 8.35978 3.34812 2.46439 
26 1 8.7768 4.76099 2.46425 
34 1 9.60244 6.71791 1.22776 
42 1 8.99579 5.4591 1.22777 
48 1 13.938 8.50806 2.46425 
52 1 15.3025 8.50801 2.46425 
56 1 16.0329 8.508 1.22775 
19 1 10.0014 9.71766 2.46424 
24 1 8.36072 13.664 2.4644 
27 1 8.77794 12.2497 2.46425 
35 1 9.60285 10.2959 1.22776 
43 1 8.99672 11.5525 1.22777 
3 1 22.5976 8.50799 2.46424 
7 1 21.8006 8.508 1.22775 
11 1 20.3764 8.508 1.22775 
20 1 23.5425 7.29787 2.46424 
36 1 23.9436 6.72138 1.22776 
44 1 24.5502 5.46355 1.22776 
47 1 19.6041 8.508 2.46425 
51 1 18.2401 8.508 2.46425 
55 1 17.5099 8.508 1.22775 
17 1 23.5425 9.71812 2.46424 
33 1 23.9436 10.2946 1.22776 
41 1 24.5502 11.5524 1.22776 
15 1 26.4236 0.821886 2.46418 
23 1 25.1846 3.35188 2.46424 
28 1 24.7666 4.76613 2.46424 
31 1 26.0146 1.39775 1.22772 
39 1 25.4038 2.65651 1.22775 
2 1 27.3669 17.3981 2.46386 
6 1 28.1864 17.3965 1.22726 
10 1 29.5812 17.3922 1.22422 
14 1 26.4231 16.1942 2.46418 
22 1 25.1846 13.6641 2.46424 
25 1 24.7666 12.2498 2.46424 
30 1 26.0145 15.6182 1.22772 
38 1 25.4038 14.3594 1.22775 
46 1 30.3383 17.3988 2.46066 
50 1 31.7764 17.4523 2.45016 
54 1 32.4889 17.4796 1.21495 
ITEM: TIMESTEP
60
ITEM: NUMBER OF ATOMS
57
ITEM: BOX BOUNDS pp pp pp
0.0000000000000000e+00 3.2808000000000000e+01
0.0000000000000000e+00 1.7780000000000001e+01
0.0000000000000000e+00 2.4729999999999999e+00
ITEM: ATOMS id type x y z 
13 1 7.07753 0.818806 2.46879 
29 1 7.57156 1.32083 1.23169 
37 1 8.27252 2.61638 1.22863 
1 1 6.15597 17.3721 2.47975 
5 1 5.32254 17.2963 1.24273 
9 1 3.99211 17.6869 1.24931 
16 1 7.18512 16.2099 2.46914 
32 1 7.64097 15.6744 1.23193 
40 1 8.27902 14.3891 1.22872 
45 1 3.24603 17.8405 2.48109 
49 1 1.86717 17.2411 2.4573 
53 1 1.10518 17.0643 1.17895 
57 2 1.5869 16.2154 1.86296 
4 1 10.9092 8.50173 2.46425 
8 1 11.7181 8.50349 1.22775 
12 1 13.1244 8.50866 1.22775 
18 1 9.95698 7.29975 2.46425 
21 1 8.43925 3.33088 2.46501 
26 1 8.69144 4.73445 2.46433 
34 1 9.50924 6.76677 1.22777 
42 1 8.85984 5.48074 1.22783 
48 1 13.9016 8.50859 2.46425 
52 1 15.3112 8.5081 2.46425 
56 1 16.0334 8.50796 1.22775 
19 1 9.95835 9.70874 2.46425 
24 1 8.44022 13.6753 2.4651 
27 1 8.69551 12.2512 2.46433 
35 1 9.50972 10.2415 1.22777 
43 1 8.86363 11.5173 1.22784 
3 1 22.6335 8.50792 2.46425 
7 1 21.8246 8.50796 1.22775 
11 1 20.4186 8.508 1.22775 
20 1 23.5856 7.30306 2.46424 
36 1 24.0366 6.77224 1.22776 
44 1 24.6826 5.49665 1.22776 
47 1 19.6411 8.508 2.46425 
51 1 18.2337 8.508 2.46425 
55 1 17.5075 8.50798 1.22775 
17 1 23.5856 9.71289 2.46424 
33 1 24.0367 10.2437 1.22776 
41 1 24.6825 11.519 1.22776 
15 1 26.4052 0.809137 2.46392 
23 1 25.105 3.33964 2.4642 
28 1 24.8469 4.7697 2.46424 
31 1 25.9363 1.34009 1.2275 
39 1 25.2716 2.6141 1.22772 
2 1 27.3656 17.3981 2.46281 
6 1 28.185 17.3886 1.22607 
10 1 29.6018 17.3785 1.2213 
14 1 26.4016 16.2077 2.46391 
22 1 25.105 13.6762 2.4642 
25 1 24.8468 12.2457 2.46424 
30 1 25.935 15.6755 1.2275 
38 1 25.2715 14.4015 1.22772 
46 1 30.3399 17.4187 2.45811 
50 1 31.7754 17.5446 2.45931 
54 1 32.4991 17.5045 1.22728 
ITEM: TIMESTEP
70
ITEM: NUMBER OF ATOMS
57
ITEM: BOX BOUNDS pp pp pp
0.0000000000000000e+00 3.2808000000000000e+01
0.0000000000000000e+00 1.7780000000000001e+01
0.0000000000000000e+00 2.4729999999999999e+00
ITEM: ATOMS id type x y z 
13 1 7.07909 0.808664 2.4691 
29 1 7.55874 1.32068 1.23208 
37 1 8.26722 2.5942 1.22874 
1 1 6.15004 17.3707 2.4786 
5 1 5.3426 17.3163 1.24253 
9 1 3.97491 17.6991 1.24535 
16 1 7.17211 16.2326 2.46937 
32 1 7.63109 15.6986 1.23238 
40 1 8.29251 14.3996 1.22883 
45 1 3.25496 17.8179 2.47978 
49 1 1.89611 17.2546 2.45799 
53 1 1.11271 17.058 1.18063 
57 2 1.58893 16.2139 1.86174 
4 1 10.8973 8.49533 2.46425 
8 1 11.7191 8.50191 1.22775 
12 1 13.1151 8.50878 1.22775 
18 1 9.95374 7.30094 2.46426 
21 1 8.44183 3.31661 2.46511 
26 1 8.68735 4.73881 2.46436 
34 1 9.50034 6.7615 1.22776 
42 1 8.84248 5.46643 1.22784 
48 1 13.8845 8.50882 2.46425 
52 1 15.3122 8.50814 2.46425 
56 1 16.0346 8.50793 1.22775 
19 1 9.95926 9.70028 2.46426 
24 1 8.44751 13.6753 2.46519 
27 1 8.6866 12.2563 2.46437 
35 1 9.5033 10.2357 1.22776 
43 1 8.84155 11.5212 1.22785 
3 1 22.6416 8.50775 2.46425 
7 1 21.8218 8.50793 1.22775 
11 1 20.4245 8.50801 1.22775 
20 1 23.5849 7.30887 2.46425 
36 1 24.045 6.77671 1.22775 
44 1 24.7053 5.49431 1.22775 
47 1 19.6553 8.50801 2.46425 
51 1 18.2287 8.508 2.46425 
55 1 17.5072 8.50797 1.22775 
17 1 23.5848 9.70694 2.46425 
33 1 24.0451 10.239 1.22775 
41 1 24.7052 11.5208 1.22775 
15 1 26.4077 0.805114 2.46388 
23 1 25.0974 3.33968 2.46421 
28 1 24.8576 4.75516 2.46425 
31 1 25.9383 1.32775 1.22744 
39 1 25.2546 2.6124 1.2277 
2 1 27.3717 17.3982 2.46271 
6 1 28.1893 17.387 1.22599 
10 1 29.5885 17.3783 1.22168 
14 1 26.4034 16.2121 2.46388 
22 1 25.0973 13.6757 2.46421 
25 1 24.8576 12.2603 2.46425 
30 1 25.9366 15.6884 1.22744 
38 1 25.2539 14.4029 1.2277 
46 1 30.3436 17.4241 2.45833 
50 1 31.7869 17.5489 2.46226 
54 1 32.5031 17.4999 1.22771 
ITEM: TIMESTEP
80
ITEM: NUMBER OF ATOMS
57
ITEM: BOX BOUNDS pp pp pp
0.0000000000000000e+00 3.2808000000000000e+01
0.0000000000000000e+00 1.7780000000000001e+01
0.0000000000000000e+00 2.4729999999999999e+00
ITEM: ATOMS id type x y z 
13 1 7.0767 0.805806 2.46958 
29 1 7.55347 1.32252 1.23263 
37 1 8.2797 2.58626 1.22897 
1 1 6.14804 17.364 2.47726 
5 1 5.33538 17.3368 1.24092 
9 1 3.97894 17.7108 1.24039 
16 1 7.1709 16.2349 2.46983 
32 1 7.63965 15.7016 1.23292 
40 1 8.31024 14.4118 1.22906 
45 1 3.24457 17.8097 2.47503 
49 1 1.88688 17.2575 2.4577 
53 1 1.12413 17.0547 1.18449 
57 2 1.59744 16.2131 1.86111 
4 1 10.8834 8.49218 2.46425 
8 1 11.7094 8.49901 1.22775 
12 1 13.1057 8.50887 1.22775 
18 1 9.94143 7.29804 2.46427 
21 1 8.45102 3.30724 2.46531 
26 1 8.67703 4.73675 2.46442 
34 1 9.49082 6.75708 1.22777 
42 1 8.8224 5.46169 1.22789 
48 1 13.8615 8.50945 2.46425 
52 1 15.3045 8.50825 2.46425 
56 1 16.046 8.50789 1.22775 
19 1 9.94889 9.69744 2.46427 
24 1 8.458 13.6856 2.46541 
27 1 8.67408 12.2531 2.46442 
35 1 9.49413 10.2359 1.22777 
43 1 8.81737 11.5208 1.2279 
3 1 22.6523 8.50757 2.46425 
7 1 21.8289 8.50782 1.22775 
11 1 20.4318 8.50801 1.22775 
20 1 23.5945 7.30993 2.46425 
36 1 24.0551 6.77682 1.22775 
44 1 24.733 5.49024 1.22774 
47 1 19.6756 8.50802 2.46425 
51 1 18.234 8.508 2.46425 
55 1 17.4924 8.50794 1.22775 
17 1 23.5942 9.70549 2.46425 
33 1 24.055 10.2384 1.22775 
41 1 24.7331 11.5243 1.22774 
15 1 26.4089 0.801448 2.4638 
23 1 25.0857 3.32712 2.46419 
28 1 24.8708 4.75941 2.46424 
31 1 25.9376 1.32278 1.22736 
39 1 25.2358 2.6013 1.22768 
2 1 27.3709 17.3977 2.46261 
6 1 28.1952 17.3838 1.22588 
10 1 29.5972 17.3818 1.22237 
14 1 26.403 16.2163 2.46379 
22 1 25.0855 13.6887 2.46419 
25 1 24.8708 12.2551 2.46424 
30 1 25.9343 15.6931 1.22736 
38 1 25.2347 14.4142 1.22768 
46 1 30.35 17.436 2.45912 
50 1 31.7914 17.5506 2.4652 
54 1 32.5016 17.4883 1.23053 
ITEM: TIMESTEP
90
ITEM: NUMBER OF ATOMS
57
ITEM: BOX BOUNDS pp pp pp
0.0000000000000000e+00 3.2808000000000000e+01
0.0000000000000000e+00 1.7780000000000001e+01
0.0000000000000000e+00 2.4729999999999999e+00
ITEM: ATOMS id type x y z 
13 1 7.08191 0.804207 2.47024 
29 1 7.54446 1.32908 1.23339 
37 1 8.29648 2.58132 1.22948 
1 1 6.15655 17.3595 2.47432 
5 1 5.33993 17.3688 1.23768 
9 1 3.97822 17.7304 1.23213 
16 1 7.17424 16.2284 2.47039 
32 1 7.65254 15.7021 1.23361 
40 1 8.339 14.4188 1.22957 
45 1 3.24163 17.8074 2.46718 
49 1 1.88775 17.2593 2.45861 
53 1 1.12005 17.0444 1.18562 
57 2 1.61409 16.2078 1.86184 
4 1 10.8783 8.49052 2.46426 
8 1 11.6942 8.49485 1.22776 
12 1 13.1012 8.50809 1.22775 
18 1 9.9209 7.30105 2.46428 
21 1 8.46909 3.29583 2.46577 
26 1 8.65864 4.73586 2.46456 
34 1 9.48221 6.75169 1.22779 
42 1 8.80054 5.45552 1.22801 
48 1 13.8629 8.51071 2.46425 
52 1 15.2992 8.50877 2.46425 
56 1 16.0452 8.50788 1.22775 
19 1 9.92629 9.69146 2.46429 
24 1 8.48125 13.6886 2.4659 
27 1 8.64961 12.2494 2.46457 
35 1 9.48651 10.2369 1.22779 
43 1 8.79313 11.52 1.22804 
3 1 22.6589 8.50652 2.46425 
7 1 21.8449 8.50742 1.22775 
11 1 20.4388 8.50801 1.22775 
20 1 23.6172 7.31455 2.46425 
36 1 24.0614 6.77206 1.22775 
44 1 24.7542 5.48685 1.22774 
47 1 19.6757 8.50807 2.46425 
51 1 18.2405 8.50799 2.46425 
55 1 17.4895 8.50784 1.22775 
17 1 23.6166 9.69993 2.46425 
33 1 24.0612 10.242 1.22775 
41 1 24.7553 11.5271 1.22774 
15 1 26.4047 0.801699 2.46362 
23 1 25.0624 3.3212 2.46414 
28 1 24.8953 4.75838 2.46423 
31 1 25.9364 1.32821 1.22718 
39 1 25.2155 2.59782 1.22762 
2 1 27.3742 17.3963 2.46246 
6 1 28.1902 17.3786 1.22582 
10 1 29.5915 17.3946 1.22418 
14 1 26.3952 16.2167 2.46361 
22 1 25.0611 13.6919 2.46414 
25 1 24.8958 12.2559 2.46423 
30 1 25.9292 15.6887 1.22718 
38 1 25.212 14.4171 1.22762 
46 1 30.3444 17.4596 2.46111 
50 1 31.7894 17.5485 2.4709 
54 1 32.4976 17.4669 1.23639 
ITEM: TIMESTEP
100
ITEM: NUMBER OF ATOMS
57
ITEM: BOX BOUNDS pp pp pp
0.0000000000000000e+00 3.2808000000000000e+01
0.0000000000000000e+00 1.7780000000000001e+01
0.0000000000000000e+00 2.4729999999999999e+00
ITEM: ATOMS id type x y z 
13 1 7.08878 0.8043 2.47022 
29 1 7.54513 1.33189 1.23348 
37 1 8.30126 2.57847 1.22972 
1 1 6.16137 17.3531 2.47293 
5 1 5.34418 17.3789 1.23607 
9 1 3.98496 17.7368 1.22929 
16 1 7.17732 16.2224 2.47036 
32 1 7.65449 15.6969 1.23364 
40 1 8.3469 14.4152 1.22983 
45 1 3.24624 17.807 2.46422 
49 1 1.89075 17.2589 2.45651 
53 1 1.11734 17.0381 1.18585 
57 2 1.61954 16.2069 1.86313 
4 1 10.8789 8.49356 2.46427 
8 1 11.7005 8.4948 1.22776 
12 1 13.0995 8.50738 1.22775 
18 1 9.91793 7.30429 2.4643 
21 1 8.47723 3.30079 2.46605 
26 1 8.65357 4.73675 2.46465 
34 1 9.48211 6.75352 1.22781 
42 1 8.80267 5.4657 1.22811 
48 1 13.8575 8.51078 2.46425 
52 1 15.3008 8.50921 2.46425 
56 1 16.0453 8.50801 1.22775 
19 1 9.92284 9.68764 2.46431 
24 1 8.48884 13.6859 2.46615 
27 1 8.64366 12.247 2.46468 
35 1 9.48563 10.2369 1.22782 
43 1 8.79424 11.5188 1.22813 
3 1 22.6587 8.50663 2.46425 
7 1 21.8367 8.50719 1.22775 
11 1 20.4375 8.50799 1.22775 
20 1 23.6205 7.3175 2.46425 
36 1 24.0624 6.77186 1.22775 
44 1 24.7547 5.48904 1.22773 
47 1 19.6798 8.5081 2.46425 
51 1 18.2365 8.50797 2.46425 
55 1 17.492 8.50778 1.22775 
17 1 23.6199 9.69663 2.46425 
33 1 24.0621 10.2419 1.22775 
41 1 24.7557 11.5236 1.22773 
15 1 26.4014 0.802682 2.46354 
23 1 25.0558 3.32157 2.46411 
28 1 24.9009 4.76055 2.46423 
31 1 25.938 1.33105 1.2271 
39 1 25.2128 2.59397 1.22759 
2 1 27.3647 17.3951 2.46254 
6 1 28.1843 17.3777 1.22595 
10 1 29.5853 17.4046 1.22536 
14 1 26.3895 16.2158 2.46353 
22 1 25.054 13.6916 2.46411 
25 1 24.9016 12.2523 2.46423 
30 1 25.9275 15.6855 1.22709 
38 1 25.2075 14.4197 1.22759 
46 1 30.3396 17.4711 2.46241 
50 1 31.7857 17.5442 2.47374 
54 1 32.4904 17.4556 1.23916 
ITEM: TIMESTEP
110
ITEM: NUMBER OF ATOMS
57
ITEM: BOX BOUNDS pp pp pp
0.0000000000000000e+00 3.2808000000000000e+01
0.0000000000000000e+00 1.7780000000000001e+01
0.0000000000000000e+00 2.4729999999999999e+00
ITEM: ATOMS id type x y z 
13 1 7.09853 0.801923 2.47002 
29 1 7.54759 1.33509 1.2334 
37 1 8.30823 2.57986 1.23007 
1 1 6.17024 17.3513 2.47084 
5 1 5.35499 17.3919 1.23386 
9 1 3.99052 17.7449 1.22503 
16 1 7.17969 16.2163 2.47013 
32 1 7.6558 15.6909 1.2335 
40 1 8.35802 14.4148 1.23018 
45 1 3.25188 17.8028 2.46023 
49 1 1.89403 17.26 2.45442 
53 1 1.11485 17.0318 1.18549 
57 2 1.6269 16.2068 1.86474 
4 1 10.8798 8.49488 2.46428 
8 1 11.6948 8.49464 1.22777 
12 1 13.1015 8.50664 1.22775 
18 1 9.91688 7.30686 2.46434 
21 1 8.48482 3.30036 2.46642 
26 1 8.64985 4.74074 2.46481 
34 1 9.47988 6.75701 1.22785 
42 1 8.79733 5.46608 1.22826 
48 1 13.8623 8.51076 2.46425 
52 1 15.2991 8.5098 2.46425 
56 1 16.0495 8.50832 1.22775 
19 1 9.9199 9.68651 2.46435 
24 1 8.49818 13.6865 2.46651 
27 1 8.638 12.2433 2.46485 
35 1 9.48186 10.2347 1.22786 
43 1 8.7888 11.5191 1.22828 
3 1 22.6586 8.50608 2.46425 
7 1 21.8447 8.50671 1.22775 
11 1 20.4376 8.50794 1.22775 
20 1 23.6229 7.3188 2.46425 
36 1 24.0642 6.77296 1.22774 
44 1 24.7569 5.4905 1.22772 
47 1 19.6762 8.50815 2.46425 
51 1 18.239 8.50792 2.46425 
55 1 17.4895 8.5077 1.22775 
17 1 23.6221 9.6944 2.46425 
33 1 24.0639 10.2399 1.22774 
41 1 24.7586 11.5208 1.22772 
15 1 26.3975 0.804521 2.46346 
23 1 25.0489 3.32056 2.46405 
28 1 24.9054 4.76388 2.46421 
31 1 25.9391 1.33396 1.227 
39 1 25.2056 2.59641 1.22753 
2 1 27.3578 17.3928 2.46276 
6 1 28.1763 17.3776 1.22629 
10 1 29.576 17.4208 1.22731 
14 1 26.382 16.2136 2.46345 
22 1 25.0459 13.6916 2.46405 
25 1 24.9067 12.2473 2.46421 
30 1 25.9237 15.6824 1.22699 
38 1 25.1978 14.4167 1.22753 
46 1 30.3312 17.4883 2.46446 
50 1 31.7808 17.5357 2.47761 
54 1 32.4821 17.4366 1.24318 
ITEM: TIMESTEP
113
ITEM: NUMBER OF ATOMS
57
ITEM: BOX BOUNDS pp pp pp
0.0000000000000000e+00 3.2808000000000000e+01
0.0000000000000000e+00 1.7780000000000001e+01
0.0000000000000000e+00 2.4729999999999999e+00
ITEM: ATOMS id type x y z 
13 1 7.09853 0.801923 2.47002 
29 1 7.5476 1.33509 1.2334 
37 1 8.30823 2.57986 1.23007 
1 1 6.17023 17.3513 2.47084 
5 1 5.35499 17.3919 1.23386 
9 1 3.99052 17.7449 1.22503 
16 1 7.17969 16.2163 2.47013 
32 1 7.6558 15.6909 1.2335 
40 1 8.35802 14.4148 1.23018 
45 1 3.25188 17.8028 2.46023 
49 1 1.89404 17.26 2.45442 
53 1 1.11485 17.0318 1.18549 
57 2 1.6269 16.2068 1.86474 
4 1 10.8798 8.49488 2.46428 
8 1 11.6948 8.49464 1.22777 
12 1 13.1015 8.50664 1.22775 
18 1 9.91688 7.30686 2.46434 
21 1 8.48482 3.30036 2.46642 
26 1 8.64985 4.74074 2.46481 
34 1 9.47988 6.75701 1.22785 
42 1 8.79733 5.46608 1.22826 
48 1 13.8623 8.51076 2.46425 
52 1 15.2991 8.5098 2.46425 
56 1 16.0495 8.50832 1.22775 
19 1 9.9199 9.68651 2.46435 
24 1 8.49818 13.6865 2.46651 
27 1 8.638 12.2433 2.46485 
35 1 9.48186 10.2347 1.22786 
43 1 8.7888 11.5191 1.22828 
3 1 22.6586 8.50608 2.46425 
7 1 21.8447 8.50671 1.22775 
11 1 20.4376 8.50794 1.22775 
20 1 23.6229 7.3188 2.46425 
36 1 24.0642 6.77296 1.22774 
44 1 24.7569 5.4905 1.22772 
47 1 19.6762 8.50815 2.46425 
51 1 18.239 8.50792 2.46425 
55 1 17.4895 8.5077 1.22775 
17 1 23.6221 9.6944 2.46425 
33 1 24.0639 10.2399 1.22774 
41 1 24.7586 11.5208 1.22772 
15 1 26.3975 0.804522 2.46346 
23 1 25.0489 3.32056 2.46405 
28 1 24.9054 4.76388 2.46421 
31 1 25.9391 1.33396 1.227 
39 1 25.2056 2.59641 1.22753 
2 1 27.3578 17.3928 2.46276 
6 1 28.1763 17.3776 1.22629 
10 1 29.576 17.4208 1.22731 
14 1 26.382 16.2136 2.46345 
22 1 25.0459 13.6916 2.46405 
25 1 24.9067 12.2473 2.46421 
30 1 25.9237 15.6824 1.22699 
38 1 25.1978 14.4167 1.22753 
46 1 30.3312 17.4883 2.46446 
50 1 31.7808 17.5357 2.47761 
54 1 32.4821 17.4366 1.24318 
ITEM: TIMESTEP
114
ITEM: NUMBER OF ATOMS
57
ITEM: BOX BOUNDS pp pp pp
0.0000000000000000e+00 3.2808000000000000e+01
0.0000000000000000e+00 1.7780000000000001e+01
0.0000000000000000e+00 2.4729999999999999e+00
ITEM: ATOMS id type x y z 
13 1 7.09853 0.801923 2.47002 
29 1 7.5476 1.33509 1.2334 
45 1 3.25188 0.0227547 2.46023 
1 1 6.17023 17.3513 2.47084 
5 1 5.35499 17.3919 1.23386 
9 1 3.99052 17.7449 1.22503 
16 1 7.17969 16.2163 2.47013 
32 1 7.6558 15.6909 1.2335 
57 2 1.6269 16.2068 1.86474 
53 1 1.11485 17.0318 1.18549 
49 1 1.89404 17.26 2.45442 
4 1 10.8798 8.49488 2.46428 
8 1 11.6948 8.49464 1.22777 
12 1 13.1015 8.50664 1.22775 
18 1 9.91688 7.30686 2.46434 
21 1 8.48482 3.30036 2.46642 
26 1 8.64985 4.74074 2.46481 
34 1 9.47988 6.75701 1.22785 
42 1 8.79733 5.46608 1.22826 
48 1 13.8623 8.51076 2.46425 
52 1 15.2991 8.5098 2.46425 
56 1 16.0495 8.50832 1.22775 
37 1 8.30823 2.57986 1.23007 
19 1 9.9199 9.68651 2.46435 
24 1 8.49818 13.6865 2.46651 
27 1 8.638 12.2433 2.46485 
35 1 9.48186 10.2347 1.22786 
43 1 8.7888 11.5191 1.22828 
40 1 8.35802 14.4148 1.23018 
3 1 22.6586 8.50608 2.46425 
7 1 21.8447 8.50671 1.22775 
11 1 20.4376 8.50794 1.22775 
20 1 23.6229 7.3188 2.46425 
36 1 24.0642 6.77296 1.22774 
55 1 17.4895 8.5077 1.22775 
47 1 19.6762 8.50815 2.46425 
51 1 18.239 8.50792 2.46425 
17 1 23.6221 9.6944 2.46425 
33 1 24.0639 10.2399 1.22774 
15 1 26.3975 0.804522 2.46346 
23 1 25.0489 3.32056 2.46405 
28 1 24.9054 4.76388 2.46421 
31 1 25.9391 1.33396 1.227 
39 1 25.2056 2.59641 1.22753 
44 1 24.7569 5.4905 1.22772 
2 1 27.3578 17.3928 2.46276 
6 1 28.1763 17.3776 1.22629 
10 1 29.576 17.4208 1.22731 
14 1 26.382 16.2136 2.46345 
22 1 25.0459 13.6916 2.46405 
25 1 24.9067 12.2473 2.46421 
30 1 25.9237 15.6824 1.22699 
38 1 25.1978 14.4167 1.22753 
46 1 30.3312 17.4883 2.46446 
50 1 31.7808 17.5357 0.00460992 
54 1 32.4821 17.4366 1.24318 
41 1 24.7586 11.5208 1.22772 
ITEM: TIMESTEP
120
ITEM: NUMBER OF ATOMS
57
ITEM: BOX BOUNDS pp pp pp
-4.0248725382418448e-03 3.2812024872538238e+01
-2.5954896789497891e-03 1.7782595489678958e+01
-7.4189999999999998e-04 2.4737418999999994e+00
ITEM: ATOMS id type x y z 
13 1 7.09624 0.799562 2.47076 
29 1 7.54542 1.33288 1.2334 
45 1 3.24866 0.0201637 2.46096 
1 1 6.16772 17.3538 2.47158 
5 1 5.35228 17.3944 1.23386 
9 1 3.98747 17.7475 1.22502 
16 1 7.17742 16.2184 2.47087 
32 1 7.65365 15.6929 1.2335 
57 2 1.62328 16.2089 1.86512 
53 1 1.1111 17.0342 1.18545 
49 1 1.89048 17.2624 2.45515 
4 1 10.8785 8.49477 2.46501 
8 1 11.6936 8.49453 1.22777 
12 1 13.1007 8.50653 1.22775 
18 1 9.91529 7.3064 2.46508 
21 1 8.48288 3.29873 2.46715 
26 1 8.64795 4.73953 2.46555 
34 1 9.47818 6.75638 1.22785 
42 1 8.79546 5.46508 1.22825 
48 1 13.8617 8.51065 2.46499 
52 1 15.2989 8.50969 2.46499 
56 1 16.0495 8.50821 1.22774 
37 1 8.30624 2.57802 1.23007 
19 1 9.91831 9.68675 2.46508 
24 1 8.49624 13.6878 2.46724 
27 1 8.6361 12.2443 2.46558 
35 1 9.48016 10.2351 1.22785 
43 1 8.78693 11.5198 1.22828 
40 1 8.35605 14.4164 1.23018 
3 1 22.6601 8.50596 2.46499 
7 1 21.8461 8.5066 1.22774 
11 1 20.4386 8.50783 1.22774 
20 1 23.6247 7.31834 2.46498 
36 1 24.066 6.77234 1.22774 
55 1 17.4898 8.50759 1.22774 
47 1 19.677 8.50804 2.46499 
51 1 18.2394 8.50781 2.46499 
17 1 23.6239 9.69463 2.46498 
33 1 24.0658 10.2403 1.22774 
15 1 26.4 0.802162 2.4642 
23 1 25.051 3.31893 2.46479 
28 1 24.9075 4.76267 2.46495 
31 1 25.9415 1.33176 1.227 
39 1 25.2078 2.59458 1.22752 
44 1 24.7589 5.48951 1.22771 
2 1 27.3605 17.3953 2.46349 
6 1 28.1792 17.3801 1.22629 
10 1 29.5792 17.4233 1.2273 
14 1 26.3845 16.2157 2.46418 
22 1 25.048 13.693 2.46479 
25 1 24.9088 12.2483 2.46495 
30 1 25.9261 15.6844 1.22699 
38 1 25.1999 14.4183 1.22752 
46 1 30.3346 17.4908 2.4652 
50 1 31.7846 17.5382 0.00387098 
54 1 32.4861 17.4391 1.24318 
41 1 24.7606 11.5216 1.22771 
ITEM: TIMESTEP
130
ITEM: NUMBER OF ATOMS
57
ITEM: BOX BOUNDS pp pp pp
-4.6166640572900606e-04 3.2808461666405726e+01
-4.9063148128764798e-03 1.7784906314812886e+01
-1.8949351032924633e-03 2.4748949351032912e+00
ITEM: ATOMS id type x y z 
13 1 7.09827 0.797444 2.47191 
29 1 7.54734 1.33092 1.2334 
45 1 3.25156 0.0178034 2.4621 
1 1 6.16992 17.356 2.47273 
5 1 5.35471 17.3966 1.23386 
9 1 3.99018 17.7498 1.22501 
16 1 7.17943 16.2203 2.47202 
32 1 7.65552 15.6947 1.2335 
57 2 1.62649 16.2108 1.8657 
53 1 1.11432 17.0364 1.18541 
49 1 1.89372 17.2647 2.45628 
4 1 10.8797 8.49467 2.46616 
8 1 11.6946 8.49443 1.22776 
12 1 13.1014 8.50643 1.22774 
18 1 9.91669 7.30599 2.46622 
21 1 8.48459 3.29726 2.4683 
26 1 8.64965 4.73848 2.46669 
34 1 9.4797 6.75582 1.22784 
42 1 8.79714 5.46417 1.22825 
48 1 13.8623 8.51055 2.46613 
52 1 15.2991 8.50959 2.46613 
56 1 16.0495 8.50811 1.22774 
37 1 8.30798 2.57642 1.23006 
19 1 9.91972 9.68694 2.46623 
24 1 8.49795 13.6891 2.46839 
27 1 8.63779 12.2452 2.46673 
35 1 9.48168 10.2354 1.22785 
43 1 8.7886 11.5206 1.22827 
40 1 8.35778 14.4178 1.23017 
3 1 22.6587 8.50587 2.46613 
7 1 21.8449 8.5065 1.22774 
11 1 20.4377 8.50773 1.22774 
20 1 23.6231 7.31793 2.46613 
36 1 24.0644 6.77179 1.22773 
55 1 17.4895 8.50749 1.22774 
47 1 19.6763 8.50794 2.46613 
51 1 18.2391 8.50771 2.46613 
17 1 23.6223 9.69484 2.46613 
33 1 24.0641 10.2407 1.22773 
15 1 26.3978 0.800053 2.46534 
23 1 25.0491 3.31747 2.46593 
28 1 24.9056 4.7616 2.46609 
31 1 25.9394 1.32982 1.22699 