LAMMPS (3 Mar 2020)
Reading data file ...
  orthogonal box = (0 0 0) to (18.762 18.762 18.761)
  2 by 2 by 2 MPI processor grid
  reading atoms ...
  130 atoms
  read_data CPU = 0.00550028 secs
WARNING: Changed valency_val to valency_boc for X (../reaxc_ffield.cpp:315)
WARNING: Using 'neigh_modify every 1 delay 0 check yes' setting during minimization (../min.cpp:190)
Neighbor list info ...
  update every 1 steps, delay 0 steps, check yes
  max neighbors/atom: 2000, page size: 100000
  master list distance cutoff = 12
  ghost atom cutoff = 12
  binsize = 6, bins = 4 4 4
  2 neighbor lists, perpetual/occasional/extra = 2 0 0
  (1) pair reax/c, perpetual
      attributes: half, newton off, ghost
      pair build: half/bin/newtoff/ghost
      stencil: half/ghost/bin/3d/newtoff
      bin: standard
  (2) fix qeq/reax, perpetual, copy from (1)
      attributes: half, newton off, ghost
      pair build: copy
      stencil: none
      bin: none
Setting up cg style minimization ...
  Unit style    : real
  Current step  : 0
Per MPI rank memory allocation (min/avg/max) = 17.75 | 17.83 | 17.99 Mbytes
Step Temp E_pair E_mol TotEng Press 
       0            0   -22644.649            0   -22644.649   -60171.166 
     101            0    -22990.03            0    -22990.03   -3602.6084 
Loop time of 5.25542 on 8 procs for 101 steps with 130 atoms

99.8% CPU use with 8 MPI tasks x no OpenMP threads

Minimization stats:
  Stopping criterion = linesearch alpha is zero
  Energy initial, next-to-last, final = 
        -22644.6492869     -22990.0303581      -22990.030358
  Force two-norm initial, final = 2447.13 58.6328
  Force max component initial, final = 266.536 21.6274
  Final line search alpha, max atom move = 4.70951e-12 1.01854e-10
  Iterations, force evaluations = 101 637

MPI task timing breakdown:
Section |  min time  |  avg time  |  max time  |%varavg| %total
---------------------------------------------------------------
Pair    | 3.2974     | 3.3702     | 3.4479     |   2.9 | 64.13
Neigh   | 0          | 0          | 0          |   0.0 |  0.00
Comm    | 0.11491    | 0.19432    | 0.26745    |  12.3 |  3.70
Output  | 0.0011948  | 0.0017173  | 0.0025763  |   1.1 |  0.03
Modify  | 1.6665     | 1.6669     | 1.6685     |   0.0 | 31.72
Other   |            | 0.0223     |            |       |  0.42

Nlocal:    16.25 ave 18 max 16 min
Histogram: 7 0 0 0 0 0 0 0 0 1
Nghost:    530.5 ave 540 max 524 min
Histogram: 1 0 3 0 0 3 0 0 0 1
Neighs:    2157.12 ave 2375 max 2097 min
Histogram: 3 4 0 0 0 0 0 0 0 1

Total # of neighbors = 17257
Ave neighs/atom = 132.746
Neighbor list builds = 0
Dangerous builds = 0
WARNING: Using 'neigh_modify every 1 delay 0 check yes' setting during minimization (../min.cpp:190)
Setting up cg style minimization ...
  Unit style    : real
  Current step  : 101
Per MPI rank memory allocation (min/avg/max) = 17.75 | 17.83 | 17.99 Mbytes
Step Temp E_pair E_mol TotEng Press 
     101            0    -22990.03            0    -22990.03   -3602.6121 
     104            0   -22990.098            0   -22990.098   -3948.2275 
Loop time of 0.527191 on 8 procs for 3 steps with 130 atoms

99.5% CPU use with 8 MPI tasks x no OpenMP threads

Minimization stats:
  Stopping criterion = linesearch alpha is zero
  Energy initial, next-to-last, final = 
        -22990.0303622     -22990.0981824      -22990.098182
  Force two-norm initial, final = 58.6328 51.319
  Force max component initial, final = 21.6274 20.5523
  Final line search alpha, max atom move = 3.79669e-12 7.80306e-11
  Iterations, force evaluations = 3 70

MPI task timing breakdown:
Section |  min time  |  avg time  |  max time  |%varavg| %total
---------------------------------------------------------------
Pair    | 0.3714     | 0.38535    | 0.39761    |   1.7 | 73.09
Neigh   | 0          | 0          | 0          |   0.0 |  0.00
Comm    | 0.0096703  | 0.022031   | 0.035936   |   6.9 |  4.18
Output  | 0          | 0          | 0          |   0.0 |  0.00
Modify  | 0.11739    | 0.11746    | 0.11761    |   0.0 | 22.28
Other   |            | 0.002353   |            |       |  0.45

Nlocal:    16.25 ave 18 max 16 min
Histogram: 7 0 0 0 0 0 0 0 0 1
Nghost:    531.625 ave 540 max 525 min
Histogram: 1 0 1 2 2 0 0 1 0 1
Neighs:    2152.88 ave 2372 max 2092 min
Histogram: 2 5 0 0 0 0 0 0 0 1

Total # of neighbors = 17223
Ave neighs/atom = 132.485
Neighbor list builds = 0
Dangerous builds = 0
WARNING: Using 'neigh_modify every 1 delay 0 check yes' setting during minimization (../min.cpp:190)
Setting up cg style minimization ...
  Unit style    : real
  Current step  : 104
WARNING: Energy due to 3 extra global DOFs will be included in minimizer energies
Per MPI rank memory allocation (min/avg/max) = 17.75 | 17.83 | 17.99 Mbytes
Step Temp E_pair E_mol TotEng Press Volume 
     104            0   -22990.098            0   -22990.098   -3948.2252    6604.1092 
     114            0   -22990.393            0   -22990.393    17.402577    6596.6106 
Loop time of 0.384771 on 8 procs for 10 steps with 130 atoms

99.5% CPU use with 8 MPI tasks x no OpenMP threads

Minimization stats:
  Stopping criterion = linesearch alpha is zero
  Energy initial, next-to-last, final = 
        -22990.0981792     -22990.3928262     -22990.3928273
  Force two-norm initial, final = 662.437 103.858
  Force max component initial, final = 412.08 55.3711
  Final line search alpha, max atom move = 8.70707e-13 4.8212e-11
  Iterations, force evaluations = 10 54

MPI task timing breakdown:
Section |  min time  |  avg time  |  max time  |%varavg| %total
---------------------------------------------------------------
Pair    | 0.28673    | 0.29837    | 0.30923    |   1.7 | 77.54
Neigh   | 0          | 0          | 0          |   0.0 |  0.00
Comm    | 0.0066902  | 0.017632   | 0.029231   |   6.9 |  4.58
Output  | 9.0441e-05 | 0.00014232 | 0.00023172 |   0.0 |  0.04
Modify  | 0.064353   | 0.06438    | 0.064508   |   0.0 | 16.73
Other   |            | 0.004246   |            |       |  1.10

Nlocal:    16.25 ave 18 max 16 min
Histogram: 7 0 0 0 0 0 0 0 0 1
Nghost:    531.625 ave 540 max 525 min
Histogram: 1 0 1 2 2 0 0 1 0 1
Neighs:    2153.38 ave 2372 max 2092 min
Histogram: 2 5 0 0 0 0 0 0 0 1

Total # of neighbors = 17227
Ave neighs/atom = 132.515
Neighbor list builds = 0
Dangerous builds = 0
WARNING: Using 'neigh_modify every 1 delay 0 check yes' setting during minimization (../min.cpp:190)
Setting up cg style minimization ...
  Unit style    : real
  Current step  : 114
Per MPI rank memory allocation (min/avg/max) = 17.75 | 17.83 | 17.99 Mbytes
Step Temp E_pair E_mol TotEng Press 
     114            0   -22990.393            0   -22990.393    17.399698 
     118            0   -22990.446            0   -22990.446   -2665.4929 
Loop time of 0.623749 on 8 procs for 4 steps with 130 atoms

99.7% CPU use with 8 MPI tasks x no OpenMP threads

Minimization stats:
  Stopping criterion = linesearch alpha is zero
  Energy initial, next-to-last, final = 
        -22990.3928305     -22990.4462256     -22990.4462304
  Force two-norm initial, final = 69.6497 32.5285
  Force max component initial, final = 15.5468 11.3351
  Final line search alpha, max atom move = 8.2163e-12 9.31322e-11
  Iterations, force evaluations = 4 82

MPI task timing breakdown:
Section |  min time  |  avg time  |  max time  |%varavg| %total
---------------------------------------------------------------
Pair    | 0.43325    | 0.45027    | 0.46317    |   1.7 | 72.19
Neigh   | 0          | 0          | 0          |   0.0 |  0.00
Comm    | 0.015745   | 0.028749   | 0.04579    |   6.7 |  4.61
Output  | 0          | 0          | 0          |   0.0 |  0.00
Modify  | 0.14178    | 0.14186    | 0.14199    |   0.0 | 22.74
Other   |            | 0.002875   |            |       |  0.46

Nlocal:    16.25 ave 18 max 16 min
Histogram: 7 0 0 0 0 0 0 0 0 1
Nghost:    531.625 ave 540 max 525 min
Histogram: 1 0 1 2 2 0 0 1 0 1
Neighs:    2155.38 ave 2375 max 2092 min
Histogram: 2 5 0 0 0 0 0 0 0 1

Total # of neighbors = 17243
Ave neighs/atom = 132.638
Neighbor list builds = 0
Dangerous builds = 0
WARNING: Using 'neigh_modify every 1 delay 0 check yes' setting during minimization (../min.cpp:190)
Setting up cg style minimization ...
  Unit style    : real
  Current step  : 118
WARNING: Energy due to 3 extra global DOFs will be included in minimizer energies
Per MPI rank memory allocation (min/avg/max) = 17.75 | 17.83 | 17.99 Mbytes
Step Temp E_pair E_mol TotEng Press Volume 
     118            0   -22990.446            0   -22990.446   -2665.4873    6596.6106 
     131            0   -22990.566            0   -22990.566    32.550359    6590.6804 
Loop time of 0.492677 on 8 procs for 13 steps with 130 atoms

99.8% CPU use with 8 MPI tasks x no OpenMP threads

Minimization stats:
  Stopping criterion = linesearch alpha is zero
  Energy initial, next-to-last, final = 
         -22990.446223     -22990.5658351     -22990.5658359
  Force two-norm initial, final = 447.145 30.2919
  Force max component initial, final = 282.754 10.0359
  Final line search alpha, max atom move = 1.26591e-11 1.27046e-10
  Iterations, force evaluations = 13 72

MPI task timing breakdown:
Section |  min time  |  avg time  |  max time  |%varavg| %total
---------------------------------------------------------------
Pair    | 0.38154    | 0.38684    | 0.39114    |   0.5 | 78.52
Neigh   | 0          | 0          | 0          |   0.0 |  0.00
Comm    | 0.012785   | 0.017255   | 0.022567   |   2.3 |  3.50
Output  | 0.00018773 | 0.00025941 | 0.00041896 |   0.0 |  0.05
Modify  | 0.082791   | 0.082831   | 0.083006   |   0.0 | 16.81
Other   |            | 0.00549    |            |       |  1.11

Nlocal:    16.25 ave 18 max 16 min
Histogram: 7 0 0 0 0 0 0 0 0 1
Nghost:    531.625 ave 540 max 525 min
Histogram: 1 0 1 2 2 0 0 1 0 1
Neighs:    2155.38 ave 2375 max 2092 min
Histogram: 2 5 0 0 0 0 0 0 0 1

Total # of neighbors = 17243
Ave neighs/atom = 132.638
Neighbor list builds = 0
Dangerous builds = 0
WARNING: Using 'neigh_modify every 1 delay 0 check yes' setting during minimization (../min.cpp:190)
Setting up cg style minimization ...
  Unit style    : real
  Current step  : 131
Per MPI rank memory allocation (min/avg/max) = 17.75 | 17.83 | 17.99 Mbytes
Step Temp E_pair E_mol TotEng Press 
     131            0   -22990.566            0   -22990.566    32.547767 
     132            0   -22990.566            0   -22990.566    32.545714 
Loop time of 0.405278 on 8 procs for 1 steps with 130 atoms

99.8% CPU use with 8 MPI tasks x no OpenMP threads

Minimization stats:
  Stopping criterion = linesearch alpha is zero
  Energy initial, next-to-last, final = 
         -22990.565839      -22990.565839     -22990.5658417
  Force two-norm initial, final = 29.7862 29.7862
  Force max component initial, final = 10.0359 10.0359
  Final line search alpha, max atom move = 9.27989e-12 9.31321e-11
  Iterations, force evaluations = 1 57

MPI task timing breakdown:
Section |  min time  |  avg time  |  max time  |%varavg| %total
---------------------------------------------------------------
Pair    | 0.30373    | 0.31012    | 0.31581    |   0.7 | 76.52
Neigh   | 0          | 0          | 0          |   0.0 |  0.00
Comm    | 0.010173   | 0.016028   | 0.022411   |   3.2 |  3.95
Output  | 0          | 0          | 0          |   0.0 |  0.00
Modify  | 0.077253   | 0.077294   | 0.07745    |   0.0 | 19.07
Other   |            | 0.001841   |            |       |  0.45

Nlocal:    16.25 ave 18 max 16 min
Histogram: 7 0 0 0 0 0 0 0 0 1
Nghost:    531.625 ave 540 max 525 min
Histogram: 1 0 1 2 2 0 0 1 0 1
Neighs:    2156.12 ave 2376 max 2095 min
Histogram: 2 5 0 0 0 0 0 0 0 1

Total # of neighbors = 17249
Ave neighs/atom = 132.685
Neighbor list builds = 0
Dangerous builds = 0
Setting up Verlet run ...
  Unit style    : real
  Current step  : 0
  Time step     : 0.25
Per MPI rank memory allocation (min/avg/max) = 16.62 | 16.71 | 16.87 Mbytes
Step Temp TotEng KinEng PotEng Press 
       0          300   -22875.208    115.35735   -22990.566    832.65536 
     200    209.05718   -22835.089    80.387608   -22915.477   -4454.3357 
     400    286.60736   -22774.313    110.20755    -22884.52    5276.1487 
     600    299.16264   -22750.706    115.03536   -22865.741    4510.2628 
     800    303.12011    -22768.77    116.55711   -22885.327   -1799.5502 
    1000    345.00253    -22760.68    132.66192   -22893.342    10728.038 
    1200    281.66046    -22766.38    108.30535   -22874.686    -2796.002 
    1400     308.0886   -22771.178    118.46761   -22889.646   -308.97114 
    1600    315.41113    -22745.73    121.28331   -22867.013     1538.608 
    1800     288.7197   -22772.201     111.0198    -22883.22   -11006.765 
    2000    300.10385   -22765.162    115.39728    -22880.56    3748.7799 
    2200    254.60003   -22790.904    97.899947   -22888.804   -1732.4427 
    2400    313.66608   -22778.525    120.61229   -22899.137   -368.14831 
    2600    328.81085   -22768.955    126.43583   -22895.391    1457.9006 
    2800    307.24396   -22757.297    118.14283   -22875.439    578.63236 
    3000    318.25753   -22750.198    122.37782   -22872.576   -2594.9818 
    3200    292.63259   -22774.116     112.5244   -22886.641    5471.6004 
    3400    313.36399    -22747.99    120.49613   -22868.486   -6228.1243 
    3600    268.41622   -22761.741    103.21261   -22864.954    746.56981 
    3800    302.32627   -22763.263    116.25186   -22879.515    5863.5659 
    4000    352.75237   -22740.966    135.64193   -22876.608    1077.4066 
    4200    261.06012   -22763.474    100.38401   -22863.858   -2348.4325 
    4400    302.54605   -22764.414    116.33637   -22880.751   -2989.4943 
    4600    287.46105   -22770.415    110.53582   -22880.951    7335.1677 
    4800     286.5775   -22765.185    110.19607   -22875.381    6518.6004 
    5000    319.17195   -22745.801    122.72943   -22868.531   -6139.8126 
    5200    284.30769   -22768.212    109.32327   -22877.535    2231.6359 
    5400    291.31828   -22758.606    112.01901   -22870.625    2449.9433 
    5600    305.03144   -22727.159    117.29206   -22844.451    7182.3712 
    5800    292.69257   -22756.372    112.54746   -22868.919    -3215.635 
    6000    303.53631   -22760.739    116.71715   -22877.456   -11091.964 
    6200    315.85046   -22746.923    121.45224   -22868.375    5007.6318 
    6400    272.50468   -22771.451    104.78472   -22876.236   -3068.4891 
    6600    312.83965    -22762.31    120.29451   -22882.605    765.89771 
    6800     287.2959   -22772.299    110.47231   -22882.771    3095.6276 
    7000    294.38633   -22772.084    113.19876   -22885.283    5188.2385 
    7200    315.65977   -22763.485    121.37891   -22884.864    -1798.461 
    7400    230.75998   -22783.077    88.732864    -22871.81   -761.33116 
    7600    312.82138   -22764.013    120.28748     -22884.3    2689.0617 
    7800    287.03349   -22754.516    110.37141   -22864.888   -1093.1552 
    8000    304.07957   -22732.682    116.92604   -22849.608   -1523.4309 
    8200    309.51008   -22757.249    119.01421   -22876.263    10797.475 
    8400    293.42495   -22771.792    112.82908   -22884.621   -4101.4242 
    8600    282.81463   -22766.056    108.74915   -22874.805    7856.6162 
    8800    285.71693   -22755.051    109.86516   -22864.916   -4934.7016 
    9000    276.93047   -22774.555    106.48655   -22881.041    2871.7712 
    9200    324.05335   -22747.972    124.60645   -22872.579      -38.452 
    9400    268.77808    -22760.64    103.35175   -22863.992   -10621.507 
    9600    328.26179   -22740.422     126.2247   -22866.647    4783.2651 
    9800     304.3415   -22756.306    117.02676   -22873.333   -6136.3055 
   10000    308.51804   -22757.491    118.63274   -22876.124    475.55008 
   10200    264.05894   -22755.817    101.53713   -22857.355   -624.98481 
   10400     314.1256    -22744.61    120.78899   -22865.399   -5398.0921 
   10600    335.04263   -22749.669     128.8321   -22878.501   -7752.9748 
   10800    312.99022   -22766.047    120.35241     -22886.4    5888.3331 
   11000    309.37896   -22765.726    118.96379    -22884.69    1881.2507 
   11200    286.37953   -22773.114    110.11995   -22883.234    2140.1897 
   11400    277.74042    -22750.01      106.798   -22856.808    8732.0137 
   11600    290.31521   -22748.722    111.63331   -22860.355   -1196.6364 
   11800    275.77203   -22770.747     106.0411   -22876.788   -11825.036 
   12000     291.8482   -22745.397    112.22278    -22857.62   -2136.3645 
   12200    342.73091   -22741.396    131.78843   -22873.185   -867.13309 
   12400    282.40222   -22763.451    108.59057   -22872.042    4527.5392 
   12600    318.29562   -22740.755    122.39246   -22863.148   -5837.7403 
   12800    290.61463   -22765.155    111.74844   -22876.903    2335.0502 
   13000    292.33177   -22756.472    112.40873    -22868.88    4858.1994 
   13200     295.3674   -22759.629      113.576   -22873.205   -7849.1839 
   13400    287.94932   -22776.099    110.72357   -22886.823    4452.4793 
   13600    292.32411   -22768.371    112.40578   -22880.776   -828.46281 
   13800    299.08182   -22745.877    115.00429   -22860.881     3220.956 
   14000    275.69701   -22761.309    106.01225   -22867.321    532.51682 
   14200    302.17057   -22757.992    116.19199   -22874.184    12127.869 
   14400    296.14232   -22747.603    113.87397   -22861.477   -7681.8383 
   14600    326.25242    -22756.94    125.45205   -22882.392   -2421.4638 
   14800    279.91938   -22771.643    107.63586   -22879.279   -1735.2975 
   15000    298.49413   -22757.276    114.77831   -22872.055     -3140.09 
   15200    288.08225   -22762.472    110.77468   -22873.246   -4391.4243 
   15400    289.29211    -22773.03     111.2399    -22884.27    2948.9723 
   15600    313.41651   -22765.079    120.51633   -22885.595    5275.3696 
   15800    322.28451   -22749.683    123.92629    -22873.61   -10696.475 
   16000    336.59561   -22743.086    129.42926   -22872.515   -3028.1069 
   16200    285.01501   -22764.201    109.59525   -22873.797   -5234.5479 
   16400    311.70457    -22733.54    119.85804   -22853.398     11912.11 
   16600    297.36583   -22748.274    114.34444   -22862.619   -777.82241 
   16800    296.65082    -22759.68    114.06951   -22873.749   -356.59569 
   17000    342.93127   -22739.843    131.86547   -22871.708    5083.2552 
   17200    291.97758   -22767.198    112.27253    -22879.47    1107.9644 
   17400    316.41037   -22760.921    121.66754   -22882.589   -340.11399 
   17600    311.18978   -22758.157    119.66009   -22877.817    -1764.468 
   17800     284.5301   -22772.233    109.40879   -22881.641   -519.39735 
   18000    320.21933   -22748.489    123.13218   -22871.621   -711.97061 
   18200    305.15825   -22749.651    117.34082   -22866.991   -4790.6695 
   18400    297.56559   -22759.736    114.42126   -22874.158     11163.64 
   18600    321.15117   -22749.207    123.49049   -22872.698   -6822.5877 
   18800     277.3072   -22762.218    106.63141   -22868.849   -3488.0093 
   19000    279.07288   -22771.998    107.31036   -22879.309    1165.1957 
   19200    303.45836   -22751.004    116.68717   -22867.691    2743.8769 
   19400    337.48714   -22754.553    129.77207   -22884.325   -1631.5011 
   19600    300.03502   -22780.353    115.37082   -22895.724    9775.1524 
   19800    318.30495   -22756.834    122.39605    -22879.23   -3267.4732 
   20000    294.10644   -22764.134    113.09113   -22877.225   -10038.529 
   20200    270.83942   -22760.372    104.14439   -22864.516   -6166.9605 
   20400     285.3883   -22748.717    109.73879   -22858.456    -1179.108 
   20600    275.65836   -22770.094    105.99739   -22876.092   -1632.0375 
   20800    308.31982   -22751.687    118.55652   -22870.243     8220.237 
   21000    302.23938   -22760.947    116.21844   -22877.166     -4620.95 
   21200    281.86366   -22759.788    108.38348   -22868.172    1723.8357 
   21400    335.07309   -22738.427    128.84381   -22867.271    7234.3767 
   21600    302.88349   -22761.575    116.46612   -22878.041   -4563.1036 
   21800    287.12568    -22774.35    110.40686   -22884.757    4157.2549 
   22000     313.5511   -22750.352    120.56808    -22870.92    2867.2893 
   22200    290.56024    -22765.93    111.72753   -22877.658    4869.1012 
   22400    262.94248   -22773.566    101.10782   -22874.674    3183.5457 
   22600     319.0112   -22754.092    122.66762    -22876.76    2100.2441 
   22800     284.0999   -22752.869    109.24337   -22862.112    255.28028 
   23000    285.03604   -22772.151    109.60334   -22881.754    11531.836 
   23200    295.16566   -22758.945    113.49843   -22872.443   -2990.2229 
   23400    314.51956   -22739.001    120.94048   -22859.942    16.239902 
   23600    307.79628   -22745.848    118.35521   -22864.203    1495.9346 
   23800    294.68161   -22767.248     113.3123   -22880.561   -2654.8174 
   24000    337.23835   -22745.784    129.67641    -22875.46     4785.475 
   24200    286.06992   -22773.921    110.00089   -22883.922    8431.8987 
   24400    310.08445   -22755.471    119.23507   -22874.706    2215.2629 
   24600    309.11431   -22766.265    118.86202   -22885.127   -11172.338 
   24800    300.87708   -22774.579    115.69461   -22890.274   -14466.853 
   25000    295.23345   -22757.203     113.5245   -22870.727    2162.7458 
   25200    335.71497   -22729.695    129.09063   -22858.786   -2957.4219 
   25400    297.40149   -22748.747    114.35816   -22863.105    410.49054 
   25600    305.46328   -22762.031    117.45811    -22879.49    4559.6595 
   25800    293.09822    -22755.79    112.70344   -22868.493   -4138.1011 
   26000    334.12643   -22744.601     128.4798   -22873.081   -1528.1172 
   26200    268.08909   -22771.751    103.08682   -22874.838    6046.8814 
   26400    317.79085    -22751.76    122.19837   -22873.958   -236.17848 
   26600    335.33768   -22723.054    128.94555       -22852    6276.8922 
   26800    308.94813    -22756.33    118.79812   -22875.128   -845.57031 
   27000    260.01031   -22770.457    99.980332   -22870.437   -8470.3683 
   27200    339.61229   -22739.412    130.58925   -22870.001   -6482.3526 
   27400     307.2185    -22752.68    118.13304   -22870.813   -3817.0235 
   27600    293.54303   -22762.942    112.87449   -22875.816    4975.9343 
   27800    328.89424   -22737.165    126.46789   -22863.633   -8702.5379 
   28000    318.92973   -22753.565    122.63629   -22876.202    5556.7752 
   28200    313.45974   -22773.572    120.53295   -22894.105    -54.72003 
   28400    281.61856   -22770.156    108.28924   -22878.445   -251.52814 
   28600    350.09595    -22723.86    134.62047    -22858.48   -5047.9996 
   28800    340.46191   -22739.283    130.91595   -22870.199   -8066.6746 
   29000    282.67211   -22760.733    108.69435   -22869.427   -2068.9825 
   29200    296.94943   -22765.957    114.18433   -22880.142    1544.4212 
   29400    284.01841   -22766.451    109.21204   -22875.663    -1956.849 
   29600    333.24618    -22745.14    128.14132   -22873.282    10623.763 
   29800    277.33336   -22771.545    106.64147   -22878.186   -1590.2679 
   30000    326.61769   -22750.748     125.5925   -22876.341    8453.3944 
   30200     294.0812   -22758.032    113.08142   -22871.114    763.35093 
   30400    291.82083   -22774.161    112.21226   -22886.373    4171.7842 
   30600    260.10683   -22786.619    100.01745   -22886.637   -3451.8919 
   30800    323.54434   -22761.781    124.41073   -22886.192    11000.763 
   31000    302.84955   -22758.913    116.45307   -22875.366    2995.4739 
   31200    291.69967   -22765.235    112.16567   -22877.401    1819.5925 
   31400    339.25717   -22744.812    130.45269   -22875.264   -8577.0289 
   31600    301.04455   -22772.431      115.759    -22888.19   -4491.0207 
   31800    304.16437   -22763.395    116.95865   -22880.353   -1629.0177 
   32000    276.80128   -22759.104    106.43687   -22865.541   -2287.2071 
   32200    347.20601    -22731.22    133.50922   -22864.729   -4677.4137 
   32400    286.55143   -22755.542    110.18605   -22865.728     3429.549 
   32600    255.55749   -22759.715    98.268116   -22857.983    9547.5112 
   32800    293.93301   -22760.543    113.02444   -22873.567     8638.167 
   33000     276.6245    -22773.81     106.3689   -22880.179   -6964.8481 
   33200    324.59719   -22760.498    124.81557   -22885.313    -2815.331 
   33400    268.64777   -22766.527    103.30165   -22869.828    -3581.391 
   33600    287.71826   -22740.169    110.63472   -22850.803     9770.278 
   33800    295.57224   -22764.272    113.65477   -22877.926    -4118.713 
   34000    321.64881   -22757.838    123.68185    -22881.52    333.82537 
   34200    307.87604   -22754.775    118.38588   -22873.161   -4577.7829 
   34400    284.55346   -22776.091    109.41778   -22885.509    8616.8925 
   34600     294.9131   -22756.031    113.40131   -22869.432   -6795.4445 
   34800    290.58594   -22757.998    111.73741   -22869.736    7625.0707 
   35000    312.95459   -22760.875    120.33871   -22881.214   -13818.607 
   35200    298.76834   -22777.101    114.88374   -22891.985    5218.0256 
   35400     309.5227   -22754.914    119.01906   -22873.933    3412.5987 
   35600    324.37143   -22750.557    124.72876   -22875.286    3252.5156 
   35800    287.79193   -22765.267    110.66305    -22875.93    5387.6805 
   36000    338.26941   -22748.839    130.07287   -22878.912    9289.8113 
   36200    277.67839   -22754.166    106.77414    -22860.94    8033.6245 
   36400    292.67275   -22762.087    112.53984   -22874.627   -4705.3968 
   36600    353.22997   -22735.973    135.82558   -22871.799   -684.17088 
   36800    271.06754   -22764.699    104.23211   -22868.931    2298.4781 
   37000    297.33451    -22764.57     114.3324   -22878.903   -6141.8885 
   37200    324.47855   -22745.207    124.76995   -22869.976   -12663.718 
   37400    285.05954    -22773.56    109.61238   -22883.173    7530.3481 
   37600    299.61472    -22755.29     115.2092   -22870.499    1240.6303 
   37800    317.27866   -22762.265    122.00142   -22884.267   -6118.3938 
   38000    306.13497   -22766.793     117.7164   -22884.509    6074.0498 
   38200    332.61922   -22735.439    127.90024   -22863.339   -3561.6087 
   38400    280.99429   -22757.253    108.04919   -22865.302   -46.988337 
   38600    271.38329   -22763.035    104.35352   -22867.389    4990.0692 
   38800    279.72667   -22744.547    107.56176   -22852.108    7761.0762 
   39000    328.51007   -22749.336    126.32017   -22875.656    3795.1206 
   39200    307.78108   -22768.703    118.34937   -22887.053   -16018.802 
   39400     342.3126   -22755.837    131.62758   -22887.464   -4816.9097 
   39600    306.87754   -22752.319    118.00193   -22870.321    8486.8159 
   39800    320.46548   -22758.693    123.22683    -22881.92    9649.4903 
   40000    297.66107   -22767.441    114.45797   -22881.899    10459.988 
   40200    292.86539   -22743.524    112.61392   -22856.138   -2274.4145 
   40400    302.62618   -22755.657    116.36718   -22872.025    5022.1072 
   40600    284.16064   -22759.189    109.26673   -22868.456    11265.148 
   40800    319.39419   -22743.833    122.81489   -22866.648    477.10109 
   41000    344.12506   -22733.838    132.32452   -22866.163   -4049.5517 
   41200    283.92953   -22765.421    109.17786   -22874.599   -3381.2367 
   41400    274.88469   -22773.907     105.6999   -22879.607   -5596.2107 
   41600    303.11475   -22765.006    116.55505   -22881.561    4897.5598 
   41800    299.13389   -22752.226    115.02431    -22867.25   -2346.3012 
   42000    254.83502   -22779.816     97.99031   -22877.807   -1723.0858 
   42200    302.47457   -22758.026    116.30888   -22874.335    1172.9425 
   42400    298.66754   -22754.972    114.84499   -22869.817   -2667.9326 
   42600    312.05021   -22762.649    119.99095    -22882.64   -652.74134 
   42800    255.38611   -22775.788    98.202217    -22873.99    3018.0223 
   43000    297.78562   -22749.704    114.50586    -22864.21   -6083.1373 
   43200    296.34238   -22768.848     113.9509   -22882.798   -1917.7774 
   43400    248.02906   -22787.457    95.373251   -22882.831    2799.2764 
   43600    300.41608   -22753.749    115.51734   -22869.267    1666.7444 
   43800    320.61429   -22751.355    123.28405   -22874.639   -4010.6255 
   44000    300.91492   -22771.452    115.70916   -22887.161    1831.9351 
   44200    316.44043   -22758.088     121.6791   -22879.767    3657.2707 
   44400    321.42004   -22727.013    123.59388   -22850.607   -765.35207 
   44600    309.44729   -22758.391    118.99006   -22877.381    5179.9586 
   44800    267.94458    -22756.83    103.03126   -22859.862   -9381.2299 
   45000     333.0604   -22740.386    128.06988   -22868.455    -1131.288 
   45200    324.52208   -22761.326    124.78669   -22886.112    1068.4007 
   45400    308.59815   -22748.327    118.66355   -22866.991   -4998.1159 
   45600    291.59653   -22773.445    112.12601   -22885.571    8032.7009 
   45800    300.30878   -22763.516    115.47608   -22878.992   -9479.8813 
   46000    319.02486   -22749.765    122.67287   -22872.438   -4642.1657 
   46200    246.58097   -22778.756    94.816423   -22873.572   -88.693991 
   46400    296.07286    -22755.63    113.84727   -22869.478    -4979.429 
   46600    313.06475   -22754.189    120.38106    -22874.57   -7538.4008 
   46800    276.66934   -22779.806    106.38614   -22886.192   -2646.8421 
   47000     279.3991   -22757.838     107.4358   -22865.274   -3487.9929 
   47200    314.21732   -22749.575    120.82426     -22870.4    2683.4892 
   47400    286.70336    -22753.76    110.24447   -22864.004    2067.8641 
   47600    304.52557   -22781.432    117.09754   -22898.529    -4529.281 
   47800    295.02719   -22754.544    113.44518   -22867.989   -7597.7019 
   48000    333.58718   -22760.773    128.27244   -22889.045    5881.5256 
   48200    270.60153   -22789.847    104.05292   -22893.899    926.78927 
   48400    287.35131   -22764.298    110.49362   -22874.791      273.305 
   48600    291.96836   -22754.834    112.26899   -22867.103    8168.6451 
   48800    324.56477   -22734.444    124.80311   -22859.247   -1546.0607 
   49000    282.34145    -22763.53     108.5672   -22872.098   -4930.8322 
   49200      305.046   -22762.016    117.29766   -22879.313    1048.2914 
   49400    305.22895   -22761.923    117.36801   -22879.291    1694.7788 
   49600    314.12228   -22740.439    120.78771   -22861.227   -5846.1246 
   49800    318.17167   -22749.295     122.3448    -22871.64    3895.6568 
   50000    302.62824   -22763.043    116.36797   -22879.411   -5769.9451 
   50200    306.56574   -22754.709    117.88204   -22872.592    -5091.295 
   50400    285.06435   -22779.368    109.61422   -22888.982    2377.9666 
   50600    313.45195   -22758.925    120.52995   -22879.455   -1335.7356 
   50800    302.58831   -22757.455    116.35262   -22873.808    8155.1633 
   51000    304.48576   -22743.854    117.08224   -22860.937    6387.9696 
   51200    292.13538   -22755.764    112.33321   -22868.097     4236.625 
   51400     291.5498   -22757.354    112.10804   -22869.462   -4505.7272 
   51600    322.76684   -22759.009    124.11176   -22883.121   -1142.1977 
   51800    291.59038   -22763.763    112.12364   -22875.886    5733.5589 
   52000    356.88215   -22743.143    137.22993   -22880.373   -766.75896 
   52200    290.95248   -22767.111    111.87835   -22878.989   -774.73923 
   52400    327.48349   -22747.021    125.92542   -22872.946     5836.404 
   52600    264.37693   -22776.781     101.6594   -22878.441    25.172378 
   52800    299.79511   -22772.483    115.27856   -22887.762   -7997.3541 
   53000    330.53553   -22754.775    127.09901   -22881.874    6836.7391 
   53200    290.31413   -22754.224    111.63289   -22865.857   -8130.7154 
   53400    301.53467   -22753.916    115.94747   -22869.863   -1711.9742 
   53600    265.26574   -22778.697    102.00118   -22880.698    8742.1133 
   53800     303.4021   -22754.914    116.66554    -22871.58   -6476.6797 
   54000     285.1824   -22757.533    109.65962   -22867.193   -4291.0557 
   54200    271.90128   -22776.473     104.5527   -22881.026    6247.4124 
   54400    305.04939   -22744.374    117.29896   -22861.673   -1460.9417 
   54600    348.04241   -22750.807    133.83083   -22884.638   -14179.156 
   54800    276.04228   -22769.362    106.14502   -22875.507    8389.2237 
   55000    295.60297   -22760.063    113.66658    -22873.73   -12643.967 
   55200    256.16016   -22768.612    98.499857   -22867.112   -1025.9318 
   55400    275.91761   -22776.953    106.09708    -22883.05   -5220.3815 
   55600    328.86445   -22754.296    126.45644   -22880.753    6116.5197 
   55800    340.09591   -22735.298    130.77521   -22866.073   -2301.6087 
   56000    343.20651   -22738.981    131.97131   -22870.953    1507.2633 
   56200    288.77652   -22760.682    111.04165   -22871.724    1325.5567 
   56400    305.35651   -22773.527    117.41706   -22890.944    1939.8933 
   56600    323.93659   -22747.234    124.56155   -22871.795    689.58341 
   56800    287.34117   -22767.325    110.48972   -22877.815   -3773.9782 
   57000    313.27336    -22761.85    120.46128   -22882.312   -12398.052 
   57200    286.06376   -22766.173    109.99852   -22876.171    7823.7518 
   57400    303.41957   -22742.899    116.67226   -22859.571    15014.498 
   57600    271.48726   -22775.414     104.3935   -22879.808   -4067.2844 
   57800    302.99212   -22758.188    116.50789   -22874.696    -4068.013 
   58000    286.90605   -22750.466     110.3224   -22860.788    11530.565 
   58200    295.94545   -22776.441    113.79828   -22890.239    2709.4472 
   58400    313.47868   -22752.797    120.54023   -22873.337    -5202.237 
   58600    272.37263   -22750.534    104.73395   -22855.268    4286.8489 
   58800    294.24968   -22760.202    113.14621   -22873.348   -10451.514 
   59000    254.90341   -22793.015    98.016607   -22891.031    7979.7975 
   59200    303.67114   -22773.725    116.76899   -22890.494   -10934.942 
   59400     322.4696   -22751.145    123.99746   -22875.142    467.20743 
   59600    290.60894   -22756.916    111.74626   -22868.662   -2677.9758 
   59800    304.69623   -22766.398    117.16316   -22883.561    13617.834 
   60000    301.86146   -22748.437    116.07313    -22864.51   -1667.8751 
   60200    291.45549   -22749.072    112.07178   -22861.143   -7708.7612 
   60400    316.72693   -22766.968    121.78926   -22888.757    16180.923 
   60600     308.9779   -22759.331    118.80957   -22878.141    2144.4304 
   60800    310.17764   -22742.193     119.2709   -22861.464    579.58266 
   61000    341.40873   -22741.121    131.28002   -22872.401   -969.73561 
   61200    280.85702   -22769.842    107.99641   -22877.839    12111.414 
   61400    336.56843   -22753.949    129.41881   -22883.368   -8976.3873 
   61600     290.2934   -22760.721    111.62492   -22872.346    6353.2269 
   61800    277.36972   -22773.064    106.65545   -22879.719      3527.58 
   62000    295.01166   -22750.886    113.43921   -22864.325   -3469.7229 
   62200    313.30115   -22746.223    120.47197   -22866.695    2539.8573 
   62400    287.53901   -22772.657    110.56579   -22883.223   -1620.5133 
   62600    324.52245   -22751.946    124.78683   -22876.733   -1453.8142 
   62800     329.6033   -22757.275    126.74054   -22884.015   -11072.743 
   63000    284.18223   -22782.527    109.27503   -22891.803   -6499.4277 
   63200    304.64155   -22762.298    117.14214    -22879.44    3501.7873 
   63400    347.28743   -22734.342    133.54052   -22867.882    4902.2401 
   63600    305.82286   -22750.539    117.59638   -22868.136   -8543.0339 
   63800    303.34561    -22758.99    116.64382   -22875.633   -1443.1276 
   64000    294.88797   -22750.308    113.39165     -22863.7   -10838.514 
   64200    282.76772   -22768.534    108.73112   -22877.265    3081.5677 
   64400       320.61    -22754.86     123.2824   -22878.142    3395.5569 
   64600    298.56015   -22763.344    114.80369   -22878.148     939.0974 
   64800    361.39618   -22727.939    138.96568   -22866.905   -3348.1559 
   65000    297.41656   -22751.366    114.36395    -22865.73   -8775.3311 
   65200     275.1393   -22764.843     105.7978   -22870.641    3284.0102 
   65400    297.43751   -22777.485    114.37201   -22891.857    -11151.63 
   65600      322.529   -22750.857     124.0203   -22874.877   -2756.2363 
   65800    276.56689    -22771.01    106.34674   -22877.357   -1709.1884 
   66000    311.00371   -22750.478    119.58854   -22870.067    -7357.929 
   66200    272.79535   -22758.231     104.8965   -22863.128   -9739.0524 
   66400    328.08944   -22754.986    126.15843   -22881.145    4100.2225 
   66600    250.26906   -22783.982    96.234584   -22880.216   -4171.6779 
   66800    313.00602   -22756.078    120.35848   -22876.436   -4396.4589 
   67000     280.1026   -22763.539    107.70631   -22871.245    5014.2927 
   67200    282.63937   -22779.458    108.68176   -22888.139   -7447.3114 
   67400    313.94022   -22750.313     120.7177   -22871.031   -4943.1353 
   67600    320.24387   -22765.195    123.14161   -22888.337    916.75503 
   67800    276.00606   -22768.338    106.13109   -22874.469    6855.6354 
   68000    323.06012   -22749.645    124.22453    -22873.87    2727.9186 
   68200      297.215   -22758.458    114.28645   -22872.744   -8725.2675 
   68400    289.67132   -22766.608    111.38572   -22877.994    4094.0302 
   68600     319.0909   -22748.012    122.69827    -22870.71   -3305.5644 
   68800    284.91844   -22774.162    109.55812    -22883.72   -800.28176 
   69000    302.78758   -22761.867    116.42924   -22878.297   -5305.6357 
   69200    339.95913   -22736.303    130.72261   -22867.026   -6583.2188 
   69400    314.12135   -22747.302    120.78735   -22868.089    -1733.752 
   69600    292.27179   -22758.938    112.38566   -22871.324   -1533.5418 
   69800    313.34067   -22747.818    120.48717   -22868.305    3592.4269 
   70000    287.81493   -22771.098    110.67189    -22881.77    373.21193 
   70200    301.76879     -22764.9    116.03749   -22880.938   -8139.0566 
   70400    281.34363   -22746.225    108.18352   -22854.409     1162.952 
   70600    312.00512   -22749.478    119.97361   -22869.452    7263.0928 
   70800    255.35959   -22771.419     98.19202   -22869.611   -3215.2682 
   71000    323.34978   -22747.832    124.33591   -22872.168   -10936.692 
   71200    317.43011   -22745.653    122.05965   -22867.712     6949.827 
   71400    271.93128   -22767.898    104.56424   -22872.462    4455.1221 
   71600     299.7119   -22758.134    115.24657   -22873.381      5115.48 
   71800    328.87318   -22741.231     126.4598   -22867.691   -371.92435 
   72000    339.14176    -22786.41    130.40831   -22916.819   -4952.5247 
   72200     302.5573   -22818.241    116.34069   -22934.581   -3944.9128 
   72400    299.50529   -22806.836    115.16712   -22922.003    2147.8683 
   72600    353.40729   -22797.416    135.89376   -22933.309   -7748.3379 
   72800     279.3931   -22814.207    107.43349    -22921.64   -3834.9501 
   73000    335.38417   -22797.362    128.96343   -22926.325   -534.12738 
   73200    291.87907   -22807.403    112.23465   -22919.638    -3416.761 
   73400    304.36804   -22814.318    117.03697   -22931.355    638.21347 
   73600    308.26093   -22806.762    118.53388   -22925.296    6760.2443 
   73800    292.90943   -22810.009    112.63085    -22922.64   -730.97381 
   74000    336.91778    -22784.18    129.55314   -22913.733    7423.4919 
   74200    291.77415   -22799.612    112.19431   -22911.806   -6370.5505 
   74400    294.73982   -22808.078    113.33468   -22921.413    2242.9378 
   74600     298.8161   -22794.534    114.90211   -22909.437    8502.4349 
   74800    264.51678   -22825.704    101.71318   -22927.417   -3511.8225 
   75000    295.49336    -22809.42    113.62443   -22923.044    5721.6689 
   75200    333.15369   -22790.688    128.10576   -22918.793   -1679.6027 
   75400    287.46092   -22822.319    110.53577   -22932.855     4620.184 
   75600    321.46076   -22804.403    123.60954   -22928.013   -1775.9125 
   75800     273.5286   -22814.166    105.17845   -22919.344   -3002.1407 
   76000    276.21213   -22823.894    106.21033   -22930.104    7991.8424 
   76200    286.39749   -22808.492    110.12685   -22918.619   -12879.918 
   76400    338.81296   -22791.898    130.28188    -22922.18    1422.2662 
   76600    274.11677   -22812.315    105.40461    -22917.72    2158.4708 
   76800    341.22237   -22790.903    131.20836   -22922.112   -7063.1848 
   77000    306.97172   -22810.618    118.03815   -22928.656    2356.4218 
   77200    281.62915    -22818.65    108.29331   -22926.944    7852.5222 
   77400    302.21227    -22786.75    116.20802   -22902.958    143.65042 
   77600    324.56623   -22812.535    124.80367   -22937.338    5261.8711 
   77800    301.58541   -22816.619    115.96698   -22932.586   -6129.9498 
   78000    328.72588       -22790    126.40315   -22916.404   -13837.495 
   78200    306.40567   -22808.728    117.82049   -22926.548   -392.66467 
   78400    294.60099   -22812.335     113.2813   -22925.617   -501.42508 
   78600    309.54102   -22799.433     119.0261   -22918.459    5067.4276 
   78800    318.97623   -22801.636    122.65417    -22924.29    1184.5647 
   79000    269.74756   -22825.742    103.72454   -22929.467   -2952.4304 
   79200    302.54432   -22809.742     116.3357   -22926.078   -11919.297 
   79400    308.48631   -22799.125    118.62054   -22917.746    1503.4518 
   79600    306.35972   -22812.699    117.80282   -22930.502   -12841.785 
   79800    296.02185   -22813.047    113.82765   -22926.874     5151.002 
   80000    356.75019    -22789.42    137.17919   -22926.599    6931.6941 
   80200    314.25055   -22803.086    120.83703   -22923.923   -4009.0414 
   80400    292.02935   -22817.549    112.29244   -22929.842   -8128.0827 
   80600    264.60416   -22825.416    101.74678   -22927.163    -8175.112 
   80800     300.3509   -22800.108    115.49228     -22915.6     7925.653 
   81000    288.44867   -22816.864    110.91558   -22927.779    3401.8116 
   81200    341.90798   -22788.769    131.47199   -22920.241    311.24567 
   81400    297.08021   -22796.208    114.23462   -22910.443   -4990.6426 
   81600    302.23296   -22813.417    116.21598   -22929.633    -2934.236 
   81800    308.88748   -22796.548     118.7748   -22915.323   -10881.108 
   82000    317.67095   -22794.565    122.15226   -22916.718    2128.3801 
   82200    310.74035   -22810.001    119.48728   -22929.488   -6793.3584 
   82400    283.55062   -22806.039    109.03216   -22915.071    -5958.136 
   82600    307.53145    -22795.47    118.25338   -22913.724    3222.0003 
   82800    286.08105   -22827.889    110.00517   -22937.894   -5657.1622 
   83000     279.0741   -22815.646    107.31083   -22922.957     -11915.8 
   83200    296.60897   -22804.723    114.05342   -22918.776    1632.2007 
   83400    326.10085   -22783.441    125.39376   -22908.835    3517.5416 
   83600    280.70425   -22810.415    107.93766   -22918.353    8080.2998 
   83800    258.09357   -22815.453    99.243299   -22914.696    -10518.54 
   84000    290.05361   -22799.703    111.53272   -22911.235    6006.9826 
   84200    285.91243   -22810.751    109.94033   -22920.691   -12999.129 
   84400    267.81936   -22832.815    102.98311   -22935.798   -3574.4281 
   84600     284.1616   -22804.239     109.2671   -22913.506   -1720.5867 
   84800    294.15373   -22804.776    113.10932   -22917.885    10449.218 
   85000    244.47464   -22829.949    94.006489   -22923.956   -3171.1402 
   85200    282.90274    -22797.72    108.78303   -22906.503      6724.29 
   85400    306.09399   -22794.397    117.70064   -22912.098    4522.3015 
   85600    305.44271   -22813.836     117.4502   -22931.286   -572.78525 
   85800    304.97328   -22808.016     117.2697   -22925.286    2827.4781 
   86000    308.78385   -22792.137    118.73496   -22910.872   -71.440773 
   86200     313.6702   -22818.897    120.61388   -22939.511   -3924.0579 
   86400    310.35867   -22802.586    119.34051   -22921.927    -13821.88 
   86600    293.22099   -22803.343    112.75066   -22916.094   -524.19985 
   86800     282.1203   -22814.894    108.48217   -22923.376    2682.7711 
   87000    305.16165   -22811.159    117.34213   -22928.501     -7904.39 
   87200    300.42771   -22793.195    115.52181   -22908.716   -3848.3546 
   87400    287.94485     -22817.3    110.72185   -22928.022   -2746.8121 
   87600    304.89325   -22796.797    117.23892   -22914.036     3371.697 
   87800    301.76779   -22793.002    116.03711   -22909.039    -1476.826 
   88000    287.40458   -22819.741     110.5141   -22930.255   -1856.9201 
   88200    337.58567   -22794.566    129.80996   -22924.376   -2852.9251 
   88400    315.16722   -22803.392    121.18952   -22924.581   -1514.4902 
   88600    290.09791   -22817.971    111.54975   -22929.521   -384.38688 
   88800    318.12458   -22782.703    122.32669    -22905.03    6179.6026 
   89000     326.7938   -22795.597    125.66022   -22921.257   -4031.7186 
   89200    297.06967   -22811.043    114.23057   -22925.274    2495.9609 
   89400    281.82986   -22821.449    108.37048    -22929.82   -149.86266 
   89600    316.92239   -22803.131    121.86442   -22924.995   -326.78556 
   89800    267.83231   -22815.439    102.98808   -22918.427    6818.8534 
   90000    272.90583   -22820.585    104.93898   -22925.524    1151.8959 
   90200    310.46967    -22795.78    119.38319   -22915.164   -4793.0837 
   90400    269.98297   -22808.783    103.81507   -22912.598   -9925.2984 
   90600    309.24389   -22821.883    118.91185   -22940.795    1222.4337 
   90800    312.07454   -22808.478     120.0003   -22928.479    1049.2024 
   91000    319.05542   -22789.005    122.68463    -22911.69   -6913.1188 
   91200    272.78725   -22813.003    104.89338   -22917.897   -5242.5916 
   91400    285.19046   -22803.966    109.66272   -22913.629    4544.8794 
   91600    335.78311   -22799.901    129.11683   -22929.017   -6905.0478 
   91800    307.61578   -22804.461     118.2858   -22922.746    5785.1805 
   92000    255.01556   -22822.765    98.059732   -22920.825   -61.695695 
   92200    331.49151    -22798.03    127.46661   -22925.497    1220.0224 
   92400    297.73687   -22805.932    114.48712    -22920.42      8228.22 
   92600    268.54484   -22822.342    103.26207   -22925.604    140.34866 
   92800     318.3429   -22810.526    122.41064   -22932.936     13469.47 
   93000    330.00311   -22796.656    126.89428    -22923.55   -2241.8766 
   93200    302.37494   -22824.825    116.27057   -22941.096    3448.4238 
   93400    298.65968   -22799.174    114.84196   -22914.016   -3909.4462 
   93600    314.15694   -22803.042    120.80104   -22923.843   -319.55534 
   93800    280.97421   -22816.407    108.04147   -22924.449    4149.2054 
   94000    338.82668   -22793.242    130.28716   -22923.529   -515.85098 
   94200    275.47443   -22810.915    105.92667   -22916.841    2874.5862 
   94400    253.84284   -22825.627    97.608788   -22923.236   -3456.2646 
   94600    308.64399    -22793.11    118.68117   -22911.791   -771.62605 
   94800     292.8065   -22815.706    112.59127   -22928.297   -1442.1247 
   95000    301.08797   -22807.032     115.7757   -22922.808    2591.5802 
   95200    323.44632   -22786.629    124.37303   -22911.002   -19229.484 
   95400    306.52647   -22810.171    117.86694   -22928.038   -2620.7786 
   95600     298.5681   -22807.812    114.80675   -22922.619   -5072.9323 
   95800    327.82596   -22785.201    126.05711   -22911.258    3139.7963 
   96000    262.45147   -22805.473    100.91902   -22906.392   -7728.5982 
   96200    279.80548   -22819.986    107.59206   -22927.578    605.05902 
   96400    313.07485   -22791.671    120.38495   -22912.056   -2741.6382 
   96600    298.58745   -22808.031    114.81419   -22922.845    9137.2953 
   96800    282.57453   -22831.527    108.65683   -22940.184   -3064.8811 
   97000    328.51182   -22798.956    126.32084   -22925.277   -15048.169 
   97200    309.09877   -22804.233    118.85605    -22923.09    259.42735 
   97400    286.10111   -22822.385    110.01288   -22932.398   -1822.2086 
   97600    319.71877   -22789.251     122.9397   -22912.191    9777.0839 
   97800    293.61696    -22809.46    112.90291   -22922.363   -7130.2183 
   98000       312.72   -22809.053     120.2485   -22929.302   -7917.8098 
   98200    304.78564   -22794.365    117.19754   -22911.563   -1676.1647 
   98400    287.83275   -22793.961    110.67874    -22904.64   -3868.6596 
   98600    301.94535   -22814.139    116.10539   -22930.244   -1720.2621 
   98800    319.25847   -22814.376     122.7627   -22937.139    10681.012 
   99000     308.6443   -22792.406    118.68129   -22911.088    3921.7166 
   99200    282.22581    -22819.83    108.52274   -22928.353    2623.4198 
   99400    300.00156   -22804.624    115.35795   -22919.982   -3818.5235 
   99600    342.34537   -22780.187    131.64018   -22911.827   -4040.5601 
   99800    321.36096    -22797.08    123.57116   -22920.651    3945.9303 
  100000    298.97206   -22813.029    114.96208   -22927.991    1505.9572 
  100200    324.54001   -22791.889    124.79358   -22916.683   -1539.1699 
  100400    298.49838   -22800.165    114.77994   -22914.945    5480.5334 
  100600    281.13761   -22817.081     108.1043   -22925.185    -5904.584 
  100800    329.44148   -22793.969    126.67832   -22920.647   -819.78157 
  101000     284.8894   -22815.881    109.54695   -22925.428       4131.6 
  101200    283.02571   -22806.336    108.83032   -22915.166   -1925.0606 
  101400    353.98568   -22800.715    136.11617   -22936.831   -6660.5202 
  101600     301.0247   -22817.614    115.75137   -22933.365    199.37842 
  101800    306.81263   -22788.466    117.97697   -22906.443    6091.5894 
  102000    305.46693   -22796.665    117.45952   -22914.125     2878.509 
  102200    288.85746    -22814.73    111.07277   -22925.803    3166.0001 
  102400    274.39787   -22807.205     105.5127   -22912.718   -5074.1049 
  102600    343.52114   -22794.833    132.09229   -22926.925    2318.6717 
  102800    292.18409   -22818.538    112.35194    -22930.89   -5590.9238 
  103000    298.21554   -22809.436    114.67118   -22924.107   -6409.3411 
  103200    290.83416    -22799.99    111.83286   -22911.823    3025.2736 
  103400    299.88509   -22812.795    115.31316   -22928.108   -7682.5625 
  103600    289.87593   -22814.495     111.4644    -22925.96    12618.446 
  103800    301.82399   -22793.773    116.05872   -22909.832   -10550.115 
  104000    270.68955   -22824.584    104.08676   -22928.671    2150.1792 
  104200    285.63129   -22810.151    109.83223   -22919.983    1919.4191 
  104400    311.26454   -22794.887    119.68884   -22914.576   -11586.339 
  104600    303.94028    -22819.29    116.87248   -22936.163    6729.6393 
  104800    288.25285   -22815.622    110.84028   -22926.462   -1574.5708 
  105000    323.09402   -22803.608    124.23757   -22927.846    180.77129 
  105200    256.56745   -22822.962     98.65647   -22921.618    2226.6867 
  105400    300.77795   -22806.536    115.65649   -22922.192    5939.2861 
  105600    283.43211   -22808.737    108.98659   -22917.723   -3409.4964 
  105800    322.77166   -22791.547    124.11361   -22915.661   -2523.3011 
  106000    266.81153   -22813.128    102.59557   -22915.724    2098.9279 
  106200      299.202   -22805.753     115.0505   -22920.803   -1517.6142 
  106400    318.89457   -22781.957    122.62278   -22904.579    10123.862 
  106600     289.6543    -22805.12    111.37917   -22916.499   -261.94828 
  106800    257.85038    -22813.86    99.149789    -22913.01    3938.5135 
  107000    294.06975   -22791.051    113.07702   -22904.128    6149.3372 
  107200    299.92638   -22800.697    115.32904   -22916.026    2479.7768 
  107400    264.28473   -22815.194    101.62395   -22916.818    2727.5088 
  107600    329.28123   -22805.725     126.6167   -22932.342    16426.924 
  107800    291.94869   -22798.623    112.26142   -22910.884    1742.7377 
  108000    333.26498   -22770.878    128.14855   -22899.027    3973.7381 
  108200    291.40774   -22806.136    112.05341    -22918.19    -471.3073 
  108400     294.6935   -22809.139    113.31687   -22922.456    6324.1336 
  108600    291.23784   -22786.855    111.98808   -22898.844    6422.8148 
  108800     270.8926     -22821.4    104.16484   -22925.564   -2394.8882 
  109000    306.22382   -22801.405    117.75056   -22919.155    1001.5397 
  109200    283.09882    -22820.79    108.85843   -22929.649    1684.2809 
  109400    280.42255   -22827.621    107.82934   -22935.451   -12252.322 
  109600    305.48029   -22808.309    117.46466   -22925.774    2649.8037 
  109800    318.87144   -22795.132    122.61388   -22917.746   -3921.0697 
  110000    305.19547   -22830.197    117.35513   -22947.552   -5594.3933 
  110200    272.96158   -22814.188    104.96041   -22919.149    5876.9549 
  110400    336.81829   -22793.425    129.51488    -22922.94   -2076.6085 
  110600    296.46543    -22816.51    113.99822   -22930.508    6676.4407 
  110800    270.96535   -22816.469    104.19281   -22920.661   -7080.6146 
  111000    296.74159   -22808.028    114.10441   -22922.132    18665.587 
  111200    304.77309   -22803.015    117.19272   -22920.208    11041.533 
  111400    315.34807   -22790.212    121.25906   -22911.471    2958.1331 
  111600    279.54463   -22815.113    107.49176   -22922.605    10115.029 
  111800    293.25902   -22801.946    112.76528   -22914.711    -3715.422 
  112000    322.09302     -22773.1    123.85266   -22896.953   -5038.8957 
  112200    295.09373   -22805.589    113.47077    -22919.06    804.44873 
  112400    303.36755   -22805.453    116.65226   -22922.106    4779.6583 
  112600    276.26341   -22823.193    106.23005   -22929.423   -4896.5168 
  112800    286.85359    -22797.27    110.30223   -22907.573   -161.23729 
  113000    294.91701   -22795.823    113.40281   -22909.226    4694.0325 
  113200    276.67172   -22819.727    106.38705   -22926.114    4006.4112 
  113400    367.07666   -22785.638    141.14997   -22926.788   -94.196996 
  113600    310.93837   -22801.665    119.56342   -22921.228    6456.5685 
  113800    275.75671   -22808.058    106.03521   -22914.094    -2205.789 
  114000    346.37093   -22773.541    133.18811   -22906.729    6185.3327 
  114200    321.31766    -22789.48    123.55451   -22913.035    1888.4448 
  114400    308.20099   -22811.861    118.51083   -22930.372    2217.8936 
  114600    304.80533   -22807.693    117.20512   -22924.898   -2297.3793 
  114800    293.43636   -22785.311    112.83347   -22898.145    11778.134 
  115000    304.15761   -22814.647    116.95605   -22931.603    5591.0698 
  115200    296.53128   -22806.982    114.02354   -22921.006    93.568909 
  115400    338.09069   -22796.553    130.00415   -22926.557     3414.782 
  115600    282.20232   -22816.116     108.5137    -22924.63   -425.07939 
  115800    295.73766   -22800.508    113.71838   -22914.227    6105.0576 
  116000    307.53912   -22806.355    118.25632   -22924.611   -21421.922 
  116200    303.23075   -22811.386    116.59965   -22927.986   -83.194394 
  116400     335.0918   -22806.747    128.85101   -22935.598   -3933.4598 
  116600    257.87874   -22815.104    99.160693   -22914.265   -2227.6999 
  116800    315.83245   -22806.429    121.44531   -22927.875     10127.21 
  117000    254.27292   -22825.999    97.774165   -22923.773   -862.45067 
  117200    312.78318   -22793.707     120.2728    -22913.98    58.173603 
  117400    278.91017   -22814.338    107.24779   -22921.586   -13753.061 
  117600    316.41018   -22796.697    121.66746   -22918.365    13749.824 
  117800    301.42007   -22796.951     115.9034   -22912.854    5778.7623 
  118000    285.60463    -22812.18    109.82198   -22922.002   -716.37636 
  118200    290.04588   -22804.094    111.52975   -22915.624    6892.8871 
  118400    331.58609   -22771.342    127.50298   -22898.845    13043.446 
  118600     287.4167   -22802.983    110.51876   -22913.501   -7351.0194 
  118800    326.25376   -22799.765    125.45256   -22925.217    1289.3534 
  119000    267.23247   -22824.129    102.75743   -22926.887    880.40558 
  119200    291.99536   -22809.717    112.27937   -22921.996      3794.33 
  119400    289.72065   -22796.906    111.40469    -22908.31    282.01166 
  119600    308.32216   -22798.474    118.55742   -22917.032   -2483.7706 
  119800    300.17374   -22809.444    115.42416   -22924.868   -4446.1012 
  120000     281.7889    -22821.53    108.35473   -22929.885    10806.067 
  120200    282.51416   -22822.216    108.63362    -22930.85    -2690.041 
  120400    345.40065   -22801.653    132.81501   -22934.468    360.50796 
  120600    269.55759   -22810.616    103.65149   -22914.267    4135.7241 
  120800     314.9259   -22792.112    121.09672   -22913.209   -4517.1544 
  121000    297.51348   -22820.076    114.40122   -22934.477   -2728.3512 
  121200    322.18312   -22800.807     123.8873   -22924.694   -2155.3142 
  121400    275.90165   -22799.908    106.09094   -22905.999    17552.184 
  121600    295.81314   -22806.606     113.7474   -22920.353     9996.412 
  121800    282.16346   -22821.985    108.49876   -22930.483    1443.6352 
  122000     290.3463    -22820.43    111.64526   -22932.076   -2151.0164 
  122200    298.30523   -22801.196    114.70567   -22915.901    7582.1302 
  122400    280.67917   -22810.091    107.92801   -22918.019   -258.70703 
  122600    282.86157   -22818.512     108.7672   -22927.279   -12371.698 
  122800    333.32088    -22799.06    128.17004    -22927.23   -8132.9281 
  123000    285.12371   -22821.365    109.63705   -22931.002   -5648.6311 
  123200    289.71106   -22801.686      111.401   -22913.087    4019.0545 
  123400      293.919    -22808.16    113.01905   -22921.179   -1511.0663 
  123600    284.91896    -22814.34    109.55832   -22923.898   -1106.8622 
  123800    295.81757   -22804.546     113.7491   -22918.295    15946.213 
  124000    302.32526   -22797.794    116.25147   -22914.046   -10081.854 
  124200    276.37906   -22821.791    106.27452   -22928.066   -9618.7835 
  124400    323.14809   -22797.415    124.25836   -22921.673    5801.0709 
  124600    322.56664   -22792.049    124.03478   -22916.084    3128.6664 
  124800    304.99984   -22812.805    117.27991   -22930.085     -130.365 
  125000    306.00148   -22805.988    117.66506   -22923.653   -6512.6425 
  125200    330.30887   -22781.305    127.01185   -22908.317    1357.5333 
  125400    301.24914   -22808.785    115.83768   -22924.623     2936.439 
  125600    332.56492   -22808.293    127.87936   -22936.172    1011.5547 
  125800    299.03164   -22822.393    114.98499   -22937.378    1555.6284 
  126000    316.02532   -22806.684    121.51948   -22928.204    7269.9467 
  126200    305.21152   -22793.531    117.36131   -22910.892   -9086.3484 
  126400    261.72626   -22818.505    100.64016   -22919.146    1329.0934 
  126600    318.88012   -22810.244    122.61722   -22932.861    117.89964 
  126800    277.66792   -22808.686    106.77012   -22915.457    3150.4816 
  127000    311.63799   -22794.492    119.83244   -22914.324    989.43429 
  127200     280.4331   -22824.461     107.8334   -22932.295    4750.0839 
  127400    290.83079   -22800.979    111.83156    -22912.81    1157.6127 
  127600     317.4887   -22805.813    122.08218   -22927.896    6759.2738 
  127800    255.25966   -22831.356    98.153593   -22929.509    2792.9689 
  128000    294.80889   -22811.599    113.36124    -22924.96   -3863.0505 
  128200    285.77275   -22811.693    109.88662   -22921.579    3677.9049 
  128400    322.40237   -22807.189    123.97161   -22931.161    369.54094 
  128600    340.62176   -22787.203    130.97741   -22918.181     412.0569 
  128800    288.83105   -22813.432    111.06262   -22924.495    -14278.16 
  129000    321.52886   -22801.731    123.63572   -22925.367    4226.4709 
  129200    278.86744   -22818.702    107.23136   -22925.933    11341.814 
  129400    311.35803   -22806.363    119.72479   -22926.087   -6777.0877 
  129600    310.20089   -22793.141    119.27984    -22912.42   -10379.102 
  129800     282.3412   -22814.532    108.56711     -22923.1   -5221.0112 
  130000    336.22955   -22797.148     129.2885   -22926.436   -2800.5042 
  130200    291.41659   -22822.329    112.05682   -22934.386    632.41895 
  130400    287.48268   -22811.712    110.54413   -22922.256    7470.6755 
  130600    317.79673   -22803.672    122.20063   -22925.873    -2814.063 
  130800    292.09321   -22800.583      112.317     -22912.9   -9508.7154 
  131000    286.74338   -22823.375    110.25985   -22933.635   -423.85458 
  131200     315.8491   -22792.774    121.45172   -22914.226    3439.7832 
  131400    311.13623   -22800.162     119.6395   -22919.801    -2404.605 
  131600    325.18808   -22808.919    125.04278   -22933.962    1453.2834 
  131800    277.83524   -22813.262    106.83446   -22920.096    9592.0548 
  132000    286.19638   -22790.326    110.04952   -22900.376   -2833.1719 
  132200    312.23713   -22796.667    120.06282    -22916.73   -14260.777 
  132400    310.17927   -22814.788    119.27153   -22934.059    13464.744 
  132600    303.64496    -22794.49    116.75893   -22911.248    3480.3327 
  132800    284.43616   -22798.875    109.37267   -22908.248   -135.21392 
  133000    293.94454   -22816.054    113.02887   -22929.083    12153.676 
  133200    285.77232   -22798.007    109.88646   -22907.893    6344.0594 
  133400    282.83975   -22806.959    108.75881   -22915.717   -1848.0248 
  133600    258.81084   -22817.377    99.519109   -22916.897    9134.8531 
  133800     331.3022   -22785.724    127.39381   -22913.118    10492.899 
  134000    277.64126   -22811.651    106.75987   -22918.411    12653.362 
  134200    302.61707   -22793.177    116.36368    -22909.54    100.93823 
  134400     337.4859   -22790.895    129.77159   -22920.667    1477.5778 
  134600    295.76805   -22817.522    113.73006   -22931.252    5127.0887 
  134800    312.63548   -22802.902      120.216   -22923.118   -10928.684 
  135000    323.00824   -22780.939    124.20458   -22905.143   -5219.4155 
  135200    300.72263   -22815.586    115.63522   -22931.221    386.68235 
  135400    318.82963   -22806.365     122.5978   -22928.963    4214.1592 
  135600    293.59025   -22805.949    112.89264   -22918.842   -384.09393 
  135800    279.33852   -22828.007     107.4125   -22935.419    5248.4834 
  136000    285.06311   -22808.119    109.61375   -22917.733    1678.6064 
  136200     297.7005   -22802.276    114.47314   -22916.749    1111.5312 
  136400    271.73262   -22829.694    104.48785   -22934.181    5507.9812 
  136600    291.24771   -22812.065    111.99188   -22924.057   -6523.5298 
  136800    303.81687   -22803.986    116.82503   -22920.811   -1676.4691 
  137000    258.53014    -22830.96     99.41117   -22930.371   -1052.0709 
  137200    296.06327   -22811.786    113.84358   -22925.629   -2194.2538 
  137400    311.33825   -22800.255    119.71718   -22919.972   -236.48536 
  137600    297.11611   -22807.711    114.24842    -22921.96    -375.1272 
  137800    267.53051   -22821.332    102.87203   -22924.204    3774.6156 
  138000    271.00773   -22806.257    104.20911   -22910.466   -3674.2001 
  138200    319.11324   -22805.697    122.70686   -22928.404     1715.654 
  138400    347.46418   -22775.023    133.60849   -22908.632    1180.9102 
  138600    313.99896   -22798.648    120.74029   -22919.389    8317.9076 
  138800    307.29456   -22806.194    118.16229   -22924.356    4851.4484 
  139000    318.07007   -22794.889    122.30574   -22917.195   -2043.2102 
  139200    310.46419   -22802.925    119.38109   -22922.306   -402.53459 
  139400    288.44105   -22822.293    110.91265   -22933.205   -1445.6981 
  139600    317.54734   -22792.324    122.10473   -22914.429    3221.6936 
  139800    327.44617   -22795.294    125.91107   -22921.205    3998.2702 
  140000    309.06188   -22800.719    118.84187    -22919.56   -6803.0819 
  140200    276.61791   -22822.183    106.36636   -22928.549   -7080.6688 
  140400    315.72507   -22792.969    121.40402   -22914.373   -12662.416 
  140600    309.23543   -22803.467     118.9086   -22922.376   -3631.6701 
  140800    307.41385   -22807.888    118.20816   -22926.096   -135.58535 
  141000    333.43343   -22786.558    128.21332   -22914.771    4617.2492 
  141200     296.2862   -22811.527     113.9293   -22925.456   -3541.5937 
  141400    319.99676   -22810.202    123.04659   -22933.249    3763.8641 
  141600     360.8039   -22771.247    138.73794   -22909.985   -11179.538 
  141800    273.85373   -22796.856    105.30347   -22902.159   -10222.102 
  142000    283.81104   -22815.866     109.1323   -22924.998    3623.0097 
  142200    352.09293   -22791.275    135.38836   -22926.663   -12750.652 
  142400    313.71792   -22804.283    120.63222   -22924.916   -7872.9003 
  142600    286.33228   -22817.676    110.10178   -22927.777    7425.4218 
  142800    321.91366   -22790.417    123.78369   -22914.201   -3430.0323 
  143000     318.1478   -22804.358    122.33562   -22926.693   -506.33287 
  143200    311.98711   -22811.582    119.96669   -22931.549   -1028.8774 
  143400    332.00159   -22783.838    127.66274   -22911.501     7163.545 
  143600    281.53374   -22808.341    108.25662   -22916.598    3156.3874 
  143800    323.17477   -22802.834    124.26862   -22927.103   -5178.8814 
  144000    311.02749   -22783.382    119.59769   -22902.979   -5442.5087 
  144200    285.50601   -22808.036    109.78405    -22917.82   -1212.4202 
  144400    293.33839   -22807.699     112.7958   -22920.494   -330.39447 
  144600    278.76249   -22808.959    107.19101    -22916.15     10522.37 
  144800    274.01286   -22815.195    105.36466   -22920.559     74.38987 
  145000    300.14864   -22797.424     115.4145   -22912.838   -13261.203 
  145200    278.58101   -22811.313    107.12122   -22918.434    4907.0031 
  145400    305.97566   -22807.033    117.65514   -22924.688    3298.9551 
  145600    292.59027   -22807.808    112.50812   -22920.316   -5273.4007 
  145800    250.43924   -22819.374    96.300024   -22915.674      6642.26 
  146000    294.33399   -22802.243    113.17863   -22915.421    -5416.029 
  146200    317.74887   -22788.922    122.18222   -22911.104    12064.841 
  146400     314.0632   -22807.955    120.76499    -22928.72   -1026.8933 
  146600    307.96408   -22806.632    118.41973   -22925.051    1357.5705 
  146800    325.89455   -22791.352    125.31444   -22916.666   -3015.0527 
  147000      262.109   -22806.006    100.78733   -22906.793   -2476.9298 
  147200    353.06275   -22790.086    135.76128   -22925.848   -3384.6646 
  147400    312.28492   -22806.763     120.0812   -22926.844    147.08426 
  147600     301.6758   -22809.958    116.00173   -22925.959   -2423.0834 
  147800    322.50286   -22803.425    124.01025   -22927.435    4580.1912 
  148000    272.72441   -22823.378    104.86922   -22928.248    5740.8561 
  148200    304.61818     -22801.1    117.13315   -22918.234    -11850.59 
  148400    294.34072   -22809.336    113.18122   -22922.517    8459.4813 
  148600    272.09253   -22815.957    104.62624   -22920.583    -4574.767 
  148800    314.16421   -22800.121    120.80383   -22920.925    4117.1113 
  149000    279.87139    -22823.45    107.61741   -22931.068    11115.395 
  149200    308.92193   -22792.105    118.78805   -22910.893    6719.9396 
  149400    280.56199   -22811.496    107.88296   -22919.379    4998.5362 
  149600    320.05679    -22804.56    123.06968    -22927.63    400.21306 
  149800    310.24509   -22794.474    119.29684   -22913.771    181.32856 
  150000    280.42426   -22817.873       107.83   -22925.703    720.03753 
  150200    329.91244   -22797.474    126.85942   -22924.333    6747.4831 
  150400    266.52126   -22823.644    102.48395   -22926.128   -5655.6417 
  150600    287.25379   -22811.449    110.45612   -22921.905   -1892.2554 
  150800    311.14555   -22801.974    119.64309   -22921.617   -4374.0242 
  151000    303.40953   -22813.834     116.6684   -22930.502    8619.7942 
  151200    291.70423    -22819.93    112.16742   -22932.097     -3464.53 
  151400    347.04659   -22798.388    133.44792   -22931.836    -17932.19 
  151600    298.02353    -22812.34    114.59735   -22926.938    4907.2866 
  151800     275.9882   -22827.056    106.12422    -22933.18    -2074.366 
  152000     277.7135   -22798.706    106.78765   -22905.494    7129.2896 
  152200    280.73694    -22813.31    107.95023   -22921.261   -3727.8761 
  152400    237.55952   -22836.197    91.347454   -22927.544    2133.5745 
  152600    327.52881   -22806.249    125.94285   -22932.192   -5656.6718 
  152800    279.46265   -22805.564    107.46023   -22913.024   -6207.4271 
  153000    288.17097   -22804.393     110.8088   -22915.202   -790.31867 
  153200    294.29119   -22802.454    113.16217   -22915.616   -7193.8559 
  153400    299.84382   -22799.834    115.29729   -22915.131   -4423.1592 
  153600    266.94108    -22815.04    102.64538   -22917.686   -11804.062 
  153800    288.64718   -22815.291    110.99191   -22926.282    3274.5974 
  154000    326.05953   -22793.899    125.37787   -22919.277    12590.219 
  154200    271.25015   -22819.918    104.30233    -22924.22    436.47055 
  154400    303.82892   -22802.501    116.82966    -22919.33    6172.8863 
  154600    292.79989   -22806.861    112.58873    -22919.45   -1266.7149 
  154800    290.90849   -22814.044    111.86144   -22925.906   -1027.9263 
  155000    301.49281   -22796.007    115.93137   -22911.938     7200.625 
  155200    268.67411   -22820.301    103.31178   -22923.613    2721.7864 
  155400    275.95195   -22811.173    106.11028   -22917.283   -8825.6451 
  155600    297.81999   -22801.065    114.51908   -22915.584   -86.653179 
  155800    289.52889   -22793.656    111.33095   -22904.987   -2439.9664 
  156000    286.77412   -22817.514    110.27167   -22927.786    1891.3266 
  156200    280.51962   -22821.548    107.86666   -22929.415    1722.0632 
  156400    336.27059   -22795.716    129.30428   -22925.021   -4519.5057 
  156600    284.09913   -22810.565    109.24308   -22919.808    2133.4925 
  156800    263.61564   -22813.065    101.36667   -22914.432   -19274.894 
  157000    328.56277   -22793.002    126.34044   -22919.342    8363.6739 
  157200    285.22744   -22803.628    109.67694   -22913.305    12032.862 
  157400    279.91066   -22812.379     107.6325   -22920.011   -7926.9548 
  157600    292.56702   -22823.028    112.49919   -22935.527    9557.4955 
  157800    322.26344   -22799.495    123.91819   -22923.413    2992.1081 
  158000    303.77056    -22811.11    116.80722   -22927.917     1794.352 
  158200    276.26678   -22814.584    106.23134   -22920.815   -3387.9234 
  158400    308.75041   -22803.046     118.7221   -22921.768   -3925.4604 
  158600    286.05195   -22819.852    109.99398   -22929.846    9168.3314 
  158800    310.13449   -22790.861    119.25431   -22910.115    1041.8367 
  159000     313.6292   -22794.877    120.59811   -22915.475   -14331.041 
  159200    294.43197   -22812.477     113.2163   -22925.694   -108.61715 
  159400    293.16845   -22809.429    112.73045   -22922.159   -10699.558 
  159600    303.92896    -22805.17    116.86813   -22922.038    2585.9092 
  159800     309.9229   -22797.481    119.17295   -22916.654    682.04328 
  160000    312.55341   -22783.309    120.18444   -22903.493   -13001.783 
  160200    304.77441   -22807.108    117.19323   -22924.301     8288.757 
  160400    285.95813   -22812.662    109.95791    -22922.62   -13481.369 
  160600    313.57996   -22796.774    120.57917   -22917.353    3638.0017 
  160800    319.85241   -22809.865    122.99109   -22932.856    -5313.992 
  161000    304.60721   -22813.926    117.12894   -22931.054    4009.5639 
  161200    307.81126   -22803.957    118.36097   -22922.318   -169.10185 
  161400    282.88232   -22811.365    108.77518    -22920.14    -910.0521 
  161600    280.12207   -22814.466     107.7138    -22922.18    11827.855 
  161800    328.02881   -22793.784    126.13511    -22919.92    -4397.054 
  162000    293.99077   -22814.433    113.04665    -22927.48    3982.2583 
  162200     282.1241   -22824.425    108.48363   -22932.909    596.64245 
  162400    336.57483    -22799.19    129.42127   -22928.611    310.63949 
  162600    272.31127   -22825.002    104.71036   -22929.712   -5087.4531 
  162800     301.2715   -22817.259    115.84627   -22933.106   -6369.6263 
  163000    300.94048   -22802.062    115.71899   -22917.781   -5333.4912 
  163200    311.58719   -22795.856    119.81291   -22915.669   -4764.5489 
  163400    289.07778   -22807.244    111.15749   -22918.402    2738.6236 
  163600    303.17888   -22813.785    116.57971   -22930.365      -3231.8 
  163800    310.86228   -22789.632    119.53416   -22909.166   -1761.9794 
  164000    303.25537    -22810.53    116.60912   -22927.139    3268.2077 
  164200    319.16359   -22793.631    122.72622   -22916.357    1392.2867 
  164400    314.78387   -22801.296    121.04211   -22922.338    7972.4909 
  164600    278.35689   -22817.082    107.03504   -22924.118    839.86759 
  164800    321.97577   -22791.444    123.80757   -22915.251    8998.2867 
  165000    328.32293   -22807.244    126.24821   -22933.493   -5032.0877 
  165200    295.96496   -22809.115    113.80578   -22922.921    8543.0434 
  165400    297.81218   -22795.911    114.51608   -22910.427   -12620.556 
  165600    294.58845   -22795.571    113.27648   -22908.847    6757.8441 
  165800    259.06038   -22812.651    99.615062   -22912.266   -14745.007 
  166000    315.35761   -22780.056    121.26273   -22901.319   -3135.0017 
  166200     359.0803   -22784.125    138.07517     -22922.2   -422.93969 
  166400     297.7954   -22810.677    114.50963   -22925.187   -11396.445 
  166600    288.72164   -22820.218    111.02054   -22931.239    8768.4023 
  166800    317.09463   -22798.535    121.93065   -22920.466   -535.43551 
  167000    310.99545   -22802.554    119.58537   -22922.139     2263.652 
  167200    293.16112   -22818.742    112.72763   -22931.469    13212.406 
  167400    302.76886   -22807.669    116.42204   -22924.091    -4658.379 
  167600     355.6527   -22784.724    136.75717   -22921.481     1024.957 
  167800    299.27989    -22806.33    115.08045    -22921.41    5204.5305 
  168000    281.77222   -22814.364    108.34832   -22922.713    4058.5227 
  168200    330.45322   -22782.683    127.06736    -22909.75    266.20097 
  168400    327.90298   -22787.711    126.08673   -22913.798   -7309.4746 
  168600    300.14346   -22812.509    115.41251   -22927.922    5930.4914 
  168800    316.64472   -22807.471    121.75765   -22929.229   -12819.761 
  169000    321.38461    -22790.85    123.58026    -22914.43   -839.19113 
  169200     278.0381   -22818.696    106.91246   -22925.608    11.683986 
  169400    296.37083   -22798.188    113.96185   -22912.149     -9751.22 
  169600      317.686    -22797.27    122.15805   -22919.428   -8619.6695 
  169800    291.76461   -22815.698    112.19064   -22927.889    634.19409 
  170000    300.82389   -22806.541    115.67415   -22922.216    11015.284 
  170200    325.06033   -22782.926    124.99366    -22907.92    3441.2205 
  170400    286.43013   -22797.963     110.1394   -22908.102    4039.7039 
  170600    299.70196   -22810.162    115.24275   -22925.405   -3847.5498 
  170800     284.9761   -22800.887    109.58029   -22910.467    14778.634 
  171000    302.31347   -22797.402    116.24694   -22913.649   -2107.3898 
  171200    266.34664   -22818.749    102.41681   -22921.166   -663.84746 
  171400     285.4635   -22810.012    109.76771    -22919.78   -3266.2934 
  171600    295.68252   -22805.046    113.69717   -22918.743    3905.1246 
  171800    302.04941   -22795.349     116.1454   -22911.495    925.85966 
  172000    285.66845   -22820.614    109.84652    -22930.46    8480.9535 
  172200    280.45431   -22809.562    107.84155   -22917.403   -1176.3828 
  172400    329.39677   -22792.415    126.66113   -22919.076   -5345.8605 
  172600    293.35264   -22813.016    112.80128   -22925.817   -9426.3661 
  172800     325.3783   -22806.539    125.11593   -22931.655    2070.4843 
  173000     303.5086   -22804.317    116.70649   -22921.024    621.18595 
  173200    287.62592   -22828.953    110.59921   -22939.552   -1773.2485 
  173400    300.91852   -22801.381    115.71054   -22917.092    12555.314 
  173600    312.29304    -22800.25    120.08432   -22920.335    1143.5341 
  173800    331.42068   -22790.963    127.43937   -22918.403   -1096.4822 
  174000    307.73576   -22820.682    118.33194   -22939.014    12152.055 
  174200    301.07833   -22804.439    115.77199   -22920.211    5108.0588 
  174400    325.61345   -22796.516    125.20635   -22921.722    1874.2046 
  174600    288.78145   -22822.877    111.04354   -22933.921   -437.97973 
  174800    318.61544   -22795.491    122.51544   -22918.006   -5847.2641 
  175000    291.24639   -22800.073    111.99137   -22912.065   -9846.6905 
  175200    274.84452   -22828.864    105.68445   -22934.549   -9819.0227 
  175400    319.36016   -22814.485     122.8018   -22937.287    5066.6389 
  175600    294.56684   -22815.387    113.26817   -22928.655    2293.8266 
  175800    315.52075   -22786.159    121.32546   -22907.485    12878.687 
  176000    328.75829   -22792.944    126.41561    -22919.36   -7800.7541 
  176200     286.5644   -22805.458    110.19103   -22915.649    1994.4917 
  176400    299.21231   -22808.692    115.05446   -22923.747    5758.0186 
  176600    285.91442   -22829.502     109.9411   -22939.443   -4846.7312 
  176800    320.85021   -22794.699    123.37476   -22918.074   -6960.3842 
  177000    291.03152   -22795.767    111.90875   -22907.676    939.86964 
  177200    296.94024   -22799.278    114.18079   -22913.459   -6706.4719 
  177400    288.82868   -22819.453     111.0617   -22930.515    3961.5744 
  177600    322.25512   -22801.954    123.91499   -22925.869    7221.1788 
  177800    292.20837   -22805.712    112.36128   -22918.073    8411.9965 
  178000    313.61058   -22813.709    120.59095   -22934.299   -1336.7599 
  178200    295.68978   -22803.101    113.69996   -22916.801   -4320.1615 
  178400    331.24231   -22782.527    127.37078   -22909.898   -1797.9146 
  178600    301.06382   -22805.865    115.76641   -22921.631   -3430.3927 
  178800     288.9237   -22814.494    111.09824   -22925.592    332.19402 
  179000    303.74182   -22795.979    116.79617   -22912.775     4208.429 
  179200    333.51622   -22806.417    128.24516   -22934.663    9195.6137 
  179400    281.68242     -22815.2    108.31379   -22923.514    10501.886 
  179600    304.54983   -22797.794    117.10687     -22914.9    2722.2227 
  179800    319.19232    -22788.78    122.73727   -22911.518   -5368.2131 
  180000    298.94893    -22817.24    114.95319   -22932.194    9508.7174 
  180200    303.01722   -22809.512    116.51755    -22926.03    2952.5355 
  180400     344.4446   -22769.991    132.44739   -22902.439   -1286.4392 
  180600    293.62633   -22792.612    112.90652   -22905.519   -6172.1244 
  180800    335.32014   -22794.096    128.93881   -22923.034    764.15446 
  181000    254.18626   -22821.705    97.740843   -22919.446    -440.6375 
[...]
  950000    304.41746   -22802.072    117.05597   -22919.128   -5985.8877 
  950200    322.53876   -22775.582    124.02405   -22899.606    7317.3646 
  950400    295.43243   -22795.098    113.60101   -22908.699   -3389.2298 
  950600    289.03396   -22820.243    111.14064   -22931.383   -4479.7799 
  950800    316.35764   -22801.421    121.64726   -22923.069    1490.9694 
  951000    318.28987   -22800.443    122.39025   -22922.834   -11103.296 
  951200    293.45764   -22823.308    112.84165   -22936.149   -1932.0127 
  951400    322.76827   -22801.514    124.11231   -22925.626     4363.839 
  951600     300.3206   -22798.346    115.48063   -22913.826    4440.7372 
  951800    306.91623   -22812.326    118.01681   -22930.343   -1222.9163 
  952000    314.23578   -22810.315    120.83136   -22931.146    3982.0934 
  952200    270.25317   -22789.733    103.91897   -22893.652    498.67723 
  952400    275.75773   -22813.836     106.0356   -22919.872    5301.4692 
  952600    308.34889   -22803.601     118.5677   -22922.169   -9843.5752 
  952800     273.5227   -22819.403    105.17618   -22924.579   -7243.8015 
  953000    287.45626   -22824.057    110.53398   -22934.591   -3897.8458 
  953200    324.17979   -22800.842    124.65507   -22925.497    5675.7798 
  953400     309.3473   -22798.093    118.95162   -22917.044    5202.1607 
  953600    345.45869   -22793.899    132.83733   -22926.737    -6349.397 
  953800    273.90995   -22819.533    105.32509   -22924.858    9341.2578 
  954000    329.67769   -22798.835    126.76915   -22925.604   -5262.3154 
  954200    290.41518   -22790.056    111.67175   -22901.728   -4463.5094 
  954400    293.10893   -22811.038    112.70756   -22923.746     6929.132 
  954600    307.84787   -22789.562    118.37505   -22907.937   -6978.1414 
  954800    262.28358   -22820.022    100.85446   -22920.877    304.67866 
  955000    301.34758    -22804.14    115.87553   -22920.015    4048.2854 
  955200    342.29774   -22779.356    131.62187   -22910.978    2202.6242 
  955400    273.54615   -22799.147     105.1852   -22904.332    474.35061 
  955600    267.15595   -22809.433    102.72801   -22912.161   -9081.2183 
  955800    327.34966   -22797.644    125.87396   -22923.518   -4099.6974 
  956000     280.5033   -22811.664    107.86039   -22919.524    1452.4667 
  956200    258.14231   -22816.323    99.262043   -22915.585    9367.0638 
  956400     293.0559   -22801.028    112.68717   -22913.715    3748.0295 
  956600    325.36936   -22778.212    125.11249   -22903.324    8803.6598 
  956800    288.16979   -22806.238    110.80834   -22917.047    8792.0049 
  957000    281.49352   -22814.661    108.24115   -22922.903   -8545.8675 
  957200    335.70566   -22785.487    129.08705   -22914.574    6072.7517 
  957400     320.9244   -22793.964    123.40329   -22917.368   -2593.0192 
  957600    305.82781   -22806.832    117.59829    -22924.43   -6774.2737 
  957800     336.6489   -22791.148    129.44975   -22920.598    10245.312 
  958000      292.788   -22819.271    112.58416   -22931.855   -4461.8965 
  958200    338.09557    -22807.11    130.00603   -22937.116   -1985.7862 
  958400    297.58448   -22804.832    114.42852    -22919.26    1176.4888 
  958600    263.90874   -22811.658    101.47937   -22913.138    2351.8118 
  958800    301.21086   -22808.686    115.82295   -22924.509    690.26295 
  959000    292.13531   -22811.271    112.33318   -22923.604    3060.9069 
  959200    317.64262   -22812.041    122.14137   -22934.182    4039.3553 
  959400    304.51491   -22797.631    117.09344   -22914.724   -7314.5596 
  959600    301.67513   -22803.945    116.00148   -22919.947    13738.487 
  959800    249.43578   -22826.837    95.914167   -22922.752    3567.9938 
  960000    295.24427   -22810.985    113.52865   -22924.514    -3043.577 
  960200    274.46724    -22808.95    105.53938   -22914.489   -3306.6839 
  960400    336.64312    -22798.12    129.44753   -22927.568   -1072.1315 
  960600    272.75053    -22812.78    104.87926   -22917.659    626.00792 
  960800    283.48816   -22793.988    109.00814   -22902.996     812.8677 
  961000    307.91455   -22799.909    118.40069    -22918.31    -7155.043 
  961200    287.33024   -22808.705    110.48552   -22919.191    9179.4776 
  961400     317.9056    -22797.06    122.24249   -22919.303    7239.0133 
  961600    280.25359    -22825.27    107.76437   -22933.034     2448.982 
  961800     321.3597    -22801.43    123.57068   -22925.001    5934.6695 
  962000    284.42323   -22807.551     109.3677   -22916.918    4032.4948 
  962200    295.32617   -22807.439    113.56015   -22920.999    685.08366 
  962400    330.86639   -22798.114    127.22623    -22925.34   -122.41506 
  962600    272.06835   -22823.345    104.61695   -22927.962   -5521.6129 
  962800    327.09433   -22792.404    125.77578   -22918.179    4204.9726 
  963000    282.74986   -22807.515    108.72425   -22916.239   -5740.9228 
  963200     265.8333   -22811.352    102.21941   -22913.572   -8959.6786 
  963400    323.14499   -22786.688    124.25717   -22910.945     3683.992 
  963600    266.13418   -22809.363    102.33511   -22911.698   -2163.8024 
  963800    276.90746   -22807.987     106.4777   -22914.464    8951.0607 
  964000      313.341   -22792.553    120.48729    -22913.04   -480.98947 
  964200    299.70322   -22806.497    115.24323    -22921.74   -5226.3226 
  964400    318.14966   -22817.328    122.33634   -22939.665   -10669.465 
  964600    319.66345   -22790.932    122.91843    -22913.85   -4882.6037 
  964800    273.86621   -22812.608    105.30827   -22917.916    635.32446 
  965000    317.92687   -22802.298    122.25067   -22924.548   -226.39298 
  965200    288.19779   -22795.972    110.81911   -22906.792    1621.7859 
  965400    306.23805   -22808.381    117.75603   -22926.137    6629.5907 
  965600    298.61816   -22810.176      114.826   -22925.002    -3582.058 
  965800    325.94379   -22801.415    125.33337   -22926.748   -10065.099 
  966000    265.82421   -22810.391    102.21592   -22912.607   -10467.003 
  966200    304.72019   -22822.382    117.17238   -22939.554    664.11238 
  966400    344.33883   -22792.574    132.40671   -22924.981    2032.7311 
  966600     286.8969   -22800.303    110.31889   -22910.622    6929.6344 
  966800    287.91434   -22821.283    110.71012   -22931.993    8414.5507 
  967000    309.32795   -22810.159    118.94418   -22929.104   -4145.0801 
  967200    329.91383   -22803.077    126.85995   -22929.937   -1176.3487 
  967400    262.17563    -22822.31    100.81295   -22923.123    2735.6192 
  967600    297.74091   -22789.989    114.48867   -22904.477   -12645.905 
  967800    279.57661   -22808.876    107.50406    -22916.38   -10986.697 
  968000    262.78836   -22822.476    101.04856   -22923.525    4811.0378 
  968200    296.72558   -22824.153    114.09826   -22938.252   -460.14401 
  968400     295.8844   -22800.499     113.7748   -22914.274    837.48728 
  968600    303.54679   -22814.244    116.72118   -22930.965   -4592.3918 
  968800    257.52184   -22835.053    99.023455   -22934.077   -6625.2483 
  969000    306.71156   -22800.595    117.93811   -22918.533    2155.7674 
  969200    293.87447   -22803.623    113.00193   -22916.625    1997.0545 
  969400    293.17061   -22810.632    112.73128   -22923.363    6390.9056 
  969600    329.57186   -22816.827    126.72845   -22943.556   -4468.7186 
  969800    319.95803   -22800.014     123.0317   -22923.045   -3645.3443 
  970000    300.03529   -22801.307    115.37092   -22916.678   -9365.0843 
  970200    276.16206   -22816.746    106.19108   -22922.937   -2048.6777 
  970400     318.5647   -22786.195    122.49593   -22908.691     8565.329 
  970600    278.82238   -22809.236    107.21404    -22916.45   -6263.5612 
  970800    316.73819   -22816.853    121.79359   -22938.647   -740.65736 
  971000    314.62316   -22793.216    120.98031   -22914.197   -8604.7489 
  971200    308.82216   -22805.199    118.74969   -22923.948    7179.7884 
  971400    254.54939   -22817.653    97.880476   -22915.533   -11665.878 
  971600    333.38584   -22792.994    128.19502   -22921.189   -1901.5228 
  971800    296.89555   -22813.252    114.16361   -22927.416   -4867.3914 
  972000    303.78085    -22803.95    116.81118   -22920.761    -11925.55 
  972200    319.77307   -22788.541    122.96058   -22911.502    -5141.463 
  972400    303.83551     -22817.7     116.8322   -22934.532    4086.4889 
  972600    324.04265   -22801.745    124.60234   -22926.347   -6121.0041 
  972800    295.04832   -22804.478    113.45331   -22917.931    11239.475 
  973000    297.10349   -22808.955    114.24357   -22923.199   -8502.3689 
  973200    317.49156   -22793.067    122.08328    -22915.15    6380.8199 
  973400    319.99748   -22787.683    123.04687    -22910.73    5474.7599 
  973600    302.83966    -22816.25    116.44927   -22932.699    744.29092 
  973800    325.83305   -22797.568    125.29079   -22922.859   -961.41936 
  974000    305.66798   -22800.542    117.53683   -22918.079    3432.5317 
  974200    316.75503   -22807.078    121.80007   -22928.878    5387.0096 
  974400    260.23091   -22829.787    100.06516   -22929.852   -13168.635 
  974600    316.97756   -22802.382    121.88564   -22924.268     2655.316 
  974800    284.56509   -22815.931    109.42225   -22925.353   -7360.1502 
  975000    319.42326   -22806.342    122.82607   -22929.168   -5916.7844 
  975200    314.24345   -22793.798     120.8343   -22914.632     10045.31 
  975400    299.19305    -22815.52    115.04706   -22930.567   -6168.3714 
  975600    270.31809   -22811.402    103.94393   -22915.345    8753.9769 
  975800    288.02688    -22800.25    110.75339   -22911.003   -12018.036 
  976000     261.7238   -22816.976    100.63921   -22917.615    3849.0134 
  976200    302.54078   -22808.793    116.33434   -22925.127   -3229.1757 
  976400    327.27192   -22792.712    125.84407   -22918.556   -781.50252 
  976600    297.27485   -22795.873    114.30946   -22910.183    7872.5123 
  976800    275.61847   -22822.098    105.98205    -22928.08     6555.854 
  977000     312.3705   -22798.883    120.11411   -22918.997   -4664.4762 
  977200     322.3968   -22797.108    123.96947   -22921.077    7782.6737 
  977400    257.80834   -22822.333     99.13362   -22921.467   -1608.3267 
  977600    281.79697   -22811.812    108.35784    -22920.17    2788.0199 
  977800    295.69406   -22797.812    113.70161   -22911.514    15306.159 
  978000     323.0244   -22771.418     124.2108   -22895.629   -19474.983 
  978200    312.92536   -22809.562    120.32746   -22929.889    8632.5917 
  978400    274.40226    -22810.13    105.51439   -22915.645   -7074.2833 
  978600    319.37856   -22790.502    122.80888   -22913.311    7462.8294 
  978800    288.03473   -22804.352    110.75641   -22915.109   -955.28317 
  979000    265.91395    -22817.86    102.25043    -22920.11    240.64919 
  979200    337.53097   -22793.315    129.78893   -22923.104   -2998.9252 
  979400    331.24657   -22797.817    127.37242   -22925.189   -1945.7752 
  979600    300.86717   -22813.183     115.6908   -22928.874    10147.628 
  979800    331.64263   -22784.535    127.52472    -22912.06    1468.5728 
  980000     302.7338   -22812.715    116.40856   -22929.123   -572.14167 
  980200    307.49833   -22801.416    118.24064   -22919.657   -515.16894 
  980400     315.1052   -22806.676    121.16567   -22927.842   -7722.9479 
  980600    300.52047     -22823.1    115.55748   -22938.657    11797.792 
  980800    279.54682   -22812.702     107.4926   -22920.195    13659.934 
  981000    309.61396   -22798.315    119.05415    -22917.37   -6057.8333 
  981200    268.62553   -22812.402     103.2931   -22915.695   -2950.1262 
  981400    280.77377   -22810.425    107.96439    -22918.39    1598.1491 
  981600    310.89121   -22788.013    119.54529   -22907.559    4534.2001 
  981800    337.65849   -22772.543    129.83796   -22902.381   -1911.9368 
  982000    345.50769   -22805.205    132.85617   -22938.061   -1893.4547 
  982200    265.35707   -22814.436    102.03629   -22916.472    2823.6057 
  982400    301.72358   -22804.384    116.02011   -22920.404   -3777.0291 
  982600    288.78905   -22810.365    111.04646   -22921.411    6117.9622 
  982800    331.98585   -22791.604    127.65669    -22919.26   -2404.2094 
  983000    293.34269   -22801.186    112.79745   -22913.983   -6160.9264 
  983200    255.71952   -22815.291    98.330418   -22913.621   -5436.9687 
  983400    311.52123   -22795.738    119.78754   -22915.526   -306.52666 
  983600    336.27988   -22783.264    129.30785   -22912.572    13296.715 
  983800    277.09004   -22813.688    106.54791   -22920.236   -61.483012 
  984000    298.96189   -22803.925    114.95817   -22918.883    7515.4312 
  984200    299.11121    -22785.63    115.01559   -22900.646    562.30979 
  984400    299.05575   -22801.865    114.99426   -22916.859    -15466.63 
  984600    328.30364    -22807.27    126.24079   -22933.511    5420.1828 
  984800    293.74587   -22798.747    112.95248   -22911.699   -7881.1796 
  985000    302.87433   -22799.828     116.4626   -22916.291   -7682.5926 
  985200    275.67251     -22818.5    106.00283   -22924.503    9809.8905 
  985400    290.28137   -22803.821     111.6203   -22915.441   -7608.1912 
  985600    359.49811   -22772.638    138.23583   -22910.874    1280.8982 
  985800    326.32745   -22797.532     125.4809   -22923.013    2652.3447 
  986000    264.48435   -22814.335    101.70071   -22916.036   -10031.988 
  986200    303.52446   -22798.583    116.71259   -22915.296    6959.5604 
  986400    279.21985    -22826.56    107.36687   -22933.927   -4921.7225 
  986600    305.34576   -22809.726    117.41292   -22927.139    797.96029 
  986800    340.21338   -22798.479    130.82038   -22929.299    4268.0318 
  987000    293.13921   -22815.348    112.71921   -22928.068    1828.8105 
  987200    313.97932   -22802.156    120.73274   -22922.889   -12557.713 
  987400    320.80361   -22805.137    123.35685   -22928.493   -3637.6329 
  987600    283.25633   -22826.393      108.919   -22935.312   -10546.963 
  987800    282.95668   -22801.423    108.80378   -22910.227   -57.568876 
  988000    294.31068   -22800.475    113.16967   -22913.645   -1062.2921 
  988200    299.81493   -22808.045    115.28618   -22923.331   -1095.0652 
  988400    315.21015   -22796.734    121.20602    -22917.94   -1710.3791 
  988600    306.40135   -22793.636    117.81882   -22911.455    7480.2741 
  988800    300.40958   -22810.411    115.51484   -22925.926    1091.9318 
  989000    297.87146   -22802.421    114.53887    -22916.96   -6836.1336 
  989200    319.17336   -22779.108    122.72997   -22901.838    2059.1137 
  989400    293.20276   -22808.363    112.74365   -22921.107    1443.2274 
  989600    288.49796   -22800.738    110.93453   -22911.673    2814.6663 
  989800    282.06664   -22807.561    108.46153   -22916.022    -5148.662 
  990000    282.88803   -22814.096    108.77738   -22922.874    -6615.376 
  990200    333.41866   -22785.363    128.20764    -22913.57    10172.635 
  990400    309.17938   -22799.378    118.88705   -22918.266     1224.651 
  990600    265.66781   -22821.244    102.15578   -22923.399   -790.53358 
  990800    286.20998   -22805.132    110.05475   -22915.187    15574.614 
  991000    294.82123   -22798.646    113.36599   -22912.012   -15136.098 
  991200    318.61552   -22804.416    122.51547   -22926.932    7461.4582 
  991400    312.34193   -22806.091    120.10312   -22926.194   -1705.9766 
  991600    308.75665   -22800.051    118.72449   -22918.776   -7930.3296 
  991800    335.76841   -22782.539    129.11118    -22911.65    1808.5492 
  992000    277.61219   -22811.536    106.74869   -22918.284    2476.3293 
  992200    334.77486   -22804.053    128.72913   -22932.782    1118.2927 
  992400    263.06363   -22831.131    101.15441   -22932.285    1278.8013 
  992600    304.20824   -22807.334    116.97552    -22924.31   -4949.8379 
  992800    273.26597   -22795.141    105.07746   -22900.218   -8678.2041 
  993000    351.85615   -22777.292    135.29731   -22912.589    4479.8622 
  993200    299.74559   -22809.406    115.25952   -22924.666   -3909.7258 
  993400    302.06364   -22810.519    116.15087    -22926.67    1034.5312 
  993600    300.35763   -22790.144    115.49487   -22905.639    1541.1812 
  993800    304.92947   -22812.491    117.25285   -22929.744    1679.4097 
  994000    323.05871   -22804.557    124.22399   -22928.781   -1316.8706 
  994200    263.03571   -22823.749    101.14367   -22924.892   -2669.4895 
  994400    323.71172   -22801.611    124.47509   -22926.087   -4739.4547 
  994600    303.59718   -22801.508    116.74055   -22918.248    4436.3922 
  994800    314.86128    -22830.87    121.07187   -22951.942   -7455.2756 
  995000     265.1406   -22817.879    101.95305   -22919.832   -2658.7031 
  995200     303.0514   -22803.862    116.53069   -22920.393   -3739.2208 
  995400    339.74385   -22792.525    130.63983   -22923.165    -1576.854 
  995600    291.40157   -22821.136    112.05104   -22933.187    2235.3217 
  995800    322.46355    -22801.82    123.99514   -22925.815   -5387.1962 
  996000     294.4419   -22802.228    113.22012   -22915.448    3094.6016 
  996200    273.05773   -22819.331    104.99739   -22924.328    3837.5341 
  996400    314.51925   -22782.431    120.94036   -22903.371   -3181.8011 
  996600    269.16085   -22786.054    103.49894   -22889.553    8637.7006 
  996800    306.32532   -22803.584    117.78959   -22921.374    -3304.917 
  997000    282.92522   -22812.471    108.79168   -22921.263    10216.472 
  997200    302.70614   -22796.771    116.39793   -22913.169   -1903.7224 
  997400    295.47362    -22829.41    113.61684   -22943.027   -1229.9393 
  997600    295.95949   -22811.542    113.80367   -22925.346    5162.4277 
  997800    285.89763   -22805.725    109.93464    -22915.66    3884.3115 
  998000    290.89663   -22816.001    111.85688   -22927.858    5212.4785 
  998200    304.46039   -22814.089    117.07248   -22931.161   -1319.5579 
  998400    323.79445   -22791.751     124.5069   -22916.258    1623.1169 
  998600    311.12952   -22806.686    119.63692   -22926.323   -2792.0669 
  998800    308.20178   -22807.761    118.51113   -22926.272     -10934.9 
  999000    340.59179   -22790.925    130.96589   -22921.891   -7796.2092 
  999200    294.50061   -22804.579     113.2427   -22917.822   -708.71738 
  999400    272.85513   -22811.638    104.91948   -22916.557    3900.7529 
  999600    383.78267   -22781.035    147.57384   -22928.609    2254.1649 
  999800    306.25598   -22799.816    117.76293   -22917.579   -22.027847 
 1000000    284.67991   -22810.904     109.4664    -22920.37    11486.564 
Loop time of 6913.97 on 8 procs for 1000000 steps with 130 atoms

Performance: 3.124 ns/day, 7.682 hours/ns, 144.635 timesteps/s
99.5% CPU use with 8 MPI tasks x no OpenMP threads

MPI task timing breakdown:
Section |  min time  |  avg time  |  max time  |%varavg| %total
---------------------------------------------------------------
Pair    | 5340       | 5437.6     | 5521.9     |  86.0 | 78.65
Neigh   | 3.5193     | 3.5712     | 3.6591     |   2.1 |  0.05
Comm    | 196.89     | 280.69     | 378.94     | 381.0 |  4.06
Output  | 0.32652    | 0.3514     | 0.48786    |   8.7 |  0.01
Modify  | 1175.2     | 1175.9     | 1178.6     |   3.0 | 17.01
Other   |            | 15.88      |            |       |  0.23

Nlocal:    16.25 ave 17 max 15 min
Histogram: 2 0 0 0 0 2 0 0 0 4
Nghost:    539.5 ave 552 max 527 min
Histogram: 1 0 1 0 4 0 0 0 0 2
Neighs:    2219 ave 2336 max 2059 min
Histogram: 2 0 0 1 1 0 0 0 1 3

Total # of neighbors = 17752
Ave neighs/atom = 136.554
Neighbor list builds = 1526
Dangerous builds = 0

Please see the log.cite file for references relevant to this simulation

Total wall time: 1:55:21
