ITEM: TIMESTEP
0
ITEM: NUMBER OF ATOMS
51
ITEM: BOX BOUNDS pp pp pp
0.0000000000000000e+00 1.1000000000000000e+01
0.0000000000000000e+00 1.1002000000000001e+01
0.0000000000000000e+00 1.1000000000000000e+01
ITEM: ATOMS id type x y z 
10 1 4.603 4.603 4.603 
11 1 3.085 3.085 3.085 
12 1 3.796 3.796 3.796 
46 1 0.726 0.725 0.725 
47 1 2.26 2.259 2.26 
48 1 1.551 1.55 1.55 
49 2 3.372 3.468 5.043 
50 2 1.927 3.098 5.039 
19 1 4.546 4.545 6.226 
20 1 3.013 3.013 7.764 
21 1 3.721 3.721 7.053 
31 1 0.668 0.667 10.103 
32 1 2.187 2.187 8.589 
33 1 1.476 1.475 9.298 
51 3 1.749 3.359 5.956 
16 1 4.546 6.225 4.546 
17 1 3.013 7.765 3.013 
18 1 3.721 7.053 3.722 
25 1 0.668 10.103 0.668 
26 1 2.188 8.589 2.188 
27 1 1.476 9.298 1.476 
4 1 4.608 6.169 6.169 
5 1 3.086 7.684 7.684 
6 1 3.799 6.974 6.974 
37 1 0.729 10.046 10.046 
38 1 2.259 8.509 8.508 
39 1 1.552 9.219 9.219 
13 1 6.225 4.546 4.546 
14 1 7.764 3.013 3.013 
15 1 7.053 3.721 3.722 
28 1 10.102 0.667 0.668 
29 1 8.589 2.187 2.188 
30 1 9.298 1.475 1.476 
1 1 6.168 4.608 6.169 
2 1 7.684 3.086 7.684 
3 1 6.974 3.799 6.974 
40 1 10.045 0.728 10.046 
41 1 8.508 2.259 8.508 
42 1 9.218 1.551 9.218 
7 1 6.169 6.169 4.608 
8 1 7.684 7.684 3.086 
9 1 6.974 6.974 3.799 
43 1 10.046 10.047 0.729 
44 1 8.508 8.509 2.259 
45 1 9.219 9.219 1.552 
22 1 6.229 6.229 6.229 
23 1 7.764 7.765 7.765 
24 1 7.055 7.056 7.055 
34 1 10.108 10.108 10.107 
35 1 8.59 8.59 8.59 
36 1 9.301 9.301 9.3 
ITEM: TIMESTEP
10
ITEM: NUMBER OF ATOMS
51
ITEM: BOX BOUNDS pp pp pp
0.0000000000000000e+00 1.1000000000000000e+01
0.0000000000000000e+00 1.1002000000000001e+01
0.0000000000000000e+00 1.1000000000000000e+01
ITEM: ATOMS id type x y z 
10 1 4.64395 4.64278 4.62624 
11 1 3.06391 3.06073 3.03051 
12 1 3.74355 3.74905 3.85409 
46 1 0.742285 0.741316 0.742944 
47 1 2.27391 2.27294 2.2724 
48 1 1.55925 1.55781 1.55879 
49 2 3.38534 3.47067 4.96982 
50 2 1.9066 3.09912 5.05801 
19 1 4.55611 4.54856 6.24678 
20 1 3.00253 2.99398 7.79066 
21 1 3.71372 3.70578 7.08584 
31 1 0.673631 0.673775 10.0902 
32 1 2.18566 2.18289 8.58958 
33 1 1.47679 1.47568 9.29763 
51 3 1.7256 3.35014 5.92349 
16 1 4.53348 6.22789 4.52944 
17 1 2.99557 7.78348 2.99787 
18 1 3.70585 7.06535 3.7027 
25 1 0.674826 10.0889 0.67491 
26 1 2.19003 8.58611 2.18992 
27 1 1.48144 9.29424 1.48178 
4 1 4.60268 6.19022 6.18319 
5 1 3.07552 7.6865 7.69169 
6 1 3.7965 6.99197 6.98182 
37 1 0.738989 10.037 10.0373 
38 1 2.27288 8.49558 8.49404 
39 1 1.56286 9.20729 9.20825 
13 1 6.22829 4.53383 4.52844 
14 1 7.78327 2.99517 2.99784 
15 1 7.06515 3.70546 3.70178 
28 1 10.0894 0.674905 0.675232 
29 1 8.5876 2.19073 2.19044 
30 1 9.29063 1.47806 1.48136 
1 1 6.19201 4.60342 6.18426 
2 1 7.68794 3.07601 7.69073 
3 1 6.98965 3.79568 6.98351 
40 1 10.0352 0.737311 10.037 
41 1 8.49378 2.27213 8.49394 
42 1 9.20799 1.56289 9.20784 
7 1 6.1847 6.18526 4.60081 
8 1 7.68875 7.68923 3.07826 
9 1 6.98428 6.98343 3.79449 
43 1 10.0373 10.0382 0.738645 
44 1 8.49435 8.49522 2.27228 
45 1 9.20798 9.20817 1.56375 
22 1 6.24268 6.24368 6.2391 
23 1 7.77831 7.77961 7.78006 
24 1 7.06883 7.0691 7.06715 
34 1 10.0988 10.0989 10.0979 
35 1 8.58574 8.58577 8.58518 
36 1 9.29394 9.29408 9.29417 
ITEM: TIMESTEP
20
ITEM: NUMBER OF ATOMS
51
ITEM: BOX BOUNDS pp pp pp
0.0000000000000000e+00 1.1000000000000000e+01
0.0000000000000000e+00 1.1002000000000001e+01
0.0000000000000000e+00 1.1000000000000000e+01
ITEM: ATOMS id type x y z 
10 1 4.65834 4.65434 4.62217 
11 1 3.08463 3.07747 2.98696 
12 1 3.71504 3.72112 3.94188 
46 1 0.734451 0.734322 0.738954 
47 1 2.27411 2.2727 2.25837 
48 1 1.55606 1.55355 1.55365 
49 2 3.38142 3.45538 4.95276 
50 2 1.8846 3.09132 5.05211 
19 1 4.56896 4.5561 6.26205 
20 1 3.01628 2.99873 7.79852 
21 1 3.73138 3.71195 7.09918 
31 1 0.667632 0.666574 10.0935 
32 1 2.1853 2.18031 8.59307 
33 1 1.47376 1.47201 9.29607 
51 3 1.68566 3.3479 5.91305 
16 1 4.53725 6.24251 4.52858 
17 1 2.9931 7.78274 2.99369 
18 1 3.70043 7.07408 3.70015 
25 1 0.671041 10.0919 0.672879 
26 1 2.18647 8.59639 2.18651 
27 1 1.47101 9.29089 1.4721 
4 1 4.60765 6.19036 6.1861 
5 1 3.08046 7.69018 7.68727 
6 1 3.79389 6.98162 6.98522 
37 1 0.738866 10.034 10.0355 
38 1 2.26838 8.49882 8.49845 
39 1 1.56326 9.2073 9.20733 
13 1 6.24316 4.53869 4.52604 
14 1 7.78179 2.99275 2.99416 
15 1 7.07437 3.70077 3.69909 
28 1 10.0884 0.669129 0.672896 
29 1 8.59401 2.18418 2.18489 
30 1 9.29571 1.47245 1.47457 
1 1 6.19208 4.60737 6.18817 
2 1 7.6894 3.07857 7.68826 
3 1 6.98597 3.7958 6.98493 
40 1 10.0323 0.73761 10.0353 
41 1 8.49779 2.26803 8.49813 
42 1 9.20697 1.56255 9.20718 
7 1 6.18918 6.18833 4.60401 
8 1 7.68868 7.68888 3.07896 
9 1 6.98474 6.98437 3.79484 
43 1 10.034 10.0348 0.740283 
44 1 8.49973 8.50041 2.26719 
45 1 9.20561 9.20631 1.56487 
22 1 6.24815 6.25016 6.23548 
23 1 7.77888 7.77955 7.7813 
24 1 7.07332 7.07471 7.06935 
34 1 10.098 10.097 10.101 
35 1 8.58963 8.58938 8.59109 
36 1 9.2987 9.29957 9.29592 
ITEM: TIMESTEP
30
ITEM: NUMBER OF ATOMS
51
ITEM: BOX BOUNDS pp pp pp
0.0000000000000000e+00 1.1000000000000000e+01
0.0000000000000000e+00 1.1002000000000001e+01
0.0000000000000000e+00 1.1000000000000000e+01
ITEM: ATOMS id type x y z 
10 1 4.65045 4.6473 4.61789 
11 1 3.11236 3.10014 2.94285 
12 1 3.7016 3.70027 3.96168 
46 1 0.732132 0.732328 0.742825 
47 1 2.28827 2.28567 2.23776 
48 1 1.56667 1.56229 1.53988 
49 2 3.38558 3.43515 5.02746 
50 2 1.84283 3.07962 5.04693 
19 1 4.57436 4.56122 6.26408 
20 1 3.03188 3.00351 7.80612 
21 1 3.75272 3.71498 7.11844 
31 1 0.669164 0.666506 10.0908 
32 1 2.18942 2.18454 8.59235 
33 1 1.47827 1.47431 9.29342 
51 3 1.6248 3.34194 5.90311 
16 1 4.54048 6.23825 4.52982 
17 1 2.99596 7.77996 2.99612 
18 1 3.70108 7.07184 3.70076 
25 1 0.670227 10.0957 0.668232 
26 1 2.18541 8.59544 2.18675 
27 1 1.47205 9.2897 1.47191 
4 1 4.6128 6.19214 6.18231 
5 1 3.08358 7.69015 7.6849 
6 1 3.79555 6.978 6.98508 
37 1 0.737744 10.0349 10.0319 
38 1 2.27162 8.49524 8.49577 
39 1 1.56487 9.2042 9.20272 
13 1 6.24135 4.54334 4.52559 
14 1 7.78038 2.99437 2.99527 
15 1 7.07254 3.70142 3.69871 
28 1 10.0904 0.668367 0.663281 
29 1 8.58862 2.18541 2.18077 
30 1 9.30114 1.47055 1.48488 
1 1 6.19507 4.61529 6.18631 
2 1 7.68675 3.08115 7.69081 
3 1 6.99214 3.79665 6.97726 
40 1 10.0324 0.734275 10.0313 
41 1 8.4936 2.26858 8.49597 
42 1 9.20693 1.56709 9.20383 
7 1 6.18778 6.189 4.60434 
8 1 7.68743 7.68809 3.08077 
9 1 6.98387 6.98316 3.79732 
43 1 10.029 10.0298 0.737605 
44 1 8.49221 8.49349 2.27311 
45 1 9.20384 9.20316 1.56806 
22 1 6.25561 6.25865 6.23633 
23 1 7.78131 7.78101 7.78413 
24 1 7.07696 7.0802 7.06927 
34 1 10.1017 10.099 10.1034 
35 1 8.58766 8.58659 8.59376 
36 1 9.29942 9.3022 9.29005 
ITEM: TIMESTEP
40
ITEM: NUMBER OF ATOMS
51
ITEM: BOX BOUNDS pp pp pp
0.0000000000000000e+00 1.1000000000000000e+01
0.0000000000000000e+00 1.1002000000000001e+01
0.0000000000000000e+00 1.1000000000000000e+01
ITEM: ATOMS id type x y z 
10 1 4.64865 4.64568 4.61885 
11 1 3.11596 3.10353 2.94189 
12 1 3.69627 3.69368 3.97448 
46 1 0.733373 0.732508 0.740018 
47 1 2.29485 2.29015 2.22731 
48 1 1.5654 1.56369 1.54053 
49 2 3.38771 3.43023 5.02642 
50 2 1.83362 3.07738 5.04551 
19 1 4.57558 4.56159 6.26695 
20 1 3.03313 3.00349 7.80952 
21 1 3.7556 3.71532 7.12084 
31 1 0.668823 0.667519 10.0911 
32 1 2.19023 2.18466 8.59255 
33 1 1.47908 1.47444 9.2937 
51 3 1.6127 3.34051 5.90208 
16 1 4.53736 6.23478 4.52871 
17 1 2.9946 7.78034 2.99646 
18 1 3.70236 7.07194 3.69897 
25 1 0.667609 10.0923 0.668197 
26 1 2.18379 8.59254 2.18465 
27 1 1.47378 9.29549 1.47458 
4 1 4.61241 6.19076 6.18318 
5 1 3.08213 7.68665 7.68667 
6 1 3.79922 6.98459 6.98175 
37 1 0.73956 10.0356 10.0318 
38 1 2.27059 8.49573 8.49599 
39 1 1.56524 9.20464 9.20311 
13 1 6.23798 4.54046 4.52477 
14 1 7.78011 2.9932 2.99518 
15 1 7.07315 3.70307 3.6971 
28 1 10.0935 0.665688 0.669454 
29 1 8.5934 2.18266 2.18559 
30 1 9.29431 1.47238 1.47371 
1 1 6.19938 4.61535 6.18278 
2 1 7.68811 3.08037 7.68745 
3 1 6.98962 3.80028 6.98194 
40 1 10.0354 0.7371 10.0318 
41 1 8.49595 2.26875 8.49745 
42 1 9.20523 1.56349 9.20417 
7 1 6.18725 6.18866 4.60442 
8 1 7.68781 7.68795 3.08086 
9 1 6.98348 6.98408 3.79697 
43 1 10.0315 10.0316 0.738589 
44 1 8.49609 8.49663 2.27128 
45 1 9.20324 9.20372 1.56464 
22 1 6.25526 6.25868 6.23504 
23 1 7.78163 7.7818 7.78447 
24 1 7.07736 7.07973 7.06922 
34 1 10.1013 10.1009 10.1005 
35 1 8.59061 8.59097 8.5914 
36 1 9.29869 9.29874 9.2994 
ITEM: TIMESTEP
50
ITEM: NUMBER OF ATOMS
51
ITEM: BOX BOUNDS pp pp pp
0.0000000000000000e+00 1.1000000000000000e+01
0.0000000000000000e+00 1.1002000000000001e+01
0.0000000000000000e+00 1.1000000000000000e+01
ITEM: ATOMS id type x y z 
10 1 4.63816 4.63352 4.63041 
11 1 3.12667 3.11574 2.93891 
12 1 3.68062 3.66838 4.01114 
46 1 0.736888 0.735827 0.74196 
47 1 2.32496 2.31734 2.17891 
48 1 1.5847 1.57634 1.52061 
49 2 3.38781 3.3867 5.05397 
50 2 1.7776 3.06541 5.03968 
19 1 4.58442 4.56544 6.27858 
20 1 3.0494 3.00555 7.82104 
21 1 3.77057 3.72003 7.13455 
31 1 0.675145 0.669455 10.0966 
32 1 2.20165 2.18671 8.59627 
33 1 1.47552 1.48386 9.28903 
51 3 1.54049 3.33098 5.89428 
16 1 4.52961 6.21939 4.52321 
17 1 2.99594 7.78203 2.99712 
18 1 3.69829 7.06405 3.69514 
25 1 0.671493 10.0975 0.669727 
26 1 2.18264 8.5914 2.18405 
27 1 1.47376 9.29665 1.47509 
4 1 4.61731 6.19563 6.17914 
5 1 3.08286 7.68609 7.68671 
6 1 3.80197 6.98772 6.98011 
37 1 0.744611 10.0389 10.0326 
38 1 2.26854 8.49468 8.49518 
39 1 1.56741 9.20585 9.2038 
13 1 6.22533 4.53523 4.51983 
14 1 7.78463 2.99438 2.99637 
15 1 7.06337 3.69933 3.68974 
28 1 10.0966 0.66928 0.669222 
29 1 8.59184 2.17983 2.18411 
30 1 9.29751 1.47223 1.47412 
1 1 6.20769 4.6205 6.17641 
2 1 7.68947 3.08045 7.68738 
3 1 6.99637 3.80502 6.98144 
40 1 10.0419 0.741577 10.0326 
41 1 8.49729 2.26726 8.4972 
42 1 9.20382 1.5619 9.20615 
7 1 6.1809 6.18511 4.6015 
8 1 7.68902 7.68936 3.08218 
9 1 6.98199 6.9845 3.7944 
43 1 10.0354 10.0334 0.737465 
44 1 8.49783 8.49728 2.26807 
45 1 9.20522 9.2065 1.56363 
22 1 6.25724 6.26211 6.22732 
23 1 7.78409 7.78617 7.78499 
24 1 7.08174 7.08107 7.07103 
34 1 10.1051 10.1046 10.103 
35 1 8.59343 8.5932 8.59778 
36 1 9.30316 9.30447 9.30026 
ITEM: TIMESTEP
60
ITEM: NUMBER OF ATOMS
51
ITEM: BOX BOUNDS pp pp pp
0.0000000000000000e+00 1.1000000000000000e+01
0.0000000000000000e+00 1.1002000000000001e+01
0.0000000000000000e+00 1.1000000000000000e+01
ITEM: ATOMS id type x y z 
10 1 4.63645 4.63141 4.63183 
11 1 3.12601 3.11504 2.93924 
12 1 3.67979 3.66657 4.01109 
46 1 0.738241 0.735967 0.742158 
47 1 2.32766 2.31902 2.17532 
48 1 1.58611 1.5794 1.51743 
49 2 3.38732 3.38174 5.05764 
50 2 1.77243 3.06473 5.03953 
19 1 4.58451 4.56618 6.27944 
20 1 3.05107 3.00643 7.82224 
21 1 3.77129 3.71984 7.13486 
31 1 0.673899 0.671286 10.0952 
32 1 2.19858 2.18883 8.59519 
33 1 1.48208 1.48055 9.29266 
51 3 1.53502 3.33007 5.89338 
16 1 4.5295 6.21901 4.52341 
17 1 2.99591 7.78046 2.99677 
18 1 3.69899 7.06444 3.69665 
25 1 0.671048 10.0985 0.669722 
26 1 2.18208 8.59086 2.1848 
27 1 1.47582 9.29728 1.47449 
4 1 4.61755 6.19618 6.17856 
5 1 3.08306 7.68615 7.68615 
6 1 3.80246 6.98754 6.98018 
37 1 0.744915 10.0399 10.0334 
38 1 2.26856 8.49465 8.49547 
39 1 1.56713 9.20616 9.20363 
13 1 6.22468 4.53513 4.51893 
14 1 7.7823 2.99454 2.99565 
15 1 7.06485 3.70017 3.69206 
28 1 10.0987 0.669274 0.670148 
29 1 8.59199 2.18045 2.18445 
30 1 9.29691 1.47215 1.47449 
1 1 6.20908 4.62141 6.17641 
2 1 7.68988 3.08182 7.68743 
3 1 6.99602 3.80399 6.97977 
40 1 10.0408 0.741288 10.0332 
41 1 8.49509 2.26658 8.49763 
42 1 9.20661 1.56416 9.20451 
7 1 6.1805 6.18477 4.60002 
8 1 7.68864 7.68926 3.0824 
9 1 6.98168 6.98394 3.79435 
43 1 10.0356 10.0343 0.737923 
44 1 8.49734 8.49746 2.26848 
45 1 9.20557 9.20548 1.56367 
22 1 6.25822 6.26207 6.22739 
23 1 7.78387 7.78425 7.7858 
24 1 7.08144 7.08379 7.06804 
34 1 10.1067 10.105 10.1024 
35 1 8.5933 8.59389 8.59668 
36 1 9.30277 9.30268 9.30181 
ITEM: TIMESTEP
70
ITEM: NUMBER OF ATOMS
51
ITEM: BOX BOUNDS pp pp pp
0.0000000000000000e+00 1.1000000000000000e+01
0.0000000000000000e+00 1.1002000000000001e+01
0.0000000000000000e+00 1.1000000000000000e+01
ITEM: ATOMS id type x y z 
10 1 4.63488 4.62976 4.63323 
11 1 3.12585 3.11465 2.93954 
12 1 3.67888 3.66478 4.01255 
46 1 0.739006 0.736468 0.742062 
47 1 2.32969 2.32088 2.172 
48 1 1.58765 1.58149 1.51414 
49 2 3.38722 3.37746 5.06007 
50 2 1.76767 3.06406 5.03921 
19 1 4.58476 4.56658 6.27993 
20 1 3.052 3.00705 7.82349 
21 1 3.77174 3.71983 7.13544 
31 1 0.67379 0.672182 10.0942 
32 1 2.19771 2.18907 8.59443 
33 1 1.48531 1.48002 9.29543 
51 3 1.52995 3.32928 5.89272 
16 1 4.52943 6.21867 4.52388 
17 1 2.99592 7.77968 2.99677 
18 1 3.69916 7.06398 3.69709 
25 1 0.671781 10.0993 0.669597 
26 1 2.18285 8.59089 2.18456 
27 1 1.4751 9.29696 1.47549 
4 1 4.61801 6.19648 6.17848 
5 1 3.08322 7.68602 7.68615 
6 1 3.80264 6.98809 6.97963 
37 1 0.745203 10.0406 10.0336 
38 1 2.26849 8.49461 8.4956 
39 1 1.56729 9.20623 9.20352 
13 1 6.2238 4.5349 4.51851 
14 1 7.78051 2.99436 2.99494 
15 1 7.06634 3.70087 3.69365 
28 1 10.0995 0.668984 0.670466 
29 1 8.59152 2.18058 2.18434 
30 1 9.2976 1.47262 1.47532 
1 1 6.20987 4.62198 6.17606 
2 1 7.68997 3.08232 7.6873 
3 1 6.99633 3.80412 6.97902 
40 1 10.0412 0.741707 10.0332 
41 1 8.49488 2.26644 8.49754 
42 1 9.20694 1.5645 9.20459 
7 1 6.18015 6.18443 4.59916 
8 1 7.6886 7.68929 3.08261 
9 1 6.98121 6.98366 3.79382 
43 1 10.0359 10.0349 0.738083 
44 1 8.49733 8.49754 2.26839 
45 1 9.20585 9.20547 1.56378 
22 1 6.25883 6.26295 6.22613 
23 1 7.78368 7.78428 7.7855 
24 1 7.08147 7.08369 7.06755 
34 1 10.1073 10.1052 10.1025 
35 1 8.59325 8.59398 8.59643 
36 1 9.30274 9.30217 9.30224 
ITEM: TIMESTEP
80
ITEM: NUMBER OF ATOMS
51
ITEM: BOX BOUNDS pp pp pp
0.0000000000000000e+00 1.1000000000000000e+01
0.0000000000000000e+00 1.1002000000000001e+01
0.0000000000000000e+00 1.1000000000000000e+01
ITEM: ATOMS id type x y z 
10 1 4.62 4.61487 4.65064 
11 1 3.12664 3.11345 2.94486 
12 1 3.6681 3.64291 4.03724 
46 1 0.747241 0.74419 0.74019 
47 1 2.35307 2.34496 2.1322 
48 1 1.6081 1.60335 1.47977 
49 2 3.38761 3.32867 5.08347 
50 2 1.71246 3.05624 5.03414 
19 1 4.58736 4.56818 6.28379 
20 1 3.06276 3.01169 7.83624 
21 1 3.77645 3.72324 7.14304 
31 1 0.680537 0.676292 10.0971 
32 1 2.21015 2.19128 8.60326 
33 1 1.48717 1.48108 9.29168 
51 3 1.47122 3.32059 5.88622 
16 1 4.52623 6.21189 4.5281 
17 1 2.99708 7.77385 2.99796 
18 1 3.69651 7.05489 3.69746 
25 1 0.675548 10.1021 0.672028 
26 1 2.18422 8.58869 2.18717 
27 1 1.481 9.29834 1.47675 
4 1 4.62264 6.20191 6.17662 
5 1 3.08391 7.68756 7.68479 
6 1 3.80435 6.99122 6.97809 
37 1 0.748202 10.0469 10.0353 
38 1 2.2668 8.49509 8.49741 
39 1 1.56842 9.2082 9.20415 
13 1 6.21969 4.53306 4.5213 
14 1 7.77452 2.99468 2.99405 
15 1 7.06155 3.70101 3.6951 
28 1 10.1055 0.67216 0.672041 
29 1 8.59096 2.18259 2.18548 
30 1 9.29745 1.47412 1.4774 
1 1 6.21729 4.62783 6.17102 
2 1 7.69334 3.08517 7.68595 
3 1 7.00146 3.80535 6.97509 
40 1 10.0474 0.744195 10.0368 
41 1 8.49662 2.26377 8.49959 
42 1 9.20952 1.56501 9.20628 
7 1 6.17467 6.18072 4.5875 
8 1 7.68845 7.6909 3.0822 
9 1 6.97916 6.98147 3.78767 
43 1 10.0399 10.0394 0.73952 
44 1 8.49755 8.49748 2.26792 
45 1 9.20837 9.20764 1.56457 
22 1 6.26499 6.26947 6.21437 
23 1 7.78389 7.78578 7.78497 
24 1 7.08405 7.08669 7.06166 
34 1 10.1127 10.1096 10.1028 
35 1 8.59384 8.59387 8.59791 
36 1 9.30337 9.30246 9.30321 
ITEM: TIMESTEP
90
ITEM: NUMBER OF ATOMS
51
ITEM: BOX BOUNDS pp pp pp
0.0000000000000000e+00 1.1000000000000000e+01
0.0000000000000000e+00 1.1002000000000001e+01
0.0000000000000000e+00 1.1000000000000000e+01
ITEM: ATOMS id type x y z 
10 1 4.6204 4.61467 4.65054 
11 1 3.12698 3.11448 2.94604 
12 1 3.66744 3.64053 4.04105 
46 1 0.747946 0.744739 0.737391 
47 1 2.35609 2.34871 2.12473 
48 1 1.60739 1.60111 1.48399 
49 2 3.38769 3.32393 5.08424 
50 2 1.70742 3.05564 5.0332 
19 1 4.58754 4.56832 6.28486 
20 1 3.06412 3.01158 7.83769 
21 1 3.77713 3.72451 7.14326 
31 1 0.678012 0.676133 10.0947 
32 1 2.20846 2.19108 8.6 
33 1 1.49306 1.48293 9.29877 
51 3 1.46615 3.31998 5.88579 
16 1 4.52399 6.20888 4.52656 
17 1 2.99593 7.77249 2.99673 
18 1 3.69701 7.0565 3.69878 
25 1 0.676102 10.1038 0.672357 
26 1 2.18574 8.5892 2.18562 
27 1 1.47806 9.29814 1.47918 
4 1 4.62424 6.20319 6.17696 
5 1 3.0832 7.68754 7.6846 
6 1 3.80582 6.99237 6.97858 
37 1 0.748892 10.045 10.0358 
38 1 2.26779 8.49467 8.49598 
39 1 1.56854 9.20734 9.205 
13 1 6.21783 4.53179 4.52079 
14 1 7.77467 2.9948 2.994 
15 1 7.06062 3.69976 3.69428 
28 1 10.1059 0.671869 0.673827 
29 1 8.5907 2.18232 2.18508 
30 1 9.29848 1.47442 1.47776 
1 1 6.21907 4.62852 6.1714 
2 1 7.69367 3.08398 7.68542 
3 1 7.00295 3.80753 6.97619 
40 1 10.0458 0.744769 10.0368 
41 1 8.49586 2.26502 8.49841 
42 1 9.20897 1.56527 9.20627 
7 1 6.17474 6.18007 4.58766 
8 1 7.6888 7.69057 3.08085 
9 1 6.97911 6.98302 3.78752 
43 1 10.0416 10.0401 0.739504 
44 1 8.49946 8.4996 2.26602 
45 1 9.20935 9.20828 1.5643 
22 1 6.26422 6.2686 6.21397 
23 1 7.78365 7.78544 7.78408 
24 1 7.08432 7.08731 7.06145 
34 1 10.1109 10.1082 10.1038 
35 1 8.59428 8.5944 8.59859 
36 1 9.30394 9.30283 9.30361 
ITEM: TIMESTEP
100
ITEM: NUMBER OF ATOMS
51
ITEM: BOX BOUNDS pp pp pp
0.0000000000000000e+00 1.1000000000000000e+01
0.0000000000000000e+00 1.1002000000000001e+01
0.0000000000000000e+00 1.1000000000000000e+01
ITEM: ATOMS id type x y z 
10 1 4.62029 4.61438 4.65075 
11 1 3.12694 3.1147 2.94633 
12 1 3.66712 3.63948 4.04227 
46 1 0.747875 0.744294 0.737863 
47 1 2.35682 2.34918 2.12378 
48 1 1.60833 1.60251 1.48194 
49 2 3.38763 3.32169 5.08495 
50 2 1.70514 3.05541 5.03285 
19 1 4.58783 4.56863 6.28514 
20 1 3.06479 3.0118 7.83803 
21 1 3.77737 3.72487 7.14342 
31 1 0.678123 0.676044 10.0947 
32 1 2.20879 2.19117 8.6005 
33 1 1.49327 1.48289 9.29901 
51 3 1.46392 3.31968 5.88553 
16 1 4.52376 6.20865 4.52657 
17 1 2.99601 7.77266 2.99689 
18 1 3.6965 7.05546 3.69835 
25 1 0.676431 10.1045 0.67276 
26 1 2.18512 8.58924 2.18622 
27 1 1.47931 9.2982 1.47804 
4 1 4.62464 6.20344 6.1771 
5 1 3.0835 7.68777 7.68468 
6 1 3.80546 6.99233 6.97834 
37 1 0.748676 10.0446 10.0362 
38 1 2.26753 8.4947 8.49633 
39 1 1.56862 9.20783 9.20489 
13 1 6.21722 4.53143 4.52062 
14 1 7.77453 2.99474 2.99393 
15 1 7.06032 3.69959 3.6942 
28 1 10.1061 0.672295 0.673853 
29 1 8.59016 2.18185 2.18505 
30 1 9.29958 1.47547 1.47786 
1 1 6.21935 4.62864 6.17154 
2 1 7.69393 3.0841 7.68538 
3 1 7.00319 3.80759 6.97611 
40 1 10.0454 0.744648 10.0369 
41 1 8.49595 2.26496 8.49841 
42 1 9.20904 1.56539 9.2064 
7 1 6.17444 6.17999 4.58736 
8 1 7.6888 7.69081 3.08071 
9 1 6.97907 6.98268 3.78687 
43 1 10.042 10.0402 0.739824 
44 1 8.49948 8.49951 2.26633 
45 1 9.20922 9.20835 1.56413 
22 1 6.26424 6.26867 6.21374 
23 1 7.78393 7.78577 7.78406 
24 1 7.08455 7.08751 7.0615 
34 1 10.1112 10.1084 10.1037 
35 1 8.59418 8.59435 8.59891 
36 1 9.30429 9.30309 9.30329 
ITEM: TIMESTEP
110
ITEM: NUMBER OF ATOMS
51
ITEM: BOX BOUNDS pp pp pp
0.0000000000000000e+00 1.1000000000000000e+01
0.0000000000000000e+00 1.1002000000000001e+01
0.0000000000000000e+00 1.1000000000000000e+01
ITEM: ATOMS id type x y z 
10 1 4.61549 4.6077 4.6536 
11 1 3.12653 3.11822 2.95351 
12 1 3.66111 3.61895 4.06585 
46 1 0.746812 0.745039 0.745946 
47 1 2.36883 2.36475 2.1042 
48 1 1.63491 1.62343 1.44178 
49 2 3.38601 3.27493 5.10041 
50 2 1.65811 3.05074 5.02571 
19 1 4.59317 4.57436 6.29112 
20 1 3.07509 3.01426 7.84761 
21 1 3.78145 3.73036 7.14792 
31 1 0.679312 0.676355 10.0938 
32 1 2.21729 2.19325 8.61039 
33 1 1.49708 1.48339 9.30344 
51 3 1.41855 3.31352 5.87983 
16 1 4.5185 6.19881 4.52419 
17 1 2.99432 7.76778 2.99716 
18 1 3.69264 7.04758 3.69679 
25 1 0.685454 10.1127 0.67526 
26 1 2.18637 8.58904 2.18634 
27 1 1.48159 9.30013 1.47924 
4 1 4.62959 6.20623 6.1776 
5 1 3.08441 7.68889 7.68514 
6 1 3.80813 6.9987 6.97589 
37 1 0.747219 10.0417 10.0399 
38 1 2.26716 8.4964 8.49651 
39 1 1.56871 9.20785 9.20709 
13 1 6.20776 4.52647 4.518 
14 1 7.77144 2.99431 2.99307 
15 1 7.05274 3.69517 3.69213 
28 1 10.1145 0.679692 0.675856 
29 1 8.58934 2.18148 2.18551 
30 1 9.30324 1.47966 1.47851 
1 1 6.22526 4.63322 6.17254 
2 1 7.69955 3.08606 7.68353 
3 1 7.00755 3.80965 6.9761 
40 1 10.0437 0.743663 10.0392 
41 1 8.49865 2.26568 8.49807 
42 1 9.20825 1.56476 9.20878 
7 1 6.1696 6.17664 4.58158 
8 1 7.68899 7.69156 3.0771 
9 1 6.97537 6.98091 3.77727 
43 1 10.0475 10.0437 0.742276 
44 1 8.50287 8.50337 2.26417 
45 1 9.21398 9.21215 1.56386 
22 1 6.26481 6.26809 6.21134 
23 1 7.78516 7.78613 7.78569 
24 1 7.09038 7.09649 7.0514 
34 1 10.1139 10.1104 10.107 
35 1 8.59573 8.59412 8.6033 
36 1 9.30587 9.30757 9.30149 
ITEM: TIMESTEP
120
ITEM: NUMBER OF ATOMS
51
ITEM: BOX BOUNDS pp pp pp
0.0000000000000000e+00 1.1000000000000000e+01
0.0000000000000000e+00 1.1002000000000001e+01
0.0000000000000000e+00 1.1000000000000000e+01
ITEM: ATOMS id type x y z 
10 1 4.61323 4.60502 4.65661 
11 1 3.12613 3.11729 2.95599 
12 1 3.66011 3.6158 4.06941 
46 1 0.754088 0.74998 0.735713 
47 1 2.37625 2.37039 2.09413 
48 1 1.63096 1.62395 1.44943 
49 2 3.38572 3.2665 5.10273 
50 2 1.64937 3.05007 5.02458 
19 1 4.59167 4.573 6.29083 
20 1 3.0761 3.01573 7.84938 
21 1 3.78189 3.72975 7.14999 
31 1 0.67842 0.675744 10.0953 
32 1 2.21911 2.19393 8.61141 
33 1 1.49981 1.48407 9.30409 
51 3 1.41148 3.31245 5.87862 
16 1 4.51899 6.19864 4.52407 
17 1 2.99319 7.76635 2.99644 
18 1 3.69286 7.04711 3.69742 
25 1 0.683791 10.1128 0.676646 
26 1 2.18684 8.58802 2.1869 
27 1 1.48306 9.30122 1.47991 
4 1 4.62976 6.20704 6.17686 
5 1 3.08513 7.69084 7.68327 
6 1 3.80888 6.99609 6.97811 
37 1 0.749149 10.0439 10.0395 
38 1 2.26728 8.49552 8.49688 
39 1 1.56924 9.2089 9.20604 
13 1 6.20768 4.52656 4.5186 
14 1 7.76924 2.99289 2.99271 
15 1 7.05326 3.69712 3.69266 
28 1 10.1146 0.678791 0.67722 
29 1 8.58906 2.18261 2.18533 
30 1 9.3037 1.47927 1.47994 
1 1 6.22336 4.63374 6.17238 
2 1 7.69932 3.08683 7.68347 
3 1 7.00953 3.81075 6.97457 
40 1 10.0456 0.745006 10.0392 
41 1 8.49804 2.26493 8.4986 
42 1 9.21014 1.5665 9.20766 
7 1 6.16978 6.17596 4.57965 
8 1 7.68789 7.69044 3.07498 
9 1 6.9759 6.98197 3.77865 
43 1 10.0486 10.0451 0.742959 
44 1 8.50243 8.5028 2.26491 
45 1 9.21385 9.21232 1.5648 
22 1 6.26732 6.27154 6.20502 
23 1 7.78564 7.78785 7.78137 
24 1 7.08891 7.09289 7.05488 
34 1 10.1126 10.1102 10.1073 
35 1 8.59574 8.59563 8.60157 
36 1 9.30532 9.30412 9.30527 
ITEM: TIMESTEP
130
ITEM: NUMBER OF ATOMS
51
ITEM: BOX BOUNDS pp pp pp
0.0000000000000000e+00 1.1000000000000000e+01
0.0000000000000000e+00 1.1002000000000001e+01
0.0000000000000000e+00 1.1000000000000000e+01
ITEM: ATOMS id type x y z 
10 1 4.61136 4.60357 4.65876 
11 1 3.12632 3.11599 2.9574 
12 1 3.65921 3.61327 4.07273 
46 1 0.759135 0.754465 0.729495 
47 1 2.38097 2.37569 2.08567 
48 1 1.62826 1.62297 1.4568 
49 2 3.38549 3.25932 5.10447 
50 2 1.64193 3.04951 5.02344 
19 1 4.5908 4.57234 6.29008 
20 1 3.0767 3.01661 7.85132 
21 1 3.78275 3.72993 7.15135 
31 1 0.679021 0.675842 10.0946 
32 1 2.22098 2.19392 8.61251 
33 1 1.50068 1.48491 9.30478 
51 3 1.40576 3.31162 5.87774 
16 1 4.51891 6.19845 4.52465 
17 1 2.9928 7.76483 2.99646 
18 1 3.69271 7.0464 3.69742 
25 1 0.683441 10.1133 0.676901 
26 1 2.18695 8.58812 2.18681 
27 1 1.48366 9.30155 1.48054 
4 1 4.63005 6.20688 6.17673 
5 1 3.0859 7.6912 7.68297 
6 1 3.80923 6.99609 6.97769 
37 1 0.749899 10.045 10.0394 
38 1 2.26739 8.49584 8.49671 
39 1 1.5693 9.20865 9.20641 
13 1 6.20837 4.52689 4.51943 
14 1 7.76805 2.99283 2.99246 
15 1 7.05262 3.69648 3.69283 
28 1 10.1156 0.678303 0.677563 
29 1 8.58956 2.18309 2.1854 
30 1 9.30342 1.47915 1.48015 
1 1 6.2231 4.63431 6.17114 
2 1 7.70036 3.08757 7.68258 
3 1 7.00871 3.81173 6.97493 
40 1 10.0466 0.745805 10.0399 
41 1 8.4984 2.26514 8.49861 
42 1 9.21078 1.56609 9.20778 
7 1 6.16981 6.17642 4.57803 
8 1 7.68689 7.69024 3.07392 
9 1 6.97645 6.98139 3.77836 
43 1 10.0497 10.0468 0.743697 
44 1 8.50249 8.50274 2.26497 
45 1 9.21368 9.21244 1.56581 
22 1 6.2686 6.27321 6.20184 
23 1 7.78632 7.78909 7.77909 
24 1 7.08794 7.09098 7.0559 
34 1 10.1125 10.1098 10.1085 
35 1 8.59548 8.5954 8.60109 
36 1 9.30497 9.30377 9.30612 
ITEM: TIMESTEP
140
ITEM: NUMBER OF ATOMS
51
ITEM: BOX BOUNDS pp pp pp
0.0000000000000000e+00 1.1000000000000000e+01
0.0000000000000000e+00 1.1002000000000001e+01
0.0000000000000000e+00 1.1000000000000000e+01
ITEM: ATOMS id type x y z 
10 1 4.61128 4.60348 4.65874 
11 1 3.1264 3.11593 2.95742 
12 1 3.65913 3.61298 4.07308 
46 1 0.759051 0.754349 0.730129 
47 1 2.38093 2.37576 2.08565 
48 1 1.62857 1.62341 1.45598 
49 2 3.38545 3.25854 5.10466 
50 2 1.64114 3.04945 5.02328 
19 1 4.59083 4.57236 6.29006 
20 1 3.07682 3.01666 7.85153 
21 1 3.78286 3.73006 7.15144 
31 1 0.679129 0.676042 10.0945 
32 1 2.22111 2.19404 8.61266 
33 1 1.50082 1.48478 9.3048 
51 3 1.40514 3.31154 5.87767 
16 1 4.51878 6.1983 4.52471 
17 1 2.99273 7.76474 2.99641 
18 1 3.69263 7.04635 3.69738 
25 1 0.683619 10.1136 0.676789 
26 1 2.18691 8.58811 2.18681 
27 1 1.48375 9.30166 1.48056 
4 1 4.63017 6.207 6.1766 
5 1 3.08596 7.69131 7.68297 
6 1 3.80916 6.99609 6.97774 
37 1 0.749808 10.0448 10.0395 
38 1 2.26743 8.49595 8.49665 
39 1 1.56927 9.20849 9.20651 
13 1 6.20825 4.52679 4.51949 
14 1 7.76794 2.99281 2.9924 
15 1 7.05261 3.69638 3.69285 
28 1 10.1159 0.678465 0.677463 
29 1 8.58955 2.18301 2.18537 
30 1 9.30359 1.47927 1.48014 
1 1 6.22329 4.63439 6.17102 
2 1 7.70051 3.08764 7.68253 
3 1 7.00864 3.81171 6.97499 
40 1 10.0465 0.745695 10.0401 
41 1 8.49848 2.26517 8.49857 
42 1 9.21074 1.5661 9.20781 
7 1 6.16974 6.17639 4.57789 
8 1 7.68687 7.6903 3.07384 
9 1 6.97643 6.98126 3.77816 
43 1 10.0498 10.047 0.743863 
44 1 8.50248 8.50277 2.26492 
45 1 9.21388 9.21256 1.56582 
22 1 6.26845 6.27293 6.20226 
23 1 7.78624 7.78885 7.77944 
24 1 7.08825 7.09157 7.0551 
34 1 10.1126 10.1099 10.1085 
35 1 8.59549 8.59539 8.60112 
36 1 9.30495 9.30384 9.30608 
ITEM: TIMESTEP
150
ITEM: NUMBER OF ATOMS
51
ITEM: BOX BOUNDS pp pp pp
0.0000000000000000e+00 1.1000000000000000e+01
0.0000000000000000e+00 1.1002000000000001e+01
0.0000000000000000e+00 1.1000000000000000e+01
ITEM: ATOMS id type x y z 
10 1 4.61031 4.60248 4.65889 
11 1 3.12717 3.1155 2.95784 
12 1 3.65829 3.60993 4.07651 
46 1 0.759115 0.75441 0.733528 
47 1 2.3819 2.37815 2.08337 
48 1 1.63048 1.62591 1.4526 
49 2 3.38509 3.25062 5.10657 
50 2 1.6331 3.04882 5.02171 
19 1 4.59091 4.57246 6.2898 
20 1 3.07837 3.0175 7.85341 
21 1 3.78369 3.73111 7.15261 
31 1 0.680139 0.676914 10.0928 
32 1 2.22291 2.1945 8.614 
33 1 1.50145 1.48487 9.30522 
51 3 1.39893 3.31073 5.87693 
16 1 4.5178 6.19707 4.52509 
17 1 2.9921 7.76393 2.9959 
18 1 3.69171 7.04556 3.69706 
25 1 0.685112 10.1159 0.676147 
26 1 2.18648 8.5882 2.18686 
27 1 1.48457 9.30254 1.48043 
4 1 4.63103 6.20758 6.17585 
5 1 3.08617 7.69183 7.68321 
6 1 3.80939 6.99711 6.97763 
37 1 0.748952 10.0433 10.0408 
38 1 2.26776 8.49655 8.49647 
39 1 1.56907 9.20795 9.20689 
13 1 6.20747 4.52592 4.52001 
14 1 7.76724 2.99233 2.99192 
15 1 7.05194 3.69559 3.69259 
28 1 10.1183 0.680018 0.676894 
29 1 8.58983 2.18259 2.18525 
30 1 9.30455 1.47994 1.47992 
1 1 6.2242 4.63484 6.17055 
2 1 7.70114 3.08805 7.68251 
3 1 7.00973 3.81227 6.97485 
40 1 10.0451 0.744832 10.0415 
41 1 8.4993 2.2656 8.49828 
42 1 9.21042 1.566 9.20807 
7 1 6.1691 6.17571 4.57668 
8 1 7.68667 7.69037 3.07275 
9 1 6.97615 6.98088 3.7768 
43 1 10.0511 10.0482 0.745505 
44 1 8.50318 8.50345 2.26424 
45 1 9.21488 9.2137 1.56594 
22 1 6.26734 6.27101 6.20479 
23 1 7.78573 7.78728 7.78165 
24 1 7.09065 7.09587 7.04904 
34 1 10.1133 10.1107 10.1087 
35 1 8.59543 8.59553 8.6014 
36 1 9.30518 9.30395 9.30598 
ITEM: TIMESTEP
160
ITEM: NUMBER OF ATOMS
51
ITEM: BOX BOUNDS pp pp pp
0.0000000000000000e+00 1.1000000000000000e+01
0.0000000000000000e+00 1.1002000000000001e+01
0.0000000000000000e+00 1.1000000000000000e+01
ITEM: ATOMS id type x y z 
10 1 4.61026 4.60241 4.65894 
11 1 3.12719 3.11551 2.9579 
12 1 3.65826 3.60978 4.07661 
46 1 0.759234 0.754494 0.733262 
47 1 2.3821 2.37833 2.08311 
48 1 1.63039 1.62592 1.45287 
49 2 3.38508 3.25031 5.10665 
50 2 1.63277 3.04879 5.02165 
19 1 4.59088 4.57244 6.28979 
20 1 3.07843 3.01755 7.85348 
21 1 3.78371 3.73113 7.15265 
31 1 0.680039 0.676855 10.0928 
32 1 2.22292 2.19449 8.61397 
33 1 1.50161 1.48494 9.30539 
51 3 1.39869 3.31069 5.87689 
16 1 4.51782 6.19707 4.52507 
17 1 2.99209 7.7639 2.99591 
18 1 3.69167 7.04547 3.69704 
25 1 0.685176 10.1159 0.67621 
26 1 2.18652 8.58823 2.18683 
27 1 1.4845 9.30255 1.48048 
4 1 4.63104 6.20762 6.17588 
5 1 3.08623 7.69187 7.68319 
6 1 3.80937 6.99706 6.97761 
37 1 0.74895 10.0433 10.0408 
38 1 2.26773 8.49652 8.4965 
39 1 1.56914 9.20801 9.20685 
13 1 6.20744 4.52593 4.51997 
14 1 7.76718 2.9923 2.99189 
15 1 7.05195 3.6956 3.69263 
28 1 10.1183 0.68004 0.67696 
29 1 8.58983 2.1826 2.18524 
30 1 9.30459 1.47995 1.47994 
1 1 6.22421 4.63487 6.17059 
2 1 7.70119 3.08811 7.68254 
3 1 7.00973 3.8122 6.97477 
40 1 10.0452 0.744836 10.0415 
41 1 8.49934 2.26558 8.49826 
42 1 9.2104 1.56606 9.20812 
7 1 6.1691 6.17559 4.57664 
8 1 7.68669 7.69028 3.07267 
9 1 6.97608 6.98102 3.77684 
43 1 10.0512 10.0483 0.745531 
44 1 8.50318 8.50346 2.26424 
45 1 9.21493 9.21377 1.56593 
22 1 6.2674 6.27115 6.20452 
23 1 7.7858 7.78741 7.78147 
24 1 7.09059 7.0957 7.04927 
34 1 10.1133 10.1107 10.1087 
35 1 8.59549 8.59556 8.60137 
36 1 9.30511 9.30392 9.30614 
ITEM: TIMESTEP
170
ITEM: NUMBER OF ATOMS
51
ITEM: BOX BOUNDS pp pp pp
0.0000000000000000e+00 1.1000000000000000e+01
0.0000000000000000e+00 1.1002000000000001e+01
0.0000000000000000e+00 1.1000000000000000e+01
ITEM: ATOMS id type x y z 
10 1 4.61026 4.6024 4.65894 
11 1 3.12719 3.11551 2.9579 
12 1 3.65825 3.60977 4.07663 
46 1 0.759246 0.754503 0.733237 
47 1 2.38212 2.37835 2.08308 
48 1 1.63038 1.62592 1.4529 
49 2 3.38508 3.25027 5.10666 
50 2 1.63274 3.04879 5.02164 
19 1 4.59087 4.57244 6.28979 