LAMMPS (3 Mar 2020)
Reading data file ...
  orthogonal box = (0 0 0) to (11 11.002 11)
  2 by 2 by 2 MPI processor grid
  reading atoms ...
  51 atoms
  read_data CPU = 0.0178523 secs
WARNING: Changed valency_val to valency_boc for X (../reaxc_ffield.cpp:315)
WARNING: Using 'neigh_modify every 1 delay 0 check yes' setting during minimization (../min.cpp:190)
Neighbor list info ...
  update every 1 steps, delay 0 steps, check yes
  max neighbors/atom: 2000, page size: 100000
  master list distance cutoff = 12
  ghost atom cutoff = 12
  binsize = 6, bins = 2 2 2
  2 neighbor lists, perpetual/occasional/extra = 2 0 0
  (1) pair reax/c, perpetual
      attributes: half, newton off, ghost
      pair build: half/bin/newtoff/ghost
      stencil: half/ghost/bin/3d/newtoff
      bin: standard
  (2) fix qeq/reax, perpetual, copy from (1)
      attributes: half, newton off, ghost
      pair build: copy
      stencil: none
      bin: none
Setting up cg style minimization ...
  Unit style    : real
  Current step  : 0
Per MPI rank memory allocation (min/avg/max) = 25.11 | 25.46 | 25.89 Mbytes
Step Temp E_pair E_mol TotEng Press 
       0            0   -8732.9419            0   -8732.9419    116125.39 
     170            0   -8883.4072            0   -8883.4072     36756.55 
Loop time of 8.27708 on 8 procs for 170 steps with 51 atoms

99.0% CPU use with 8 MPI tasks x no OpenMP threads

Minimization stats:
  Stopping criterion = energy tolerance
  Energy initial, next-to-last, final = 
        -8732.94190852     -8883.40716246     -8883.40717827
  Force two-norm initial, final = 1169.34 57.9397
  Force max component initial, final = 197.076 14.0769
  Final line search alpha, max atom move = 5.82746e-08 8.20328e-07
  Iterations, force evaluations = 170 1579

MPI task timing breakdown:
Section |  min time  |  avg time  |  max time  |%varavg| %total
---------------------------------------------------------------
Pair    | 6.8383     | 6.9757     | 7.1682     |   3.7 | 84.28
Neigh   | 0          | 0          | 0          |   0.0 |  0.00
Comm    | 0.084801   | 0.27719    | 0.41504    |  18.4 |  3.35
Output  | 0.00053916 | 0.00075494 | 0.0012859  |   0.0 |  0.01
Modify  | 1.0058     | 1.0062     | 1.0069     |   0.0 | 12.16
Other   |            | 0.01723    |            |       |  0.21

Nlocal:    6.375 ave 8 max 6 min
Histogram: 6 0 0 0 0 1 0 0 0 1
Nghost:    981.875 ave 1006 max 962 min
Histogram: 2 0 0 0 4 0 0 0 0 2
Neighs:    1829.88 ave 2277 max 1718 min
Histogram: 6 0 0 0 1 0 0 0 0 1

Total # of neighbors = 14639
Ave neighs/atom = 287.039
Neighbor list builds = 0
Dangerous builds = 0
WARNING: Using 'neigh_modify every 1 delay 0 check yes' setting during minimization (../min.cpp:190)
Setting up cg style minimization ...
  Unit style    : real
  Current step  : 170
Per MPI rank memory allocation (min/avg/max) = 25.11 | 25.46 | 25.89 Mbytes
Step Temp E_pair E_mol TotEng Press 
     170            0   -8883.4072            0   -8883.4072    36756.549 
     172            0   -8883.4074            0   -8883.4074    36756.363 
Loop time of 0.187655 on 8 procs for 2 steps with 51 atoms

99.2% CPU use with 8 MPI tasks x no OpenMP threads

Minimization stats:
  Stopping criterion = energy tolerance
  Energy initial, next-to-last, final = 
        -8883.40717894     -8883.40730427     -8883.40737534
  Force two-norm initial, final = 57.9397 61.9761
  Force max component initial, final = 14.0769 16.3653
  Final line search alpha, max atom move = 1.18883e-07 1.94556e-06
  Iterations, force evaluations = 2 36

MPI task timing breakdown:
Section |  min time  |  avg time  |  max time  |%varavg| %total
---------------------------------------------------------------
Pair    | 0.15952    | 0.16257    | 0.16682    |   0.5 | 86.64
Neigh   | 0          | 0          | 0          |   0.0 |  0.00
Comm    | 0.0017649  | 0.0060018  | 0.0090525  |   2.8 |  3.20
Output  | 0          | 0          | 0          |   0.0 |  0.00
Modify  | 0.018573   | 0.018585   | 0.018602   |   0.0 |  9.90
Other   |            | 0.0004927  |            |       |  0.26

Nlocal:    6.375 ave 8 max 6 min
Histogram: 6 0 0 0 0 1 0 0 0 1
Nghost:    981.875 ave 1006 max 962 min
Histogram: 2 0 0 0 4 0 0 0 0 2
Neighs:    1829.62 ave 2264 max 1721 min
Histogram: 6 0 0 0 1 0 0 0 0 1

Total # of neighbors = 14637
Ave neighs/atom = 287
Neighbor list builds = 0
Dangerous builds = 0
WARNING: Using 'neigh_modify every 1 delay 0 check yes' setting during minimization (../min.cpp:190)
Setting up cg style minimization ...
  Unit style    : real
  Current step  : 172
WARNING: Energy due to 3 extra global DOFs will be included in minimizer energies
Per MPI rank memory allocation (min/avg/max) = 25.11 | 25.46 | 25.89 Mbytes
Step Temp E_pair E_mol TotEng Press Volume 
     172            0   -8883.4074            0   -8883.4074     36756.36     1331.242 
     287            0   -8887.7627            0   -8887.7627   -1429.4136    1346.0167 
Loop time of 0.933818 on 8 procs for 115 steps with 51 atoms

98.9% CPU use with 8 MPI tasks x no OpenMP threads

Minimization stats:
  Stopping criterion = energy tolerance
  Energy initial, next-to-last, final = 
        -8883.40737558     -8887.76266002     -8887.76267628
  Force two-norm initial, final = 1237.81 66.2602
  Force max component initial, final = 727.385 29.63
  Final line search alpha, max atom move = 1.12067e-07 3.32055e-06
  Iterations, force evaluations = 115 186

MPI task timing breakdown:
Section |  min time  |  avg time  |  max time  |%varavg| %total
---------------------------------------------------------------
Pair    | 0.80481    | 0.81984    | 0.84228    |   1.2 | 87.79
Neigh   | 0          | 0          | 0          |   0.0 |  0.00
Comm    | 0.0098423  | 0.032387   | 0.047466   |   6.2 |  3.47
Output  | 0.00034625 | 0.00043352 | 0.0007068  |   0.0 |  0.05
Modify  | 0.075171   | 0.075223   | 0.075292   |   0.0 |  8.06
Other   |            | 0.005932   |            |       |  0.64

Nlocal:    6.375 ave 8 max 6 min
Histogram: 6 0 0 0 0 1 0 0 0 1
Nghost:    981.875 ave 1006 max 962 min
Histogram: 2 0 0 0 4 0 0 0 0 2
Neighs:    1829.62 ave 2264 max 1721 min
Histogram: 6 0 0 0 1 0 0 0 0 1

Total # of neighbors = 14637
Ave neighs/atom = 287
Neighbor list builds = 0
Dangerous builds = 0
WARNING: Using 'neigh_modify every 1 delay 0 check yes' setting during minimization (../min.cpp:190)
Setting up cg style minimization ...
  Unit style    : real
  Current step  : 287
Per MPI rank memory allocation (min/avg/max) = 25.11 | 25.46 | 25.89 Mbytes
Step Temp E_pair E_mol TotEng Press 
     287            0   -8887.7627            0   -8887.7627   -1429.3996 
     317            0   -8887.9322            0   -8887.9322    372.42759 
Loop time of 1.88569 on 8 procs for 30 steps with 51 atoms

98.9% CPU use with 8 MPI tasks x no OpenMP threads

Minimization stats:
  Stopping criterion = energy tolerance
  Energy initial, next-to-last, final = 
        -8887.76267293     -8887.93214155     -8887.93218811
  Force two-norm initial, final = 45.1683 41.6694
  Force max component initial, final = 10.0622 10.0179
  Final line search alpha, max atom move = 7.18648e-07 7.19937e-06
  Iterations, force evaluations = 30 387

MPI task timing breakdown:
Section |  min time  |  avg time  |  max time  |%varavg| %total
---------------------------------------------------------------
Pair    | 1.5698     | 1.6067     | 1.6467     |   1.8 | 85.20
Neigh   | 0          | 0          | 0          |   0.0 |  0.00
Comm    | 0.019997   | 0.06007    | 0.097048   |   9.4 |  3.19
Output  | 9.6309e-05 | 0.00012118 | 0.00019971 |   0.0 |  0.01
Modify  | 0.21457    | 0.21473    | 0.21499    |   0.0 | 11.39
Other   |            | 0.004093   |            |       |  0.22

Nlocal:    6.375 ave 8 max 6 min
Histogram: 6 0 0 0 0 1 0 0 0 1
Nghost:    955.625 ave 987 max 929 min
Histogram: 1 1 0 1 2 1 0 0 1 1
Neighs:    1820.62 ave 2248 max 1713 min
Histogram: 6 0 0 0 1 0 0 0 0 1

Total # of neighbors = 14565
Ave neighs/atom = 285.588
Neighbor list builds = 0
Dangerous builds = 0
WARNING: Using 'neigh_modify every 1 delay 0 check yes' setting during minimization (../min.cpp:190)
Setting up cg style minimization ...
  Unit style    : real
  Current step  : 317
WARNING: Energy due to 3 extra global DOFs will be included in minimizer energies
Per MPI rank memory allocation (min/avg/max) = 25.11 | 25.46 | 25.89 Mbytes
Step Temp E_pair E_mol TotEng Press Volume 
     317            0   -8887.9322            0   -8887.9322    372.41649    1346.0167 
     385            0   -8888.2423            0   -8888.2423     2.200891    1346.5607 
Loop time of 1.27916 on 8 procs for 68 steps with 51 atoms

98.9% CPU use with 8 MPI tasks x no OpenMP threads

Minimization stats:
  Stopping criterion = energy tolerance
  Energy initial, next-to-last, final = 
        -8887.93219023     -8888.24227131     -8888.24230686
  Force two-norm initial, final = 44.5392 44.6838
  Force max component initial, final = 14.6696 11.9353
  Final line search alpha, max atom move = 3.21769e-07 3.84042e-06
  Iterations, force evaluations = 68 272

MPI task timing breakdown:
Section |  min time  |  avg time  |  max time  |%varavg| %total
---------------------------------------------------------------
Pair    | 1.1049     | 1.131      | 1.1574     |   1.6 | 88.42
Neigh   | 0          | 0          | 0          |   0.0 |  0.00
Comm    | 0.014487   | 0.041004   | 0.067192   |   8.6 |  3.21
Output  | 0.00019852 | 0.00025271 | 0.00044048 |   0.0 |  0.02
Modify  | 0.099536   | 0.099656   | 0.099795   |   0.0 |  7.79
Other   |            | 0.00722    |            |       |  0.56

Nlocal:    6.375 ave 8 max 6 min
Histogram: 6 0 0 0 0 1 0 0 0 1
Nghost:    955.625 ave 987 max 929 min
Histogram: 1 1 0 1 2 1 0 0 1 1
Neighs:    1820.88 ave 2249 max 1713 min
Histogram: 6 0 0 0 1 0 0 0 0 1

Total # of neighbors = 14567
Ave neighs/atom = 285.627
Neighbor list builds = 0
Dangerous builds = 0
WARNING: Using 'neigh_modify every 1 delay 0 check yes' setting during minimization (../min.cpp:190)
Setting up cg style minimization ...
  Unit style    : real
  Current step  : 385
Per MPI rank memory allocation (min/avg/max) = 25.11 | 25.46 | 25.89 Mbytes
Step Temp E_pair E_mol TotEng Press 
     385            0   -8888.2423            0   -8888.2423    2.2018982 
     388            0   -8888.2426            0   -8888.2426    2.2197357 
Loop time of 0.265093 on 8 procs for 3 steps with 51 atoms

98.4% CPU use with 8 MPI tasks x no OpenMP threads

Minimization stats:
  Stopping criterion = energy tolerance
  Energy initial, next-to-last, final = 
         -8888.2423066     -8888.24251352     -8888.24258466
  Force two-norm initial, final = 44.6618 43.1123
  Force max component initial, final = 11.9353 13.1576
  Final line search alpha, max atom move = 1.0728e-07 1.41155e-06
  Iterations, force evaluations = 3 55

MPI task timing breakdown:
Section |  min time  |  avg time  |  max time  |%varavg| %total
---------------------------------------------------------------
Pair    | 0.2244     | 0.22925    | 0.23523    |   0.8 | 86.48
Neigh   | 0          | 0          | 0          |   0.0 |  0.00
Comm    | 0.0027435  | 0.0087248  | 0.013609   |   3.9 |  3.29
Output  | 0          | 0          | 0          |   0.0 |  0.00
Modify  | 0.026447   | 0.026464   | 0.026486   |   0.0 |  9.98
Other   |            | 0.00065    |            |       |  0.25

Nlocal:    6.375 ave 8 max 6 min
Histogram: 6 0 0 0 0 1 0 0 0 1
Nghost:    951.125 ave 979 max 926 min
Histogram: 2 0 0 2 0 2 0 0 0 2
Neighs:    1818.88 ave 2246 max 1711 min
Histogram: 6 0 0 0 0 1 0 0 0 1

Total # of neighbors = 14551
Ave neighs/atom = 285.314
Neighbor list builds = 0
Dangerous builds = 0
Setting up Verlet run ...
  Unit style    : real
  Current step  : 0
  Time step     : 0.25
Per MPI rank memory allocation (min/avg/max) = 23.99 | 24.34 | 24.77 Mbytes
Step Temp TotEng KinEng PotEng Press 
       0          300   -8843.5304    44.712151   -8888.2426    1520.0723 
     200    246.11885   -8824.9796    36.681676   -8861.6613    35343.342 
     400    367.19084   -8798.5935    54.726307   -8853.3198    20020.943 
     600    310.81667   -8813.2109    46.324273   -8859.5352   -10095.375 
     800    288.32978    -8810.739    42.972815   -8853.7119    22259.142 
    1000    286.86083   -8799.9724    42.753883   -8842.7263    729.24894 
    1200    263.43853   -8811.5774    39.263012   -8850.8404    8274.9492 
    1400    294.09634   -8809.6632    43.832266   -8853.4954    -4601.491 
    1600    295.06111   -8803.1029    43.976056    -8847.079    17378.478 
    1800    323.85281   -8806.8034    48.267186   -8855.0706   -17567.949 
    2000    291.09391    -8805.792    43.384783   -8849.1767   -21527.304 
    2200    331.67142   -8795.8513    49.432475   -8845.2837   -7967.2017 
    2400    249.58235   -8809.3175    37.197879   -8846.5154   -20644.704 
    2600    305.48948   -8804.1261    45.530305   -8849.6564    22239.759 
    2800    293.22711    -8807.879    43.702715   -8851.5817   -4605.8744 
    3000    368.84177   -8797.7534    54.972362   -8852.7258    13844.571 
    3200     268.5134   -8806.0235    40.019372   -8846.0429   -2071.1751 
    3400     297.5229   -8809.4362    44.342962   -8853.7792   -35449.934 
    3600    334.59005   -8804.2509     49.86747   -8854.1183   -15341.923 
    3800    248.83474   -8809.0865    37.086454    -8846.173    5884.7554 
    4000    330.53216   -8794.8423    49.262679   -8844.1049   -1054.7925 
    4200    253.74703    -8811.038    37.818585   -8848.8566    25505.457 
    4400    298.88155   -8799.1479    44.545456   -8843.6934    10682.734 
    4600    347.59358   -8797.3653    51.805522   -8849.1708   -7710.4963 
    4800    265.05521   -8816.8969    39.503961   -8856.4009   -26910.943 
    5000    284.47552   -8809.7001    42.398374   -8852.0985   -7219.4028 
    5200    312.10496   -8803.0022    46.516279   -8849.5185   -45345.103 
    5400    265.97685   -8812.6902    39.641323   -8852.3315    5815.7482 
    5600    286.71329   -8815.0958    42.731892   -8857.8277    30652.875 
    5800    241.83827   -8797.4943    36.043698    -8833.538   -25136.437 
    6000     366.6613   -8789.7153    54.647384   -8844.3627    12499.883 
    6200    288.99453   -8804.1941    43.071889    -8847.266   -45995.212 
    6400    325.39475   -8801.1036    48.496997   -8849.6006   -27015.471 
    6600    322.31757   -8802.2189    48.038372   -8850.2573    -6955.372 
    6800    302.90833   -8813.7087    45.145609   -8858.8543    9545.3375 
    7000    359.08109   -8796.6346    53.517626   -8850.1522    29159.401 
    7200    285.84615   -8800.7763    42.602653   -8843.3789   -15909.313 
    7400    291.24534   -8802.6741    43.407352   -8846.0815   -11706.824 
    7600    314.66877   -8800.1485    46.898391   -8847.0469    19215.209 
    7800    300.61552   -8803.2858    44.803888   -8848.0897   -25765.847 
    8000    330.44513   -8799.0894    49.249709   -8848.3391    9600.8848 
    8200    270.34563    -8812.384    40.292448   -8852.6764    8677.4558 
    8400    330.92275   -8798.9244    49.320892   -8848.2453    -11903.02 
    8600    281.88119   -8799.4676    42.011714   -8841.4793   -22885.202 
    8800    291.11813   -8801.0364    43.388392   -8844.4248    12370.486 
    9000    384.38959   -8788.3256    57.289617   -8845.6153    3979.3049 
    9200     307.0901    -8801.948    45.768862   -8847.7169   -24310.539 
    9400    326.61457   -8799.4321      48.6788   -8848.1109    7039.4782 
    9600     262.8417   -8816.3298     39.17406   -8855.5038   -22502.919 
    9800    331.41992   -8803.8036    49.394991   -8853.1985    2692.5615 
   10000    260.96096   -8805.8299    38.893753   -8844.7236    3004.3037 
   10200     266.1956     -8808.25    39.673926   -8847.9239    49052.129 
   10400    384.35996   -8787.5399    57.285202   -8844.8251    10308.819 
   10600    425.35801   -8757.2445    63.395572   -8820.6401   -25101.914 
   10800    316.81279   -8792.8505    47.217937   -8840.0684   -9729.9425 
   11000    279.50585   -8809.8454    41.657692   -8851.5031    66021.316 
   11200     261.3116   -8805.9748    38.946012   -8844.9208    43427.329 
   11400    322.62357   -8798.0518    48.083978   -8846.1357   -11313.806 
   11600     308.3803   -8816.4113    45.961154   -8862.3724    8411.5211 
   11800    253.38676   -8804.1389    37.764889   -8841.9038    788.29699 
   12000    290.50335    -8795.915    43.296765   -8839.2118   -16201.003 
   12200    304.71608   -8795.5333    45.415037   -8840.9483    21941.578 
   12400    258.43247   -8807.7142    38.516905   -8846.2311    13655.647 
   12600    377.42915   -8790.3765     56.25223   -8846.6287   -2174.5336 
   12800    321.34961   -8802.6911    47.894108   -8850.5852   -25475.843 
   13000    271.87984   -8810.9965    40.521108   -8851.5176    57094.717 
   13200    230.40594   -8825.4496    34.339817   -8859.7895    38685.987 
   13400    279.89737   -8812.7606    41.716045   -8854.4766   -6392.6234 
   13600     262.4588   -8801.8025    39.116991   -8840.9195   -15394.131 
   13800    279.88823   -8808.2464    41.714683   -8849.9611   -13684.202 
   14000    233.83597   -8812.4336    34.851031   -8847.2846    1424.8769 
   14200    307.98499   -8803.0878    45.902238     -8848.99   -27482.818 
   14400    286.51093   -8806.9146    42.701734   -8849.6163    1448.5979 
   14600    251.46935    -8819.581    37.479118   -8857.0602   -9563.4325 
   14800    328.90537   -8803.5091    49.020222   -8852.5293   -28805.157 
   15000    274.51858   -8805.8638    40.914387   -8846.7782   -7772.6646 
   15200     398.1376    -8788.898    59.338628   -8848.2366    51833.306 
   15400    302.95189   -8808.6391    45.152101   -8853.7912    27725.962 
   15600    323.94465     -8795.64    48.280874   -8843.9208    21181.308 
   15800    258.52407    -8810.322    38.530557   -8848.8526   -116.64963 
   16000    243.65172   -8811.7453    36.313975   -8848.0593     -7109.17 
   16200    285.11326   -8804.3141    42.493424   -8846.8075    -37069.71 
   16400    241.53239   -8822.2529    35.998108    -8858.251    13891.172 
   16600    340.78784   -8810.8511     50.79119   -8861.6423    4463.8923 
   16800    282.40154   -8808.4141    42.089268   -8850.5034   -13849.833 
   17000    321.12628   -8795.3394    47.860822   -8843.2002   -17282.968 
   17200    267.94356   -8800.7136    39.934443    -8840.648    25636.585 
   17400    288.56921   -8805.3929      43.0085   -8848.4014    6549.0007 
   17600    287.79195   -8814.6798    42.892657   -8857.5725    25586.097 
   17800    267.92986   -8821.9987      39.9324   -8861.9311    46230.752 
   18000    325.75272   -8806.5654     48.55035   -8855.1157    16980.452 
   18200    291.72418   -8810.1474    43.478719   -8853.6261    9357.4604 
   18400    277.97341   -8811.2706    41.429296   -8852.6999    8813.1271 
   18600    222.54565    -8815.976    33.168315   -8849.1443    32656.557 
   18800    349.22755   -8800.3489     52.04905    -8852.398    41897.247 
   19000    287.52956   -8814.1993     42.85355   -8857.0529   -12274.451 
   19200    258.77339   -8813.7545    38.567716   -8852.3222   -19410.093 
   19400    324.41691   -8803.4789    48.351259   -8851.8301   -29637.958 
   19600    298.69137   -8798.2273    44.517112   -8842.7444   -3945.1356 
   19800    244.54944   -8816.6231    36.447771   -8853.0709   -26029.791 
   20000    317.40231   -8807.0442    47.305799     -8854.35    2315.8363 
   20200    335.96731   -8799.7655    50.072737   -8849.8382   -32547.871 
   20400    321.17318   -8798.9055    47.867812   -8846.7733   -56798.213 
   20600    262.65049   -8818.3809    39.145562   -8857.5264    5800.7863 
   20800    297.44349   -8803.5626    44.331127   -8847.8938    20193.134 
   21000    325.37278   -8802.0925    48.493723   -8850.5863    13916.651 
   21200    273.47611   -8819.2314    40.759017   -8859.9905    21186.566 
   21400    292.59782   -8806.6804    43.608927   -8850.2894   -21526.388 
   21600    296.71877   -8796.6257    44.223115   -8840.8488    18014.756 
   21800    261.94634   -8808.2338    39.040614   -8847.2744    18318.797 
   22000    257.87713   -8808.6704    38.434137   -8847.1045    14956.601 
   22200    326.67876   -8798.9083    48.688366   -8847.5967   -12833.184 
   22400    283.62662   -8803.1026    42.271854   -8845.3744    37915.091 
   22600    244.11361   -8817.8141    36.382815   -8854.1969   -2168.3081 
   22800     294.9922    -8805.661    43.965786   -8849.6268    21890.036 
   23000    330.37638   -8796.2047    49.239461   -8845.4442    2202.9192 
   23200    317.91894    -8783.294    47.382799   -8830.6768     2731.738 
   23400    266.64918   -8802.0039    39.741528   -8841.7454    32950.266 
   23600    274.82799   -8805.3451    40.960502   -8846.3056    17057.801 
   23800    295.06193   -8797.0406    43.976178   -8841.0168   -7403.8453 
   24000    279.57691   -8800.0833    41.668282   -8841.7516   -18752.646 
   24200    285.89363    -8807.579     42.60973   -8850.1888    -623.6227 
   24400    342.60305   -8797.9444     51.06173   -8849.0061    31686.153 
   24600     314.9153   -8794.1902    46.935134   -8841.1253    36104.356 
   24800    315.77063   -8808.7483    47.062613   -8855.8109   -23461.315 
   25000    352.15223   -8804.3553    52.484945   -8856.8402   -40744.156 
   25200    347.79081   -8798.1004    51.834917   -8849.9353   -15776.094 
   25400    300.49678   -8805.3759    44.786191   -8850.1621    -3367.725 
   25600     331.7855   -8786.1882    49.449477   -8835.6376   -12912.387 
   25800    276.60033   -8799.3138    41.224652   -8840.5384   -9091.1161 
   26000    291.87142   -8797.8008    43.500664   -8841.3015    33316.779 
   26200    305.50383   -8797.2464    45.532444   -8842.7789   -2854.9095 
   26400    261.99787   -8814.3544    39.048295   -8853.4027   -401.63507 
   26600    300.65307   -8801.5687    44.809485   -8846.3782   -39228.539 
   26800    381.30917   -8797.7214     56.83051   -8854.5519   -5061.6363 
   27000    286.75362   -8813.3682    42.737904   -8856.1061    12443.258 
   27200    305.70657   -8807.7987    45.562661   -8853.3614    5945.9345 
   27400     295.4296   -8803.3005    44.030976   -8847.3315    -15665.26 
   27600    376.18242   -8780.9146    56.066417    -8836.981   -8006.9198 
   27800    297.89312    -8803.022    44.398141   -8847.4202    13237.257 
   28000    321.51801   -8804.7246    47.919206   -8852.6439      13988.8 
   28200    304.18005   -8793.7351    45.335147   -8839.0702   -27651.717 
   28400     262.1475   -8806.6396    39.070596   -8845.7102   -35167.672 
   28600     314.6885   -8798.8735    46.901332   -8845.7748   -20802.602 
   28800    299.84333   -8795.5172      44.6888    -8840.206   -11138.742 
   29000    294.22228   -8799.7147    43.851036   -8843.5658    13375.608 
   29200    269.52464   -8808.6677    40.170088   -8848.8378    12376.707 
   29400    235.31105   -8813.3489    35.070877   -8848.4197     2770.538 
   29600    301.23047   -8798.3271     44.89554   -8843.2226     28638.17 
   29800     275.4606   -8805.9709    41.054787   -8847.0257    37962.546 
   30000    251.96657   -8821.0058    37.553224   -8858.5591    2468.7147 
   30200    310.65294   -8808.1675     46.29987   -8854.4674    24533.163 
   30400    284.08572   -8803.0449    42.340279   -8845.3852   -20560.567 
   30600    398.02122   -8783.8533    59.321283   -8843.1746    80664.355 
   30800    308.57041   -8808.6034    45.989489   -8854.5929   -17758.013 
   31000    272.45403   -8803.8165    40.606685   -8844.4232    -32890.97 
   31200    349.73834   -8793.8249    52.125177   -8845.9501    3197.8969 
   31400    286.28553   -8810.6827    42.668139   -8853.3508      5759.51 
   31600    264.79344   -8808.5354    39.464948   -8848.0004   -22810.354 
   31800    356.42068   -8794.0254    53.121117   -8847.1465   -4906.5105 
   32000    263.35816   -8809.7947    39.251033   -8849.0457   -35177.306 
   32200    294.55115   -8811.6344    43.900051   -8855.5345    -26358.39 
   32400    268.50835   -8797.9773     40.01862   -8837.9959     56086.85 
   32600    354.42475   -8791.4387    52.823643   -8844.2624   -9091.1326 
   32800    325.31589     -8806.55    48.485244   -8855.0352   -15571.642 
   33000    285.85601   -8812.1273    42.604123   -8854.7314    23650.781 
   33200    338.93228   -8795.6631    50.514637   -8846.1777   -2391.6014 
   33400    320.99435   -8801.2195    47.841159   -8849.0606    19865.522 
   33600    285.56301   -8810.8274    42.560455   -8853.3878   -15943.612 
   33800    331.21756   -8802.5999    49.364831   -8851.9647    8756.1821 
   34000    296.82612   -8800.1134    44.239115   -8844.3525   -3233.5121 
   34200    344.81612   -8801.9788    51.391568   -8853.3703    14673.223 
   34400     234.4575   -8822.5694    34.943663   -8857.5131   -14192.818 
   34600    281.30919   -8809.7154    41.926462   -8851.6419   -15854.677 
   34800    321.26941   -8799.1887    47.882155   -8847.0708   -3538.2869 
   35000    263.10416   -8805.7849    39.213176   -8844.9981       -31412 
   35200     289.7769   -8812.5641    43.188495   -8855.7526    4870.8651 
   35400    318.83314   -8795.8771    47.519052   -8843.3961    3550.3799 
   35600     318.1416   -8800.8068    47.415984   -8848.2227   -3971.3261 
   35800    260.34738   -8812.1966    38.802304   -8850.9989   -26575.068 
   36000    280.45225   -8812.6666    41.798744   -8854.4653   -19622.219 
   36200    324.63015   -8799.8019     48.38304   -8848.1849   -25708.084 
   36400    248.51538   -8813.5457    37.038858   -8850.5845    12095.403 
   36600    272.12668     -8809.32    40.557898   -8849.8779    16299.754 
   36800    242.54972   -8804.4469    36.149732   -8840.5966   -41581.781 
   37000    342.54475   -8792.9888    51.053042   -8844.0418   -24797.198 
   37200    307.97453   -8796.8061    45.900679   -8842.7067   -18076.476 
   37400    272.17094   -8806.6829    40.564493   -8847.2474   -2116.0425 
   37600     290.6209   -8805.6641    43.314286   -8848.9784   -10252.119 
   37800    272.96202   -8790.4144    40.682397   -8831.0968   -39110.602 
   38000    264.02006   -8810.6573    39.349682    -8850.007    23020.166 
   38200    298.43231   -8806.1486    44.478501   -8850.6271   -8227.4914 
   38400    283.47147   -8795.3891     42.24873   -8837.6378   -18366.917 
   38600    272.28714   -8813.9101    40.581812   -8854.4919   -42753.153 
   38800    295.63057   -8804.6997    44.060928   -8848.7606   -14400.433 
   39000    288.63066   -8791.4394    43.017659   -8834.4571   -5110.3495 
   39200    380.16808   -8781.2232    56.660442   -8837.8837    26049.688 
   39400     296.3177    -8803.265    44.163338   -8847.4284   -9849.9939 
   39600    298.79696   -8810.1663    44.532849   -8854.6992    14198.431 
   39800    325.62234    -8791.625    48.530917   -8840.1559     13914.56 
   40000    262.04317   -8804.0149    39.055046     -8843.07   -13038.039 
   40200    259.48941   -8807.3369    38.674432   -8846.0114   -10325.138 
   40400     371.4452   -8788.6627    55.360379   -8844.0231    78687.585 
   40600    329.09589   -8795.0598    49.048617   -8844.1084    -37615.28 
   40800    264.94141   -8808.3059    39.487001   -8847.7929   -29201.668 
   41000    312.20196   -8802.5569    46.530737   -8849.0876   -1564.1605 
   41200    304.78488   -8792.0381    45.425292   -8837.4634     30722.93 
   41400    293.00641   -8804.6253    43.669823   -8848.2951    32701.333 
   41600    267.97723   -8804.6951    39.939462   -8844.6345    23621.217 
   41800      346.057   -8788.9714    51.576509    -8840.548   -9530.9761 
   42000    261.47696   -8812.7145    38.970657   -8851.6851   -16702.725 
   42200    281.61788   -8798.2244     41.97247   -8840.1969    16595.344 
   42400    277.88167    -8802.663    41.415623   -8844.0786   -35038.357 
   42600    291.23215    -8808.054    43.405385   -8851.4593   -34934.018 
   42800    329.14282   -8796.7658    49.055611   -8845.8214    16948.226 
   43000    314.69043   -8802.0564     46.90162    -8848.958    41135.533 
   43200    249.43752    -8809.408    37.176293   -8846.5843    10771.538 
   43400    305.55184   -8795.2832    45.539599   -8840.8228    36920.743 
   43600    297.44829   -8787.0209    44.331842   -8831.3528   -56885.445 
   43800    265.65207   -8806.3802    39.592919   -8845.9732    19260.527 
   44000    269.32255   -8809.3068    40.139968   -8849.4468    1970.4813 
   44200    325.34939   -8792.3615    48.490236   -8840.8517    -7589.896 
   44400    301.55043   -8800.5249    44.943227   -8845.4681   -1439.4446 
   44600    327.66285   -8805.0733    48.835036   -8853.9084   -31059.237 
   44800    329.88568   -8795.0478    49.166327   -8844.2142   -26656.819 
   45000      343.493   -8794.0652    51.194369   -8845.2596   -21684.732 
   45200     257.6171    -8809.722    38.395382   -8848.1174   -50748.184 
   45400    314.76655   -8800.0001    46.912964   -8846.9131    68798.648 
   45600    321.54578   -8800.1954    47.923345   -8848.1187    23291.359 
   45800    265.78255   -8813.3643    39.612364   -8852.9767    31743.962 
   46000    330.61522   -8799.2017    49.275058   -8848.4767    33191.072 
   46200    278.11509   -8798.0414    41.450413   -8839.4918   -31986.214 
   46400    266.22471   -8803.6473    39.678265   -8843.3255   -50699.644 
   46600    272.67924   -8816.1063    40.640251   -8856.7465   -27581.923 
   46800    261.16446   -8802.1462    38.924083   -8841.0703    5617.4521 
   47000     319.9239   -8795.3379    47.681619   -8843.0195   -2453.3214 
   47200    272.76665   -8812.9635    40.653279   -8853.6168    1482.2517 
   47400    343.70534   -8801.6468    51.226016   -8852.8728   -20953.633 
   47600    337.21049   -8792.2215    50.258021   -8842.4795    9001.9571 
   47800    286.81272   -8808.2985    42.746712   -8851.0452     11878.37 
   48000    329.12342   -8799.9258    49.052719   -8848.9786    11639.071 
   48200    306.59747   -8798.9502    45.695441   -8844.6457    43489.913 
   48400    262.39158   -8806.2807    39.106973   -8845.3877   -27814.569 
   48600     341.1034   -8796.8527    50.838223   -8847.6909     27999.74 
   48800    254.21168   -8812.3281    37.887836   -8850.2159   -20054.052 
   49000    347.66156   -8796.7089    51.815654   -8848.5246    28816.405 
   49200     350.9452   -8802.0515    52.305049   -8854.3565   -28519.783 
   49400    303.59964   -8814.8812    45.248643   -8860.1298   -10498.502 
   49600    350.63626   -8802.3236    52.259004   -8854.5826   -13729.864 
   49800    292.31339    -8794.797    43.566534   -8838.3636    11804.065 
   50000     365.8357   -8788.6405    54.524337   -8843.1648   -8505.9987 
   50200      261.064   -8809.5057     38.90911   -8848.4148    23426.521 
   50400    328.86148   -8794.7013     49.01368   -8843.7149    27881.527 
   50600    276.93303   -8803.5192    41.274237   -8844.7934     16505.11 
   50800    220.72116   -8817.4955    32.896392   -8850.3919    59010.081 
   51000    315.78676   -8796.7973    47.065018   -8843.8623    22538.635 
   51200    310.10533   -8803.2206    46.218254   -8849.4388   -25811.477 
   51400      282.547   -8808.2403    42.110946   -8850.3512    6669.1194 
   51600    311.39011   -8792.1513    46.409739   -8838.5611    20467.568 
   51800    324.85076   -8802.0642     48.41592   -8850.4801   -13044.013 
   52000      373.925   -8803.9447     55.72997   -8859.6747    22686.298 
   52200    319.22117   -8802.5141    47.576884   -8850.0909    12627.127 
   52400    324.47705    -8790.811    48.360222   -8839.1712   -28238.375 
   52600    260.70825   -8809.8833    38.856088   -8848.7394   -3757.2067 
   52800    281.98762   -8801.1183    42.027576   -8843.1459    24852.664 
   53000    314.09791   -8792.0731     46.81331   -8838.8864    -43346.79 
   53200    299.81427   -8811.7395     44.68447   -8856.4239   -26804.461 
   53400    278.49936   -8798.4365    41.507685   -8839.9442   -2944.5966 
   53600    304.37687   -8796.6447    45.364481   -8842.0092   -27206.113 
   53800    277.76025   -8807.9321    41.397527   -8849.3297   -37940.713 
   54000    333.31096    -8801.528    49.676833   -8851.2048    63778.127 
   54200    394.54603   -8782.8941    58.803339   -8841.6975   -28848.976 
   54400    337.16052   -8794.9304    50.250573    -8845.181    5495.5537 
   54600    259.55101    -8805.961    38.683613   -8844.6446    10555.983 
   54800    278.37501   -8805.5862    41.489151   -8847.0753   -3484.0164 
   55000    340.27309   -8791.9438    50.714473   -8842.6583   -50175.315 
   55200    326.59357   -8807.8893     48.67567   -8856.5649   -36153.123 
   55400    305.83486   -8807.7704    45.581781   -8853.3522    62443.766 
   55600    304.01774   -8798.7496    45.310957   -8844.0606    29771.376 
   55800    285.08347   -8791.6375    42.488984   -8834.1265   -29510.455 
   56000     295.3708   -8809.7906    44.022212   -8853.8128    1299.4302 
   56200    277.23635   -8799.8301    41.319444   -8841.1496   -28761.316 
   56400    319.41852   -8792.4504    47.606296   -8840.0567    70039.922 
   56600    346.34286   -8800.7068    51.619113    -8852.326     36010.93 
   56800    284.58639   -8804.4634    42.414898   -8846.8783   -40075.116 
   57000    381.59434    -8787.919    56.873012    -8844.792    19391.142 
   57200    292.60077   -8797.8923    43.609365   -8841.5016    28624.698 
   57400    243.16672   -8808.2178     36.24169   -8844.4595   -38890.226 
   57600    283.29835   -8793.5303    42.222929   -8835.7532    64366.445 
   57800    290.36099   -8797.8924    43.275548    -8841.168    39412.524 
   58000     244.1418   -8809.1183    36.387016   -8845.5053   -54646.406 
   58200    267.76026   -8796.0603    39.907124   -8835.9674    59934.369 
   58400    310.44183   -8806.2296    46.268407    -8852.498   -37680.722 
   58600    332.23025   -8808.8944    49.515764   -8858.4101    14980.499 
   58800    293.45969   -8798.5414     43.73738   -8842.2788   -19076.471 
   59000    333.66324   -8799.5266    49.729337   -8849.2559   -43815.474 
   59200    269.65415   -8811.8149    40.189389   -8852.0043    14698.635 
   59400    308.83661   -8807.4481    46.029164   -8853.4772    37650.315 
   59600      318.073   -8801.3331    47.405759   -8848.7389    25157.315 
   59800    298.11051   -8805.7376     44.43054   -8850.1681   -5026.1687 
   60000    232.15934   -8817.3777    34.601145   -8851.9788    5981.4278 
   60200    322.98831   -8796.1405     48.13834   -8844.2788    -2653.389 
   60400    316.39977   -8800.0644    47.156381   -8847.2208   -40802.889 
   60600    248.39691   -8816.0582      37.0212   -8853.0794   -17801.849 
   60800    284.65065   -8801.3002    42.424476   -8843.7246   -19717.556 
   61000    353.88478   -8800.0713    52.743166   -8852.8145    26870.949 
   61200    271.11414   -8809.8698    40.406988   -8850.2768    39555.041 
   61400     287.2623   -8806.3395    42.813718   -8849.1532   -32057.427 
   61600    299.72677   -8797.7134    44.671428   -8842.3849   -57442.747 
   61800     272.0216   -8810.9065    40.542235   -8851.4487    12081.188 
   62000    363.91379    -8792.591    54.237894   -8846.8289    26369.179 
   62200    293.22962   -8798.6189     43.70309    -8842.322   -6940.6417 
   62400    321.55753   -8806.2988    47.925097   -8854.2238   -6525.9558 
   62600    355.89297   -8788.2321    53.042466   -8841.2746    36609.714 
   62800    311.77706   -8799.8152     46.46741   -8846.2826    1196.8115 
   63000    311.51561   -8804.1906    46.428443    -8850.619    15122.226 
   63200    301.19025   -8801.4002    44.889547   -8846.2897   -34153.154 
   63400    372.26672   -8789.4911    55.482819   -8844.9739   -14410.706 
   63600    284.05268   -8807.1061    42.335355   -8849.4415    28468.738 
   63800    273.95786   -8807.4537    40.830817   -8848.2846    14878.193 
   64000    343.73681   -8789.2047    51.230708   -8840.4354    -12280.86 
   64200    277.23385   -8806.0432    41.319072   -8847.3623   -5364.5549 
   64400    299.62758   -8800.6634    44.656646   -8845.3201    -10806.85 
   64600    332.09199   -8800.4048    49.495157      -8849.9     3651.681 
   64800    289.45898    -8811.283    43.141111   -8854.4241    7656.9545 
   65000    330.29807     -8796.02     49.22779   -8845.2478   -19527.892 
   65200    344.82969   -8798.5324     51.39359    -8849.926   -46240.088 
   65400    313.21128   -8808.1189    46.681167      -8854.8   -6498.8435 
   65600    280.00838   -8807.5035     41.73259   -8849.2361    17922.002 
   65800    331.76602   -8794.4691    49.446574   -8843.9157   -1913.2533 
   66000    315.29467   -8812.1403    46.991676   -8859.1319    7917.9024 
   66200    296.12701   -8807.4279    44.134918   -8851.5628    10327.415 
   66400    263.87937   -8800.0611    39.328714   -8839.3898    44593.477 
   66600    299.55823   -8805.1055    44.646309   -8849.7518   -6481.0067 
   66800     245.8954   -8818.1792    36.648373   -8854.8275   -14582.256 
   67000    282.70625   -8803.2111    42.134682   -8845.3458    40793.926 
   67200    336.33897   -8798.7649     50.12813    -8848.893    17994.034 
   67400    391.86559   -8786.8104    58.403844   -8845.2142    73194.196 
   67600    277.69052   -8803.7135    41.387134   -8845.1007    9474.3883 
   67800     283.3601   -8813.4311    42.232131   -8855.6632    4069.5913 
   68000    271.60416   -8806.6803    40.480021   -8847.1603   -12663.395 
   68200    290.89955   -8800.4502    43.355815    -8843.806   -45586.693 
   68400     264.9576    -8812.818    39.489413   -8852.3074   -5759.1313 
   68600    290.28675   -8804.4054    43.264483   -8847.6699    12202.109 
   68800    230.89109   -8794.6575    34.412125   -8829.0696    31065.077 
   69000    250.31715   -8815.0479    37.307394   -8852.3553   -39897.192 
   69200    284.34637     -8807.95    42.379125   -8850.3292   -43984.939 
   69400    306.80608   -8798.9204    45.726532   -8844.6469    13537.238 
   69600     282.6717   -8806.7597    42.129532   -8848.8892   -39361.176 
   69800    243.65345   -8817.9194    36.314233   -8854.2336    -9614.808 
   70000    285.28986   -8807.4006    42.519743   -8849.9204   -16673.957 
   70200    323.94083   -8801.1845    48.280304   -8849.4648    10510.211 
   70400    314.72213   -8817.3953    46.906344   -8864.3016   -3092.4363 
   70600    296.64566   -8829.8086    44.212218   -8874.0209   -11802.203 
   70800     268.7646   -8838.9171     40.05681   -8878.9739    28575.127 
   71000    319.67195   -8821.4794    47.644068   -8869.1234    8436.7409 
   71200    270.40997   -8841.0499    40.302037   -8881.3519    7218.7062 
   71400    344.50896   -8836.9332    51.345788    -8888.279    15071.838 
   71600    364.06876   -8822.8534    54.260991   -8877.1143    10409.917 
   71800    340.88865   -8838.6974    50.806215   -8889.5036    1185.1586 
   72000     275.0449   -8843.5462     40.99283    -8884.539    12263.156 
   72200    291.57748   -8841.1271    43.456854   -8884.5839    12867.973 
   72400    305.97247   -8834.9001     45.60229   -8880.5024   -3094.2541 
   72600    291.85065   -8846.6986    43.497568   -8890.1962     10081.37 
   72800    219.43919   -8854.4744    32.705328   -8887.1797    27187.628 
   73000    263.47168   -8836.7267    39.267952   -8875.9947    44292.582 
   73200    301.91144    -8839.508    44.997032    -8884.505   -2997.3158 
   73400    253.03634   -8846.9119    37.712664   -8884.6246    29305.079 
   73600    298.70504   -8841.9883    44.519149   -8886.5075    482.91712 
   73800    325.26808   -8839.9543    48.478118   -8888.4324   -32400.473 
   74000    356.19426   -8840.4235    53.087371   -8893.5109    47377.102 
   74200    298.63013   -8849.1739    44.507985   -8893.6819    30330.635 
   74400    361.41821   -8835.7363    53.865952   -8889.6023   -5521.1588 
   74600    309.55601   -8831.1798    46.136383   -8877.3162    1683.8986 
   74800    254.35657    -8851.738    37.909431   -8889.6475   -5205.3227 
   75000    292.59825   -8839.6624     43.60899   -8883.2714   -29197.548 
   75200    293.94139    -8836.065    43.809172   -8879.8742   -14245.831 
   75400    282.83319   -8845.9823    42.153601   -8888.1359    23607.715 
   75600     283.9382   -8851.5823    42.318292   -8893.9006    9184.1446 
   75800    309.74435   -8840.5792    46.164454   -8886.7436   -24968.274 
   76000     302.7677   -8838.7825     45.12465   -8883.9072    26633.273 
   76200    271.13856   -8854.2951    40.410627   -8894.7057    -17970.48 
   76400    263.01748   -8844.0055    39.200257   -8883.2058   -13497.424 
   76600    294.31523   -8840.6031     43.86489    -8884.468   -18882.179 
   76800    296.38731   -8844.4329    44.173714   -8888.6067    18408.214 
   77000    278.28161   -8850.8002    41.475231   -8892.2754   -34263.072 
   77200    307.17721   -8834.9012    45.781845    -8880.683    41979.308 
   77400    339.85769   -8835.6937    50.652561   -8886.3462   -7397.1585 
   77600    230.85592   -8858.2801    34.406883    -8892.687    14685.448 
   77800    300.94666   -8843.4883    44.853242   -8888.3415   -10517.412 
   78000    299.35843   -8839.1172     44.61653   -8883.7338   -35490.439 
   78200    307.24736   -8825.8666    45.792301   -8871.6589   -9951.3291 
   78400    262.24973   -8836.0353    39.085831   -8875.1211   -55277.139 
   78600    278.91027   -8846.5606    41.568927   -8888.1296    9268.3287 
   78800    353.86116   -8834.8297    52.739646   -8887.5693    22382.407 
   79000    295.20327   -8833.8373    43.997243   -8877.8346     22986.76 
   79200    296.50037   -8845.9757    44.190564   -8890.1662       -29159 
   79400    245.66514   -8848.9739    36.614055    -8885.588    23791.922 
   79600    314.05906   -8832.1513     46.80752   -8878.9589    16398.511 
   79800    233.39891   -8846.4605    34.785891   -8881.2464    2832.9743 
   80000    303.63598   -8850.2931    45.254059   -8895.5472   -19133.045 
   80200    284.82443   -8843.4925    42.450376   -8885.9429   -38147.618 
   80400    293.35463   -8834.8658    43.721722   -8878.5875   -32949.223 
   80600      274.916    -8843.958    40.973618   -8884.9316    39929.363 
   80800    252.94598   -8841.9057    37.699196   -8879.6049   -11292.288 
   81000    357.46681   -8828.0306    53.277033   -8881.3076    -27240.58 
   81200    282.08444   -8844.5541    42.042007   -8886.5961   -7046.6402 
   81400     299.1674   -8840.0865     44.58806   -8884.6745   -10295.574 
   81600    318.01365   -8829.9434    47.396914   -8877.3403     -9928.09 
   81800    256.39515    -8848.424    38.213263   -8886.6372   -23765.802 
   82000    356.56896   -8841.6467    53.143217     -8894.79   -31167.979 
   82200    355.68941   -8826.4978    53.012128   -8879.5099    8.0669881 
   82400    282.94633   -8844.5979    42.170463   -8886.7684    -4072.144 
   82600    280.81803   -8848.4286     41.85326   -8890.2819   -19202.307 
   82800    299.94085   -8834.3385    44.703335   -8879.0418   -39811.333 
   83000    296.39068   -8837.6993    44.174217   -8881.8735   -39971.036 
   83200     274.3235   -8847.0993    40.885313   -8887.9846    2349.3437 
   83400    284.67575   -8837.4911    42.428217   -8879.9193   -13236.974 
   83600     269.5981   -8844.5006    40.181036   -8884.6816   -16517.587 
   83800    315.84161   -8843.8232    47.073193   -8890.8964     30570.42 
   84000    307.46722   -8835.9743    45.825068   -8881.7993    998.13175 
   84200    325.38647   -8835.3937    48.495763   -8883.8894   -18708.959 
   84400    250.83891   -8844.7395    37.385157   -8882.1246    69306.214 
   84600    261.83724   -8841.3958    39.024355   -8880.4201   -48447.613 
   84800    301.63022    -8838.474     44.95512   -8883.4291     -44905.3 
   85000    300.71534   -8851.7007    44.818765   -8896.5194   -5439.1228 
   85200    317.39484   -8836.6216    47.304687   -8883.9262   -3418.8014 
   85400    362.60758    -8837.465    54.043216   -8891.5082    19527.941 
   85600    298.25592   -8851.2247    44.452212   -8895.6769    5741.1214 
   85800    349.96866   -8830.6623    52.159505   -8882.8218    -28140.87 
   86000    271.02103   -8845.4009     40.39311    -8885.794   -18575.593 
   86200    264.76342     -8836.65    39.460473   -8876.1105    -10879.74 
   86400    342.25313   -8833.4962    51.009579   -8884.5058    60553.789 
   86600    290.00613   -8845.7408    43.222659   -8888.9635    28139.876 
   86800    290.67696   -8846.6329    43.322641   -8889.9556    1282.9588 
   87000    291.73649   -8845.7563    43.480553   -8889.2369   -1082.7625 
   87200     331.1162   -8832.5101    49.349725   -8881.8599    54757.066 
   87400    245.11307   -8851.2055    36.531775   -8887.7373   -18680.397 
   87600    282.21449   -8844.5961    42.061389   -8886.6575   -6354.0571 
   87800    257.61499   -8833.3833    38.395068   -8871.7784    27062.142 
   88000    317.66434   -8838.1729    47.344854   -8885.5178    52531.922 
   88200    258.31025   -8846.8985     38.49869   -8885.3972   -11134.409 
   88400    259.34821   -8843.7798    38.653388   -8882.4332   -20846.831 
   88600    305.27399   -8841.1726    45.498188   -8886.6708    24603.353 
   88800    259.59339   -8856.1874     38.68993   -8894.8773    15421.223 
   89000    362.15099   -8840.9022    53.975166   -8894.8773     46777.36 
   89200    259.74675   -8846.0268    38.712787   -8884.7396   -13800.203 
   89400    343.07346   -8834.5498    51.131841   -8885.6817    9057.2797 
   89600    302.77199   -8847.9881    45.125289   -8893.1134    12084.728 
   89800     293.1168    -8841.685    43.686275   -8885.3713   -7613.7264 
   90000    340.31271   -8835.7536    50.720377   -8886.4739   -22627.297 
   90200    243.99781   -8853.2846    36.365556   -8889.6501   -16839.098 
   90400    299.91411   -8839.2753    44.699349   -8883.9746   -6649.3276 
   90600    271.26909     -8838.05    40.430081   -8878.4801   -3721.3216 
   90800    394.98257   -8842.4194    58.868401   -8901.2878    2363.5837 
   91000    300.82096   -8850.3936    44.834507   -8895.2281    13714.954 
   91200    338.08512    -8832.663    50.388376   -8883.0514   -1815.6633 
   91400    278.46796   -8840.9605    41.503004   -8882.4635    33504.218 
   91600    281.78095   -8843.7482    41.996775    -8885.745    26573.538 
   91800    310.24186   -8841.3569    46.238603   -8887.5955   -36127.402 
   92000     311.1578   -8831.6935    46.375115   -8878.0686    13550.685 
   92200    291.17725   -8848.2789    43.397203   -8891.6761    7.4010579 
   92400     290.3421   -8846.0387    43.272733   -8889.3114    2760.6166 
   92600      362.277   -8837.7759    53.993946   -8891.7698    -11913.47 
   92800    260.30942   -8848.6369    38.796647   -8887.4335     14848.42 
   93000    334.60282   -8838.7721    49.869372   -8888.6414    1064.9467 
   93200    342.39126   -8837.7736    51.030165   -8888.8038    31694.427 
   93400    341.06926   -8844.2997    50.833134   -8895.1328   -35065.562 
   93600    323.29419   -8829.9854    48.183929   -8878.1694   -3250.6931 
   93800     301.9532   -8837.1508    45.003257   -8882.1541   -8144.3351 
   94000    310.62325   -8844.9718    46.295445   -8891.2673   -16937.653 
   94200    311.98349   -8844.0158    46.498176   -8890.5139    10375.713 
   94400    303.91139   -8830.2447    45.295106   -8875.5398    20882.776 
   94600    303.04543   -8846.2339    45.166043      -8891.4   -11497.651 
   94800    295.27136   -8850.2926    44.007391      -8894.3   -11665.201 
   95000    358.66224    -8827.658    53.455201   -8881.1132    -23799.56 
   95200    315.93232   -8844.0853    47.086711    -8891.172   -21058.782 
   95400    281.55211   -8847.4345    41.962668   -8889.3971     1008.004 
   95600    363.79609    -8832.005    54.220351   -8886.2253   -5242.9129 
   95800    337.44607   -8836.8402    50.293131   -8887.1333    13173.163 
   96000    315.08781   -8839.9812    46.960845   -8886.9421   -3617.5522 
   96200    305.79053   -8845.2234    45.575174   -8890.7985   -29771.087 
   96400    382.46467   -8828.3692    57.002727   -8885.3719   -20679.264 
   96600    315.59309   -8840.5076    47.036153   -8887.5437   -32105.746 
   96800    298.14141    -8843.934    44.435146   -8888.3692    7001.6912 
   97000    318.98663   -8840.6481    47.541928     -8888.19    7507.2955 
   97200    349.60368   -8827.7391    52.105108   -8879.8442    10540.558 
   97400    291.67895   -8846.4905    43.471977   -8889.9625    24884.578 
   97600    287.04302    -8848.284    42.781036   -8891.0651   -39879.622 
   97800    272.82897   -8830.1421    40.662566   -8870.8046   -46553.601 
   98000    307.30968   -8838.1191     45.80159   -8883.9207   -35303.809 
   98200    270.36602   -8845.2069    40.295488   -8885.5024    32176.249 
   98400    304.73526    -8839.478    45.417896   -8884.8959    29773.729 
   98600    313.55711   -8839.2318     46.73271   -8885.9646    14179.822 
   98800    261.81837   -8848.1526    39.021542   -8887.1741   -20190.557 
   99000      328.446   -8836.9291    48.951757   -8885.8808   -28891.338 
   99200    309.47015    -8839.602    46.123586   -8885.7256    46589.559 
   99400    303.12209   -8841.5749    45.177469   -8886.7523   -13231.405 
   99600    329.64261   -8835.8226    49.130101   -8884.9527    9660.0286 
   99800    313.61127   -8839.4708    46.740781   -8886.2116   -13938.467 
  100000    288.96909   -8846.7624    43.068098   -8889.8305    45749.715 
  100200    343.84779   -8830.1068    51.247248    -8881.354    17665.643 
  100400    317.87804   -8844.2894    47.376703   -8891.6661     22165.96 
  100600    324.08235   -8840.9446    48.301397    -8889.246   -16409.658 
  100800    374.85277   -8826.1748    55.868246   -8882.0431    21653.528 
  101000    310.26617    -8841.439    46.242226   -8887.6813   -14187.531 
  101200    323.81951   -8839.6305    48.262223   -8887.8928    10370.728 
  101400    320.78688   -8840.6357    47.810237    -8888.446    44486.284 
  101600    358.37025   -8837.9707    53.411682   -8891.3824    9967.2693 
  101800    293.39701   -8840.1783    43.728038   -8883.9064   -12003.914 
  102000    272.09259   -8849.1741    40.552816   -8889.7269   -44303.161 
  102200    270.48154   -8856.1442    40.312704   -8896.4569   -1720.8309 
  102400    308.87656   -8839.1656    46.035118   -8885.2007    3737.1927 
  102600    261.37018   -8838.1472    38.954743    -8877.102    21641.645 
  102800    241.91696   -8858.0913    36.055426   -8894.1467   -9919.6548 
  103000    256.11725   -8847.0917    38.171844   -8885.2636    1695.2356 
  103200    301.08078    -8835.937    44.873231   -8880.8103   -26772.488 
  103400     343.3718   -8839.9708    51.176306   -8891.1471   -13294.061 
  103600    254.24263   -8852.1319     37.89245   -8890.0244     30449.71 
  103800    313.69612   -8839.3196    46.753427    -8886.073   -25775.936 
  104000    285.51594   -8834.6517     42.55344   -8877.2051   -33625.557 
  104200    282.25551   -8848.7603    42.067503   -8890.8278    12893.675 
  104400    276.40934   -8846.6857    41.196186   -8887.8819     4140.019 
  104600    298.76551   -8833.6429    44.528162   -8878.1711    11976.148 
  104800    324.50375   -8845.4222    48.364202   -8893.7864    24403.115 
  105000    288.74526    -8851.602    43.034739   -8894.6367    57579.919 
  105200    331.93068    -8839.349    49.471116   -8888.8201    25743.619 
  105400    382.68356   -8817.2502     57.03535   -8874.2856    52309.635 
  105600     317.6391    -8832.523    47.341091   -8879.8641    12042.921 
  105800    324.27482   -8849.4994    48.330081   -8897.8295     693.2668 
  106000    279.90254   -8844.1999    41.716816   -8885.9167    1029.2144 
  106200     315.3276   -8835.8982    46.996584   -8882.8948    37351.367 
  106400    270.48203   -8850.2584    40.312777   -8890.5711    -9729.141 
  106600    236.34162   -8860.7143    35.224474   -8895.9388     1090.898 
  106800    285.83208   -8842.4913    42.600557   -8885.0918   -21037.272 
  107000    351.89146    -8830.942     52.44608   -8883.3881   -1546.2995 
  107200    281.14421   -8850.1782    41.901874   -8892.0801   -10526.456 
  107400    293.47322   -8843.6329    43.739396   -8887.3723   -18458.208 
  107600    323.39651   -8835.7871    48.199178   -8883.9863   -32772.156 
  107800    268.86613   -8847.2804    40.071943   -8887.3523   -16893.705 
  108000     327.1968   -8840.9222    48.765576   -8889.6878   -12870.538 
  108200    323.16632   -8828.5972    48.164871    -8876.762    24655.094 
  108400    310.24367   -8835.4594    46.238872   -8881.6983   -10819.617 
  108600    258.78456   -8847.3317    38.569381   -8885.9011    2060.8117 
  108800    263.99123   -8853.5248    39.345385   -8892.8702   -1642.5338 
  109000    311.27232   -8834.4008    46.392184    -8880.793    46732.874 
  109200    318.68616   -8839.7651    47.497146   -8887.2623   -25043.863 
  109400    326.90603   -8850.0406    48.722239   -8898.7629   -25256.432 
  109600    314.92679   -8840.9235    46.936848   -8887.8603   -19121.919 
  109800    341.00404   -8842.7878    50.823413   -8893.6112   -7023.9479 
  110000    239.95228   -8861.0466    35.762608   -8896.8092   -22712.633 
  110200    275.38227   -8852.3898    41.043111    -8893.433   -38259.303 
  110400    296.33443   -8838.6994    44.165833   -8882.8653   -24057.017 
  110600    302.64573     -8840.94    45.106471   -8886.0464    -27236.64 
  110800    296.60771    -8850.027    44.206562   -8894.2336   -18577.739 
  111000    320.02565   -8837.8338    47.696783   -8885.5306   -24046.465 
  111200    317.78081   -8843.4611    47.362212   -8890.8234   -21300.997 
  111400    296.32351   -8849.1412    44.164205   -8893.3054   -22789.218 
  111600     324.1613   -8838.5668    48.313162   -8886.8799   -12011.062 
  111800    288.93133   -8840.0859    43.062471   -8883.1484    -32682.08 
  112000    309.25968   -8841.5636    46.092218   -8887.6558   -26280.807 
  112200     283.2364   -8846.4947    42.213696   -8888.7084    41367.331 
  112400    356.41095   -8839.5949    53.119668   -8892.7145   -4185.5921 
  112600    378.65892   -8830.0391    56.435516   -8886.4747    2074.1891 
  112800    280.16796    -8850.577    41.756374   -8892.3333    20010.206 
  113000    321.77833   -8838.7218    47.958005   -8886.6798   -21002.503 
  113200    321.18692   -8836.4458    47.869859   -8884.3157   -18834.396 
  113400    292.35452   -8838.5406    43.572665   -8882.1133   -18586.179 
  113600    274.99602    -8854.383    40.985544   -8895.3686   -29543.448 
  113800    278.56569   -8848.3345     41.51757    -8889.852    34125.518 
  114000      275.887   -8836.7902    41.118338   -8877.9085   -5731.0058 
  114200    265.82092   -8849.7413    39.618083   -8889.3594    44659.915 
  114400    249.36191   -8846.8003    37.165024   -8883.9653    26107.974 
  114600     295.6784   -8839.7277    44.068057   -8883.7958   -14941.247 
  114800    249.51665   -8855.9145    37.188087   -8893.1025   -8560.1532 
  115000     277.2662   -8843.1222    41.323894   -8884.4461   -43972.181 
  115200    258.52935    -8842.037    38.531344   -8880.5684    49482.234 
  115400    258.95193    -8841.775    38.594326   -8880.3693    5550.0694 
  115600    196.74508   -8854.2219    29.322985   -8883.5449    -13479.27 
  115800    308.23366   -8840.2406      45.9393   -8886.1799    4367.6186 
  116000     265.0805   -8842.4973     39.50773    -8882.005    3650.5152 
  116200    284.03951   -8843.5287    42.333392   -8885.8621    21964.936 
  116400     342.2706   -8828.1806    51.012182   -8879.1928    19005.099 
  116600    284.52122   -8843.3667    42.405186   -8885.7719   -11122.071 
  116800     317.7406   -8837.6446    47.356219   -8885.0008    16863.936 
  117000    304.63332    -8851.057    45.402703   -8896.4597    60824.821 
  117200    304.18226    -8845.802    45.335477   -8891.1375   -17107.975 
  117400    261.39896   -8840.8357    38.959032   -8879.7947    12258.691 
  117600    350.64085   -8826.0918    52.259689   -8878.3514    31096.996 
  117800    279.23996   -8839.2804    41.618064   -8880.8984   -35338.018 
  118000    267.53679   -8843.9807    39.873818   -8883.8545    16980.827 
  118200    310.07136   -8824.6836    46.213192   -8870.8968   -31078.788 
  118400    307.64962   -8841.0334    45.852253   -8886.8856     2919.784 
  118600    336.34351   -8840.8715    50.128806   -8891.0003    24346.886 
  118800    311.99992   -8838.9521    46.500625   -8885.4527   -11378.677 
  119000    283.75559   -8843.1975    42.291075   -8885.4885   -13703.235 
  119200    239.91887   -8855.8409    35.757629   -8891.5986    18431.362 
  119400    367.50756   -8839.6699    54.773511   -8894.4434     3441.052 
  119600    302.60548   -8846.0935    45.100472    -8891.194   -26033.408 
  119800    330.06835   -8845.8788    49.193553   -8895.0724   -17960.749 
  120000    295.95522   -8834.6767    44.109315    -8878.786   -55411.044 
  120200    298.71096   -8847.1173    44.520032   -8891.6373      4263.35 
  120400    268.52207   -8852.9294    40.020664   -8892.9501   -24692.461 
  120600    295.46321   -8836.2111    44.035986   -8880.2471     60111.77 
  120800    276.16886   -8847.1419    41.160346   -8888.3022    20564.796 
  121000    310.96484   -8843.4605    46.346356   -8889.8069    5364.9276 
  121200    333.61175   -8830.3279    49.721664   -8880.0496   -22140.269 
  121400    308.91394   -8842.5828    46.040688   -8888.6235    -9845.123 
  121600    306.02854   -8842.8438    45.610648   -8888.4545    1461.9131 
  121800    285.85136   -8840.0101     42.60343   -8882.6136    36566.595 
  122000    322.77812   -8842.8423    48.107013   -8890.9493   -11756.319 
  122200    346.75783    -8826.917    51.680962    -8878.598   -13941.818 
  122400    293.91192   -8840.5782    43.804781    -8884.383   -44688.607 
  122600    282.96773   -8842.9469    42.173653   -8885.1206    12532.187 
  122800    279.32914   -8850.6078    41.631355   -8892.2391   -10069.812 
  123000    299.38593    -8837.575    44.620629   -8882.1956   -34033.241 
  123200    389.23341   -8831.1844    58.011544    -8889.196     22667.32 
  123400    249.60638   -8850.8389     37.20146   -8888.0403    26957.915 
  123600    329.03408   -8837.6487    49.039405   -8886.6881    3398.0982 
  123800    273.12189   -8840.1526    40.706223   -8880.8589   -15734.131 
  124000    294.68715   -8843.1706    43.920321   -8887.0909    6137.5568 
  124200    264.10245   -8838.1226    39.361961   -8877.4845   -32787.287 
  124400    260.66004   -8846.2287    38.848904   -8885.0776    25754.051 
  124600    257.34628   -8848.3825    38.355018   -8886.7375   -17627.452 
  124800    317.04854   -8839.4433    47.253074   -8886.6963    2293.9925 
  125000    298.88424   -8846.2875    44.545858   -8890.8334    21133.419 
  125200    287.14449   -8836.2752    42.796159   -8879.0713    28743.328 
  125400    273.23152   -8835.1377    40.722563   -8875.8602    21408.519 
  125600    288.66955   -8847.8622    43.023455   -8890.8857   -14520.162 
  125800    304.21044    -8841.601    45.339676   -8886.9407    28143.912 
  126000    331.69168    -8838.411    49.435495   -8887.8465   -7734.6277 
  126200    267.27519   -8842.0364    39.834829   -8881.8712     42174.32 
  126400    278.74921   -8845.5524    41.544923   -8887.0973   -31267.328 
  126600    279.73531    -8846.585    41.691891   -8888.2769    36829.527 
  126800    318.74356   -8834.5442    47.505701   -8882.0499   -38688.564 
  127000    254.33246   -8847.1717    37.905837   -8885.0775    8349.1235 
  127200    298.11067   -8841.3625    44.430564   -8885.7931   -451.50636 
  127400    302.65059   -8826.5036    45.107195   -8871.6108    30606.962 
  127600    242.70114   -8847.3148      36.1723   -8883.4871     47487.89 
  127800    321.12324   -8840.3957    47.860369   -8888.2561   -1022.0598 
  128000    331.09004   -8834.3736    49.345826   -8883.7194   -34044.772 
  128200    293.30019   -8843.9579    43.713608   -8887.6715    66269.488 
  128400    366.18715   -8833.7245    54.576717   -8888.3012    4736.7355 
  128600    298.25159   -8849.3771    44.451567   -8893.8286   -24435.547 
  128800    263.88774   -8846.1793    39.329961   -8885.5093    8167.9734 
  129000    280.25406   -8836.7487    41.769205   -8878.5179   -22064.499 
  129200    301.21678    -8842.236    44.893501   -8887.1295   -35456.532 
  129400    296.09749   -8856.4204    44.130518   -8900.5509   -42551.104 
  129600     329.0657   -8840.2327    49.044118   -8889.2768    156.09908 
  129800    325.51007   -8834.1801    48.514185   -8882.6943   -15251.959 
  130000    307.78817   -8840.7711    45.872903    -8886.644    32854.415 
  130200    315.25707   -8851.6004    46.986071   -8898.5865     15140.07 
  130400    324.76416   -8832.3832    48.403014   -8880.7862   -13534.635 
  130600    307.52436   -8842.9699    45.833585   -8888.8034     21762.24 
  130800    254.06026   -8851.2386    37.865269   -8889.1039    40969.148 
  131000    358.27024   -8828.1117    53.396777   -8881.5084    44208.374 
  131200    332.27836   -8842.8124    49.522934   -8892.3353   -23038.257 
  131400    324.75195   -8838.6497    48.401194   -8887.0509   -18421.066 
  131600    370.39139   -8825.8756    55.203318   -8881.0789    23959.161 
  131800    319.84828   -8839.0972    47.670349   -8886.7675    76595.064 
  132000    307.93808   -8844.9524    45.895246   -8890.8476    11680.647 
  132200    350.18775   -8833.7268    52.192158   -8885.9189   -14348.151 
  132400    303.23516   -8839.5522    45.194321   -8884.7465     26826.29 
  132600    254.35317   -8848.4907    37.908925   -8886.3996    11937.648 
  132800    283.64276    -8839.457     42.27426   -8881.7313   -12975.598 
  133000    234.15329   -8836.8972    34.898324   -8871.7955   -10556.325 
  133200    267.81888   -8839.1257     39.91586   -8879.0416    -4848.985 
  133400     296.0113   -8843.4742    44.117672   -8887.5919    31844.843 
  133600     288.0762   -8847.5388    42.935021   -8890.4738     20161.08 
  133800    329.51927   -8832.1353    49.111717   -8881.2471    10770.624 
  134000    297.30941   -8843.2936    44.311144   -8887.6048   -10641.623 
  134200    329.95413   -8843.7096    49.176529   -8892.8861   -6975.6099 
  134400    250.84788   -8853.3594    37.386494   -8890.7459   -53406.426 
  134600      287.834   -8836.0741    42.898924    -8878.973   -46876.757 
  134800    303.14213   -8837.4115    45.180455    -8882.592   -23336.941 
  135000    230.36619    -8854.808    34.333893   -8889.1419    31539.099 
  135200    304.94338   -8834.2915    45.448915   -8879.7404   -5347.6599 
  135400     244.1927    -8840.963    36.394602   -8877.3576    9535.9073 
  135600    300.79462   -8847.1247    44.830582   -8891.9553    39913.794 
  135800     307.3951   -8827.9248     45.81432   -8873.7392    5027.5953 
  136000    313.03642   -8836.1146    46.655106   -8882.7697   -16424.179 
  136200    302.54581   -8844.8334    45.091579    -8889.925   -8220.2428 
  136400    267.74044   -8836.0643     39.90417   -8875.9685   -28118.508 
  136600     298.2496   -8832.4736     44.45127   -8876.9249    34693.458 
  136800    273.87864   -8843.3718    40.819011   -8884.1908   -41352.718 
  137000    280.81712   -8842.2368    41.853125   -8884.0899     21645.91 
  137200    300.94929   -8830.6211    44.853633   -8875.4747     14095.49 
  137400    274.70587   -8840.5095    40.942301   -8881.4518    13143.297 
  137600     282.2863   -8844.3704    42.072092   -8886.4425    20015.114 
  137800    329.44653   -8832.4134    49.100877   -8881.5142    30269.038 
  138000    273.77098   -8853.1321    40.802964   -8893.9351   -16520.062 
  138200     298.2449   -8841.5491     44.45057   -8885.9997   -19092.372 
  138400     347.7972   -8840.7463     51.83587   -8892.5822   -27810.313 
  138600    405.43359   -8831.4454    60.426026   -8891.8715   -36700.332 
  138800    298.34708   -8838.2326    44.465798   -8882.6984   -3012.6574 
  139000    276.88937   -8838.3543    41.267731   -8879.6221   -11940.692 
  139200    355.70585   -8822.4756    53.014578   -8875.4902   -2049.3692 
  139400    279.80611   -8840.2342    41.702444   -8881.9366   -10477.714 
  139600    287.31703   -8844.6663    42.821875   -8887.4881    20374.477 
  139800    331.46692   -8830.6987    49.401997   -8880.1007   -9717.9075 
  140000    285.79423   -8843.1877    42.594915   -8885.7826   -5892.8607 
  140200    297.06321   -8846.5155     44.27445   -8890.7899    42695.397 
  140400     355.9948   -8833.4637    53.057644   -8886.5214   -15674.168 
  140600     332.3989   -8831.4495    49.540899   -8880.9904    -40513.17 
  140800     299.7729   -8847.9705    44.678304   -8892.6488    -7929.542 
  141000    324.41284   -8834.9397    48.350652   -8883.2903   -20626.178 
  141200    339.64591    -8832.921    50.620997    -8883.542   -7762.2743 
  141400    316.80416   -8841.7558    47.216651   -8888.9725    12773.585 
  141600    283.66824   -8843.4996    42.278057   -8885.7776   -7574.4164 
  141800    351.17772   -8826.9066    52.339703   -8879.2463     15052.07 
  142000    295.31047   -8844.2494    44.013221   -8888.2626   -3140.5161 
  142200    279.59948   -8843.0927    41.671647   -8884.7643     37540.38 
  142400    307.80394   -8837.0236    45.875254   -8882.8989    37663.443 
  142600    293.96021   -8833.7996    43.811977   -8877.6115   -11960.207 
  142800    269.26943   -8848.5416    40.132052   -8888.6736   -1378.8117 
  143000    321.55634   -8833.7409    47.924919   -8881.6658   -10992.514 
  143200    315.50359   -8827.4232    47.022814   -8874.4461   -34.895835 
  143400    312.79593   -8843.1098    46.619263    -8889.729   -3795.7482 
  143600    294.24623   -8851.4064    43.854606    -8895.261   -30366.839 
  143800    359.74136   -8832.8929    53.616033   -8886.5089    10945.465 
  144000    274.01064   -8841.1866    40.838683   -8882.0253   -13555.917 
  144200    270.63614   -8855.0461    40.335746   -8895.3819   -1012.8177 
  144400    290.08581   -8853.4817    43.234535   -8896.7162   -12870.835 
  144600    331.62855   -8837.7959    49.426086    -8887.222    8252.2659 
  144800    284.04064   -8840.4518    42.333559   -8882.7854    -19858.79 
  145000    268.49677   -8852.7787    40.016894   -8892.7956    37976.867 
  145200    320.26074   -8837.4201    47.731821    -8885.152    14273.038 
  145400    318.17046   -8842.4898    47.420285   -8889.9101   -1155.7606 
  145600    288.54791   -8851.4958    43.005326   -8894.5011   -3173.1998 
  145800    324.27578   -8844.2106    48.330225   -8892.5408   -17043.359 
  146000     317.6517   -8834.9869    47.342968   -8882.3298   -13575.131 
  146200    299.95807   -8838.6733    44.705901   -8883.3792   -42366.381 
  146400    271.57076   -8851.6436    40.475043   -8892.1187   -4315.7628 
  146600    338.39464   -8833.7363    50.434507   -8884.1708    -4481.195 
  146800     274.1785   -8843.3403    40.863701    -8884.204    1525.7776 
  147000    283.88935   -8844.3745    42.311012   -8886.6855    22230.829 
  147200     382.3072   -8825.3996    56.979258   -8882.3788   -8169.3108 
  147400     297.2547    -8841.165    44.302991    -8885.468   -8560.5178 
  147600    309.32322   -8843.7384    46.101689   -8889.8401   -3676.2914 
  147800    278.42771   -8854.7359    41.497006   -8896.2329   -48192.473 
  148000    321.64934   -8842.6507     47.93878   -8890.5894   -6148.5383 
  148200    284.23067    -8842.766    42.361881   -8885.1279    4959.5657 
  148400    241.93087   -8847.5276    36.057498    -8883.585   -2804.6285 
  148600    303.76026   -8833.1101    45.272582   -8878.3826    54107.615 
  148800     273.4048   -8848.9132    40.748388   -8889.6616    11706.031 
  149000    360.15691   -8833.3377    53.677968   -8887.0157   -4362.1543 
  149200    353.13283   -8832.0009    52.631094    -8884.632   -41996.032 
  149400    320.42253   -8846.1811    47.755934   -8893.9371   -13262.505 
  149600    309.45779   -8841.5866    46.121744   -8887.7083   -11109.518 
  149800    330.01783   -8833.1235    49.186023   -8882.3095    12629.859 
  150000    296.97216   -8845.7793     44.26088   -8890.0402   -11646.538 
  150200    338.00961   -8830.0482    50.377121   -8880.4253    76444.656 
  150400    282.14782   -8844.8154    42.051454   -8886.8669    49677.502 
  150600    315.27462   -8841.2104    46.988688    -8888.199   -20225.386 
  150800    306.85035   -8842.6019     45.73313    -8888.335    14888.399 
  151000    235.12689   -8854.9218     35.04343   -8889.9652   -8338.6612 
  151200    304.64785   -8838.9735    45.404869   -8884.3784    6072.2164 
  151400    297.43717   -8841.9695    44.330185   -8886.2997    12527.805 
  151600    235.24408   -8858.0454    35.060896   -8893.1063   -43806.852 
  151800    275.59658   -8839.4346    41.075053   -8880.5096    13351.154 
  152000     255.7126   -8843.7418    38.111534   -8881.8534    18961.649 
  152200    317.37438   -8839.2828    47.301638   -8886.5845    4996.8318 
  152400    259.32578   -8847.4173    38.650044   -8886.0673   -36864.603 
  152600    305.63907   -8844.1345      45.5526   -8889.6871   -31945.628 
  152800    307.68987   -8835.3584    45.858253   -8881.2166    36429.272 
  153000     318.9232   -8843.4884    47.532474   -8891.0208   -13049.334 
  153200    274.60594   -8846.0247    40.927408   -8886.9521     -12681.8 
  153400     319.4792   -8838.4939     47.61534   -8886.1092     49486.67 
  153600    266.09542   -8847.5698    39.658995   -8887.2288   -33221.252 
  153800    262.64096   -8846.3233    39.144141   -8885.4674   -17624.714 
  154000     336.9674   -8836.3224     50.22179   -8886.5442   -28387.064 
  154200    307.66915   -8843.2751    45.855164   -8889.1303   -2608.1464 
  154400    271.36632   -8855.4824    40.444572   -8895.9269    8691.5282 
  154600    278.07468   -8840.2155     41.44439   -8881.6599    18258.385 
  154800    326.26211   -8834.3399    48.626269   -8882.9661     -30226.5 
  155000    316.16835   -8824.9419     47.12189   -8872.0638    -19472.49 
  155200    305.48885   -8843.8114    45.530212   -8889.3416   -34413.217 
  155400    287.02474   -8839.5592    42.778311   -8882.3375    42268.195 
  155600     321.1197   -8825.6356    47.859841   -8873.4955   -34564.058 
  155800     253.4603   -8846.8666    37.775851   -8884.6424    50569.105 
  156000    325.41784   -8838.1036    48.500438   -8886.6041    11430.494 
  156200    255.43642   -8842.1589    38.070373   -8880.2293   -29556.392 
  156400    289.97198   -8849.0599     43.21757   -8892.2775   -13511.174 
  156600    292.58921    -8833.995    43.607643   -8877.6026    -2357.053 
  156800    370.20302   -8824.6045    55.175243   -8879.7798    -55308.97 
  157000    283.37647   -8846.2844    42.234571   -8888.5189   -23192.319 
  157200     327.1642   -8844.2317    48.760717   -8892.9924    24191.184 
  157400    314.41416   -8826.1452    46.860444   -8873.0057   -48093.231 
  157600    261.69948   -8845.9214    39.003822   -8884.9253    15788.265 
  157800    253.40146   -8843.7135    37.767082   -8881.4806     17417.83 
  158000    319.53036   -8831.0391    47.622965   -8878.6621    2906.1652 
  158200    265.09459   -8850.7905    39.509831   -8890.3004   -8477.7247 
  158400    279.04291   -8838.2474    41.588696   -8879.8361   -67646.792 
  158600    242.78884   -8851.4694    36.185371   -8887.6548   -30229.158 
  158800     310.0866   -8847.4671    46.215462   -8893.6825   -3733.8866 
  159000    283.16017   -8837.2661    42.202334   -8879.4684   -4880.9969 
  159200    262.03206   -8852.3586    39.053391    -8891.412    12082.571 
  159400    264.54177   -8849.8512    39.427438   -8889.2786   -30388.473 
  159600    298.45603    -8838.807    44.482037    -8883.289   -18044.232 
  159800    353.76531   -8837.6987     52.72536   -8890.4241    34453.512 
  160000    327.54481   -8847.4894    48.817442   -8896.3068    12820.535 
  160200    364.96217   -8840.1611    54.394145   -8894.5552    6111.6756 
  160400    317.68659   -8834.5753    47.348169   -8881.9235     6751.483 
  160600    283.52131   -8850.2003    42.256159   -8892.4565    295.59039 
  160800    323.37665   -8837.3121    48.196218   -8885.5083   -20257.683 
  161000    319.21875   -8836.5815    47.576523    -8884.158    14663.463 
  161200    282.18105   -8849.8329    42.056405   -8891.8893    2973.2752 
  161400    368.42315   -8834.0456    54.909972   -8888.9556   -21188.242 
  161600    262.24689   -8852.0309    39.085408   -8891.1163   -905.16806 
  161800    334.84583   -8841.9332    49.905591   -8891.8388    21821.399 
  162000     278.6329   -8843.9401    41.527587   -8885.4677   -4351.9235 
  162200    264.53226   -8855.3919    39.426021    -8894.818    5977.8197 
  162400    348.66183   -8836.7492    51.964734    -8888.714   -5213.5124 
  162600    279.14146   -8838.9645    41.603384   -8880.5679   -34512.353 
  162800    237.17212   -8853.9209    35.348252   -8889.2691   -53658.366 
  163000    348.00468   -8834.4674    51.866792   -8886.3342   -9394.8505 
  163200    285.19975   -8838.5529    42.506314   -8881.0592   -11226.668 
  163400    303.59691   -8844.7606    45.248236   -8890.0088    6717.2386 
  163600    269.69467   -8853.2725     40.19543    -8893.468   -22278.209 
  163800    305.02496   -8843.1273    45.461073   -8888.5883    56720.628 
  164000    268.85425   -8838.9012    40.070172   -8878.9714    1713.8221 
  164200    282.94914   -8853.2706    42.170883   -8895.4415   -18518.855 
  164400    271.05122   -8848.7663     40.39761    -8889.164   -9118.0063 
  164600    308.66529   -8840.6762     46.00363   -8886.6798   -2767.9898 
  164800    245.14682    -8847.178    36.536805   -8883.7148    10041.879 
  165000    279.25152   -8842.8741    41.619786   -8884.4939    6577.3456 
  165200    352.69029   -8833.5931    52.565138   -8886.1583   -16672.754 
  165400    317.14776   -8834.7166    47.267861   -8881.9845       1275.8 
  165600    310.69935   -8851.1483    46.306788   -8897.4551   -66670.704 
  165800    277.73091   -8844.4463    41.393154   -8885.8394    4908.0911 
  166000    320.92025   -8839.2234    47.830115   -8887.0535    34480.306 
  166200    234.00478   -8850.9616    34.876191   -8885.8378   -14517.888 
  166400    303.30742   -8846.7359     45.20509    -8891.941    12500.299 
  166600    313.10415   -8839.5938    46.665199    -8886.259    33785.187 
  166800    341.18853   -8841.2092     50.85091   -8892.0601    37749.424 
  167000    329.82977   -8825.9398    49.157994   -8875.0978   -26044.853 
  167200    293.99607   -8844.7294    43.817321   -8888.5468   -45998.582 
  167400    302.12119   -8836.4948    45.028293   -8881.5231    12859.531 
  167600     295.8626   -8843.2014     44.09551   -8887.2969    -20138.11 
  167800    278.55172   -8845.7454    41.515489   -8887.2609    38756.876 
  168000    351.67666   -8838.2977    52.414066   -8890.7118    21451.941 
  168200    254.70606   -8844.0447     37.96152   -8882.0062    1551.9053 
  168400    354.44903   -8838.8829    52.827262   -8891.7101    9087.7715 
  168600    253.03507   -8849.0818    37.712474   -8886.7943   -6018.4708 
  168800    354.08161   -8830.0833    52.772501   -8882.8558     25843.88 
  169000     242.0911    -8845.402     36.08138   -8881.4834   -37174.753 
  169200    319.08165   -8840.3446    47.556089   -8887.9007    12070.718 
  169400     333.8624   -8826.4168    49.759021   -8876.1758    45031.397 
  169600    277.84812   -8844.0001    41.410623   -8885.4107    3400.2782 
  169800    271.59761   -8846.3082    40.479044   -8886.7872    27038.248 
  170000    374.31138   -8831.3793    55.787556   -8887.1668   -23912.113 
  170200    299.07146   -8845.3715    44.573761   -8889.9453    10237.126 
  170400    305.99631   -8847.5147    45.605844   -8893.1206   -2170.5748 
  170600    306.16426    -8837.928    45.630875   -8883.5588   -27906.982 
  170800    327.62402   -8831.4699    48.829248   -8880.2992   -6577.2514 
  171000    307.84034   -8849.6464    45.880679    -8895.527    3013.6976 
  171200    312.79532   -8839.3583    46.619171   -8885.9774    11507.444 
  171400    336.71072   -8828.2302    50.183535   -8878.4137    26960.777 
  171600    336.89455   -8840.2733    50.210934   -8890.4842   -15254.144 
  171800    321.44024   -8843.4609    47.907614   -8891.3685    3411.6406 
  172000    281.25629   -8846.2397    41.918579   -8888.1582   -35081.437 
  172200    352.13042   -8829.6497    52.481694   -8882.1313    5764.2222 
  172400    291.42095   -8842.8471    43.433525   -8886.2806   -29255.272 
  172600    285.51585    -8843.702    42.553426   -8886.2554    11925.045 
  172800    336.35083   -8841.5394    50.129897   -8891.6693    20004.633 
  173000     345.1957   -8827.2338     51.44814   -8878.6819   -35471.669 
  173200    271.83848   -8846.7974    40.514943   -8887.3123    1989.5608 
  173400    345.34197   -8844.9311    51.469941    -8896.401    14494.489 
  173600    356.33634   -8828.1607    53.108547   -8881.2692    18024.779 
  173800    322.34833   -8835.8408    48.042957   -8883.8837    3780.7638 
  174000    256.65013   -8848.1658    38.251264    -8886.417    12808.274 
  174200     288.9916   -8847.4682    43.071454   -8890.5396   -5718.9601 
  174400    337.00177   -8832.5429    50.226913   -8882.7698    2882.9925 
  174600    271.21469   -8848.9184    40.421974   -8889.3404    29089.668 
  174800     281.3352   -8840.9225     41.93034   -8882.8529   -7819.3391 
  175000    311.64152   -8839.4751    46.447209   -8885.9223    31059.178 
  175200    336.73092   -8840.9432    50.186546   -8891.1298    33245.992 
  175400     262.6953   -8849.3756     39.15224   -8888.5279   -16977.535 
  175600    311.50735   -8842.0581    46.427213   -8888.4853    20806.634 
  175800    312.11379   -8834.0747    46.517596   -8880.5923    -1382.868 
  176000    352.73232   -8831.2725    52.571402   -8883.8439    42270.739 
  176200    293.02221   -8848.1046    43.672178   -8891.7767   -53138.251 
  176400    332.29209   -8836.4003    49.524981   -8885.9253    15165.976 
  176600    356.21748   -8824.0217    53.090833   -8877.1125     -13999.5 
  176800    292.53199   -8845.2734    43.599114   -8888.8725   -52513.532 
  177000    308.11762    -8841.256    45.922005    -8887.178    38.761673 
  177200    327.77074   -8832.9668    48.851116   -8881.8179   -24952.098 
  177400    329.68293   -8840.4982    49.136109   -8889.6343    22478.327 
  177600    293.82704   -8844.1912    43.792129   -8887.9833     29474.51 
  177800    254.61565   -8855.0291    37.948045   -8892.9771    17583.132 
  178000    340.85087   -8836.1858    50.800585   -8886.9864   -11814.966 
  178200    327.27751    -8842.298    48.777605   -8891.0756   -23577.084 
  178400    272.00669   -8852.8488    40.540014   -8893.3888    33049.755 
  178600    324.97749   -8839.1014    48.434808   -8887.5363    11323.402 
  178800    267.39878   -8839.7379    39.853249   -8879.5911   -967.43982 
  179000    320.87191    -8844.826     47.82291   -8892.6489    40931.998 
  179200    352.36435   -8831.3426     52.51656   -8883.8592   -31921.586 
  179400    326.77244    -8842.075    48.702329   -8890.7774   -50142.639 
  179600    246.62301   -8853.7171    36.756818   -8890.4739    -22714.68 
  179800      272.431   -8832.1002    40.603253   -8872.7034   -26765.699 
  180000    257.45657   -8837.6484    38.371457   -8876.0198   -28533.445 
  180200    235.10792   -8848.7677    35.040602   -8883.8083   -14568.308 
  180400    308.50897   -8841.2511    45.980332   -8887.2315    11864.362 
  180600    333.82265   -8826.9045    49.753095   -8876.6576    31648.889 
  180800    348.23478   -8835.2007    51.901086   -8887.1017   -1717.8939 
  181000    291.73525   -8844.7957    43.480368   -8888.2761    20914.672 
  181200    309.48744   -8830.9053    46.126164   -8877.0314   -7224.4348 
[...]
  950000    275.43219   -8849.1536    41.050552   -8890.2042    460.51574 
  950200    284.95267   -8833.8741     42.46949   -8876.3436   -48824.443 
  950400    333.86367   -8832.5376     49.75921   -8882.2968    35301.002 
  950600    321.39367   -8841.7529    47.900673   -8889.6536    8527.4566 
  950800    241.35208   -8853.1838    35.971235    -8889.155   -22089.872 
  951000    279.03007   -8838.9127    41.586782   -8880.4995    78380.942 
  951200    324.36182   -8839.2887    48.343048   -8887.6317    54653.602 
  951400    273.90371   -8847.1616    40.822746   -8887.9843   -26190.759 
  951600     248.4535   -8851.8087    37.029634   -8888.8383    2268.6347 
  951800    328.96182   -8836.7719    49.028634   -8885.8006   -7839.9858 
  952000    282.62695   -8849.6981    42.122863    -8891.821    43724.605 
  952200    310.09102   -8844.8895    46.216121   -8891.1056   -8338.9705 
  952400    347.62048    -8831.674     51.80953   -8883.4835    1012.9384 
  952600    337.25268   -8845.0522    50.264309   -8895.3165     -30825.6 
  952800    292.15676   -8845.2198     43.54319    -8888.763    8161.1293 
  953000    312.55531   -8835.3608    46.583401   -8881.9442     615.0005 
  953200    308.03948   -8848.8978    45.910358   -8894.8081    11923.534 
  953400    297.59458   -8849.0728    44.353645   -8893.4264    25866.589 
  953600    251.22251   -8841.7814    37.442328   -8879.2237   -22387.795 
  953800    392.99654   -8825.6523    58.572402   -8884.2247    -18487.29 
  954000    279.76789   -8841.3073    41.696747   -8883.0041    4369.6782 
  954200    305.21863   -8839.3482    45.489938   -8884.8381   -24977.837 
  954400    289.88096   -8842.9647    43.204003   -8886.1687    -8940.024 
  954600     281.7754   -8846.9537    41.995947   -8888.9496   -27482.315 
  954800    299.87145   -8838.8383    44.692991   -8883.5313   -46932.973 
  955000    265.64703   -8850.3714    39.592166   -8889.9636     2883.503 
  955200    305.67489   -8843.8388    45.557939   -8889.3967   -19906.396 
  955400    314.18088   -8833.8462    46.825676   -8880.6719    12615.997 
  955600    281.69539   -8851.9755    41.984022   -8893.9596    13674.499 
  955800    301.64224   -8846.1153    44.956911   -8891.0722    13538.032 
  956000    363.80191   -8836.6722    54.221219   -8890.8935   -3580.0235 
  956200    273.27458   -8853.8976     40.72898   -8894.6265    -16596.95 
  956400    278.06644   -8846.5331    41.443162   -8887.9762   -33563.262 
  956600    284.10942   -8837.8936     42.34381   -8880.2374    1053.6927 
  956800    309.94194   -8833.3563    46.193903   -8879.5502   -10519.148 
  957000    296.93452   -8848.7179     44.25527   -8892.9732    8435.3579 
  957200    325.40616    -8839.819    48.498697   -8888.3177   -18516.761 
  957400    343.64262   -8819.7357    51.216669   -8870.9524    -40735.32 
  957600    279.39448   -8842.1524    41.641093   -8883.7935    24428.407 
  957800    316.15621   -8848.7049    47.120081    -8895.825    21602.708 
  958000     314.9713   -8829.3485    46.943481    -8876.292   -25803.332 
  958200    260.21149   -8838.0041    38.782052   -8876.7861    -63623.95 
  958400    272.20163   -8840.0974    40.569067   -8880.6664    973.00322 
  958600    341.29666   -8826.7128    50.867025   -8877.5798    22555.319 
  958800    273.10663   -8846.5257    40.703949   -8887.2296    -33027.82 
  959000    310.44481   -8841.2225     46.26885   -8887.4913    12535.235 
  959200    363.80357   -8830.0777    54.221467   -8884.2991    20917.781 
  959400    294.48431   -8843.8035     43.89009   -8887.6936   -31121.145 
  959600     331.2058   -8837.5829    49.363078   -8886.9459    51373.272 
  959800    272.36284   -8853.7508    40.593095   -8894.3439   -32965.161 
  960000    314.74643   -8838.6941    46.909966   -8885.6041    -14219.09 
  960200    345.88704    -8842.403    51.551178   -8893.9541   -42098.215 
  960400    271.27524   -8861.0914    40.430998   -8901.5224   -29971.059 
  960600     300.7472   -8849.8304    44.823513   -8894.6539    50397.535 
  960800    338.02512   -8835.6453    50.379433   -8886.0248    -3308.554 
  961000    313.82767   -8839.8195    46.773033   -8886.5925    5320.6965 
  961200    262.29643   -8853.6736    39.092792   -8892.7664    32707.859 
  961400    295.53673   -8840.9166    44.046943   -8884.9635    3691.3707 
  961600    297.29695   -8839.4685    44.309287   -8883.7778   -12750.204 
  961800     267.1516   -8853.4245    39.816409   -8893.2409    9184.8384 
  962000     308.8634   -8844.2957    46.033156   -8890.3289   -19319.436 
  962200    263.64525   -8840.7014    39.293821   -8879.9952    25012.197 
  962400    345.19482   -8836.1377     51.44801   -8887.5857   -9965.5666 
  962600     270.2141   -8849.6052    40.272846   -8889.8781   -5551.2394 
  962800    310.39507   -8843.8965    46.261437    -8890.158    5257.6208 
  963000    291.52644   -8832.4513    43.449248   -8875.9005   -7472.5997 
  963200    277.10462   -8842.1786    41.299812   -8883.4784    26967.633 
  963400     199.8233   -8855.9187    29.781765   -8885.7004   -7935.9689 
  963600    254.21311   -8854.9787     37.88805   -8892.8667    39316.111 
  963800    295.23108   -8843.0869    44.001389   -8887.0883   -42813.717 
  964000    297.01297   -8834.9582    44.266962   -8879.2252     17383.09 
  964200    366.01476   -8836.7136    54.551024   -8891.2646    26534.552 
  964400    231.83116   -8849.8654    34.552233   -8884.4177    33375.037 
  964600    335.26604   -8835.3214    49.968219   -8885.2896    12434.964 
  964800    297.38259   -8842.2916    44.322051   -8886.6136    -2223.109 
  965000    227.63443   -8858.2439     33.92675   -8892.1707   -41012.452 
  965200    284.36934   -8853.6289    42.382549   -8896.0115    15662.016 
  965400    304.22231   -8844.8023    45.341446   -8890.1437    3899.1051 
  965600    284.44529   -8835.2537    42.393868   -8877.6476    2844.8751 
  965800    342.42076   -8830.4434    51.034562    -8881.478    49233.385 
  966000    304.06368    -8842.944    45.317804   -8888.2618     15414.18 
  966200    250.82342   -8847.6353    37.382849   -8885.0182   -56544.206 
  966400    352.30433   -8829.4507    52.507614   -8881.9584    12482.347 
  966600    269.14854   -8849.9622    40.114034   -8890.0763   -47571.463 
  966800    294.25143   -8840.4965     43.85538   -8884.3519   -33725.194 
  967000    346.39563   -8832.7707    51.626979   -8884.3977   -46189.928 
  967200    250.72662   -8851.5387    37.368421   -8888.9071    33459.269 
  967400    319.24624    -8837.553     47.58062   -8885.1336    8821.8295 
  967600    253.53218   -8846.5946    37.786564   -8884.3812    22832.784 
  967800    281.58792   -8847.7619    41.968005   -8889.7299    5743.2486 
  968000    316.18992   -8839.7599    47.125104    -8886.885    5520.6194 
  968200    232.26327   -8852.7198    34.616634   -8887.3364   -36672.413 
  968400    276.98823   -8841.4807    41.282466   -8882.7632   -23610.933 
  968600    305.07278   -8843.4771    45.468201   -8888.9453   -4977.9681 
  968800    239.91519   -8852.9264     35.75708   -8888.6834   -13689.856 
  969000    350.10136   -8831.4987    52.179282    -8883.678   -40855.304 
  969200    261.85558   -8843.9771    39.027088   -8883.0042    18796.433 
  969400    242.45615    -8851.407    36.135786   -8887.5428    381.38249 
  969600    355.63066   -8832.3375    53.003373   -8885.3409    -18939.67 
  969800    310.64767     -8842.84    46.299085   -8889.1391    11920.387 
  970000    315.83587   -8842.0418    47.072337   -8889.1141   -29745.341 
  970200     308.5904   -8835.0629    45.992468   -8881.0554    5893.4279 
  970400    293.62469    -8847.411    43.761971   -8891.1729    1892.6199 
  970600    345.98316   -8831.2011    51.565505   -8882.7666   -15513.472 
  970800     300.5576   -8841.7653    44.795256   -8886.5605   -30996.705 
  971000    271.63704   -8845.1458    40.484921   -8885.6307   -17224.726 
  971200    319.98437   -8831.3834    47.690631   -8879.0741      38463.5 
  971400    278.75456   -8834.3378    41.545719   -8875.8835   -6416.7807 
  971600    287.38239   -8848.7649    42.831616   -8891.5965   -1008.7621 
  971800    327.50732    -8837.626    48.811855   -8886.4379   -4945.7929 
  972000    270.05208   -8842.1638    40.248698   -8882.4125   -10780.784 
  972200    303.23807   -8850.3153    45.194754   -8895.5101   -42737.494 
  972400    289.08834   -8839.3847    43.085871   -8882.4705    68597.846 
  972600    270.74848    -8832.223     40.35249   -8872.5755    6974.7614 
  972800    337.86961   -8836.1308    50.356256    -8886.487   -9586.3294 
  973000    277.70227   -8848.2052    41.388886   -8889.5941   -27344.676 
  973200    330.47011   -8831.2516    49.253431    -8880.505   -23932.537 
  973400    275.71374   -8838.4108    41.092514   -8879.5033    2711.9362 
  973600    301.72991   -8842.7996    44.969977   -8887.7696   -35241.467 
  973800    278.46025   -8844.7264    41.501855   -8886.2283    60597.442 
  974000    362.09032   -8828.4896    53.966123   -8882.4557   -37465.106 
  974200    279.80907   -8845.8411    41.702885    -8887.544   -22775.962 
  974400    365.14806   -8841.4906    54.421851   -8895.9125    15417.248 
  974600    356.07513   -8826.4527    53.069616   -8879.5223   -28370.806 
  974800    246.78029   -8844.2344    36.780258   -8881.0147    15619.631 
  975000    282.78904   -8839.8691    42.147021   -8882.0161    25765.895 
  975200     315.3577   -8850.6698    47.001069   -8897.6709   -4581.4065 
  975400    294.92378   -8851.7404    43.955588    -8895.696   -5145.4107 
  975600    323.29974   -8840.3348    48.184756   -8888.5195   -37501.625 
  975800    299.68235   -8848.0153    44.664809   -8892.6801   -46312.875 
  976000    241.59147   -8849.4257    36.006914   -8885.4326   -41570.367 
  976200     363.4808    -8834.794    54.173361   -8888.9673    27543.683 
  976400    328.64234   -8845.6705     48.98102   -8894.6515    10694.172 
  976600    238.83716   -8852.4356     35.59641    -8888.032    12911.143 
  976800    326.11176   -8836.3148    48.603861   -8884.9187   -11164.278 
  977000    341.46239   -8839.3943    50.891726   -8890.2861   -2989.8486 
  977200    283.88006   -8852.0348    42.309627   -8894.3444   -18346.429 
  977400    314.68396    -8836.542    46.900656   -8883.4427   -26028.834 
  977600     349.1375    -8839.556    52.035628   -8891.5917    3037.3535 
  977800    291.54275   -8849.9899    43.451678   -8893.4416    39326.318 
  978000    288.57013   -8858.5145    43.008638   -8901.5231    4747.9526 
  978200    301.78841   -8843.2974    44.978696   -8888.2761    23304.603 
  978400    334.83013   -8836.1136    49.903251   -8886.0169   -23392.584 
  978600    344.16117    -8841.993    51.293954    -8893.287    9210.2226 
  978800    319.52526   -8846.3057    47.622205   -8893.9279   -2154.9896 
  979000    347.26862   -8830.6103     51.75709   -8882.3674    2639.8557 
  979200    311.11905   -8840.8707     46.36934     -8887.24   -4150.9522 
  979400    244.22327   -8843.6782    36.399159   -8880.0774   -6478.1808 
  979600    304.93295    -8837.123    45.447361   -8882.5704    33986.158 
  979800    305.43839   -8837.1751    45.522691   -8882.6978    26691.771 
  980000    280.48046   -8847.2858    41.802949   -8889.0887   -3572.1664 
  980200    358.78516   -8829.4227    53.473521   -8882.8963   -14947.001 
  980400      309.573   -8839.5632    46.138916   -8885.7021   -32309.447 
  980600    283.19581   -8851.3123    42.207646     -8893.52    46741.703 
  980800    266.09485   -8834.9451     39.65891   -8874.6041    20074.916 
  981000    283.75231   -8839.4189    42.290587   -8881.7095   -55350.221 
  981200    300.24167   -8847.2341    44.748169   -8891.9822   -13669.409 
  981400    258.89116   -8851.3776    38.585268   -8889.9628    924.12513 
  981600    363.94436   -8835.7023     54.24245   -8889.9447   -36664.864 
  981800    296.57959   -8842.6084    44.202372   -8886.8108    6851.1384 
  982000    287.90728   -8850.2186    42.909846   -8893.1284    72709.062 
  982200    319.43382   -8837.3792    47.608577   -8884.9878    24092.764 
  982400    358.31148   -8833.9075    53.402924   -8887.3104    -36510.83 
  982600    261.83546   -8843.6633    39.024088   -8882.6874   -11277.268 
  982800    317.26016   -8835.6069    47.284614   -8882.8915    49580.363 
  983000    326.38489   -8835.6002    48.644568   -8884.2448   -34458.843 
  983200    300.94923   -8842.7612    44.853624   -8887.6149    -4784.669 
  983400    262.36249   -8845.5242    39.102638   -8884.6268    13234.151 
  983600    278.04981   -8849.3443    41.440683    -8890.785    13210.136 
  983800    311.67641   -8837.6366    46.452409    -8884.089   -20181.207 
  984000    280.00319    -8840.982    41.731816   -8882.7139    -28728.76 
  984200    283.80471   -8852.5997    42.298396   -8894.8981   -11437.509 
  984400    241.47756   -8839.7183    35.989937   -8875.7083    35172.289 
  984600     318.7916   -8834.4871     47.51286        -8882    28212.027 
  984800    269.40531    -8852.992    40.152303   -8893.1443   -4477.0278 
  985000    263.65745   -8852.2764    39.295639    -8891.572    36407.524 
  985200    355.42624   -8837.1883    52.972905   -8890.1613    22755.934 
  985400    297.93311   -8840.5963    44.404101   -8885.0004   -44112.915 
  985600    261.67348   -8853.3569    38.999948   -8892.3568   -26379.096 
  985800    380.21467   -8831.3454    56.667385   -8888.0128    41629.232 
  986000    309.17375   -8843.6341    46.079411   -8889.7135    -17877.08 
  986200    305.82863   -8851.8165    45.580853   -8897.3974   -37528.895 
  986400    350.79361   -8832.7093    52.282455   -8884.9918   -10353.904 
  986600    303.90818   -8845.8787    45.294627   -8891.1733    6376.1286 
  986800    264.32523   -8852.0875    39.395165   -8891.4826    5276.5179 
  987000    242.34245    -8846.284     36.11884   -8882.4029    2456.7783 
  987200     341.8668   -8835.8034    50.951999   -8886.7554   -5811.9672 
  987400     271.2382   -8850.1749    40.425478   -8890.6004   -27356.736 
  987600     301.0638   -8840.2529      44.8707   -8885.1236   -5041.5243 
  987800    321.27758   -8838.4127    47.883372   -8886.2961    10204.603 
  988000    275.84259   -8842.6357    41.111718   -8883.7475   -27581.693 
  988200    364.72558   -8828.4059    54.358884   -8882.7648   -14116.166 
  988400    258.43144   -8845.6585    38.516751   -8884.1752   -21411.418 
  988600    291.13096   -8842.0616    43.390305   -8885.4519   -17345.906 
  988800    318.34134    -8831.706    47.445754   -8879.1518   -17699.291 
  989000    315.18442   -8841.0723    46.975244   -8888.0476   -37138.296 
  989200    287.21224   -8850.5459    42.806257   -8893.3522   -39237.896 
  989400    296.92049   -8834.7853    44.253178   -8879.0384    14422.613 
  989600     283.8291   -8843.8328    42.302032   -8886.1348     8874.374 
  989800    243.65844   -8848.7364    36.314976   -8885.0514    28349.864 
  990000    334.16313   -8838.3928    49.803841   -8888.1967    25376.095 
  990200    329.85039   -8841.4024    49.161068   -8890.5635   -9370.7025 
  990400    233.88865   -8854.3519    34.858882   -8889.2108   -30695.173 
  990600    313.01719    -8835.294     46.65224   -8881.9462   -52614.291 
  990800    292.16056   -8840.2065    43.543756   -8883.7503    25357.066 
  991000    255.73676   -8852.5082    38.115135   -8890.6233   -26470.925 
  991200    341.65192   -8833.6636    50.919974   -8884.5836   -1845.7999 
  991400    315.61641   -8840.4625    47.039629   -8887.5022    38322.115 
  991600    308.62564   -8849.7272    45.997721   -8895.7249    17610.855 
  991800    341.05175   -8833.3496    50.830524   -8884.1801    35786.934 
  992000    266.61608   -8841.2843    39.736594   -8881.0209   -19909.685 
  992200    252.28359   -8852.1025    37.600473    -8889.703    41985.095 
  992400     313.1242   -8843.4851    46.668188   -8890.1533   -19289.924 
  992600    288.95121   -8829.1457    43.065434   -8872.2112   -330.26735 
  992800    331.34013   -8824.2703    49.383099   -8873.6534    36257.185 
  993000    262.30969   -8845.2253    39.094768   -8884.3201   -12123.412 
  993200    315.93137   -8840.6306     47.08657   -8887.7172    1223.6106 
  993400    358.65885   -8830.9511    53.454695   -8884.4058   -20595.186 
  993600    277.47333   -8847.5263    41.354764   -8888.8811   -4360.8939 
  993800    364.42998   -8834.3573    54.314827   -8888.6722   -33452.414 
  994000    244.50356    -8848.848    36.440933   -8885.2889   -40398.929 
  994200    305.00781   -8841.2671    45.458518   -8886.7256    29015.848 
  994400    298.38684   -8836.1671    44.471724   -8880.6388    19774.061 
  994600    288.57814   -8846.8633    43.009831   -8889.8731    10466.857 
  994800    265.91637   -8846.0525    39.632309   -8885.6848    16572.498 
  995000    301.26991   -8837.9372    44.901419   -8882.8386    33690.147 
  995200    293.49514   -8831.4151    43.742664   -8875.1577    20059.806 
  995400    263.41856    -8851.325    39.260035    -8890.585     24721.36 
  995600     267.9771   -8837.9836    39.939442   -8877.9231   -11948.945 
  995800    299.95907   -8838.7682    44.706051   -8883.4743    4482.3205 
  996000    268.44102   -8844.0701    40.008585   -8884.0787   -10864.522 
  996200    295.90784   -8827.8276    44.102254   -8871.9299   -29730.041 
  996400    260.81926   -8843.3921    38.872634   -8882.2647   -4572.5875 
  996600    287.23569   -8838.1776    42.809751   -8880.9874    2061.0192 
  996800    253.85593    -8841.321    37.834815   -8879.1558   -44694.166 
  997000    237.50524   -8850.3666    35.397901   -8885.7645    29200.407 
  997200    316.24598   -8839.3976    47.133459    -8886.531     24209.47 
  997400    268.41627   -8840.7696    40.004896   -8880.7745    16618.926 
  997600    247.24502   -8859.2205    36.849522     -8896.07   -5876.6018 
  997800    254.48379   -8843.6957    37.928392   -8881.6241   -21374.666 
  998000    339.17339   -8837.6399    50.550572   -8888.1904     29619.01 
  998200     329.1581    -8834.129    49.057889   -8883.1869    -8290.529 
  998400    294.54255   -8851.9598    43.898769   -8895.8585   -35566.387 
  998600    300.42355   -8840.4923    44.775276   -8885.2675   -1630.2249 
  998800    298.17295   -8835.0915    44.439846   -8879.5314   -3590.3819 
  999000    319.08155   -8851.4064    47.556074   -8898.9625    34886.942 
  999200    262.32129   -8850.2794    39.096496   -8889.3759    12110.607 
  999400    374.77943   -8838.4047    55.857314    -8894.262   -7432.6817 
  999600    260.02177   -8847.5649    38.753775   -8886.3187   -32454.587 
  999800    354.41049   -8827.2452    52.821518   -8880.0667    23902.165 
 1000000    308.11258   -8843.3682    45.921254   -8889.2895    57211.936 
Loop time of 4535.01 on 8 procs for 1000000 steps with 51 atoms

Performance: 4.763 ns/day, 5.039 hours/ns, 220.507 timesteps/s
99.0% CPU use with 8 MPI tasks x no OpenMP threads

MPI task timing breakdown:
Section |  min time  |  avg time  |  max time  |%varavg| %total
---------------------------------------------------------------
Pair    | 3945.9     | 4015.9     | 4100.6     |  80.6 | 88.55
Neigh   | 3.9387     | 4.0078     | 4.0762     |   2.0 |  0.09
Comm    | 62.345     | 146.28     | 216.52     | 420.3 |  3.23
Output  | 0.12579    | 0.14568    | 0.28024    |  13.3 |  0.00
Modify  | 363.9      | 364.65     | 365.61     |   2.7 |  8.04
Other   |            | 4.055      |            |       |  0.09

Nlocal:    6.375 ave 8 max 5 min
Histogram: 1 0 0 5 0 0 0 0 0 2
Nghost:    932.25 ave 952 max 922 min
Histogram: 3 1 0 1 1 0 0 1 0 1
Neighs:    1847.88 ave 2321 max 1442 min
Histogram: 1 0 0 5 0 0 0 0 0 2

Total # of neighbors = 14783
Ave neighs/atom = 289.863
Neighbor list builds = 1677
Dangerous builds = 0

Please see the log.cite file for references relevant to this simulation

Total wall time: 1:15:47
