ITEM: TIMESTEP
0
ITEM: NUMBER OF ATOMS
201
ITEM: BOX BOUNDS pp pp pp
0.0000000000000000e+00 1.6114000000000001e+01
0.0000000000000000e+00 1.6113000000000000e+01
0.0000000000000000e+00 1.6111999999999998e+01
ITEM: ATOMS id type x y z 
5 1 5.384 5.384 5.384 
65 1 5.66 6.662 2.461 
66 1 5.336 7.323 3.711 
68 1 4.865 6.606 4.866 
79 1 5.364 7.322 1.219 
89 1 6.662 2.461 5.66 
90 1 7.323 3.711 5.336 
92 1 6.606 4.866 4.866 
101 1 7.322 1.219 5.364 
109 1 2.461 5.66 6.662 
110 1 3.71 5.336 7.323 
112 1 4.865 4.866 6.606 
121 1 1.218 5.364 7.322 
129 1 6.662 5.66 2.461 
130 1 7.323 5.336 3.711 
137 1 7.322 5.364 1.219 
141 1 2.461 6.662 5.66 
142 1 3.71 7.323 5.336 
149 1 1.218 7.322 5.364 
153 1 5.66 2.461 6.662 
154 1 5.336 3.711 7.323 
161 1 5.364 1.219 7.322 
7 1 6.662 5.66 13.616 
8 1 7.323 5.336 12.366 
10 1 6.606 4.866 11.211 
21 1 7.322 5.364 14.858 
32 1 1.218 7.322 10.713 
40 1 2.461 6.662 10.417 
41 1 3.71 7.323 10.741 
43 1 4.865 6.606 11.211 
47 1 5.364 1.219 8.755 
55 1 5.66 2.461 9.415 
56 1 5.336 3.711 8.754 
58 1 4.865 4.866 9.471 
64 1 5.629 6.643 16.094 
75 1 5.384 5.384 10.693 
118 1 6.643 5.629 16.094 
168 1 5.66 6.662 13.616 
169 1 5.336 7.323 12.366 
176 1 5.364 7.322 14.858 
182 1 7.322 1.219 10.713 
186 1 6.662 2.461 10.417 
187 1 7.323 3.711 10.741 
191 1 1.218 5.364 8.755 
195 1 2.461 5.66 9.415 
196 1 3.71 5.336 8.754 
9 1 7.322 10.713 1.219 
19 1 6.662 10.417 2.461 
20 1 7.323 10.741 3.711 
22 1 6.606 11.211 4.866 
27 1 1.218 8.755 5.364 
35 1 2.461 9.415 5.66 
36 1 3.71 8.754 5.336 
38 1 4.865 9.471 4.866 
44 1 6.643 16.095 5.63 
50 1 5.66 13.616 6.662 
51 1 5.336 12.366 7.323 
53 1 4.865 11.211 6.606 
62 1 5.364 14.858 7.322 
76 1 5.629 16.095 6.643 
81 1 5.384 10.693 5.384 
167 1 5.364 8.755 1.219 
171 1 5.66 9.415 2.461 
172 1 5.336 8.754 3.711 
180 1 6.662 13.616 5.66 
181 1 7.323 12.366 5.336 
188 1 7.322 14.858 5.364 
194 1 1.218 10.713 7.322 
198 1 2.461 10.417 6.662 
199 1 3.71 10.741 7.323 
17 1 5.384 10.693 10.693 
39 1 6.643 16.095 10.448 
49 1 5.629 9.434 16.095 
73 1 5.364 8.755 14.858 
82 1 5.629 16.095 9.434 
83 1 5.66 9.415 13.616 
84 1 5.336 8.754 12.366 
86 1 4.865 9.471 11.211 
91 1 7.322 14.858 10.713 
99 1 6.662 13.616 10.417 
100 1 7.323 12.366 10.741 
102 1 6.606 11.211 11.211 
113 1 6.643 10.448 16.094 
114 1 2.461 10.417 9.415 
115 1 3.71 10.741 8.754 
117 1 4.865 11.211 9.471 
126 1 1.218 10.713 8.755 
131 1 7.322 10.713 14.858 
135 1 6.662 10.417 13.616 
136 1 7.323 10.741 12.366 
144 1 2.461 9.415 10.417 
145 1 3.71 8.754 10.741 
152 1 1.218 8.755 10.713 
158 1 5.364 14.858 8.755 
162 1 5.66 13.616 9.415 
163 1 5.336 12.366 8.754 
3 1 8.755 5.364 1.219 
13 1 9.415 5.66 2.461 
14 1 8.754 5.336 3.711 
16 1 9.471 4.866 4.866 
24 1 16.095 5.629 6.643 
30 1 13.616 6.662 5.66 
31 1 12.367 7.323 5.336 
33 1 11.212 6.606 4.866 
42 1 14.859 7.322 5.364 
52 1 10.713 1.219 7.322 
60 1 10.417 2.461 6.662 
61 1 10.741 3.711 7.323 
63 1 11.212 4.866 6.606 
87 1 10.693 5.384 5.384 
98 1 16.095 6.643 5.63 
170 1 10.713 7.322 1.219 
174 1 10.417 6.662 2.461 
175 1 10.741 7.323 3.711 
179 1 8.755 1.219 5.364 
183 1 9.415 2.461 5.66 
184 1 8.754 3.711 5.336 
192 1 13.616 5.66 6.662 
193 1 12.367 5.336 7.323 
200 1 14.859 5.364 7.322 
6 1 16.096 5.629 9.434 
23 1 10.693 5.384 10.693 
59 1 10.448 6.643 16.095 
67 1 10.713 7.322 14.858 
77 1 10.417 6.662 13.616 
78 1 10.741 7.323 12.366 
80 1 11.212 6.606 11.211 
93 1 16.096 6.643 10.448 
94 1 9.415 2.461 10.417 
95 1 8.754 3.711 10.741 
97 1 9.471 4.866 11.211 
106 1 8.755 1.219 10.713 
116 1 14.859 5.364 8.755 
123 1 9.434 5.629 16.094 
124 1 13.616 5.66 9.415 
125 1 12.367 5.336 8.754 
127 1 11.212 4.866 9.471 
134 1 8.755 5.364 14.858 
138 1 9.415 5.66 13.616 
139 1 8.754 5.336 12.366 
143 1 14.859 7.322 10.713 
147 1 13.616 6.662 10.417 
148 1 12.367 7.323 10.741 
156 1 10.417 2.461 9.415 
157 1 10.741 3.711 8.754 
164 1 10.713 1.219 8.755 
201 2 16.096 4.529 9.434 
11 1 10.693 10.693 5.384 
18 1 16.096 10.448 6.643 
29 1 9.434 16.095 5.63 
70 1 10.448 16.095 6.643 
71 1 10.417 9.415 2.461 
72 1 10.741 8.754 3.711 
74 1 11.212 9.471 4.866 
85 1 10.713 8.755 1.219 
96 1 8.755 14.858 5.364 
103 1 16.095 9.434 5.63 
104 1 9.415 13.616 5.66 
105 1 8.754 12.366 5.336 
107 1 9.471 11.211 4.866 
111 1 14.859 10.713 7.322 
119 1 13.616 10.417 6.662 
120 1 12.367 10.741 7.323 
122 1 11.212 11.211 6.606 
132 1 9.415 10.417 2.461 
133 1 8.754 10.741 3.711 
140 1 8.755 10.713 1.219 
146 1 14.859 8.755 5.364 
150 1 13.616 9.415 5.66 
151 1 12.367 8.754 5.336 
155 1 10.713 14.858 7.322 
159 1 10.417 13.616 6.662 
160 1 10.741 12.366 7.323 
1 1 9.415 10.417 13.616 
2 1 8.754 10.741 12.366 
4 1 9.471 11.211 11.211 
12 1 16.096 10.448 9.434 
15 1 8.755 10.713 14.858 
25 1 13.616 9.415 10.417 
26 1 12.367 8.754 10.741 
28 1 11.212 9.471 11.211 
34 1 9.434 16.095 10.448 
37 1 14.859 8.755 10.713 
45 1 10.417 13.616 9.415 
46 1 10.741 12.366 8.754 
48 1 11.212 11.211 9.471 
54 1 10.448 9.434 16.094 
57 1 10.713 14.858 8.755 
69 1 10.693 10.693 10.693 
88 1 10.448 16.095 9.434 
108 1 16.096 9.434 10.448 
128 1 9.434 10.448 16.094 
165 1 10.417 9.415 13.616 
166 1 10.741 8.754 12.366 
173 1 10.713 8.755 14.858 
177 1 9.415 13.616 10.417 
178 1 8.754 12.366 10.741 
185 1 8.755 14.858 10.713 
189 1 13.616 10.417 9.415 
190 1 12.367 10.741 8.754 
197 1 14.859 10.713 8.755 
ITEM: TIMESTEP
10
ITEM: NUMBER OF ATOMS
201
ITEM: BOX BOUNDS pp pp pp
0.0000000000000000e+00 1.6114000000000001e+01
0.0000000000000000e+00 1.6113000000000000e+01
0.0000000000000000e+00 1.6111999999999998e+01
ITEM: ATOMS id type x y z 
5 1 5.34602 5.34203 5.34049 
65 1 5.58284 6.59821 2.42678 
66 1 5.37732 7.3266 3.69625 
68 1 4.87416 6.61931 4.87257 
79 1 5.24335 7.31008 1.20055 
89 1 6.59826 2.42474 5.58339 
90 1 7.3271 3.6966 5.37647 
92 1 6.61966 4.87277 4.87363 
101 1 7.31071 1.20116 5.24456 
109 1 2.45198 5.57753 6.57378 
110 1 3.70783 5.38186 7.33099 
112 1 4.88321 4.87078 6.61388 
121 1 1.21183 5.26356 7.26895 
129 1 6.59919 5.58239 2.42561 
130 1 7.32719 5.37636 3.69716 
137 1 7.31045 5.2439 1.20178 
141 1 2.42767 6.60267 5.57364 
142 1 3.70369 7.33046 5.37548 
149 1 1.20122 7.3163 5.24175 
153 1 5.58347 2.42359 6.59779 
154 1 5.37802 3.69627 7.32879 
161 1 5.24428 1.20088 7.3116 
7 1 6.60032 5.58196 13.6495 
8 1 7.32875 5.3772 12.3816 
10 1 6.61867 4.87478 11.202 
21 1 7.3096 5.24393 14.8736 
32 1 1.15958 7.28988 10.8065 
40 1 2.41458 6.60873 10.5174 
41 1 3.68623 7.32187 10.7027 
43 1 4.87173 6.61781 11.2031 
47 1 5.24459 1.19928 8.7661 
55 1 5.58436 2.42439 9.48162 
56 1 5.38263 3.69447 8.75105 
58 1 4.87572 4.87383 9.45832 
64 1 5.53904 6.5673 16.0945 
75 1 5.34273 5.34662 10.7341 
118 1 6.56751 5.53899 16.0945 
168 1 5.58381 6.59554 13.6505 
169 1 5.37899 7.32275 12.3769 
176 1 5.2434 7.31067 14.8761 
182 1 7.30902 1.2035 10.8317 
186 1 6.60169 2.4271 10.495 
187 1 7.32846 3.69361 10.6995 
191 1 1.24511 5.42571 8.69418 
195 1 2.45537 5.5991 9.49619 
196 1 3.70506 5.37966 8.75492 
9 1 7.31052 10.8332 1.20202 
19 1 6.59914 10.4943 2.42679 
20 1 7.3271 10.7016 3.69826 
22 1 6.61625 11.2029 4.87474 
27 1 1.20062 8.76546 5.24342 
35 1 2.42369 9.48043 5.58367 
36 1 3.69707 8.75202 5.3765 
38 1 4.87593 9.46392 4.87482 
44 1 6.56822 16.0952 5.54027 
50 1 5.58348 13.6514 6.59843 
51 1 5.37672 12.3806 7.3258 
53 1 4.87479 11.2027 6.61496 
62 1 5.24428 14.8759 7.30979 
76 1 5.53952 16.0949 6.56822 
81 1 5.34583 10.7323 5.34412 
167 1 5.24353 8.76679 1.20265 
171 1 5.58345 9.47961 2.42484 
172 1 5.37719 8.75036 3.69747 
180 1 6.59927 13.6507 5.58316 
181 1 7.32734 12.3793 5.37548 
188 1 7.31035 14.8756 5.24451 
194 1 1.20022 10.8331 7.30999 
198 1 2.4248 10.494 6.59813 
199 1 3.69649 10.7007 7.32627 
17 1 5.34272 10.7327 10.734 
39 1 6.56807 16.0953 10.537 
49 1 5.53833 9.50929 16.0936 
73 1 5.24366 8.76666 14.8751 
82 1 5.53987 16.0968 9.50866 
83 1 5.58219 9.47908 13.6528 
84 1 5.37678 8.74741 12.3791 
86 1 4.8714 9.4608 11.1994 
91 1 7.31036 14.877 10.8327 
99 1 6.59837 13.6522 10.494 
100 1 7.32698 12.3807 10.7001 
102 1 6.61585 11.2025 11.2009 
113 1 6.56773 10.5386 16.0952 
114 1 2.42452 10.4921 9.47977 
115 1 3.69369 10.7001 8.75185 
117 1 4.87385 11.2029 9.45993 
126 1 1.20094 10.8319 8.76917 
131 1 7.3094 10.8336 14.8748 
135 1 6.59797 10.4941 13.6513 
136 1 7.32563 10.7 12.381 
144 1 2.41626 9.47171 10.4959 
145 1 3.69455 8.74973 10.7016 
152 1 1.19653 8.75629 10.8302 
158 1 5.24419 14.8764 8.76685 
162 1 5.58292 13.6517 9.47827 
163 1 5.37694 12.3813 8.74968 
3 1 8.76653 5.24389 1.20175 
13 1 9.47797 5.58249 2.42574 
14 1 8.75011 5.37619 3.69742 
16 1 9.45734 4.87264 4.87364 
24 1 16.0951 5.52011 6.53729 
30 1 13.6489 6.60245 5.57448 
31 1 12.3739 7.33004 5.3753 
33 1 11.2028 6.61928 4.87243 
42 1 14.8747 7.3158 5.24173 
52 1 10.8327 1.20103 7.31152 
60 1 10.4935 2.42355 6.59785 
61 1 10.699 3.69626 7.32881 
63 1 11.1956 4.87164 6.61489 
87 1 10.7309 5.34248 5.34065 
98 1 16.0954 6.56783 5.53354 
170 1 10.8335 7.31012 1.20092 
174 1 10.4942 6.59854 2.42715 
175 1 10.7001 7.32675 3.69643 
179 1 8.7663 1.20107 5.24457 
183 1 9.47872 2.42479 5.58338 
184 1 8.75012 3.69684 5.37634 
192 1 13.6232 5.57823 6.5741 
193 1 12.3702 5.38122 7.32999 
200 1 14.8641 5.26367 7.2671 
6 1 16.0995 5.4227 9.50292 
23 1 10.7341 5.34635 10.7344 
59 1 10.5379 6.56729 16.0948 
67 1 10.8337 7.31056 14.8762 
77 1 10.4932 6.59547 13.651 
78 1 10.6981 7.3228 12.3768 
80 1 11.2057 6.6181 11.2029 
93 1 16.0955 6.54823 10.4863 
94 1 9.4754 2.42712 10.4949 
95 1 8.74854 3.69372 10.6996 
97 1 9.45812 4.87453 11.202 
106 1 8.76798 1.20345 10.8317 
116 1 14.8318 5.41963 8.69655 
123 1 9.50944 5.53899 16.0946 
124 1 13.6208 5.5996 9.49668 
125 1 12.3742 5.38046 8.75419 
127 1 11.2002 4.87349 9.45888 
134 1 8.76747 5.24395 14.8738 
138 1 9.47674 5.58202 13.6495 
139 1 8.74827 5.37712 12.3813 
143 1 14.9185 7.28984 10.8056 
147 1 13.6632 6.60802 10.5155 
148 1 12.3898 7.32257 10.7026 
156 1 10.4927 2.42479 9.48139 
157 1 10.6948 3.69419 8.75075 
164 1 10.8324 1.1994 8.76619 
201 2 16.0908 4.31164 9.79954 
11 1 10.7311 10.7321 5.34428 
18 1 16.0956 10.5374 6.56774 
29 1 9.50872 16.0953 5.54023 
70 1 10.5375 16.0949 6.56824 
71 1 10.4936 9.47942 2.42513 
72 1 10.7 8.75026 3.69763 
74 1 11.2009 9.46397 4.87464 
85 1 10.8335 8.76692 1.20255 
96 1 8.76665 14.8756 5.24451 
103 1 16.0956 9.51064 5.54054 
104 1 9.47776 13.6506 5.58323 
105 1 8.7499 12.3791 5.37539 
107 1 9.46096 11.2029 4.87476 
111 1 14.8768 10.833 7.30998 
119 1 13.652 10.4938 6.59821 
120 1 12.3804 10.701 7.32634 
122 1 11.2024 11.2026 6.61498 
132 1 9.47785 10.4942 2.42682 
133 1 8.75015 10.7016 3.69845 
140 1 8.76663 10.8332 1.20203 
146 1 14.876 8.7658 5.24325 
150 1 13.6528 9.48056 5.58377 
151 1 12.3798 8.7522 5.3764 
155 1 10.8327 14.8758 7.30979 
159 1 10.4935 13.6512 6.59854 
160 1 10.7005 12.3803 7.32583 
1 1 9.47913 10.4941 13.6512 
2 1 8.7516 10.7 12.3808 
4 1 9.4615 11.2023 11.2008 
12 1 16.0955 10.5375 9.50903 
15 1 8.76754 10.8336 14.8747 
25 1 13.6606 9.47169 10.4957 
26 1 12.3826 8.7499 10.7016 
28 1 11.2058 9.46099 11.1991 
34 1 9.50895 16.0953 10.537 
37 1 14.8806 8.75514 10.8299 
45 1 10.4941 13.6515 9.47822 
46 1 10.7002 12.3811 8.74964 
48 1 11.2031 11.2029 9.46012 
54 1 10.5386 9.50926 16.0934 
57 1 10.8328 14.8764 8.76686 
69 1 10.7342 10.7325 10.7339 
88 1 10.5371 16.0967 9.50864 
108 1 16.0955 9.50264 10.5385 
128 1 9.50932 10.5385 16.0952 
165 1 10.4947 9.47913 13.6527 
166 1 10.7002 8.74792 12.3791 
173 1 10.8332 8.76662 14.875 
177 1 9.47867 13.6522 10.494 
178 1 8.75022 12.3806 10.7002 
185 1 8.76668 14.8769 10.8326 
189 1 13.6524 10.492 9.47948 
190 1 12.3834 10.7001 8.75197 
197 1 14.876 10.8317 8.76936 
ITEM: TIMESTEP
20
ITEM: NUMBER OF ATOMS
201
ITEM: BOX BOUNDS pp pp pp
0.0000000000000000e+00 1.6114000000000001e+01
0.0000000000000000e+00 1.6113000000000000e+01
0.0000000000000000e+00 1.6111999999999998e+01
ITEM: ATOMS id type x y z 
5 1 5.35833 5.35808 5.36032 
65 1 5.58679 6.60284 2.42136 
66 1 5.36464 7.32886 3.6911 
68 1 4.87115 6.6084 4.86776 
79 1 5.23446 7.30974 1.19934 
89 1 6.60202 2.42176 5.58711 
90 1 7.3272 3.69127 5.36342 
92 1 6.61077 4.86679 4.86729 
101 1 7.30954 1.19789 5.23476 
109 1 2.45909 5.58497 6.56784 
110 1 3.70023 5.36528 7.32652 
112 1 4.87389 4.8669 6.61005 
121 1 1.21185 5.29194 7.26478 
129 1 6.60244 5.58678 2.4223 
130 1 7.32694 5.36335 3.69121 
137 1 7.30935 5.23426 1.19882 
141 1 2.42458 6.60697 5.57479 
142 1 3.69702 7.33313 5.36161 
149 1 1.20078 7.31168 5.23435 
153 1 5.58672 2.42243 6.60351 
154 1 5.36513 3.69231 7.32787 
161 1 5.23438 1.19882 7.30952 
7 1 6.60148 5.58586 13.6556 
8 1 7.3269 5.36391 12.3836 
10 1 6.61126 4.86879 11.2084 
21 1 7.31017 5.23366 14.8793 
32 1 1.15314 7.2843 10.7983 
40 1 2.41052 6.60111 10.5076 
41 1 3.67976 7.32552 10.7226 
43 1 4.86277 6.60917 11.2075 
47 1 5.23468 1.1995 8.76835 
55 1 5.58587 2.42268 9.47297 
56 1 5.36803 3.68854 8.7484 
58 1 4.87488 4.86541 9.46877 
64 1 5.53229 6.56356 16.0946 
75 1 5.35726 5.36249 10.7195 
118 1 6.56359 5.53251 16.0943 
168 1 5.58563 6.60253 13.6556 
169 1 5.36551 7.32557 12.3835 
176 1 5.2345 7.30842 14.8766 
182 1 7.31018 1.19735 10.8429 
186 1 6.6016 2.42121 10.4913 
187 1 7.32665 3.69307 10.713 
191 1 1.23626 5.38321 8.69715 
195 1 2.44032 5.63638 9.46002 
196 1 3.69852 5.37096 8.75082 
9 1 7.30957 10.8424 1.19943 
19 1 6.60326 10.4904 2.42301 
20 1 7.32725 10.7146 3.69234 
22 1 6.61161 11.2099 4.86758 
27 1 1.19792 8.76603 5.23494 
35 1 2.4229 9.47435 5.58612 
36 1 3.69206 8.7545 5.36279 
38 1 4.8677 9.46602 4.86572 
44 1 6.56395 16.0946 5.53344 
50 1 5.58736 13.6551 6.60208 
51 1 5.36386 12.3848 7.3261 
53 1 4.86577 11.21 6.61166 
62 1 5.23477 14.8783 7.30968 
76 1 5.53321 16.0942 6.5635 
81 1 5.35993 10.7184 5.36043 
167 1 5.2346 8.76734 1.19892 
171 1 5.58687 9.47406 2.4236 
172 1 5.36348 8.75107 3.69219 
180 1 6.60352 13.6544 5.58694 
181 1 7.32715 12.3853 5.36248 
188 1 7.30964 14.878 5.2352 
194 1 1.1985 10.8426 7.31132 
198 1 2.42168 10.4908 6.60305 
199 1 3.69226 10.7139 7.32777 
17 1 5.3562 10.7183 10.7181 
39 1 6.56397 16.0949 10.5442 
49 1 5.53275 9.51342 16.095 
73 1 5.23398 8.7673 14.878 
82 1 5.53265 16.0948 9.51315 
83 1 5.5853 9.47305 13.6525 
84 1 5.36382 8.75056 12.3845 
86 1 4.86147 9.46083 11.2085 
91 1 7.30978 14.8787 10.8423 
99 1 6.60238 13.6562 10.4905 
100 1 7.32605 12.3862 10.7124 
102 1 6.61156 11.2095 11.209 
113 1 6.56331 10.5441 16.0948 
114 1 2.41997 10.4838 9.47901 
115 1 3.6882 10.7127 8.75162 
117 1 4.86538 11.2104 9.46405 
126 1 1.19851 10.8405 8.76985 
131 1 7.30973 10.8428 14.8785 
135 1 6.60124 10.4902 13.6555 
136 1 7.32651 10.7126 12.3848 
144 1 2.41089 9.46185 10.4925 
145 1 3.68388 8.7495 10.7151 
152 1 1.18995 8.74945 10.8349 
158 1 5.23465 14.8783 8.76689 
162 1 5.58647 13.6557 9.47418 
163 1 5.36353 12.3853 8.74973 
3 1 8.76772 5.2343 1.19901 
13 1 9.47464 5.58688 2.42238 
14 1 8.75027 5.3634 3.69111 
16 1 9.46704 4.86707 4.86763 
24 1 16.0926 5.51147 6.5211 
30 1 13.6521 6.60717 5.57412 
31 1 12.3787 7.33415 5.36129 
33 1 11.2055 6.60784 4.86791 
42 1 14.8769 7.31278 5.23397 
52 1 10.8425 1.19883 7.30951 
60 1 10.4902 2.42273 6.60363 
61 1 10.7121 3.69228 7.32739 
63 1 11.2004 4.86589 6.60838 
87 1 10.7185 5.35845 5.36052 
98 1 16.0955 6.56146 5.52147 
170 1 10.8424 7.30984 1.19945 
174 1 10.4901 6.60297 2.42162 
175 1 10.7126 7.32902 3.69119 
179 1 8.76755 1.19805 5.23481 
183 1 9.47496 2.42177 5.58718 
184 1 8.74993 3.69102 5.36352 
192 1 13.6231 5.584 6.56992 
193 1 12.3763 5.36572 7.33159 
200 1 14.8654 5.29204 7.27054 
6 1 16.0893 5.40196 9.50708 
23 1 10.7198 5.36179 10.7184 
59 1 10.5447 6.56364 16.0948 
67 1 10.8425 7.30838 14.8768 
77 1 10.4914 6.60264 13.6552 
78 1 10.7117 7.32574 12.3836 
80 1 11.2142 6.60897 11.2074 
93 1 16.0963 6.5325 10.4941 
94 1 9.47545 2.42121 10.4911 
95 1 8.75061 3.69324 10.713 
97 1 9.46626 4.86893 11.2081 
106 1 8.76694 1.19755 10.8429 
116 1 14.847 5.37983 8.69651 
123 1 9.5135 5.53258 16.0944 
124 1 13.6365 5.6342 9.45778 
125 1 12.3765 5.36898 8.75361 
127 1 11.2064 4.86762 9.46664 
134 1 8.76696 5.23372 14.8792 
138 1 9.47556 5.58602 13.6556 
139 1 8.75051 5.3638 12.3834 
143 1 14.9225 7.28344 10.7976 
147 1 13.6655 6.60273 10.5066 
148 1 12.3996 7.32434 10.722 
156 1 10.491 2.42226 9.47328 
157 1 10.7101 3.69022 8.74867 
164 1 10.8423 1.19955 8.76823 
201 2 16.0906 4.32974 9.9286 
11 1 10.7171 10.7182 5.36066 
18 1 16.0954 10.5444 6.56391 
29 1 9.51309 16.0945 5.5335 
70 1 10.5438 16.0943 6.56365 
71 1 10.4901 9.47389 2.42379 
72 1 10.7138 8.75102 3.69224 
74 1 11.2093 9.46607 4.8658 
85 1 10.8424 8.76742 1.199 
96 1 8.76747 14.8779 5.23526 
103 1 16.0952 9.51283 5.53258 
104 1 9.47359 13.6545 5.58707 
105 1 8.74995 12.3853 5.36251 
107 1 9.46565 11.2098 4.86764 
111 1 14.8782 10.8424 7.31114 
119 1 13.6553 10.4906 6.6032 
120 1 12.3849 10.714 7.32784 
122 1 11.2113 11.2099 6.61158 
132 1 9.47387 10.4902 2.42301 
133 1 8.74985 10.7146 3.69237 
140 1 8.76754 10.8424 1.19948 
146 1 14.8787 8.76628 5.23495 
150 1 13.6539 9.47444 5.5864 
151 1 12.3848 8.75469 5.36248 
155 1 10.8421 14.8782 7.30971 
159 1 10.4896 13.6549 6.60221 
160 1 10.7133 12.3847 7.32619 
1 1 9.47573 10.4904 13.6556 
2 1 8.75058 10.7126 12.3848 
4 1 9.46543 11.2095 11.209 
12 1 16.0955 10.5424 9.51457 
15 1 8.76727 10.8427 14.8785 
25 1 13.6667 9.46152 10.4924 
26 1 12.3933 8.74934 10.7149 
28 1 11.2154 9.46093 11.2086 
34 1 9.51309 16.0949 10.5442 
37 1 14.887 8.75005 10.8344 
45 1 10.4905 13.6556 9.47402 
46 1 10.7137 12.3852 8.74965 
48 1 11.2117 11.2104 9.46398 
54 1 10.5443 9.51334 16.0949 
57 1 10.8423 14.8782 8.76689 
69 1 10.7209 10.718 10.7179 
88 1 10.5444 16.0948 9.51304 
108 1 16.0954 9.50513 10.5438 
128 1 9.51369 10.5441 16.0947 
165 1 10.4918 9.47299 13.6525 
166 1 10.7132 8.75026 12.3842 
173 1 10.8429 8.76722 14.878 
177 1 9.47469 13.6562 10.4904 
178 1 8.75111 12.3861 10.7124 
185 1 8.76728 14.8786 10.8423 
189 1 13.6569 10.4836 9.4791 
190 1 12.3886 10.7128 8.7515 
197 1 14.8787 10.8404 8.76959 
ITEM: TIMESTEP
30
ITEM: NUMBER OF ATOMS
201
ITEM: BOX BOUNDS pp pp pp
0.0000000000000000e+00 1.6114000000000001e+01
0.0000000000000000e+00 1.6113000000000000e+01
0.0000000000000000e+00 1.6111999999999998e+01
ITEM: ATOMS id type x y z 
5 1 5.35879 5.35836 5.36002 
65 1 5.5868 6.60304 2.42181 
66 1 5.36416 7.32819 3.69131 
68 1 4.87051 6.60931 4.86741 
79 1 5.23432 7.30972 1.19909 
89 1 6.60217 2.4217 5.58713 
90 1 7.3271 3.69125 5.36315 
92 1 6.6109 4.86667 4.8671 
101 1 7.30955 1.19797 5.23467 
109 1 2.4586 5.58491 6.56808 
110 1 3.70035 5.36507 7.3276 
112 1 4.87391 4.86682 6.61006 
121 1 1.21182 5.29214 7.26895 
129 1 6.60252 5.58681 2.42221 
130 1 7.32694 5.36304 3.69136 
137 1 7.30944 5.23415 1.1988 
141 1 2.42535 6.60774 5.57421 
142 1 3.69723 7.33241 5.36106 
149 1 1.20006 7.31149 5.23427 
153 1 5.58679 2.4223 6.60357 
154 1 5.36505 3.69192 7.32789 
161 1 5.23432 1.19866 7.30955 
7 1 6.60186 5.58583 13.6554 
8 1 7.32681 5.36378 12.3842 
10 1 6.61136 4.86865 11.2085 
21 1 7.3099 5.23357 14.879 
32 1 1.15578 7.28572 10.7988 
40 1 2.41117 6.60283 10.5084 
41 1 3.67911 7.32473 10.723 
43 1 4.8623 6.61013 11.2081 
47 1 5.23452 1.19903 8.76807 
55 1 5.58621 2.42233 9.4735 
56 1 5.3674 3.68961 8.74861 
58 1 4.87363 4.86558 9.46777 
64 1 5.53229 6.56344 16.0946 
75 1 5.3574 5.36224 10.7189 
118 1 6.56331 5.53256 16.0944 
168 1 5.5858 6.60247 13.6549 
169 1 5.36505 7.32527 12.3833 
176 1 5.23428 7.30876 14.8772 
182 1 7.30984 1.19767 10.843 
186 1 6.60197 2.42141 10.4913 
187 1 7.32656 3.69252 10.7131 
191 1 1.2352 5.38295 8.69589 
195 1 2.43732 5.63549 9.45815 
196 1 3.70086 5.36993 8.75039 
9 1 7.30956 10.8425 1.19934 
19 1 6.60324 10.4903 2.42294 
20 1 7.32729 10.7148 3.69218 
22 1 6.61126 11.2098 4.86767 
27 1 1.19789 8.76614 5.2349 
35 1 2.42222 9.47464 5.58636 
36 1 3.69199 8.75379 5.36271 
38 1 4.86809 9.46697 4.86608 
44 1 6.56387 16.0946 5.53334 
50 1 5.58738 13.6551 6.60223 
51 1 5.36374 12.3852 7.32621 
53 1 4.86597 11.21 6.61127 
62 1 5.23467 14.8783 7.30953 
76 1 5.53305 16.0944 6.56354 
81 1 5.3601 10.7181 5.36041 
167 1 5.23452 8.76745 1.19903 
171 1 5.58703 9.47422 2.42303 
172 1 5.36343 8.75062 3.69201 
180 1 6.6035 13.6545 5.58702 
181 1 7.32725 12.3854 5.36228 
188 1 7.30972 14.878 5.23507 
194 1 1.19838 10.8427 7.31106 
198 1 2.42162 10.4907 6.60309 
199 1 3.69178 10.7139 7.32796 
17 1 5.35628 10.7178 10.7181 
39 1 6.56369 16.0948 10.5441 
49 1 5.5326 9.51341 16.0948 
73 1 5.23393 8.7673 14.8781 
82 1 5.53264 16.0949 9.51326 
83 1 5.58545 9.47331 13.6532 
84 1 5.36366 8.74981 12.3843 
86 1 4.86179 9.46168 11.2082 
91 1 7.30977 14.8788 10.8425 
99 1 6.60235 13.6562 10.4904 
100 1 7.32617 12.3863 10.7126 
102 1 6.61124 11.2094 11.2089 
113 1 6.56328 10.5442 16.0948 
114 1 2.42012 10.4838 9.47875 
115 1 3.68774 10.7128 8.75175 
117 1 4.86534 11.2102 9.46436 
126 1 1.19847 10.8405 8.77005 
131 1 7.30955 10.8428 14.8785 
135 1 6.60145 10.4902 13.6555 
136 1 7.32644 10.7127 12.3852 
144 1 2.41006 9.4621 10.4924 
145 1 3.68406 8.74874 10.7153 
152 1 1.18992 8.74913 10.8349 
158 1 5.23452 14.8784 8.76702 
162 1 5.58654 13.6556 9.47412 
163 1 5.36339 12.3856 8.74962 
3 1 8.76763 5.2342 1.19894 
13 1 9.47455 5.5869 2.42232 
14 1 8.75036 5.36302 3.69138 
16 1 9.46665 4.86682 4.86732 
24 1 16.0936 5.51199 6.52021 
30 1 13.6513 6.60777 5.57383 
31 1 12.3788 7.33313 5.36077 
33 1 11.2061 6.60891 4.86744 
42 1 14.8774 7.31235 5.23392 
52 1 10.8426 1.19869 7.30951 
60 1 10.4902 2.42236 6.60359 
61 1 10.7122 3.69204 7.3278 
63 1 11.202 4.86652 6.6093 
87 1 10.718 5.3587 5.36026 
98 1 16.0955 6.5618 5.52103 
170 1 10.8426 7.30982 1.19923 
174 1 10.4901 6.60321 2.42208 
175 1 10.7131 7.32832 3.69142 
179 1 8.76754 1.19808 5.23471 
183 1 9.4748 2.42174 5.58719 
184 1 8.75012 3.69115 5.36318 
192 1 13.6211 5.58418 6.57022 
193 1 12.3763 5.3651 7.33014 
200 1 14.8654 5.29168 7.27114 
6 1 16.0922 5.39897 9.5051 
23 1 10.7196 5.3618 10.718 
59 1 10.5447 6.56352 16.0948 
67 1 10.8427 7.30869 14.8773 
77 1 10.4912 6.60256 13.6547 
78 1 10.7122 7.32532 12.3833 
80 1 11.2146 6.60979 11.208 
93 1 16.0961 6.53168 10.4944 
94 1 9.47511 2.42144 10.4911 
95 1 8.75068 3.69269 10.7132 
97 1 9.46624 4.8688 11.2082 
106 1 8.76727 1.19779 10.843 
116 1 14.8465 5.37954 8.69662 
123 1 9.51375 5.53261 16.0945 
124 1 13.6386 5.6346 9.45803 
125 1 12.3758 5.36895 8.75214 
127 1 11.2053 4.86672 9.46696 
134 1 8.76724 5.23362 14.8789 
138 1 9.47518 5.58598 13.6554 
139 1 8.75058 5.36368 12.384 
143 1 14.9203 7.28503 10.7981 
147 1 13.6654 6.60328 10.5066 
148 1 12.3995 7.3239 10.7225 
156 1 10.4907 2.42245 9.47348 
157 1 10.7105 3.69069 8.74896 
164 1 10.8424 1.19912 8.76799 
201 2 16.0909 4.33047 9.93002 
11 1 10.7169 10.7179 5.36064 
18 1 16.0954 10.5444 6.56383 
29 1 9.51317 16.0945 5.5334 
70 1 10.544 16.0945 6.56367 
71 1 10.49 9.47406 2.4232 
72 1 10.7139 8.75053 3.69206 
74 1 11.2088 9.4671 4.86611 
85 1 10.8424 8.76752 1.19909 
96 1 8.76738 14.878 5.23513 
103 1 16.0953 9.51301 5.53264 
104 1 9.47359 13.6545 5.58714 
105 1 8.74988 12.3854 5.36229 
107 1 9.46596 11.2097 4.86771 
111 1 14.8784 10.8424 7.31092 
119 1 13.6553 10.4904 6.6032 
120 1 12.3853 10.7141 7.32803 
122 1 11.2111 11.2099 6.61121 
132 1 9.47387 10.4901 2.42295 
133 1 8.74985 10.7148 3.69223 
140 1 8.76756 10.8425 1.19938 
146 1 14.8787 8.76649 5.23489 
150 1 13.6546 9.4748 5.58666 
151 1 12.3849 8.75403 5.36245 
155 1 10.8423 14.8782 7.30955 
159 1 10.4896 13.6549 6.60236 
160 1 10.7135 12.3851 7.32627 
1 1 9.47557 10.4903 13.6555 
2 1 8.75063 10.7127 12.3852 
4 1 9.4658 11.2095 11.2089 
12 1 16.0955 10.5426 9.51453 
15 1 8.76742 10.8428 14.8785 
25 1 13.6672 9.46178 10.4923 
26 1 12.3931 8.74866 10.7152 
28 1 11.2153 9.46167 11.2082 
34 1 9.51337 16.0948 10.5441 
37 1 14.8871 8.74934 10.8345 
45 1 10.4905 13.6555 9.47397 
46 1 10.7138 12.3856 8.74953 
48 1 11.2118 11.2102 9.46432 
54 1 10.5444 9.51335 16.0947 
57 1 10.8424 14.8784 8.767 
69 1 10.7208 10.7176 10.7179 
88 1 10.5444 16.0948 9.51318 
108 1 16.0954 9.50522 10.5439 
128 1 9.51373 10.5442 16.0948 
165 1 10.4916 9.47325 13.6532 
166 1 10.7134 8.74962 12.3841 
173 1 10.843 8.76721 14.8781 
177 1 9.47474 13.6562 10.4903 
178 1 8.75096 12.3863 10.7126 
185 1 8.76729 14.8787 10.8424 
189 1 13.6568 10.4836 9.47874 
190 1 12.3892 10.7129 8.75165 
197 1 14.8786 10.8404 8.76986 
ITEM: TIMESTEP
31
ITEM: NUMBER OF ATOMS
201
ITEM: BOX BOUNDS pp pp pp
0.0000000000000000e+00 1.6114000000000001e+01
0.0000000000000000e+00 1.6113000000000000e+01
0.0000000000000000e+00 1.6111999999999998e+01
ITEM: ATOMS id type x y z 
5 1 5.35879 5.35836 5.36002 
65 1 5.5868 6.60304 2.42181 
66 1 5.36416 7.32819 3.69131 
68 1 4.87051 6.60931 4.86741 
79 1 5.23432 7.30972 1.19909 
89 1 6.60217 2.4217 5.58713 
90 1 7.3271 3.69125 5.36315 
92 1 6.6109 4.86667 4.8671 
101 1 7.30955 1.19797 5.23467 
109 1 2.4586 5.58491 6.56808 
110 1 3.70035 5.36507 7.3276 
112 1 4.87391 4.86682 6.61006 
121 1 1.21182 5.29214 7.26895 
129 1 6.60252 5.58681 2.42221 
130 1 7.32694 5.36304 3.69136 
137 1 7.30944 5.23415 1.1988 
141 1 2.42535 6.60774 5.57421 
142 1 3.69723 7.33241 5.36106 
149 1 1.20006 7.31149 5.23427 
153 1 5.58679 2.4223 6.60357 
154 1 5.36505 3.69192 7.32789 
161 1 5.23432 1.19866 7.30955 
7 1 6.60186 5.58583 13.6554 
8 1 7.32681 5.36378 12.3842 
10 1 6.61136 4.86865 11.2085 
21 1 7.3099 5.23357 14.879 
32 1 1.15578 7.28572 10.7988 
40 1 2.41117 6.60283 10.5084 
41 1 3.67911 7.32473 10.723 
43 1 4.8623 6.61013 11.2081 
47 1 5.23452 1.19903 8.76807 
55 1 5.58621 2.42233 9.4735 
56 1 5.3674 3.68961 8.74861 
58 1 4.87363 4.86558 9.46777 
64 1 5.53229 6.56344 16.0946 
75 1 5.3574 5.36224 10.7189 
118 1 6.56331 5.53256 16.0944 
168 1 5.5858 6.60247 13.6549 
169 1 5.36505 7.32527 12.3833 
176 1 5.23428 7.30876 14.8772 
182 1 7.30984 1.19767 10.843 
186 1 6.60197 2.42141 10.4913 
187 1 7.32656 3.69252 10.7131 
191 1 1.2352 5.38295 8.69589 
195 1 2.43732 5.63549 9.45815 
196 1 3.70086 5.36993 8.75039 
9 1 7.30956 10.8425 1.19934 
19 1 6.60324 10.4903 2.42294 
20 1 7.32729 10.7148 3.69218 
22 1 6.61126 11.2098 4.86767 
27 1 1.19789 8.76614 5.2349 
35 1 2.42222 9.47464 5.58636 
36 1 3.69199 8.75379 5.36271 
38 1 4.86809 9.46697 4.86608 
44 1 6.56387 16.0946 5.53334 
50 1 5.58738 13.6551 6.60223 
51 1 5.36374 12.3852 7.32621 
53 1 4.86597 11.21 6.61127 
62 1 5.23467 14.8783 7.30953 
76 1 5.53305 16.0944 6.56354 
81 1 5.3601 10.7181 5.36041 
167 1 5.23452 8.76745 1.19903 
171 1 5.58703 9.47422 2.42303 
172 1 5.36343 8.75062 3.69201 
180 1 6.6035 13.6545 5.58702 
181 1 7.32725 12.3854 5.36228 
188 1 7.30972 14.878 5.23507 
194 1 1.19838 10.8427 7.31106 
198 1 2.42162 10.4907 6.60309 
199 1 3.69178 10.7139 7.32796 
17 1 5.35628 10.7178 10.7181 
39 1 6.56369 16.0948 10.5441 
49 1 5.5326 9.51341 16.0948 
73 1 5.23393 8.7673 14.8781 
82 1 5.53264 16.0949 9.51327 
83 1 5.58545 9.47331 13.6532 
84 1 5.36366 8.74981 12.3843 
86 1 4.86179 9.46168 11.2082 
91 1 7.30977 14.8788 10.8425 
99 1 6.60235 13.6562 10.4904 
100 1 7.32617 12.3863 10.7126 
102 1 6.61124 11.2094 11.2089 
113 1 6.56328 10.5442 16.0948 
114 1 2.42012 10.4838 9.47875 
115 1 3.68774 10.7128 8.75175 
117 1 4.86534 11.2102 9.46436 
126 1 1.19847 10.8405 8.77005 
131 1 7.30955 10.8428 14.8785 
135 1 6.60145 10.4902 13.6555 
136 1 7.32644 10.7127 12.3852 
144 1 2.41006 9.4621 10.4924 
145 1 3.68406 8.74874 10.7153 
152 1 1.18992 8.74913 10.8349 
158 1 5.23452 14.8784 8.76702 
162 1 5.58654 13.6556 9.47412 
163 1 5.36339 12.3856 8.74962 
3 1 8.76763 5.2342 1.19894 
13 1 9.47455 5.5869 2.42232 
14 1 8.75036 5.36302 3.69138 
16 1 9.46665 4.86682 4.86732 
24 1 16.0936 5.51199 6.52021 
30 1 13.6513 6.60777 5.57383 
31 1 12.3788 7.33313 5.36077 
33 1 11.2061 6.60891 4.86744 
42 1 14.8774 7.31235 5.23392 
52 1 10.8426 1.19869 7.30951 
60 1 10.4902 2.42236 6.60359 
61 1 10.7122 3.69204 7.3278 
63 1 11.202 4.86652 6.6093 
87 1 10.718 5.3587 5.36026 
98 1 16.0955 6.5618 5.52103 
170 1 10.8426 7.30982 1.19923 
174 1 10.4901 6.60321 2.42208 
175 1 10.7131 7.32832 3.69142 
179 1 8.76754 1.19808 5.23471 
183 1 9.4748 2.42174 5.58719 
184 1 8.75012 3.69115 5.36318 
192 1 13.6211 5.58418 6.57022 
193 1 12.3763 5.3651 7.33014 
200 1 14.8654 5.29168 7.27114 
6 1 16.0922 5.39897 9.5051 
23 1 10.7196 5.3618 10.718 
59 1 10.5447 6.56352 16.0948 
67 1 10.8427 7.30869 14.8773 
77 1 10.4912 6.60256 13.6547 
78 1 10.7122 7.32532 12.3833 
80 1 11.2146 6.60979 11.208 
93 1 16.0961 6.53168 10.4944 
94 1 9.47511 2.42144 10.4911 
95 1 8.75068 3.69269 10.7132 
97 1 9.46624 4.8688 11.2082 
106 1 8.76727 1.19779 10.843 
116 1 14.8465 5.37954 8.69662 
123 1 9.51375 5.53261 16.0945 
124 1 13.6386 5.6346 9.45803 
125 1 12.3758 5.36895 8.75214 
127 1 11.2053 4.86672 9.46696 
134 1 8.76724 5.23362 14.8789 
138 1 9.47518 5.58598 13.6554 
139 1 8.75058 5.36368 12.384 
143 1 14.9203 7.28503 10.7981 
147 1 13.6654 6.60328 10.5066 
148 1 12.3995 7.3239 10.7225 
156 1 10.4907 2.42245 9.47348 
157 1 10.7105 3.69069 8.74896 
164 1 10.8424 1.19912 8.76799 
201 2 16.0909 4.33047 9.93002 
11 1 10.7169 10.7179 5.36064 
18 1 16.0954 10.5444 6.56383 
29 1 9.51317 16.0945 5.5334 
70 1 10.544 16.0945 6.56367 
71 1 10.49 9.47406 2.4232 
72 1 10.7139 8.75053 3.69206 
74 1 11.2088 9.4671 4.86611 
85 1 10.8424 8.76752 1.19909 
96 1 8.76738 14.878 5.23513 
103 1 16.0953 9.51301 5.53264 
104 1 9.47359 13.6545 5.58714 
105 1 8.74988 12.3854 5.36229 
107 1 9.46596 11.2097 4.86771 
111 1 14.8784 10.8424 7.31092 
119 1 13.6553 10.4904 6.6032 
120 1 12.3853 10.7141 7.32803 
122 1 11.2111 11.2099 6.61121 
132 1 9.47387 10.4901 2.42295 
133 1 8.74985 10.7148 3.69223 
140 1 8.76756 10.8425 1.19938 
146 1 14.8787 8.76649 5.23489 
150 1 13.6546 9.4748 5.58666 
151 1 12.3849 8.75403 5.36245 
155 1 10.8423 14.8782 7.30955 
159 1 10.4896 13.6549 6.60236 
160 1 10.7135 12.3851 7.32627 
1 1 9.47557 10.4903 13.6555 
2 1 8.75063 10.7127 12.3852 
4 1 9.4658 11.2095 11.2089 
12 1 16.0955 10.5426 9.51453 
15 1 8.76742 10.8428 14.8785 
25 1 13.6672 9.46178 10.4923 
26 1 12.3931 8.74866 10.7152 
28 1 11.2153 9.46167 11.2082 
34 1 9.51337 16.0948 10.5441 
37 1 14.8871 8.74934 10.8345 
45 1 10.4905 13.6555 9.47397 