
     Program PWSCF v.7.1 starts on 25May2025 at  0:11: 5 

     This program is part of the open-source Quantum ESPRESSO suite
     for quantum simulation of materials; please cite
         "P. Giannozzi et al., J. Phys.:Condens. Matter 21 395502 (2009);
         "P. Giannozzi et al., J. Phys.:Condens. Matter 29 465901 (2017);
         "P. Giannozzi et al., J. Chem. Phys. 152 154105 (2020);
          URL http://www.quantum-espresso.org", 
     in publications or presentations arising from this work. More details at
     http://www.quantum-espresso.org/quote

     Parallel version (MPI), running on    16 processors

     MPI processes distributed on     1 nodes
     245456 MiB available memory on the printing compute node when the environment starts

     Reading input from input.pwi
Warning: card &CELL ignored
Warning: card / ignored
Warning: card &FCP ignored
Warning: card / ignored
Warning: card &RISM ignored
Warning: card / ignored

     Current dimensions of program PWSCF are:
     Max number of different atomic species (ntypx) = 10
     Max number of k-points (npk) =  40000
     Max angular momentum in pseudopotentials (lmaxx) =  4
     file C.pbe-n-kjpaw_psl.1.0.0.UPF: wavefunction(s)  2S 2P renormalized
     file O.pbe-n-kjpaw_psl.0.1.UPF: wavefunction(s)  2P renormalized

     IMPORTANT: XC functional enforced from input :
     Exchange-correlation= PBE
                           (   1   4   3   4   0   0   0)
     Any further DFT definition will be discarded
     Please, verify this is what you really want


     gamma-point specific algorithms are used
     Message from routine  set_nelup_neldw :
     BEWARE: non-integer number of up and down electrons!

     R & G space division:  proc/nbgrp/npool/nimage =      16
     Subspace diagonalization in iterative solution of the eigenvalue problem:
     a serial algorithm will be used


     Parallelization info
     --------------------
     sticks:   dense  smooth     PW     G-vecs:    dense   smooth      PW
     Min         858     428    106                75870    26832    3354
     Max         860     430    108                75880    26846    3360
     Sum       13753    6869   1725              1214029   429409   53715

     Using Slab Decomposition



     bravais-lattice index     =            0
     lattice parameter (alat)  =      20.7870  a.u.
     unit-cell volume          =    8983.6663 (a.u.)^3
     number of atoms/cell      =           51
     number of atomic types    =            3
     number of electrons       =       205.00 (up: 102.50, down: 102.50)
     number of Kohn-Sham states=          123
     kinetic-energy cutoff     =      50.0000  Ry
     charge density cutoff     =     400.0000  Ry
     scf convergence threshold =      1.0E-06
     mixing beta               =       0.3000
     number of iterations used =            8  plain     mixing
     energy convergence thresh.=      1.0E-04
     force convergence thresh. =      1.0E-03
     Exchange-correlation= PBE
                           (   1   4   3   4   0   0   0)
     nstep                     =         1000


     celldm(1)=  20.786987  celldm(2)=   0.000000  celldm(3)=   0.000000
     celldm(4)=   0.000000  celldm(5)=   0.000000  celldm(6)=   0.000000

     crystal axes: (cart. coord. in units of alat)
               a(1) = (   1.000000   0.000000   0.000000 )  
               a(2) = (   0.000000   1.000182   0.000000 )  
               a(3) = (   0.000000   0.000000   1.000000 )  

     reciprocal axes: (cart. coord. in units 2 pi/alat)
               b(1) = (  1.000000  0.000000  0.000000 )  
               b(2) = (  0.000000  0.999818  0.000000 )  
               b(3) = (  0.000000  0.000000  1.000000 )  


     PseudoPot. # 1 for C  read from file:
     /home/ana.bisette/espresso/pseudo/C.pbe-n-kjpaw_psl.1.0.0.UPF
     MD5 check sum: 5d2aebdfa2cae82b50a7e79e9516da0f
     Pseudo is Projector augmented-wave + core cor, Zval =  4.0
     Generated using "atomic" code by A. Dal Corso  v.5.1
     Shape of augmentation charge: PSQ
     Using radial grid of 1073 points,  4 beta functions with: 
                l(1) =   0
                l(2) =   0
                l(3) =   1
                l(4) =   1
     Q(r) pseudized with 0 coefficients 


     PseudoPot. # 2 for O  read from file:
     /home/ana.bisette/espresso/pseudo/O.pbe-n-kjpaw_psl.0.1.UPF
     MD5 check sum: 0234752ac141de4415c5fc33072bef88
     Pseudo is Projector augmented-wave + core cor, Zval =  6.0
     Generated using "atomic" code by A. Dal Corso  v.5.0.99 svn rev. 10869
     Shape of augmentation charge: BESSEL
     Using radial grid of 1095 points,  4 beta functions with: 
                l(1) =   0
                l(2) =   0
                l(3) =   1
                l(4) =   1
     Q(r) pseudized with 0 coefficients 


     PseudoPot. # 3 for H  read from file:
     /home/ana.bisette/espresso/pseudo/H.pbe-rrkjus_psl.1.0.0.UPF
     MD5 check sum: f52b6d4d1c606e5624b1dc7b2218f220
     Pseudo is Ultrasoft, Zval =  1.0
     Generated using "atomic" code by A. Dal Corso  v.5.1
     Using radial grid of  929 points,  2 beta functions with: 
                l(1) =   0
                l(2) =   0
     Q(r) pseudized with 0 coefficients 


     atomic species   valence    mass     pseudopotential
        C              4.00    12.01100     C ( 1.00)
        O              6.00    15.99900     O ( 1.00)
        H              1.00     1.00800     H ( 1.00)

     Starting magnetic structure 
     atomic species   magnetization
        C            0.000
        O            0.000
        H            0.000

     No symmetry found



   Cartesian axes

     site n.     atom                  positions (alat units)
         1           C   tau(   1) = (   0.5607273   0.4189091   0.5608182  )
         2           C   tau(   2) = (   0.6985455   0.2805455   0.6985455  )
         3           C   tau(   3) = (   0.6340000   0.3453636   0.6340000  )
         4           C   tau(   4) = (   0.4189091   0.5608182   0.5608182  )
         5           C   tau(   5) = (   0.2805455   0.6985455   0.6985455  )
         6           C   tau(   6) = (   0.3453636   0.6340000   0.6340000  )
         7           C   tau(   7) = (   0.5608182   0.5608182   0.4189091  )
         8           C   tau(   8) = (   0.6985455   0.6985455   0.2805455  )
         9           C   tau(   9) = (   0.6340000   0.6340000   0.3453636  )
        10           C   tau(  10) = (   0.4184545   0.4184545   0.4184545  )
        11           C   tau(  11) = (   0.2804545   0.2804545   0.2804545  )
        12           C   tau(  12) = (   0.3450909   0.3450909   0.3450909  )
        13           C   tau(  13) = (   0.5659091   0.4132727   0.4132727  )
        14           C   tau(  14) = (   0.7058182   0.2739091   0.2739091  )
        15           C   tau(  15) = (   0.6411818   0.3382727   0.3383636  )
        16           C   tau(  16) = (   0.4132727   0.5659091   0.4132727  )
        17           C   tau(  17) = (   0.2739091   0.7059091   0.2739091  )
        18           C   tau(  18) = (   0.3382727   0.6411818   0.3383636  )
        19           C   tau(  19) = (   0.4132727   0.4131818   0.5660000  )
        20           C   tau(  20) = (   0.2739091   0.2739091   0.7058182  )
        21           C   tau(  21) = (   0.3382727   0.3382727   0.6411818  )
        22           C   tau(  22) = (   0.5662727   0.5662727   0.5662727  )
        23           C   tau(  23) = (   0.7058182   0.7059091   0.7059091  )
        24           C   tau(  24) = (   0.6413636   0.6414545   0.6413636  )
        25           C   tau(  25) = (   0.0607273   0.9184545   0.0607273  )
        26           C   tau(  26) = (   0.1989091   0.7808182   0.1989091  )
        27           C   tau(  27) = (   0.1341818   0.8452727   0.1341818  )
        28           C   tau(  28) = (   0.9183636   0.0606364   0.0607273  )
        29           C   tau(  29) = (   0.7808182   0.1988182   0.1989091  )
        30           C   tau(  30) = (   0.8452727   0.1340909   0.1341818  )
        31           C   tau(  31) = (   0.0607273   0.0606364   0.9184545  )
        32           C   tau(  32) = (   0.1988182   0.1988182   0.7808182  )
        33           C   tau(  33) = (   0.1341818   0.1340909   0.8452727  )
        34           C   tau(  34) = (   0.9189091   0.9189091   0.9188182  )
        35           C   tau(  35) = (   0.7809091   0.7809091   0.7809091  )
        36           C   tau(  36) = (   0.8455455   0.8455455   0.8454545  )
        37           C   tau(  37) = (   0.0662727   0.9132727   0.9132727  )
        38           C   tau(  38) = (   0.2053636   0.7735455   0.7734545  )
        39           C   tau(  39) = (   0.1410909   0.8380909   0.8380909  )
        40           C   tau(  40) = (   0.9131818   0.0661818   0.9132727  )
        41           C   tau(  41) = (   0.7734545   0.2053636   0.7734545  )
        42           C   tau(  42) = (   0.8380000   0.1410000   0.8380000  )
        43           C   tau(  43) = (   0.9132727   0.9133636   0.0662727  )
        44           C   tau(  44) = (   0.7734545   0.7735455   0.2053636  )
        45           C   tau(  45) = (   0.8380909   0.8380909   0.1410909  )
        46           C   tau(  46) = (   0.0660000   0.0659091   0.0659091  )
        47           C   tau(  47) = (   0.2054545   0.2053636   0.2054545  )
        48           C   tau(  48) = (   0.1410000   0.1409091   0.1409091  )
        49           O   tau(  49) = (   0.5319091   0.5522727   0.6832727  )
        50           O   tau(  50) = (   0.5950000   0.5400000   0.8024545  )
        51           H   tau(  51) = (   0.5301818   0.4965455   0.8486364  )

     number of k points=     1  Gaussian smearing, width (Ry)=  0.0001
                       cart. coord. in units 2pi/alat
        k(    1) = (   0.0000000   0.0000000   0.0000000), wk =   1.0000000

     Dense  grid:   607015 G-vectors     FFT dimensions: ( 135, 135, 135)

     Smooth grid:   214705 G-vectors     FFT dimensions: (  96,  96,  96)

     Estimated max dynamical RAM per process >     175.85 MB

     Estimated total dynamical RAM >       2.75 GB

     Check: negative core charge=   -0.000004
     Generating pointlists ...
     new r_m :   0.0461 (alat units)  0.9573 (a.u.) for type    1
     new r_m :   0.0374 (alat units)  0.7775 (a.u.) for type    2
     new r_m :   0.0374 (alat units)  0.7775 (a.u.) for type    3

     Initial potential from superposition of free atoms

     starting charge     204.9980, renormalised to     205.0000
     Starting wfcs are  201 randomized atomic wfcs
     Checking if some PAW data can be deallocated... 

     total cpu time spent up to now is        3.2 secs

     Self-consistent Calculation

     iteration #  1     ecut=    50.00 Ry     beta= 0.30
     Davidson diagonalization with overlap
     ethr =  1.00E-02,  avg # of iterations =  2.0

     total cpu time spent up to now is        5.8 secs

     total energy              =    -965.85006967 Ry
     estimated scf accuracy    <       5.43891651 Ry

     total magnetization       =     0.00 Bohr mag/cell
     absolute magnetization    =     0.07 Bohr mag/cell

     iteration #  2     ecut=    50.00 Ry     beta= 0.30
     Davidson diagonalization with overlap
     ethr =  2.65E-03,  avg # of iterations =  1.0

     negative rho (up, down):  6.329E-07 6.282E-07

     total cpu time spent up to now is        7.8 secs

     total energy              =    -964.96094535 Ry
     estimated scf accuracy    <       1.85949966 Ry

     total magnetization       =    -0.00 Bohr mag/cell
     absolute magnetization    =     0.05 Bohr mag/cell

     iteration #  3     ecut=    50.00 Ry     beta= 0.30
     Davidson diagonalization with overlap
     ethr =  9.07E-04,  avg # of iterations =  2.0

     negative rho (up, down):  7.893E-07 7.833E-07

     total cpu time spent up to now is       10.2 secs

     total energy              =    -965.29059216 Ry
     estimated scf accuracy    <       0.47953003 Ry

     total magnetization       =     0.00 Bohr mag/cell
     absolute magnetization    =     0.03 Bohr mag/cell

     iteration #  4     ecut=    50.00 Ry     beta= 0.30
     Davidson diagonalization with overlap
     ethr =  2.34E-04,  avg # of iterations =  2.0

     negative rho (up, down):  5.659E-07 5.620E-07

     total cpu time spent up to now is       12.4 secs

     total energy              =    -965.32259405 Ry
     estimated scf accuracy    <       0.13842679 Ry

     total magnetization       =    -0.00 Bohr mag/cell
     absolute magnetization    =     0.02 Bohr mag/cell

     iteration #  5     ecut=    50.00 Ry     beta= 0.30
     Davidson diagonalization with overlap
     ethr =  6.75E-05,  avg # of iterations = 11.0

     negative rho (up, down):  6.464E-07 6.448E-07

     total cpu time spent up to now is       14.9 secs

     total energy              =    -965.31784482 Ry
     estimated scf accuracy    <       0.04250293 Ry

     total magnetization       =     0.00 Bohr mag/cell
     absolute magnetization    =     0.02 Bohr mag/cell

     iteration #  6     ecut=    50.00 Ry     beta= 0.30
     Davidson diagonalization with overlap
     ethr =  2.07E-05,  avg # of iterations =  3.0

     negative rho (up, down):  8.338E-07 8.330E-07

     total cpu time spent up to now is       17.5 secs

     total energy              =    -965.32027092 Ry
     estimated scf accuracy    <       0.06124948 Ry

     total magnetization       =     0.00 Bohr mag/cell
     absolute magnetization    =     0.02 Bohr mag/cell

     iteration #  7     ecut=    50.00 Ry     beta= 0.30
     Davidson diagonalization with overlap
     ethr =  2.07E-05,  avg # of iterations =  2.0

     negative rho (up, down):  1.153E-06 1.153E-06

     total cpu time spent up to now is       19.6 secs

     total energy              =    -965.32454111 Ry
     estimated scf accuracy    <       0.00870971 Ry

     total magnetization       =    -0.00 Bohr mag/cell
     absolute magnetization    =     0.01 Bohr mag/cell

     iteration #  8     ecut=    50.00 Ry     beta= 0.30
     Davidson diagonalization with overlap
     ethr =  4.25E-06,  avg # of iterations =  2.0

     negative rho (up, down):  1.385E-06 1.385E-06

     total cpu time spent up to now is       21.8 secs

     total energy              =    -965.32512303 Ry
     estimated scf accuracy    <       0.00140367 Ry

     total magnetization       =    -0.00 Bohr mag/cell
     absolute magnetization    =     0.01 Bohr mag/cell

     iteration #  9     ecut=    50.00 Ry     beta= 0.30
     Davidson diagonalization with overlap
     ethr =  6.85E-07,  avg # of iterations =  3.0

     negative rho (up, down):  1.370E-06 1.370E-06

     total cpu time spent up to now is       24.3 secs

     total energy              =    -965.32529326 Ry
     estimated scf accuracy    <       0.00184920 Ry

     total magnetization       =    -0.00 Bohr mag/cell
     absolute magnetization    =     0.01 Bohr mag/cell

     iteration # 10     ecut=    50.00 Ry     beta= 0.30
     Davidson diagonalization with overlap
     ethr =  6.85E-07,  avg # of iterations =  1.0

     negative rho (up, down):  1.358E-06 1.358E-06

     total cpu time spent up to now is       26.3 secs

     total energy              =    -965.32538164 Ry
     estimated scf accuracy    <       0.00010042 Ry

     total magnetization       =     0.00 Bohr mag/cell
     absolute magnetization    =     0.01 Bohr mag/cell

     iteration # 11     ecut=    50.00 Ry     beta= 0.30
     Davidson diagonalization with overlap
     ethr =  4.90E-08,  avg # of iterations =  2.0

     negative rho (up, down):  1.369E-06 1.369E-06

     total cpu time spent up to now is       28.6 secs

     total energy              =    -965.32539698 Ry
     estimated scf accuracy    <       0.00001503 Ry

     total magnetization       =    -0.00 Bohr mag/cell
     absolute magnetization    =     0.01 Bohr mag/cell

     iteration # 12     ecut=    50.00 Ry     beta= 0.30
     Davidson diagonalization with overlap
     ethr =  7.33E-09,  avg # of iterations =  4.0

     negative rho (up, down):  1.372E-06 1.372E-06

     total cpu time spent up to now is       30.9 secs

     total energy              =    -965.32539858 Ry
     estimated scf accuracy    <       0.00000330 Ry

     total magnetization       =    -0.00 Bohr mag/cell
     absolute magnetization    =     0.00 Bohr mag/cell

     iteration # 13     ecut=    50.00 Ry     beta= 0.30
     Davidson diagonalization with overlap
     ethr =  1.61E-09,  avg # of iterations =  4.0

     negative rho (up, down):  1.373E-06 1.373E-06

     Magnetic moment per site  (integrated on atomic sphere of radius R)
     atom   1 (R=0.046)  charge=  1.1361  magn= -0.0000
     atom   2 (R=0.046)  charge=  1.1717  magn= -0.0001
     atom   3 (R=0.046)  charge=  1.1952  magn=  0.0001
     atom   4 (R=0.046)  charge=  1.1330  magn=  0.0000
     atom   5 (R=0.046)  charge=  1.1715  magn=  0.0001
     atom   6 (R=0.046)  charge=  1.1967  magn= -0.0001
     atom   7 (R=0.046)  charge=  1.1343  magn=  0.0000
     atom   8 (R=0.046)  charge=  1.1712  magn=  0.0000
     atom   9 (R=0.046)  charge=  1.1943  magn=  0.0000
     atom  10 (R=0.046)  charge=  1.1264  magn=  0.0000
     atom  11 (R=0.046)  charge=  1.1718  magn=  0.0000
     atom  12 (R=0.046)  charge=  1.1946  magn= -0.0000
     atom  13 (R=0.046)  charge=  1.1193  magn=  0.0000
     atom  14 (R=0.046)  charge=  1.1728  magn= -0.0001
     atom  15 (R=0.046)  charge=  1.1836  magn=  0.0001
     atom  16 (R=0.046)  charge=  1.1195  magn= -0.0000
     atom  17 (R=0.046)  charge=  1.1721  magn= -0.0001
     atom  18 (R=0.046)  charge=  1.1833  magn=  0.0001
     atom  19 (R=0.046)  charge=  1.1165  magn=  0.0000
     atom  20 (R=0.046)  charge=  1.1716  magn=  0.0000
     atom  21 (R=0.046)  charge=  1.1851  magn= -0.0000
     atom  22 (R=0.046)  charge=  1.1561  magn=  0.0000
     atom  23 (R=0.046)  charge=  1.1787  magn= -0.0000
     atom  24 (R=0.046)  charge=  1.1955  magn= -0.0000
     atom  25 (R=0.046)  charge=  1.1275  magn=  0.0000
     atom  26 (R=0.046)  charge=  1.1724  magn=  0.0000
     atom  27 (R=0.046)  charge=  1.1962  magn= -0.0000
     atom  28 (R=0.046)  charge=  1.1277  magn=  0.0000
     atom  29 (R=0.046)  charge=  1.1718  magn=  0.0000
     atom  30 (R=0.046)  charge=  1.1969  magn= -0.0000
     atom  31 (R=0.046)  charge=  1.1278  magn= -0.0000
     atom  32 (R=0.046)  charge=  1.1728  magn=  0.0000
     atom  33 (R=0.046)  charge=  1.1959  magn= -0.0000
     atom  34 (R=0.046)  charge=  1.1269  magn= -0.0000
     atom  35 (R=0.046)  charge=  1.1675  magn= -0.0000
     atom  36 (R=0.046)  charge=  1.1995  magn= -0.0000
     atom  37 (R=0.046)  charge=  1.1195  magn=  0.0000
     atom  38 (R=0.046)  charge=  1.1710  magn= -0.0000
     atom  39 (R=0.046)  charge=  1.1846  magn=  0.0000
     atom  40 (R=0.046)  charge=  1.1189  magn= -0.0000
     atom  41 (R=0.046)  charge=  1.1708  magn=  0.0001
     atom  42 (R=0.046)  charge=  1.1845  magn= -0.0001
     atom  43 (R=0.046)  charge=  1.1204  magn= -0.0000
     atom  44 (R=0.046)  charge=  1.1710  magn=  0.0000
     atom  45 (R=0.046)  charge=  1.1840  magn=  0.0000
     atom  46 (R=0.046)  charge=  1.1192  magn= -0.0000
     atom  47 (R=0.046)  charge=  1.1713  magn= -0.0000
     atom  48 (R=0.046)  charge=  1.1853  magn=  0.0000
     atom  49 (R=0.037)  charge=  2.0507  magn=  0.0000
     atom  50 (R=0.037)  charge=  2.0084  magn= -0.0000
     atom  51 (R=0.037)  charge=  0.4079  magn=  0.0000

     total cpu time spent up to now is       33.2 secs

     End of self-consistent calculation

 ------ SPIN UP ------------


          k = 0.0000 0.0000 0.0000 ( 26858 PWs)   bands (ev):

   -26.8816 -22.1115 -21.4636 -20.6858 -17.6506 -17.5673 -17.4153 -17.4055
   -17.3806 -17.0306 -16.7954 -16.7375 -16.6545 -16.6285 -16.4130 -16.1343
   -16.0067 -15.9775 -15.8815 -15.8155 -15.7333 -15.5960 -15.3016 -14.7025
   -14.6207 -14.5739 -14.1494 -14.0708 -13.9668 -13.4415 -13.1853 -12.9958
   -12.9275 -12.8597 -12.3071 -12.1908 -11.8350 -11.7740 -11.6649 -11.2264
   -10.8675 -10.8192 -10.6538 -10.5717 -10.4093 -10.2071 -10.0804  -9.8993
    -9.8284  -9.5230  -9.4197  -9.4086  -9.4010  -9.3948  -8.7718  -8.3235
    -7.8064  -6.8988  -6.7380  -6.7202  -6.5932  -6.5036  -6.3158  -6.2821
    -6.0005  -5.9884  -5.9488  -5.5765  -5.5206  -5.4819  -5.4693  -5.4136
    -5.3753  -5.3281  -5.3148  -5.2800  -5.0917  -5.0106  -4.8509  -4.7241
    -4.5680  -4.5041  -4.2818  -4.2407  -4.1753  -3.9218  -3.8792  -3.8100
    -3.6682  -3.5464  -3.4793  -3.3835  -3.3263  -3.0801  -3.0292  -2.9797
    -2.8938  -2.8602  -2.3895  -2.0202  -1.9890  -1.7122  -1.5818  -0.2207
    -0.1289   0.1025   0.5999   0.6269   0.8511   1.1250   1.2460   1.3103
     1.3956   1.4749   1.7072   1.7555   2.1101   2.2896   2.3729   2.5071
     2.6150   2.6404   2.9109

 ------ SPIN DOWN ----------


          k = 0.0000 0.0000 0.0000 ( 26858 PWs)   bands (ev):

   -26.8815 -22.1116 -21.4636 -20.6858 -17.6506 -17.5673 -17.4153 -17.4056
   -17.3806 -17.0306 -16.7954 -16.7375 -16.6545 -16.6286 -16.4130 -16.1343
   -16.0067 -15.9775 -15.8815 -15.8155 -15.7333 -15.5960 -15.3016 -14.7025
   -14.6207 -14.5739 -14.1494 -14.0708 -13.9668 -13.4414 -13.1853 -12.9958
   -12.9275 -12.8597 -12.3071 -12.1908 -11.8350 -11.7740 -11.6649 -11.2264
   -10.8675 -10.8192 -10.6538 -10.5717 -10.4093 -10.2070 -10.0804  -9.8993
    -9.8284  -9.5230  -9.4197  -9.4086  -9.4010  -9.3948  -8.7718  -8.3234
    -7.8064  -6.8988  -6.7380  -6.7202  -6.5932  -6.5036  -6.3158  -6.2821
    -6.0005  -5.9884  -5.9488  -5.5764  -5.5206  -5.4819  -5.4692  -5.4136
    -5.3753  -5.3281  -5.3148  -5.2799  -5.0917  -5.0106  -4.8508  -4.7241
    -4.5680  -4.5041  -4.2818  -4.2407  -4.1753  -3.9218  -3.8792  -3.8100
    -3.6682  -3.5465  -3.4793  -3.3835  -3.3263  -3.0801  -3.0292  -2.9797
    -2.8938  -2.8602  -2.3895  -2.0203  -1.9890  -1.7122  -1.5818  -0.2207
    -0.1289   0.1025   0.5999   0.6269   0.8511   1.1250   1.2460   1.3103
     1.3956   1.4749   1.7072   1.7555   2.1101   2.2896   2.3729   2.5071
     2.6149   2.6404   2.9109

     the spin up/dw Fermi energies are    -1.5818   -1.5818 ev

!    total energy              =    -965.32539891 Ry
     estimated scf accuracy    <       0.00000063 Ry
     smearing contrib. (-TS)   =      -0.00005642 Ry
     internal energy E=F+TS    =    -965.32534249 Ry

     The total energy is F=E-TS. E is the sum of the following terms:
     one-electron contribution =   -1390.99722239 Ry
     hartree contribution      =     744.66749278 Ry
     xc contribution           =    -233.97309794 Ry
     ewald contribution        =     230.10683497 Ry
     one-center paw contrib.   =    -315.12934990 Ry

     total magnetization       =     0.00 Bohr mag/cell
     absolute magnetization    =     0.00 Bohr mag/cell

     convergence has been achieved in  13 iterations

     negative rho (up, down):  1.373E-06 1.373E-06

     Forces acting on atoms (cartesian axes, Ry/au):

     atom    1 type  1   force =     0.04479664   -0.10912650   -0.08610270
     atom    2 type  1   force =     0.05608517   -0.05963328    0.05296891
     atom    3 type  1   force =     0.03229050   -0.02655810    0.02178633
     atom    4 type  1   force =    -0.13944149    0.02106602   -0.08448641
     atom    5 type  1   force =    -0.05407833    0.05264980    0.05048347
     atom    6 type  1   force =    -0.04616666    0.04421939    0.02314202
     atom    7 type  1   force =     0.00428559    0.00124241   -0.12517553
     atom    8 type  1   force =     0.06042020    0.06035869   -0.05695705
     atom    9 type  1   force =     0.01991210    0.02144171   -0.02092738
     atom   10 type  1   force =    -0.00985351   -0.01355332   -0.02061697
     atom   11 type  1   force =    -0.04778031   -0.04797292   -0.04781927
     atom   12 type  1   force =    -0.03861974   -0.03836832   -0.03732511
     atom   13 type  1   force =    -0.04912115    0.04309733    0.04090452
     atom   14 type  1   force =     0.05224218   -0.05205551   -0.05185664
     atom   15 type  1   force =    -0.00912555    0.00635082    0.00172541
     atom   16 type  1   force =     0.05115563   -0.04926835    0.04144623
     atom   17 type  1   force =    -0.05107249    0.05105643   -0.05098159
     atom   18 type  1   force =     0.00610897   -0.00620327    0.00518318
     atom   19 type  1   force =     0.06959925    0.07201409   -0.05170188
     atom   20 type  1   force =    -0.05274571   -0.05262151    0.05226565
     atom   21 type  1   force =     0.00683402    0.00740795   -0.00350554
     atom   22 type  1   force =     0.09616816   -0.07295783   -0.23715797
     atom   23 type  1   force =     0.11457193    0.12023619    0.09029017
     atom   24 type  1   force =     0.05453282    0.07951209   -0.12824644
     atom   25 type  1   force =     0.01938933   -0.01783099    0.01970085
     atom   26 type  1   force =     0.04782661   -0.04780360    0.04774007
     atom   27 type  1   force =     0.03749086   -0.03648195    0.03814595
     atom   28 type  1   force =    -0.01564110    0.01769738    0.02015040
     atom   29 type  1   force =    -0.04692479    0.04723247    0.04719105
     atom   30 type  1   force =    -0.03884678    0.03971892    0.03958872
     atom   31 type  1   force =     0.01791297    0.01733600   -0.01905231
     atom   32 type  1   force =     0.04841969    0.04839697   -0.04865911
     atom   33 type  1   force =     0.03790687    0.03756180   -0.03734951
     atom   34 type  1   force =    -0.02435577   -0.02315543   -0.02362319
     atom   35 type  1   force =    -0.07059195   -0.07245932   -0.07112474
     atom   36 type  1   force =    -0.02629610   -0.02552018   -0.02998251
     atom   37 type  1   force =    -0.05073604    0.05153591    0.05115852
     atom   38 type  1   force =     0.05436364   -0.05390751   -0.05378926
     atom   39 type  1   force =    -0.00741972    0.00791803    0.00720858
     atom   40 type  1   force =     0.04998164   -0.05139468    0.05109188
     atom   41 type  1   force =    -0.05597435    0.05685770   -0.05633286
     atom   42 type  1   force =     0.00952117   -0.00959858    0.00940992
     atom   43 type  1   force =     0.05402789    0.05298810   -0.04932727
     atom   44 type  1   force =    -0.05569350   -0.05616522    0.05673962
     atom   45 type  1   force =     0.00906246    0.00951457   -0.00877812
     atom   46 type  1   force =    -0.05303502   -0.05219755   -0.04928869
     atom   47 type  1   force =     0.05165186    0.05180061    0.05136197
     atom   48 type  1   force =    -0.00540141   -0.00528712   -0.00540604
     atom   49 type  2   force =    -0.20462882    0.03182552    0.50701711
     atom   50 type  2   force =     0.03071292   -0.07411620    0.14374808
     atom   51 type  3   force =     0.01627921    0.00320031   -0.01487453

     Total force =     0.863940     Total SCF correction =     0.001213

     BFGS Geometry Optimization
     Energy error            =      0.0E+00 Ry
     Gradient error          =      5.1E-01 Ry/Bohr

     number of scf cycles    =   1
     number of bfgs steps    =   0

     energy             new  =    -965.3253989050 Ry

     new trust radius        =       0.5000000000 bohr
     new conv_thr            =       0.0000010000 Ry


ATOMIC_POSITIONS (angstrom)
C             6.1896416580        4.5552800030        6.1274030105
C             7.7110952518        3.0571906232        7.7095897576
C             6.9895998292        3.7861695448        6.9845251708
C             4.5406345613        6.1791771850        6.1281838529
C             3.0598742718        7.7094355944        7.7083890196
C             3.7766964726        6.9953627880        6.9851801174
C             6.1710704075        6.1696002180        4.5475265715
C             7.7131895429        7.7131598292        3.0584835363
C             6.9836197131        6.9843586831        3.7888897946
C             4.5982396804        4.5964522701        4.5930397578
C             3.0619169013        3.0618238511        3.0618980806
C             3.7773424535        3.7774639214        3.7779679044
C             6.2012691317        4.5668207075        4.5657613433
C             7.7892386664        2.9878515161        2.9879475898
C             7.0485913645        3.7240681398        3.7228335630
C             4.5707137464        6.2011980171        4.5660230470
C             2.9883264191        7.7896658192        2.9883703368
C             3.7239512971        7.0500031433        3.7245040411
C             4.5796240267        4.5797906577        6.2010223570
C             2.9875180738        2.9875780729        7.7892500080
C             3.7243015752        3.7245788451        7.0513064433
C             6.2754597048        6.1937534151        6.1144268470
C             7.8193507319        7.8230871882        7.8086199955
C             7.0813452976        7.0944130091        6.9930429910
C             0.6773671578       10.0943856886        0.6775176585
C             2.2111054647        8.5659056493        2.2110636564
C             1.4941121741        9.2803752391        1.4944286524
C            10.0944436436        0.6755497653        0.6777348420
C             8.5663302108        2.2098184326        2.2107984195
C             9.2792327717        1.4941885696        1.4951256658
C             0.6766539192        0.6753751793       10.0937956575
C             2.2103919903        2.2103810141        8.5654923433
C             1.4943131486        1.4931464443        9.2799561134
C            10.0962335067       10.0968134049       10.0955874260
C             8.5558963929        8.5549942475        8.5556389950
C             9.2882961190        9.2886709693        9.2855151811
C             0.7044889627       10.0708974620       10.0707151415
C             2.2852635638        8.4829567959        8.4820139217
C             1.5484154660        9.2228252729        9.2224825317
C            10.0691465826        0.7031707684       10.0706829493
C             8.4809582876        2.2864684671        8.4807850880
C             9.2225997641        1.5463628380        9.2225460185
C            10.0721013616       10.0725990293        0.7051695521
C             8.4810939696        8.4818660767        2.2864114206
C             9.2233781563        9.2235965765        1.5477592109
C             0.7003783051        0.6997828945        0.7011881917
C             2.2849534804        2.2840253391        2.2848134291
C             1.5483905280        1.5474457425        1.5473882948
O             5.7521419736        6.0903751939        7.7609445328
O             6.5598376889        5.9041937975        8.8964459904
H             5.8398646320        5.4635460992        9.3278139789



     Writing config-only to output data dir ./pwscf.save/
     NEW-OLD atomic charge density approx. for the potential

     Check: negative core charge=   -0.000004

     negative rho (up, down):  1.398E-06 1.398E-06
     Generating pointlists ...
     new r_m :   0.0355 (alat units)  0.7389 (a.u.) for type    2
     new r_m :   0.0355 (alat units)  0.7389 (a.u.) for type    3

     total cpu time spent up to now is       37.8 secs

     Self-consistent Calculation

     iteration #  1     ecut=    50.00 Ry     beta= 0.30
     Davidson diagonalization with overlap
     ethr =  1.00E-06,  avg # of iterations = 20.0

     negative rho (up, down):  1.346E-06 1.346E-06

     total cpu time spent up to now is       44.5 secs

     total energy              =    -965.51356596 Ry
     estimated scf accuracy    <       0.50834799 Ry

     total magnetization       =     0.00 Bohr mag/cell
     absolute magnetization    =     0.00 Bohr mag/cell

     iteration #  2     ecut=    50.00 Ry     beta= 0.30
     Davidson diagonalization with overlap
     ethr =  2.48E-04,  avg # of iterations =  7.0

     negative rho (up, down):  1.576E-06 1.576E-06

     total cpu time spent up to now is       46.9 secs

     total energy              =    -965.54745314 Ry
     estimated scf accuracy    <       0.51167965 Ry

     total magnetization       =    -0.00 Bohr mag/cell
     absolute magnetization    =     0.00 Bohr mag/cell

     iteration #  3     ecut=    50.00 Ry     beta= 0.30
     Davidson diagonalization with overlap
     ethr =  2.48E-04,  avg # of iterations =  2.0

     negative rho (up, down):  1.761E-06 1.761E-06

     total cpu time spent up to now is       49.0 secs

     total energy              =    -965.59542753 Ry
     estimated scf accuracy    <       0.19881762 Ry

     total magnetization       =     0.00 Bohr mag/cell
     absolute magnetization    =     0.00 Bohr mag/cell

     iteration #  4     ecut=    50.00 Ry     beta= 0.30
     Davidson diagonalization with overlap
     ethr =  9.70E-05,  avg # of iterations =  1.0

     negative rho (up, down):  1.689E-06 1.688E-06

     total cpu time spent up to now is       51.0 secs

     total energy              =    -965.60121804 Ry
     estimated scf accuracy    <       0.02802407 Ry

     total magnetization       =    -0.00 Bohr mag/cell
     absolute magnetization    =     0.00 Bohr mag/cell

     iteration #  5     ecut=    50.00 Ry     beta= 0.30
     Davidson diagonalization with overlap
     ethr =  1.37E-05,  avg # of iterations =  6.0

     negative rho (up, down):  1.385E-06 1.385E-06

     total cpu time spent up to now is       53.3 secs

     total energy              =    -965.59802467 Ry
     estimated scf accuracy    <       0.01513007 Ry

     total magnetization       =    -0.00 Bohr mag/cell
     absolute magnetization    =     0.00 Bohr mag/cell

     iteration #  6     ecut=    50.00 Ry     beta= 0.30
     Davidson diagonalization with overlap
     ethr =  7.38E-06,  avg # of iterations =  2.0

     negative rho (up, down):  1.386E-06 1.386E-06

     total cpu time spent up to now is       55.8 secs

     total energy              =    -965.59725323 Ry
     estimated scf accuracy    <       0.00342091 Ry

     total magnetization       =     0.00 Bohr mag/cell
     absolute magnetization    =     0.00 Bohr mag/cell

     iteration #  7     ecut=    50.00 Ry     beta= 0.30
     Davidson diagonalization with overlap
     ethr =  1.67E-06,  avg # of iterations =  8.0

     negative rho (up, down):  1.392E-06 1.392E-06

     total cpu time spent up to now is       58.3 secs

     total energy              =    -965.59696952 Ry
     estimated scf accuracy    <       0.00629320 Ry

     total magnetization       =    -0.00 Bohr mag/cell
     absolute magnetization    =     0.00 Bohr mag/cell

     iteration #  8     ecut=    50.00 Ry     beta= 0.30
     Davidson diagonalization with overlap
     ethr =  1.67E-06,  avg # of iterations =  2.0

     negative rho (up, down):  1.402E-06 1.402E-06

     total cpu time spent up to now is       60.4 secs

     total energy              =    -965.59729325 Ry
     estimated scf accuracy    <       0.00128626 Ry

     total magnetization       =     0.00 Bohr mag/cell
     absolute magnetization    =     0.00 Bohr mag/cell

     iteration #  9     ecut=    50.00 Ry     beta= 0.30
     Davidson diagonalization with overlap
     ethr =  6.27E-07,  avg # of iterations =  1.0

     negative rho (up, down):  1.415E-06 1.415E-06

     total cpu time spent up to now is       62.4 secs

     total energy              =    -965.59734976 Ry
     estimated scf accuracy    <       0.00014626 Ry

     total magnetization       =    -0.00 Bohr mag/cell
     absolute magnetization    =     0.00 Bohr mag/cell

     iteration # 10     ecut=    50.00 Ry     beta= 0.30
     Davidson diagonalization with overlap
     ethr =  7.13E-08,  avg # of iterations =  2.0

     negative rho (up, down):  1.416E-06 1.416E-06

     total cpu time spent up to now is       64.6 secs

     total energy              =    -965.59735661 Ry
     estimated scf accuracy    <       0.00002046 Ry

     total magnetization       =     0.00 Bohr mag/cell
     absolute magnetization    =     0.00 Bohr mag/cell

     iteration # 11     ecut=    50.00 Ry     beta= 0.30
     Davidson diagonalization with overlap
     ethr =  9.98E-09,  avg # of iterations =  4.0

     negative rho (up, down):  1.413E-06 1.413E-06

     total cpu time spent up to now is       67.0 secs

     total energy              =    -965.59736056 Ry
     estimated scf accuracy    <       0.00001470 Ry

     total magnetization       =    -0.00 Bohr mag/cell
     absolute magnetization    =     0.00 Bohr mag/cell

     iteration # 12     ecut=    50.00 Ry     beta= 0.30
     Davidson diagonalization with overlap
     ethr =  7.17E-09,  avg # of iterations =  2.0

     negative rho (up, down):  1.407E-06 1.407E-06

     Magnetic moment per site  (integrated on atomic sphere of radius R)
     atom   1 (R=0.046)  charge=  1.1379  magn=  0.0000
     atom   2 (R=0.046)  charge=  1.1899  magn=  0.0000
     atom   3 (R=0.046)  charge=  1.1782  magn=  0.0000
     atom   4 (R=0.046)  charge=  1.1315  magn=  0.0000
     atom   5 (R=0.046)  charge=  1.1967  magn=  0.0000
     atom   6 (R=0.046)  charge=  1.1808  magn= -0.0000
     atom   7 (R=0.046)  charge=  1.1565  magn=  0.0000
     atom   8 (R=0.046)  charge=  1.1860  magn=  0.0000
     atom   9 (R=0.046)  charge=  1.1812  magn=  0.0000
     atom  10 (R=0.046)  charge=  1.1304  magn=  0.0000
     atom  11 (R=0.046)  charge=  1.1944  magn=  0.0000
     atom  12 (R=0.046)  charge=  1.1831  magn= -0.0000
     atom  13 (R=0.046)  charge=  1.1258  magn=  0.0000
     atom  14 (R=0.046)  charge=  1.1712  magn= -0.0000
     atom  15 (R=0.046)  charge=  1.1466  magn=  0.0000
     atom  16 (R=0.046)  charge=  1.1245  magn= -0.0000
     atom  17 (R=0.046)  charge=  1.1716  magn= -0.0000
     atom  18 (R=0.046)  charge=  1.1462  magn=  0.0000
     atom  19 (R=0.046)  charge=  1.1114  magn=  0.0000
     atom  20 (R=0.046)  charge=  1.1710  magn=  0.0000
     atom  21 (R=0.046)  charge=  1.1416  magn= -0.0000
     atom  22 (R=0.046)  charge=  1.0911  magn= -0.0000
     atom  23 (R=0.046)  charge=  1.1902  magn= -0.0001
     atom  24 (R=0.046)  charge=  1.1150  magn= -0.0000
     atom  25 (R=0.046)  charge=  1.1301  magn=  0.0000
     atom  26 (R=0.046)  charge=  1.1948  magn=  0.0000
     atom  27 (R=0.046)  charge=  1.1858  magn= -0.0000
     atom  28 (R=0.046)  charge=  1.1297  magn= -0.0000
     atom  29 (R=0.046)  charge=  1.1958  magn=  0.0000
     atom  30 (R=0.046)  charge=  1.1866  magn= -0.0000
     atom  31 (R=0.046)  charge=  1.1297  magn=  0.0000
     atom  32 (R=0.046)  charge=  1.1951  magn=  0.0000
     atom  33 (R=0.046)  charge=  1.1847  magn=  0.0000
     atom  34 (R=0.046)  charge=  1.1317  magn=  0.0000
     atom  35 (R=0.046)  charge=  1.2043  magn= -0.0000
     atom  36 (R=0.046)  charge=  1.1775  magn= -0.0001
     atom  37 (R=0.046)  charge=  1.1137  magn= -0.0000
     atom  38 (R=0.046)  charge=  1.1706  magn= -0.0000
     atom  39 (R=0.046)  charge=  1.1458  magn=  0.0000
     atom  40 (R=0.046)  charge=  1.1140  magn= -0.0000
     atom  41 (R=0.046)  charge=  1.1717  magn=  0.0000
     atom  42 (R=0.046)  charge=  1.1436  magn= -0.0000
     atom  43 (R=0.046)  charge=  1.1146  magn= -0.0000
     atom  44 (R=0.046)  charge=  1.1725  magn= -0.0000
     atom  45 (R=0.046)  charge=  1.1433  magn=  0.0000
     atom  46 (R=0.046)  charge=  1.1142  magn=  0.0000
     atom  47 (R=0.046)  charge=  1.1717  magn=  0.0000
     atom  48 (R=0.046)  charge=  1.1466  magn=  0.0000
     atom  49 (R=0.036)  charge=  1.7971  magn=  0.0000
     atom  50 (R=0.036)  charge=  1.8027  magn=  0.0001
     atom  51 (R=0.036)  charge=  0.4061  magn=  0.0000

     total cpu time spent up to now is       69.0 secs

     End of self-consistent calculation

 ------ SPIN UP ------------


          k = 0.0000 0.0000 0.0000 ( 26858 PWs)   bands (ev):

   -25.4555 -21.8092 -21.8065 -19.2767 -17.6254 -17.5606 -17.4595 -17.4269
   -17.3817 -16.9726 -16.8795 -16.7777 -16.7589 -16.7333 -16.5634 -16.2088
   -16.1313 -15.9898 -15.7532 -15.6969 -15.5558 -15.3850 -15.2371 -14.4735
   -14.4276 -14.4059 -14.2431 -14.1864 -14.0983 -13.6859 -13.2438 -12.7204
   -12.6683 -12.6426 -12.2553 -12.1810 -12.1494 -12.0666 -11.3452 -11.1138
   -11.0745 -11.0028 -10.7077 -10.3011 -10.2633  -9.9952  -9.9037  -9.8275
    -9.5984  -9.5792  -9.5741  -9.5053  -9.4137  -9.3715  -9.0785  -7.9786
    -7.1931  -6.9124  -6.7541  -6.7103  -6.6001  -6.3774  -6.3552  -6.3278
    -6.0839  -6.0122  -5.9886  -5.7033  -5.6298  -5.5982  -5.5760  -5.5174
    -5.4681  -5.4430  -5.4111  -5.3939  -5.3028  -5.2858  -5.1256  -4.9051
    -4.8531  -4.7437  -4.5517  -4.5077  -4.3036  -3.9265  -3.6346  -3.5645
    -3.4681  -3.2604  -3.1938  -3.1246  -3.0557  -2.9898  -2.8782  -2.8312
    -2.7653  -2.6844  -2.1063  -1.9275  -1.7595  -1.7281  -1.6392  -0.4611
    -0.3629  -0.0636   0.3741   0.4776   0.6781   0.9674   0.9906   1.0327
     1.0857   1.2609   1.3024   1.5386   2.1806   2.1876   2.2470   2.3686
     2.4388   2.4940   2.8989

 ------ SPIN DOWN ----------


          k = 0.0000 0.0000 0.0000 ( 26858 PWs)   bands (ev):

   -25.4554 -21.8092 -21.8065 -19.2766 -17.6254 -17.5606 -17.4595 -17.4269
   -17.3817 -16.9726 -16.8795 -16.7777 -16.7589 -16.7333 -16.5635 -16.2088
   -16.1313 -15.9898 -15.7532 -15.6969 -15.5558 -15.3850 -15.2372 -14.4735
   -14.4276 -14.4059 -14.2431 -14.1864 -14.0983 -13.6859 -13.2438 -12.7204
   -12.6683 -12.6426 -12.2553 -12.1810 -12.1494 -12.0666 -11.3452 -11.1138
   -11.0745 -11.0028 -10.7077 -10.3011 -10.2633  -9.9952  -9.9037  -9.8275
    -9.5984  -9.5792  -9.5741  -9.5053  -9.4137  -9.3715  -9.0785  -7.9786
    -7.1930  -6.9124  -6.7541  -6.7103  -6.6001  -6.3774  -6.3551  -6.3278
    -6.0839  -6.0122  -5.9886  -5.7033  -5.6298  -5.5981  -5.5760  -5.5174
    -5.4681  -5.4430  -5.4111  -5.3939  -5.3028  -5.2858  -5.1256  -4.9051
    -4.8531  -4.7437  -4.5517  -4.5077  -4.3036  -3.9265  -3.6346  -3.5645
    -3.4681  -3.2604  -3.1938  -3.1246  -3.0557  -2.9897  -2.8782  -2.8312
    -2.7653  -2.6844  -2.1062  -1.9275  -1.7595  -1.7281  -1.6392  -0.4611
    -0.3628  -0.0636   0.3741   0.4776   0.6781   0.9674   0.9906   1.0327
     1.0857   1.2609   1.3024   1.5385   2.1806   2.1876   2.2470   2.3686
     2.4388   2.4940   2.8989

     the spin up/dw Fermi energies are    -1.6392   -1.6392 ev

!    total energy              =    -965.59736183 Ry
     estimated scf accuracy    <       0.00000079 Ry
     smearing contrib. (-TS)   =      -0.00005642 Ry
     internal energy E=F+TS    =    -965.59730541 Ry

     The total energy is F=E-TS. E is the sum of the following terms:
     one-electron contribution =   -1363.36614757 Ry
     hartree contribution      =     730.88448631 Ry
     xc contribution           =    -233.54416640 Ry
     ewald contribution        =     215.53792120 Ry
     one-center paw contrib.   =    -315.10939896 Ry

     total magnetization       =    -0.00 Bohr mag/cell
     absolute magnetization    =     0.00 Bohr mag/cell

     convergence has been achieved in  12 iterations

     negative rho (up, down):  1.407E-06 1.407E-06

     Forces acting on atoms (cartesian axes, Ry/au):

     atom    1 type  1   force =     0.01675108    0.01352736    0.01675059
     atom    2 type  1   force =    -0.06026897    0.05713803   -0.06258190
     atom    3 type  1   force =     0.06320343   -0.07020489    0.04306445
     atom    4 type  1   force =    -0.00838784    0.00855312   -0.01302387
     atom    5 type  1   force =     0.02088033   -0.02332988   -0.02832938
     atom    6 type  1   force =    -0.03454770    0.02781036    0.00786624
     atom    7 type  1   force =    -0.00276794   -0.01165216   -0.02930661
     atom    8 type  1   force =    -0.06662102   -0.06604209    0.06736638
     atom    9 type  1   force =     0.07929769    0.07801614   -0.09839791
     atom   10 type  1   force =    -0.02351153   -0.02406636   -0.03377691
     atom   11 type  1   force =     0.02806303    0.02810118    0.02809548
     atom   12 type  1   force =    -0.02464155   -0.02515602   -0.02538300
     atom   13 type  1   force =     0.00699345   -0.02600568   -0.04470198
     atom   14 type  1   force =    -0.09581634    0.09493817    0.09435319
     atom   15 type  1   force =     0.05230395   -0.05821958   -0.05979588
     atom   16 type  1   force =    -0.01724749    0.00905144   -0.02676632
     atom   17 type  1   force =     0.09589807   -0.09683689    0.09536728
     atom   18 type  1   force =    -0.05629275    0.05222329   -0.05962374
     atom   19 type  1   force =    -0.00703808   -0.00414539   -0.00494752
     atom   20 type  1   force =     0.09376326    0.09371156   -0.09271098
     atom   21 type  1   force =    -0.04116944   -0.04229779    0.04432359
     atom   22 type  1   force =     0.01098353    0.01137335    0.00084500
     atom   23 type  1   force =    -0.13918820   -0.13842738   -0.18502431
     atom   24 type  1   force =     0.04157595    0.06270995    0.01370348
     atom   25 type  1   force =     0.01696576   -0.01463557    0.01693232
     atom   26 type  1   force =    -0.02957970    0.02998844   -0.02953272
     atom   27 type  1   force =     0.02894967   -0.02817970    0.03010926
     atom   28 type  1   force =    -0.01763989    0.01754635    0.01613462
     atom   29 type  1   force =     0.02501447   -0.02439552   -0.02458877
     atom   30 type  1   force =    -0.02310466    0.02300233    0.02468444
     atom   31 type  1   force =     0.01622193    0.01411760   -0.02210902
     atom   32 type  1   force =    -0.02712333   -0.02719324    0.02653446
     atom   33 type  1   force =     0.02488145    0.02482631   -0.02577116
     atom   34 type  1   force =    -0.03728070   -0.02240097   -0.05195770
     atom   35 type  1   force =     0.09515714    0.09511685    0.09372531
     atom   36 type  1   force =    -0.03335903   -0.02958753   -0.03590481
     atom   37 type  1   force =     0.02426909   -0.01599464   -0.00881594
     atom   38 type  1   force =    -0.09118654    0.09225548    0.09360252
     atom   39 type  1   force =     0.04606782   -0.04263395   -0.04257578
     atom   40 type  1   force =    -0.01423673    0.00808431   -0.00798842
     atom   41 type  1   force =     0.10747353   -0.10630036    0.10930882
     atom   42 type  1   force =    -0.05428115    0.05454575   -0.05384391
     atom   43 type  1   force =    -0.00790814   -0.01009583    0.03212765
     atom   44 type  1   force =     0.10428044    0.10384019   -0.10274876
     atom   45 type  1   force =    -0.04456531   -0.04432119    0.05270324
     atom   46 type  1   force =     0.00679986    0.00356915    0.01403137
     atom   47 type  1   force =    -0.09425302   -0.09416822   -0.09449199
     atom   48 type  1   force =     0.04918268    0.04937712    0.04949865
     atom   49 type  2   force =    -0.00514996    0.07076888    0.15545174
     atom   50 type  2   force =     0.02288535   -0.03386724    0.06649427
     atom   51 type  3   force =    -0.02069592   -0.04403463    0.07162498

     Total force =     0.707967     Total SCF correction =     0.001195
     Energy error            =      2.7E-01 Ry
     Gradient error          =      1.9E-01 Ry/Bohr

     number of scf cycles    =   2
     number of bfgs steps    =   1

     energy             old  =    -965.3253989050 Ry
     energy             new  =    -965.5973618309 Ry

     CASE: energy            _new < energy            _old

     new trust radius        =       0.4180742100 bohr
     new conv_thr            =       0.0000010000 Ry


ATOMIC_POSITIONS (angstrom)
C             6.2095497817        4.5319953876        6.1118510740
C             7.6983218236        3.0675500412        7.6948988887
C             7.0276753577        3.7463980029        7.0104101131
C             4.4989685100        6.1888527395        6.0992535443
C             3.0549138642        7.7128723605        7.7089190271
C             3.7481590676        7.0202463685        6.9950993130
C             6.1709469426        6.1645298380        4.5000181613
C             7.6986429113        7.6988651790        3.0743141802
C             7.0258102154        7.0263688732        3.7375611974
C             4.5846603902        4.5816132657        4.5717812757
C             3.0619955690        3.0618680466        3.0619812536
C             3.7554462054        3.7553970521        3.7560783081
C             6.1912076748        4.5664281196        4.5560991093
C             7.7589291827        3.0178040710        3.0176825685
C             7.0703898642        3.6987729586        3.6955539379
C             4.5765681561        6.1920516532        4.5648302278
C             3.0189906884        7.7585615585        3.0188129329
C             3.6994847042        7.0725558411        3.6982409813
C             4.5952121675        4.5973752552        6.1847208418
C             3.0167384657        3.0168081192        7.7603878616
C             3.7070490485        3.7069582078        7.0709242515
C             6.3066077521        6.1792671508        6.0505743035
C             7.7858001923        7.7914241019        7.7472223858
C             7.1154103591        7.1450515958        6.9646606253
C             0.6904922128       10.0827640508        0.6907115870
C             2.2103355589        8.5668714547        2.2102921050
C             1.5177017121        9.2574162999        1.5187337292
C            10.0820211410        0.6884858945        0.6906803965
C             8.5652260124        2.2112931878        2.2121722824
C             9.2579881834        1.5156219326        1.5173043062
C             0.6890338817        0.6866223733       10.0783752718
C             2.2109225731        2.2108730054        8.5646236457
C             1.5161276046        1.5148418392        9.2578797884
C            10.0723363442       10.0801460400       10.0650781640
C             8.5809291465        8.5795024467        8.5798630084
C             9.2656931041        9.2680282322        9.2607322240
C             0.7020064420       10.0774362476       10.0804828210
C             2.2576771306        8.5111628073        8.5108770321
C             1.5677823211        9.2051868263        9.2046788920
C            10.0760800476        0.6929996187       10.0808165697
C             8.5156660250        2.2525444072        8.5162473343
C             9.1999909571        1.5690734581        9.2001099666
C            10.0830675801       10.0822684216        0.7067152592
C             8.5143961034        8.5148361325        2.2541034185
C             9.2051535198        9.2056076933        1.5698371103
C             0.6891667771        0.6872990861        0.6943471521
C             2.2552095105        2.2543610084        2.2548800354
C             1.5697495155        1.5689259136        1.5688926456
O             5.6943195403        6.1318353522        7.9704265108
O             6.5787771019        5.8684007876        8.9662417458
H             5.8346710585        5.4439796948        9.3570206342



     Writing config-only to output data dir ./pwscf.save/
     NEW-OLD atomic charge density approx. for the potential

     Check: negative core charge=   -0.000004

     negative rho (up, down):  1.347E-06 1.347E-06
     Generating pointlists ...
     new r_m :   0.0435 (alat units)  0.9040 (a.u.) for type    1

     total cpu time spent up to now is       74.0 secs

     Self-consistent Calculation

     iteration #  1     ecut=    50.00 Ry     beta= 0.30
     Davidson diagonalization with overlap
     ethr =  1.00E-06,  avg # of iterations = 17.0

     negative rho (up, down):  1.822E-06 1.822E-06

     total cpu time spent up to now is       80.7 secs

     total energy              =    -965.57943955 Ry
     estimated scf accuracy    <       0.38736836 Ry

     total magnetization       =     0.00 Bohr mag/cell
     absolute magnetization    =     0.00 Bohr mag/cell

     iteration #  2     ecut=    50.00 Ry     beta= 0.30
     Davidson diagonalization with overlap
     ethr =  1.89E-04,  avg # of iterations =  4.0

     negative rho (up, down):  2.125E-06 2.125E-06

     total cpu time spent up to now is       82.9 secs

     total energy              =    -965.59072313 Ry
     estimated scf accuracy    <       0.15023671 Ry

     total magnetization       =     0.00 Bohr mag/cell
     absolute magnetization    =     0.00 Bohr mag/cell

     iteration #  3     ecut=    50.00 Ry     beta= 0.30
     Davidson diagonalization with overlap
     ethr =  7.33E-05,  avg # of iterations =  2.0

     negative rho (up, down):  2.386E-06 2.386E-06

     total cpu time spent up to now is       85.1 secs

     total energy              =    -965.57972825 Ry
     estimated scf accuracy    <       0.19996849 Ry

     total magnetization       =     0.00 Bohr mag/cell
     absolute magnetization    =     0.00 Bohr mag/cell

     iteration #  4     ecut=    50.00 Ry     beta= 0.30
     Davidson diagonalization with overlap
     ethr =  7.33E-05,  avg # of iterations =  2.0

     negative rho (up, down):  2.409E-06 2.409E-06

     total cpu time spent up to now is       87.2 secs

     total energy              =    -965.59435038 Ry
     estimated scf accuracy    <       0.04796326 Ry

     total magnetization       =     0.00 Bohr mag/cell
     absolute magnetization    =     0.00 Bohr mag/cell

     iteration #  5     ecut=    50.00 Ry     beta= 0.30
     Davidson diagonalization with overlap
     ethr =  2.34E-05,  avg # of iterations =  1.0

     negative rho (up, down):  2.452E-06 2.452E-06

     total cpu time spent up to now is       89.2 secs

     total energy              =    -965.59494358 Ry
     estimated scf accuracy    <       0.00640741 Ry

     total magnetization       =     0.00 Bohr mag/cell
     absolute magnetization    =     0.00 Bohr mag/cell

     iteration #  6     ecut=    50.00 Ry     beta= 0.30
     Davidson diagonalization with overlap
     ethr =  3.13E-06,  avg # of iterations =  2.0

     negative rho (up, down):  2.401E-06 2.401E-06

     total cpu time spent up to now is       91.4 secs

     total energy              =    -965.59519658 Ry
     estimated scf accuracy    <       0.00098317 Ry

     total magnetization       =    -0.00 Bohr mag/cell
     absolute magnetization    =     0.00 Bohr mag/cell

     iteration #  7     ecut=    50.00 Ry     beta= 0.30
     Davidson diagonalization with overlap
     ethr =  4.80E-07,  avg # of iterations =  4.0

     negative rho (up, down):  2.344E-06 2.343E-06

     total cpu time spent up to now is       94.4 secs

     total energy              =    -965.59517365 Ry
     estimated scf accuracy    <       0.00033272 Ry

     total magnetization       =    -0.00 Bohr mag/cell
     absolute magnetization    =     0.00 Bohr mag/cell

     iteration #  8     ecut=    50.00 Ry     beta= 0.30
     Davidson diagonalization with overlap
     ethr =  1.62E-07,  avg # of iterations =  2.0

     negative rho (up, down):  2.303E-06 2.303E-06

     total cpu time spent up to now is       96.5 secs

     total energy              =    -965.59517859 Ry
     estimated scf accuracy    <       0.00009669 Ry

     total magnetization       =     0.00 Bohr mag/cell
     absolute magnetization    =     0.00 Bohr mag/cell

     iteration #  9     ecut=    50.00 Ry     beta= 0.30
     Davidson diagonalization with overlap
     ethr =  4.72E-08,  avg # of iterations =  2.0

     negative rho (up, down):  2.281E-06 2.281E-06

     total cpu time spent up to now is       98.6 secs

     total energy              =    -965.59518466 Ry
     estimated scf accuracy    <       0.00001413 Ry

     total magnetization       =     0.00 Bohr mag/cell
     absolute magnetization    =     0.01 Bohr mag/cell

     iteration # 10     ecut=    50.00 Ry     beta= 0.30
     Davidson diagonalization with overlap
     ethr =  6.89E-09,  avg # of iterations =  4.0

     negative rho (up, down):  2.270E-06 2.270E-06

     total cpu time spent up to now is      101.0 secs

     total energy              =    -965.59518656 Ry
     estimated scf accuracy    <       0.00000682 Ry

     total magnetization       =     0.00 Bohr mag/cell
     absolute magnetization    =     0.01 Bohr mag/cell

     iteration # 11     ecut=    50.00 Ry     beta= 0.30
     Davidson diagonalization with overlap
     ethr =  3.33E-09,  avg # of iterations =  2.0

     negative rho (up, down):  2.264E-06 2.264E-06

     total cpu time spent up to now is      103.2 secs

     total energy              =    -965.59518791 Ry
     estimated scf accuracy    <       0.00000152 Ry

     total magnetization       =     0.00 Bohr mag/cell
     absolute magnetization    =     0.01 Bohr mag/cell

     iteration # 12     ecut=    50.00 Ry     beta= 0.30
     Davidson diagonalization with overlap
     ethr =  7.43E-10,  avg # of iterations =  2.0

     negative rho (up, down):  2.263E-06 2.262E-06

     total cpu time spent up to now is      105.4 secs

     total energy              =    -965.59518905 Ry
     estimated scf accuracy    <       0.00000100 Ry

     total magnetization       =    -0.00 Bohr mag/cell
     absolute magnetization    =     0.02 Bohr mag/cell

     iteration # 13     ecut=    50.00 Ry     beta= 0.30
     Davidson diagonalization with overlap
     ethr =  4.90E-10,  avg # of iterations =  2.0

     negative rho (up, down):  2.262E-06 2.261E-06

     total cpu time spent up to now is      107.5 secs

     total energy              =    -965.59518528 Ry
     estimated scf accuracy    <       0.00000148 Ry

     total magnetization       =     0.00 Bohr mag/cell
     absolute magnetization    =     0.03 Bohr mag/cell

     iteration # 14     ecut=    50.00 Ry     beta= 0.30
     Davidson diagonalization with overlap
     ethr =  4.90E-10,  avg # of iterations =  2.0

     negative rho (up, down):  2.263E-06 2.263E-06

     Magnetic moment per site  (integrated on atomic sphere of radius R)
     atom   1 (R=0.043)  charge=  0.9625  magn=  0.0000
     atom   2 (R=0.043)  charge=  1.0487  magn=  0.0000
     atom   3 (R=0.043)  charge=  1.0494  magn= -0.0000
     atom   4 (R=0.043)  charge=  0.9631  magn=  0.0000
     atom   5 (R=0.043)  charge=  1.0335  magn=  0.0001
     atom   6 (R=0.043)  charge=  1.0246  magn= -0.0000
     atom   7 (R=0.043)  charge=  0.9795  magn=  0.0000
     atom   8 (R=0.043)  charge=  1.0586  magn=  0.0000
     atom   9 (R=0.043)  charge=  1.0633  magn= -0.0000
     atom  10 (R=0.043)  charge=  0.9684  magn=  0.0000
     atom  11 (R=0.043)  charge=  1.0354  magn=  0.0000
     atom  12 (R=0.043)  charge=  1.0374  magn= -0.0000
     atom  13 (R=0.043)  charge=  0.9589  magn=  0.0000
     atom  14 (R=0.043)  charge=  1.0465  magn=  0.0000
     atom  15 (R=0.043)  charge=  1.0334  magn= -0.0000
     atom  16 (R=0.043)  charge=  0.9588  magn= -0.0000
     atom  17 (R=0.043)  charge=  1.0459  magn= -0.0000
     atom  18 (R=0.043)  charge=  1.0323  magn= -0.0000
     atom  19 (R=0.043)  charge=  0.9423  magn= -0.0000
     atom  20 (R=0.043)  charge=  1.0381  magn= -0.0000
     atom  21 (R=0.043)  charge=  1.0175  magn= -0.0000
     atom  22 (R=0.043)  charge=  0.9243  magn= -0.0000
     atom  23 (R=0.043)  charge=  1.0318  magn= -0.0001
     atom  24 (R=0.043)  charge=  0.9991  magn= -0.0001
     atom  25 (R=0.043)  charge=  0.9670  magn=  0.0000
     atom  26 (R=0.043)  charge=  1.0354  magn= -0.0000
     atom  27 (R=0.043)  charge=  1.0401  magn= -0.0000
     atom  28 (R=0.043)  charge=  0.9673  magn= -0.0000
     atom  29 (R=0.043)  charge=  1.0334  magn= -0.0000
     atom  30 (R=0.043)  charge=  1.0374  magn= -0.0000
     atom  31 (R=0.043)  charge=  0.9663  magn= -0.0000
     atom  32 (R=0.043)  charge=  1.0335  magn= -0.0000
     atom  33 (R=0.043)  charge=  1.0372  magn= -0.0000
     atom  34 (R=0.043)  charge=  0.9676  magn=  0.0000
     atom  35 (R=0.043)  charge=  1.0414  magn= -0.0000
     atom  36 (R=0.043)  charge=  1.0589  magn= -0.0001
     atom  37 (R=0.043)  charge=  0.9478  magn= -0.0000
     atom  38 (R=0.043)  charge=  1.0393  magn= -0.0000
     atom  39 (R=0.043)  charge=  1.0187  magn=  0.0000
     atom  40 (R=0.043)  charge=  0.9473  magn=  0.0000
     atom  41 (R=0.043)  charge=  1.0406  magn= -0.0000
     atom  42 (R=0.043)  charge=  1.0268  magn=  0.0000
     atom  43 (R=0.043)  charge=  0.9470  magn= -0.0000
     atom  44 (R=0.043)  charge=  1.0359  magn= -0.0000
     atom  45 (R=0.043)  charge=  1.0226  magn=  0.0000
     atom  46 (R=0.043)  charge=  0.9481  magn= -0.0000
     atom  47 (R=0.043)  charge=  1.0434  magn= -0.0000
     atom  48 (R=0.043)  charge=  1.0253  magn= -0.0000
     atom  49 (R=0.036)  charge=  1.7923  magn=  0.0002
     atom  50 (R=0.036)  charge=  1.8022  magn=  0.0002
     atom  51 (R=0.036)  charge=  0.4093  magn=  0.0000

     total cpu time spent up to now is      109.6 secs

     End of self-consistent calculation

 ------ SPIN UP ------------


          k = 0.0000 0.0000 0.0000 ( 26858 PWs)   bands (ev):

   -26.2315 -21.6003 -21.5221 -18.0864 -17.5176 -17.4143 -17.3134 -17.2359
   -17.1807 -16.9019 -16.8742 -16.8178 -16.7729 -16.7488 -16.4220 -16.0958
   -16.0022 -15.9188 -15.8447 -15.8246 -15.7124 -15.6001 -15.4172 -14.8631
   -14.8086 -14.6461 -13.7676 -13.6567 -13.5524 -13.1919 -12.7433 -12.6999
   -12.6443 -12.5102 -11.9531 -11.8913 -11.8126 -11.7307 -11.0785 -10.9775
   -10.9056 -10.8228 -10.5320 -10.1055 -10.0706  -9.7586  -9.7209  -9.6467
    -9.4641  -9.3939  -9.3688  -9.3536  -9.2817  -9.1786  -8.9278  -7.9617
    -7.1248  -6.8657  -6.6770  -6.6642  -6.5149  -6.4048  -6.2757  -6.2642
    -6.1200  -5.9848  -5.8669  -5.7063  -5.6870  -5.6122  -5.6052  -5.5480
    -5.5295  -5.5003  -5.4720  -5.4022  -5.3598  -5.2756  -5.2088  -4.8614
    -4.8157  -4.6847  -4.5048  -4.2992  -4.0888  -3.9716  -3.8218  -3.7108
    -3.6672  -3.5113  -3.4556  -3.3930  -3.3421  -3.2812  -3.2157  -3.1423
    -3.0484  -2.9823  -2.3591  -2.2863  -2.0976  -1.8910  -1.7980  -0.0099
     0.1467   0.3875   0.9662   1.0989   1.2192   1.4821   1.5705   1.6009
     1.7072   1.8089   1.8537   1.9491   2.1632   2.4197   2.4437   2.6148
     2.7441   2.7829   2.9349

 ------ SPIN DOWN ----------


          k = 0.0000 0.0000 0.0000 ( 26858 PWs)   bands (ev):

   -26.2312 -21.6002 -21.5221 -18.0861 -17.5176 -17.4143 -17.3134 -17.2359
   -17.1807 -16.9019 -16.8742 -16.8178 -16.7729 -16.7488 -16.4221 -16.0958
   -16.0022 -15.9188 -15.8447 -15.8246 -15.7124 -15.6001 -15.4173 -14.8631
   -14.8086 -14.6462 -13.7676 -13.6567 -13.5524 -13.1919 -12.7433 -12.6999
   -12.6443 -12.5102 -11.9531 -11.8913 -11.8126 -11.7307 -11.0785 -10.9775
   -10.9056 -10.8228 -10.5320 -10.1054 -10.0706  -9.7585  -9.7208  -9.6467
    -9.4640  -9.3939  -9.3688  -9.3536  -9.2817  -9.1786  -8.9278  -7.9616
    -7.1244  -6.8657  -6.6770  -6.6642  -6.5149  -6.4047  -6.2757  -6.2642
    -6.1200  -5.9848  -5.8669  -5.7063  -5.6870  -5.6122  -5.6052  -5.5480
    -5.5295  -5.5003  -5.4720  -5.4022  -5.3598  -5.2756  -5.2088  -4.8615
    -4.8157  -4.6847  -4.5048  -4.2993  -4.0889  -3.9716  -3.8219  -3.7108
    -3.6672  -3.5113  -3.4556  -3.3930  -3.3421  -3.2812  -3.2157  -3.1423
    -3.0484  -2.9823  -2.3591  -2.2864  -2.0975  -1.8909  -1.7976  -0.0099
     0.1467   0.3875   0.9662   1.0989   1.2192   1.4821   1.5705   1.6008
     1.7072   1.8090   1.8537   1.9490   2.1632   2.4198   2.4437   2.6148
     2.7441   2.7828   2.9349

     the spin up/dw Fermi energies are    -1.7980   -1.7976 ev

!    total energy              =    -965.59518749 Ry
     estimated scf accuracy    <       0.00000023 Ry
     smearing contrib. (-TS)   =      -0.00005642 Ry
     internal energy E=F+TS    =    -965.59513107 Ry

     The total energy is F=E-TS. E is the sum of the following terms:
     one-electron contribution =   -1341.09358241 Ry
     hartree contribution      =     720.50933716 Ry
     xc contribution           =    -234.29421572 Ry
     ewald contribution        =     204.46523060 Ry
     one-center paw contrib.   =    -315.18190071 Ry

     total magnetization       =     0.00 Bohr mag/cell
     absolute magnetization    =     0.01 Bohr mag/cell

     convergence has been achieved in  14 iterations

     negative rho (up, down):  2.263E-06 2.263E-06

     Forces acting on atoms (cartesian axes, Ry/au):

     atom    1 type  1   force =     0.00799549    0.04757759    0.05155390
     atom    2 type  1   force =     0.15656201   -0.15927330    0.15759025
     atom    3 type  1   force =    -0.12555216    0.11606623   -0.15235676
     atom    4 type  1   force =     0.03787866    0.00401917    0.04268139
     atom    5 type  1   force =    -0.06595656    0.06492260    0.06098048
     atom    6 type  1   force =     0.04578610   -0.05101404   -0.07539313
     atom    7 type  1   force =     0.02068126    0.01399791   -0.00441435
     atom    8 type  1   force =     0.20406117    0.20475992   -0.20189640
     atom    9 type  1   force =    -0.17566304   -0.17684773    0.14262563
     atom   10 type  1   force =    -0.01114664   -0.01405694   -0.01763762
     atom   11 type  1   force =    -0.07894314   -0.07880537   -0.07873889
     atom   12 type  1   force =     0.05232210    0.05251034    0.05171866
     atom   13 type  1   force =     0.03377094   -0.05450790   -0.07839928
     atom   14 type  1   force =     0.12456022   -0.12358829   -0.12354986
     atom   15 type  1   force =    -0.15217317    0.14217810    0.13813455
     atom   16 type  1   force =    -0.04517740    0.03657473   -0.07977193
     atom   17 type  1   force =    -0.12720626    0.12780003   -0.12724344
     atom   18 type  1   force =     0.14841280   -0.15416254    0.14196490
     atom   19 type  1   force =    -0.03619550   -0.04372499    0.02278574
     atom   20 type  1   force =    -0.09078545   -0.09096469    0.09158280
     atom   21 type  1   force =     0.12958688    0.12925620   -0.12744106
     atom   22 type  1   force =    -0.00147948    0.05288583    0.08542588
     atom   23 type  1   force =     0.08448292    0.08163354    0.05336412
     atom   24 type  1   force =    -0.07599218   -0.08952317   -0.14064868
     atom   25 type  1   force =     0.00128917   -0.00470765    0.00439210
     atom   26 type  1   force =     0.08752763   -0.08698916    0.08781127
     atom   27 type  1   force =    -0.06321523    0.06409529   -0.06319564
     atom   28 type  1   force =    -0.00449928    0.00088739    0.00085151
     atom   29 type  1   force =    -0.07314973    0.07397597    0.07413096
     atom   30 type  1   force =     0.05209308   -0.05159457   -0.05143843
     atom   31 type  1   force =     0.00037723    0.00259095    0.00043172
     atom   32 type  1   force =     0.07408403    0.07404175   -0.07403525
     atom   33 type  1   force =    -0.05267535   -0.05256093    0.05173839
     atom   34 type  1   force =     0.01637788    0.01951276    0.02776154
     atom   35 type  1   force =    -0.13790507   -0.13701650   -0.14345919
     atom   36 type  1   force =     0.08903251    0.09145546    0.08795404
     atom   37 type  1   force =     0.03341743   -0.03637974   -0.03849381
     atom   38 type  1   force =     0.08616010   -0.08548984   -0.08432619
     atom   39 type  1   force =    -0.11454939    0.11792993    0.11877288
     atom   40 type  1   force =    -0.03650640    0.03143207   -0.04161626
     atom   41 type  1   force =    -0.12896140    0.12923246   -0.12741548
     atom   42 type  1   force =     0.14486351   -0.14350837    0.14572205
     atom   43 type  1   force =    -0.03846930   -0.03986172    0.02526346
     atom   44 type  1   force =    -0.10826718   -0.10834173    0.11038779
     atom   45 type  1   force =     0.12659702    0.12608072   -0.11915364
     atom   46 type  1   force =     0.04237175    0.03995661    0.03532619
     atom   47 type  1   force =     0.11029233    0.11040369    0.11042553
     atom   48 type  1   force =    -0.14026726   -0.14078567   -0.13934906
     atom   49 type  2   force =    -0.03978583    0.04431962    0.01617531
     atom   50 type  2   force =     0.03459549   -0.00836668    0.04540458
     atom   51 type  3   force =    -0.02065730   -0.06802532    0.10701676

     Total force =     1.155564     Total SCF correction =     0.000584
     Energy error            =      2.2E-03 Ry
     Gradient error          =      2.0E-01 Ry/Bohr

     number of scf cycles    =   3
     number of bfgs steps    =   2

     energy             old  =    -965.5973618309 Ry
     energy             new  =    -965.5951874906 Ry

     CASE: energy            _new > energy            _old

     new trust radius        =       0.2078657950 bohr
     new conv_thr            =       0.0000010000 Ry


ATOMIC_POSITIONS (angstrom)
C             6.1995399437        4.5437029313        6.1196706138
C             7.7047443248        3.0623413084        7.7022854823
C             7.0085309180        3.7663952010        6.9973951207
C             4.5199182706        6.1839878545        6.1137997521
C             3.0574079655        7.7111443487        7.7086525384
C             3.7625077228        7.0077348624        6.9901119248
C             6.1710090209        6.1670792336        4.5239054698
C             7.7059569821        7.7060525531        3.0663545058
C             7.0045967600        7.0052460791        3.7633693023
C             4.5914880801        4.5890743420        4.5824700762
C             3.0619560148        3.0618458250        3.0619394341
C             3.7664556757        3.7664923110        3.7670844339
C             6.1962665922        4.5666255135        4.5609572968
C             7.7741688420        3.0027438761        3.0027317713
C             7.0594295419        3.7114914182        3.7092701792
C             4.5736245491        6.1966504603        4.5654299793
C             3.0035726423        7.7742008330        3.0035063445
C             3.7117865482        7.0612163068        3.7114460918
C             4.5873744241        4.5885336900        6.1929172711
C             3.0020464036        3.0021112028        7.7748997973
C             3.7157236479        3.7158178938        7.0610603846
C             6.2909464616        6.1865508689        6.0826794696
C             7.8026694599        7.8073443549        7.7780932071
C             7.0982823889        7.1195904293        6.9789313264
C             0.6838929131       10.0886074298        0.6840776576
C             2.2107226688        8.5663858461        2.2106800424
C             1.5058408528        9.2689600931        1.5065130957
C            10.0882671962        0.6819815870        0.6841713500
C             8.5657812052        2.2105516784        2.2114815018
C             9.2686699981        1.5048452017        1.5061528485
C             0.6828092158        0.6809672653       10.0861286676
C             2.2106557952        2.2106256314        8.5650604283
C             1.5051592595        1.5039333582        9.2689798017
C            10.0843518776       10.0885264191       10.0804182722
C             8.5683426359        8.5671796830        8.5676831338
C             9.2770579379        9.2784074351        9.2731931364
C             0.7032546576       10.0741485352       10.0755716153
C             2.2715476356        8.4969807774        8.4963646117
C             1.5580446338        9.2140554669        9.2136305919
C            10.0725938897        0.6981136898       10.0757213684
C             8.4982149163        2.2696014815        8.4984168572
C             9.2113587032        1.5576545202        9.2113908512
C            10.0775537470       10.0774066349        0.7059380751
C             8.4976517346        8.4982587331        2.2703479363
C             9.2143168976        9.2146525340        1.5587363054
C             0.6948039522        0.6935759660        0.6977868383
C             2.2701648285        2.2692762837        2.2699305960
C             1.5590101807        1.5581256475        1.5580802219
O             5.7233927569        6.1109891149        7.8650986204
O             6.5692543332        5.8863975731        8.9311483227
H             5.8372823960        5.4538177158        9.3423354788



     Writing config-only to output data dir ./pwscf.save/
     NEW-OLD atomic charge density approx. for the potential

     Check: negative core charge=   -0.000004

     negative rho (up, down):  2.236E-06 2.236E-06
     Generating pointlists ...

     total cpu time spent up to now is      114.3 secs

     Self-consistent Calculation

     iteration #  1     ecut=    50.00 Ry     beta= 0.30
     Davidson diagonalization with overlap
     ethr =  1.00E-06,  avg # of iterations = 12.0

     negative rho (up, down):  1.865E-06 1.865E-06

     total cpu time spent up to now is      119.8 secs

     total energy              =    -965.66320928 Ry
     estimated scf accuracy    <       0.18369105 Ry

     total magnetization       =     0.00 Bohr mag/cell
     absolute magnetization    =     0.00 Bohr mag/cell

     iteration #  2     ecut=    50.00 Ry     beta= 0.30
     Davidson diagonalization with overlap
     ethr =  8.96E-05,  avg # of iterations =  2.0

     negative rho (up, down):  1.826E-06 1.826E-06

     total cpu time spent up to now is      122.1 secs

     total energy              =    -965.68130829 Ry
     estimated scf accuracy    <       0.25634205 Ry

     total magnetization       =    -0.00 Bohr mag/cell
     absolute magnetization    =     0.00 Bohr mag/cell

     iteration #  3     ecut=    50.00 Ry     beta= 0.30
     Davidson diagonalization with overlap
     ethr =  8.96E-05,  avg # of iterations =  2.0

     negative rho (up, down):  1.828E-06 1.829E-06

     total cpu time spent up to now is      124.2 secs

     total energy              =    -965.69415751 Ry
     estimated scf accuracy    <       0.07108340 Ry

     total magnetization       =    -0.00 Bohr mag/cell
     absolute magnetization    =     0.00 Bohr mag/cell

     iteration #  4     ecut=    50.00 Ry     beta= 0.30
     Davidson diagonalization with overlap
     ethr =  3.47E-05,  avg # of iterations =  2.0

     negative rho (up, down):  1.677E-06 1.677E-06

     total cpu time spent up to now is      126.4 secs

     total energy              =    -965.69529055 Ry
     estimated scf accuracy    <       0.02013475 Ry

     total magnetization       =     0.00 Bohr mag/cell
     absolute magnetization    =     0.01 Bohr mag/cell

     iteration #  5     ecut=    50.00 Ry     beta= 0.30
     Davidson diagonalization with overlap
     ethr =  9.82E-06,  avg # of iterations =  2.0

     negative rho (up, down):  1.649E-06 1.649E-06

     total cpu time spent up to now is      128.5 secs

     total energy              =    -965.69300103 Ry
     estimated scf accuracy    <       0.07692078 Ry

     total magnetization       =    -0.00 Bohr mag/cell
     absolute magnetization    =     0.00 Bohr mag/cell

     iteration #  6     ecut=    50.00 Ry     beta= 0.30
     Davidson diagonalization with overlap
     ethr =  9.82E-06,  avg # of iterations =  2.0

     negative rho (up, down):  1.632E-06 1.632E-06

     total cpu time spent up to now is      130.7 secs

     total energy              =    -965.69794031 Ry
     estimated scf accuracy    <       0.00620891 Ry

     total magnetization       =    -0.00 Bohr mag/cell
     absolute magnetization    =     0.01 Bohr mag/cell

     iteration #  7     ecut=    50.00 Ry     beta= 0.30
     Davidson diagonalization with overlap
     ethr =  3.03E-06,  avg # of iterations =  1.0

     negative rho (up, down):  1.647E-06 1.646E-06

     total cpu time spent up to now is      132.6 secs

     total energy              =    -965.69814728 Ry
     estimated scf accuracy    <       0.00050889 Ry

     total magnetization       =    -0.00 Bohr mag/cell
     absolute magnetization    =     0.02 Bohr mag/cell

     iteration #  8     ecut=    50.00 Ry     beta= 0.30
     Davidson diagonalization with overlap
     ethr =  2.48E-07,  avg # of iterations =  2.0

     negative rho (up, down):  1.679E-06 1.678E-06

     total cpu time spent up to now is      134.8 secs

     total energy              =    -965.69795945 Ry
     estimated scf accuracy    <       0.00242872 Ry

     total magnetization       =     0.00 Bohr mag/cell
     absolute magnetization    =     0.02 Bohr mag/cell

     iteration #  9     ecut=    50.00 Ry     beta= 0.30
     Davidson diagonalization with overlap
     ethr =  2.48E-07,  avg # of iterations =  2.0

     negative rho (up, down):  1.691E-06 1.690E-06

     total cpu time spent up to now is      136.9 secs

     total energy              =    -965.69806696 Ry
     estimated scf accuracy    <       0.00021158 Ry

     total magnetization       =    -0.00 Bohr mag/cell
     absolute magnetization    =     0.05 Bohr mag/cell

     iteration # 10     ecut=    50.00 Ry     beta= 0.30
     Davidson diagonalization with overlap
     ethr =  1.03E-07,  avg # of iterations =  2.0

     negative rho (up, down):  1.695E-06 1.694E-06

     total cpu time spent up to now is      139.0 secs

     total energy              =    -965.69807248 Ry
     estimated scf accuracy    <       0.00038169 Ry

     total magnetization       =    -0.00 Bohr mag/cell
     absolute magnetization    =     0.09 Bohr mag/cell

     iteration # 11     ecut=    50.00 Ry     beta= 0.30
     Davidson diagonalization with overlap
     ethr =  1.03E-07,  avg # of iterations =  1.0

     negative rho (up, down):  1.694E-06 1.692E-06

     total cpu time spent up to now is      141.0 secs

     total energy              =    -965.69805501 Ry
     estimated scf accuracy    <       0.00015244 Ry

     total magnetization       =     0.00 Bohr mag/cell
     absolute magnetization    =     0.14 Bohr mag/cell

     iteration # 12     ecut=    50.00 Ry     beta= 0.30
     Davidson diagonalization with overlap
     ethr =  7.44E-08,  avg # of iterations =  1.0

     negative rho (up, down):  1.698E-06 1.696E-06

     total cpu time spent up to now is      143.0 secs

     total energy              =    -965.69804131 Ry
     estimated scf accuracy    <       0.00005863 Ry

     total magnetization       =    -0.00 Bohr mag/cell
     absolute magnetization    =     0.08 Bohr mag/cell

     iteration # 13     ecut=    50.00 Ry     beta= 0.30
     Davidson diagonalization with overlap
     ethr =  2.86E-08,  avg # of iterations =  2.0

     negative rho (up, down):  1.706E-06 1.704E-06

     total cpu time spent up to now is      145.2 secs

     total energy              =    -965.69803399 Ry
     estimated scf accuracy    <       0.00015617 Ry

     total magnetization       =    -0.00 Bohr mag/cell
     absolute magnetization    =     0.03 Bohr mag/cell

     iteration # 14     ecut=    50.00 Ry     beta= 0.30
     Davidson diagonalization with overlap
     ethr =  2.86E-08,  avg # of iterations =  1.5

     negative rho (up, down):  1.710E-06 1.709E-06

     total cpu time spent up to now is      147.2 secs

     total energy              =    -965.69803707 Ry
     estimated scf accuracy    <       0.00001140 Ry

     total magnetization       =     0.00 Bohr mag/cell
     absolute magnetization    =     0.00 Bohr mag/cell

     iteration # 15     ecut=    50.00 Ry     beta= 0.30
     Davidson diagonalization with overlap
     ethr =  5.56E-09,  avg # of iterations =  2.0

     negative rho (up, down):  1.710E-06 1.709E-06

     total cpu time spent up to now is      149.4 secs

     total energy              =    -965.69803697 Ry
     estimated scf accuracy    <       0.00000737 Ry

     total magnetization       =     0.00 Bohr mag/cell
     absolute magnetization    =     0.01 Bohr mag/cell

     iteration # 16     ecut=    50.00 Ry     beta= 0.30
     Davidson diagonalization with overlap
     ethr =  3.60E-09,  avg # of iterations =  2.0

     negative rho (up, down):  1.708E-06 1.708E-06

     total cpu time spent up to now is      151.5 secs

[...]

     total energy              =    -965.94273535 Ry
     estimated scf accuracy    <       0.00002505 Ry

     total magnetization       =     0.00 Bohr mag/cell
     absolute magnetization    =     0.00 Bohr mag/cell

     iteration #  3     ecut=    50.00 Ry     beta= 0.30
     Davidson diagonalization with overlap
     ethr =  1.22E-08,  avg # of iterations =  2.0

     negative rho (up, down):  1.673E-06 1.673E-06

     total cpu time spent up to now is     2160.7 secs

     total energy              =    -965.94273521 Ry
     estimated scf accuracy    <       0.00002767 Ry

     total magnetization       =     0.00 Bohr mag/cell
     absolute magnetization    =     0.00 Bohr mag/cell

     iteration #  4     ecut=    50.00 Ry     beta= 0.30
     Davidson diagonalization with overlap
     ethr =  1.22E-08,  avg # of iterations =  2.0

     negative rho (up, down):  1.673E-06 1.673E-06

     total cpu time spent up to now is     2162.7 secs

     total energy              =    -965.94273798 Ry
     estimated scf accuracy    <       0.00000271 Ry

     total magnetization       =     0.00 Bohr mag/cell
     absolute magnetization    =     0.00 Bohr mag/cell

     iteration #  5     ecut=    50.00 Ry     beta= 0.30
     Davidson diagonalization with overlap
     ethr =  1.32E-09,  avg # of iterations =  2.0

     negative rho (up, down):  1.673E-06 1.673E-06

     total cpu time spent up to now is     2164.8 secs

     total energy              =    -965.94273815 Ry
     estimated scf accuracy    <       0.00000107 Ry

     total magnetization       =     0.00 Bohr mag/cell
     absolute magnetization    =     0.00 Bohr mag/cell

     iteration #  6     ecut=    50.00 Ry     beta= 0.30
     Davidson diagonalization with overlap
     ethr =  5.20E-10,  avg # of iterations =  2.0

     negative rho (up, down):  1.673E-06 1.673E-06

     total cpu time spent up to now is     2166.9 secs

     total energy              =    -965.94273825 Ry
     estimated scf accuracy    <       0.00000041 Ry

     total magnetization       =     0.00 Bohr mag/cell
     absolute magnetization    =     0.00 Bohr mag/cell

     iteration #  7     ecut=    50.00 Ry     beta= 0.30
     Davidson diagonalization with overlap
     ethr =  2.00E-10,  avg # of iterations =  2.0

     negative rho (up, down):  1.673E-06 1.673E-06

     total cpu time spent up to now is     2169.0 secs

     total energy              =    -965.94273830 Ry
     estimated scf accuracy    <       0.00000003 Ry

     total magnetization       =     0.00 Bohr mag/cell
     absolute magnetization    =     0.00 Bohr mag/cell

     iteration #  8     ecut=    50.00 Ry     beta= 0.30
     Davidson diagonalization with overlap
     ethr =  1.68E-11,  avg # of iterations =  4.0

     negative rho (up, down):  1.673E-06 1.673E-06

     total cpu time spent up to now is     2171.3 secs

     total energy              =    -965.94273831 Ry
     estimated scf accuracy    <       0.00000001 Ry

     total magnetization       =     0.00 Bohr mag/cell
     absolute magnetization    =     0.00 Bohr mag/cell

     iteration #  9     ecut=    50.00 Ry     beta= 0.30
     Davidson diagonalization with overlap
     ethr =  5.61E-12,  avg # of iterations =  2.0

     negative rho (up, down):  1.673E-06 1.673E-06

     Magnetic moment per site  (integrated on atomic sphere of radius R)
     atom   1 (R=0.043)  charge=  0.9603  magn= -0.0000
     atom   2 (R=0.043)  charge=  1.0223  magn= -0.0000
     atom   3 (R=0.043)  charge=  1.0146  magn= -0.0000
     atom   4 (R=0.043)  charge=  0.9602  magn= -0.0000
     atom   5 (R=0.043)  charge=  1.0228  magn= -0.0000
     atom   6 (R=0.043)  charge=  1.0140  magn= -0.0000
     atom   7 (R=0.043)  charge=  0.9599  magn=  0.0000
     atom   8 (R=0.043)  charge=  1.0205  magn=  0.0000
     atom   9 (R=0.043)  charge=  1.0168  magn=  0.0000
     atom  10 (R=0.043)  charge=  0.9594  magn=  0.0000
     atom  11 (R=0.043)  charge=  1.0209  magn= -0.0000
     atom  12 (R=0.043)  charge=  1.0145  magn=  0.0000
     atom  13 (R=0.043)  charge=  0.9596  magn= -0.0000
     atom  14 (R=0.043)  charge=  1.0206  magn= -0.0000
     atom  15 (R=0.043)  charge=  1.0156  magn=  0.0000
     atom  16 (R=0.043)  charge=  0.9595  magn= -0.0000
     atom  17 (R=0.043)  charge=  1.0203  magn= -0.0000
     atom  18 (R=0.043)  charge=  1.0150  magn= -0.0000
     atom  19 (R=0.043)  charge=  0.9597  magn=  0.0000
     atom  20 (R=0.043)  charge=  1.0211  magn=  0.0000
     atom  21 (R=0.043)  charge=  1.0150  magn=  0.0000
     atom  22 (R=0.043)  charge=  0.9606  magn=  0.0000
     atom  23 (R=0.043)  charge=  1.0228  magn= -0.0000
     atom  24 (R=0.043)  charge=  1.0158  magn=  0.0000
     atom  25 (R=0.043)  charge=  0.9589  magn= -0.0000
     atom  26 (R=0.043)  charge=  1.0201  magn= -0.0000
     atom  27 (R=0.043)  charge=  1.0149  magn= -0.0000
     atom  28 (R=0.043)  charge=  0.9597  magn= -0.0000
     atom  29 (R=0.043)  charge=  1.0213  magn= -0.0000
     atom  30 (R=0.043)  charge=  1.0147  magn= -0.0000
     atom  31 (R=0.043)  charge=  0.9595  magn=  0.0000
     atom  32 (R=0.043)  charge=  1.0210  magn=  0.0000
     atom  33 (R=0.043)  charge=  1.0145  magn=  0.0000
     atom  34 (R=0.043)  charge=  0.9590  magn= -0.0000
     atom  35 (R=0.043)  charge=  1.0201  magn=  0.0000
     atom  36 (R=0.043)  charge=  1.0160  magn=  0.0000
     atom  37 (R=0.043)  charge=  0.9587  magn= -0.0000
     atom  38 (R=0.043)  charge=  1.0201  magn= -0.0000
     atom  39 (R=0.043)  charge=  1.0148  magn= -0.0000
     atom  40 (R=0.043)  charge=  0.9596  magn= -0.0000
     atom  41 (R=0.043)  charge=  1.0205  magn= -0.0000
     atom  42 (R=0.043)  charge=  1.0146  magn= -0.0000
     atom  43 (R=0.043)  charge=  0.9591  magn=  0.0000
     atom  44 (R=0.043)  charge=  1.0210  magn=  0.0000
     atom  45 (R=0.043)  charge=  1.0158  magn=  0.0000
     atom  46 (R=0.043)  charge=  0.9594  magn=  0.0000
     atom  47 (R=0.043)  charge=  1.0218  magn=  0.0000
     atom  48 (R=0.043)  charge=  1.0143  magn= -0.0000
     atom  49 (R=0.036)  charge=  1.7692  magn=  0.0000
     atom  50 (R=0.036)  charge=  1.7854  magn= -0.0000
     atom  51 (R=0.036)  charge=  0.3700  magn=  0.0000

     total cpu time spent up to now is     2173.4 secs

     End of self-consistent calculation

 ------ SPIN UP ------------


          k = 0.0000 0.0000 0.0000 ( 26858 PWs)   bands (ev):

   -25.7019 -21.4686 -21.4621 -17.4613 -17.4576 -17.4463 -17.2534 -17.2325
   -17.2229 -17.2155 -16.8510 -16.8334 -16.8209 -16.7474 -16.6894 -16.0180
   -16.0132 -15.9996 -15.8218 -15.8159 -15.8029 -15.5844 -15.4356 -14.5574
   -14.5537 -14.5387 -14.0443 -14.0396 -14.0286 -13.5199 -13.0536 -12.7233
   -12.7193 -12.7084 -12.0794 -12.0125 -12.0111 -11.9943 -11.3378 -10.9812
   -10.9773 -10.9613 -10.6629 -10.2621  -9.7953  -9.7918  -9.7822  -9.7119
    -9.4101  -9.4080  -9.3800  -9.3761  -9.3556  -9.3530  -9.3418  -7.5880
    -7.0854  -6.8392  -6.8313  -6.8293  -6.4766  -6.4709  -6.4679  -6.2471
    -6.2435  -6.2402  -5.8388  -5.8311  -5.8279  -5.6236  -5.6225  -5.5977
    -5.5014  -5.4886  -5.4613  -5.4059  -5.3805  -5.2951  -5.2815  -4.8284
    -4.8182  -4.8176  -4.3833  -4.3728  -4.3708  -3.7400  -3.7358  -3.7274
    -3.4099  -3.4010  -3.3933  -3.2017  -3.1891  -3.0045  -2.9974  -2.8944
    -2.8831  -2.8771  -2.3683  -2.0086  -1.9993  -1.9829  -1.8482  -0.2094
    -0.2023  -0.1945   0.6297   0.6382   0.6430   1.1899   1.2067   1.2323
     1.2549   1.2733   1.5376   1.5436   2.3286   2.4200   2.4301   2.4417
     2.4439   2.4526   2.4557

 ------ SPIN DOWN ----------


          k = 0.0000 0.0000 0.0000 ( 26858 PWs)   bands (ev):

   -25.7019 -21.4686 -21.4621 -17.4613 -17.4576 -17.4463 -17.2533 -17.2325
   -17.2229 -17.2155 -16.8510 -16.8334 -16.8209 -16.7474 -16.6894 -16.0180
   -16.0132 -15.9996 -15.8218 -15.8159 -15.8029 -15.5844 -15.4356 -14.5574
   -14.5537 -14.5387 -14.0443 -14.0396 -14.0286 -13.5199 -13.0536 -12.7233
   -12.7193 -12.7084 -12.0794 -12.0125 -12.0111 -11.9943 -11.3378 -10.9812
   -10.9773 -10.9613 -10.6629 -10.2621  -9.7953  -9.7918  -9.7822  -9.7119
    -9.4101  -9.4080  -9.3800  -9.3761  -9.3556  -9.3530  -9.3418  -7.5880
    -7.0854  -6.8392  -6.8313  -6.8293  -6.4766  -6.4709  -6.4679  -6.2471
    -6.2435  -6.2402  -5.8388  -5.8310  -5.8279  -5.6236  -5.6225  -5.5977
    -5.5014  -5.4886  -5.4613  -5.4059  -5.3805  -5.2951  -5.2815  -4.8284
    -4.8182  -4.8176  -4.3833  -4.3728  -4.3708  -3.7400  -3.7358  -3.7274
    -3.4099  -3.4010  -3.3933  -3.2017  -3.1891  -3.0045  -2.9974  -2.8944
    -2.8831  -2.8771  -2.3683  -2.0086  -1.9993  -1.9829  -1.8482  -0.2094
    -0.2023  -0.1945   0.6297   0.6382   0.6430   1.1899   1.2067   1.2323
     1.2549   1.2733   1.5376   1.5436   2.3286   2.4200   2.4301   2.4417
     2.4439   2.4526   2.4557

     the spin up/dw Fermi energies are    -1.8482   -1.8482 ev

!    total energy              =    -965.94273833 Ry
     estimated scf accuracy    <          8.1E-09 Ry
     smearing contrib. (-TS)   =      -0.00005642 Ry
     internal energy E=F+TS    =    -965.94268191 Ry

     The total energy is F=E-TS. E is the sum of the following terms:
     one-electron contribution =   -1244.68256684 Ry
     hartree contribution      =     671.58278993 Ry
     xc contribution           =    -233.38945236 Ry
     ewald contribution        =     155.66096239 Ry
     one-center paw contrib.   =    -315.11441503 Ry

     total magnetization       =    -0.00 Bohr mag/cell
     absolute magnetization    =     0.00 Bohr mag/cell

     convergence has been achieved in   9 iterations

     negative rho (up, down):  1.673E-06 1.673E-06

     Forces acting on atoms (cartesian axes, Ry/au):

     atom    1 type  1   force =     0.00000092    0.00005478   -0.00002823
     atom    2 type  1   force =    -0.00000126   -0.00036420   -0.00045621
     atom    3 type  1   force =    -0.00006448   -0.00002774    0.00012595
     atom    4 type  1   force =     0.00001173    0.00005741    0.00013780
     atom    5 type  1   force =    -0.00062412    0.00022947   -0.00035310
     atom    6 type  1   force =    -0.00028953    0.00011101   -0.00017861
     atom    7 type  1   force =    -0.00005063    0.00022927   -0.00011041
     atom    8 type  1   force =     0.00001835   -0.00000416   -0.00038575
     atom    9 type  1   force =     0.00012423    0.00021150    0.00007327
     atom   10 type  1   force =    -0.00010873    0.00007404   -0.00017206
     atom   11 type  1   force =     0.00021981    0.00032161   -0.00064998
     atom   12 type  1   force =     0.00005165    0.00006597   -0.00022733
     atom   13 type  1   force =    -0.00019739    0.00032403   -0.00026164
     atom   14 type  1   force =    -0.00024832    0.00023072   -0.00019232
     atom   15 type  1   force =     0.00017192    0.00033099    0.00034577
     atom   16 type  1   force =     0.00005080    0.00025550    0.00010875
     atom   17 type  1   force =     0.00013519   -0.00018078   -0.00015017
     atom   18 type  1   force =     0.00017082    0.00030105    0.00028679
     atom   19 type  1   force =    -0.00015578   -0.00016339   -0.00013191
     atom   20 type  1   force =    -0.00023748   -0.00029357   -0.00020220
     atom   21 type  1   force =    -0.00015039    0.00005780   -0.00007411
     atom   22 type  1   force =     0.00004352   -0.00005735    0.00014451
     atom   23 type  1   force =     0.00055443    0.00031950   -0.00045556
     atom   24 type  1   force =     0.00006492    0.00004500    0.00039959
     atom   25 type  1   force =    -0.00002660   -0.00018501   -0.00003151
     atom   26 type  1   force =    -0.00016613    0.00015151    0.00011477
     atom   27 type  1   force =     0.00012477   -0.00025268    0.00014776
     atom   28 type  1   force =    -0.00001749   -0.00015918    0.00005532
     atom   29 type  1   force =     0.00019123   -0.00012929    0.00035371
     atom   30 type  1   force =    -0.00025443    0.00011659    0.00012133
     atom   31 type  1   force =     0.00016742   -0.00001474    0.00019475
     atom   32 type  1   force =    -0.00006351    0.00002414    0.00035774
     atom   33 type  1   force =    -0.00009916    0.00004063    0.00004717
     atom   34 type  1   force =     0.00021462    0.00009444   -0.00007070
     atom   35 type  1   force =     0.00003451    0.00004108    0.00007336
     atom   36 type  1   force =     0.00023374    0.00007445   -0.00039259
     atom   37 type  1   force =     0.00003929    0.00021377    0.00004698
     atom   38 type  1   force =    -0.00042350    0.00005040    0.00049324
     atom   39 type  1   force =     0.00006714    0.00011294   -0.00012344
     atom   40 type  1   force =     0.00023690   -0.00008922    0.00005636
     atom   41 type  1   force =     0.00029242   -0.00040534    0.00082794
     atom   42 type  1   force =    -0.00003395    0.00022834   -0.00031190
     atom   43 type  1   force =    -0.00002161   -0.00026516   -0.00024321
     atom   44 type  1   force =     0.00023725    0.00016338    0.00039840
     atom   45 type  1   force =    -0.00000923   -0.00002882   -0.00024220
     atom   46 type  1   force =     0.00008159   -0.00018393    0.00030374
     atom   47 type  1   force =     0.00020941    0.00006593    0.00031015
     atom   48 type  1   force =    -0.00032280   -0.00041706    0.00022761
     atom   49 type  2   force =    -0.00054091   -0.00073295   -0.00027955
     atom   50 type  2   force =     0.00033944   -0.00071391   -0.00060445
     atom   51 type  3   force =     0.00001941    0.00007125    0.00057639

     Total force =     0.003169     Total SCF correction =     0.000052
     Energy error            =      2.6E-05 Ry
     Gradient error          =      8.3E-04 Ry/Bohr

     bfgs converged in  65 scf cycles and  62 bfgs steps
     (criteria: energy <  1.0E-04 Ry, force <  1.0E-03 Ry/Bohr)

     End of BFGS Geometry Optimization

     Final energy             =    -965.9427383300 Ry

     File ./pwscf.bfgs deleted, as requested
Begin final coordinates

ATOMIC_POSITIONS (angstrom)
C             6.2158728416        4.6081656445        6.0980450586
C             7.7614345757        3.0660095683        7.6388424522
C             7.0494601626        3.7776450862        6.9264822256
C             4.5958494741        6.2281089254        6.0964154278
C             3.0508832127        7.7728066425        7.6347814023
C             3.7647015520        7.0595327493        6.9262759860
C             6.2098071793        6.2216145352        4.4711245827
C             7.7504623697        7.7638978021        2.9243111069
C             7.0392443715        7.0497933099        3.6349113151
C             4.5908627737        4.6007663383        4.4823106231
C             3.0452874003        3.0539491997        2.9428339200
C             3.7588301930        3.7659481769        3.6539464868
C             6.2100965094        4.6018612262        4.4763491173
C             7.7493170449        3.0585622636        2.9271118111
C             7.0366928870        3.7698580490        3.6400287758
C             4.5898767739        6.2212624089        4.4749162309
C             3.0459855780        7.7636571710        2.9302604607
C             3.7571437808        7.0492363889        3.6408661913
C             4.5973072554        4.6078424987        6.1033479023
C             3.0563577921        3.0643598845        7.6492263812
C             3.7699553978        3.7780847956        6.9401815250
C             6.2151573726        6.2291962749        6.0910276739
C             7.7611116983        7.7740709326        7.6268714320
C             7.0509549746        7.0639224247        6.9125882022
C             0.7103578312       10.1045083531        0.5966362973
C             2.2528669756        8.5584144698        2.1379190183
C             1.5407827114        9.2732004245        1.4286017023
C            10.0916114125        0.7230564378        0.5947718667
C             8.5434756117        2.2660620055        2.1335388204
C             9.2584478560        1.5552300520        1.4232013573
C             0.7118037390        0.7231564844        9.9745609663
C             2.2599012152        2.2690921595        8.4374989228
C             1.5450499123        1.5557148269        9.1460180283
C            10.0907255488       10.1038290566        9.9752714680
C             8.5500248558        8.5647843350        8.4261820279
C             9.2589383835        9.2746003278        9.1433922404
C             0.7108141752       10.1026663363        9.9739956480
C             2.2575431970        8.5636046221        8.4293239370
C             1.5425081041        9.2724530228        9.1425976425
C            10.0919116951        0.7228032245        9.9746274838
C             8.5529493766        2.2699629377        8.4304673314
C             9.2608749015        1.5556405249        9.1447515387
C            10.0907458074       10.1051157320        0.5962765724
C             8.5433911098        8.5591413607        2.1326610376
C             9.2580240742        9.2742160271        1.4265856930
C             0.7111651209        0.7232849588        0.5951076180
C             2.2518165945        2.2635763620        2.1454757160
C             1.5418486565        1.5550173543        1.4278463888
O             5.1628470703        5.9685399894        9.6579427780
O             6.3016521092        5.4309865264       10.1248886289
H             6.0152687841        4.7391897910       10.7708029791
End final coordinates



     Writing all to output data dir ./pwscf.save/

     init_run     :      3.00s CPU      3.09s WALL (       1 calls)
     electrons    :   1808.21s CPU   1881.13s WALL (      65 calls)
     update_pot   :    116.33s CPU    117.71s WALL (      64 calls)
     forces       :    112.10s CPU    116.31s WALL (      65 calls)

     Called by init_run:
     wfcinit      :      0.72s CPU      0.75s WALL (       1 calls)
     potinit      :      1.28s CPU      1.31s WALL (       1 calls)
     hinit0       :      0.74s CPU      0.76s WALL (       1 calls)

     Called by electrons:
     c_bands      :    972.14s CPU   1000.91s WALL (     833 calls)
     sum_band     :    258.50s CPU    266.84s WALL (     833 calls)
     v_of_rho     :    204.31s CPU    210.36s WALL (     887 calls)
     newd         :     96.18s CPU     98.01s WALL (     887 calls)
     PAW_pot      :    297.13s CPU    298.98s WALL (     951 calls)
     mix_rho      :     22.92s CPU     24.56s WALL (     833 calls)

     Called by c_bands:
     init_us_2    :     15.38s CPU     15.67s WALL (    3592 calls)
     init_us_2:cp :     15.36s CPU     15.67s WALL (    3592 calls)
     regterg      :    946.85s CPU    974.95s WALL (    1666 calls)

     Called by *egterg:
     rdiaghg      :     62.40s CPU     62.79s WALL (    6113 calls)
     h_psi        :    539.10s CPU    563.56s WALL (    6265 calls)
     s_psi        :     92.68s CPU     93.33s WALL (    6265 calls)
     g_psi        :      1.73s CPU      1.76s WALL (    4597 calls)

     Called by h_psi:
     h_psi:calbec :     93.22s CPU     94.73s WALL (    6265 calls)
     vloc_psi     :    345.07s CPU    367.29s WALL (    6265 calls)
     add_vuspsi   :     95.68s CPU     96.37s WALL (    6265 calls)

     General routines
     calbec       :    146.24s CPU    148.49s WALL (    8579 calls)
     fft          :     84.07s CPU     93.55s WALL (   19233 calls)
     ffts         :      4.03s CPU      4.59s WALL (    3440 calls)
     fftw         :    361.96s CPU    385.55s WALL (  575746 calls)
     interpolate  :     11.27s CPU     12.59s WALL (    1774 calls)

     Parallel routines

     PWSCF        :  34m45.61s CPU  36m17.12s WALL


   This run was terminated on:   0:47:22  25May2025            

=------------------------------------------------------------------------------=
   JOB DONE.
=------------------------------------------------------------------------------=
