ITEM: TIMESTEP
0
ITEM: NUMBER OF ATOMS
163
ITEM: BOX BOUNDS xy xz yz pp pp pp
-6.7755000000000001e+00 1.3552000000000000e+01 -6.7755000000000001e+00
0.0000000000000000e+00 1.1735510246683001e+01 0.0000000000000000e+00
0.0000000000000000e+00 2.2149999999999999e+01 0.0000000000000000e+00
ITEM: ATOMS id type x y z 
8 1 -2.486 5.297 9.849 
87 1 3.001 4.231 10.696 
90 1 2.733 5.481 9.824 
109 1 -2.486 5.297 0.765 
158 1 2.733 5.481 0.79 
11 1 4.24 4.139 20.131 
14 1 3.031 4.094 19.728 
18 1 1.299 5.827 18.554 
33 1 2.266 4.151 20.924 
43 1 4.343 3.96 21.647 
47 1 3.32 5.732 17.88 
52 1 4.24 4.139 12.633 
76 1 2.552 4.924 14.209 
85 1 4.343 3.96 11.117 
89 1 3.32 5.732 14.883 
91 1 1.036 5.037 11.84 
102 1 3.031 4.094 13.035 
105 1 1.299 5.827 14.209 
114 1 2.266 4.151 11.84 
150 1 2.552 4.924 18.554 
156 1 3.001 4.231 22.068 
159 1 1.036 5.037 20.924 
5 1 -5.049 10.63 8.653 
9 1 -3.317 8.897 7.479 
19 1 -1.707 7.414 10.572 
21 1 -2.66 8.795 10.993 
23 1 -3.31 7.532 6.805 
25 1 -4.284 10.573 9.849 
32 1 1.503 6.367 0.79 
36 1 -1.869 7.426 9.056 
38 1 -2.209 6.086 8.653 
54 1 0.3 8.576 10.696 
57 1 1.291 8.001 9.824 
60 1 -1.707 7.414 0.042 
65 1 -3.31 7.532 3.808 
78 1 -1.869 7.426 1.558 
80 1 -2.566 8.842 1.961 
84 1 -4.57 9.799 3.135 
99 1 -3.054 9.687 0.765 
100 1 -2.96 6.142 3.135 
107 1 -5.049 10.63 1.961 
110 1 -3.317 8.897 3.135 
111 1 0.642 5.929 10.696 
113 1 1.503 6.367 9.824 
119 1 -4.284 10.573 0.765 
127 1 -2.209 6.086 1.961 
131 1 -2.318 6.148 10.993 
138 1 1.291 8.001 0.79 
142 1 -2.566 8.842 8.653 
145 1 -4.57 9.799 7.479 
151 1 -5.019 10.493 10.993 
154 1 -3.054 9.687 9.849 
155 1 -2.96 6.142 7.479 
12 1 2.53 7.1 17.202 
17 1 0.468 9.427 20.924 
24 1 -3.52 8.357 11.865 
27 1 -0.31 7.31 21.647 
29 1 0.642 5.929 22.068 
31 1 1.292 7.192 17.88 
44 1 -0.148 7.298 20.131 
46 1 0.191 8.638 19.728 
51 1 -0.31 7.31 11.117 
53 1 2.53 7.1 15.561 
56 1 1.292 7.192 14.883 
63 1 -2.318 6.148 21.771 
66 1 -3.309 6.723 20.899 
70 1 -0.148 7.298 12.633 
72 1 0.548 5.882 13.035 
92 1 0.942 8.582 14.209 
95 1 -5.019 10.493 21.771 
98 1 -4.751 9.243 20.899 
104 1 0.468 9.427 11.84 
116 1 -2.66 8.795 21.771 
118 1 -3.52 8.357 20.899 
122 1 0.191 8.638 13.035 
133 1 -3.309 6.723 11.865 
136 1 0.3 8.576 22.068 
147 1 0.548 5.882 19.728 
153 1 -4.751 9.243 11.865 
160 1 0.942 8.582 18.554 
1 1 7.976 4.694 10.572 
4 1 9.274 4.77 10.993 
20 1 8.034 4.861 9.056 
42 1 9.55 5.41 7.479 
67 1 10.043 4.578 0.765 
77 1 7.976 4.694 0.042 
94 1 8.035 4.861 1.558 
96 1 9.278 4.635 1.961 
121 1 4.688 5.417 10.696 
130 1 9.55 5.41 3.135 
134 1 10.043 4.578 9.849 
152 1 9.278 4.635 8.653 
45 1 4.688 5.417 22.068 
55 1 4.788 5.329 13.035 
106 1 9.274 4.77 21.771 
137 1 4.788 5.329 19.728 
161 2 9.311 4.282 12.254 
162 2 9.137 2.986 11.53 
163 3 9.928 2.6 11.98 
2 1 7.294 10.585 9.056 
3 1 9.004 7.624 6.127 
6 1 8.556 6.347 6.805 
16 1 2.314 8.72 0.79 
22 1 7.166 6.156 8.653 
26 1 7.226 8.565 7.479 
35 1 7.191 10.764 10.572 
37 1 6.846 9.307 10.993 
39 1 8.214 8.992 6.805 
41 1 6.677 7.002 9.849 
48 1 3.775 6.213 0.79 
61 1 7.294 10.585 1.558 
62 1 9.004 7.624 4.487 
64 1 6.747 9.395 1.961 
68 1 7.437 6.931 3.135 
71 1 4.29 8.493 10.696 
74 1 3.567 7.818 9.824 
81 1 8.556 6.347 3.808 
83 1 6.47 8.606 0.765 
93 1 7.191 10.764 0.042 
97 1 8.214 8.992 3.808 
101 1 2.261 9.954 10.696 
103 1 2.314 8.72 9.824 
117 1 7.166 6.156 1.961 
120 1 7.226 8.565 3.135 
123 1 3.775 6.213 9.824 
129 1 6.677 7.002 0.765 
132 1 6.747 9.395 8.653 
135 1 7.437 6.931 7.479 
141 1 7.244 6.231 10.993 
144 1 6.47 8.606 9.849 
148 1 3.567 7.818 0.79 
7 1 9.22 6.004 11.865 
10 1 3.558 10.029 21.647 
13 1 2.261 9.954 22.068 
15 1 2.978 8.376 17.88 
28 1 3.5 9.862 20.131 
30 1 4.369 8.568 19.728 
34 1 4.308 6.159 18.554 
40 1 7.76 8.511 11.865 
49 1 4.857 7.722 20.924 
50 1 1.984 9.314 18.554 
58 1 1.491 10.146 11.84 
59 1 4.097 7.793 14.209 
69 1 3.558 10.029 11.117 
73 1 2.978 8.376 14.883 
75 1 5.064 6.118 11.84 
79 1 7.244 6.231 21.771 
82 1 7.967 6.906 20.899 
86 1 3.5 9.862 12.633 
88 1 2.256 10.089 13.035 
108 1 9.22 6.004 20.899 
112 1 4.369 8.568 13.035 
115 1 4.308 6.159 14.209 
124 1 4.857 7.722 11.84 
125 1 1.984 9.314 14.209 
126 1 6.846 9.307 21.771 
128 1 7.76 8.511 20.899 
139 1 1.491 10.146 20.924 
140 1 4.097 7.793 18.554 
143 1 7.967 6.906 11.865 
146 1 4.29 8.493 22.068 
149 1 5.064 6.118 20.924 
157 1 2.256 10.089 19.728 
ITEM: TIMESTEP
10
ITEM: NUMBER OF ATOMS
163
ITEM: BOX BOUNDS xy xz yz pp pp pp
-6.7755000000000001e+00 1.3552000000000000e+01 -6.7755000000000001e+00
0.0000000000000000e+00 1.1735510246683001e+01 0.0000000000000000e+00
0.0000000000000000e+00 2.2149999999999999e+01 0.0000000000000000e+00
ITEM: ATOMS id type x y z 
8 1 -2.36831 5.38769 9.85325 
87 1 2.97318 4.2914 10.6499 
90 1 2.67027 5.44372 9.78631 
109 1 -2.40618 5.37954 0.77981 
158 1 2.6649 5.45352 0.834313 
11 1 4.30943 4.19655 20.1156 
14 1 2.90005 4.11807 19.6892 
18 1 1.34712 5.86245 18.5907 
33 1 2.10626 4.24851 20.9143 
43 1 4.32328 4.14468 21.6013 
47 1 3.22872 5.79754 17.8637 
52 1 4.30511 4.20361 12.6446 
76 1 2.42568 4.90265 14.1866 
85 1 4.31516 4.13923 11.1599 
89 1 3.23642 5.79456 14.9087 
91 1 0.962299 5.11787 11.8515 
102 1 2.90265 4.11557 13.073 
105 1 1.34096 5.85579 14.1677 
114 1 2.11358 4.25035 11.8369 
150 1 2.43032 4.90052 18.5768 
156 1 2.97207 4.27912 22.1245 
159 1 0.95908 5.12134 20.9106 
5 1 -4.92004 10.5901 8.59339 
9 1 -3.32606 8.85959 7.53711 
19 1 -1.77509 7.48357 10.551 
21 1 -2.5867 8.75998 10.8951 
23 1 -3.29724 7.5737 6.85121 
25 1 -4.12218 10.4712 9.83764 
32 1 1.57612 6.33708 0.76551 
36 1 -1.90396 7.52735 9.0775 
38 1 -2.15731 6.22932 8.63974 
54 1 0.286878 8.52699 10.6612 
57 1 1.36657 7.98539 9.77579 
60 1 -1.77391 7.52462 0.0531989 
65 1 -3.31338 7.52958 3.77224 
78 1 -1.90128 7.54261 1.55582 
80 1 -2.55375 8.78121 1.88107 
84 1 -4.46342 9.8036 3.11393 
99 1 -2.97971 9.61662 0.780031 
100 1 -2.92798 6.26473 3.17698 
107 1 -4.92377 10.5929 2.00373 
110 1 -3.35021 8.87058 3.10605 
111 1 0.610501 5.97497 10.7674 
113 1 1.57995 6.33804 9.84621 
119 1 -4.13336 10.476 0.780836 
127 1 -2.15873 6.21467 1.96678 
131 1 -2.32391 6.22435 10.9968 
138 1 1.36435 7.98321 0.838373 
142 1 -2.55952 8.79213 8.7182 
145 1 -4.44227 9.77009 7.48413 
151 1 -4.97733 10.4302 11.0566 
154 1 -2.99176 9.62556 9.8308 
155 1 -2.92079 6.26475 7.43195 
12 1 2.57016 7.07901 17.1211 
17 1 0.399301 9.36575 20.9037 
24 1 -3.5362 8.41007 11.8753 
27 1 -0.253661 7.17696 21.626 
29 1 0.612497 5.97777 21.9974 
31 1 1.29404 7.19331 17.9084 
44 1 -0.104306 7.16545 20.1399 
46 1 0.132527 8.50776 19.7177 
51 1 -0.261859 7.17662 11.1365 
53 1 2.57671 7.08195 15.6434 
56 1 1.28521 7.19345 14.857 
63 1 -2.31394 6.21188 21.7528 
66 1 -3.36008 6.73347 20.8595 
70 1 -0.103339 7.18057 12.6278 
72 1 0.553967 5.93844 12.9758 
92 1 0.906095 8.47094 14.2428 
95 1 -4.98863 10.4427 21.7182 
98 1 -4.68257 9.28006 20.8519 
104 1 0.39623 9.36084 11.8691 
116 1 -2.61907 8.74143 21.8392 
118 1 -3.59264 8.39446 20.9142 
122 1 0.139147 8.49952 13.0436 
133 1 -3.32682 6.77059 11.9172 
136 1 0.287131 8.52743 22.1031 
147 1 0.554209 5.94168 19.789 
153 1 -4.68812 9.247 11.8979 
160 1 0.909235 8.46183 18.5072 
1 1 7.85577 4.93416 10.5404 
4 1 9.12608 4.75453 11.1659 
20 1 7.85797 4.93297 9.08239 
42 1 9.47619 5.43172 7.40713 
67 1 10.0037 4.54689 0.793788 
77 1 7.83138 4.95275 0.109012 
94 1 7.87138 4.95025 1.5527 
96 1 9.1832 4.65326 1.99889 
121 1 4.66902 5.44175 10.7215 
130 1 9.45713 5.42577 3.17638 
134 1 10.0301 4.53054 9.78298 
152 1 9.20515 4.63566 8.58408 
45 1 4.67181 5.43889 22.0449 
55 1 4.82152 5.49334 13.0689 
106 1 9.19687 4.72947 21.6987 
137 1 4.82119 5.49401 19.6911 
161 2 9.32805 4.25403 12.1749 
162 2 9.12542 2.83631 11.5591 
163 3 9.93616 2.58942 11.9885 
2 1 7.24981 10.5091 9.05459 
3 1 8.95027 7.69615 6.05659 
6 1 8.51678 6.39931 6.83473 
16 1 2.35635 8.69902 0.846379 
22 1 7.12866 6.213 8.69087 
26 1 7.17499 8.4271 7.5338 
35 1 7.22127 10.6073 10.5298 
37 1 6.83989 9.24454 11.0207 
39 1 8.25393 8.91463 6.77236 
41 1 6.72508 7.01466 9.81662 
48 1 3.71478 6.36716 0.84011 
61 1 7.24443 10.5134 1.56764 
62 1 8.96415 7.66028 4.55765 
64 1 6.71266 9.24113 1.99692 
68 1 7.41455 6.96977 3.05093 
71 1 4.29659 8.54732 10.7812 
74 1 3.62009 7.77835 9.83409 
81 1 8.53246 6.40874 3.77116 
83 1 6.54848 8.44084 0.780535 
93 1 7.20893 10.5871 0.0975671 
97 1 8.28489 8.92972 3.82848 
101 1 2.34941 9.94692 10.6709 
103 1 2.35787 8.7023 9.77182 
117 1 7.14684 6.1898 1.90621 
120 1 7.17698 8.4151 3.06842 
123 1 3.71146 6.36941 9.77518 
129 1 6.73507 7.01229 0.784585 
132 1 6.7084 9.2478 8.62956 
135 1 7.41187 6.95714 7.57064 
141 1 7.23008 6.19012 10.9137 
144 1 6.54391 8.42816 9.80869 
148 1 3.62211 7.777 0.782912 
7 1 9.14608 6.18449 11.9504 
10 1 3.65868 9.7768 21.5934 
13 1 2.34618 9.95334 22.0983 
15 1 2.99515 8.31534 17.9157 
28 1 3.66412 9.76096 20.1408 
30 1 4.38555 8.53452 19.7936 
34 1 4.34403 6.3052 18.6245 
40 1 7.73131 8.38562 11.8742 
49 1 4.79207 7.7214 20.8939 
50 1 2.08206 9.29842 18.5106 
58 1 1.57104 10.1668 11.831 
59 1 4.12442 7.7625 14.1197 
69 1 3.65262 9.77245 11.1729 
73 1 2.99509 8.316 14.8425 
75 1 4.98732 6.28643 11.855 
79 1 7.22829 6.17045 21.8631 
82 1 7.90483 6.93169 20.8977 
86 1 3.65598 9.76442 12.6189 
88 1 2.35468 10.0684 13.0645 
108 1 9.19246 6.05144 20.8222 
112 1 4.38287 8.53398 12.9699 
115 1 4.34915 6.3113 14.1346 
124 1 4.79414 7.71281 11.8645 
125 1 2.08285 9.29599 14.2493 
126 1 6.85898 9.29058 21.7977 
128 1 7.81184 8.37114 20.8413 
139 1 1.56311 10.1679 20.931 
140 1 4.12782 7.76086 18.6407 
143 1 7.89967 6.97437 11.8668 
146 1 4.30073 8.54588 21.9871 
149 1 4.98619 6.28452 20.9113 
157 1 2.35059 10.0738 19.6997 
ITEM: TIMESTEP
20
ITEM: NUMBER OF ATOMS
163
ITEM: BOX BOUNDS xy xz yz pp pp pp
-6.7755000000000001e+00 1.3552000000000000e+01 -6.7755000000000001e+00
0.0000000000000000e+00 1.1735510246683001e+01 0.0000000000000000e+00
0.0000000000000000e+00 2.2149999999999999e+01 0.0000000000000000e+00
ITEM: ATOMS id type x y z 
8 1 -2.4261 5.36876 9.83973 
87 1 2.95931 4.27279 10.6551 
90 1 2.66421 5.44921 9.77449 
109 1 -2.42054 5.38993 0.776406 
158 1 2.66764 5.44493 0.843621 
11 1 4.28371 4.21436 20.1234 
14 1 2.89334 4.1365 19.7041 
18 1 1.31966 5.8595 18.5818 
33 1 2.10813 4.25948 20.9063 
43 1 4.30579 4.17767 21.5718 
47 1 3.2503 5.78907 17.8497 
52 1 4.2779 4.21989 12.635 
76 1 2.44289 4.90794 14.1798 
85 1 4.30948 4.17046 11.1857 
89 1 3.25263 5.79181 14.9172 
91 1 0.967925 5.11244 11.8481 
102 1 2.89342 4.13826 13.062 
105 1 1.31571 5.8584 14.1812 
114 1 2.1058 4.26265 11.8587 
150 1 2.44178 4.90446 18.5823 
156 1 2.96299 4.26959 22.1095 
159 1 0.964552 5.10941 20.9148 
5 1 -4.90338 10.5689 8.61701 
9 1 -3.3052 8.85624 7.53006 
19 1 -1.7623 7.49102 10.5553 
21 1 -2.59647 8.77054 10.942 
23 1 -3.3034 7.56772 6.83798 
25 1 -4.13543 10.4587 9.82131 
32 1 1.59714 6.35496 0.776222 
36 1 -1.88773 7.53532 9.06622 
38 1 -2.15865 6.22964 8.63366 
54 1 0.306727 8.50358 10.6788 
57 1 1.36091 7.99076 9.79021 
60 1 -1.76746 7.52456 0.05463 
65 1 -3.30642 7.53797 3.78165 
78 1 -1.88799 7.55144 1.55309 
80 1 -2.54802 8.78825 1.89064 
84 1 -4.46403 9.80403 3.1083 
99 1 -2.98048 9.61592 0.77551 
100 1 -2.93379 6.26848 3.17418 
107 1 -4.9101 10.5803 1.98981 
110 1 -3.32497 8.87004 3.10508 
111 1 0.610257 5.96692 10.7446 
113 1 1.59907 6.35818 9.83969 
119 1 -4.12726 10.4625 0.784153 
127 1 -2.15829 6.22454 1.9716 
131 1 -2.33163 6.21397 11.0068 
138 1 1.35895 7.99694 0.823933 
142 1 -2.53827 8.79772 8.70678 
145 1 -4.44729 9.77525 7.48924 
151 1 -5.00865 10.4029 11.0397 
154 1 -2.99032 9.63657 9.8386 
155 1 -2.93441 6.27239 7.43265 
12 1 2.55885 7.07725 17.1369 
17 1 0.403301 9.33122 20.9166 
24 1 -3.51928 8.3987 11.862 
27 1 -0.25054 7.19821 21.6344 
29 1 0.611995 5.97274 22.0203 
31 1 1.28507 7.19218 17.9006 
44 1 -0.12073 7.17162 20.1377 
46 1 0.140648 8.50026 19.7191 
51 1 -0.252439 7.19619 11.1289 
53 1 2.55877 7.07551 15.6225 
56 1 1.28439 7.19197 14.8636 
63 1 -2.32542 6.21762 21.7543 
66 1 -3.37608 6.72811 20.863 
70 1 -0.119435 7.17164 12.6251 
72 1 0.537388 5.93163 12.972 
92 1 0.91439 8.4565 14.2498 
95 1 -4.98012 10.4528 21.7343 
98 1 -4.68682 9.27857 20.8432 
104 1 0.403122 9.33267 11.8486 
116 1 -2.62348 8.75297 21.8214 
118 1 -3.61068 8.37777 20.909 
122 1 0.140404 8.49763 13.0439 
133 1 -3.34559 6.79358 11.9205 
136 1 0.307876 8.50278 22.0843 
147 1 0.538945 5.935 19.7868 
153 1 -4.66731 9.21368 11.9244 
160 1 0.914486 8.45699 18.5153 
1 1 7.82676 4.93241 10.5211 
4 1 9.16785 4.7536 11.132 
20 1 7.86765 4.9528 9.08416 
42 1 9.46557 5.45333 7.4227 
67 1 9.97407 4.5645 0.761358 
77 1 7.86342 4.92231 0.0841709 
94 1 7.85867 4.94632 1.55232 
96 1 9.17999 4.66365 1.99729 
121 1 4.66287 5.46902 10.7059 
130 1 9.45888 5.44087 3.17353 
134 1 10.0006 4.59035 9.77996 
152 1 9.20648 4.65818 8.61764 
45 1 4.66426 5.46812 22.0595 
55 1 4.82 5.50242 13.0671 
106 1 9.16624 4.78912 21.7515 
137 1 4.81983 5.50337 19.6973 
161 2 9.32537 4.25739 12.1642 
162 2 9.12215 2.82158 11.561 
163 3 9.94259 2.57959 11.9899 
2 1 7.27468 10.5062 9.05577 
3 1 8.95919 7.68591 6.0738 
6 1 8.52775 6.39379 6.82372 
16 1 2.35653 8.69483 0.852403 
22 1 7.12565 6.17476 8.70025 
26 1 7.17303 8.42462 7.52574 
35 1 7.22089 10.5855 10.5009 
37 1 6.87075 9.26461 11.0188 
39 1 8.24429 8.91847 6.75358 
41 1 6.70918 7.0137 9.81992 
48 1 3.69704 6.36168 0.830317 
61 1 7.25617 10.5051 1.56334 
62 1 8.97231 7.65648 4.54815 
64 1 6.71058 9.22155 1.99372 
68 1 7.39969 6.96744 3.05691 
71 1 4.30986 8.52812 10.7593 
74 1 3.60494 7.78656 9.82202 
81 1 8.52334 6.39615 3.78928 
83 1 6.54938 8.43594 0.784776 
93 1 7.229 10.5502 0.111668 
97 1 8.27411 8.92991 3.84506 
101 1 2.36668 9.93505 10.6702 
103 1 2.35608 8.69398 9.76329 
117 1 7.1232 6.18794 1.90208 
120 1 7.18242 8.42241 3.07179 
123 1 3.70227 6.36097 9.78426 
129 1 6.7277 7.0035 0.779178 
132 1 6.70034 9.22584 8.63747 
135 1 7.40284 6.94817 7.55713 
141 1 7.21901 6.1986 10.9167 
144 1 6.54575 8.43309 9.80272 
148 1 3.605 7.78716 0.793117 
7 1 9.15484 6.18637 11.9573 
10 1 3.66692 9.78773 21.6036 
13 1 2.36782 9.93734 22.0897 
15 1 3.01077 8.33036 17.9023 
28 1 3.67883 9.77716 20.1366 
30 1 4.41005 8.53435 19.7889 
34 1 4.33741 6.30187 18.6212 
40 1 7.73805 8.40604 11.8919 
49 1 4.8066 7.72152 20.9082 
50 1 2.074 9.28508 18.5163 
58 1 1.56383 10.1564 11.8382 
59 1 4.13684 7.76055 14.1304 
69 1 3.66208 9.78462 11.162 
73 1 3.01115 8.33032 14.861 
75 1 4.98959 6.28913 11.8613 
79 1 7.22204 6.20139 21.8366 
82 1 7.92843 6.93462 20.8962 
86 1 3.67828 9.77977 12.6261 
88 1 2.35519 10.0623 13.0741 
108 1 9.17764 6.03093 20.8377 
112 1 4.41002 8.53383 12.9722 
115 1 4.3388 6.30163 14.1419 
124 1 4.80892 7.7202 11.8565 
125 1 2.0743 9.28455 14.2481 
126 1 6.86872 9.25939 21.7829 
128 1 7.82842 8.36334 20.8556 
139 1 1.56078 10.1581 20.9256 
140 1 4.13799 7.75904 18.6308 
143 1 7.8925 6.96897 11.8839 
146 1 4.31142 8.52576 22.0039 
149 1 4.98531 6.28866 20.9038 
157 1 2.35525 10.0619 19.6917 
ITEM: TIMESTEP
30
ITEM: NUMBER OF ATOMS
163
ITEM: BOX BOUNDS xy xz yz pp pp pp
-6.7755000000000001e+00 1.3552000000000000e+01 -6.7755000000000001e+00
0.0000000000000000e+00 1.1735510246683001e+01 0.0000000000000000e+00
0.0000000000000000e+00 2.2149999999999999e+01 0.0000000000000000e+00
ITEM: ATOMS id type x y z 
8 1 -2.43679 5.39355 9.83688 
87 1 2.95114 4.28125 10.6533 
90 1 2.65421 5.44124 9.77164 
109 1 -2.43268 5.40865 0.781201 
158 1 2.65178 5.44281 0.844077 
11 1 4.27284 4.22856 20.1172 
14 1 2.88254 4.15319 19.7047 
18 1 1.29686 5.85261 18.5736 
33 1 2.09163 4.27079 20.905 
43 1 4.28937 4.20738 21.5602 
47 1 3.25176 5.79354 17.8346 
52 1 4.2698 4.23322 12.6424 
76 1 2.44145 4.92636 14.1843 
85 1 4.29524 4.19929 11.1953 
89 1 3.25149 5.79481 14.9297 
91 1 0.957925 5.12331 11.8406 
102 1 2.88208 4.1538 13.0595 
105 1 1.29587 5.85254 14.1903 
114 1 2.09094 4.27075 11.8604 
150 1 2.44118 4.92426 18.5803 
156 1 2.95334 4.28006 22.1123 
159 1 0.958192 5.12287 20.9225 
5 1 -4.89336 10.5411 8.613 
9 1 -3.29218 8.86061 7.52801 
19 1 -1.75942 7.49414 10.5556 
21 1 -2.58664 8.79148 10.9549 
23 1 -3.2993 7.57558 6.83068 
25 1 -4.11842 10.4433 9.82943 
32 1 1.60285 6.36994 0.781934 
36 1 -1.87533 7.5463 9.07059 
38 1 -2.15699 6.24222 8.62842 
54 1 0.317193 8.48953 10.6761 
57 1 1.36562 7.98499 9.79433 
60 1 -1.76913 7.53246 0.0541306 
65 1 -3.29964 7.54353 3.78979 
78 1 -1.8751 7.56438 1.5479 
80 1 -2.53607 8.79529 1.89617 
84 1 -4.45868 9.79586 3.10876 
99 1 -2.9721 9.60195 0.766508 
100 1 -2.93815 6.2807 3.17089 
107 1 -4.9001 10.5678 1.98475 
110 1 -3.31446 8.87354 3.11314 
111 1 0.606383 5.96297 10.728 
113 1 1.60396 6.37334 9.83368 
119 1 -4.10815 10.4516 0.785568 
127 1 -2.15852 6.23746 1.97296 
131 1 -2.34101 6.22681 11.0063 
138 1 1.36717 7.9862 0.821876 
142 1 -2.52062 8.8103 8.70398 
145 1 -4.44453 9.75455 7.4911 
151 1 -4.97773 10.3985 11.0328 
154 1 -2.97283 9.61635 9.84684 
155 1 -2.93721 6.28805 7.43665 
12 1 2.56006 7.07644 17.1505 
17 1 0.415388 9.31486 20.9098 
24 1 -3.51523 8.3866 11.8668 
27 1 -0.248836 7.19015 21.6352 
29 1 0.608427 5.96493 22.0345 
31 1 1.28007 7.18338 17.8954 
44 1 -0.13588 7.15961 20.1415 
46 1 0.140735 8.48709 19.7169 
51 1 -0.251786 7.18558 11.1254 
53 1 2.56031 7.0761 15.6134 
56 1 1.27949 7.18371 14.8672 
63 1 -2.33619 6.23126 21.7505 
66 1 -3.38386 6.73791 20.8676 
70 1 -0.134952 7.15832 12.623 
72 1 0.521387 5.92729 12.9742 
92 1 0.918263 8.44551 14.2463 
95 1 -4.96961 10.4436 21.7292 
98 1 -4.67231 9.28384 20.8423 
104 1 0.415696 9.31424 11.8532 
116 1 -2.6252 8.75766 21.8034 
118 1 -3.62085 8.35893 20.9072 
122 1 0.141875 8.4856 13.0469 
133 1 -3.35715 6.80851 11.9189 
136 1 0.317442 8.4909 22.0888 
147 1 0.523536 5.92679 19.7892 
153 1 -4.66617 9.21012 11.9213 
160 1 0.919113 8.44603 18.5174 
1 1 7.80603 4.94518 10.5228 
4 1 9.17134 4.75321 11.1185 
20 1 7.85129 4.95326 9.09209 
42 1 9.45705 5.46461 7.43104 
67 1 9.9661 4.58009 0.773043 
77 1 7.83628 4.92548 0.0852478 
94 1 7.83603 4.94625 1.54631 
96 1 9.16739 4.68061 1.99729 
121 1 4.6483 5.49875 10.6913 
130 1 9.45076 5.45645 3.17153 
134 1 9.97343 4.60645 9.79888 
152 1 9.19193 4.67962 8.61224 
45 1 4.65039 5.49778 22.075 
55 1 4.81777 5.51691 13.0643 
106 1 9.14834 4.81134 21.7585 
137 1 4.81766 5.51689 19.6998 
161 2 9.32383 4.26131 12.1446 
162 2 9.11944 2.79947 11.5648 
163 3 9.9486 2.56867 11.9913 
2 1 7.28134 10.4907 9.0489 
3 1 8.95479 7.68635 6.08188 
6 1 8.51963 6.40386 6.81179 
16 1 2.36372 8.69751 0.85899 
22 1 7.10369 6.17485 8.6993 
26 1 7.1817 8.41853 7.52411 
35 1 7.24751 10.5421 10.4951 
37 1 6.84575 9.23255 11.0166 
39 1 8.2323 8.92068 6.74554 
41 1 6.70124 6.9953 9.82477 
48 1 3.70281 6.35081 0.82978 
61 1 7.26206 10.4923 1.5704 
62 1 8.97233 7.65081 4.54225 
64 1 6.71316 9.20557 1.99181 
68 1 7.39074 6.96287 3.06228 
71 1 4.31771 8.52166 10.7464 
74 1 3.59449 7.80025 9.81018 
81 1 8.51134 6.3955 3.8 
83 1 6.54673 8.41882 0.790235 
93 1 7.24252 10.5204 0.125577 
97 1 8.28261 8.92322 3.85509 
101 1 2.38335 9.91653 10.6777 
103 1 2.36319 8.696 9.75545 
117 1 7.1031 6.18277 1.90909 
120 1 7.19006 8.416 3.07812 
123 1 3.7031 6.35111 9.78484 
129 1 6.71585 6.9906 0.775485 
132 1 6.71143 9.20934 8.62356 
135 1 7.39081 6.94401 7.54838 
141 1 7.21171 6.20281 10.919 
144 1 6.54375 8.42188 9.80929 
148 1 3.59499 7.79911 0.804252 
7 1 9.14282 6.204 11.9624 
10 1 3.69028 9.78707 21.5996 
13 1 2.38522 9.91563 22.0833 
15 1 3.02304 8.33189 17.8909 
28 1 3.70132 9.77935 20.142 
30 1 4.43096 8.53996 19.7802 
34 1 4.33438 6.30664 18.6132 
40 1 7.73682 8.41171 11.8959 
49 1 4.81998 7.73258 20.9124 
50 1 2.08132 9.27021 18.5185 
58 1 1.57022 10.1407 11.8479 
59 1 4.1439 7.76448 14.1361 
69 1 3.68545 9.78324 11.1658 
73 1 3.02208 8.33208 14.8713 
75 1 4.99367 6.30586 11.8653 
79 1 7.2199 6.2044 21.8236 
82 1 7.93684 6.92508 20.8868 
86 1 3.70192 9.78123 12.6221 
88 1 2.36742 10.0457 13.0715 
108 1 9.17157 6.02837 20.831 
112 1 4.43048 8.54053 12.9817 
115 1 4.33546 6.30756 14.1498 
124 1 4.82137 7.73224 11.8512 
125 1 2.08094 9.27018 14.2461 
126 1 6.88425 9.22712 21.7661 
128 1 7.83319 8.37223 20.8585 
139 1 1.56898 10.1431 20.9162 
140 1 4.14395 7.76446 18.6255 
143 1 7.89545 6.97339 11.8964 
146 1 4.31652 8.52049 22.0173 
149 1 4.98854 6.30581 20.8985 
157 1 2.36781 10.0449 19.6924 
ITEM: TIMESTEP
40
ITEM: NUMBER OF ATOMS
163
ITEM: BOX BOUNDS xy xz yz pp pp pp
-6.7755000000000001e+00 1.3552000000000000e+01 -6.7755000000000001e+00
0.0000000000000000e+00 1.1735510246683001e+01 0.0000000000000000e+00
0.0000000000000000e+00 2.2149999999999999e+01 0.0000000000000000e+00
ITEM: ATOMS id type x y z 
8 1 -2.46766 5.44129 9.82846 
87 1 2.9397 4.30334 10.6537 
90 1 2.63318 5.44363 9.74515 
109 1 -2.45463 5.45285 0.786961 
158 1 2.63341 5.44105 0.871439 
11 1 4.25463 4.26914 20.1041 
14 1 2.85375 4.18006 19.7139 
18 1 1.27309 5.84387 18.5544 
33 1 2.06786 4.29119 20.9055 
43 1 4.26317 4.2681 21.5363 
47 1 3.23101 5.80733 17.8189 
52 1 4.25304 4.27103 12.6531 
76 1 2.41399 4.93855 14.1916 
85 1 4.26663 4.26114 11.221 
89 1 3.23021 5.81128 14.9451 
91 1 0.927664 5.13973 11.835 
102 1 2.85464 4.18191 13.0503 
105 1 1.27479 5.84362 14.209 
114 1 2.06623 4.29011 11.8583 
150 1 2.41474 4.94138 18.5709 
156 1 2.93823 4.30318 22.1122 
159 1 0.929955 5.1416 20.9297 
5 1 -4.86175 10.4914 8.62438 
9 1 -3.25249 8.86411 7.51845 
19 1 -1.75677 7.52346 10.569 
21 1 -2.53774 8.79911 10.9921 
23 1 -3.30323 7.57724 6.82473 
25 1 -4.07056 10.4173 9.81875 
32 1 1.59448 6.39199 0.805967 
36 1 -1.83986 7.57768 9.06659 
38 1 -2.14834 6.27678 8.628 
54 1 0.332752 8.46401 10.6797 
57 1 1.38285 7.97796 9.78709 
60 1 -1.76967 7.56157 0.0426867 
65 1 -3.29722 7.54284 3.80291 
78 1 -1.84677 7.59674 1.54997 
80 1 -2.50492 8.81109 1.91162 
84 1 -4.43456 9.78544 3.11657 
99 1 -2.94511 9.58122 0.757953 
100 1 -2.93818 6.29892 3.16597 
107 1 -4.87229 10.5434 1.97406 
110 1 -3.29129 8.87884 3.13016 
111 1 0.583367 5.95996 10.703 
113 1 1.59287 6.38596 9.80763 
119 1 -4.08349 10.4311 0.783024 
127 1 -2.14983 6.27422 1.97175 
131 1 -2.3559 6.25926 11.0026 
138 1 1.38448 7.97597 0.828466 
142 1 -2.46546 8.8273 8.69565 
145 1 -4.434 9.71715 7.47741 
151 1 -4.95144 10.3536 11.03 
154 1 -2.9319 9.59905 9.85632 
155 1 -2.94017 6.30878 7.44169 
12 1 2.57409 7.06903 17.1458 
17 1 0.436784 9.27075 20.9023 
24 1 -3.48953 8.38945 11.8817 
27 1 -0.247172 7.16096 21.6459 
29 1 0.581117 5.96567 22.0593 
31 1 1.27792 7.18282 17.8926 
44 1 -0.169401 7.12606 20.1383 
46 1 0.134476 8.45143 19.717 
51 1 -0.254262 7.15498 11.1169 
53 1 2.57257 7.07106 15.6143 
56 1 1.27937 7.18155 14.8755 
63 1 -2.35068 6.25723 21.7534 
66 1 -3.40295 6.74962 20.8614 
70 1 -0.168852 7.12653 12.6253 
72 1 0.489034 5.91332 12.9853 
92 1 0.919354 8.42844 14.2423 
95 1 -4.95528 10.4207 21.7268 
98 1 -4.64799 9.28203 20.8194 
104 1 0.436481 9.26945 11.8598 
116 1 -2.59709 8.75894 21.7795 
118 1 -3.6121 8.33219 20.8822 
122 1 0.133543 8.44945 13.0457 
133 1 -3.376 6.82658 11.9286 
136 1 0.33495 8.46711 22.0862 
147 1 0.488719 5.91403 19.781 
153 1 -4.65487 9.20451 11.933 
160 1 0.91883 8.4262 18.5218 
1 1 7.77296 4.95165 10.5302 
4 1 9.13975 4.76036 11.1108 
20 1 7.80284 4.96218 9.0977 
42 1 9.44687 5.49837 7.43902 
67 1 9.93813 4.62156 0.781393 
77 1 7.77195 4.91037 0.0783965 
94 1 7.78469 4.953 1.5579 
96 1 9.11516 4.71615 1.99949 
121 1 4.6243 5.5409 10.6849 
130 1 9.43161 5.48073 3.16735 
134 1 9.94181 4.64284 9.80213 
152 1 9.14464 4.71903 8.62564 
45 1 4.62267 5.53922 22.0798 
55 1 4.81346 5.56001 13.0672 
106 1 9.11503 4.84438 21.778 
137 1 4.81295 5.5573 19.6947 
161 2 9.32437 4.26286 12.1038 
162 2 9.11577 2.7437 11.5756 
163 3 9.95938 2.54496 11.9935 
2 1 7.30382 10.4417 9.02991 
3 1 8.93536 7.71646 6.08413 
6 1 8.51041 6.41338 6.80221 
16 1 2.37653 8.70346 0.880293 
22 1 7.05156 6.16534 8.67475 
26 1 7.17648 8.38313 7.50088 
35 1 7.27346 10.4806 10.4843 
37 1 6.85219 9.20419 11.0255 
39 1 8.22267 8.92532 6.71806 
41 1 6.66727 6.97517 9.82045 
48 1 3.68403 6.36127 0.861425 
61 1 7.27803 10.4534 1.58382 
62 1 8.96519 7.65252 4.54558 
64 1 6.71899 9.16675 1.99425 
68 1 7.36489 6.94925 3.07319 
71 1 4.33924 8.51779 10.7225 
74 1 3.59887 7.80792 9.77986 
81 1 8.50056 6.39876 3.81441 
83 1 6.54278 8.38228 0.796425 
93 1 7.27232 10.4575 0.15235 
97 1 8.30114 8.91873 3.86453 
101 1 2.42016 9.88879 10.697 
103 1 2.3754 8.70328 9.73338 
117 1 7.05454 6.16391 1.92788 
120 1 7.20054 8.39397 3.09342 
123 1 3.68872 6.36161 9.7549 
129 1 6.6809 6.96422 0.776118 
132 1 6.71655 9.1785 8.62904 
135 1 7.36688 6.93233 7.5333 
141 1 7.18794 6.20786 10.9484 
144 1 6.52458 8.37922 9.79301 
148 1 3.60056 7.80885 0.833482 
7 1 9.12042 6.22405 11.974 
10 1 3.74928 9.7921 21.6038 
13 1 2.42136 9.88632 22.0649 
15 1 3.03027 8.32767 17.8768 
28 1 3.75302 9.77505 20.1326 
30 1 4.4833 8.55768 19.7611 
34 1 4.3344 6.331 18.5979 
40 1 7.71903 8.41479 11.919 
49 1 4.85355 7.76032 20.9112 
50 1 2.10103 9.24577 18.5221 
58 1 1.59683 10.1022 11.8558 
59 1 4.16734 7.77349 14.1459 
69 1 3.74412 9.78581 11.1627 
73 1 3.03029 8.32581 14.8885 
75 1 4.99857 6.34035 11.8689 
79 1 7.19648 6.21169 21.7994 
82 1 7.93484 6.91691 20.8561 
86 1 3.7531 9.77676 12.6304 
88 1 2.41612 10.0107 13.0737 
108 1 9.15672 6.02196 20.8124 
112 1 4.48377 8.55746 13.0025 
115 1 4.3331 6.33026 14.1654 
124 1 4.85325 7.75765 11.8543 
125 1 2.09927 9.2466 14.2403 
126 1 6.9113 9.18365 21.7567 
128 1 7.84291 8.36652 20.8305 
139 1 1.59658 10.1033 20.9074 
140 1 4.16675 7.77208 18.6165 
143 1 7.87364 6.97963 11.9311 
146 1 4.33969 8.51653 22.0395 
149 1 4.99405 6.33962 20.8959 
157 1 2.41712 10.0103 19.6913 
ITEM: TIMESTEP
50
ITEM: NUMBER OF ATOMS
163
ITEM: BOX BOUNDS xy xz yz pp pp pp
-6.7755000000000001e+00 1.3552000000000000e+01 -6.7755000000000001e+00
0.0000000000000000e+00 1.1735510246683001e+01 0.0000000000000000e+00
0.0000000000000000e+00 2.2149999999999999e+01 0.0000000000000000e+00
ITEM: ATOMS id type x y z 
8 1 -2.47433 5.44958 9.8289 
87 1 2.93343 4.31244 10.65 
90 1 2.63129 5.44929 9.73834 
109 1 -2.46075 5.46042 0.78818 
158 1 2.6306 5.44897 0.877556 
11 1 4.24947 4.27993 20.0988 
14 1 2.84985 4.18415 19.7135 
18 1 1.26833 5.8477 18.5536 
33 1 2.06354 4.29617 20.9101 
43 1 4.25674 4.27597 21.5346 
47 1 3.23085 5.80061 17.8269 
52 1 4.24891 4.28145 12.6608 
76 1 2.40863 4.93529 14.1943 
85 1 4.26043 4.27158 11.2239 
89 1 3.23139 5.80064 14.9368 
91 1 0.920865 5.13915 11.8333 
102 1 2.85051 4.18559 13.0496 
105 1 1.26893 5.84819 14.2106 
114 1 2.06263 4.29529 11.8543 
150 1 2.4086 4.93528 18.5695 
156 1 2.93241 4.3127 22.115 
159 1 0.922208 5.14146 20.9313 
5 1 -4.85389 10.483 8.62114 
9 1 -3.24323 8.86346 7.51643 
19 1 -1.75451 7.52876 10.5667 
21 1 -2.53254 8.80451 10.9933 
23 1 -3.30398 7.57966 6.82545 
25 1 -4.07147 10.4089 9.82545 
32 1 1.58664 6.38508 0.813096 
36 1 -1.82871 7.58332 9.06606 
38 1 -2.1478 6.28384 8.62833 
54 1 0.339239 8.45699 10.6782 
57 1 1.38554 7.97838 9.78357 
60 1 -1.7658 7.5643 0.0465215 
65 1 -3.29997 7.54142 3.80206 
78 1 -1.8395 7.60329 1.55096 
80 1 -2.49927 8.81553 1.91411 
84 1 -4.42683 9.78843 3.11798 
99 1 -2.93825 9.58186 0.757466 
100 1 -2.93699 6.29573 3.16425 
107 1 -4.86794 10.5389 1.97466 
110 1 -3.28622 8.87562 3.13282 
111 1 0.58222 5.95585 10.6999 
113 1 1.58622 6.38264 9.80138 
119 1 -4.07973 10.4258 0.778835 
127 1 -2.14831 6.28029 1.97184 
131 1 -2.36517 6.26516 11.0033 
138 1 1.38768 7.97831 0.832329 
142 1 -2.45552 8.83209 8.69506 
145 1 -4.42779 9.71412 7.47607 
151 1 -4.95088 10.3463 11.0227 
154 1 -2.91534 9.59892 9.85775 
155 1 -2.93699 6.31045 7.44285 
12 1 2.57313 7.06695 17.1461 
17 1 0.443717 9.26395 20.9013 
24 1 -3.48565 8.39259 11.8892 
27 1 -0.250739 7.15953 21.6424 
29 1 0.579961 5.9612 22.0628 
31 1 1.28099 7.18431 17.8908 
44 1 -0.176734 7.1203 20.1381 
46 1 0.130928 8.44461 19.7176 
51 1 -0.255472 7.15229 11.1202 
53 1 2.57307 7.06717 15.6161 
56 1 1.27996 7.1851 14.8742 
63 1 -2.35687 6.26338 21.7512 
66 1 -3.40481 6.74654 20.8583 
70 1 -0.175674 7.11938 12.6266 
72 1 0.483371 5.9087 12.9892 
92 1 0.917075 8.43054 14.2399 
95 1 -4.94959 10.4114 21.7245 
98 1 -4.64728 9.27562 20.8119 
104 1 0.44358 9.26213 11.8611 
116 1 -2.5969 8.76234 21.7756 
118 1 -3.60402 8.33858 20.8764 
122 1 0.130966 8.44324 13.0458 
133 1 -3.37976 6.82642 11.9307 
136 1 0.340376 8.46052 22.0875 
147 1 0.483541 5.90918 19.7756 
153 1 -4.6515 9.19148 11.9419 
160 1 0.917395 8.43061 18.524 
1 1 7.76061 4.95623 10.5341 
4 1 9.13417 4.76798 11.1099 
20 1 7.78958 4.96491 9.09946 
42 1 9.44284 5.50009 7.44408 
67 1 9.93148 4.63319 0.785947 
77 1 7.75598 4.8984 0.0776641 
94 1 7.77453 4.95584 1.55069 
96 1 9.10728 4.72025 1.99956 
121 1 4.61961 5.54835 10.685 
130 1 9.43122 5.48324 3.16551 
134 1 9.93326 4.65335 9.80234 
152 1 9.1373 4.72687 8.62411 
45 1 4.61846 5.54846 22.0793 
55 1 4.81206 5.56488 13.0701 
106 1 9.10129 4.85222 21.7807 
137 1 4.81201 5.56407 19.6924 
161 2 9.32548 4.259 12.0988 
162 2 9.1154 2.73179 11.5778 
163 3 9.96125 2.54039 11.9936 
2 1 7.30985 10.4342 9.03044 
3 1 8.93346 7.7184 6.08631 
6 1 8.50817 6.41597 6.80235 
16 1 2.38291 8.70426 0.881634 
22 1 7.03869 6.16011 8.67272 
26 1 7.16997 8.38715 7.4953 
35 1 7.27945 10.4775 10.4746 
37 1 6.85579 9.19658 11.0191 
39 1 8.21788 8.92675 6.72143 
41 1 6.66138 6.96533 9.82307 
48 1 3.68156 6.36345 0.868971 
61 1 7.28397 10.4433 1.58983 
62 1 8.96316 7.65829 4.54862 
64 1 6.72058 9.15998 1.99708 
68 1 7.36193 6.94312 3.07778 
71 1 4.3444 8.51574 10.7218 
74 1 3.60324 7.81339 9.77589 
81 1 8.49789 6.4015 3.81318 
83 1 6.54282 8.3797 0.793424 
93 1 7.27749 10.4493 0.154018 
97 1 8.30304 8.92153 3.86002 
101 1 2.43018 9.88185 10.6977 
103 1 2.38099 8.70408 9.73175 
117 1 7.04173 6.1611 1.93282 
120 1 7.20054 8.38994 3.09706 
123 1 3.68296 6.36384 9.74677 
129 1 6.675 6.95494 0.774964 
132 1 6.71445 9.16467 8.62356 
135 1 7.36259 6.92391 7.52744 
141 1 7.18212 6.20915 10.9464 
144 1 6.52418 8.38183 9.80176 
148 1 3.60481 7.81336 0.837718 
7 1 9.11535 6.22352 11.9744 
10 1 3.76333 9.80085 21.6038 
13 1 2.43114 9.87889 22.064 
15 1 3.03422 8.32653 17.8802 
28 1 3.76533 9.77383 20.135 
30 1 4.49601 8.56121 19.7565 