ITEM: TIMESTEP
0
ITEM: NUMBER OF ATOMS
163
ITEM: BOX BOUNDS xy xz yz pp pp pp
-6.7755000000000001e+00 1.3552000000000000e+01 -6.7755000000000001e+00
0.0000000000000000e+00 1.1735510246683001e+01 0.0000000000000000e+00
0.0000000000000000e+00 2.2149999999999999e+01 0.0000000000000000e+00
ITEM: ATOMS id type x y z 
8 1 -2.486 5.297 9.849 
87 1 3.001 4.231 10.696 
90 1 2.733 5.481 9.824 
109 1 -2.486 5.297 0.765 
158 1 2.733 5.481 0.79 
11 1 4.24 4.139 20.131 
14 1 3.031 4.094 19.728 
18 1 1.299 5.827 18.554 
33 1 2.266 4.151 20.924 
43 1 4.343 3.96 21.647 
47 1 3.32 5.732 17.88 
52 1 4.24 4.139 12.633 
76 1 2.552 4.924 14.209 
85 1 4.343 3.96 11.117 
89 1 3.32 5.732 14.883 
91 1 1.036 5.037 11.84 
102 1 3.031 4.094 13.035 
105 1 1.299 5.827 14.209 
114 1 2.266 4.151 11.84 
150 1 2.552 4.924 18.554 
156 1 3.001 4.231 22.068 
159 1 1.036 5.037 20.924 
5 1 -5.049 10.63 8.653 
9 1 -3.317 8.897 7.479 
19 1 -1.707 7.414 10.572 
21 1 -2.66 8.795 10.993 
23 1 -3.31 7.532 6.805 
25 1 -4.284 10.573 9.849 
32 1 1.503 6.367 0.79 
36 1 -1.869 7.426 9.056 
38 1 -2.209 6.086 8.653 
54 1 0.3 8.576 10.696 
57 1 1.291 8.001 9.824 
60 1 -1.707 7.414 0.042 
65 1 -3.31 7.532 3.808 
78 1 -1.869 7.426 1.558 
80 1 -2.566 8.842 1.961 
84 1 -4.57 9.799 3.135 
99 1 -3.054 9.687 0.765 
100 1 -2.96 6.142 3.135 
107 1 -5.049 10.63 1.961 
110 1 -3.317 8.897 3.135 
111 1 0.642 5.929 10.696 
113 1 1.503 6.367 9.824 
119 1 -4.284 10.573 0.765 
127 1 -2.209 6.086 1.961 
131 1 -2.318 6.148 10.993 
138 1 1.291 8.001 0.79 
142 1 -2.566 8.842 8.653 
145 1 -4.57 9.799 7.479 
151 1 -5.019 10.493 10.993 
154 1 -3.054 9.687 9.849 
155 1 -2.96 6.142 7.479 
12 1 2.53 7.1 17.202 
17 1 0.468 9.427 20.924 
24 1 -3.52 8.357 11.865 
27 1 -0.31 7.31 21.647 
29 1 0.642 5.929 22.068 
31 1 1.292 7.192 17.88 
44 1 -0.148 7.298 20.131 
46 1 0.191 8.638 19.728 
51 1 -0.31 7.31 11.117 
53 1 2.53 7.1 15.561 
56 1 1.292 7.192 14.883 
63 1 -2.318 6.148 21.771 
66 1 -3.309 6.723 20.899 
70 1 -0.148 7.298 12.633 
72 1 0.548 5.882 13.035 
92 1 0.942 8.582 14.209 
95 1 -5.019 10.493 21.771 
98 1 -4.751 9.243 20.899 
104 1 0.468 9.427 11.84 
116 1 -2.66 8.795 21.771 
118 1 -3.52 8.357 20.899 
122 1 0.191 8.638 13.035 
133 1 -3.309 6.723 11.865 
136 1 0.3 8.576 22.068 
147 1 0.548 5.882 19.728 
153 1 -4.751 9.243 11.865 
160 1 0.942 8.582 18.554 
1 1 7.976 4.694 10.572 
4 1 9.274 4.77 10.993 
20 1 8.034 4.861 9.056 
42 1 9.55 5.41 7.479 
67 1 10.043 4.578 0.765 
77 1 7.976 4.694 0.042 
94 1 8.035 4.861 1.558 
96 1 9.278 4.635 1.961 
121 1 4.688 5.417 10.696 
130 1 9.55 5.41 3.135 
134 1 10.043 4.578 9.849 
152 1 9.278 4.635 8.653 
45 1 4.688 5.417 22.068 
55 1 4.788 5.329 13.035 
106 1 9.274 4.77 21.771 
137 1 4.788 5.329 19.728 
2 1 7.294 10.585 9.056 
3 1 9.004 7.624 6.127 
6 1 8.556 6.347 6.805 
16 1 2.314 8.72 0.79 
22 1 7.166 6.156 8.653 
26 1 7.226 8.565 7.479 
35 1 7.191 10.764 10.572 
37 1 6.846 9.307 10.993 
39 1 8.214 8.992 6.805 
41 1 6.677 7.002 9.849 
48 1 3.775 6.213 0.79 
61 1 7.294 10.585 1.558 
62 1 9.004 7.624 4.487 
64 1 6.747 9.395 1.961 
68 1 7.437 6.931 3.135 
71 1 4.29 8.493 10.696 
74 1 3.567 7.818 9.824 
81 1 8.556 6.347 3.808 
83 1 6.47 8.606 0.765 
93 1 7.191 10.764 0.042 
97 1 8.214 8.992 3.808 
101 1 2.261 9.954 10.696 
103 1 2.314 8.72 9.824 
117 1 7.166 6.156 1.961 
120 1 7.226 8.565 3.135 
123 1 3.775 6.213 9.824 
129 1 6.677 7.002 0.765 
132 1 6.747 9.395 8.653 
135 1 7.437 6.931 7.479 
141 1 7.244 6.231 10.993 
144 1 6.47 8.606 9.849 
148 1 3.567 7.818 0.79 
161 2 5.16 9.52 10.591 
162 2 4.663 10.082 9.302 
163 3 4.28 10.946 9.526 
7 1 9.22 6.004 11.865 
10 1 3.558 10.029 21.647 
13 1 2.261 9.954 22.068 
15 1 2.978 8.376 17.88 
28 1 3.5 9.862 20.131 
30 1 4.369 8.568 19.728 
34 1 4.308 6.159 18.554 
40 1 7.76 8.511 11.865 
49 1 4.857 7.722 20.924 
50 1 1.984 9.314 18.554 
58 1 1.491 10.146 11.84 
59 1 4.097 7.793 14.209 
69 1 3.558 10.029 11.117 
73 1 2.978 8.376 14.883 
75 1 5.064 6.118 11.84 
79 1 7.244 6.231 21.771 
82 1 7.967 6.906 20.899 
86 1 3.5 9.862 12.633 
88 1 2.256 10.089 13.035 
108 1 9.22 6.004 20.899 
112 1 4.369 8.568 13.035 
115 1 4.308 6.159 14.209 
124 1 4.857 7.722 11.84 
125 1 1.984 9.314 14.209 
126 1 6.846 9.307 21.771 
128 1 7.76 8.511 20.899 
139 1 1.491 10.146 20.924 
140 1 4.097 7.793 18.554 
143 1 7.967 6.906 11.865 
146 1 4.29 8.493 22.068 
149 1 5.064 6.118 20.924 
157 1 2.256 10.089 19.728 
ITEM: TIMESTEP
10
ITEM: NUMBER OF ATOMS
163
ITEM: BOX BOUNDS xy xz yz pp pp pp
-6.7755000000000001e+00 1.3552000000000000e+01 -6.7755000000000001e+00
0.0000000000000000e+00 1.1735510246683001e+01 0.0000000000000000e+00
0.0000000000000000e+00 2.2149999999999999e+01 0.0000000000000000e+00
ITEM: ATOMS id type x y z 
8 1 -2.40901 5.35329 9.8566 
87 1 2.97435 4.27432 10.6426 
90 1 2.65409 5.52274 9.79489 
109 1 -2.40483 5.35599 0.763977 
158 1 2.65281 5.47605 0.833419 
11 1 4.29941 4.15827 20.1438 
14 1 2.91273 4.12897 19.6888 
18 1 1.33317 5.85459 18.5835 
33 1 2.1507 4.20899 20.8921 
43 1 4.3238 4.12011 21.5939 
47 1 3.25708 5.79392 17.8347 
52 1 4.30261 4.1634 12.6104 
76 1 2.43854 4.92436 14.1885 
85 1 4.31277 4.1385 11.1545 
89 1 3.25978 5.79349 14.9326 
91 1 1.01121 5.05338 11.8675 
102 1 2.91149 4.12215 13.0763 
105 1 1.32133 5.86285 14.1747 
114 1 2.15441 4.21159 11.8556 
150 1 2.44187 4.92389 18.5799 
156 1 2.97682 4.24025 22.1255 
159 1 1.00455 5.05815 20.9117 
5 1 -4.93466 10.5979 8.61259 
9 1 -3.33729 8.86646 7.51168 
19 1 -1.74921 7.46485 10.5557 
21 1 -2.63739 8.78284 10.88 
23 1 -3.31458 7.55439 6.84914 
25 1 -4.16032 10.5283 9.80816 
32 1 1.58113 6.34527 0.772991 
36 1 -1.89786 7.51059 9.0656 
38 1 -2.15764 6.19173 8.63452 
54 1 0.284972 8.53347 10.6724 
57 1 1.35497 7.93328 9.78404 
60 1 -1.75707 7.48486 0.0593668 
65 1 -3.31423 7.52208 3.78447 
78 1 -1.9039 7.52 1.55591 
80 1 -2.54025 8.78677 1.83819 
84 1 -4.47496 9.82467 3.10823 
99 1 -3.0157 9.64766 0.7851 
100 1 -2.92049 6.25662 3.17694 
107 1 -4.93797 10.6032 1.99804 
110 1 -3.36378 8.88173 3.11434 
111 1 0.587951 5.9504 10.815 
113 1 1.5251 6.3504 9.85186 
119 1 -4.16254 10.5077 0.786477 
127 1 -2.16061 6.19582 1.97472 
131 1 -2.30735 6.18782 11.0113 
138 1 1.3512 7.98761 0.820404 
142 1 -2.55533 8.78688 8.77636 
145 1 -4.45365 9.7943 7.50298 
151 1 -4.98244 10.4547 11.0415 
154 1 -3.02277 9.67696 9.82577 
155 1 -2.93132 6.26112 7.4295 
12 1 2.57469 7.06991 17.1436 
17 1 0.387587 9.3664 20.9307 
24 1 -3.53999 8.37637 11.8633 
27 1 -0.267244 7.24778 21.6303 
29 1 0.592517 5.95908 21.9379 
31 1 1.29686 7.16927 17.9157 
44 1 -0.121808 7.21025 20.1417 
46 1 0.137757 8.53547 19.716 
51 1 -0.27478 7.26426 11.1342 
53 1 2.5636 7.0651 15.6208 
56 1 1.2983 7.17179 14.8379 
63 1 -2.31137 6.19577 21.7442 
66 1 -3.36355 6.73369 20.8678 
70 1 -0.122197 7.20954 12.6287 
72 1 0.537636 5.9313 12.9089 
92 1 0.911714 8.463 14.2555 
95 1 -4.99579 10.4754 21.7239 
98 1 -4.66776 9.26572 20.8612 
104 1 0.381062 9.36353 11.8349 
116 1 -2.6117 8.76412 21.8808 
118 1 -3.59986 8.38504 20.9143 
122 1 0.142589 8.53008 13.0532 
133 1 -3.37388 6.74078 11.9071 
136 1 0.293306 8.5331 22.0947 
147 1 0.526386 5.93143 19.8465 
153 1 -4.64507 9.18892 11.8898 
160 1 0.90716 8.47089 18.506 
1 1 7.88714 4.91173 10.5451 
4 1 9.19311 4.78057 11.047 
20 1 7.89347 4.9305 9.05952 
42 1 9.46934 5.43142 7.43055 
67 1 9.99099 4.53565 0.769379 
77 1 7.87764 4.90573 0.0718554 
94 1 7.88902 4.93672 1.5579 
96 1 9.21375 4.63946 2.00597 
121 1 4.67761 5.45127 10.6932 
130 1 9.47406 5.42168 3.18166 
134 1 9.99076 4.53935 9.85216 
152 1 9.2149 4.64018 8.60395 
45 1 4.70381 5.42324 22.0475 
55 1 4.81728 5.47282 13.0651 
106 1 9.19308 4.76811 21.7186 
137 1 4.81535 5.48592 19.7077 
2 1 7.25076 10.5711 9.08524 
3 1 8.967 7.66155 6.07794 
6 1 8.52595 6.38926 6.82867 
16 1 2.33443 8.68497 0.840021 
22 1 7.16961 6.17157 8.70655 
26 1 7.17501 8.42808 7.55566 
35 1 7.21713 10.6075 10.5134 
37 1 6.91094 9.284 11.0241 
39 1 8.25934 8.92485 6.76016 
41 1 6.73257 6.99691 9.81419 
48 1 3.73317 6.3573 0.834041 
61 1 7.23854 10.5508 1.53175 
62 1 8.96379 7.64925 4.55676 
64 1 6.71933 9.2515 1.98225 
68 1 7.40428 6.95856 3.05125 
71 1 4.40383 8.59325 10.7098 
74 1 3.58525 7.73741 9.85125 
81 1 8.52381 6.39128 3.78761 
83 1 6.53457 8.4541 0.795658 
93 1 7.21108 10.6033 0.102069 
97 1 8.30562 8.93237 3.85062 
101 1 2.34148 9.96488 10.6512 
103 1 2.36917 8.61872 9.76479 
117 1 7.16536 6.19915 1.8841 
120 1 7.16949 8.42676 3.055 
123 1 3.7841 6.35189 9.82217 
129 1 6.74086 7.02017 0.787995 
132 1 6.73079 9.24745 8.63924 
135 1 7.41491 6.95856 7.56034 
141 1 7.26265 6.18113 10.9303 
144 1 6.62245 8.40007 9.75263 
148 1 3.62661 7.78919 0.766767 
161 2 5.02707 9.49158 10.5891 
162 2 4.6595 10.1105 9.26357 
163 3 4.27193 10.9215 9.58038 
7 1 9.18834 6.0392 11.9062 
10 1 3.66054 9.81949 21.6208 
13 1 2.34389 9.94947 22.1238 
15 1 3.0104 8.33531 17.9067 
28 1 3.64556 9.78487 20.1294 
30 1 4.36701 8.52802 19.8007 
34 1 4.35768 6.29118 18.6305 
40 1 7.76488 8.39974 11.8596 
49 1 4.79703 7.70041 20.902 
50 1 2.06591 9.29709 18.5062 
58 1 1.52298 10.1934 11.8592 
59 1 4.12629 7.7616 14.1275 
69 1 3.5523 9.95703 11.1985 
73 1 3.01401 8.33832 14.8631 
75 1 4.99907 6.28363 11.881 
79 1 7.24541 6.1854 21.8653 
82 1 7.90931 6.91671 20.9195 
86 1 3.63854 9.79476 12.5742 
88 1 2.31561 10.0818 13.0891 
108 1 9.19716 6.03907 20.846 
112 1 4.37512 8.49928 12.9488 
115 1 4.35544 6.28598 14.1418 
124 1 4.78306 7.67389 11.9259 
125 1 2.06308 9.29128 14.2584 
126 1 6.82992 9.31676 21.8085 
128 1 7.80403 8.36615 20.8428 
139 1 1.53542 10.1916 20.9212 
140 1 4.12287 7.76718 18.6337 
143 1 7.88872 6.9834 11.825 
146 1 4.28326 8.53546 21.9797 
149 1 4.9974 6.26824 20.8866 
157 1 2.32421 10.0819 19.6762 
ITEM: TIMESTEP
20
ITEM: NUMBER OF ATOMS
163
ITEM: BOX BOUNDS xy xz yz pp pp pp
-6.7755000000000001e+00 1.3552000000000000e+01 -6.7755000000000001e+00
0.0000000000000000e+00 1.1735510246683001e+01 0.0000000000000000e+00
0.0000000000000000e+00 2.2149999999999999e+01 0.0000000000000000e+00
ITEM: ATOMS id type x y z 
8 1 -2.41889 5.37692 9.84145 
87 1 2.96277 4.3128 10.6388 
90 1 2.63758 5.52337 9.80496 
109 1 -2.41937 5.37732 0.773306 
158 1 2.65239 5.45963 0.824614 
11 1 4.28947 4.19395 20.1192 
14 1 2.90499 4.14307 19.6911 
18 1 1.31763 5.85934 18.5989 
33 1 2.13161 4.21685 20.9055 
43 1 4.30602 4.17559 21.5844 
47 1 3.25274 5.79967 17.8291 
52 1 4.28097 4.20455 12.628 
76 1 2.43867 4.93636 14.177 
85 1 4.29313 4.1842 11.1619 
89 1 3.24654 5.80029 14.9374 
91 1 0.993183 5.04794 11.8625 
102 1 2.90806 4.14051 13.074 
105 1 1.31386 5.85849 14.1641 
114 1 2.13733 4.21606 11.8546 
150 1 2.43741 4.93974 18.5887 
156 1 2.96995 4.26571 22.1208 
159 1 0.989833 5.05916 20.9127 
5 1 -4.92659 10.5922 8.60711 
9 1 -3.33129 8.86463 7.52271 
19 1 -1.74017 7.47472 10.5511 
21 1 -2.6101 8.77906 10.8816 
23 1 -3.30251 7.55847 6.84545 
25 1 -4.13819 10.5203 9.82312 
32 1 1.60763 6.36917 0.748622 
36 1 -1.87808 7.5218 9.06748 
38 1 -2.1613 6.20997 8.63579 
54 1 0.318485 8.51511 10.67 
57 1 1.35945 7.91117 9.80306 
60 1 -1.7485 7.49114 0.0643053 
65 1 -3.30741 7.55495 3.7725 
78 1 -1.87415 7.52008 1.5466 
80 1 -2.55178 8.78969 1.83808 
84 1 -4.45795 9.79087 3.09718 
99 1 -3.00748 9.66846 0.773372 
100 1 -2.93721 6.27555 3.17554 
107 1 -4.92646 10.5823 1.99995 
110 1 -3.33181 8.86685 3.0911 
111 1 0.578208 5.94151 10.8099 
113 1 1.51895 6.37298 9.8625 
119 1 -4.14976 10.5075 0.783513 
127 1 -2.16161 6.21055 1.97917 
131 1 -2.32912 6.20083 11.0224 
138 1 1.36102 7.96535 0.80876 
142 1 -2.55449 8.79143 8.78023 
145 1 -4.4545 9.78986 7.51122 
151 1 -4.95107 10.4284 11.0449 
154 1 -3.00544 9.67781 9.82587 
155 1 -2.93598 6.27634 7.43959 
12 1 2.56568 7.07725 17.1518 
17 1 0.400431 9.34333 20.9176 
24 1 -3.52506 8.34578 11.8443 
27 1 -0.265298 7.23769 21.6293 
29 1 0.611916 5.96617 21.9508 
31 1 1.28851 7.16467 17.92 
44 1 -0.142212 7.20194 20.1418 
46 1 0.145557 8.51319 19.7124 
51 1 -0.278883 7.26221 11.1379 
53 1 2.56534 7.07259 15.6125 
56 1 1.29013 7.16588 14.8439 
63 1 -2.32659 6.2023 21.7382 
66 1 -3.38228 6.76063 20.8756 
70 1 -0.142005 7.19902 12.6225 
72 1 0.532007 5.9328 12.9079 
92 1 0.919296 8.44652 14.2512 
95 1 -4.98951 10.4573 21.722 
98 1 -4.66704 9.26298 20.8647 
104 1 0.394448 9.34298 11.8354 
116 1 -2.62978 8.75749 21.8863 
118 1 -3.62241 8.35918 20.9385 
122 1 0.141738 8.5104 13.0525 
133 1 -3.38469 6.77915 11.8945 
136 1 0.310338 8.51854 22.0984 
147 1 0.529504 5.93022 19.8528 
153 1 -4.63423 9.20403 11.8887 
160 1 0.918059 8.44912 18.5165 
1 1 7.85965 4.91076 10.5375 
4 1 9.17132 4.80977 11.027 
20 1 7.87297 4.92591 9.07106 
42 1 9.46151 5.44578 7.43881 
67 1 9.97718 4.55635 0.770552 
77 1 7.85145 4.90592 0.07831 
94 1 7.86329 4.93803 1.54963 
96 1 9.19318 4.665 2.00308 
121 1 4.67765 5.49502 10.683 
130 1 9.46205 5.44725 3.1785 
134 1 9.97363 4.5589 9.84462 
152 1 9.19497 4.66484 8.61282 
45 1 4.66343 5.47506 22.0622 
55 1 4.81463 5.49031 13.065 
106 1 9.16878 4.79982 21.7441 
137 1 4.81382 5.49944 19.7025 
2 1 7.26241 10.5238 9.06094 
3 1 8.97241 7.64969 6.07617 
6 1 8.51852 6.38776 6.81347 
16 1 2.35408 8.68675 0.844972 
22 1 7.13641 6.16268 8.69974 
26 1 7.19016 8.42073 7.54366 
35 1 7.25135 10.5744 10.5199 
37 1 6.88161 9.22544 11.0046 
39 1 8.2787 8.92375 6.75326 
41 1 6.73075 6.96563 9.8258 
48 1 3.6993 6.35099 0.813513 
61 1 7.24863 10.5225 1.56605 
62 1 8.97339 7.64102 4.5392 
64 1 6.72382 9.22425 1.98712 
68 1 7.39289 6.96482 3.0557 
71 1 4.42785 8.58431 10.7099 
74 1 3.5686 7.76063 9.84252 
81 1 8.51878 6.39107 3.79787 
83 1 6.54024 8.44257 0.788129 
93 1 7.22756 10.5531 0.108213 
97 1 8.27083 8.92695 3.85481 
101 1 2.35312 9.93847 10.6593 
103 1 2.38339 8.60687 9.78314 
117 1 7.14133 6.19285 1.88998 
120 1 7.20177 8.42838 3.06299 
123 1 3.7856 6.34453 9.82651 
129 1 6.72852 7.00883 0.776247 
132 1 6.74248 9.23601 8.61527 
135 1 7.39997 6.96128 7.5529 
141 1 7.2404 6.19355 10.9309 
144 1 6.61787 8.41103 9.79206 
148 1 3.59742 7.78473 0.784483 
161 2 5.00492 9.50179 10.5761 
162 2 4.65843 10.121 9.24308 
163 3 4.27763 10.9333 9.57231 
7 1 9.1706 6.05978 11.9094 
10 1 3.68453 9.8232 21.6104 
13 1 2.3662 9.92052 22.0908 
15 1 3.01484 8.3337 17.8921 
28 1 3.66801 9.78315 20.1423 
30 1 4.39351 8.53019 19.8009 
34 1 4.33935 6.29786 18.6231 
40 1 7.76179 8.38597 11.8848 
49 1 4.80387 7.71707 20.9114 
50 1 2.07363 9.27525 18.5124 
58 1 1.54325 10.1631 11.8571 
59 1 4.13179 7.75249 14.1316 
69 1 3.5448 9.89431 11.2004 
73 1 3.02281 8.33227 14.8731 
75 1 4.99761 6.29982 11.8869 
79 1 7.23498 6.20048 21.8474 
82 1 7.93542 6.93204 20.9029 
86 1 3.66989 9.80191 12.5965 
88 1 2.33 10.0668 13.0849 
108 1 9.18135 6.03688 20.8417 
112 1 4.39399 8.5114 12.961 
115 1 4.34159 6.2965 14.1491 
124 1 4.7882 7.69213 11.8941 
125 1 2.07436 9.26808 14.257 
126 1 6.86669 9.25255 21.7831 
128 1 7.83232 8.3716 20.8704 
139 1 1.55856 10.1673 20.9187 
140 1 4.13906 7.76363 18.6333 
143 1 7.92726 6.961 11.8493 
146 1 4.30013 8.51861 21.9898 
149 1 4.99318 6.28647 20.9043 
157 1 2.34213 10.0562 19.6865 
ITEM: TIMESTEP
30
ITEM: NUMBER OF ATOMS
163
ITEM: BOX BOUNDS xy xz yz pp pp pp
-6.7755000000000001e+00 1.3552000000000000e+01 -6.7755000000000001e+00
0.0000000000000000e+00 1.1735510246683001e+01 0.0000000000000000e+00
0.0000000000000000e+00 2.2149999999999999e+01 0.0000000000000000e+00
ITEM: ATOMS id type x y z 
8 1 -2.42761 5.39095 9.84559 
87 1 2.95842 4.32583 10.6405 
90 1 2.63411 5.52962 9.79599 
109 1 -2.42843 5.39406 0.772832 
158 1 2.63486 5.44934 0.828493 
11 1 4.28308 4.21688 20.1202 
14 1 2.8999 4.14669 19.6968 
18 1 1.30956 5.85902 18.6015 
33 1 2.11798 4.21595 20.9046 
43 1 4.29611 4.20371 21.5646 
47 1 3.24949 5.8028 17.8249 
52 1 4.27386 4.2254 12.6276 
76 1 2.43104 4.93889 14.1761 
85 1 4.28996 4.20541 11.1742 
89 1 3.24567 5.7987 14.9434 
91 1 0.977122 5.04078 11.8554 
102 1 2.89958 4.14503 13.0691 
105 1 1.30825 5.85656 14.1633 
114 1 2.12107 4.21752 11.8551 
150 1 2.43203 4.94143 18.588 
156 1 2.96807 4.26869 22.1222 
159 1 0.978706 5.04929 20.9154 
5 1 -4.91423 10.5893 8.61207 
9 1 -3.32652 8.86574 7.52557 
19 1 -1.73485 7.47553 10.5498 
21 1 -2.58905 8.78598 10.8818 
23 1 -3.30241 7.55783 6.84065 
25 1 -4.12668 10.5197 9.82654 
32 1 1.60249 6.38523 0.748676 
36 1 -1.8608 7.52935 9.06692 
38 1 -2.1544 6.22227 8.63485 
54 1 0.324436 8.50892 10.6672 
57 1 1.3639 7.90588 9.80416 
60 1 -1.7465 7.49157 0.0632697 
65 1 -3.3028 7.557 3.77473 
78 1 -1.85778 7.5304 1.54664 
80 1 -2.54332 8.79092 1.83352 
84 1 -4.45037 9.78688 3.104 
99 1 -2.99539 9.67463 0.771657 
100 1 -2.93796 6.28098 3.17262 
107 1 -4.91789 10.5824 1.98826 
110 1 -3.32555 8.86298 3.0884 
111 1 0.559654 5.93163 10.8089 
113 1 1.50111 6.37697 9.86014 
119 1 -4.13734 10.5089 0.78492 
127 1 -2.15656 6.22013 1.97813 
131 1 -2.33745 6.20947 11.0206 
138 1 1.37031 7.95589 0.807461 
142 1 -2.54415 8.79215 8.78013 
145 1 -4.44756 9.78437 7.50875 
151 1 -4.95256 10.4066 11.0441 
154 1 -2.99061 9.68639 9.83233 
155 1 -2.93751 6.2807 7.44145 
12 1 2.56692 7.07482 17.1516 
17 1 0.409926 9.33109 20.9168 
24 1 -3.51975 8.33451 11.8372 
27 1 -0.271795 7.23266 21.6266 
29 1 0.607672 5.96132 21.9554 
31 1 1.28474 7.16764 17.9163 
44 1 -0.160552 7.19272 20.1439 
46 1 0.137971 8.5022 19.7116 
51 1 -0.283902 7.25032 11.14 
53 1 2.56736 7.07175 15.6157 
56 1 1.28697 7.16757 14.8484 
63 1 -2.33548 6.21254 21.741 
66 1 -3.38842 6.76742 20.8809 
70 1 -0.160061 7.19281 12.6238 
72 1 0.521008 5.92994 12.9118 
92 1 0.917656 8.44044 14.2487 
95 1 -4.98471 10.4539 21.7185 
98 1 -4.65844 9.27013 20.8617 
104 1 0.403057 9.33461 11.8404 
116 1 -2.62615 8.76165 21.8848 
118 1 -3.62171 8.34059 20.9397 
122 1 0.136296 8.49786 13.0539 
133 1 -3.38754 6.79673 11.8899 
136 1 0.316415 8.51347 22.0989 
147 1 0.519355 5.93002 19.8558 
153 1 -4.6319 9.19555 11.8949 
160 1 0.920186 8.44137 18.5162 
1 1 7.83621 4.90937 10.5392 
4 1 9.15612 4.83438 11.0199 
20 1 7.84908 4.92934 9.06771 
42 1 9.45507 5.45406 7.44022 
67 1 9.96693 4.57147 0.771467 
77 1 7.82851 4.90393 0.0801071 
94 1 7.84479 4.94266 1.54871 
96 1 9.17233 4.67975 2.00108 
121 1 4.68139 5.51063 10.6754 
130 1 9.45238 5.45448 3.17582 
134 1 9.9639 4.57409 9.8469 
152 1 9.17711 4.67635 8.61477 
45 1 4.65749 5.49154 22.0719 
55 1 4.81633 5.50724 13.0737 
106 1 9.15137 4.81775 21.7565 
137 1 4.81474 5.51454 19.6987 
2 1 7.27129 10.5082 9.06328 
3 1 8.97081 7.65166 6.07425 
6 1 8.51686 6.39223 6.80839 
16 1 2.35806 8.6911 0.849417 
22 1 7.11664 6.15586 8.69131 
26 1 7.19943 8.40909 7.52778 
35 1 7.27083 10.5418 10.5108 
37 1 6.89021 9.20929 11.0073 
39 1 8.28598 8.9208 6.74716 
41 1 6.72145 6.97154 9.82319 
48 1 3.7051 6.34864 0.824392 
61 1 7.25119 10.5061 1.57009 
62 1 8.96755 7.64801 4.53885 
64 1 6.72028 9.20939 1.98956 
68 1 7.38872 6.9603 3.05897 
71 1 4.44607 8.58287 10.6973 
74 1 3.57493 7.76289 9.82852 
81 1 8.5135 6.39401 3.80157 
83 1 6.53731 8.42462 0.79259 
93 1 7.23665 10.5222 0.121502 
97 1 8.28627 8.91861 3.86212 
101 1 2.35694 9.91938 10.6625 
103 1 2.39109 8.61138 9.78901 
117 1 7.12321 6.18613 1.89902 
120 1 7.20358 8.41711 3.07028 
123 1 3.78126 6.35276 9.81495 
129 1 6.7161 6.99643 0.774955 
132 1 6.73977 9.21047 8.61938 
135 1 7.39291 6.95566 7.55049 
141 1 7.22828 6.19379 10.9365 
144 1 6.6162 8.39522 9.79127 
148 1 3.59441 7.80336 0.798746 
161 2 4.98291 9.51772 10.5704 
162 2 4.65693 10.1305 9.22631 
163 3 4.28252 10.9433 9.56472 
7 1 9.16793 6.0614 11.9079 
10 1 3.71046 9.82775 21.612 
13 1 2.38246 9.90333 22.08 
15 1 3.02035 8.32969 17.8871 
28 1 3.68708 9.77995 20.1407 
30 1 4.41207 8.53901 19.7893 
34 1 4.33312 6.30838 18.6177 
40 1 7.7723 8.38423 11.8998 
49 1 4.81857 7.72641 20.9144 
50 1 2.08199 9.2685 18.513 
58 1 1.5607 10.1472 11.8574 
59 1 4.14039 7.7537 14.1339 
69 1 3.55996 9.86148 11.2048 
73 1 3.02318 8.32929 14.8795 
75 1 5.00166 6.31607 11.8922 
79 1 7.22744 6.20441 21.833 
82 1 7.9399 6.92545 20.8901 
86 1 3.68475 9.79713 12.6108 
88 1 2.34994 10.0583 13.0841 
108 1 9.17644 6.03395 20.8381 
112 1 4.40759 8.52745 12.9668 
115 1 4.33701 6.30247 14.1559 
124 1 4.7989 7.70384 11.8954 
125 1 2.08098 9.26039 14.2565 
126 1 6.87921 9.22968 21.7649 
128 1 7.83286 8.37338 20.8691 
139 1 1.56733 10.1526 20.9181 
140 1 4.14578 7.76234 18.6289 
143 1 7.92965 6.95247 11.8705 
146 1 4.30857 8.51656 22.0052 
149 1 4.9959 6.30085 20.8972 
157 1 2.36291 10.0436 19.6885 
ITEM: TIMESTEP
40
ITEM: NUMBER OF ATOMS
163
ITEM: BOX BOUNDS xy xz yz pp pp pp
-6.7755000000000001e+00 1.3552000000000000e+01 -6.7755000000000001e+00
0.0000000000000000e+00 1.1735510246683001e+01 0.0000000000000000e+00
0.0000000000000000e+00 2.2149999999999999e+01 0.0000000000000000e+00
ITEM: ATOMS id type x y z 
8 1 -2.44739 5.4215 9.84104 
87 1 2.95423 4.36206 10.6446 
90 1 2.61554 5.55462 9.77913 
109 1 -2.44882 5.42381 0.775746 
158 1 2.63308 5.46584 0.839225 
11 1 4.27365 4.26133 20.1017 
14 1 2.88123 4.15982 19.705 
18 1 1.2965 5.866 18.6057 
33 1 2.09827 4.21247 20.9104 
43 1 4.27484 4.25711 21.5433 
47 1 3.23519 5.79855 17.8252 
52 1 4.26591 4.26206 12.6399 
76 1 2.41289 4.93866 14.1766 
85 1 4.2732 4.26631 11.1917 
89 1 3.23478 5.79249 14.9445 
91 1 0.932237 5.02486 11.8513 
102 1 2.8805 4.16182 13.0564 
105 1 1.29642 5.8616 14.1609 
114 1 2.09579 4.21699 11.847 
150 1 2.41118 4.94207 18.5873 
156 1 2.95492 4.2924 22.1255 
159 1 0.945727 5.03911 20.9265 
5 1 -4.88919 10.5738 8.61819 
9 1 -3.31452 8.86076 7.52696 
19 1 -1.72587 7.49148 10.5422 
21 1 -2.54352 8.80426 10.8824 
23 1 -3.30072 7.55445 6.8381 
25 1 -4.0961 10.5196 9.8367 
32 1 1.59653 6.39614 0.752879 
36 1 -1.8225 7.54903 9.05811 
38 1 -2.14159 6.24122 8.63485 
54 1 0.333298 8.48832 10.6706 
57 1 1.37192 7.88848 9.81015 
60 1 -1.7425 7.50988 0.065698 
65 1 -3.30132 7.55503 3.77302 
78 1 -1.82277 7.55066 1.54869 
80 1 -2.51477 8.80072 1.83127 
84 1 -4.42759 9.77909 3.09978 
99 1 -2.96567 9.68625 0.763844 
100 1 -2.93753 6.28704 3.16703 
107 1 -4.8981 10.5613 1.98769 
110 1 -3.31528 8.86063 3.08545 
111 1 0.520471 5.91093 10.8081 
113 1 1.47265 6.38422 9.85788 
119 1 -4.11455 10.512 0.780022 
127 1 -2.1415 6.24368 1.9776 
131 1 -2.34451 6.22811 11.0202 
138 1 1.38348 7.94766 0.806475 
142 1 -2.51466 8.80028 8.78254 
145 1 -4.42931 9.78221 7.50658 
151 1 -4.93259 10.3689 11.0447 
154 1 -2.94376 9.69936 9.83998 
155 1 -2.93639 6.28592 7.4472 
12 1 2.56838 7.05808 17.1503 
17 1 0.42892 9.29752 20.9135 
24 1 -3.49337 8.32816 11.8309 
27 1 -0.273962 7.21475 21.6248 
29 1 0.58857 5.95301 21.9518 
31 1 1.28395 7.17018 17.9155 
44 1 -0.196095 7.17152 20.1413 
46 1 0.123809 8.48059 19.7138 
51 1 -0.288546 7.2302 11.1464 
53 1 2.57029 7.05543 15.6175 
56 1 1.28321 7.16584 14.8529 
63 1 -2.34774 6.22896 21.7432 
66 1 -3.40417 6.77586 20.8811 
70 1 -0.196525 7.17385 12.6329 
72 1 0.494276 5.91953 12.9088 
92 1 0.913264 8.43438 14.2435 
95 1 -4.97492 10.433 21.7141 
98 1 -4.63844 9.26862 20.8512 
104 1 0.420838 9.3014 11.8494 
116 1 -2.60593 8.77178 21.8855 
118 1 -3.61227 8.32673 20.9347 
122 1 0.123964 8.47848 13.0532 
133 1 -3.39023 6.81552 11.8863 
136 1 0.329331 8.49404 22.0955 
147 1 0.49533 5.92234 19.8569 
153 1 -4.61845 9.17831 11.9091 
160 1 0.919223 8.43807 18.523 
1 1 7.76799 4.88609 10.542 
4 1 9.12164 4.87799 11.0097 
20 1 7.80318 4.93816 9.06027 
42 1 9.44257 5.46777 7.44805 
67 1 9.93812 4.6076 0.76879 
77 1 7.76302 4.86084 0.075565 
94 1 7.81201 4.9626 1.54668 
96 1 9.11537 4.70454 1.99925 
121 1 4.6762 5.54509 10.6719 
130 1 9.43868 5.47156 3.17071 
134 1 9.93965 4.61173 9.84375 
152 1 9.13064 4.70186 8.61852 
45 1 4.63258 5.54198 22.0939 
55 1 4.81736 5.54434 13.0803 
106 1 9.11815 4.86214 21.781 
137 1 4.81612 5.55045 19.6973 
2 1 7.29206 10.4614 9.0517 
3 1 8.96963 7.66357 6.07264 
6 1 8.51034 6.39523 6.80295 
16 1 2.37749 8.69077 0.859766 
22 1 7.06971 6.1364 8.67001 
26 1 7.20556 8.39001 7.50606 
35 1 7.28458 10.4852 10.5082 
37 1 6.90688 9.1706 11.0242 
39 1 8.30023 8.92536 6.74074 
41 1 6.69812 6.94496 9.82087 
48 1 3.67563 6.35453 0.838782 
61 1 7.26291 10.4657 1.58385 
62 1 8.96598 7.66635 4.53888 
64 1 6.71794 9.17435 1.99378 
68 1 7.37704 6.95162 3.07422 
71 1 4.47376 8.5737 10.6735 
74 1 3.59281 7.77052 9.7986 
81 1 8.50434 6.39948 3.80768 
83 1 6.53229 8.39103 0.791731 
93 1 7.25896 10.4635 0.145144 
97 1 8.29691 8.92646 3.86575 
101 1 2.33664 9.87836 10.6414 
103 1 2.40477 8.60644 9.7917 
117 1 7.07513 6.15824 1.92253 
120 1 7.20191 8.39516 3.08792 
123 1 3.77036 6.37026 9.79299 
129 1 6.68719 6.97013 0.772316 
132 1 6.7513 9.17369 8.6087 
135 1 7.37796 6.94007 7.53456 
141 1 7.1991 6.20506 10.9563 
144 1 6.60708 8.36664 9.79166 
148 1 3.60486 7.79345 0.824959 
161 2 5.00938 9.55101 10.5171 
162 2 4.6544 10.1519 9.19252 
163 3 4.29411 10.9627 9.55101 
7 1 9.15444 6.07257 11.9124 
10 1 3.76912 9.83919 21.6163 
13 1 2.43996 9.87272 22.0611 
15 1 3.03072 8.3233 17.8806 
28 1 3.72827 9.77497 20.1611 
30 1 4.46922 8.55103 19.7644 
34 1 4.33356 6.32725 18.6003 
40 1 7.77555 8.37006 11.926 
49 1 4.84363 7.75507 20.9194 
50 1 2.09664 9.25427 18.5216 
58 1 1.5845 10.1121 11.8678 
59 1 4.15661 7.77016 14.1486 
69 1 3.60598 9.82547 11.2442 
73 1 3.02852 8.32042 14.8845 
75 1 5.00668 6.34351 11.8937 
79 1 7.19567 6.22265 21.8052 
82 1 7.93211 6.91334 20.86 
86 1 3.72322 9.80133 12.6358 
88 1 2.37714 10.0441 13.0962 
108 1 9.16181 6.02285 20.8327 
112 1 4.45872 8.53839 12.9883 
115 1 4.33189 6.31694 14.1763 
124 1 4.82858 7.73188 11.9019 
125 1 2.08586 9.2481 14.2567 
126 1 6.89627 9.19151 21.7554 
128 1 7.84718 8.36925 20.8418 
139 1 1.58974 10.1179 20.9028 
140 1 4.15528 7.77222 18.6125 
143 1 7.9125 6.93611 11.9094 
146 1 4.32876 8.52101 22.0288 
149 1 4.99999 6.33445 20.8939 
157 1 2.40317 10.0183 19.6874 
ITEM: TIMESTEP
50
ITEM: NUMBER OF ATOMS
163
ITEM: BOX BOUNDS xy xz yz pp pp pp
-6.7755000000000001e+00 1.3552000000000000e+01 -6.7755000000000001e+00
0.0000000000000000e+00 1.1735510246683001e+01 0.0000000000000000e+00
0.0000000000000000e+00 2.2149999999999999e+01 0.0000000000000000e+00
ITEM: ATOMS id type x y z 
8 1 -2.46265 5.44333 9.83619 
87 1 2.94254 4.39223 10.644 
90 1 2.60469 5.57162 9.77124 
109 1 -2.46467 5.44506 0.781076 
158 1 2.60638 5.4587 0.852198 
11 1 4.26157 4.29134 20.0917 
14 1 2.86632 4.16947 19.7103 
18 1 1.28686 5.87028 18.6094 
33 1 2.08291 4.21568 20.9152 
43 1 4.26295 4.29496 21.5293 
47 1 3.22879 5.79487 17.8302 
52 1 4.25557 4.29298 12.651 
76 1 2.39739 4.93939 14.1745 
85 1 4.26206 4.30596 11.2098 
89 1 3.22645 5.78654 14.9426 
91 1 0.903533 5.01012 11.8475 
102 1 2.86583 4.17422 13.0449 
105 1 1.28796 5.86487 14.1565 
114 1 2.08061 4.22515 11.8403 
150 1 2.39489 4.94271 18.5877 
156 1 2.94871 4.30672 22.123 
159 1 0.925895 5.02566 20.9252 
5 1 -4.86771 10.5604 8.63034 
9 1 -3.3051 8.85513 7.53195 
19 1 -1.7205 7.50497 10.5337 
21 1 -2.51383 8.81611 10.8826 
23 1 -3.29976 7.55287 6.83872 
25 1 -4.07645 10.5122 9.84028 
32 1 1.57563 6.39979 0.75715 
36 1 -1.79661 7.56194 9.05064 
38 1 -2.13312 6.25564 8.63418 
54 1 0.340212 8.47043 10.669 
57 1 1.37331 7.88014 9.81547 
60 1 -1.74067 7.52092 0.0683631 
65 1 -3.30086 7.55159 3.77307 
78 1 -1.79925 7.56546 1.5541 
80 1 -2.49442 8.81071 1.83038 
84 1 -4.41262 9.78039 3.10251 
99 1 -2.94374 9.69516 0.761949 
100 1 -2.93543 6.28785 3.16016 
107 1 -4.88411 10.5531 1.97815 
110 1 -3.30456 8.8542 3.08132 
111 1 0.494581 5.89644 10.8088 
113 1 1.44958 6.38254 9.85568 
119 1 -4.1013 10.5094 0.774294 
127 1 -2.13409 6.25996 1.97651 
131 1 -2.35118 6.24222 11.0194 
138 1 1.39368 7.94647 0.808953 
142 1 -2.49402 8.80866 8.78155 
145 1 -4.4125 9.78136 7.50685 
151 1 -4.92266 10.3413 11.0413 
154 1 -2.91201 9.71262 9.84292 
155 1 -2.93529 6.28727 7.45219 
12 1 2.56899 7.05104 17.1504 
17 1 0.444922 9.276 20.9081 
24 1 -3.47043 8.33131 11.8267 
27 1 -0.279423 7.20489 21.6199 
29 1 0.575474 5.94393 21.9568 
31 1 1.28343 7.17276 17.9159 
44 1 -0.220376 7.15737 20.1359 
46 1 0.114767 8.46429 19.7142 
51 1 -0.292918 7.20951 11.1555 
53 1 2.56984 7.04719 15.617 
56 1 1.28134 7.16453 14.8541 
63 1 -2.35996 6.24548 21.7451 
66 1 -3.41009 6.77821 20.8799 
70 1 -0.221485 7.15807 12.6395 
72 1 0.474246 5.90987 12.909 
92 1 0.91129 8.4289 14.2425 
95 1 -4.96585 10.4157 21.7153 
98 1 -4.62922 9.26182 20.8378 
104 1 0.43538 9.28176 11.8568 
116 1 -2.59209 8.77956 21.8834 
118 1 -3.59992 8.32446 20.9314 
122 1 0.113522 8.46229 13.0573 
133 1 -3.3922 6.82194 11.8849 
136 1 0.341399 8.47993 22.0942 
147 1 0.476322 5.91296 19.8592 
153 1 -4.60809 9.15955 11.9211 
160 1 0.918084 8.43654 18.5284 
1 1 7.7306 4.8938 10.544 
4 1 9.08135 4.90149 11.0017 
20 1 7.76322 4.93793 9.06671 
42 1 9.43351 5.47875 7.45451 
67 1 9.91574 4.63919 0.789058 
77 1 7.72034 4.88153 0.0681533 
94 1 7.76997 4.96371 1.53043 
96 1 9.09996 4.71867 2.00072 
121 1 4.66824 5.5742 10.6692 
130 1 9.42715 5.48501 3.1655 
134 1 9.91374 4.64418 9.83712 
152 1 9.10512 4.71934 8.62218 
45 1 4.6224 5.55887 22.083 
55 1 4.81653 5.56942 13.0852 
106 1 9.07399 4.86468 21.7888 
137 1 4.8186 5.57968 19.6912 
2 1 7.31169 10.4263 9.04973 
3 1 8.96926 7.67061 6.07142 
6 1 8.50726 6.39857 6.79817 
16 1 2.39204 8.69102 0.864792 
22 1 7.03339 6.12865 8.6536 
26 1 7.21014 8.37671 7.49132 
35 1 7.29889 10.4498 10.5003 
37 1 6.91904 9.14182 11.0297 
39 1 8.31004 8.92888 6.74054 
41 1 6.68004 6.92557 9.8189 
48 1 3.67994 6.36371 0.872067 
61 1 7.27306 10.4336 1.59724 
62 1 8.96446 7.6754 4.53901 
64 1 6.71701 9.14415 1.99666 
68 1 7.36367 6.93982 3.08061 
71 1 4.49546 8.58374 10.6655 
74 1 3.60438 7.78257 9.77677 
81 1 8.50121 6.40503 3.81461 
83 1 6.53219 8.37011 0.789997 
93 1 7.27167 10.4284 0.159589 
97 1 8.30552 8.92734 3.86115 
101 1 2.37922 9.85155 10.6615 
103 1 2.41253 8.60058 9.78894 
117 1 7.03091 6.15696 1.9384 
120 1 7.20333 8.38439 3.10078 
123 1 3.76392 6.37965 9.77501 
129 1 6.66907 6.9457 0.771881 
132 1 6.76031 9.14441 8.60531 
135 1 7.36431 6.92592 7.52471 
141 1 7.18262 6.19334 10.965 
144 1 6.60715 8.34822 9.79012 
148 1 3.61525 7.82636 0.844569 
161 2 5.01253 9.56987 10.4854 
162 2 4.65136 10.1708 9.16286 
163 3 4.30206 10.9799 9.53881 
7 1 9.13757 6.08572 11.9147 
10 1 3.81512 9.84349 21.6213 
13 1 2.46265 9.8588 22.053 
15 1 3.03318 8.31928 17.8749 
28 1 3.76999 9.76524 20.1532 
30 1 4.50188 8.56629 19.755 