LAMMPS (3 Mar 2020)
# Alpha
clear
units		real
dimension 3
boundary        p p p
atom_style	charge
newton on
read_data       O_3.lmp
  orthogonal box = (0 0 0) to (7.097 7.097 24.588)
  1 by 2 by 4 MPI processor grid
  reading atoms ...
  33 atoms
  read_data CPU = 0.0271472 secs

timestep 0.25

# ---------- Define Interatomic Potential ---------------------
pair_style      reax/c NULL checkqeq no
pair_coeff      * * ffield.reax C O
WARNING: Changed valency_val to valency_boc for X (../reaxc_ffield.cpp:315)
fix             2 all qeq/reax 1 0.0 10.0 1.0e-6 reax/c

#------------ Equilibration of the system -------------------------
reset_timestep 0

dump 1 all custom 10 min.lammpstrj id type x y z

minimize 1.0e-8 1.0e-8 100000 100000
WARNING: Using 'neigh_modify every 1 delay 0 check yes' setting during minimization (../min.cpp:190)
Neighbor list info ...
  update every 1 steps, delay 0 steps, check yes
  max neighbors/atom: 2000, page size: 100000
  master list distance cutoff = 12
  ghost atom cutoff = 12
  binsize = 6, bins = 2 2 5
  2 neighbor lists, perpetual/occasional/extra = 2 0 0
  (1) pair reax/c, perpetual
      attributes: half, newton off, ghost
      pair build: half/bin/newtoff/ghost
      stencil: half/ghost/bin/3d/newtoff
      bin: standard
  (2) fix qeq/reax, perpetual, copy from (1)
      attributes: half, newton off, ghost
      pair build: copy
      stencil: none
      bin: none
Per MPI rank memory allocation (min/avg/max) = 18.34 | 19.39 | 20.67 Mbytes
Step Temp E_pair E_mol TotEng Press 
       0            0   -5686.5137            0   -5686.5137   -93123.289 
      62            0    -5898.818            0    -5898.818    26475.084 
Loop time of 0.979678 on 8 procs for 62 steps with 33 atoms

99.3% CPU use with 8 MPI tasks x no OpenMP threads

Minimization stats:
  Stopping criterion = energy tolerance
  Energy initial, next-to-last, final = 
        -5686.51368394     -5898.81798692     -5898.81798686
  Force two-norm initial, final = 2677.91 53.9741
  Force max component initial, final = 844.81 32.3099
  Final line search alpha, max atom move = 1.00124e-11 3.235e-10
  Iterations, force evaluations = 62 377

MPI task timing breakdown:
Section |  min time  |  avg time  |  max time  |%varavg| %total
---------------------------------------------------------------
Pair    | 0.67304    | 0.73148    | 0.78864    |   5.4 | 74.67
Neigh   | 0          | 0          | 0          |   0.0 |  0.00
Comm    | 0.0091277  | 0.066917   | 0.12432    |  17.8 |  6.83
Output  | 0.00010554 | 0.00013979 | 0.00023293 |   0.0 |  0.01
Modify  | 0.17745    | 0.1786     | 0.17952    |   0.2 | 18.23
Other   |            | 0.002538   |            |       |  0.26

Nlocal:    4.125 ave 9 max 0 min
Histogram: 4 0 0 0 0 0 0 0 3 1
Nghost:    661.5 ave 703 max 634 min
Histogram: 2 0 1 1 1 1 1 0 0 1
Neighs:    787 ave 1737 max 0 min
Histogram: 4 0 0 0 0 0 0 0 3 1

Total # of neighbors = 6296
Ave neighs/atom = 190.788
Neighbor list builds = 0
Dangerous builds = 0

###
min_style cg
minimize 1.0e-8 1.0e-8 100000 100000
WARNING: Using 'neigh_modify every 1 delay 0 check yes' setting during minimization (../min.cpp:190)
Per MPI rank memory allocation (min/avg/max) = 18.34 | 19.39 | 20.67 Mbytes
Step Temp E_pair E_mol TotEng Press 
      62            0    -5898.818            0    -5898.818    26475.081 
      63            0    -5898.818            0    -5898.818    26475.086 
Loop time of 0.140181 on 8 procs for 1 steps with 33 atoms

99.4% CPU use with 8 MPI tasks x no OpenMP threads

Minimization stats:
  Stopping criterion = linesearch alpha is zero
  Energy initial, next-to-last, final = 
        -5898.81798708     -5898.81798708     -5898.81798629
  Force two-norm initial, final = 53.9741 53.9741
  Force max component initial, final = 32.3099 32.3099
  Final line search alpha, max atom move = 2.88247e-12 9.31323e-11
  Iterations, force evaluations = 1 58

MPI task timing breakdown:
Section |  min time  |  avg time  |  max time  |%varavg| %total
---------------------------------------------------------------
Pair    | 0.096014   | 0.10682    | 0.11921    |   2.4 | 76.20
Neigh   | 0          | 0          | 0          |   0.0 |  0.00
Comm    | 0.0010936  | 0.013577   | 0.024248   |   6.7 |  9.69
Output  | 0          | 0          | 0          |   0.0 |  0.00
Modify  | 0.019299   | 0.019432   | 0.01956    |   0.1 | 13.86
Other   |            | 0.000351   |            |       |  0.25

Nlocal:    4.125 ave 9 max 0 min
Histogram: 4 0 0 0 0 0 0 0 3 1
Nghost:    631.25 ave 675 max 599 min
Histogram: 2 0 2 0 1 0 1 1 0 1
Neighs:    785.75 ave 1736 max 0 min
Histogram: 4 0 0 0 0 0 0 0 3 1

Total # of neighbors = 6286
Ave neighs/atom = 190.485
Neighbor list builds = 0
Dangerous builds = 0

###
fix 1 all box/relax aniso 0.0
min_style cg
minimize 1.0e-8 1.0e-8 100000 100000
WARNING: Using 'neigh_modify every 1 delay 0 check yes' setting during minimization (../min.cpp:190)
Per MPI rank memory allocation (min/avg/max) = 18.34 | 19.39 | 20.67 Mbytes
Step Temp E_pair E_mol TotEng Press Volume 
      63            0    -5898.818            0    -5898.818    26475.082    1238.4339 
      98            0   -5900.9911            0   -5900.9911    2219.5823     1245.508 
Loop time of 0.196914 on 8 procs for 35 steps with 33 atoms

99.3% CPU use with 8 MPI tasks x no OpenMP threads

Minimization stats:
  Stopping criterion = energy tolerance
  Energy initial, next-to-last, final = 
        -5898.81798685     -5900.99109815     -5900.99113805
  Force two-norm initial, final = 881.576 200.282
  Force max component initial, final = 716.626 59.2074
  Final line search alpha, max atom move = 9.59183e-10 5.67907e-08
  Iterations, force evaluations = 35 84

MPI task timing breakdown:
Section |  min time  |  avg time  |  max time  |%varavg| %total
---------------------------------------------------------------
Pair    | 0.13772    | 0.15354    | 0.17208    |   2.9 | 77.98
Neigh   | 0          | 0          | 0          |   0.0 |  0.00
Comm    | 0.0014928  | 0.020145   | 0.035773   |   8.1 | 10.23
Output  | 4.9343e-05 | 6.5839e-05 | 0.00011077 |   0.0 |  0.03
Modify  | 0.021453   | 0.021647   | 0.021823   |   0.1 | 10.99
Other   |            | 0.001512   |            |       |  0.77

Nlocal:    4.125 ave 9 max 0 min
Histogram: 4 0 0 0 0 0 0 0 3 1
Nghost:    631.25 ave 675 max 599 min
Histogram: 2 0 2 0 1 0 1 1 0 1
Neighs:    785.75 ave 1736 max 0 min
Histogram: 4 0 0 0 0 0 0 0 3 1

Total # of neighbors = 6286
Ave neighs/atom = 190.485
Neighbor list builds = 0
Dangerous builds = 0

unfix 1
###
min_style cg
minimize 1.0e-8 1.0e-8 100000 100000
WARNING: Using 'neigh_modify every 1 delay 0 check yes' setting during minimization (../min.cpp:190)
Per MPI rank memory allocation (min/avg/max) = 18.34 | 19.39 | 20.67 Mbytes
Step Temp E_pair E_mol TotEng Press 
      98            0   -5900.9911            0   -5900.9911    2219.5803 
     105            0   -5901.1752            0   -5901.1752    13034.098 
Loop time of 0.240086 on 8 procs for 7 steps with 33 atoms

99.4% CPU use with 8 MPI tasks x no OpenMP threads

Minimization stats:
  Stopping criterion = linesearch alpha is zero
  Energy initial, next-to-last, final = 
        -5900.99113823     -5901.17515048     -5901.17515073
  Force two-norm initial, final = 187.01 46.0611
  Force max component initial, final = 59.2074 16.3811
  Final line search alpha, max atom move = 5.68534e-12 9.31323e-11
  Iterations, force evaluations = 7 102

MPI task timing breakdown:
Section |  min time  |  avg time  |  max time  |%varavg| %total
---------------------------------------------------------------
Pair    | 0.16615    | 0.1781     | 0.1959     |   2.6 | 74.18
Neigh   | 0          | 0          | 0          |   0.0 |  0.00
Comm    | 0.0022626  | 0.019927   | 0.032105   |   7.7 |  8.30
Output  | 1.7052e-05 | 2.3145e-05 | 4.0636e-05 |   0.0 |  0.01
Modify  | 0.041219   | 0.041415   | 0.04159    |   0.1 | 17.25
Other   |            | 0.0006157  |            |       |  0.26

Nlocal:    4.125 ave 9 max 0 min
Histogram: 4 0 0 0 0 0 0 0 3 1
Nghost:    598.375 ave 619 max 579 min
Histogram: 2 0 0 1 0 3 0 0 0 2
Neighs:    782.25 ave 1724 max 0 min
Histogram: 4 0 0 0 0 0 0 0 3 1

Total # of neighbors = 6258
Ave neighs/atom = 189.636
Neighbor list builds = 0
Dangerous builds = 0

###
fix 1 all box/relax aniso 0.0
min_style cg
minimize 1.0e-8 1.0e-8 100000 100000
WARNING: Using 'neigh_modify every 1 delay 0 check yes' setting during minimization (../min.cpp:190)
Per MPI rank memory allocation (min/avg/max) = 18.34 | 19.39 | 20.67 Mbytes
Step Temp E_pair E_mol TotEng Press Volume 
     105            0   -5901.1751            0   -5901.1751    13034.108     1245.508 
     129            0   -5901.9667            0   -5901.9667   -1900.2481    1249.9368 
Loop time of 0.229997 on 8 procs for 24 steps with 33 atoms

99.3% CPU use with 8 MPI tasks x no OpenMP threads

Minimization stats:
  Stopping criterion = energy tolerance
  Energy initial, next-to-last, final = 
        -5901.17514933     -5901.96670356     -5901.96674862
  Force two-norm initial, final = 431.118 165.4
  Force max component initial, final = 338.348 59.5078
  Final line search alpha, max atom move = 1.63811e-09 9.74802e-08
  Iterations, force evaluations = 24 102

MPI task timing breakdown:
Section |  min time  |  avg time  |  max time  |%varavg| %total
---------------------------------------------------------------
Pair    | 0.1683     | 0.18034    | 0.19852    |   2.6 | 78.41
Neigh   | 0          | 0          | 0          |   0.0 |  0.00
Comm    | 0.0022507  | 0.020255   | 0.032527   |   7.8 |  8.81
Output  | 3.2621e-05 | 7.1674e-05 | 0.00013171 |   0.0 |  0.03
Modify  | 0.027432   | 0.027639   | 0.027825   |   0.1 | 12.02
Other   |            | 0.001692   |            |       |  0.74

Nlocal:    4.125 ave 9 max 0 min
Histogram: 4 0 0 0 0 0 0 0 3 1
Nghost:    598.375 ave 619 max 579 min
Histogram: 2 0 0 1 0 3 0 0 0 2
Neighs:    782.5 ave 1725 max 0 min
Histogram: 4 0 0 0 0 0 0 0 3 1

Total # of neighbors = 6260
Ave neighs/atom = 189.697
Neighbor list builds = 0
Dangerous builds = 0

unfix 1
###
min_style cg
minimize 1.0e-8 1.0e-8 100000 100000
WARNING: Using 'neigh_modify every 1 delay 0 check yes' setting during minimization (../min.cpp:190)
Per MPI rank memory allocation (min/avg/max) = 18.34 | 19.39 | 20.67 Mbytes
Step Temp E_pair E_mol TotEng Press 
     129            0   -5901.9667            0   -5901.9667   -1900.2509 
     130            0   -5901.9667            0   -5901.9667   -1900.2522 
Loop time of 0.139005 on 8 procs for 1 steps with 33 atoms

99.4% CPU use with 8 MPI tasks x no OpenMP threads

Minimization stats:
  Stopping criterion = linesearch alpha is zero
  Energy initial, next-to-last, final = 
        -5901.96674906     -5901.96674906     -5901.96674911
  Force two-norm initial, final = 141.674 141.674
  Force max component initial, final = 54.0332 54.0332
  Final line search alpha, max atom move = 4.30903e-13 2.32831e-11
  Iterations, force evaluations = 1 62

MPI task timing breakdown:
Section |  min time  |  avg time  |  max time  |%varavg| %total
---------------------------------------------------------------
Pair    | 0.10157    | 0.10823    | 0.11691    |   1.9 | 77.86
Neigh   | 0          | 0          | 0          |   0.0 |  0.00
Comm    | 0.001336   | 0.010007   | 0.016817   |   6.3 |  7.20
Output  | 0          | 0          | 0          |   0.0 |  0.00
Modify  | 0.020288   | 0.020413   | 0.020527   |   0.1 | 14.68
Other   |            | 0.0003534  |            |       |  0.25

Nlocal:    4.125 ave 9 max 0 min
Histogram: 4 0 0 0 0 0 0 0 3 1
Nghost:    594.875 ave 619 max 579 min
Histogram: 2 0 1 1 0 2 1 0 0 1
Neighs:    777.5 ave 1715 max 0 min
Histogram: 4 0 0 0 0 0 0 0 3 1

Total # of neighbors = 6220
Ave neighs/atom = 188.485
Neighbor list builds = 0
Dangerous builds = 0

undump 1
#############
#----------- Thermo ------------
reset_timestep 0
thermo  200

thermo_style    custom step temp etotal ke pe press
velocity all create 300 12345 mom yes rot yes
fix 1 all npt temp 300 300 25.0 iso 0.0 0.0 250.0

variable vpe equal pe
variable vtemp equal temp
variable vstep equal step

fix output all print 2500 "${vstep} ${vtemp} ${vpe}" file temp-tpdh-Pt.dat screen no

dump 1 all custom 2500 thermo-tpdh-Pt.lammpstrj id type x y z

run 1000000
Per MPI rank memory allocation (min/avg/max) = 17.22 | 18.27 | 19.55 Mbytes
Step Temp TotEng KinEng PotEng Press 
       0          300    -5873.351    28.615776   -5901.9667   -853.71085 
     200    176.05311   -5861.5841    16.792988   -5878.3771    10389.257 
     400    329.88821   -5841.4535    31.466691   -5872.9202     -17201.4 
     600    291.92762   -5854.7856    27.845785   -5882.6314    15302.378 
     800    257.91666   -5857.8374    24.601619    -5882.439   -17634.943 
    1000    342.33707     -5849.85    32.654137   -5882.5042    -5827.427 
    1200      251.388   -5862.5317    23.978876   -5886.5106    11295.463 
    1400    302.33767   -5859.1842    28.838758   -5888.0229    9009.4091 
    1600    295.28671   -5863.6193    28.166195   -5891.7855    7406.0138 
    1800    279.36048     -5864.56    26.647057    -5891.207   -36492.038 
    2000    315.56665   -5856.8532    30.100616   -5886.9538    -3061.741 
    2200    276.33649   -5861.5695    26.358611   -5887.9281    4295.2388 
    2400    266.29851   -5866.8623    25.401128   -5892.2635   -28526.616 
    2600    275.05478   -5853.0582    26.236354   -5879.2945    14255.535 
    2800    310.44681   -5862.6468    29.612256    -5892.259   -3512.4863 
    3000    249.42343   -5865.1094    23.791484   -5888.9008   -24914.713 
    3200    285.76529   -5858.1312    27.257986   -5885.3892    12650.071 
    3400    311.48202   -5850.8965       29.711   -5880.6075   -812.24111 
    3600    232.33784   -5860.8476    22.161759   -5883.0094   -41600.507 
    3800    309.19886   -5850.7407    29.493218    -5880.234   -8570.0994 
    4000    297.97095   -5849.0616    28.422234   -5877.4839    -5659.625 
    4200    166.50719   -5861.1226    15.882442   -5877.0051    13710.189 
    4400    311.13156   -5858.4978    29.677571   -5888.1754    -13713.76 
    4600    348.70975   -5858.4983       33.262   -5891.7603   -6462.0377 
    4800    319.88284   -5858.4406     30.51232   -5888.9529   -12140.671 
    5000      292.229   -5863.5222    27.874532   -5891.3967    813.50608 
    5200     241.0792   -5866.3621    22.995562   -5889.3577    2695.6793 
    5400    343.51618   -5855.0592    32.766608   -5887.8258   -17128.556 
    5600    378.63777    -5856.502    36.116713   -5892.6187    17149.697 
    5800    275.39161   -5863.4103    26.268483   -5889.6788    -15422.35 
    6000    296.53375   -5855.9965    28.285145   -5884.2816    -7088.844 
    6200    326.73028   -5853.5217    31.165469   -5884.6872    9796.7954 
    6400    206.56258   -5870.4847    19.703162   -5890.1879    5080.0529 
    6600    310.11257   -5858.7694    29.580373   -5888.3498    31076.479 
    6800    327.10687   -5851.7278     31.20139   -5882.9292   -10737.381 
    7000    307.78576   -5855.5027    29.358429   -5884.8612   -26398.877 
    7200    254.20401   -5859.9137    24.247484   -5884.1612   -29840.424 
    7400      324.428    -5849.291    30.945863   -5880.2368    8946.1093 
    7600     391.9629    -5847.645    37.387743   -5885.0327    263.72328 
    7800    265.67791   -5861.5214    25.341932   -5886.8633    12163.647 
    8000    304.43725   -5852.1044    29.039027   -5881.1434   -1310.0181 
    8200    342.54008   -5854.0781    32.673501   -5886.7516    30963.869 
    8400    212.10961    -5867.273    20.232271   -5887.5052    11533.883 
    8600    305.03739   -5855.3989    29.096272   -5884.4951   -12158.557 
    8800    316.13152   -5862.0645    30.154496    -5892.219    8496.1263 
    9000    221.27066   -5867.4517    21.106106   -5888.5578    19484.175 
    9200    293.78179   -5857.8988    28.022646   -5885.9215     -22792.4 
    9400    271.42813    -5860.281    25.890422   -5886.1714    8641.0659 
    9600    293.47165   -5860.8681    27.993064   -5888.8612    14519.377 
    9800    300.90195   -5853.5771     28.70181   -5882.2789   -221.73721 
   10000    285.87349   -5854.9272    27.268306   -5882.1955   -10445.771 
   10200    270.48122   -5862.8946      25.8001   -5888.6947    8175.5876 
   10400    266.95833   -5859.3422    25.464067   -5884.8063    14613.893 
   10600    301.15291   -5853.1246    28.725748   -5881.8503   -9990.8433 
   10800    322.00524    -5856.169    30.714766   -5886.8837   -9419.4979 
   11000    239.12532   -5867.1125    22.809189   -5889.9216   -13839.862 
   11200    289.00714   -5855.4617    27.567213   -5883.0289    6570.1387 
   11400    328.99475   -5851.6959    31.381467   -5883.0774   -19699.842 
   11600    337.86881   -5863.4715    32.227928   -5895.6994   -28836.925 
   11800    286.80343   -5864.7989    27.357009   -5892.1559    16690.409 
   12000    322.90468    -5857.071     30.80056   -5887.8716    13647.232 
   12200    276.24285    -5865.608    26.349679   -5891.9577    3525.1701 
   12400    359.21245   -5855.7774    34.263811   -5890.0413   -16035.456 
   12600    340.96837   -5856.6504    32.523582    -5889.174    18573.737 
   12800    277.80575   -5862.2949    26.498758   -5888.7936    11798.083 
   13000    298.59313   -5849.4551    28.481581   -5877.9367   -500.30538 
   13200     347.8334   -5857.3043     33.17841   -5890.4827    7402.4327 
   13400     280.1929   -5862.7257    26.726458   -5889.4522   -35673.084 
   13600    297.51784    -5852.211    28.379013     -5880.59    517.12727 
   13800    284.99466   -5856.6442    27.184478   -5883.8287    8352.2868 
   14000    263.56474   -5863.7208    25.140366   -5888.8612    1207.0598 
   14200     332.6922   -5850.7414    31.734152   -5882.4755    7980.5919 
   14400    250.18126   -5855.8752     23.86377    -5879.739    6510.9077 
   14600    265.69882   -5861.3203    25.343927   -5886.6642   -9081.9242 
   14800    384.30686   -5850.4112    36.657464   -5887.0687     17163.48 
   15000    307.13545   -5855.1134    29.296398   -5884.4098   -21614.128 
   15200     299.3964   -5862.8435    28.558202   -5891.4017   -2380.8646 
   15400    349.36083   -5855.2194    33.324105   -5888.5435   -1325.2184 
   15600    214.21008    -5868.818    20.432625   -5889.2506     21745.39 
   15800    269.33762   -5861.0353    25.691017   -5886.7263   -4780.3337 
   16000    267.58609   -5857.6945    25.523946   -5883.2185   -17068.121 
   16200    353.45719   -5846.5366     33.71484   -5880.2514   -9238.9766 
   16400    297.89654   -5846.6241    28.415136   -5875.0392     17686.65 
   16600    240.37009   -5859.0495    22.927923   -5881.9774    25897.657 
   16800    351.27197   -5853.6016      33.5064    -5887.108   -9157.5343 
   17000    343.25313   -5846.1763    32.741516   -5878.9178    3554.2364 
   17200    297.54109   -5860.8157    28.381231    -5889.197   -20175.925 
   17400    323.03715   -5854.1085    30.813196   -5884.9217    5028.9579 
   17600    311.55858   -5849.8368    29.718303   -5879.5551    5860.4124 
   17800    274.75358   -5858.6684    26.207624    -5884.876    10373.656 
   18000    279.80686   -5859.5548    26.689635   -5886.2444   -1218.8463 
   18200    289.70607   -5845.7276     27.63388   -5873.3615   -3697.5398 
   18400    254.23802   -5859.6058    24.250728   -5883.8566   -7599.1142 
   18600    367.76537   -5858.0068    35.079639   -5893.0864   -5920.7305 
   18800    230.03646   -5867.7065     21.94224   -5889.6487   -25701.265 
   19000    259.29219    -5863.971    24.732824   -5888.7038    11493.282 
   19200    319.74445   -5859.2398    30.499119    -5889.739    2073.1683 
   19400    308.27259   -5862.9387    29.404865   -5892.3436   -538.03848 
   19600    336.71543   -5853.9327    32.117912   -5886.0506   -42360.223 
   19800    327.98681   -5853.8242    31.285324   -5885.1095   -5891.3171 
   20000    260.93578   -5859.1949      24.8896   -5884.0845   -5399.3295 
   20200     322.8935   -5853.5928    30.799494   -5884.3923      13662.2 
   20400    371.22648   -5854.5259     35.40978   -5889.9357   -7176.1947 
   20600    262.03853   -5862.2152    24.994787     -5887.21    -15887.59 
   20800    228.25058   -5856.1632    21.771892    -5877.935   -24072.727 
   21000    289.94159   -5853.9213    27.656345   -5881.5776    1641.5844 
   21200    257.01963   -5857.1674    24.516054   -5881.6834   -28884.282 
   21400    266.20997   -5855.3313    25.392683   -5880.7239   -1540.4326 
   21600    289.93024   -5861.9506    27.655263   -5889.6059   -5122.6685 
   21800    268.23763   -5860.9971    25.586094   -5886.5831    1264.2975 
   22000    305.97261   -5854.2498    29.185479   -5883.4353    12196.553 
   22200    273.40532   -5863.7539    26.079019    -5889.833    9436.2123 
   22400    266.75061   -5861.4273    25.444253   -5886.8715   -19587.754 
   22600    330.81639    -5852.122    31.555226   -5883.6773   -3683.5066 
   22800    231.50238   -5865.6631    22.082068   -5887.7452    -6892.895 
   23000     378.0651   -5854.8835    36.062088   -5890.9455    10522.162 
   23200    292.22511   -5854.8518    27.874161   -5882.7259   -7499.5612 
   23400    272.57108   -5862.1811    25.999444   -5888.1806    10903.928 
   23600    262.45668   -5870.3385    25.034672   -5895.3731     7038.124 
   23800      327.256   -5859.3236    31.215615   -5890.5392    3467.3741 
   24000    293.33975   -5851.4741    27.980483   -5879.4546    29174.638 
   24200    248.78661   -5865.4127     23.73074   -5889.1434    769.95864 
   24400    322.57158   -5857.6546    30.768788   -5888.4234    -3032.266 
   24600    301.04136   -5855.2252    28.715108   -5883.9403   -11580.777 
   24800    288.17329    -5856.549    27.487675   -5884.0367    17640.275 
   25000    252.67061   -5864.0613    24.101219   -5888.1625    25651.583 
   25200    253.14467   -5863.3339    24.146438   -5887.4803   -33662.903 
   25400    284.91851    -5855.992    27.177214   -5883.1692    11502.017 
   25600     309.9588   -5865.2763    29.565706    -5894.842    20707.688 
   25800    257.14907   -5870.5169    24.528401   -5895.0453    26925.901 
   26000    291.84037   -5856.5138    27.837463   -5884.3513   -18357.158 
   26200    305.28958   -5856.6091    29.120328   -5885.7294    10589.006 
   26400     242.8621   -5866.2911    23.165625   -5889.4567    10881.784 
   26600    294.15255    -5856.628    28.058012    -5884.686   -15921.791 
   26800    329.21142   -5851.3275    31.402135   -5882.7297    9504.3707 
   27000    251.53049   -5863.9976    23.992467   -5887.9901    27968.603 
   27200    317.24553   -5855.7257    30.260757   -5885.9865   -6730.9109 
   27400    285.38119   -5850.8747    27.221348   -5878.0961    13916.508 
   27600    269.56715   -5858.6934    25.712911   -5884.4063    8015.8871 
   27800    372.99328   -5853.8375    35.578308   -5889.4158   -5476.3566 
   28000    372.71488   -5847.2661    35.551753   -5882.8179   -18482.338 
   28200    271.55677   -5859.3831    25.902693   -5885.2857   -9994.8714 
   28400    289.76603    -5854.738    27.639599   -5882.3776    33740.176 
   28600    371.73309   -5842.8089    35.458103    -5878.267    1756.3371 
   28800     283.1941   -5854.1925    27.012731   -5881.2053    5578.3848 
   29000    282.10383   -5861.9681    26.908733   -5888.8769    32025.527 
   29200    301.04252   -5851.6888    28.715218   -5880.4041     52587.26 
   29400    317.63086   -5858.6447    30.297513   -5888.9422    2413.9664 
   29600    279.09299   -5863.2824    26.621542   -5889.9039    16051.002 
   29800    432.01586   -5845.6741    41.208231   -5886.8823   -5997.7329 
   30000    325.12113   -5857.0962    31.011979   -5888.1082   -37992.734 
   30200    312.47854   -5857.4613    29.806053   -5887.2674    8029.6265 
   30400    253.01248   -5860.5002    24.133829    -5884.634    10017.523 
   30600    243.27075   -5858.4338    23.204605   -5881.6384    17679.256 
   30800    270.48972   -5850.8006    25.800911   -5876.6015    3667.5532 
   31000     277.0902   -5863.2275    26.430504    -5889.658    10033.262 
   31200    263.65837   -5861.0799    25.149297   -5886.2292     4623.381 
   31400    338.25347   -5854.1593    32.264619   -5886.4239   -966.73981 
   31600    308.90872   -5856.9573    29.465543   -5886.4228     12961.96 
   31800    294.33641    -5862.281     28.07555   -5890.3565    -51234.59 
   32000    310.69409   -5851.5645    29.635842   -5881.2003   -19038.662 
   32200    323.11643   -5855.9848    30.820759   -5886.8056    -29435.29 
   32400    302.17828   -5859.0846    28.823553   -5887.9081    22920.392 
   32600    307.54567   -5855.2862    29.335527   -5884.6217   -9834.1132 
   32800    285.78797   -5853.8944    27.260149   -5881.1545   -6962.7467 
   33000    304.38687   -5860.7724    29.034222   -5889.8066    15960.012 
   33200    349.28226   -5859.2591     33.31661   -5892.5757   -9322.9725 
   33400    278.36943   -5867.4268    26.552524   -5893.9793    21399.392 
   33600    270.72821   -5855.6047     25.82366   -5881.4284   -6824.0138 
   33800    262.00024   -5857.3253    24.991135   -5882.3165    3803.7243 
   34000    362.33131   -5844.0836    34.561306   -5878.6449     27302.72 
   34200    295.18395   -5852.8635    28.156393   -5881.0199    3601.4388 
   34400    274.39609   -5853.5477    26.173524   -5879.7212   -2074.8404 
   34600    359.97454   -5859.8159    34.336503   -5894.1524    -7474.018 
   34800    303.70476   -5863.6516    28.969159   -5892.6208    7297.4323 
   35000    352.26708   -5852.0274     33.60132   -5885.6288   -11344.956 
   35200    345.00176   -5857.4822    32.908311   -5890.3905    -25373.01 
   35400    287.06686   -5858.4199    27.382137   -5885.8021    676.87382 
   35600    335.60999   -5847.6378    32.012468   -5879.6503    6443.1626 
   35800    253.44309   -5859.4463    24.174902   -5883.6212    23815.946 
   36000    286.48411   -5858.3553    27.326551   -5885.6819    15510.098 
   36200    314.90331   -5858.7199    30.037343   -5888.7573    23026.803 
   36400    324.91208   -5847.1009    30.992038   -5878.0929    5289.9184 
   36600    289.27241   -5861.1581    27.592515   -5888.7507    -11405.22 
   36800    288.21462   -5860.2109    27.491617   -5887.7025    5609.9147 
   37000    323.68419   -5856.8319    30.874915   -5887.7068    182.04093 
   37200    282.08609   -5859.4936    26.907042   -5886.4006    9272.9012 
   37400    425.11367   -5846.2097    40.549859   -5886.7596   -115.38152 
   37600    313.23739    -5857.002    29.878437   -5886.8804   -13205.621 
   37800    287.55569   -5858.6005    27.428764   -5886.0293    8643.2248 
   38000    340.43498   -5845.6761    32.472704   -5878.1488   -9184.7954 
   38200    284.24997   -5859.7847    27.113445   -5886.8982    7309.9926 
   38400    302.05985   -5862.1112    28.812257   -5890.9235    -6241.021 
   38600    333.78523   -5849.6023    31.838412   -5881.4407    1206.2589 
   38800    284.19411   -5856.5656    27.108117   -5883.6737    20414.258 
   39000    284.90571   -5858.1775    27.175994   -5885.3534   -15665.242 
   39200    334.42659   -5851.8676    31.899589   -5883.7672     21682.28 
   39400    350.30511   -5848.5147    33.414176   -5881.9288    10201.427 
   39600    243.15627   -5862.7899    23.193685   -5885.9836    10964.559 
   39800    345.06244   -5855.9229    32.914099    -5888.837    4829.1178 
   40000    222.00856   -5867.1121    21.176492   -5888.2886   -10421.959 
   40200    347.46487   -5857.4306    33.143257   -5890.5739    9897.7157 
   40400    289.37767   -5858.9159    27.602556   -5886.5185    2879.0242 
   40600    360.10888   -5853.0627    34.349317    -5887.412    8591.4504 
   40800    387.42513   -5847.0151    36.954903     -5883.97   -15722.913 
   41000    265.08884   -5860.3844    25.285744   -5885.6702   -8167.8133 
   41200    260.76145   -5856.9853    24.872971   -5881.8583   -26830.239 
   41400    279.54946    -5854.833    26.665083    -5881.498   -21349.092 
   41600    309.26664   -5859.9006    29.499684   -5889.4003   -15873.489 
   41800    303.11227    -5864.253    28.912643   -5893.1656   -23162.125 
   42000    335.65412   -5852.2399    32.016678   -5884.2566    13563.447 
   42200     291.3024   -5856.0859    27.786148    -5883.872    1281.8902 
   42400    288.94669   -5859.2077    27.561446   -5886.7691   -4169.0979 
   42600    319.77513   -5850.6672    30.502046   -5881.1693    28886.229 
   42800    319.62898   -5850.8604    30.488105   -5881.3485    14301.018 
   43000    333.72629   -5861.4843     31.83279   -5893.3171     26786.32 
   43200    326.70708   -5856.2252    31.163256   -5887.3884   -18319.489 
   43400    307.20689   -5857.2324    29.303212   -5886.5356   -16124.382 
   43600    313.35492   -5856.6851    29.889648   -5886.5748   -9002.1011 
   43800    269.83723   -5867.8928    25.738673   -5893.6315   -6048.2961 
   44000    345.83584   -5854.7735    32.987871   -5887.7614    3507.9124 
   44200    292.01101   -5854.5303    27.853739    -5882.384   -24565.147 
   44400     256.4651   -5867.3379     24.46316   -5891.8011   -2714.1851 
   44600    291.15316    -5857.231    27.771913   -5885.0029    16569.863 
   44800    286.05378   -5857.5825    27.285503    -5884.868   -13977.217 
   45000    294.53858   -5857.9714    28.094834   -5886.0663   -17434.006 
   45200    287.06345   -5851.7212    27.381811    -5879.103   -7045.9483 
   45400    264.54711   -5865.4784     25.23407   -5890.7125    2898.3756 
   45600    311.34064   -5855.9762    29.697514   -5885.6738   -19598.089 
   45800    346.12585    -5853.749    33.015533   -5886.7646    32954.593 
   46000    225.71944   -5867.7164    21.530457   -5889.2469    28656.131 
   46200     286.5244   -5865.1488    27.330394   -5892.4792   -1546.4306 
   46400    299.27594   -5858.2597    28.546712   -5886.8064   -42811.727 
   46600     290.3148   -5859.5529    27.691945   -5887.2449    17187.927 
   46800    307.99795   -5863.0308    29.378668   -5892.4094   -8124.8164 
   47000    301.40307   -5848.6393     28.74961    -5877.389    5624.9746 
   47200    273.44083   -5855.7656    26.082405    -5881.848    21593.192 
   47400    267.11357   -5858.3903    25.478874   -5883.8692   -8732.6823 
   47600    299.40079   -5853.6331     28.55862   -5882.1918     14550.95 
   47800    381.22907   -5847.0088    36.363886   -5883.3727     1581.434 
   48000    286.17025   -5859.2094    27.296613    -5886.506   -4814.4284 
   48200    320.27699   -5855.8504    30.549916   -5886.4003    23481.942 
   48400    267.03547   -5861.2506    25.471424   -5886.7221    34931.267 
   48600    377.26431   -5849.8268    35.985704   -5885.8125   -9808.1298 
   48800    299.46801   -5859.7774    28.565032   -5888.3424    34306.116 
   49000    262.75244   -5859.0216    25.062884   -5884.0845   -2146.1452 
   49200    395.82449   -5847.6872    37.756084   -5885.4432     21866.27 
   49400     288.7111   -5860.6929    27.538975   -5888.2318   -8580.8312 
   49600    350.69873   -5851.3812    33.451722   -5884.8329   -3858.1915 
   49800    274.15729   -5860.7573    26.150746   -5886.9081    14873.916 
   50000    302.73113   -5858.3553    28.876288   -5887.2316   -17556.008 
   50200    276.50389   -5848.4591    26.374579   -5874.8337   -3921.5855 
   50400    311.25232   -5860.1273    29.689089   -5889.8164   -15746.956 
   50600     322.0304   -5861.4319    30.717166   -5892.1491    23480.615 
   50800    358.70116    -5855.971    34.215041    -5890.186   -6619.5102 
   51000    234.40084    -5869.103    22.358541   -5891.4615   -10370.523 
   51200    343.55553   -5858.6329    32.770361   -5891.4033    1257.4099 
   51400     233.2137    -5861.337    22.245304   -5883.5823   -2561.3436 
   51600    290.67624   -5857.0126    27.726421   -5884.7391    7492.7124 
   51800    292.97946   -5850.8426    27.946115   -5878.7887   -6917.9055 
   52000    340.74833   -5843.7933    32.502593   -5876.2959    25936.163 
   52200    290.77657   -5859.8588    27.735991   -5887.5948   -13817.338 
   52400    354.68818   -5857.1412    33.832259   -5890.9735    12038.363 
   52600    243.21294   -5862.3927     23.19909   -5885.5918    23428.396 
   52800    386.58908   -5852.4939    36.875156   -5889.3691    11480.425 
   53000    261.29609   -5865.1177    24.923969   -5890.0417    2395.4949 
   53200    277.17036   -5859.5235     26.43815   -5885.9616    12402.221 
   53400    304.04271   -5860.1052    29.001394   -5889.1066     15917.09 
   53600    187.22053   -5869.5009    17.858203   -5887.3591   -4919.9249 
   53800    327.50072   -5857.4778    31.238958   -5888.7168   -2415.4897 
   54000     342.9296   -5853.7524    32.710656    -5886.463    4946.2696 
   54200    311.92955   -5851.3215    29.753688   -5881.0752   -6833.1611 
   54400    266.75301   -5858.7051    25.444482   -5884.1496   -21441.475 
   54600    274.13638   -5862.7339    26.148752   -5888.8827   -10784.563 
   54800    351.94785   -5853.5225     33.57087   -5887.0934   -22749.266 
   55000     366.0542    -5860.362    34.916417   -5895.2784    10211.233 
   55200    244.69032   -5870.6772    23.340012   -5894.0172     15364.37 
   55400    346.91208   -5859.4154    33.090529    -5892.506   -5241.1296 
   55600    260.91387   -5862.6174     24.88751   -5887.5049    -3110.239 
   55800    360.59547   -5850.0964    34.395731   -5884.4921    17536.209 
   56000    256.12186   -5860.1107     24.43042   -5884.5411   -10212.037 
   56200    295.23457   -5860.3071    28.161221   -5888.4683    1856.0369 
   56400    359.89859   -5846.1363    34.329259   -5880.4656    6943.5466 
   56600    315.37037   -5859.1419    30.081893   -5889.2238    3890.2027 
   56800    291.95453   -5858.5033    27.848352   -5886.3517    8187.5776 
   57000    324.17442   -5855.2863    30.921676    -5886.208    6860.7644 
   57200    265.86855   -5864.5509    25.360117    -5889.911      13496.2 
   57400    329.93795   -5854.9567    31.471436   -5886.4281    25497.087 
   57600    321.86156   -5854.8492    30.701062   -5885.5503   -24398.718 
   57800    257.79345   -5862.2367    24.589866   -5886.8266    14618.119 
   58000    284.96181   -5859.5054    27.181345   -5886.6867   -8539.3322 
   58200    340.16182   -5851.7557    32.446649   -5884.2023    14067.143 
   58400     268.1967   -5861.2358     25.58219    -5886.818   -26820.698 
   58600    307.41074   -5859.6719    29.322657   -5888.9945    12454.964 
   58800     302.4189   -5860.8892    28.846505   -5889.7357    17560.377 
   59000    340.32517   -5856.3871     32.46223   -5888.8493    9016.2107 
   59200    299.25292   -5856.7494    28.544516   -5885.2939    24879.285 
   59400     294.2772   -5863.5789    28.069902   -5891.6488    4474.5699 
   59600    325.92628   -5858.0151    31.088779   -5889.1039     2439.852 
   59800    347.79356   -5861.6679    33.174609   -5894.8425   -265.25591 
   60000    293.89231   -5866.8214    28.033189   -5894.8546    17421.516 
   60200    291.37075   -5857.9236    27.792668   -5885.7163   -9664.3606 
   60400     197.5109   -5865.5676    18.839759   -5884.4074   -35530.278 
   60600    319.00965   -5859.6653     30.42903   -5890.0943    22244.024 
   60800    294.44629   -5855.9238    28.086031   -5884.0099   -5135.3298 
   61000    290.87306   -5867.8143    27.745195   -5895.5595   -3484.3007 
   61200     352.6101   -5853.6756    33.634039   -5887.3097    20064.597 
   61400    257.28123    -5860.631    24.541007    -5885.172    7216.7639 
   61600    401.94489   -5847.2751    38.339883    -5885.615    11461.774 
   61800    292.18706   -5864.0274    27.870532    -5891.898    13348.458 
   62000    303.77863   -5857.6552    28.976205   -5886.6314   -5857.3287 
   62200    304.96108   -5855.7833    29.088993   -5884.8722   -18161.863 
   62400    260.05824   -5867.0828    24.805894   -5891.8887    6219.2577 
   62600      257.436   -5855.7309     24.55577   -5880.2867    13709.076 
   62800    281.61106    -5855.434     26.86173   -5882.2957    28618.331 
   63000    268.84031   -5852.1383    25.643581   -5877.7819    4060.3311 
   63200    321.76086   -5849.2501    30.691456   -5879.9416    6.7323991 
   63400    281.50218   -5860.3299    26.851345   -5887.1812    2590.3862 
   63600    302.92104    -5862.885    28.894402   -5891.7794   -33340.425 
   63800    252.82313   -5865.4743    24.115767   -5889.5901   -6017.2653 
   64000     321.0789   -5853.8078    30.626407   -5884.4342   -1851.3273 
   64200    292.60378    -5866.947    27.910281   -5894.8572   -7377.6615 
   64400    218.68214   -5866.3017    20.859197   -5887.1609   -23961.741 
   64600    324.52658   -5856.0394    30.955266   -5886.9946    3886.9237 
   64800    284.83768   -5862.5545    27.169504    -5889.724    18113.104 
   65000    222.13884   -5870.9253    21.188918   -5892.1142    4440.9765 
   65200    397.14183   -5857.6681    37.881739   -5895.5499    -28148.45 
   65400    302.11181   -5860.7292    28.817213   -5889.5464   -18532.376 
   65600    267.52959   -5861.9007    25.518556   -5887.4192    9279.3553 
   65800    264.78473   -5864.0734    25.256736   -5889.3302    5380.0615 
   66000    373.28988   -5849.2139    35.606599   -5884.8205   -11104.181 
   66200     285.4478   -5862.1096    27.227701   -5889.3373   -29475.379 
   66400    297.56576   -5855.4132    28.383584   -5883.7968   -16800.098 
   66600    286.09191   -5862.0371    27.289141   -5889.3263    11488.149 
   66800    336.75896   -5863.5418    32.122063   -5895.6639    10876.527 
   67000     255.4312   -5860.1383     24.36454   -5884.5028   -3431.1448 
   67200    293.89314   -5860.5863    28.033268   -5888.6196    9108.6443 
   67400    228.77431   -5868.1945    21.821848   -5890.0163   -11181.883 
   67600    363.84084   -5854.3008    34.705294   -5889.0061    -35491.41 
   67800    346.65334    -5855.476    33.065848   -5888.5419   -17932.399 
   68000    234.89798   -5868.4549     22.40596   -5890.8608   -19506.482 
   68200    246.50783   -5860.2711    23.513376   -5883.7845   -5959.7557 
   68400    290.92462   -5857.3372    27.750113   -5885.0873    9031.2748 
   68600     261.4753   -5870.2519    24.941063   -5895.1929    2391.1467 
   68800    304.96852   -5858.4937    29.089704   -5887.5834   -2990.7223 
   69000    300.34004   -5856.0363    28.648211   -5884.6845    9840.9163 
   69200    269.04843   -5866.6732    25.663432   -5892.3366    8113.9356 
   69400    373.18745   -5857.2662    35.596829   -5892.8631    7194.1438 
   69600    306.61956   -5856.2819    29.247189   -5885.5291   -15225.853 
   69800    328.30286   -5857.7659    31.315471   -5889.0814   -3847.9141 
   70000    284.44806   -5856.6985    27.132341   -5883.8308   -2664.4363 
   70200    224.92432   -5862.6306    21.454613   -5884.0852   -13292.059 
   70400    313.45681   -5859.8759    29.899367   -5889.7753   -7792.2861 
   70600    295.66405   -5852.1922    28.202188   -5880.3944    13633.796 
   70800    286.28348   -5855.4084    27.307414   -5882.7158    17590.901 
   71000    345.39271   -5856.3408    32.945602   -5889.2864   -10191.446 
   71200    198.01961   -5868.0524    18.888283   -5886.9407   -12272.078 
   71400    306.09887   -5857.8292    29.197523   -5887.0268    2775.5415 
   71600    308.01471   -5858.9118    29.380267   -5888.2921   -8062.0903 
   71800    250.65863   -5865.6615    23.909304   -5889.5708   -19139.722 
   72000    288.38482   -5861.9219    27.507851   -5889.4297   -2377.9329 
   72200    303.55648   -5856.2271    28.955015   -5885.1821    3930.1504 
   72400    330.72197   -5857.6663    31.546219   -5889.2125    11595.311 
   72600    293.48718   -5864.2007    27.994546   -5892.1952   -12165.641 
   72800    315.23249   -5858.8098    30.068741   -5888.8785   -19468.616 
   73000    335.44924   -5851.8676    31.997135   -5883.8647    719.70519 
   73200    255.25794   -5867.6386    24.348014   -5891.9867   -27861.388 
   73400    270.43916   -5858.4505    25.796088   -5884.2466    3666.6506 
   73600    286.47508   -5857.0672     27.32569   -5884.3929   -33454.078 
   73800     291.9764   -5865.7241    27.850438   -5893.5745    17497.526 
   74000    291.54999   -5865.1361    27.809765   -5892.9459   -3311.0783 
   74200    268.32715   -5856.9157    25.594632   -5882.5104    7584.8384 
   74400    253.64227   -5862.5007    24.193902   -5886.6946    35590.456 
   74600    251.67222   -5864.7047    24.005986   -5888.7107     3611.123 
   74800    357.04097   -5853.2343    34.056682    -5887.291   -2945.2628 
   75000     285.9746   -5859.5994     27.27795   -5886.8773    24275.464 
   75200    359.80577   -5852.3118    34.320405   -5886.6322   -3564.9969 
   75400    335.88977   -5843.7976    32.039155   -5875.8367    10157.033 
   75600    270.14633   -5860.8943    25.768156   -5886.6625    11692.817 
   75800    305.31659   -5854.4967    29.122904   -5883.6196   -6985.4519 
   76000    262.57858   -5861.1024    25.046299   -5886.1487    -13722.26 
   76200    352.25836    -5858.193    33.600488   -5891.7935   -21036.079 
   76400    395.96446   -5838.1685    37.769435    -5875.938    41844.686 
   76600     295.1882   -5855.4573    28.156798   -5883.6141    27126.706 
   76800     213.4819   -5860.4083    20.363168   -5880.7714   -1484.7935 
   77000    412.42952   -5847.8844     39.33997   -5887.2244   -30865.727 
   77200    226.31444   -5861.2312    21.587212   -5882.8184   -10991.324 
   77400    271.85431   -5859.9651    25.931074   -5885.8961   -22630.293 
   77600    276.25009   -5859.8862     26.35037   -5886.2366   -7608.3172 
   77800     343.0734   -5856.9944    32.724372   -5889.7188   -7054.4606 
   78000    275.33287   -5859.2626    26.262879   -5885.5255    11350.258 
   78200    219.21289   -5867.3345    20.909823   -5888.2443    3334.5597 
   78400     377.5712   -5854.6652    36.014977   -5890.6802   -5130.2475 
   78600    295.05803   -5858.3955    28.144383   -5886.5399    -4372.218 
   78800    224.68584   -5871.4163    21.431866   -5892.8482    5625.2996 
   79000    250.75013   -5865.6106    23.918032   -5889.5287    19638.607 
   79200    332.20878   -5855.6929    31.688041   -5887.3809   -9821.7566 
   79400    301.54327   -5858.1691    28.762982   -5886.9321     205.4682 
   79600    243.55255   -5868.4725    23.231485    -5891.704   -10193.593 
   79800    322.23954   -5857.9979    30.737115   -5888.7351   -14467.755 
   80000    336.78318   -5851.8926    32.124374    -5884.017    23229.947 
   80200    269.02569   -5866.4268    25.661263    -5892.088    4174.5462 
   80400    298.21989   -5861.0599    28.445979   -5889.5059    9264.9568 
   80600    318.00731   -5851.2978     30.33342   -5881.6313      20567.4 
   80800    283.06698   -5860.0554    27.000605   -5887.0561    14921.021 
   81000     308.5821   -5857.9242    29.434388   -5887.3586    185.92463 
   81200    398.64025   -5845.0126    38.024668   -5883.0373    12230.359 
   81400     306.4289   -5858.2971    29.229003   -5887.5261    17653.117 
   81600    372.31665   -5848.9979    35.513767   -5884.5117   -19479.546 
   81800    260.07926   -5864.7374      24.8079   -5889.5453    4909.9521 
   82000    321.75497   -5855.7473    30.690894   -5886.4382     17225.18 
   82200    281.51998   -5860.7835    26.853043   -5887.6365    857.39717 
   82400    277.08662   -5860.8862    26.430163   -5887.3164    7914.2702 
   82600    307.07521   -5852.8501    29.290652   -5882.1408    21960.527 
   82800    352.14149   -5858.0026     33.58934   -5891.5919    9155.6704 
   83000    246.88029   -5864.3814    23.548904   -5887.9303   -29842.249 
   83200    323.53904   -5854.4356    30.861069   -5885.2967    16352.851 
   83400    228.31765    -5861.153     21.77829   -5882.9313    34873.586 
   83600    255.96165   -5861.4555    24.415138   -5885.8706     3625.245 
   83800    351.19345   -5848.1512    33.498911   -5881.6501    -18449.46 
   84000    328.09607   -5856.9451    31.295746   -5888.2408    7812.7204 
   84200    279.70342   -5859.5133    26.679769   -5886.1931   -6608.8044 
   84400     315.8008   -5858.2564    30.122951   -5888.3793   -4448.3141 
   84600    260.05212   -5855.7589    24.805311   -5880.5642    25683.387 
   84800    291.69685   -5865.0685    27.823773   -5892.8923   -10517.924 
   85000    354.29744   -5851.0287    33.794988   -5884.8236   -6954.1895 
   85200    311.10523     -5851.33    29.675059   -5881.0051   -31019.383 
   85400    300.91372   -5857.1281    28.702932    -5885.831    18180.941 
   85600    255.81691   -5859.2783    24.401331   -5883.6796    7649.3156 
   85800    397.00522   -5850.5382    37.868709   -5888.4069    1505.0719 
   86000    318.23101   -5859.1593    30.354758    -5889.514     3650.777 
   86200    294.79276   -5857.5522    28.119079   -5885.6713   -32626.212 
   86400    351.57502   -5846.5593    33.535307   -5880.0946    20500.384 
   86600    268.30778   -5859.9881    25.592785   -5885.5809    3827.4024 
   86800     272.6938   -5858.9152     26.01115   -5884.9263   -7120.2213 
   87000    283.54639   -5859.0211    27.046333   -5886.0674    1857.0099 
   87200    265.46235   -5852.5918    25.321371   -5877.9132    11289.101 
   87400    283.31613   -5861.6143    27.024371   -5888.6386    7507.7248 
   87600    277.15766   -5862.0865    26.436938   -5888.5235    3819.8979 
   87800    326.92741   -5855.7792    31.184272   -5886.9634   -38568.013 
   88000    314.61964   -5862.4201    30.010284   -5892.4304   -8145.3302 
   88200    364.16668   -5852.3953    34.736374   -5887.1317    19992.657 
   88400    308.15753    -5850.228     29.39389   -5879.6218   -9325.7798 
   88600    275.60743   -5861.9271    26.289069   -5888.2162   -14719.797 
   88800    321.64349   -5854.3811    30.680261   -5885.0614    10780.903 
   89000    291.25414   -5843.1889    27.781544   -5870.9705   -28446.416 
   89200    282.02213   -5859.6978    26.900941   -5886.5987    34055.932 
   89400    324.41806   -5855.9163    30.944916   -5886.8612   -14009.995 
   89600    272.16788   -5855.4465    25.960984   -5881.4075    5160.2548 
   89800    311.08041   -5857.5512    29.672692   -5887.2239    5103.4476 
   90000    273.39278   -5863.5556    26.077822   -5889.6334    1959.7203 
   90200    282.07754   -5849.5171    26.906226   -5876.4233   -22567.113 
   90400     337.7557   -5855.3377    32.217138   -5887.5548    5492.4221 
   90600    291.43026   -5858.5364    27.798344   -5886.3348   -35593.836 
   90800    298.76709   -5862.1278    28.498175    -5890.626    -11763.01 
   91000    283.69754   -5858.9596    27.060752   -5886.0203    3319.4917 
   91200    298.25611    -5853.518    28.449434   -5881.9675    8597.3987 
   91400    237.69601   -5868.7241    22.672853    -5891.397   -12687.232 
   91600    269.06474   -5864.5458    25.664988   -5890.2108   -31632.309 
   91800    288.76188   -5858.3742    27.543818   -5885.9181    -22793.37 
   92000    374.29098    -5848.182     35.70209   -5883.8841   -45721.415 
   92200    311.24237   -5861.0163    29.688141   -5890.7044   -2243.6323 
   92400    293.40846   -5858.3701    27.987036   -5886.3571    6442.6012 
   92600    304.72932   -5853.3161    29.066887    -5882.383    33960.155 
   92800    233.60832   -5866.0696    22.282945   -5888.3526   -9080.0657 
   93000    304.64735   -5855.8804    29.059068   -5884.9395   -19766.682 
   93200     292.7663    -5857.409    27.925783   -5885.3347   -4472.9091 
   93400     283.2385   -5862.1744    27.016965   -5889.1914   -5184.8225 
   93600     258.2189   -5871.4633    24.630448   -5896.0938    5724.0603 
   93800    299.84939    -5857.782     28.60141   -5886.3834    13163.532 
   94000    277.15613   -5857.3772    26.436793    -5883.814   -5408.7178 
   94200    253.04917    -5867.003    24.137328   -5891.1403   -20039.659 
   94400    358.60329   -5853.1427    34.205705   -5887.3484   -1950.8955 
   94600    264.65216   -5857.7994     25.24409   -5883.0435   -21484.291 
   94800    344.83565   -5853.3525    32.892467   -5886.2449   -23171.983 
   95000    243.79021   -5862.9001    23.254154   -5886.1542   -16300.836 
   95200    333.15774   -5858.7486    31.778558   -5890.5272   -15935.559 
   95400    296.80783   -5852.6148    28.311289   -5880.9261    13065.927 
   95600    243.02109   -5862.4307    23.180791   -5885.6115   -8951.3505 
   95800    365.43832   -5857.8325    34.857671   -5892.6901    22212.561 
   96000    322.95989   -5850.1045    30.805827   -5880.9104   -14480.347 
   96200    241.97686   -5864.4761    23.081185   -5887.5573   -24594.935 
   96400     292.0289   -5858.3619    27.855446   -5886.2173    19.215232 
   96600    361.57614   -5848.7029    34.489273   -5883.1922    5799.7782 
   96800    307.95913   -5856.2896    29.374965   -5885.6645    4757.5994 
   97000    241.21283   -5864.4267    23.008308    -5887.435   -1677.1961 
   97200     418.6754    -5851.138    39.935738   -5891.0737    2127.6444 
   97400    230.20531   -5856.1578    21.958346   -5878.1161   -19835.386 
   97600    296.28402   -5859.6537    28.261325    -5887.915   -4537.6179 
   97800    252.56161   -5870.5079    24.090822   -5894.5987    4218.1883 
   98000    293.27041   -5855.3408    27.973868   -5883.3147    2293.7876 
   98200    261.43648   -5861.4834     24.93736   -5886.4208   -5964.5321 
   98400    307.36012   -5862.0715    29.317828   -5891.3893     -311.729 
   98600    346.09222   -5850.5114    33.012325   -5883.5237    3146.3596 
   98800    278.93966   -5860.6078    26.606916   -5887.2147    12743.272 
   99000    345.26395   -5851.8408     32.93332   -5884.7741    15960.103 
   99200    319.07317   -5856.3625    30.435088   -5886.7976    21030.514 
   99400    323.86089   -5859.2313    30.891769   -5890.1231    21679.371 
   99600    301.16121   -5858.4737     28.72654   -5887.2002    11762.755 
   99800    351.28243   -5852.3902    33.507399   -5885.8976    8303.6278 
  100000    336.17456   -5856.3895     32.06632   -5888.4559    24523.766 
  100200    209.27686   -5867.5924    19.962066   -5887.5544    4410.0868 
  100400    258.96632   -5857.8671    24.701741   -5882.5689   -19726.104 
  100600    283.81072    -5856.032    27.071547   -5883.1035    27713.677 
  100800    301.23086   -5863.1368    28.733183     -5891.87   -7818.7011 
  101000    301.20521   -5860.3988    28.730737   -5889.1296   -24816.971 
  101200    328.85866   -5853.7047    31.368486   -5885.0732   -497.12813 
  101400    275.31726   -5864.2513     26.26139   -5890.5127    20753.361 
  101600    374.38058   -5852.1742    35.710637   -5887.8849    9097.8942 
  101800    329.32715   -5855.7379    31.413174   -5887.1511   -41608.849 
  102000    311.38809   -5863.4703     29.70204   -5893.1723    16395.794 
  102200    313.61002   -5854.8043    29.913981   -5884.7183    17982.591 
  102400    282.93477   -5857.0928    26.987994   -5884.0808   -28025.567 
  102600    276.01686    -5856.408    26.328123   -5882.7361    -19035.85 
  102800    310.29995   -5857.9033    29.598246   -5887.5016   -1046.7294 
  103000    253.37926   -5864.9937    24.168814   -5889.1625   -14796.054 
  103200    314.64097   -5850.5323    30.012319   -5880.5446    4835.8043 
  103400    289.84874   -5852.9857    27.647489   -5880.6332   -12985.456 
  103600    301.73172   -5857.6994    28.780959   -5886.4803   -8041.5879 
  103800    279.41826    -5856.515    26.652568   -5883.1675   -2811.3864 
  104000    273.77223   -5847.7114    26.114016   -5873.8254    16382.101 
  104200    346.77413   -5860.9187     33.07737    -5893.996    20083.025 
  104400    312.13011   -5859.4986    29.772819   -5889.2714    -6043.708 
  104600    333.38273   -5854.8449    31.800019   -5886.6449   -1214.1448 
  104800    280.47603   -5855.3207    26.753465   -5882.0741     -30449.9 
  105000    238.11633   -5862.9188    22.712945   -5885.6317    20664.983 
  105200     318.7124   -5848.3935    30.400676   -5878.7942    9742.0984 
  105400     319.5903   -5855.4665    30.484415   -5885.9509    -16208.32 
  105600    212.33481   -5861.5591    20.253751   -5881.8128    9047.7855 
  105800     375.2769   -5848.1332    35.796133   -5883.9293    14716.193 
  106000    252.22835   -5857.5693    24.059034   -5881.6283   -7614.6892 
  106200      271.147   -5860.2328    25.863607   -5886.0964     11501.61 
  106400    327.56684   -5848.7578    31.245265   -5880.0031   -8974.3347 
  106600    278.39535   -5862.6492    26.554997   -5889.2042    3706.6428 
  106800    243.31663   -5860.7129    23.208981   -5883.9219    1957.5785 
  107000     352.8161   -5855.5735    33.653689   -5889.2272    22061.873 
  107200     242.1184   -5862.0738    23.094687   -5885.1685    -22116.91 
  107400    288.73961   -5856.5011    27.541694   -5884.0428    23142.275 
  107600      369.508   -5855.5438    35.245861   -5890.7896    18568.463 
  107800    243.91247    -5864.128    23.265816   -5887.3938   -18315.118 
  108000    274.65691   -5850.5345    26.198403   -5876.7329   -17332.073 
  108200    333.19118   -5855.2186    31.781748   -5887.0004    22413.113 
  108400    268.32814   -5862.2166    25.594727   -5887.8113    -17647.25 
  108600    319.78669   -5856.9272    30.503148   -5887.4303    4654.9232 
  108800     353.9271    -5853.877    33.759663   -5887.6367   -36679.592 
  109000    309.30647   -5861.4588    29.503483   -5890.9623   -11421.176 
  109200     280.2276   -5857.2366    26.729768   -5883.9663    22004.933 
  109400     339.5825   -5849.1689    32.391389   -5881.5603    5801.8681 
  109600    239.87859   -5864.8909    22.881041   -5887.7719   -23051.179 
  109800    328.58393   -5855.6854    31.342281   -5887.0277    12611.507 
  110000     305.3024   -5851.6496    29.121551   -5880.7712    24241.689 
  110200    310.58531   -5856.1781    29.625466   -5885.8035   -2420.9984 
  110400    294.67777   -5853.2556     28.10811   -5881.3637   -23615.615 
  110600    295.87416   -5848.9483    28.222229   -5877.1705   -6790.7553 
  110800     322.0048   -5861.7609    30.714725   -5892.4756   -16403.747 
  111000     292.4054   -5860.6771    27.891359   -5888.5685    15212.688 
  111200    321.64504   -5848.3867    30.680408   -5879.0671   -8380.5028 
  111400    304.41916   -5860.0197    29.037302    -5889.057    5820.7167 
  111600    233.75809   -5862.7691    22.297231   -5885.0664     2336.756 
  111800    368.42431    -5851.191    35.142492   -5886.3335    978.13882 
  112000    267.75138    -5860.316    25.539712   -5885.8557    11922.009 
  112200     229.6117   -5872.4676    21.901724   -5894.3693   -8318.2027 
  112400    308.12257   -5866.6287    29.390555   -5896.0193    13723.479 
  112600     303.3748   -5854.9935    28.937685   -5883.9312   -1859.0662 
  112800    306.86291   -5855.6183    29.270402   -5884.8887    13118.867 
  113000    280.70447    -5865.945    26.775255   -5892.7202    19010.075 
  113200    276.87015   -5856.4021    26.409515   -5882.8116   -21450.598 
  113400    221.14957   -5856.5735    21.094556   -5877.6681   -16896.046 
  113600    351.35656   -5851.4636     33.51447    -5884.978     11840.43 
  113800    316.12329   -5858.8524    30.153711   -5889.0061   -10230.867 
  114000    338.30465   -5862.4795    32.269501    -5894.749   -1312.2448 
  114200     312.1474   -5850.3621    29.774468   -5880.1365   -15366.184 
  114400    271.12454   -5861.7244    25.861464   -5887.5858     17003.79 
  114600    262.07799   -5859.1478    24.998551   -5884.1464    1098.3898 
  114800    352.71765   -5853.5633    33.644299   -5887.2076   -4333.0599 
  115000    317.80282   -5853.7337    30.313915   -5884.0476    4978.1899 
  115200    320.62403   -5855.9864    30.583019   -5886.5694   -23379.979 
  115400    271.44968   -5864.3986    25.892478   -5890.2911    4494.4729 
  115600    304.83015   -5862.4841    29.076505   -5891.5606   -13376.513 
  115800    265.81046   -5856.9587    25.354576   -5882.3133    18216.982 
  116000    238.45053   -5865.4487    22.744823   -5888.1936    23541.791 
  116200     296.6371    -5859.272    28.295003    -5887.567    26257.222 
  116400    290.53077   -5851.6819    27.712545   -5879.3945   -51326.731 
  116600    234.56691   -5862.8506     22.37438    -5885.225     7055.848 
  116800    423.96662   -5849.8962    40.440446   -5890.3367    19142.234 
  117000    359.71343   -5848.1376    34.311597   -5882.4492    2074.3745 
  117200    303.92209   -5861.2062    28.989889   -5890.1961   -2649.0348 
  117400    377.49662   -5852.0139    36.007863   -5888.0217    34780.891 
  117600    307.63283   -5862.0482    29.343841    -5891.392    10942.503 
  117800    195.17845    -5872.037    18.617276   -5890.6543    6148.5833 
  118000    334.98267    -5859.099    31.952631   -5891.0516    10145.928 
  118200    308.92746   -5852.8572     29.46733   -5882.3245    4414.9153 
  118400    289.51936   -5860.3971    27.616071   -5888.0132    7047.8565 
  118600    244.07194   -5862.9955    23.281027   -5886.2765    7315.1118 
  118800    387.02596   -5853.6644    36.916828   -5890.5812    10046.332 
  119000     285.3572   -5855.8419    27.219059    -5883.061    10073.222 
  119200    263.24097   -5859.9714    25.109482   -5885.0809    16636.342 
  119400    255.57939   -5863.0157    24.378675   -5887.3944   -10459.636 
  119600    369.60682   -5848.7501    35.255287   -5884.0054    21795.916 
  119800    299.17302   -5861.4992    28.536894   -5890.0361   -17774.033 
  120000    331.43124   -5857.0278    31.613874   -5888.6417    12425.424 
  120200    289.93841   -5855.9484    27.656042   -5883.6044    6626.0118 
  120400    229.77403   -5849.5791    21.917208   -5871.4963    33359.285 
  120600    235.36911    -5860.941      22.4509   -5883.3919   -34588.808 
  120800    255.27966   -5864.3042    24.350086   -5888.6542    30053.461 
  121000    298.02264    -5851.865    28.427164   -5880.2922    91.612902 
  121200    313.35949   -5854.4589    29.890084    -5884.349     1071.285 
  121400    215.63782   -5866.1795    20.568812   -5886.7483   -4159.8661 
  121600    306.06469   -5854.9485    29.194263   -5884.1427   -26113.403 
  121800    289.43885   -5860.9333    27.608392   -5888.5417    872.92171 
  122000    281.14489   -5867.7325    26.817264   -5894.5497   -10210.243 
  122200    326.86737    -5858.719    31.178545   -5889.8976    20406.111 
  122400     318.0368   -5853.5411    30.336233   -5883.8773    24207.085 
  122600    255.65881   -5868.5673    24.386251   -5892.9536    12541.465 
  122800    269.52919   -5860.0163     25.70929   -5885.7256    1176.1004 
  123000    334.71646   -5854.8851    31.927238   -5886.8123   -3856.5231 
  123200    238.70399   -5869.3454       22.769   -5892.1144     4045.951 
  123400    287.13249   -5861.9194    27.388397   -5889.3078    1656.6088 
  123600     310.6429   -5855.2785     29.63096   -5884.9095    -5252.295 
  123800    283.81099   -5859.0113    27.071573   -5886.0829   -14201.279 
  124000     287.4642    -5865.647    27.420038   -5893.0671    9796.6069 
  124200    331.75016   -5853.2929    31.644295   -5884.9372   -5723.7495 
  124400     296.6815   -5856.6382    28.299238   -5884.9374   -12172.266 
  124600    245.56084   -5868.8168    23.423047   -5892.2399    2796.9315 
  124800    297.92857   -5852.8953    28.418192   -5881.3135    16038.687 
  125000    233.75683   -5859.0161     22.29711   -5881.3132    -39832.77 
  125200    225.96393   -5865.7093    21.553778   -5887.2631    16930.085 
  125400    256.20652   -5860.7353    24.438495   -5885.1738   -10863.822 
  125600    344.08451   -5851.5387    32.820818   -5884.3595   -22043.742 
  125800    278.11362   -5863.7359    26.528124   -5890.2641    7275.0165 
  126000    242.51998   -5860.7504    23.132992   -5883.8834   -6789.8863 
  126200    287.36646   -5852.2716    27.410714   -5879.6823   -6932.7656 
  126400    244.82575   -5862.4106     23.35293   -5885.7635    14557.559 
  126600    253.48129   -5858.1737    24.178546   -5882.3523   -32503.815 
  126800    395.38864   -5851.8705     37.71451    -5889.585   -697.05393 
  127000    261.76895   -5860.7913    24.969073   -5885.7604     -9831.91 
  127200    182.42911    -5874.286    17.401169   -5891.6871   -29445.386 
  127400    289.22722   -5864.0233    27.588205   -5891.6115     27195.17 
  127600    348.63452   -5852.8803    33.254825   -5886.1351   -10501.562 
  127800    282.91005   -5862.8832    26.985636   -5889.8689   -9017.4247 
  128000    227.68138   -5868.4935    21.717598   -5890.2111    11638.995 
  128200    249.39523   -5853.5892    23.788794    -5877.378   -48878.592 
  128400    305.88748   -5856.4681    29.177359   -5885.6454   -8355.7527 
  128600    239.19102    -5864.473    22.815456   -5887.2884    23023.638 
  128800    369.42329   -5857.1234    35.237781   -5892.3611   -15080.417 
  129000    268.34635   -5857.1645    25.596464    -5882.761    1302.7531 
  129200    369.73321   -5852.1188    35.267343   -5887.3861    -16188.72 
  129400     302.3793   -5854.5452    28.842728   -5883.3879   -8892.9112 
  129600    258.65863   -5862.9595    24.672392   -5887.6319    14405.247 
  129800     375.7327   -5848.4619     35.83961   -5884.3015    8342.3416 
  130000    296.12673   -5848.1771    28.246321   -5876.4234    850.14494 
  130200    233.91533   -5861.5377    22.312229   -5883.8499    -42929.46 
  130400    357.49824   -5851.8387    34.100299    -5885.939    21273.456 
  130600    314.28353   -5855.2624    29.978224   -5885.2406   -10582.828 
  130800     253.9943   -5860.3813     24.22748   -5884.6088    19251.519 
  131000    367.50186   -5846.1559    35.054503   -5881.2104    253.73114 
  131200    315.02155   -5855.7103    30.048621    -5885.759    -1683.127 
  131400    304.42166   -5857.1657    29.037541   -5886.2033    12017.516 
  131600    289.01953   -5865.4432    27.568394   -5893.0116   -37118.478 
  131800    258.20765   -5855.8647    24.629375    -5880.494    -34485.75 
  132000     333.2443   -5854.0299    31.786815   -5885.8168    27788.062 
  132200    290.43571   -5861.0109    27.703478   -5888.7143   -7676.0298 
  132400    298.77353   -5856.7739    28.498789   -5885.2727   -15136.322 
  132600    276.07063   -5856.6535    26.333251   -5882.9867    919.42843 
  132800    338.87233   -5845.8902    32.323649   -5878.2138    29466.641 
  133000     242.6979   -5859.9283    23.149963   -5883.0783    3566.3075 
  133200     261.4561   -5859.3784    24.939231   -5884.3176    21780.507 
  133400    389.44318   -5853.4139    37.147397   -5890.5613   -18672.715 
  133600    210.59595   -5861.3749    20.087889   -5881.4628   -13344.123 
  133800    334.96419   -5857.4576    31.950868   -5889.4085    13490.323 
  134000    345.33408   -5849.9435     32.94001   -5882.8835     31373.76 
  134200    289.42635   -5863.0261    27.607199   -5890.6333   -19563.787 
  134400      293.758     -5858.12    28.020378   -5886.1404    17086.521 
  134600    424.92088   -5835.6832    40.531469   -5876.2146    6640.8902 
  134800    289.91406   -5854.4909     27.65372   -5882.1446   -4384.4548 
  135000    288.12072   -5862.3243    27.482661   -5889.8069      6725.31 
  135200    277.24986   -5859.4617    26.445733   -5885.9075    25919.472 
  135400    294.10749   -5850.9581    28.053714   -5879.0118   -6113.6272 
  135600    295.73193   -5864.9969    28.208663   -5893.2056    9549.4817 
  135800    237.61354   -5862.1002    22.664987   -5884.7652   -15233.126 
  136000    259.67997   -5854.5048    24.769813   -5879.2746    19265.404 
  136200    360.80369    -5845.058    34.415592   -5879.4736   -3362.4948 
  136400     291.6325   -5857.5671    27.817635   -5885.3848    21160.875 
  136600      305.683   -5858.5226    29.157854   -5887.6805   -8178.5103 
  136800    360.42456   -5844.2274    34.379428   -5878.6068    14693.812 
  137000     306.8254   -5858.1282    29.266824    -5887.395    29740.605 
  137200     337.9257   -5852.5639    32.233354   -5884.7972   -25980.219 
  137400    262.29347   -5859.2758    25.019105   -5884.2949   -8065.3131 
  137600    309.18059   -5862.5225    29.491476    -5892.014   -13005.203 
  137800     300.3745   -5854.3216    28.651498   -5882.9731    459.08092 
  138000    214.94053   -5860.8499    20.502301   -5881.3522    11179.818 
  138200    344.00136   -5852.8185    32.812887   -5885.6314      26455.6 
  138400    317.20727   -5849.3679    30.257108    -5879.625   -12894.404 
  138600    266.58638   -5860.4226    25.428587   -5885.8512   -4100.0306 
  138800    273.59579    -5855.132    26.097186   -5881.2292   -3004.6929 
  139000    314.84857   -5849.9558    30.032121   -5879.9879    21448.694 
  139200    234.44378   -5864.6288    22.362636   -5886.9914   -40933.465 
  139400     300.9515   -5855.8553    28.706536   -5884.5619    4605.5419 
  139600     405.0112   -5852.3858    38.632366   -5891.0182    16407.019 
  139800    283.31575   -5859.1226    27.024334   -5886.1469   -27957.788 
  140000     220.1283   -5860.0544    20.997141   -5881.0515    21915.078 
  140200    329.36214     -5853.86    31.416512   -5885.2765    20768.725 
  140400    335.37886    -5851.046    31.990422   -5883.0364    8443.7372 
  140600    281.44496   -5855.6828    26.845887   -5882.5287   -20030.482 
  140800    279.72077   -5859.1488    26.681423   -5885.8303    9470.1762 
  141000    299.74676   -5863.9981    28.591621   -5892.5897    14802.083 
  141200     295.1056   -5851.7318    28.148919   -5879.8807   -36836.693 
  141400    366.40359   -5857.3753    34.949744   -5892.3251    15867.101 
  141600    310.82873   -5862.9804    29.648685   -5892.6291    4591.0163 
  141800    343.73267   -5850.2833    32.787258   -5883.0705    8033.9562 
  142000    337.41366   -5856.0553    32.184513   -5888.2398    8729.2514 
  142200     268.0826   -5858.9416    25.571305   -5884.5129   -10145.216 
  142400    305.96504   -5858.2957    29.184757   -5887.4804    6830.9154 
  142600    358.56058   -5844.1833    34.201631   -5878.3849   -3634.2635 
  142800    323.05063   -5858.5821    30.814482   -5889.3966   -21413.497 
  143000     253.2301   -5860.2999    24.154586   -5884.4545   -3657.5955 
  143200    328.94125   -5849.3513    31.376364   -5880.7276   -16140.255 
  143400    308.91751   -5850.4089    29.466381   -5879.8752   -23617.683 
  143600     250.4907   -5863.3047    23.893286    -5887.198   -23751.526 
  143800    350.63892   -5852.6059    33.446016   -5886.0519    8075.6001 
  144000    386.65904   -5847.3946    36.881829   -5884.2764    40210.855 
  144200    218.94674   -5861.4896    20.884436   -5882.3741    16294.257 
  144400    259.16199   -5857.1046    24.720405    -5881.825      24868.9 
  144600    324.22427   -5851.2061    30.926431   -5882.1325    12530.421 
  144800    304.81068   -5858.0241    29.074647   -5887.0987   -174.98084 
  145000    226.19439   -5868.5863     21.57576   -5890.1621    110.09411 
  145200    307.96896   -5858.0569    29.375903   -5887.4328   -7314.3684 
  145400    316.35409   -5854.7202    30.175726   -5884.8959    42484.432 
  145600    305.23438   -5865.1346    29.115063   -5894.2496   -13208.427 
  145800    254.48019   -5863.1661    24.273827   -5887.4399    4284.0324 
  146000      293.648   -5855.0847    28.009886   -5883.0945   -2820.2944 
  146200    225.39788   -5866.2087    21.499784   -5887.7085   -7049.7231 
  146400    269.74339   -5861.5534    25.729722   -5887.2831    14349.985 
  146600    324.45188    -5855.671    30.948141   -5886.6191    -14672.49 
  146800    313.61159   -5848.8442     29.91413   -5878.7584   -6745.9248 
  147000    287.28718   -5865.0211    27.403153   -5892.4242   -1517.3664 
  147200    321.93455   -5861.3667    30.708024   -5892.0747    10298.772 
  147400    338.18411    -5852.786    32.258003    -5885.044   -11933.371 
  147600    267.65533   -5864.5176    25.530551   -5890.0481    22638.979 
  147800     248.1692   -5864.9027    23.671848   -5888.5746    9354.2935 
  148000     314.8304   -5853.1131    30.030388   -5883.1435    5788.8897 
  148200    340.27394    -5855.033    32.457343   -5887.4903    19268.407 
  148400    271.39013   -5864.3963    25.886798   -5890.2831   -12631.189 
  148600    300.55266   -5849.5868    28.668492   -5878.2553   -26520.843 
  148800    333.04625   -5855.0962    31.767924   -5886.8641    11783.036 
  149000    316.08158   -5858.1132    30.149733   -5888.2629    15674.475 
  149200    312.67331   -5845.7038    29.824632   -5875.5285    13215.395 
  149400    327.35129   -5851.6521    31.224705   -5882.8768    8098.0455 
  149600    244.65566   -5859.5457    23.336706   -5882.8825   -71021.487 
  149800    252.12595   -5857.0447    24.049266   -5881.0939    15570.073 
  150000     395.9517   -5848.2242    37.768218   -5885.9924    10574.719 
  150200    345.39069   -5859.7706     32.94541   -5892.7161    4126.6864 
  150400    347.89907   -5855.9192    33.184673   -5889.1039   -19329.223 
  150600    282.13284   -5854.2849    26.911501   -5881.1964   -1853.5759 
  150800    333.14527   -5860.9527    31.777369     -5892.73    7293.5825 
  151000    269.46431   -5857.7457    25.703102   -5883.4488   -17028.872 
  151200     334.1965   -5846.3878    31.877641   -5878.2655    2109.9959 
  151400    308.71416   -5857.7905    29.446985   -5887.2375   -16888.746 
  151600    306.53083   -5856.5097    29.238726   -5885.7484    8715.9247 
  151800     302.8078   -5865.3644    28.883601    -5894.248    21399.995 
  152000    294.44049   -5860.2496    28.085477   -5888.3351   -31364.617 
  152200    304.97858   -5853.9592    29.090663   -5883.0498   -13966.882 
  152400    255.87289   -5863.5381    24.406671   -5887.9448    -7449.228 
  152600    230.55737    -5870.494    21.991927   -5892.4859   -5106.4562 
  152800     307.8304   -5856.6997    29.362686   -5886.0624   -21965.765 
  153000    255.99598   -5851.5354    24.418413   -5875.9538   -34632.796 
  153200    336.06523    -5848.978    32.055892   -5881.0339   -20437.912 
  153400    266.52037   -5858.3789    25.422292   -5883.8012    18319.189 
  153600    333.17703   -5848.1249    31.780398   -5879.9053   -10488.795 
  153800    286.22081   -5861.3305    27.301436   -5888.6319    21296.377 
  154000    278.84672   -5861.3439    26.598051   -5887.9419   -7833.6337 
  154200      382.646   -5847.9424    36.499041   -5884.4414   -524.30993 
  154400    279.12602   -5858.6645    26.624693   -5885.2892   -11921.128 
  154600    291.62944   -5859.6135    27.817342   -5887.4308   -32104.374 
  154800    324.02935    -5841.829    30.907838   -5872.7368   -32870.319 
  155000    313.47308   -5854.4209    29.900918   -5884.3218   -8969.4165 
  155200    257.61879   -5863.2187    24.573205   -5887.7919   -27322.765 
  155400    267.15629   -5861.3557    25.482949   -5886.8387   -2140.7513 
  155600    349.67936   -5849.4759    33.354488   -5882.8304   -5879.7694 
  155800    288.37772   -5862.9607    27.507175   -5890.4678    10467.274 
  156000    275.92696   -5859.1975    26.319547    -5885.517    8649.6481 
  156200    288.79687   -5856.2055    27.547156   -5883.7527    17828.332 
  156400    318.19117   -5853.2468    30.350958   -5883.5977   -25739.825 
  156600    265.05778   -5853.4288    25.282781   -5878.7116   -7804.5355 
  156800    308.81088   -5859.5507    29.456211   -5889.0069    6376.9605 
  157000    289.62832   -5867.6653    27.626464   -5895.2917    14883.368 
  157200    339.47419   -5855.3946    32.381059   -5887.7756    7749.2724 
  157400    282.26858   -5853.4036    26.924449   -5880.3281   -11823.965 
  157600    235.37218    -5867.345    22.451192   -5889.7962    5420.3304 
  157800    265.19984   -5864.2721    25.296331   -5889.5684     976.6797 
  158000    333.44646   -5853.9403    31.806098   -5885.7464    115.99242 
  158200    357.34399   -5852.9577    34.085585   -5887.0433    3570.0124 
  158400    248.91879   -5865.8781    23.743348   -5889.6214    21434.542 
  158600    323.80559   -5856.6685    30.886494    -5887.555    7473.7517 
  158800    287.45569   -5854.1286    27.419226   -5881.5479    20979.494 
  159000    364.56729   -5858.6159    34.774587   -5893.3904   -11060.929 
  159200    274.85365   -5867.4801    26.217169   -5893.6972    6744.3189 
  159400    339.09772   -5852.7826    32.345148   -5885.1277     7791.629 
  159600    293.96448   -5858.8164    28.040073   -5886.8565   -15548.522 
  159800    244.75931   -5866.3033    23.346592   -5889.6499   -1878.3341 
  160000    302.14421   -5854.7002    28.820304   -5883.5205    4094.1254 
  160200    364.38003   -5849.7212    34.756725   -5884.4779    1745.0554 
  160400    307.34364   -5862.8678    29.316256   -5892.1841    20490.023 
  160600    255.37011   -5857.4771    24.358713   -5881.8358   -721.33457 
  160800    298.85391   -5854.6545    28.506455   -5883.1609     18652.14 
  161000    240.91378   -5867.6811    22.979783   -5890.6609   -22324.526 
  161200    284.95213   -5862.8912    27.180422   -5890.0716    11619.867 
  161400    385.09388    -5854.669    36.732535   -5891.4015   -24787.595 
  161600    252.36434   -5863.3536    24.072005   -5887.4256    -3865.264 
  161800    245.52155   -5866.8181    23.419299   -5890.2374   -4710.8348 
  162000    307.20198   -5851.6235    29.302744   -5880.9263    7852.0797 
  162200    218.39889   -5862.2936    20.832179   -5883.1257    20815.132 
  162400     335.7885   -5858.8445    32.029496    -5890.874    14207.956 
  162600    344.20841   -5848.2397    32.832636   -5881.0723   -20000.333 
  162800    324.96963   -5857.6706    30.997528   -5888.6682    4481.2099 
  163000    310.46053   -5859.6432    29.613564   -5889.2567    7169.6433 
  163200    300.94526    -5850.145    28.705941    -5878.851    9985.4513 
  163400    348.79155    -5855.557    33.269804   -5888.8268     895.5031 
  163600    274.62167   -5862.1119    26.195041   -5888.3069     9947.968 
  163800    315.97118   -5848.7905    30.139202   -5878.9297    2258.4544 
  164000    315.21254    -5852.631    30.066839   -5882.6978   -1249.9153 
  164200    327.37569   -5863.0906    31.227032   -5894.3176   -10848.707 
  164400    278.05548   -5855.4423    26.522578   -5881.9649   -749.03508 
  164600    273.33307   -5854.5842    26.072127   -5880.6563    8283.6209 
  164800    250.90914   -5866.8936      23.9332   -5890.8268    9569.9203 
  165000    259.29654   -5863.2721    24.733239   -5888.0054   -2317.6202 
  165200    311.72197   -5857.7024    29.733887   -5887.4363   -3100.2074 
  165400    409.27479   -5845.0298    39.039053   -5884.0688    32597.801 
  165600     296.3762    -5859.565    28.270117   -5887.8352   -975.60416 
  165800    262.86632   -5857.4932    25.073747   -5882.5669   -35264.486 
  166000    340.23356   -5844.2812    32.453492   -5876.7347    6760.4313 
  166200    235.45321   -5860.1474    22.458921   -5882.6064    14119.238 
  166400    356.27971    -5854.392    33.984068   -5888.3761    -14604.39 
  166600    389.64253   -5843.4576    37.166412   -5880.6241    24303.798 
  166800    254.94585   -5860.9958    24.318245    -5885.314    26338.737 
  167000    271.70442   -5857.1337    25.916776   -5883.0504   -11724.938 
  167200    317.12883    -5849.779    30.249626   -5880.0286    13183.412 
  167400    327.20665   -5858.1593    31.210908   -5889.3702    7636.8902 
  167600     293.8144   -5858.8237    28.025758   -5886.8495   -20345.382 
  167800    354.64726   -5852.2743    33.828356   -5886.1027   -301.93486 
  168000    336.95283   -5857.0205    32.140556    -5889.161    7154.1261 
  168200    249.29895   -5864.0336     23.77961   -5887.8132    14883.908 
  168400    304.91064   -5856.6187    29.084183   -5885.7029     12503.62 
  168600    296.79078   -5860.2244    28.309662   -5888.5341   -4128.4069 
  168800    351.43796   -5849.1568    33.522233   -5882.6791    7950.7207 
  169000    298.25862   -5862.2861    28.449674   -5890.7358    2573.3997 
  169200    253.12063   -5863.0851    24.144144   -5887.2292    29965.453 
  169400    253.32838   -5855.3777    24.163961   -5879.5417   -1301.6645 
  169600    295.14664   -5856.9063    28.152835   -5885.0591   -2588.7576 
  169800    284.77454   -5862.6848    27.163482   -5889.8483     17622.93 
  170000    331.09692   -5848.5916    31.581985   -5880.1736   -7241.0657 
  170200    350.13454   -5855.5366    33.397906   -5888.9345    6989.3076 
  170400    276.42274   -5861.2514    26.366838   -5887.6182    9713.1062 
  170600    346.77046   -5855.5178     33.07702   -5888.5948    18637.098 
  170800    411.06676   -5844.8681    39.209982    -5884.078    -50842.04 
  171000    281.30222   -5856.5521    26.832271   -5883.3844    6635.2859 
  171200    288.60013   -5858.6853    27.528389   -5886.2137    2077.6005 
  171400    280.45973   -5868.9891     26.75191    -5895.741   -2318.1797 
  171600    324.87499   -5855.2732    30.988501   -5886.2617    8198.9695 
  171800     371.7794   -5851.3667    35.462521   -5886.8293    14886.561 
  172000    266.19678   -5863.2544    25.391425   -5888.6458    18455.479 
  172200    291.12424   -5858.8418    27.769153   -5886.6109   -1403.9882 
  172400    287.57047   -5855.2589    27.430175   -5882.6891   -20849.928 
  172600    269.30989   -5859.6759    25.688372   -5885.3643   -13282.938 
  172800    232.28806   -5865.8799    22.157011   -5888.0369   -2701.3171 
  173000    276.25356   -5852.3867      26.3507   -5878.7374    2128.7102 
  173200    257.55461    -5862.521    24.567083    -5887.088    10206.305 
  173400    301.88886   -5855.2071    28.795948    -5884.003   -47889.846 
  173600    340.40648   -5851.3704    32.469986   -5883.8404    4070.8144 
  173800    267.37698   -5861.1545       25.504   -5886.6585   -9735.3272 
  174000    354.54756   -5853.6887    33.818846   -5887.5076    16065.714 
  174200    275.24887   -5846.3993    26.254867   -5872.6541   -20092.917 
  174400    317.32805   -5858.6053    30.268629   -5888.8739   -322.55799 
  174600    337.52918    -5853.644    32.195532   -5885.8395   -16469.167 
  174800    330.71583   -5854.5792    31.545634   -5886.1249    27059.972 
  175000    308.26633   -5858.5442    29.404268   -5887.9485    -833.5522 
  175200    356.58648   -5854.9516     34.01333   -5888.9649   -4895.8587 
  175400    305.66554   -5865.9445    29.156189   -5895.1007   -11242.603 
  175600    297.47155   -5851.1723    28.374598   -5879.5469    8927.9542 
  175800    263.53717   -5854.5202    25.137736   -5879.6579   -17913.279 
  176000    288.74863   -5866.1836    27.542554   -5893.7262   -5388.4386 
  176200    231.48189   -5871.2225    22.080113   -5893.3026     2814.506 
  176400    322.59267   -5856.3213    30.770799   -5887.0921    -7746.399 
  176600    373.46375   -5848.3023    35.623184   -5883.9255    5407.1511 
  176800    217.92418   -5862.0886    20.786899   -5882.8755   -9864.9493 
  177000    294.46553   -5860.4802    28.087866   -5888.5681    6018.5888 
  177200    346.16528   -5849.4699    33.019294   -5882.4892    7594.2091 
  177400    274.05283   -5861.1948    26.140781   -5887.3356    8294.1032 
  177600      308.246   -5854.1204    29.402328   -5883.5227    -12580.45 
  177800    235.55881   -5866.9046    22.468994   -5889.3736    5201.4916 
  178000    303.53484   -5856.2741     28.95295   -5885.2271   -4862.2957 
  178200    354.12839   -5853.6237    33.778863   -5887.4026   -10458.677 
  178400    278.01457   -5867.1503    26.518676    -5893.669    16682.319 
  178600     296.0652    -5855.689    28.240451   -5883.9294    1641.7956 
  178800    295.90038    -5857.468    28.224731   -5885.6927   -28274.803 
  179000     263.0145   -5858.0691     25.08788    -5883.157    2513.7411 
  179200    331.38163    -5853.835    31.609142   -5885.4441    16626.774 
  179400    334.20936   -5861.9683    31.878868   -5893.8471    18005.049 
  179600    284.72138   -5857.1827    27.158411   -5884.3411    35678.951 
  179800    304.42824   -5854.3068    29.038168    -5883.345   -32953.782 
[...]
  950000    312.52211   -5862.4455    29.810209   -5892.2557    26735.827 
  950200      362.589   -5847.8176    34.585886   -5882.4035    29985.306 
  950400    307.30709   -5857.7472     29.31277     -5887.06   -7542.3542 
  950600    266.49147   -5860.3238    25.419535   -5885.7433    4423.7677 
  950800    380.97597   -5852.0774    36.339744   -5888.4171    -11640.86 
  951000     325.0621   -5845.2587    31.006348   -5876.2651    22347.552 
  951200    256.88863   -5861.6599    24.503559   -5886.1635   -5190.5634 
  951400    298.19643     -5857.33    28.443741   -5885.7737   -17148.806 
  951600    339.02568   -5851.0163    32.338277   -5883.3545    -746.3508 
  951800    283.05686   -5864.4257    26.999639   -5891.4254    11749.733 
  952000    349.09716    -5853.147    33.298955   -5886.4459   -12486.262 
  952200    270.88308   -5863.7602    25.838432   -5889.5987     23527.59 
  952400    314.86371    -5862.848    30.033565   -5892.8815   -8785.1911 
  952600    306.94165   -5852.4777    29.277912   -5881.7556   -2435.9791 
  952800    279.01166    -5856.151    26.613784   -5882.7648   -5800.9437 
  953000    261.58958   -5854.7277    24.951963   -5879.6796    293.49418 
  953200    354.96085   -5852.6714    33.858267   -5886.5297    17525.718 
  953400    238.49187   -5862.2878    22.748767   -5885.0366    7837.5704 
  953600    322.84913   -5853.5104    30.795262   -5884.3056    28275.776 
  953800     358.5109   -5851.4237    34.196893   -5885.6206   -73.964637 
  954000    322.18104   -5858.8706    30.731535   -5889.6022   -2824.5291 
  954200    260.31382   -5862.0053    24.830274   -5886.8356   -21280.669 
  954400    334.07739   -5857.2481     31.86628   -5889.1144    1807.1056 
  954600    333.80941   -5846.0724    31.840719   -5877.9131    17382.779 
  954800    335.75668   -5851.3208    32.026461   -5883.3473   -1231.6623 
  955000    341.77876   -5854.2551    32.600882    -5886.856     6609.014 
  955200    240.03173   -5862.3383    22.895648   -5885.2339   -9258.6448 
  955400    275.93254   -5856.9031     26.32008   -5883.2232    13356.986 
  955600    286.62566   -5862.8103    27.340052   -5890.1503   -30544.094 
  955800    281.07362   -5862.7196    26.810466   -5889.5301   -2948.9425 
  956000    300.02132   -5852.4937     28.61781   -5881.1115   -20906.574 
  956200    272.38476   -5858.4735    25.981672   -5884.4551   -2167.3738 
  956400    323.72751   -5858.4244    30.879046   -5889.3034   -11266.201 
  956600    341.07314   -5843.0934    32.533575    -5875.627   -23527.596 
  956800    323.97308   -5851.1374    30.902471   -5882.0399     8810.204 
  957000    268.62585   -5862.3179    25.623124    -5887.941    3268.8919 
  957200    331.62698   -5856.2785    31.632545    -5887.911    3100.4735 
  957400    340.73886   -5852.5793     32.50169    -5885.081    11153.275 
  957600    254.61648   -5863.0202    24.286828   -5887.3071   -6946.4971 
  957800    385.44294   -5851.8008     36.76583   -5888.5666   -11098.663 
  958000    200.04122   -5864.8309    19.081116   -5883.9121    12959.822 
  958200    291.35547   -5859.1375     27.79121   -5886.9287   -27185.861 
  958400    326.65556   -5853.5417    31.158342   -5884.7001    6045.6108 
  958600    229.62486     -5865.91    21.902979    -5887.813    8605.5141 
  958800     337.3779   -5855.4353    32.181102   -5887.6164   -25689.099 
  959000    334.99225   -5855.0482    31.953545   -5887.0018   -16022.129 
  959200    308.67194   -5855.8091    29.442958    -5885.252   -25001.206 
  959400    340.74746   -5853.7721     32.50251   -5886.2747   -4782.6129 
  959600    324.83538   -5861.6474    30.984723   -5892.6321   -536.93981 
  959800    366.13143   -5845.7102    34.923784    -5880.634    29242.661 
  960000    286.23117   -5854.9085    27.302424   -5882.2109   -1293.4166 
  960200     333.7805   -5856.5674    31.837961   -5888.4053    18244.702 
  960400    286.09812   -5860.3776    27.289733   -5887.6673    6030.3643 
  960600    284.71126   -5860.8516    27.157446   -5888.0091   -10040.315 
  960800     306.9272   -5851.6741    29.276534   -5880.9506   -856.34957 
  961000    266.19811   -5863.1028    25.391552   -5888.4944    19462.658 
  961200    297.31139   -5860.7297    28.359321    -5889.089    22959.353 
  961400      333.615   -5853.4003    31.822175   -5885.2224   -13058.943 
  961600    215.22125   -5865.2081    20.529078   -5885.7371    16191.131 
  961800    362.01647   -5856.2871    34.531275   -5890.8183    27749.481 
  962000    372.18658   -5850.3663    35.501359   -5885.8677   -667.64903 
  962200    288.14127   -5859.4209     27.48462   -5886.9055    27377.008 
  962400    312.15955   -5853.6578    29.775627   -5883.4334     5196.525 
  962600    287.63645   -5852.0443    27.436468   -5879.4808    25510.403 
  962800      249.226   -5862.9915    23.772652   -5886.7641   -6193.1851 
  963000    342.68076   -5853.4536     32.68692   -5886.1405     10859.79 
  963200    275.45913   -5861.5926    26.274923   -5887.8675   -13234.611 
  963400    272.46605   -5867.5197    25.989426   -5893.5092    102.90692 
  963600    285.44189   -5856.9621    27.227137   -5884.1892    1504.4318 
  963800    279.10388   -5859.8985     26.62258   -5886.5211   -9252.6413 
  964000    246.01097   -5873.1104    23.465983   -5896.5764   -18034.123 
  964200    238.82142   -5862.1749    22.780202   -5884.9551    8690.8014 
  964400    329.30859   -5850.2396    31.411404    -5881.651   -7837.1985 
  964600    270.70794   -5860.6317    25.821727   -5886.4534   -15733.995 
  964800    229.03201   -5861.4329    21.846429   -5883.2793   -19797.815 
  965000     291.5763    -5852.854    27.812275   -5880.6663    13187.313 
  965200    340.93236   -5858.2379    32.520147    -5890.758   -1126.9569 
  965400    299.78737   -5861.7981    28.595495   -5890.3936   -10353.312 
  965600     318.7503   -5850.7494    30.404291   -5881.1537   -18338.482 
  965800    236.65854   -5865.8619    22.573893   -5888.4358   -929.16582 
  966000    306.98355   -5857.0338    29.281909   -5886.3157   -9003.1281 
  966200    340.57658   -5853.2859    32.486211   -5885.7721   -10344.823 
  966400    245.34955   -5866.4784    23.402893   -5889.8813   -4827.8657 
  966600    239.47793   -5868.0857    22.842823   -5890.9285    5979.6779 
  966800    308.46063   -5858.0837    29.422801   -5887.5065    11026.658 
  967000    310.61007   -5853.0561    29.627828   -5882.6839    5328.6073 
  967200    265.39537   -5867.9231    25.314982   -5893.2381   -18150.512 
  967400    252.05495   -5860.0197    24.042493   -5884.0622    -22353.46 
  967600    340.36555    -5854.209    32.466081   -5886.6751    1058.1494 
  967800    301.91093   -5854.8358    28.798052   -5883.6339    23280.299 
  968000    215.23891   -5866.8552    20.530762   -5887.3859    -8377.623 
  968200    356.62593   -5855.2331    34.017093   -5889.2502   -1700.0961 
  968400    312.92936   -5859.1078    29.849055   -5888.9568   -13870.336 
  968600    235.74268   -5864.4406    22.486533   -5886.9271    13356.116 
  968800    308.80878   -5848.0517     29.45601   -5877.5077   -5444.6526 
  969000    238.09462   -5859.9185    22.710875   -5882.6294    11206.673 
  969200    349.34708   -5856.8342    33.322793    -5890.157    22573.105 
  969400     449.0943   -5838.4246    42.837274   -5881.2618    10631.252 
  969600     370.3882   -5849.1938    35.329819   -5884.5236    12740.949 
  969800     295.1434   -5861.1291    28.152526   -5889.2816   -3462.4839 
  970000    295.05935   -5858.4633    28.144508   -5886.6078    10799.729 
  970200    293.51187   -5850.7463      27.9969   -5878.7432     21497.18 
  970400    262.68398   -5866.1622    25.056354   -5891.2185    4479.2919 
  970600    346.76418   -5858.9572    33.076421   -5892.0336    4040.1024 
  970800    324.36928   -5854.1933    30.940263   -5885.1335   -1178.0651 
  971000    279.81706   -5853.7279    26.690609   -5880.4185    4108.8862 
  971200    245.41549   -5862.9181    23.409183   -5886.3272   -3319.6743 
  971400    410.96293   -5850.6573    39.200078   -5889.8573    8233.7528 
  971600    335.71569   -5853.3793    32.022551   -5885.4018    10328.109 
  971800    302.73838   -5856.8048    28.876979   -5885.6818    -17221.56 
  972000     279.7128   -5858.2493    26.680664   -5884.9299     2427.955 
  972200    295.43613   -5847.7585    28.180447    -5875.939   -16564.098 
  972400     268.8995   -5860.6048    25.649227    -5886.254   -5197.0069 
  972600    262.73752   -5861.6727    25.061461   -5886.7342   -861.49724 
  972800    346.74739   -5845.4923    33.074819   -5878.5671   -11222.674 
  973000    344.89399   -5844.0358    32.898032   -5876.9339    14503.381 
  973200    331.10631   -5860.0534    31.582881   -5891.6363    16349.656 
  973400    261.18533   -5863.4027    24.913404   -5888.3161   -23397.705 
  973600     316.4189   -5852.6866    30.181909   -5882.8685    18064.615 
  973800    277.93571   -5867.2073    26.511154   -5893.7184    9681.3438 
  974000    241.54956   -5863.9659    23.040428   -5887.0063   -19542.205 
  974200    370.47262   -5852.1176    35.337872   -5887.4555    13000.132 
  974400    242.46156    -5864.017    23.127419   -5887.1444   -10629.593 
  974600    269.94189   -5864.0133    25.748656    -5889.762    14010.105 
  974800    333.04843   -5855.0367    31.768132   -5886.8048    11926.791 
  975000    266.52192   -5861.0034    25.422439   -5886.4258    10045.481 
  975200    272.68263   -5863.0271    26.010084   -5889.0372    7596.9444 
  975400     236.5218   -5852.5777     22.56085   -5875.1385   -7795.9665 
  975600    293.18099   -5855.3346    27.965339   -5883.2999   -11567.103 
  975800    276.85228   -5861.3682     26.40781    -5887.776    -19788.81 
  976000    239.67425   -5869.1494    22.861549   -5892.0109    11505.191 
  976200    276.54818   -5859.2661    26.378803   -5885.6449   -3059.7575 
  976400    266.35619   -5865.1978    25.406631   -5890.6044    14986.038 
  976600    261.95213   -5867.2093    24.986546   -5892.1958   -19009.153 
  976800     312.6683   -5854.2376    29.824154   -5884.0617   -6061.5101 
  977000    306.24163   -5857.5601     29.21114   -5886.7712    11142.194 
  977200    264.79446   -5860.8088    25.257664   -5886.0664    1323.9586 
  977400    351.92765   -5847.6598    33.568943   -5881.2288     28545.18 
  977600    320.59186   -5850.3226     30.57995   -5880.9025    12737.447 
  977800    287.87157   -5865.2225    27.458895   -5892.6814    5538.6546 
  978000    286.49393   -5854.2908    27.327487   -5881.6183   -31492.055 
  978200    304.32751   -5854.8331     29.02856   -5883.8616    -17282.43 
  978400    280.06999   -5861.4815    26.714734   -5888.1963   -6799.7784 
  978600    263.84828   -5856.8209    25.167412   -5881.9883   -10441.314 
  978800     324.5236   -5850.9813    30.954983   -5881.9363   -14840.555 
  979000    265.03462   -5863.5178    25.280571   -5888.7984    3627.3976 
  979200      360.652   -5847.5784    34.401123   -5881.9796   -15305.987 
  979400    298.40284   -5850.9689     28.46343   -5879.4324    25171.175 
  979600     303.4591   -5862.0558    28.945726   -5891.0015    16706.063 
  979800    374.07474   -5851.2858    35.681464   -5886.9672    9149.1341 
  980000    290.09529   -5857.0874    27.671006   -5884.7584   -1932.9199 
  980200    360.93605   -5856.8892    34.428217   -5891.3174   -30095.961 
  980400    255.91946   -5858.4389    24.411113     -5882.85   -31816.876 
  980600    302.74782   -5864.9823     28.87788   -5893.8602   -16001.231 
  980800    304.00735    -5851.605    28.998021    -5880.603     5969.462 
  981000    319.33175   -5855.4787    30.459754   -5885.9384   -9547.7382 
  981200    266.88481   -5860.6676    25.457053   -5886.1247    12640.214 
  981400    310.38017   -5846.6098    29.605898   -5876.2157    8179.9254 
  981600    223.37438    -5860.377    21.306771   -5881.6837   -28492.925 
  981800    354.73198   -5854.9859    33.836437   -5888.8224    7026.3646 
  982000    381.41003   -5840.1554    36.381147   -5876.5365    480.68092 
  982200     345.6897   -5857.6899     32.97393   -5890.6639    9661.0484 
  982400    340.50692   -5859.3346    32.479566   -5891.8142    13566.943 
  982600    339.85392    -5852.954    32.417279   -5885.3713     20996.49 
  982800    278.66491   -5850.6674    26.580709   -5877.2482    20657.641 
  983000    312.36384   -5862.2912    29.795113   -5892.0863    6111.0319 
  983200    342.85111   -5851.4744    32.703169   -5884.1776   -3510.6242 
  983400    327.60045   -5852.6237    31.248471   -5883.8722   -1781.2061 
  983600     265.8549   -5864.1927    25.358814   -5889.5515    -3967.281 
  983800    311.87617   -5852.2474    29.748596    -5881.996    4497.5114 
  984000    293.64172   -5858.0026    28.009286   -5886.0119   -6832.1375 
  984200    321.62144   -5862.4145    30.678157   -5893.0927    10311.035 
  984400     342.4741   -5853.7946    32.667208   -5886.4618   -25487.287 
  984600    278.66037   -5853.9066    26.580276   -5880.4868    9235.1077 
  984800    189.67486   -5865.3205    18.092311   -5883.4129    -6937.715 
  985000     272.4931   -5851.8068    25.992005   -5877.7988    40948.019 
  985200    311.20098   -5854.0889    29.684193   -5883.7731   -7218.6358 
  985400    241.31828   -5863.1448    23.018367   -5886.1631    20461.133 
  985600    318.84562    -5848.963    30.413383   -5879.3764   -6682.7992 
  985800    294.49464    -5860.596    28.090643   -5888.6867    4492.7629 
  986000    273.67159   -5861.9449    26.104417   -5888.0493    27910.577 
  986200    407.43471   -5842.5133    38.863535   -5881.3768    23450.249 
  986400    302.54915   -5852.2337    28.858929   -5881.0927   -8424.4816 
  986600    197.73172   -5859.8056    18.860822   -5878.6664    19769.065 
  986800    296.11932   -5854.3351    28.245614   -5882.5807   -15760.307 
  987000    355.22993    -5852.588    33.883935   -5886.4719    8943.5961 
  987200    265.28766   -5860.2501    25.304708   -5885.5548    18178.115 
  987400    394.19655   -5847.7403    37.600801   -5885.3411   -14166.068 
  987600    338.84353   -5853.5814    32.320903   -5885.9023   -13484.299 
  987800    285.06765   -5859.3259    27.191441   -5886.5173   -2420.0289 
  988000    341.33545    -5848.707    32.558596   -5881.2656    3418.6019 
  988200    308.14795   -5851.2002    29.392976   -5880.5932   -15511.758 
  988400    265.97765    -5860.266    25.370523   -5885.6365    14876.339 
  988600    350.25058   -5846.8625    33.408975   -5880.2715   -23806.542 
  988800    296.45615   -5855.1636    28.277743   -5883.4414    21667.948 
  989000    314.66674   -5861.4605    30.014777   -5891.4753   -18034.104 
  989200    316.26253   -5849.8224    30.166993   -5879.9894     7742.867 
  989400    300.40577   -5854.1594    28.654481   -5882.8139    8024.3043 
  989600     323.6405   -5862.5748    30.870747   -5893.4456    -7496.686 
  989800    263.99605   -5851.6567    25.181507   -5876.8382   -3778.6951 
  990000    297.05266   -5850.6785    28.334642   -5879.0131    689.88662 
  990200    261.37618   -5858.2662    24.931608   -5883.1978    37291.928 
  990400    278.93891    -5856.734    26.606845   -5883.3409   -35012.476 
  990600    256.20543   -5859.6007    24.438391   -5884.0391    1785.3865 
  990800    304.89424   -5853.4588    29.082618   -5882.5414   -16949.985 
  991000    296.47339   -5848.4695    28.279388   -5876.7489   -14406.233 
  991200    289.94731   -5861.5966    27.656892   -5889.2535    4967.4288 
  991400    294.25778   -5853.3947    28.068049   -5881.4627    17817.855 
  991600    342.77936   -5853.1402    32.696325   -5885.8365   -14400.176 
  991800    241.75535   -5861.3078    23.060057   -5884.3679    18913.804 
  992000     277.3567   -5866.2801    26.455924    -5892.736    204.26956 
  992200    290.93951   -5858.1363    27.751534   -5885.8879    1666.9874 
  992400    286.53511   -5859.4552    27.331415   -5886.7867    7302.9648 
  992600    262.13501   -5864.6601    25.003989    -5889.664    1632.0576 
  992800    290.91484    -5855.687     27.74918   -5883.4361   -10466.655 
  993000    360.10816   -5852.2859    34.349248   -5886.6352    11563.264 
  993200    242.85762   -5865.9004    23.165198   -5889.0656   -9288.4031 
  993400    246.35227   -5863.9846    23.498538   -5887.4831    5246.2938 
  993600    310.81969   -5848.4298    29.647823   -5878.0776   -6682.5901 
  993800     260.2286   -5858.6931    24.822145   -5883.5152    1296.4132 
  994000    309.34975   -5860.6621    29.507611   -5890.1697   -5019.9733 
  994200    349.40747   -5845.6884    33.328554    -5879.017    40394.698 
  994400    282.85429   -5857.6435    26.980317   -5884.6238   -9880.6382 
  994600    256.20066   -5863.6715    24.437936   -5888.1095    17534.933 
  994800    308.16749   -5859.7918     29.39484   -5889.1866    4483.3939 
  995000    365.17952   -5853.4063    34.832985   -5888.2393   -8383.3619 
  995200    285.16577   -5865.5328      27.2008   -5892.7336    -31035.36 
  995400    227.97746    -5871.138     21.74584   -5892.8839    5714.1206 
  995600    348.30819   -5855.8107    33.223698   -5889.0344   -9205.3053 
  995800    340.13864   -5853.4016    32.444437   -5885.8461    -42201.07 
  996000    224.98397   -5868.3821    21.460303   -5889.8424    1732.0131 
  996200    279.19317    -5860.361    26.631098   -5886.9921    22164.764 
  996400    319.46783   -5857.5605    30.472733   -5888.0333    7522.4334 
  996600    264.21024   -5860.7822    25.201938   -5885.9841   -40917.336 
  996800    210.59599   -5865.5209    20.087892   -5885.6087   -49522.264 
  997000    342.06933   -5852.4202    32.628599   -5885.0488    13383.144 
  997200    261.41451   -5860.2031    24.935264   -5885.1384    9576.6421 
  997400    253.83573   -5864.0132    24.212355   -5888.2255    7543.4854 
  997600    355.21569   -5853.1623    33.882576   -5887.0449    12691.106 
  997800    271.68123   -5855.2008    25.914564   -5881.1153   -20240.263 
  998000    245.70097    -5865.813    23.436413   -5889.2494    45006.554 
  998200    351.25006   -5853.4843    33.504311   -5886.9886    -20705.51 
  998400    269.17141   -5859.0464    25.675163   -5884.7216   -3788.3132 
  998600    237.59769   -5870.9841    22.663474   -5893.6475   -15774.949 
  998800    230.04867   -5873.6562    21.943404   -5895.5996   -4972.4691 
  999000    248.18949   -5857.2553    23.673783   -5880.9291    9311.7485 
  999200    308.59207   -5854.1197    29.435339   -5883.5551    2939.6374 
  999400    199.99502   -5865.2562    19.076709   -5884.3329     2558.043 
  999600    295.18948   -5856.2787     28.15692   -5884.4357   -23012.322 
  999800    318.31625   -5850.6985    30.362889   -5881.0614   -10982.592 
 1000000     311.0319   -5862.3466    29.668064   -5892.0146   -31588.601 
Loop time of 2413.97 on 8 procs for 1000000 steps with 33 atoms

Performance: 8.948 ns/day, 2.682 hours/ns, 414.255 timesteps/s
99.3% CPU use with 8 MPI tasks x no OpenMP threads

MPI task timing breakdown:
Section |  min time  |  avg time  |  max time  |%varavg| %total
---------------------------------------------------------------
Pair    | 1833.9     | 1960.5     | 2098.6     | 226.2 | 81.21
Neigh   | 0.65758    | 0.67514    | 0.69895    |   1.6 |  0.03
Comm    | 31.862     | 170.22     | 297.71     | 768.0 |  7.05
Output  | 0.080973   | 0.090133   | 0.1475     |   7.2 |  0.00
Modify  | 278.89     | 280.46     | 282.08     |   6.5 | 11.62
Other   |            | 2.02       |            |       |  0.08

Nlocal:    4.125 ave 8 max 1 min
Histogram: 4 0 0 0 0 0 0 0 3 1
Nghost:    710 ave 745 max 681 min
Histogram: 2 1 0 1 1 0 0 1 1 1
Neighs:    803.875 ave 1597 max 190 min
Histogram: 4 0 0 0 0 0 0 0 3 1

Total # of neighbors = 6431
Ave neighs/atom = 194.879
Neighbor list builds = 726
Dangerous builds = 0

unfix 1
unfix output
undump 1

Please see the log.cite file for references relevant to this simulation

Total wall time: 0:40:15
