ITEM: TIMESTEP
0
ITEM: NUMBER OF ATOMS
33
ITEM: BOX BOUNDS pp pp pp
0.0000000000000000e+00 7.0970000000000004e+00
0.0000000000000000e+00 7.0970000000000004e+00
0.0000000000000000e+00 2.4588000000000001e+01
ITEM: ATOMS id type x y z 
2 1 3.339 1.632 13.319 
5 1 4.651 1.581 18.133 
7 1 3.391 1.602 15.981 
8 1 2.166 1.581 18.134 
18 1 3.408 1.581 17.416 
21 1 3.338 2.875 12.602 
23 1 3.367 1.619 14.753 
24 1 3.338 0.39 12.601 
17 1 7.023 2.875 24.28 
19 1 6.997 1.619 22.129 
20 1 7.023 0.39 24.281 
22 1 6.957 1.581 19.466 
25 1 5.714 1.581 18.748 
27 1 6.974 1.602 20.9 
28 1 1.102 1.581 18.748 
30 1 7.024 1.631 23.563 
10 1 6.954 5.232 5.122 
13 1 7.023 3.938 0.307 
15 1 6.994 5.194 2.459 
16 1 7.023 6.423 0.307 
26 1 7.022 5.181 1.025 
29 1 5.711 5.232 5.839 
31 1 6.97 5.211 3.688 
32 1 1.098 5.232 5.84 
1 1 4.647 5.232 6.454 
3 1 3.388 5.211 8.606 
4 1 2.163 5.232 6.454 
6 1 3.338 5.182 11.269 
9 1 3.338 3.939 11.986 
11 1 3.365 5.194 9.834 
12 1 3.338 6.423 11.987 
14 1 3.404 5.232 7.171 
33 2 4.738 5.211 8.606 
ITEM: TIMESTEP
10
ITEM: NUMBER OF ATOMS
33
ITEM: BOX BOUNDS pp pp pp
0.0000000000000000e+00 7.0970000000000004e+00
0.0000000000000000e+00 7.0970000000000004e+00
0.0000000000000000e+00 2.4588000000000001e+01
ITEM: ATOMS id type x y z 
2 1 3.34084 1.63412 13.3326 
5 1 4.6587 1.58078 18.1364 
7 1 3.39052 1.60172 15.9898 
8 1 2.15848 1.58053 18.1395 
18 1 3.40797 1.5814 17.4181 
21 1 3.33875 2.86289 12.6095 
23 1 3.36942 1.61936 14.7639 
24 1 3.33651 0.400898 12.6062 
17 1 7.02337 2.87771 24.2808 
19 1 6.99694 1.61934 22.1317 
20 1 7.02382 0.388479 24.2833 
22 1 6.95715 1.58133 19.4648 
25 1 5.7069 1.5809 18.745 
27 1 6.97341 1.60169 20.8965 
28 1 1.10888 1.58106 18.7428 
30 1 7.02349 1.63192 23.5644 
10 1 6.95169 5.23174 5.13461 
13 1 7.02304 3.9359 0.307028 
15 1 6.99285 5.19406 2.47576 
16 1 7.02274 6.42345 0.305372 
26 1 7.02221 5.18068 1.02471 
29 1 5.71333 5.23218 5.835 
31 1 6.96957 5.21047 3.66054 
32 1 1.0854 5.23247 5.83525 
1 1 4.60571 5.23307 6.39835 
3 1 3.36751 5.21313 8.50531 
4 1 2.15498 5.23226 6.44151 
6 1 3.31408 5.1827 11.2864 
9 1 3.33368 3.92892 11.9967 
11 1 3.48282 5.1901 9.84399 
12 1 3.33415 6.43287 11.999 
14 1 3.37916 5.23389 7.04623 
33 2 4.75788 5.20802 8.80708 
ITEM: TIMESTEP
20
ITEM: NUMBER OF ATOMS
33
ITEM: BOX BOUNDS pp pp pp
0.0000000000000000e+00 7.0970000000000004e+00
0.0000000000000000e+00 7.0970000000000004e+00
0.0000000000000000e+00 2.4588000000000001e+01
ITEM: ATOMS id type x y z 
2 1 3.34871 1.63124 13.3321 
5 1 4.66232 1.58077 18.1383 
7 1 3.39069 1.60182 15.9872 
8 1 2.15688 1.58062 18.1425 
18 1 3.40805 1.58045 17.4293 
21 1 3.33653 2.87341 12.6081 
23 1 3.37109 1.62059 14.7671 
24 1 3.33933 0.394264 12.6052 
17 1 7.02301 2.87453 24.2787 
19 1 6.99623 1.61968 22.1263 
20 1 7.03036 0.392987 24.2842 
22 1 6.95679 1.581 19.4678 
25 1 5.71041 1.5811 18.7481 
27 1 6.97317 1.60178 20.9072 
28 1 1.10388 1.58101 18.7445 
30 1 7.02321 1.63192 23.5627 
10 1 6.93866 5.23148 5.08803 
13 1 7.02295 3.92998 0.303495 
15 1 6.99299 5.19271 2.44783 
16 1 7.0137 6.42775 0.297992 
26 1 7.02706 5.18088 1.01065 
29 1 5.71526 5.23301 5.82771 
31 1 6.96801 5.21088 3.66472 
32 1 1.0563 5.23241 5.8246 
1 1 4.60392 5.2342 6.33528 
3 1 3.29495 5.21319 8.49009 
4 1 2.14132 5.23359 6.4228 
6 1 3.28746 5.181 11.3 
9 1 3.3187 3.93309 11.9953 
11 1 3.64266 5.19048 9.82064 
12 1 3.31605 6.42857 12.0026 
14 1 3.39173 5.23434 7.07861 
33 2 4.76361 5.20528 8.96859 
ITEM: TIMESTEP
30
ITEM: NUMBER OF ATOMS
33
ITEM: BOX BOUNDS pp pp pp
0.0000000000000000e+00 7.0970000000000004e+00
0.0000000000000000e+00 7.0970000000000004e+00
0.0000000000000000e+00 2.4588000000000001e+01
ITEM: ATOMS id type x y z 
2 1 3.35567 1.63292 13.3256 
5 1 4.65604 1.58047 18.1353 
7 1 3.39071 1.60117 15.9879 
8 1 2.16189 1.58039 18.1378 
18 1 3.40798 1.58094 17.426 
21 1 3.33224 2.87758 12.6051 
23 1 3.37375 1.6214 14.7676 
24 1 3.33162 0.390314 12.6013 
17 1 7.02421 2.87442 24.2778 
19 1 6.99646 1.61967 22.1249 
20 1 7.02278 0.394711 24.2862 
22 1 6.95685 1.58097 19.4685 
25 1 5.71369 1.58112 18.7505 
27 1 6.97256 1.60204 20.9037 
28 1 1.10113 1.58077 18.7475 
30 1 7.0241 1.63224 23.5601 
10 1 6.94117 5.2319 5.09003 
13 1 7.02405 3.92987 0.30271 
15 1 6.99215 5.19126 2.43739 
16 1 7.02283 6.42654 0.293647 
26 1 7.02478 5.18077 1.00538 
29 1 5.70445 5.2334 5.82099 
31 1 6.96512 5.2109 3.65502 
32 1 1.06485 5.23311 5.82789 
1 1 4.59761 5.23458 6.33582 
3 1 3.29682 5.21321 8.49994 
4 1 2.13682 5.23337 6.41698 
6 1 3.28355 5.18182 11.3004 
9 1 3.31177 3.93554 11.9967 
11 1 3.66285 5.19047 9.84196 
12 1 3.31339 6.42301 12.0044 
14 1 3.38 5.2343 7.08749 
33 2 4.78211 5.20483 8.98531 
ITEM: TIMESTEP
40
ITEM: NUMBER OF ATOMS
33
ITEM: BOX BOUNDS pp pp pp
0.0000000000000000e+00 7.0970000000000004e+00
0.0000000000000000e+00 7.0970000000000004e+00
0.0000000000000000e+00 2.4588000000000001e+01
ITEM: ATOMS id type x y z 
2 1 3.36578 1.63347 13.3146 
5 1 4.65141 1.57902 18.1345 
7 1 3.39656 1.60288 15.976 
8 1 2.16287 1.58092 18.1338 
18 1 3.40773 1.58023 17.4165 
21 1 3.32426 2.87497 12.6057 
23 1 3.3827 1.62288 14.7569 
24 1 3.31974 0.393384 12.6006 
17 1 7.02473 2.87063 24.2711 
19 1 6.99411 1.62003 22.114 
20 1 7.02726 0.397871 24.2787 
22 1 6.95666 1.58117 19.4583 
25 1 5.70621 1.58034 18.7486 
27 1 6.97166 1.60215 20.8942 
28 1 1.10667 1.57964 18.7456 
30 1 7.02206 1.63239 23.5503 
10 1 6.92237 5.23224 5.08428 
13 1 7.02536 3.92732 0.295064 
15 1 6.98879 5.18981 2.42785 
16 1 7.02702 6.42976 0.287625 
26 1 7.02548 5.18006 0.991287 
29 1 5.6616 5.23507 5.78067 
31 1 6.96182 5.21102 3.64874 
32 1 1.05669 5.23456 5.81211 
1 1 4.58242 5.23582 6.34741 
3 1 3.35332 5.21291 8.54576 
4 1 2.12566 5.2352 6.40478 
6 1 3.24385 5.18027 11.319 
9 1 3.28668 3.94326 12.01 
11 1 3.73939 5.19108 9.88045 
12 1 3.28889 6.41327 12.0212 
14 1 3.36059 5.23307 7.12157 
33 2 4.85564 5.2033 9.03078 
ITEM: TIMESTEP
50
ITEM: NUMBER OF ATOMS
33
ITEM: BOX BOUNDS pp pp pp
0.0000000000000000e+00 7.0970000000000004e+00
0.0000000000000000e+00 7.0970000000000004e+00
0.0000000000000000e+00 2.4588000000000001e+01
ITEM: ATOMS id type x y z 
2 1 3.37318 1.63184 13.3206 
5 1 4.65187 1.57877 18.1287 
7 1 3.3999 1.60311 15.9781 
8 1 2.16044 1.57962 18.1258 
18 1 3.40821 1.5798 17.4169 
21 1 3.31758 2.87462 12.6008 
23 1 3.3871 1.62344 14.7579 
24 1 3.31274 0.387729 12.6023 
17 1 7.02555 2.87296 24.2702 
19 1 6.9961 1.621 22.1063 
20 1 7.02174 0.393874 24.2723 
22 1 6.95622 1.57971 19.4509 
25 1 5.70563 1.5811 18.7462 
27 1 6.96835 1.60216 20.8861 
28 1 1.10738 1.57923 18.7441 
30 1 7.02683 1.63191 23.5421 
10 1 6.89899 5.23745 5.0797 
13 1 7.02858 3.93155 0.288527 
15 1 6.9901 5.18681 2.43319 
16 1 7.0237 6.42721 0.282135 
26 1 7.02894 5.18198 1.00187 
29 1 5.63523 5.23603 5.76199 
31 1 6.9626 5.20856 3.65323 
32 1 1.04227 5.2344 5.80272 
1 1 4.56815 5.23525 6.35244 
3 1 3.44238 5.21302 8.54472 
4 1 2.09844 5.23488 6.4127 
6 1 3.21992 5.1802 11.3027 
9 1 3.26198 3.9553 12.0287 
11 1 3.7813 5.19136 9.89389 
12 1 3.25526 6.40815 12.025 
14 1 3.34876 5.23509 7.12811 
33 2 4.9206 5.20187 9.06706 
ITEM: TIMESTEP
60
ITEM: NUMBER OF ATOMS
33
ITEM: BOX BOUNDS pp pp pp
0.0000000000000000e+00 7.0970000000000004e+00
0.0000000000000000e+00 7.0970000000000004e+00
0.0000000000000000e+00 2.4588000000000001e+01
ITEM: ATOMS id type x y z 
2 1 3.37182 1.63189 13.3082 
5 1 4.65094 1.57913 18.1299 
7 1 3.40084 1.60386 15.9712 
8 1 2.16233 1.57945 18.1282 
18 1 3.40747 1.57931 17.411 
21 1 3.30971 2.88031 12.6075 
23 1 3.38847 1.62325 14.7517 
24 1 3.30757 0.3846 12.6064 
17 1 7.02766 2.87255 24.2669 
19 1 6.99469 1.62112 22.1099 
20 1 7.02691 0.393823 24.2691 
22 1 6.95605 1.57977 19.4542 
25 1 5.70622 1.57976 18.7432 
27 1 6.9691 1.60229 20.8898 
28 1 1.10604 1.57958 18.7398 
30 1 7.02298 1.63333 23.5461 
10 1 6.90089 5.23637 5.08211 
13 1 7.02536 3.93057 0.288345 
15 1 6.98933 5.18764 2.42708 
16 1 7.02792 6.42818 0.281683 
26 1 7.02878 5.17965 0.991593 
29 1 5.6305 5.23621 5.75916 
31 1 6.95822 5.20894 3.64707 
32 1 1.03962 5.23667 5.80881 
1 1 4.56394 5.23626 6.34699 
3 1 3.454 5.21298 8.55597 
4 1 2.09561 5.23427 6.42114 
6 1 3.21471 5.18074 11.3089 
9 1 3.25997 3.95208 12.0201 
11 1 3.79607 5.19079 9.90892 
12 1 3.25746 6.40871 12.021 
14 1 3.34649 5.2345 7.13323 
33 2 4.92834 5.20145 9.07287 
ITEM: TIMESTEP
62
ITEM: NUMBER OF ATOMS
33
ITEM: BOX BOUNDS pp pp pp
0.0000000000000000e+00 7.0970000000000004e+00
0.0000000000000000e+00 7.0970000000000004e+00
0.0000000000000000e+00 2.4588000000000001e+01
ITEM: ATOMS id type x y z 
2 1 3.37158 1.6319 13.3083 
5 1 4.65096 1.57941 18.1299 
7 1 3.40092 1.60368 15.9712 
8 1 2.16237 1.57944 18.1281 
18 1 3.40742 1.57927 17.411 
21 1 3.30991 2.88026 12.6075 
23 1 3.3884 1.62335 14.7518 
24 1 3.30778 0.384641 12.6063 
17 1 7.02687 2.8725 24.267 
19 1 6.99449 1.62115 22.1099 
20 1 7.02683 0.393769 24.2692 
22 1 6.95601 1.5798 19.4541 
25 1 5.70624 1.57957 18.7432 
27 1 6.9692 1.60227 20.8897 
28 1 1.10604 1.57957 18.7397 
30 1 7.02339 1.63334 23.5459 
10 1 6.90095 5.23646 5.08189 
13 1 7.02608 3.9306 0.288274 
15 1 6.98954 5.18759 2.42717 
16 1 7.02793 6.42811 0.281677 
26 1 7.02855 5.17975 0.991663 
29 1 5.63113 5.23623 5.75872 
31 1 6.95803 5.20905 3.64716 
32 1 1.03963 5.23622 5.80898 
1 1 4.56306 5.23625 6.34742 
3 1 3.45414 5.21298 8.55598 
4 1 2.09556 5.23471 6.4213 
6 1 3.21464 5.18073 11.3086 
9 1 3.25977 3.95208 12.0201 
11 1 3.79629 5.19079 9.90888 
12 1 3.25729 6.4087 12.021 
14 1 3.34647 5.23438 7.13325 
33 2 4.92854 5.20144 9.07307 
ITEM: TIMESTEP
63
ITEM: NUMBER OF ATOMS
33
ITEM: BOX BOUNDS pp pp pp
0.0000000000000000e+00 7.0970000000000004e+00
0.0000000000000000e+00 7.0970000000000004e+00
0.0000000000000000e+00 2.4588000000000001e+01
ITEM: ATOMS id type x y z 
2 1 3.37158 1.6319 13.3083 
5 1 4.65096 1.57941 18.1299 
7 1 3.40092 1.60368 15.9712 
8 1 2.16237 1.57944 18.1281 
18 1 3.40742 1.57927 17.411 
21 1 3.30991 2.88026 12.6075 
23 1 3.3884 1.62335 14.7518 
24 1 3.30778 0.384641 12.6063 
17 1 7.02687 2.8725 24.267 
19 1 6.99449 1.62115 22.1099 
20 1 7.02683 0.393769 24.2692 
22 1 6.95601 1.5798 19.4541 
25 1 5.70624 1.57957 18.7432 
27 1 6.9692 1.60227 20.8897 
28 1 1.10604 1.57957 18.7397 
30 1 7.02339 1.63334 23.5459 
10 1 6.90095 5.23646 5.08189 
13 1 7.02608 3.9306 0.288274 
15 1 6.98954 5.18759 2.42717 
16 1 7.02793 6.42811 0.281677 
26 1 7.02855 5.17975 0.991663 
29 1 5.63113 5.23623 5.75872 
31 1 6.95803 5.20905 3.64716 
32 1 1.03963 5.23622 5.80898 
1 1 4.56306 5.23625 6.34742 
3 1 3.45414 5.21298 8.55598 
4 1 2.09556 5.23471 6.4213 
6 1 3.21464 5.18073 11.3086 
9 1 3.25977 3.95208 12.0201 
11 1 3.79629 5.19079 9.90888 
12 1 3.25729 6.4087 12.021 
14 1 3.34647 5.23438 7.13325 
33 2 4.92854 5.20144 9.07307 
ITEM: TIMESTEP
70
ITEM: NUMBER OF ATOMS
33
ITEM: BOX BOUNDS pp pp pp
-1.0902568194915280e-03 7.0980902568194919e+00
-1.4144823254929563e-03 7.0984144823254933e+00
-8.6058000000000020e-03 2.4596605799999999e+01
ITEM: ATOMS id type x y z 
2 1 3.37152 1.63114 13.309 
5 1 4.6513 1.57863 18.1339 
7 1 3.40087 1.60291 15.9738 
8 1 2.16194 1.57866 18.1322 
18 1 3.40738 1.57848 17.4145 
21 1 3.30984 2.88 12.6077 
23 1 3.38835 1.62258 14.7535 
24 1 3.30771 0.383375 12.6066 
17 1 7.02792 2.87224 24.2754 
19 1 6.99555 1.62038 22.1167 
20 1 7.0279 0.392506 24.2775 
22 1 6.95705 1.57902 19.4591 
25 1 5.70689 1.57878 18.7477 
27 1 6.97025 1.60149 20.8957 
28 1 1.1053 1.57879 18.7442 
30 1 7.02447 1.63257 23.5538 
10 1 6.90198 5.23713 5.07684 
13 1 7.02716 3.93075 0.279865 
15 1 6.9906 5.18825 2.42028 
16 1 7.02899 6.42927 0.273265 
26 1 7.02962 5.18041 0.983755 
29 1 5.63173 5.23691 5.75417 
31 1 6.95907 5.20971 3.6411 
32 1 1.03886 5.23688 5.80445 
1 1 4.5634 5.23693 6.34323 
3 1 3.45412 5.21364 8.55336 
4 1 2.09511 5.23539 6.41719 
6 1 3.21453 5.18138 11.3079 
9 1 3.25968 3.95224 12.02 
11 1 3.79637 5.19144 9.9072 
12 1 3.25719 6.40984 12.0208 
14 1 3.34642 5.23505 7.12964 
33 2 4.92896 5.2021 9.07082 
ITEM: TIMESTEP
80
ITEM: NUMBER OF ATOMS
33
ITEM: BOX BOUNDS pp pp pp
-2.5478368210328935e-03 7.0995478368210332e+00
-3.6375333515015398e-03 7.1006375333515015e+00
-2.0899800000000014e-02 2.4608899799999996e+01
ITEM: ATOMS id type x y z 
2 1 3.37143 1.62994 13.3101 
5 1 4.65178 1.57739 18.1398 
7 1 3.40082 1.60168 15.9774 
8 1 2.16135 1.57742 18.1381 
18 1 3.40732 1.57725 17.4197 
21 1 3.30975 2.87962 12.608 
23 1 3.38828 1.62138 14.756 
24 1 3.30762 0.381359 12.6069 
17 1 7.02931 2.87185 24.2874 
19 1 6.99696 1.61917 22.1265 
20 1 7.02933 0.390491 24.2895 
22 1 6.95845 1.57778 19.4663 
25 1 5.70775 1.57755 18.7542 
27 1 6.97166 1.60027 20.9044 
28 1 1.10432 1.57756 18.7507 
30 1 7.02591 1.63137 23.565 
10 1 6.90335 5.23819 5.06961 
13 1 7.02862 3.93096 0.267834 
15 1 6.99202 5.18927 2.41048 
16 1 7.03042 6.4311 0.261232 
26 1 7.03104 5.18143 0.972462 
29 1 5.63243 5.23796 5.74771 
31 1 6.96046 5.21075 3.63239 
32 1 1.03786 5.23793 5.79798 
1 1 4.56394 5.23798 6.33722 
3 1 3.45411 5.21469 8.54963 
4 1 2.09449 5.23646 6.41132 
6 1 3.2144 5.1824 11.3069 
9 1 3.25955 3.95246 12.0197 
11 1 3.79648 5.19247 9.9048 
12 1 3.25707 6.41167 12.0206 
14 1 3.34636 5.2361 7.12447 
33 2 4.92952 5.20314 9.06762 
ITEM: TIMESTEP
90
ITEM: NUMBER OF ATOMS
33
ITEM: BOX BOUNDS pp pp pp
-4.1364975305207812e-03 7.1011364975305229e+00
-6.1092397705132459e-03 7.1031092397705127e+00
-3.2305867567169466e-02 2.4620305867567165e+01
ITEM: ATOMS id type x y z 
2 1 3.37129 1.6286 13.3111 
5 1 4.65244 1.57602 18.1453 
7 1 3.40076 1.60031 15.9801 
8 1 2.16057 1.57605 18.1436 
18 1 3.40725 1.57589 17.4243 
21 1 3.30965 2.87954 12.6081 
23 1 3.3882 1.62004 14.7589 
24 1 3.30753 0.378735 12.6069 
17 1 7.03073 2.87159 24.2986 
19 1 6.99847 1.61782 22.1352 
20 1 7.03088 0.388072 24.3008 
22 1 6.95997 1.57641 19.4729 
25 1 5.70856 1.57617 18.7601 
27 1 6.97321 1.59892 20.9127 
28 1 1.10339 1.57619 18.7565 
30 1 7.02753 1.63004 23.5754 
10 1 6.90485 5.23936 5.06285 
13 1 7.03029 3.93102 0.256553 
15 1 6.99359 5.19041 2.40171 
16 1 7.03196 6.4333 0.249964 
26 1 7.03258 5.18259 0.962019 
29 1 5.63267 5.23915 5.74201 
31 1 6.96196 5.21193 3.62401 
32 1 1.03705 5.23906 5.79218 
1 1 4.56492 5.23916 6.33141 
3 1 3.45418 5.21584 8.54618 
4 1 2.09355 5.23768 6.40574 
6 1 3.21429 5.18354 11.306 
9 1 3.25941 3.95231 12.0197 
11 1 3.79663 5.19362 9.90249 
12 1 3.25693 6.41413 12.0206 
14 1 3.34637 5.23726 7.11965 
33 2 4.93006 5.20429 9.0647 
ITEM: TIMESTEP
98
ITEM: NUMBER OF ATOMS
33
ITEM: BOX BOUNDS pp pp pp
-4.3074044915748493e-03 7.1013074044915765e+00
-6.3116305541902973e-03 7.1033116305541908e+00
-3.3308957117950712e-02 2.4621308957117947e+01
ITEM: ATOMS id type x y z 
2 1 3.37127 1.62849 13.3112 
5 1 4.65253 1.57591 18.1458 
7 1 3.40075 1.6002 15.9803 
8 1 2.16047 1.57594 18.1441 
18 1 3.40724 1.57578 17.4248 
21 1 3.30964 2.87958 12.6081 
23 1 3.38819 1.61993 14.7592 
24 1 3.30752 0.378478 12.6069 
17 1 7.03088 2.87159 24.2996 
19 1 6.99863 1.61771 22.136 
20 1 7.03105 0.387851 24.3018 
22 1 6.96013 1.5763 19.4735 
25 1 5.70863 1.57606 18.7606 
27 1 6.97338 1.59881 20.9135 
28 1 1.10331 1.57607 18.757 
30 1 7.02771 1.62993 23.5763 
10 1 6.90501 5.23946 5.06225 
13 1 7.03048 3.931 0.255547 
15 1 6.99376 5.19051 2.40097 
16 1 7.03212 6.43351 0.248962 
26 1 7.03274 5.18268 0.961105 
29 1 5.63267 5.23924 5.74153 
31 1 6.96212 5.21202 3.62324 
32 1 1.03699 5.23915 5.79169 
1 1 4.56504 5.23925 6.33088 
3 1 3.4542 5.21594 8.54588 
4 1 2.09342 5.23778 6.40523 
6 1 3.21428 5.18363 11.3059 
9 1 3.25939 3.95225 12.0197 
11 1 3.79665 5.19371 9.90228 
12 1 3.25691 6.41438 12.0206 
14 1 3.34638 5.23735 7.11922 
33 2 4.93011 5.20438 9.06445 
ITEM: TIMESTEP
100
ITEM: NUMBER OF ATOMS
33
ITEM: BOX BOUNDS pp pp pp
-4.3074044915748493e-03 7.1013074044915765e+00
-6.3116305541902973e-03 7.1033116305541908e+00
-3.3308957117950712e-02 2.4621308957117947e+01
ITEM: ATOMS id type x y z 
2 1 3.37114 1.62847 13.3113 
5 1 4.65288 1.57592 18.146 
7 1 3.40077 1.60017 15.9793 
8 1 2.16014 1.57593 18.1443 
18 1 3.40722 1.57581 17.4247 
21 1 3.30967 2.88014 12.6078 
23 1 3.38817 1.61994 14.76 
24 1 3.30756 0.377875 12.6066 
17 1 7.03061 2.87204 24.2999 
19 1 6.99858 1.6177 22.1352 
20 1 7.03105 0.387374 24.302 
22 1 6.96011 1.57631 19.4736 
25 1 5.70829 1.57606 18.7604 
27 1 6.97342 1.59882 20.9142 
28 1 1.10366 1.57608 18.7568 
30 1 7.02784 1.62992 23.5762 
10 1 6.90501 5.23945 5.06207 
13 1 7.0307 3.93056 0.255244 
15 1 6.99381 5.19051 2.40176 
16 1 7.03208 6.43393 0.248698 
26 1 7.03269 5.18272 0.961201 
29 1 5.63173 5.23926 5.742 
31 1 6.96205 5.21206 3.62252 
32 1 1.03752 5.23906 5.79206 
1 1 4.56571 5.23925 6.33055 
3 1 3.45446 5.21594 8.54588 
4 1 2.09293 5.23787 6.40504 
6 1 3.21441 5.18362 11.3058 
9 1 3.25935 3.95164 12.02 
11 1 3.79673 5.19371 9.90216 
12 1 3.25687 6.41506 12.021 
14 1 3.34652 5.23732 7.11917 
33 2 4.92992 5.20437 9.06461 
ITEM: TIMESTEP
105
ITEM: NUMBER OF ATOMS
33
ITEM: BOX BOUNDS pp pp pp
-4.3074044915748493e-03 7.1013074044915765e+00
-6.3116305541902973e-03 7.1033116305541908e+00
-3.3308957117950712e-02 2.4621308957117947e+01
ITEM: ATOMS id type x y z 
2 1 3.36901 1.62864 13.3133 
5 1 4.65312 1.57603 18.1461 
7 1 3.40141 1.59954 15.9795 
8 1 2.16016 1.57604 18.1442 
18 1 3.40698 1.57606 17.4229 
21 1 3.31006 2.88058 12.6077 
23 1 3.38754 1.62022 14.7601 
24 1 3.30845 0.377463 12.6063 
17 1 7.0285 2.8723 24.3 
19 1 6.9983 1.61772 22.1347 
20 1 7.03089 0.386639 24.302 
22 1 6.95983 1.57635 19.4736 
25 1 5.70824 1.57599 18.76 
27 1 6.9736 1.59879 20.9142 
28 1 1.10393 1.57604 18.7562 
30 1 7.02905 1.62959 23.575 
10 1 6.90515 5.23903 5.05951 
13 1 7.03244 3.9307 0.254595 
15 1 6.99495 5.1904 2.40216 
16 1 7.03151 6.43363 0.248434 
26 1 7.03246 5.18341 0.962893 
29 1 5.63049 5.23949 5.74156 
31 1 6.96043 5.21288 3.62291 
32 1 1.03702 5.23834 5.79308 
1 1 4.56501 5.23923 6.33237 
3 1 3.45829 5.21592 8.54459 
4 1 2.09171 5.23868 6.40671 
6 1 3.21711 5.18362 11.3032 
9 1 3.25826 3.95152 12.0197 
11 1 3.79779 5.19373 9.90247 
12 1 3.2558 6.41506 12.0209 
14 1 3.34785 5.23697 7.1198 
33 2 4.92827 5.20428 9.0672 
ITEM: TIMESTEP
110
ITEM: NUMBER OF ATOMS
33
ITEM: BOX BOUNDS pp pp pp
-5.2668330021463329e-03 7.1022668330021483e+00
-7.3049582269721514e-03 7.1043049582269724e+00
-3.9472611596509700e-02 2.4627472611596506e+01
ITEM: ATOMS id type x y z 
2 1 3.36897 1.6281 13.3138 
5 1 4.65343 1.57548 18.149 
7 1 3.40137 1.599 15.9813 
8 1 2.15978 1.57549 18.1472 
18 1 3.40694 1.57551 17.4254 
21 1 3.30999 2.88039 12.6079 
23 1 3.3875 1.61968 14.7613 
24 1 3.30837 0.376581 12.6065 
17 1 7.02947 2.87213 24.3061 
19 1 6.99923 1.61718 22.1396 
20 1 7.03183 0.385739 24.308 
22 1 6.96075 1.57579 19.4772 
25 1 5.70881 1.57544 18.7632 
27 1 6.97452 1.59824 20.9185 
28 1 1.10328 1.57549 18.7594 
30 1 7.02998 1.62905 23.5806 
10 1 6.90605 5.23951 5.05589 
13 1 7.03335 3.93079 0.248563 
15 1 6.99588 5.19086 2.39724 
16 1 7.03246 6.43445 0.242402 
26 1 7.03341 5.18386 0.957231 
29 1 5.63103 5.23996 5.7383 
31 1 6.96135 5.21334 3.61854 
32 1 1.03634 5.23882 5.78984 
1 1 4.56531 5.2397 6.32938 
3 1 3.45828 5.21639 8.54271 
4 1 2.0913 5.23914 6.40377 
6 1 3.21702 5.18408 11.3027 
9 1 3.25819 3.95163 12.0196 
11 1 3.79784 5.19419 9.90128 
12 1 3.25572 6.41586 12.0207 
14 1 3.3478 5.23744 7.11721 
33 2 4.92866 5.20475 9.06559 
ITEM: TIMESTEP
120
ITEM: NUMBER OF ATOMS
33
ITEM: BOX BOUNDS pp pp pp
-6.4228038751792020e-03 7.1034228038751825e+00
-9.1258868988388104e-03 7.1061258868988393e+00
-4.9365135596938267e-02 2.4637365135596934e+01
ITEM: ATOMS id type x y z 
2 1 3.36891 1.62712 13.3146 
5 1 4.65388 1.57446 18.1537 
7 1 3.40133 1.59802 15.9842 
8 1 2.15925 1.57448 18.1519 
18 1 3.4069 1.57449 17.4295 
21 1 3.30986 2.88014 12.6081 
23 1 3.38744 1.61868 14.7634 
24 1 3.30826 0.374883 12.6067 
17 1 7.03072 2.8719 24.3158 
19 1 7.00037 1.61619 22.1473 
20 1 7.03295 0.384012 24.3177 
22 1 6.96186 1.57478 19.483 
25 1 5.70943 1.57443 18.7684 
27 1 6.97563 1.59725 20.9256 
28 1 1.10257 1.57448 18.7646 
30 1 7.03106 1.62806 23.5897 
10 1 6.90713 5.24037 5.05007 
13 1 7.03438 3.93087 0.238828 
15 1 6.99698 5.19172 2.38951 
16 1 7.0336 6.43603 0.232675 
26 1 7.03458 5.1847 0.948158 
29 1 5.63147 5.24082 5.73316 
31 1 6.96246 5.21419 3.61138 
32 1 1.03568 5.23972 5.78473 
1 1 4.56586 5.24057 6.3245 
3 1 3.4583 5.21724 8.53968 
4 1 2.09067 5.23998 6.39898 
6 1 3.21694 5.18491 11.3019 
9 1 3.25812 3.95175 12.0194 
11 1 3.79789 5.19504 9.89936 
12 1 3.25565 6.4174 12.0205 
14 1 3.34774 5.23831 7.11305 
33 2 4.92914 5.20559 9.06301 
ITEM: TIMESTEP
129
ITEM: NUMBER OF ATOMS
33
ITEM: BOX BOUNDS pp pp pp
-7.1931134535412316e-03 7.1041931134535448e+00
-1.0199827291290499e-02 7.1071998272912911e+00
-5.3596413965906135e-02 2.4641596413965900e+01
ITEM: ATOMS id type x y z 
2 1 3.36887 1.62652 13.315 
5 1 4.65426 1.57386 18.1558 
7 1 3.4013 1.59746 15.9851 
8 1 2.15881 1.57388 18.154 
18 1 3.40687 1.57389 17.4313 
21 1 3.30973 2.88013 12.6081 
23 1 3.38739 1.61807 14.7645 
24 1 3.30814 0.373704 12.6067 
17 1 7.03165 2.8719 24.32 
19 1 7.00115 1.6156 22.1504 
20 1 7.03369 0.38287 24.3219 
22 1 6.96261 1.57418 19.4855 
25 1 5.70974 1.57384 18.7705 
27 1 6.97636 1.59667 20.9289 
28 1 1.10218 1.57389 18.7667 
30 1 7.03174 1.62748 23.5935 
10 1 6.90783 5.24087 5.04754 
13 1 7.03498 3.93078 0.234571 
15 1 6.99768 5.19223 2.38647 
16 1 7.03438 6.43708 0.228436 
26 1 7.03538 5.1852 0.944305 
29 1 5.63155 5.24133 5.73108 
31 1 6.96321 5.21467 3.60805 
32 1 1.03544 5.24028 5.7827 
1 1 4.56641 5.24109 6.3223 
3 1 3.45838 5.21775 8.53836 
4 1 2.09006 5.24044 6.39684 
6 1 3.21692 5.1854 11.3016 
9 1 3.2581 3.95167 12.0194 
11 1 3.79789 5.19553 9.89853 
12 1 3.25563 6.41852 12.0206 
14 1 3.34769 5.23883 7.11125 
33 2 4.92947 5.20609 9.06192 
ITEM: TIMESTEP
130
ITEM: NUMBER OF ATOMS
33
ITEM: BOX BOUNDS pp pp pp
-7.1931134535412316e-03 7.1041931134535448e+00
-1.0199827291290499e-02 7.1071998272912911e+00
-5.3596413965906135e-02 2.4641596413965900e+01
ITEM: ATOMS id type x y z 
2 1 3.36887 1.62652 13.315 
5 1 4.65426 1.57386 18.1558 
7 1 3.4013 1.59746 15.9851 
8 1 2.15881 1.57388 18.154 
18 1 3.40687 1.57389 17.4313 
21 1 3.30973 2.88013 12.6081 
23 1 3.38739 1.61807 14.7645 
24 1 3.30814 0.373704 12.6067 
17 1 7.03165 2.8719 24.32 
19 1 7.00115 1.6156 22.1504 
20 1 7.03369 0.38287 24.3219 
22 1 6.96261 1.57418 19.4855 
25 1 5.70974 1.57384 18.7705 
27 1 6.97636 1.59667 20.9289 
28 1 1.10218 1.57389 18.7667 
30 1 7.03174 1.62748 23.5935 
10 1 6.90783 5.24087 5.04754 
13 1 7.03498 3.93078 0.234571 
15 1 6.99768 5.19223 2.38647 
16 1 7.03438 6.43708 0.228436 
26 1 7.03538 5.1852 0.944305 
29 1 5.63155 5.24133 5.73108 
31 1 6.96321 5.21467 3.60805 
32 1 1.03544 5.24028 5.7827 
1 1 4.56641 5.24109 6.3223 
3 1 3.45838 5.21775 8.53836 
4 1 2.09006 5.24044 6.39684 
6 1 3.21692 5.1854 11.3016 
9 1 3.2581 3.95167 12.0194 
11 1 3.79789 5.19553 9.89853 
12 1 3.25563 6.41852 12.0206 
14 1 3.34769 5.23883 7.11125 
33 2 4.92947 5.20609 9.06192 
