ITEM: TIMESTEP
0
ITEM: NUMBER OF ATOMS
147
ITEM: BOX BOUNDS pp pp pp
0.0000000000000000e+00 2.1884000000000000e+01
0.0000000000000000e+00 2.1885999999999999e+01
0.0000000000000000e+00 2.1885000000000002e+01
ITEM: ATOMS id type x y z 
146 2 0.406 1.901 1.564 
147 3 0.54 2.71 1.034 
9 1 8.524 12.547 12.547 
10 1 1.604 19.466 19.466 
11 1 1.605 19.466 12.547 
12 1 8.524 12.547 19.466 
13 1 1.605 12.547 19.466 
14 1 8.524 19.467 12.547 
15 1 8.524 19.467 19.466 
16 1 1.605 12.547 12.547 
25 1 10.105 10.965 10.965 
26 1 0.023 21.047 21.049 
27 1 0.023 21.047 10.964 
28 1 10.106 10.965 21.047 
29 1 0.023 10.966 21.048 
30 1 10.106 21.049 10.966 
31 1 10.106 21.048 21.049 
32 1 0.024 10.965 10.965 
57 1 5.811 12.218 12.218 
58 1 4.317 19.796 19.795 
59 1 4.318 19.795 12.218 
60 1 5.811 12.219 19.795 
61 1 4.318 12.218 19.795 
62 1 5.811 19.795 12.218 
63 1 5.811 19.796 19.795 
64 1 4.318 12.218 12.218 
65 1 8.853 15.26 12.218 
66 1 1.276 16.754 19.795 
67 1 8.853 16.754 19.795 
68 1 1.276 15.26 12.218 
69 1 1.276 16.754 12.218 
70 1 8.853 15.26 19.796 
71 1 1.276 15.26 19.795 
72 1 8.853 16.753 12.218 
73 1 8.853 12.219 15.26 
74 1 1.276 19.795 16.753 
75 1 1.276 12.218 16.754 
76 1 8.853 19.796 15.26 
77 1 8.853 19.796 16.753 
78 1 1.276 12.218 15.26 
79 1 1.276 19.795 15.26 
80 1 8.853 12.219 16.754 
105 1 7.01 12.317 12.317 
106 1 3.118 19.696 19.696 
107 1 3.119 19.696 12.317 
108 1 7.011 12.317 19.696 
109 1 3.119 12.317 19.696 
110 1 7.01 19.696 12.317 
111 1 7.01 19.697 19.696 
112 1 3.118 12.317 12.317 
113 1 8.754 14.061 12.317 
114 1 1.375 17.953 19.696 
115 1 8.754 17.953 19.696 
116 1 1.375 14.061 12.317 
117 1 1.375 17.953 12.317 
118 1 8.754 14.061 19.696 
119 1 1.375 14.061 19.696 
120 1 8.754 17.953 12.317 
121 1 8.754 12.317 14.061 
122 1 1.375 19.696 17.952 
123 1 1.375 12.317 17.953 
124 1 8.754 19.697 14.061 
125 1 8.754 19.697 17.952 
126 1 1.375 12.317 14.061 
127 1 1.375 19.696 14.061 
128 1 8.754 12.318 17.953 
137 1 9.407 11.664 11.664 
138 1 0.721 20.349 20.35 
139 1 0.721 20.349 11.663 
140 1 9.408 11.664 20.349 
141 1 0.721 11.664 20.35 
142 1 9.407 20.35 11.664 
143 1 9.407 20.35 20.35 
144 1 0.722 11.664 11.663 
1 1 19.466 1.604 1.604 
2 1 12.547 8.524 8.524 
3 1 12.546 8.524 1.604 
4 1 19.466 1.605 8.524 
5 1 12.547 1.604 8.524 
6 1 19.466 8.524 1.605 
7 1 19.466 8.524 8.524 
8 1 12.547 1.604 1.605 
17 1 21.048 0.023 0.022 
18 1 10.965 10.106 10.106 
19 1 10.965 10.106 0.024 
20 1 21.048 0.024 10.107 
21 1 10.965 0.022 10.105 
22 1 21.048 10.105 0.023 
23 1 21.047 10.106 10.106 
24 1 10.965 0.023 0.022 
33 1 16.753 1.275 1.276 
34 1 15.26 8.853 8.853 
35 1 15.26 8.852 1.276 
36 1 16.753 1.275 8.853 
37 1 15.26 1.275 8.853 
38 1 16.753 8.852 1.276 
39 1 16.753 8.853 8.853 
40 1 15.26 1.275 1.276 
41 1 19.795 4.317 1.276 
42 1 12.218 5.811 8.853 
43 1 19.795 5.811 8.853 
44 1 12.218 4.317 1.276 
45 1 12.218 5.811 1.275 
46 1 19.795 4.317 8.853 
47 1 12.218 4.317 8.853 
48 1 19.795 5.811 1.276 
49 1 19.795 1.275 4.317 
50 1 12.218 8.852 5.811 
51 1 12.218 1.276 5.811 
52 1 19.795 8.853 4.318 
53 1 19.795 8.853 5.811 
54 1 12.218 1.275 4.318 
55 1 12.218 8.852 4.317 
56 1 19.795 1.275 5.811 
81 1 17.952 1.374 1.375 
82 1 14.061 8.754 8.754 
83 1 14.06 8.753 1.375 
84 1 17.952 1.374 8.754 
85 1 14.06 1.374 8.754 
86 1 17.952 8.754 1.375 
87 1 17.952 8.754 8.754 
88 1 14.061 1.374 1.375 
89 1 19.696 3.118 1.375 
90 1 12.317 7.01 8.754 
91 1 19.696 7.01 8.754 
92 1 12.317 3.118 1.375 
93 1 12.317 7.01 1.374 
94 1 19.695 3.118 8.754 
95 1 12.317 3.118 8.754 
96 1 19.696 7.01 1.375 
97 1 19.696 1.374 3.118 
98 1 12.317 8.754 7.01 
99 1 12.317 1.375 7.01 
100 1 19.696 8.754 3.118 
101 1 19.696 8.754 7.01 
102 1 12.317 1.374 3.119 
103 1 12.317 8.753 3.118 
104 1 19.696 1.374 7.01 
129 1 20.35 0.722 0.721 
130 1 11.664 9.407 9.407 
131 1 11.663 9.407 0.722 
132 1 20.35 0.722 9.408 
133 1 11.663 0.72 9.407 
134 1 20.35 9.407 0.721 
135 1 20.349 9.407 9.407 
136 1 11.664 0.721 0.721 
145 2 20.79 1.901 1.564 
ITEM: TIMESTEP
10
ITEM: NUMBER OF ATOMS
147
ITEM: BOX BOUNDS pp pp pp
0.0000000000000000e+00 2.1884000000000000e+01
0.0000000000000000e+00 2.1885999999999999e+01
0.0000000000000000e+00 2.1885000000000002e+01
ITEM: ATOMS id type x y z 
146 2 0.413463 1.91889 1.55222 
147 3 0.542666 2.69365 1.04615 
9 1 8.51594 12.555 12.5548 
10 1 1.60862 19.4621 19.4617 
11 1 1.6123 19.4584 12.5548 
12 1 8.51644 12.555 19.4584 
13 1 1.61262 12.5548 19.4585 
14 1 8.51626 19.4587 12.5547 
15 1 8.51601 19.4589 19.4587 
16 1 1.61295 12.5553 12.5551 
25 1 10.1058 10.9647 10.9646 
26 1 0.025659 21.043 21.0496 
27 1 0.0227665 21.0473 10.9641 
28 1 10.1067 10.9647 21.0477 
29 1 0.0228675 10.9658 21.0481 
30 1 10.1057 21.0487 10.9658 
31 1 10.106 21.0484 21.0491 
32 1 0.0233882 10.9648 10.9644 
57 1 5.81864 12.2195 12.2195 
58 1 4.31042 19.7945 19.7937 
59 1 4.31229 19.7937 12.2192 
60 1 5.81788 12.2201 19.7935 
61 1 4.31216 12.2194 19.7937 
62 1 5.81681 19.7937 12.2192 
63 1 5.81862 19.7946 19.7935 
64 1 4.31078 12.2194 12.2194 
65 1 8.8516 15.2531 12.2194 
66 1 1.27735 16.7601 19.7937 
67 1 8.85149 16.7611 19.7936 
68 1 1.27741 15.2534 12.2194 
69 1 1.27744 16.7608 12.2194 
70 1 8.85171 15.2539 19.7944 
71 1 1.27737 15.2529 19.7936 
72 1 8.85144 16.7617 12.2196 
73 1 8.8516 12.2202 15.2545 
74 1 1.27733 19.7937 16.7598 
75 1 1.27744 12.2194 16.7608 
76 1 8.85169 19.7947 15.2538 
77 1 8.85176 19.7948 16.7585 
78 1 1.27743 12.2194 15.2532 
79 1 1.27736 19.7936 15.2522 
80 1 8.85164 12.2205 16.7603 
105 1 7.00548 12.3163 12.3163 
106 1 3.12341 19.6969 19.6967 
107 1 3.12154 19.6966 12.3164 
108 1 7.00675 12.3165 19.6968 
109 1 3.12197 12.3164 19.6966 
110 1 7.00781 19.6966 12.3164 
111 1 7.00582 19.6977 19.6967 
112 1 3.122 12.3164 12.3164 
113 1 8.75467 14.0649 12.3164 
114 1 1.37419 17.9477 19.6967 
115 1 8.75467 17.9486 19.6967 
116 1 1.37445 14.0646 12.3165 
117 1 1.37428 17.9482 12.3163 
118 1 8.75463 14.0649 19.6968 
119 1 1.37432 14.0649 19.6967 
120 1 8.7547 17.9473 12.3163 
121 1 8.75464 12.3166 14.0641 
122 1 1.37422 19.6966 17.9473 
123 1 1.37428 12.3163 17.9482 
124 1 8.7546 19.6976 14.0637 
125 1 8.75455 19.6976 17.9497 
126 1 1.37444 12.3165 14.0646 
127 1 1.37435 19.6966 14.0645 
128 1 8.75474 12.3173 17.9486 
137 1 9.41202 11.6584 11.6585 
138 1 0.727313 20.3429 20.344 
139 1 0.715886 20.3547 11.6575 
140 1 9.41312 11.6583 20.3545 
141 1 0.716287 11.6589 20.355 
142 1 9.41292 20.3561 11.6586 
143 1 9.41242 20.355 20.355 
144 1 0.716722 11.6584 11.658 
1 1 19.3977 1.60221 1.62459 
2 1 12.5551 8.51587 8.516 
3 1 12.5549 8.51616 1.61191 
4 1 19.4582 1.61225 8.517 
5 1 12.5542 1.61214 8.51593 
6 1 19.4582 8.51932 1.61224 
7 1 19.4581 8.51606 8.51571 
8 1 12.5535 1.61158 1.61264 
17 1 21.0678 -0.0270093 -0.022691 
18 1 10.9648 10.1061 10.1062 
19 1 10.9645 10.1062 0.0235146 
20 1 21.0484 0.0235553 10.1067 
21 1 10.9645 0.0214958 10.1056 
22 1 21.0484 10.1056 0.0224225 
23 1 21.0478 10.1063 10.1063 
24 1 10.9648 0.0222221 0.0215918 
33 1 16.7448 1.27328 1.27304 
34 1 15.2528 8.85161 8.8516 
35 1 15.2482 8.85027 1.27766 
36 1 16.7579 1.27612 8.85172 
37 1 15.2539 1.2763 8.85172 
38 1 16.7565 8.85122 1.27714 
39 1 16.7599 8.85161 8.85162 
40 1 15.2375 1.27496 1.27624 
41 1 19.7957 4.34422 1.26954 
42 1 12.2194 5.8176 8.85157 
43 1 19.7936 5.81732 8.85164 
44 1 12.2193 4.3122 1.2771 
45 1 12.2193 5.81643 1.27631 
46 1 19.7937 4.31298 8.85185 
47 1 12.2195 4.30997 8.85154 
48 1 19.7974 5.83118 1.2749 
49 1 19.798 1.27422 4.32205 
50 1 12.2194 8.85076 5.81738 
51 1 12.2194 1.27735 5.81848 
52 1 19.7934 8.85141 4.30779 
53 1 19.7936 8.85157 5.81888 
54 1 12.2192 1.27627 4.31252 
55 1 12.2193 8.85067 4.31167 
56 1 19.794 1.27547 5.83586 
81 1 17.9124 1.36381 1.36433 
82 1 14.0644 8.75458 8.75456 
83 1 14.0668 8.75383 1.37416 
84 1 17.9491 1.37346 8.755 
85 1 14.0633 1.37339 8.7546 
86 1 17.9491 8.75484 1.37379 
87 1 17.9484 8.75459 8.75462 
88 1 14.0533 1.37421 1.37524 
89 1 19.6677 3.15325 1.3665 
90 1 12.3164 7.00635 8.75456 
91 1 19.6966 7.00654 8.75461 
92 1 12.3162 3.12157 1.37427 
93 1 12.3163 7.00745 1.37338 
94 1 19.6959 3.12116 8.75485 
95 1 12.3163 3.12239 8.7547 
96 1 19.6952 7.02911 1.37583 
97 1 19.7048 1.36503 3.15685 
98 1 12.3164 8.75439 7.00677 
99 1 12.3164 1.37431 7.00637 
100 1 19.6976 8.75555 3.12957 
101 1 19.6967 8.75463 7.00584 
102 1 12.3162 1.37318 3.1226 
103 1 12.3163 8.75367 3.12093 
104 1 19.6965 1.37358 7.01027 
129 1 20.3655 0.66372 0.659311 
130 1 11.6584 9.41251 9.41247 
131 1 11.6574 9.41292 0.716095 
132 1 20.3557 0.715755 9.41506 
133 1 11.658 0.714986 9.41228 
134 1 20.3564 9.414 0.714193 
135 1 20.3541 9.41261 9.41268 
136 1 11.6575 0.715259 0.71521 
145 2 20.892 1.9409 1.619 
ITEM: TIMESTEP
20
ITEM: NUMBER OF ATOMS
147
ITEM: BOX BOUNDS pp pp pp
0.0000000000000000e+00 2.1884000000000000e+01
0.0000000000000000e+00 2.1885999999999999e+01
0.0000000000000000e+00 2.1885000000000002e+01
ITEM: ATOMS id type x y z 
146 2 0.427622 1.9224 1.54901 
147 3 0.54789 2.69117 1.04938 
9 1 8.51313 12.5576 12.5578 
10 1 1.61385 19.4572 19.4562 
11 1 1.6155 19.4555 12.557 
12 1 8.51354 12.5579 19.4555 
13 1 1.61571 12.5574 19.4558 
14 1 8.5135 19.4562 12.5577 
15 1 8.51376 19.4563 19.4554 
16 1 1.61555 12.5578 12.5576 
25 1 10.106 10.9643 10.9642 
26 1 0.0476877 21.0214 21.0274 
27 1 0.0222275 21.0478 10.9638 
28 1 10.1071 10.9642 21.0481 
29 1 0.0226182 10.9656 21.0486 
30 1 10.1065 21.0497 10.965 
31 1 10.106 21.0487 21.0489 
32 1 0.0230464 10.9643 10.9639 
57 1 5.8168 12.22 12.22 
58 1 4.31386 19.7941 19.7935 
59 1 4.31163 19.793 12.22 
60 1 5.81763 12.2207 19.7928 
61 1 4.31249 12.2201 19.793 
62 1 5.81616 19.793 12.2199 
63 1 5.8179 19.7942 19.7931 
64 1 4.31215 12.22 12.22 
65 1 8.851 15.2542 12.22 
66 1 1.27762 16.7571 19.7935 
67 1 8.85094 16.7593 19.7932 
68 1 1.27802 15.2546 12.22 
69 1 1.278 16.7594 12.22 
70 1 8.85109 15.2545 19.7936 
71 1 1.2778 15.253 19.7931 
72 1 8.85102 16.7585 12.22 
73 1 8.85092 12.2208 15.2544 
74 1 1.27758 19.7934 16.7565 
75 1 1.27796 12.22 16.7589 
76 1 8.85107 19.794 15.2545 
77 1 8.85103 19.7941 16.7587 
78 1 1.27803 12.22 15.2545 
79 1 1.27783 19.7931 15.2523 
80 1 8.85103 12.2211 16.7596 
105 1 7.0057 12.317 12.317 
106 1 3.125 19.6968 19.6965 
107 1 3.12357 19.6961 12.3169 
108 1 7.00595 12.3172 19.6962 
109 1 3.12308 12.3169 19.6961 
110 1 7.00678 19.6961 12.317 
111 1 7.00726 19.6969 19.696 
112 1 3.12271 12.3171 12.317 
113 1 8.75399 14.0651 12.317 
114 1 1.37437 17.9461 19.6965 
115 1 8.75396 17.9488 19.696 
116 1 1.37505 14.0652 12.3171 
117 1 1.37488 17.9479 12.317 
118 1 8.75398 14.0655 19.6963 
119 1 1.375 14.0638 19.696 
120 1 8.75396 17.9489 12.3171 
121 1 8.75402 12.3173 14.0651 
122 1 1.37435 19.6965 17.9455 
123 1 1.3749 12.3169 17.9483 
124 1 8.75401 19.6969 14.0645 
125 1 8.75401 19.697 17.9482 
126 1 1.37503 12.3171 14.0651 
127 1 1.37497 19.696 14.0638 
128 1 8.75411 12.3179 17.9482 
137 1 9.411 11.6598 11.6599 
138 1 0.741203 20.3285 20.3317 
139 1 0.718348 20.3526 11.6596 
140 1 9.41146 11.66 20.3532 
141 1 0.71864 11.661 20.3524 
142 1 9.4111 20.3539 11.6602 
143 1 9.41069 20.3529 20.3534 
144 1 0.717941 11.66 11.6597 
1 1 19.3947 1.59781 1.61684 
2 1 12.5576 8.51324 8.51339 
3 1 12.557 8.51324 1.61488 
4 1 19.455 1.61556 8.52194 
5 1 12.5575 1.61474 8.51322 
6 1 19.4544 8.52291 1.61547 
7 1 19.4553 8.51308 8.51351 
8 1 12.5512 1.61473 1.61545 
17 1 21.0519 -0.0105571 -0.00799169 
18 1 10.9644 10.1064 10.1067 
19 1 10.964 10.107 0.0227482 
20 1 21.0504 0.0214145 10.1083 
21 1 10.964 0.0208373 10.106 
22 1 21.0508 10.1077 0.0200689 
23 1 21.0481 10.1068 10.1067 
24 1 10.9637 0.020712 0.0202612 
33 1 16.7214 1.27003 1.26874 
34 1 15.2544 8.85104 8.85104 
35 1 15.252 8.85003 1.27799 
36 1 16.7561 1.27645 8.85118 
37 1 15.2526 1.277 8.85104 
38 1 16.7598 8.85029 1.27791 
39 1 16.7586 8.85103 8.85102 
40 1 15.2308 1.27384 1.27516 
41 1 19.7946 4.34938 1.26732 
42 1 12.22 5.81616 8.85098 
43 1 19.793 5.81761 8.85106 
44 1 12.2199 4.31299 1.27743 
45 1 12.2199 5.81675 1.27695 
46 1 19.7933 4.31459 8.8513 
47 1 12.2201 4.31135 8.85094 
48 1 19.7985 5.83735 1.27381 
49 1 19.8033 1.27203 4.34351 
50 1 12.2201 8.85017 5.81655 
51 1 12.2199 1.27787 5.81809 
52 1 19.7937 8.85142 4.31468 
53 1 19.7931 8.85124 5.81905 
54 1 12.2198 1.27662 4.3141 
55 1 12.22 8.85002 4.31244 
56 1 19.7957 1.27347 5.83099 
81 1 17.9078 1.35914 1.36086 
82 1 14.0647 8.75394 8.75393 
83 1 14.0644 8.75308 1.37489 
84 1 17.9464 1.37355 8.7552 
85 1 14.0645 1.37402 8.75399 
86 1 17.9411 8.75553 1.37347 
87 1 17.9478 8.75397 8.754 
88 1 14.0427 1.37498 1.37619 
89 1 19.6647 3.15725 1.3661 
90 1 12.317 7.00587 8.75395 
91 1 19.696 7.00611 8.75395 
92 1 12.316 3.12518 1.37436 
93 1 12.3169 7.0068 1.37395 
94 1 19.6959 3.12401 8.75504 
95 1 12.3169 3.12286 8.75407 
96 1 19.6957 7.03226 1.37604 
97 1 19.7 1.36106 3.15144 
98 1 12.317 8.75373 7.00577 
99 1 12.317 1.37499 7.00663 
100 1 19.6969 8.75525 3.12499 
101 1 19.6959 8.75387 7.00759 
102 1 12.316 1.37326 3.12553 
103 1 12.3168 8.7532 3.12235 
104 1 19.6953 1.37442 7.02731 
129 1 20.3453 0.672837 0.672403 
130 1 11.6597 9.41126 9.41085 
131 1 11.6588 9.41102 0.717584 
132 1 20.3535 0.717751 9.41322 
133 1 11.6594 0.716746 9.41103 
134 1 20.3542 9.41226 0.716135 
135 1 20.353 9.41109 9.41123 
136 1 11.6578 0.716175 0.716141 
145 2 20.9214 1.95132 1.61713 
ITEM: TIMESTEP
30
ITEM: NUMBER OF ATOMS
147
ITEM: BOX BOUNDS pp pp pp
0.0000000000000000e+00 2.1884000000000000e+01
0.0000000000000000e+00 2.1885999999999999e+01
0.0000000000000000e+00 2.1885000000000002e+01
ITEM: ATOMS id type x y z 
146 2 0.440255 1.92239 1.54816 
147 3 0.55435 2.69244 1.04993 
9 1 8.51177 12.5592 12.5593 
10 1 1.62161 19.4494 19.4487 
11 1 1.61706 19.4541 12.5581 
12 1 8.51214 12.5595 19.4543 
13 1 1.61717 12.5584 19.454 
14 1 8.512 19.4544 12.5591 
15 1 8.5126 19.4546 19.454 
16 1 1.61696 12.5594 12.5593 
25 1 10.1057 10.9648 10.9648 
26 1 0.0419822 21.0281 21.0326 
27 1 0.023344 21.0472 10.9648 
28 1 10.1064 10.9649 21.0478 
29 1 0.0237022 10.9665 21.0474 
30 1 10.106 21.049 10.9654 
31 1 10.1051 21.0477 21.0481 
32 1 0.0233713 10.965 10.9646 
57 1 5.81654 12.2205 12.2205 
58 1 4.3161 19.7941 19.7935 
59 1 4.31266 19.7926 12.2204 
60 1 5.81694 12.221 19.7925 
61 1 4.31287 12.2205 19.7926 
62 1 5.81679 19.7925 12.2203 
63 1 5.81878 19.7939 19.7929 
64 1 4.31213 12.2204 12.2205 
65 1 8.85056 15.2545 12.2204 
66 1 1.27763 16.7549 19.7934 
67 1 8.85051 16.759 19.7928 
68 1 1.27846 15.2545 12.2204 
69 1 1.27834 16.7586 12.2204 
70 1 8.85067 15.2548 19.7931 
71 1 1.27805 15.2523 19.7929 
72 1 8.85052 16.759 12.2205 
73 1 8.85048 12.2212 15.2546 
74 1 1.27757 19.7934 16.7543 
75 1 1.27834 12.2204 16.7586 
76 1 8.8506 19.7936 15.2543 
77 1 8.85059 19.7937 16.7584 
78 1 1.27846 12.2204 15.2544 
79 1 1.27804 19.7929 15.2519 
80 1 8.85062 12.2215 16.7589 
105 1 7.0054 12.3177 12.3177 
106 1 3.12698 19.697 19.6966 
107 1 3.12372 19.6955 12.3175 
108 1 7.00589 12.3179 19.6956 
109 1 3.12393 12.3175 19.6956 
110 1 7.00571 19.6956 12.3176 
111 1 7.00775 19.6963 19.6953 
112 1 3.12326 12.3177 12.3176 
113 1 8.75337 14.0656 12.3176 
114 1 1.3742 17.9441 19.6966 
115 1 8.75342 17.9479 19.6955 
116 1 1.37568 14.0655 12.3177 
117 1 1.37547 17.9476 12.3175 
118 1 8.75339 14.066 19.6957 
119 1 1.37563 14.0633 19.6954 
120 1 8.75339 17.9478 12.3177 
121 1 8.7534 12.3179 14.0657 
122 1 1.37418 19.6967 17.9436 
123 1 1.37547 12.3175 17.9475 
124 1 8.75341 19.6963 14.0654 
125 1 8.7535 19.6965 17.9473 
126 1 1.37567 12.3177 14.0655 
127 1 1.37561 19.6953 14.0628 
128 1 8.75352 12.3185 17.9478 
137 1 9.41079 11.6597 11.6597 
138 1 0.739107 20.3311 20.3342 
139 1 0.718108 20.3523 11.6596 
140 1 9.41158 11.6598 20.3529 
141 1 0.71877 11.6611 20.3526 
142 1 9.41104 20.3542 11.6602 
143 1 9.41025 20.3526 20.3527 
144 1 0.718194 11.6598 11.6596 
1 1 19.3812 1.59913 1.62086 
2 1 12.5591 8.51174 8.51171 
3 1 12.5579 8.51172 1.61651 
4 1 19.4537 1.61681 8.52177 
5 1 12.5587 1.61637 8.51226 
6 1 19.4533 8.52491 1.61693 
7 1 19.4539 8.5118 8.5126 
8 1 12.5468 1.61646 1.61722 
17 1 21.0582 -0.0202663 -0.0141301 
18 1 10.9648 10.106 10.106 
19 1 10.9642 10.1065 0.0229053 
20 1 21.0501 0.0214356 10.1078 
21 1 10.9644 0.0214497 10.1058 
22 1 21.0506 10.1074 0.0200622 
23 1 21.048 10.1064 10.1062 
24 1 10.9633 0.0200674 0.0197595 
33 1 16.7129 1.26741 1.26569 
34 1 15.2541 8.85059 8.85059 
35 1 15.2521 8.84988 1.27821 
36 1 16.7554 1.27656 8.85077 
37 1 15.253 1.27725 8.85079 
38 1 16.7546 8.85027 1.27744 
39 1 16.7582 8.85065 8.85062 
40 1 15.2254 1.27251 1.27373 
41 1 19.7931 4.34972 1.26604 
42 1 12.2205 5.81642 8.85052 
43 1 19.7928 5.8174 8.85079 
44 1 12.2202 4.3156 1.2773 
45 1 12.2202 5.81762 1.27728 
46 1 19.7932 4.31513 8.85089 
47 1 12.2204 4.31207 8.85057 
48 1 19.7991 5.84206 1.27309 
49 1 19.8053 1.27059 4.34634 
50 1 12.2205 8.84977 5.81658 
51 1 12.2201 1.2781 5.81811 
52 1 19.7937 8.85097 4.31637 
53 1 19.7929 8.85097 5.81844 
54 1 12.2201 1.27655 4.31629 
55 1 12.2204 8.8496 4.31232 
56 1 19.7965 1.27325 5.83948 
81 1 17.9073 1.35709 1.35886 
82 1 14.0652 8.75331 8.75331 
83 1 14.0629 8.75245 1.37554 
84 1 17.9447 1.37381 8.75545 
85 1 14.0637 1.37468 8.75336 
86 1 17.944 8.7556 1.37411 
87 1 17.9472 8.75342 8.75348 
88 1 14.0327 1.37549 1.37683 
89 1 19.6592 3.16175 1.36589 
90 1 12.3177 7.00531 8.75333 
91 1 19.6953 7.00669 8.75335 
92 1 12.3156 3.12604 1.3745 
93 1 12.3174 7.00698 1.3746 
94 1 19.6957 3.12587 8.7553 
95 1 12.3174 3.12312 8.75349 
96 1 19.696 7.03288 1.37636 
97 1 19.6959 1.35879 3.15473 
98 1 12.3176 8.75304 7.00555 
99 1 12.3176 1.37564 7.00756 
100 1 19.6966 8.75567 3.12699 
101 1 19.6953 8.75334 7.00758 
102 1 12.3156 1.37339 3.12666 
103 1 12.3173 8.75267 3.12337 
104 1 19.6946 1.3748 7.0308 
129 1 20.3489 0.67573 0.672096 
130 1 11.6597 9.41116 9.41115 
131 1 11.659 9.4113 0.71762 
132 1 20.3543 0.717027 9.41476 
133 1 11.6593 0.716377 9.41096 
134 1 20.355 9.41375 0.71553 
135 1 20.353 9.4114 9.41157 
136 1 11.6571 0.715934 0.715844 
145 2 20.9437 1.94997 1.6089 
ITEM: TIMESTEP
40
ITEM: NUMBER OF ATOMS
147
ITEM: BOX BOUNDS pp pp pp
0.0000000000000000e+00 2.1884000000000000e+01
0.0000000000000000e+00 2.1885999999999999e+01
0.0000000000000000e+00 2.1885000000000002e+01
ITEM: ATOMS id type x y z 
146 2 0.452398 1.91948 1.54895 
147 3 0.570559 2.69808 1.05023 
9 1 8.50952 12.5614 12.5615 
10 1 1.62811 19.4435 19.4432 
11 1 1.61958 19.4515 12.5592 
12 1 8.51004 12.5617 19.4519 
13 1 1.6199 12.5597 19.4514 
14 1 8.50981 19.4521 12.5614 
15 1 8.51165 19.4519 19.4512 
16 1 1.61931 12.5614 12.5613 
25 1 10.1053 10.9651 10.9652 
26 1 0.0466743 21.0251 21.033 
27 1 0.024062 21.0467 10.9657 
28 1 10.1059 10.9654 21.0474 
29 1 0.0244396 10.9671 21.0469 
30 1 10.1054 21.0487 10.9658 
31 1 10.1036 21.0464 21.0465 
32 1 0.0238234 10.9654 10.9651 
57 1 5.81572 12.2213 12.2213 
58 1 4.31567 19.794 19.7934 
59 1 4.31411 19.792 12.2212 
60 1 5.81644 12.2217 19.7917 
61 1 4.31429 12.2213 19.792 
62 1 5.81625 19.7918 12.2212 
63 1 5.81951 19.7936 19.7926 
64 1 4.31318 12.2213 12.2213 
65 1 8.84965 15.2553 12.2213 
66 1 1.27752 16.7543 19.7935 
67 1 8.8497 16.7578 19.7921 
68 1 1.27928 15.255 12.2212 
69 1 1.27901 16.7571 12.2212 
70 1 8.84982 15.2554 19.7922 
71 1 1.27839 15.2507 19.7926 
72 1 8.84964 16.758 12.2214 
73 1 8.84962 12.2221 15.2554 
74 1 1.27754 19.7934 16.7545 
75 1 1.279 12.2212 16.7571 
76 1 8.84977 19.7928 15.2548 
77 1 8.84975 19.793 16.7573 
78 1 1.27928 12.2212 15.2549 
79 1 1.27841 19.7925 15.2498 
80 1 8.84974 12.2223 16.7579 
105 1 7.00491 12.3193 12.3193 
106 1 3.13264 19.6954 19.695 
107 1 3.12478 19.6941 12.3187 
108 1 7.0058 12.3195 19.694 
109 1 3.12506 12.3188 19.6941 
110 1 7.00558 19.694 12.3192 
111 1 7.00982 19.6947 19.6938 
112 1 3.12399 12.3192 12.3192 
113 1 8.75176 14.0661 12.3192 
114 1 1.37602 17.9393 19.695 
115 1 8.75211 17.9465 19.6941 
116 1 1.37726 14.0657 12.3193 
117 1 1.3769 17.9465 12.3187 
118 1 8.75184 14.066 19.6942 
119 1 1.37718 14.0616 19.6939 
120 1 8.75186 17.9472 12.3192 
121 1 8.75178 12.3195 14.0661 
122 1 1.37579 19.6952 17.9381 
123 1 1.37691 12.3188 17.9464 
124 1 8.75183 19.6947 14.0655 
125 1 8.75223 19.695 17.9459 
126 1 1.37724 12.3193 14.0656 
127 1 1.37709 19.6939 14.0613 
128 1 8.75199 12.32 17.9471 
137 1 9.41044 11.6603 11.6603 
138 1 0.740787 20.3308 20.3334 
139 1 0.720212 20.3506 11.6611 
140 1 9.41086 11.6606 20.3524 
141 1 0.720665 11.6626 20.3505 
142 1 9.4105 20.3532 11.6607 
143 1 9.40911 20.351 20.351 
144 1 0.71872 11.6606 11.6603 
1 1 19.3296 1.60519 1.63642 
2 1 12.5611 8.50953 8.50972 
3 1 12.5592 8.51076 1.61894 
4 1 19.4502 1.62017 8.52648 
5 1 12.5598 1.61862 8.51144 
6 1 19.4498 8.53082 1.621 
7 1 19.4515 8.51066 8.51127 
8 1 12.54 1.6198 1.62055 
17 1 21.0425 -0.0177375 -0.0173072 
18 1 10.9651 10.1057 10.1058 
19 1 10.9644 10.1065 0.022654 
20 1 21.0513 0.0198031 10.1085 
21 1 10.9644 0.0213265 10.1057 
22 1 21.0519 10.1082 0.0186485 
23 1 21.0481 10.1065 10.1062 
24 1 10.9624 0.0183701 0.0184236 
33 1 16.6926 1.26169 1.25916 
34 1 15.2547 8.84978 8.84975 
35 1 15.2517 8.84933 1.27865 
36 1 16.7539 1.27656 8.85007 
37 1 15.253 1.2776 8.85026 
38 1 16.7516 8.84953 1.27718 
39 1 16.7565 8.84993 8.84986 
40 1 15.2163 1.27041 1.27136 
41 1 19.7875 4.34441 1.26367 
42 1 12.2213 5.81593 8.84968 
43 1 19.7923 5.81811 8.85023 
44 1 12.2209 4.31876 1.27677 
45 1 12.2206 5.81874 1.27765 
46 1 19.7931 4.31655 8.85013 
47 1 12.2211 4.31429 8.84986 
48 1 19.801 5.84191 1.27129 
49 1 19.8077 1.2676 4.35063 
50 1 12.2214 8.849 5.81607 
51 1 12.2205 1.27835 5.81871 
52 1 19.7938 8.85005 4.31749 
53 1 19.7924 8.85036 5.81943 
54 1 12.2208 1.27612 4.31924 
55 1 12.2211 8.8489 4.31408 
56 1 19.7983 1.27288 5.84767 
81 1 17.8954 1.35321 1.35624 
82 1 14.0654 8.75174 8.75175 
83 1 14.0622 8.75127 1.37696 
84 1 17.9424 1.3748 8.75614 
85 1 14.0623 1.37624 8.75208 
86 1 17.9429 8.75654 1.3753 
87 1 17.9463 8.75206 8.7522 
88 1 14.0223 1.37611 1.37766 
89 1 19.6401 3.16132 1.3689 
90 1 12.3192 7.00501 8.75175 
91 1 19.6938 7.00778 8.75205 
92 1 12.3141 3.12885 1.37526 
93 1 12.3187 7.00872 1.37618 
94 1 19.6948 3.12823 8.75596 
95 1 12.3188 3.12375 8.75227 
96 1 19.6968 7.03759 1.37687 
97 1 19.6832 1.35732 3.1548 
98 1 12.3192 8.7514 7.00537 
99 1 12.3189 1.3771 7.00975 
100 1 19.6955 8.75688 3.12942 
101 1 19.6938 8.75204 7.00821 
102 1 12.314 1.37415 3.12961 
103 1 12.3185 8.75138 3.1244 
104 1 19.6943 1.37483 7.03114 
129 1 20.3745 0.700953 0.692085 
130 1 11.66 9.41076 9.41057 
131 1 11.6589 9.41116 0.717792 
132 1 20.354 0.717445 9.41601 
133 1 11.6595 0.716891 9.41112 
134 1 20.3541 9.41489 0.716375 
135 1 20.3529 9.41099 9.41145 
136 1 11.6539 0.715008 0.714851 
145 2 21.0379 1.93355 1.57504 
ITEM: TIMESTEP
50
ITEM: NUMBER OF ATOMS
147
ITEM: BOX BOUNDS pp pp pp
0.0000000000000000e+00 2.1884000000000000e+01
0.0000000000000000e+00 2.1885999999999999e+01
0.0000000000000000e+00 2.1885000000000002e+01
ITEM: ATOMS id type x y z 
146 2 0.456161 1.9109 1.55424 
147 3 0.578231 2.70866 1.04556 
9 1 8.50917 12.5618 12.5618 
10 1 1.62958 19.442 19.4417 
11 1 1.6205 19.4505 12.5584 
12 1 8.50973 12.562 19.4514 
13 1 1.62098 12.5587 19.4503 
14 1 8.5095 19.4517 12.5617 
15 1 8.51205 19.4509 19.4503 
16 1 1.61982 12.5617 12.5616 
25 1 10.1051 10.9654 10.9654 
26 1 0.0364017 21.0319 21.0375 
27 1 0.02466 21.0461 10.9664 
28 1 10.1056 10.9657 21.0471 
29 1 0.0249753 10.9676 21.0463 
30 1 10.1051 21.0484 10.966 
31 1 10.1027 21.0455 21.0456 
32 1 0.0240579 10.9657 10.9653 
57 1 5.81559 12.2218 12.2218 
58 1 4.31872 19.7943 19.7937 
59 1 4.31469 19.7917 12.2216 
60 1 5.8165 12.222 19.7913 
61 1 4.31469 12.2217 19.7917 
62 1 5.81627 19.7914 12.2216 
63 1 5.82021 19.7935 19.7925 
64 1 4.31353 12.2217 12.2217 
65 1 8.84922 15.2555 12.2218 
66 1 1.27728 16.7514 19.7937 
67 1 8.84937 16.7569 19.7919 
68 1 1.27964 15.255 12.2216 
69 1 1.27926 16.7565 12.2216 
70 1 8.84944 15.2553 19.7919 
71 1 1.2784 15.2511 19.7926 
72 1 8.84923 16.7576 12.2218 
73 1 8.8492 12.2225 15.2555 
74 1 1.2773 19.7936 16.7515 
75 1 1.27928 12.2216 16.7566 
76 1 8.8494 19.7924 15.2547 
77 1 8.84943 19.7927 16.7563 
78 1 1.27963 12.2216 15.2549 
79 1 1.27843 19.7925 15.2502 
80 1 8.84933 12.2227 16.7575 
105 1 7.00485 12.3201 12.3201 
106 1 3.13077 19.6938 19.6934 
107 1 3.12543 19.6934 12.3192 
108 1 7.00584 12.3203 19.6932 
109 1 3.12577 12.3193 19.6934 
110 1 7.0056 19.6932 12.32 
111 1 7.00942 19.6942 19.6933 
112 1 3.12429 12.32 12.32 
113 1 8.75094 14.0663 12.32 
114 1 1.37756 17.9408 19.6935 
115 1 8.7516 17.9461 19.6933 
116 1 1.37806 14.0657 12.32 
117 1 1.37763 17.9458 12.3192 
118 1 8.75109 14.066 19.6934 
119 1 1.37765 14.0613 19.6934 
120 1 8.75109 17.9469 12.32 
121 1 8.75095 12.3204 14.0662 
122 1 1.37737 19.6937 17.9398 
123 1 1.37768 12.3192 17.9455 
124 1 8.75104 19.6939 14.0654 
125 1 8.75172 19.6942 17.9456 
126 1 1.37803 12.3201 14.0656 
127 1 1.37767 19.6933 14.0609 
128 1 8.75122 12.3208 17.9468 
137 1 9.41043 11.6603 11.6604 
138 1 0.735513 20.3372 20.3394 
139 1 0.720483 20.3504 11.661 
140 1 9.41071 11.6608 20.3523 
141 1 0.720736 11.6623 20.3505 
142 1 9.41043 20.353 11.6608 
143 1 9.4085 20.3502 20.35 
144 1 0.718785 11.6607 11.6604 
1 1 19.3421 1.63156 1.64944 
2 1 12.5614 8.50939 8.50951 
3 1 12.5591 8.51159 1.61963 
4 1 19.4494 1.62091 8.52851 
5 1 12.5598 1.61935 8.51222 
6 1 19.4489 8.53104 1.62188 
7 1 19.451 8.5107 8.51151 
8 1 12.5388 1.6208 1.6215 
17 1 21.0338 -0.0180733 -0.0100757 
18 1 10.9651 10.1057 10.1056 
19 1 10.9643 10.1064 0.0223558 
20 1 21.0513 0.0197367 10.1084 
21 1 10.9644 0.0211706 10.1058 
22 1 21.0516 10.1078 0.0188888 
23 1 21.0483 10.1063 10.1062 
24 1 10.9618 0.0176034 0.0176632 
33 1 16.6991 1.26079 1.25826 
34 1 15.2547 8.8494 8.84937 
35 1 15.2521 8.84901 1.2787 
36 1 16.7521 1.27651 8.84993 
37 1 15.2525 1.27773 8.84988 
38 1 16.7521 8.84917 1.27729 
39 1 16.7563 8.84956 8.84949 
40 1 15.2179 1.26992 1.2706 
41 1 19.78 4.32901 1.26521 
42 1 12.2217 5.81581 8.84931 
43 1 19.7922 5.81833 8.84988 
44 1 12.2209 4.31968 1.27663 
45 1 12.2209 5.81911 1.27762 
46 1 19.7932 4.31828 8.84995 
47 1 12.2215 4.31463 8.84951 
48 1 19.8002 5.83936 1.2719 
49 1 19.8042 1.26861 4.33545 
50 1 12.2217 8.84865 5.81599 
51 1 12.2208 1.27836 5.81995 
52 1 19.7938 8.84983 4.31843 
53 1 19.7923 8.85002 5.8191 
54 1 12.2209 1.27599 4.32032 
55 1 12.2214 8.84857 4.31481 
56 1 19.7992 1.27295 5.83734 
81 1 17.8976 1.35704 1.36146 
82 1 14.0654 8.75096 8.75098 
83 1 14.062 8.75094 1.37762 
84 1 17.943 1.37541 8.75644 
85 1 14.0626 1.37689 8.75171 
86 1 17.9422 8.75701 1.37606 
87 1 17.9455 8.75155 8.75176 
88 1 14.0251 1.37615 1.37772 
89 1 19.6242 3.14508 1.37625 
90 1 12.32 7.00512 8.75097 
91 1 19.6931 7.00793 8.75157 
92 1 12.3134 3.12998 1.37565 
93 1 12.3189 7.00935 1.37675 
94 1 19.6942 3.12781 8.75629 
95 1 12.3193 3.12458 8.75185 
96 1 19.6982 7.02664 1.37643 
97 1 19.6713 1.36207 3.14551 
98 1 12.32 8.75061 7.0054 
99 1 12.3192 1.37761 7.00975 
100 1 19.6946 8.75726 3.12857 
101 1 19.6932 8.75154 7.00873 
102 1 12.3133 1.37457 3.13058 
103 1 12.319 8.75094 3.125 
104 1 19.6946 1.37492 7.02723 
129 1 20.3988 0.728919 0.708108 
130 1 11.66 9.41069 9.41082 
131 1 11.6587 9.41155 0.717854 
132 1 20.3539 0.717374 9.41734 
133 1 11.6592 0.71694 9.41142 
134 1 20.354 9.41631 0.716502 
135 1 20.3527 9.41146 9.41171 
136 1 11.6522 0.714842 0.714817 
145 2 21.0396 1.90367 1.55381 
ITEM: TIMESTEP
60
ITEM: NUMBER OF ATOMS
147
ITEM: BOX BOUNDS pp pp pp
0.0000000000000000e+00 2.1884000000000000e+01
0.0000000000000000e+00 2.1885999999999999e+01
0.0000000000000000e+00 2.1885000000000002e+01
ITEM: ATOMS id type x y z 
146 2 0.456682 1.91568 1.55299 
147 3 0.587031 2.70815 1.04943 
9 1 8.50899 12.5621 12.5621 
10 1 1.62776 19.4438 19.4432 
11 1 1.62171 19.4494 12.5589 
12 1 8.50957 12.5623 19.4508 
13 1 1.62136 12.5595 19.4499 
14 1 8.50944 19.451 12.5618 
15 1 8.51107 19.4496 19.449 
16 1 1.62031 12.562 12.5618 
25 1 10.1052 10.9656 10.9656 
26 1 0.0170188 21.04 21.0461 
27 1 0.0248781 21.0462 10.9665 
28 1 10.1052 10.966 21.0471 
29 1 0.0249464 10.9674 21.0463 
30 1 10.105 21.0479 10.9661 
31 1 10.1019 21.0446 21.0446 
32 1 0.0240898 10.966 10.9656 
57 1 5.81546 12.2225 12.2225 
58 1 4.31895 19.7939 19.7933 
59 1 4.31543 19.7912 12.2222 
60 1 5.81622 12.2226 19.7908 
61 1 4.31656 12.2224 19.7913 
62 1 5.81631 19.7908 12.2222 
63 1 5.8199 19.7933 19.7923 
64 1 4.31408 12.2224 12.2224 
65 1 8.84845 15.2557 12.2225 
66 1 1.27778 16.7525 19.7932 
67 1 8.84879 16.7559 19.7914 
68 1 1.28022 15.2549 12.2223 
69 1 1.27973 16.7558 12.2222 
70 1 8.84878 15.2552 19.7913 
71 1 1.27872 15.2502 19.7922 
72 1 8.84853 16.757 12.2225 
73 1 8.84845 12.2232 15.2556 
74 1 1.27773 19.7932 16.7517 
75 1 1.2796 12.2222 16.7547 
76 1 8.84875 19.7919 15.2546 
77 1 8.84885 19.7923 16.7553 
78 1 1.28018 12.2222 15.2551 
79 1 1.27869 19.7922 15.2504 
80 1 8.84861 12.2234 16.7569 
105 1 7.00479 12.3214 12.3214 
106 1 3.13042 19.6912 19.6908 
107 1 3.12602 19.6921 12.32 
108 1 7.00614 12.3215 19.6919 
109 1 3.12684 12.3199 19.6926 
110 1 7.00564 19.692 12.3211 
111 1 7.00915 19.693 19.6921 
112 1 3.12491 12.3212 12.3211 
113 1 8.74966 14.0663 12.3213 
114 1 1.38027 17.9404 19.6908 
115 1 8.75073 17.9452 19.692 
116 1 1.37927 14.0656 12.3212 
117 1 1.37889 17.9452 12.3201 
118 1 8.75001 14.0658 19.6922 
119 1 1.37857 14.0627 19.6925 
120 1 8.74999 17.9463 12.3211 
121 1 8.74968 12.3217 14.0662 
122 1 1.38002 19.6911 17.9401 
123 1 1.37847 12.3199 17.9446 
124 1 8.74987 19.6926 14.0652 
125 1 8.75086 19.693 17.9446 
126 1 1.37925 12.3212 14.0652 
127 1 1.37876 19.6922 14.0611 
128 1 8.75012 12.3219 17.9461 
137 1 9.40999 11.6604 11.6604 
138 1 0.726258 20.3461 20.3499 
139 1 0.720944 20.35 11.6607 
140 1 9.4105 11.6609 20.3518 
141 1 0.721065 11.6618 20.3502 
142 1 9.40992 20.3529 11.661 
143 1 9.4083 20.3491 20.3489 
144 1 0.71936 11.6609 11.6606 
1 1 19.338 1.63884 1.6537 
2 1 12.5612 8.50912 8.50941 
3 1 12.5589 8.51227 1.6204 
4 1 19.4486 1.6215 8.52247 
5 1 12.5593 1.61973 8.51289 
6 1 19.4484 8.52281 1.62253 
7 1 19.4501 8.51125 8.51174 