ITEM: TIMESTEP
0
ITEM: NUMBER OF ATOMS
57
ITEM: BOX BOUNDS pp pp pp
0.0000000000000000e+00 3.2808000000000000e+01
0.0000000000000000e+00 1.7780000000000001e+01
0.0000000000000000e+00 2.4729999999999999e+00
ITEM: ATOMS id type x y z 
13 1 7.043 0.849 2.464 
29 1 7.397 1.432 1.228 
37 1 8.035 2.733 1.228 
57 2 7.107 3.295 1.287 
1 1 6.173 17.398 2.464 
5 1 5.371 17.398 1.228 
9 1 3.973 17.398 1.228 
16 1 7.043 16.167 2.464 
32 1 7.397 15.584 1.228 
40 1 8.035 14.283 1.228 
45 1 3.236 17.398 2.464 
49 1 1.81 17.398 2.464 
53 1 1.083 17.398 1.228 
4 1 10.968 8.508 2.464 
8 1 11.771 8.508 1.228 
12 1 13.168 8.508 1.228 
18 1 10.098 7.277 2.464 
21 1 8.308 3.392 2.464 
26 1 8.833 4.734 2.464 
34 1 9.745 6.694 1.228 
42 1 9.106 5.393 1.228 
48 1 13.906 8.508 2.464 
52 1 15.331 8.508 2.464 
56 1 16.058 8.508 1.228 
19 1 10.098 9.739 2.464 
24 1 8.308 13.624 2.464 
27 1 8.833 12.282 2.464 
35 1 9.745 10.322 1.228 
43 1 9.106 11.623 1.228 
3 1 22.577 8.508 2.464 
7 1 21.775 8.508 1.228 
11 1 20.377 8.508 1.228 
20 1 23.447 7.277 2.464 
36 1 23.801 6.694 1.228 
44 1 24.439 5.393 1.228 
47 1 19.64 8.508 2.464 
51 1 18.214 8.508 2.464 
55 1 17.487 8.508 1.228 
17 1 23.447 9.739 2.464 
33 1 23.801 10.322 1.228 
41 1 24.439 11.623 1.228 
15 1 26.502 0.849 2.464 
23 1 25.237 3.392 2.464 
28 1 24.712 4.734 2.464 
31 1 26.149 1.432 1.228 
39 1 25.511 2.733 1.228 
2 1 27.373 17.398 2.464 
6 1 28.175 17.398 1.228 
10 1 29.572 17.398 1.228 
14 1 26.502 16.167 2.464 
22 1 25.237 13.624 2.464 
25 1 24.712 12.282 2.464 
30 1 26.149 15.584 1.228 
38 1 25.511 14.283 1.228 
46 1 30.31 17.398 2.464 
50 1 31.735 17.398 2.464 
54 1 32.462 17.398 1.228 
ITEM: TIMESTEP
10
ITEM: NUMBER OF ATOMS
57
ITEM: BOX BOUNDS pp pp pp
0.0000000000000000e+00 3.2808000000000000e+01
0.0000000000000000e+00 1.7780000000000001e+01
0.0000000000000000e+00 2.4729999999999999e+00
ITEM: ATOMS id type x y z 
13 1 7.1167 0.890563 2.46372 
29 1 7.5018 1.44619 1.22712 
37 1 7.99081 2.77041 1.24572 
57 2 6.81697 3.35878 1.23469 
1 1 6.18757 17.4225 2.46433 
5 1 5.36316 17.409 1.22748 
9 1 3.96451 17.3986 1.2276 
16 1 7.0811 16.2068 2.46442 
32 1 7.43557 15.579 1.22766 
40 1 8.04897 14.3239 1.22758 
45 1 3.23791 17.398 2.46443 
49 1 1.80416 17.398 2.46442 
53 1 1.08081 17.398 1.22757 
4 1 10.963 8.49207 2.46439 
8 1 11.7986 8.50608 1.22746 
12 1 13.1895 8.50822 1.22759 
18 1 10.0527 7.28943 2.46444 
21 1 8.58911 3.25601 2.49502 
26 1 8.80535 4.68344 2.46707 
34 1 9.6978 6.6644 1.22769 
42 1 9.07389 5.39789 1.2297 
48 1 13.9053 8.50803 2.46444 
52 1 15.3273 8.508 2.46442 
56 1 16.0541 8.508 1.22757 
19 1 10.0564 9.7149 2.46442 
24 1 8.31117 13.643 2.46439 
27 1 8.82922 12.2644 2.46439 
35 1 9.70374 10.3332 1.22767 
43 1 9.09194 11.5822 1.22758 
3 1 22.5742 8.508 2.46438 
7 1 21.7388 8.508 1.22748 
11 1 20.3453 8.508 1.2276 
20 1 23.4918 7.29604 2.46442 
36 1 23.8463 6.67617 1.22766 
44 1 24.4533 5.43358 1.22758 
47 1 19.6412 8.508 2.46443 
51 1 18.2202 8.508 2.46442 
55 1 17.4861 8.508 1.22757 
17 1 23.4918 9.71996 2.46442 
33 1 23.8463 10.3398 1.22766 
41 1 24.4533 11.5824 1.22758 
15 1 26.4574 0.829943 2.46442 
23 1 25.2343 3.37148 2.46439 
28 1 24.7145 4.75447 2.46439 
31 1 26.1041 1.44962 1.22766 
39 1 25.4968 2.69238 1.22759 
2 1 27.3738 17.398 2.46438 
6 1 28.2097 17.398 1.22748 
10 1 29.6037 17.398 1.2276 
14 1 26.4574 16.1861 2.46442 
22 1 25.2343 13.6445 2.46439 
25 1 24.7145 12.2615 2.46439 
30 1 26.1041 15.5664 1.22766 
38 1 25.4968 14.3236 1.22759 
46 1 30.3104 17.398 2.46443 
50 1 31.7345 17.398 2.46442 
54 1 32.4639 17.398 1.22757 
ITEM: TIMESTEP
20
ITEM: NUMBER OF ATOMS
57
ITEM: BOX BOUNDS pp pp pp
0.0000000000000000e+00 3.2808000000000000e+01
0.0000000000000000e+00 1.7780000000000001e+01
0.0000000000000000e+00 2.4729999999999999e+00
ITEM: ATOMS id type x y z 
13 1 7.12736 0.872077 2.46496 
29 1 7.52852 1.44132 1.229 
37 1 7.92181 2.85939 1.24903 
57 2 6.86778 3.34568 1.23688 
1 1 6.2096 17.4292 2.46413 
5 1 5.3785 17.4233 1.22773 
9 1 3.98547 17.3981 1.22779 
16 1 7.10906 16.1984 2.46424 
32 1 7.45225 15.5769 1.2278 
40 1 8.0565 14.3278 1.22778 
45 1 3.26552 17.3967 2.46421 
49 1 1.79761 17.3977 2.46422 
53 1 1.07215 17.398 1.22778 
4 1 10.9573 8.49348 2.46418 
8 1 11.7753 8.50218 1.22777 
12 1 13.1864 8.5088 1.22778 
18 1 10.0392 7.27979 2.46442 
21 1 8.61939 3.24314 2.48391 
26 1 8.81332 4.65538 2.4679 
34 1 9.68535 6.67549 1.22798 
42 1 9.03903 5.375 1.23106 
48 1 13.8993 8.50831 2.46422 
52 1 15.3011 8.50802 2.46422 
56 1 16.0413 8.50799 1.22778 
19 1 10.0434 9.71793 2.46424 
24 1 8.31485 13.649 2.46421 
27 1 8.82533 12.2587 2.46421 
35 1 9.69021 10.3299 1.2278 
43 1 9.08197 11.5812 1.22778 
3 1 22.5768 8.508 2.46418 
7 1 21.7604 8.508 1.22776 
11 1 20.3465 8.508 1.22778 
20 1 23.5017 7.29282 2.46424 
36 1 23.8594 6.68216 1.2278 
44 1 24.4634 5.43656 1.22778 
47 1 19.648 8.508 2.46422 
51 1 18.2498 8.508 2.46422 
55 1 17.4978 8.508 1.22778 
17 1 23.5017 9.72318 2.46424 
33 1 23.8594 10.3338 1.2278 
41 1 24.4634 11.5794 1.22778 
15 1 26.4455 0.834192 2.46424 
23 1 25.2294 3.36794 2.46421 
28 1 24.7189 4.75919 2.46421 
31 1 26.0893 1.44657 1.2278 
39 1 25.4865 2.68969 1.22778 
2 1 27.3621 17.398 2.46418 
6 1 28.1929 17.398 1.22776 
10 1 29.6016 17.398 1.22778 
14 1 26.4455 16.1818 2.46424 
22 1 25.2294 13.6481 2.46421 
25 1 24.7189 12.2568 2.46421 
30 1 26.0893 15.5694 1.2278 
38 1 25.4865 14.3263 1.22778 
46 1 30.2736 17.398 2.46422 
50 1 31.7114 17.398 2.46422 
54 1 32.484 17.398 1.22778 
ITEM: TIMESTEP
30
ITEM: NUMBER OF ATOMS
57
ITEM: BOX BOUNDS pp pp pp
0.0000000000000000e+00 3.2808000000000000e+01
0.0000000000000000e+00 1.7780000000000001e+01
0.0000000000000000e+00 2.4729999999999999e+00
ITEM: ATOMS id type x y z 
13 1 7.15356 0.856096 2.46664 
29 1 7.5609 1.42086 1.23061 
37 1 7.90433 2.91012 1.24373 
57 2 6.8639 3.38688 1.24 
1 1 6.22144 17.4398 2.46435 
5 1 5.3901 17.4395 1.22784 
9 1 3.99552 17.3988 1.22775 
16 1 7.12642 16.2099 2.46424 
32 1 7.46832 15.5929 1.22775 
40 1 8.07047 14.3312 1.22775 
45 1 3.26936 17.3932 2.46424 
49 1 1.79396 17.3969 2.46425 
53 1 1.06101 17.3981 1.22776 
4 1 10.9421 8.48085 2.46425 
8 1 11.7526 8.4926 1.22777 
12 1 13.1685 8.50964 1.22775 
18 1 10.0234 7.26611 2.46474 
21 1 8.63717 3.22749 2.47994 
26 1 8.83957 4.63674 2.46882 
34 1 9.65425 6.67104 1.22824 
42 1 9.00399 5.36672 1.23207 
48 1 13.9167 8.50934 2.46425 
52 1 15.304 8.50817 2.46425 
56 1 16.0409 8.50794 1.22775 
19 1 10.03 9.70793 2.46426 
24 1 8.32338 13.6508 2.46424 
27 1 8.81668 12.2562 2.46424 
35 1 9.67294 10.3183 1.22776 
43 1 9.06742 11.5745 1.22775 
3 1 22.5791 8.508 2.46422 
7 1 21.7716 8.508 1.22773 
11 1 20.3516 8.508 1.22775 
20 1 23.5115 7.29592 2.46426 
36 1 23.8794 6.69211 1.22777 
44 1 24.48 5.44519 1.22775 
47 1 19.6239 8.508 2.46425 
51 1 18.2462 8.508 2.46425 
55 1 17.5063 8.50798 1.22775 
17 1 23.5115 9.72008 2.46426 
33 1 23.8794 10.3239 1.22777 
41 1 24.48 11.5708 1.22775 
15 1 26.4288 0.833881 2.46426 
23 1 25.2197 3.36598 2.46424 
28 1 24.7261 4.7678 2.46424 
31 1 26.0644 1.44427 1.22777 
39 1 25.4696 2.68155 1.22775 
2 1 27.3493 17.398 2.46423 
6 1 28.184 17.398 1.22773 
10 1 29.592 17.398 1.22775 
14 1 26.4288 16.1821 2.46426 
22 1 25.2197 13.65 2.46424 
25 1 24.7261 12.2482 2.46424 
30 1 26.0644 15.5717 1.22777 
38 1 25.4696 14.3344 1.22775 
46 1 30.2963 17.398 2.46424 
50 1 31.7435 17.398 2.46425 
54 1 32.5027 17.3981 1.22775 
ITEM: TIMESTEP
40
ITEM: NUMBER OF ATOMS
57
ITEM: BOX BOUNDS pp pp pp
0.0000000000000000e+00 3.2808000000000000e+01
0.0000000000000000e+00 1.7780000000000001e+01
0.0000000000000000e+00 2.4729999999999999e+00
ITEM: ATOMS id type x y z 
13 1 7.17134 0.858424 2.4672 
29 1 7.57259 1.42449 1.2312 
37 1 7.90036 2.90825 1.24198 
57 2 6.86503 3.40543 1.24075 
1 1 6.22668 17.4455 2.46448 
5 1 5.39908 17.448 1.22797 
9 1 4.00437 17.3994 1.22775 
16 1 7.13102 16.2161 2.46423 
32 1 7.47746 15.5991 1.22774 
40 1 8.07726 14.3346 1.22774 
45 1 3.26511 17.3908 2.46426 
49 1 1.80391 17.3962 2.46425 
53 1 1.05874 17.3982 1.22775 
4 1 10.9337 8.47478 2.46429 
8 1 11.7357 8.48664 1.22779 
12 1 13.1588 8.51048 1.22775 
18 1 10.0137 7.25912 2.46489 
21 1 8.63444 3.21915 2.47858 
26 1 8.84985 4.62745 2.46908 
34 1 9.6378 6.66898 1.22841 
42 1 8.99009 5.36472 1.23241 
48 1 13.928 8.5102 2.46425 
52 1 15.3043 8.50835 2.46425 
56 1 16.0408 8.50787 1.22775 
19 1 10.0215 9.70396 2.46426 
24 1 8.32763 13.6518 2.46425 
27 1 8.81168 12.2561 2.46425 
35 1 9.66418 10.3124 1.22776 
43 1 9.05922 11.5722 1.22775 
3 1 22.5804 8.508 2.46423 
7 1 21.7771 8.508 1.22773 
11 1 20.3536 8.508 1.22775 
20 1 23.5161 7.29706 2.46426 
36 1 23.8903 6.69673 1.22776 
44 1 24.4899 5.44926 1.22775 
47 1 19.6167 8.508 2.46425 
51 1 18.2462 8.508 2.46425 
55 1 17.5085 8.50795 1.22775 
17 1 23.5161 9.71894 2.46426 
33 1 23.8903 10.3193 1.22776 
41 1 24.4899 11.5667 1.22775 
15 1 26.4241 0.830921 2.46426 
23 1 25.2144 3.36483 2.46425 
28 1 24.7325 4.76591 2.46425 
31 1 26.0552 1.43673 1.22776 
39 1 25.4581 2.68234 1.22775 
2 1 27.3476 17.398 2.46423 
6 1 28.1765 17.398 1.22773 
10 1 29.571 17.398 1.22775 
14 1 26.4241 16.1851 2.46426 
22 1 25.2144 13.6512 2.46425 
25 1 24.7325 12.2501 2.46425 
30 1 26.0552 15.5793 1.22776 
38 1 25.4581 14.3337 1.22775 
46 1 30.2973 17.398 2.46425 
50 1 31.7732 17.398 2.46425 
54 1 32.5046 17.3982 1.22775 
ITEM: TIMESTEP
50
ITEM: NUMBER OF ATOMS
57
ITEM: BOX BOUNDS pp pp pp
0.0000000000000000e+00 3.2808000000000000e+01
0.0000000000000000e+00 1.7780000000000001e+01
0.0000000000000000e+00 2.4729999999999999e+00
ITEM: ATOMS id type x y z 
13 1 7.22948 0.845539 2.46914 
29 1 7.61524 1.42259 1.23296 
37 1 7.88755 2.92488 1.23735 
57 2 6.87673 3.47278 1.24193 
1 1 6.24866 17.4694 2.46514 
5 1 5.42499 17.487 1.22857 
9 1 4.02995 17.4027 1.22781 
16 1 7.14816 16.2361 2.46421 
32 1 7.51388 15.6303 1.2277 
40 1 8.11079 14.3473 1.22774 
45 1 3.28716 17.379 2.46432 
49 1 1.83207 17.3919 2.46425 
53 1 1.08425 17.3987 1.22775 
4 1 10.9067 8.44643 2.46443 
8 1 11.7158 8.45954 1.22793 
12 1 13.1269 8.51393 1.22776 
18 1 9.97714 7.24036 2.46558 
21 1 8.63577 3.20181 2.47353 
26 1 8.88786 4.60757 2.46995 
34 1 9.57296 6.66925 1.22916 
42 1 8.94356 5.35705 1.23328 
48 1 13.8984 8.51526 2.46426 
52 1 15.2988 8.50953 2.46425 
56 1 16.0244 8.50736 1.22775 
19 1 9.99524 9.6752 2.46424 
24 1 8.34703 13.6554 2.46424 
27 1 8.7898 12.2535 2.46425 
35 1 9.63166 10.2761 1.22774 
43 1 9.02247 11.5617 1.22775 
3 1 22.5911 8.508 2.46425 
7 1 21.794 8.508 1.22775 
11 1 20.3695 8.508 1.22775 
20 1 23.5367 7.30074 2.46425 
36 1 23.9373 6.71972 1.22775 
44 1 24.538 5.46808 1.22775 
47 1 19.5982 8.50803 2.46425 
51 1 18.231 8.508 2.46425 
55 1 17.4902 8.50772 1.22775 
17 1 23.5367 9.71526 2.46425 
33 1 23.9373 10.2963 1.22775 
41 1 24.538 11.5479 1.22775 
15 1 26.4032 0.820909 2.46425 
23 1 25.1886 3.35935 2.46425 
28 1 24.7575 4.77515 2.46425 
31 1 26.0106 1.40777 1.22775 
39 1 25.4099 2.66847 1.22775 
2 1 27.3482 17.398 2.46425 
6 1 28.1695 17.398 1.22775 
10 1 29.5698 17.398 1.22775 
14 1 26.4032 16.1951 2.46425 
22 1 25.1886 13.6566 2.46425 
25 1 24.7575 12.2409 2.46425 
30 1 26.0106 15.6082 1.22775 
38 1 25.4099 14.3475 1.22775 
46 1 30.3084 17.3979 2.46425 
50 1 31.7688 17.3981 2.46425 
54 1 32.5123 17.3992 1.22775 
ITEM: TIMESTEP
60
ITEM: NUMBER OF ATOMS
57
ITEM: BOX BOUNDS pp pp pp
0.0000000000000000e+00 3.2808000000000000e+01
0.0000000000000000e+00 1.7780000000000001e+01
0.0000000000000000e+00 2.4729999999999999e+00
ITEM: ATOMS id type x y z 
13 1 7.29183 0.838782 2.46974 
29 1 7.63825 1.43279 1.23307 
37 1 7.89398 2.94377 1.2372 
57 2 6.89555 3.50069 1.238 
1 1 6.25499 17.4742 2.46593 
5 1 5.43487 17.5308 1.22927 
9 1 4.03949 17.4077 1.22804 
16 1 7.16328 16.2311 2.46428 
32 1 7.55303 15.6551 1.22775 
40 1 8.16099 14.3613 1.22773 
45 1 3.31017 17.3613 2.4645 
49 1 1.83482 17.3819 2.46427 
53 1 1.10948 17.399 1.22776 
4 1 10.8669 8.43316 2.4647 
8 1 11.6791 8.42598 1.22818 
12 1 13.0895 8.51957 1.22779 
18 1 9.92203 7.23323 2.46636 
21 1 8.67227 3.20707 2.47309 
26 1 8.90127 4.58938 2.46983 
34 1 9.4997 6.67523 1.22985 
42 1 8.89648 5.34488 1.23313 
48 1 13.8598 8.52881 2.46429 
52 1 15.2884 8.51272 2.46425 
56 1 16.0384 8.50586 1.22775 
19 1 9.95663 9.66136 2.46425 
24 1 8.37342 13.6556 2.46423 
27 1 8.76316 12.2461 2.46425 
35 1 9.58216 10.2595 1.22775 
43 1 8.97918 11.5393 1.22774 
3 1 22.5977 8.508 2.46425 
7 1 21.8186 8.50799 1.22775 
11 1 20.3681 8.50802 1.22775 
20 1 23.5483 7.31265 2.46425 
36 1 23.9881 6.75021 1.22775 
44 1 24.6119 5.48051 1.22775 
47 1 19.6194 8.50816 2.46425 
51 1 18.2421 8.50799 2.46425 
55 1 17.485 8.50677 1.22775 
17 1 23.5483 9.70335 2.46425 
33 1 23.9881 10.2658 1.22775 
41 1 24.6119 11.5355 1.22775 
15 1 26.4038 0.809859 2.46425 
23 1 25.1532 3.34498 2.46425 
28 1 24.7996 4.77403 2.46425 
31 1 25.9628 1.37614 1.22775 
39 1 25.3485 2.63963 1.22775 
2 1 27.3438 17.398 2.46425 
6 1 28.1853 17.398 1.22775 
10 1 29.5633 17.3979 1.22775 
14 1 26.4038 16.2061 2.46425 
22 1 25.1532 13.671 2.46425 
25 1 24.7996 12.242 2.46425 
30 1 25.9628 15.6399 1.22775 
38 1 25.3485 14.3764 1.22775 
46 1 30.3031 17.3977 2.46425 
50 1 31.768 17.3986 2.46425 
54 1 32.5018 17.4018 1.22775 
ITEM: TIMESTEP
70
ITEM: NUMBER OF ATOMS
57
ITEM: BOX BOUNDS pp pp pp
0.0000000000000000e+00 3.2808000000000000e+01
0.0000000000000000e+00 1.7780000000000001e+01
0.0000000000000000e+00 2.4729999999999999e+00
ITEM: ATOMS id type x y z 
13 1 7.28953 0.831063 2.46961 
29 1 7.63561 1.4336 1.23332 
37 1 7.90424 2.93602 1.23676 
57 2 6.90081 3.50218 1.23781 
1 1 6.26141 17.4823 2.46597 
5 1 5.44278 17.5346 1.22935 
9 1 4.04743 17.409 1.22807 
16 1 7.15655 16.2425 2.46431 
32 1 7.554 15.6643 1.22778 
40 1 8.1717 14.3615 1.22773 
45 1 3.30718 17.3592 2.46456 
49 1 1.85011 17.3796 2.46428 
53 1 1.10863 17.3988 1.22777 
4 1 10.8709 8.42745 2.46474 
8 1 11.6928 8.425 1.22821 
12 1 13.0891 8.51737 1.22781 
18 1 9.91809 7.23819 2.46639 
21 1 8.66443 3.19407 2.47309 
26 1 8.90334 4.59827 2.46979 
34 1 9.4939 6.67964 1.22995 
42 1 8.89436 5.35227 1.23316 
48 1 13.8447 8.53072 2.4643 
52 1 15.288 8.51368 2.46425 
56 1 16.0233 8.50592 1.22775 
19 1 9.95777 9.65394 2.46426 
24 1 8.37879 13.6529 2.46423 
27 1 8.7578 12.2478 2.46425 
35 1 9.58178 10.2458 1.22775 
43 1 8.9705 11.5378 1.22775 
3 1 22.6044 8.508 2.46425 
7 1 21.8062 8.50799 1.22775 
11 1 20.3829 8.50803 1.22775 
20 1 23.5544 7.30875 2.46425 
36 1 23.9933 6.75531 1.22775 
44 1 24.6226 5.4834 1.22775 
47 1 19.615 8.50822 2.46425 
51 1 18.225 8.50794 2.46425 
55 1 17.4773 8.50645 1.22775 
17 1 23.5544 9.70725 2.46425 
33 1 23.9933 10.2607 1.22775 
41 1 24.6226 11.5326 1.22775 
15 1 26.3996 0.813857 2.46425 
23 1 25.1461 3.34515 2.46425 
28 1 24.8067 4.77459 2.46425 
31 1 25.9587 1.36985 1.22775 
39 1 25.3372 2.63714 1.22775 
2 1 27.3463 17.398 2.46425 
6 1 28.1735 17.398 1.22775 
10 1 29.5668 17.3979 1.22775 
14 1 26.3996 16.2021 2.46425 
22 1 25.1461 13.6708 2.46425 
25 1 24.8067 12.2414 2.46425 
30 1 25.9587 15.6462 1.22775 
38 1 25.3372 14.3789 1.22775 
46 1 30.3091 17.3976 2.46425 
50 1 31.7672 17.3988 2.46425 
54 1 32.5078 17.4025 1.22775 
ITEM: TIMESTEP
80
ITEM: NUMBER OF ATOMS
57
ITEM: BOX BOUNDS pp pp pp
0.0000000000000000e+00 3.2808000000000000e+01
0.0000000000000000e+00 1.7780000000000001e+01
0.0000000000000000e+00 2.4729999999999999e+00
ITEM: ATOMS id type x y z 
13 1 7.30102 0.829629 2.46974 
29 1 7.64103 1.43574 1.23339 
37 1 7.90977 2.9374 1.23632 
57 2 6.91128 3.50488 1.23753 
1 1 6.26302 17.4899 2.46606 
5 1 5.44464 17.5467 1.22945 
9 1 4.05168 17.4101 1.22815 
16 1 7.15253 16.2445 2.46437 
32 1 7.5612 15.676 1.22783 
40 1 8.19587 14.3655 1.22774 
45 1 3.31025 17.3534 2.46465 
49 1 1.85376 17.3747 2.46429 
53 1 1.1126 17.3981 1.22779 
4 1 10.8665 8.41536 2.46481 
8 1 11.6931 8.41618 1.22829 
12 1 13.083 8.51561 1.22783 
18 1 9.90531 7.23971 2.4665 
21 1 8.67495 3.19317 2.47263 
26 1 8.90383 4.59847 2.46978 
34 1 9.47228 6.68264 1.23006 
42 1 8.88182 5.3527 1.23317 
48 1 13.8383 8.53826 2.46434 
52 1 15.2821 8.51617 2.46426 
56 1 16.0108 8.50528 1.22776 
19 1 9.95657 9.64389 2.46428 
24 1 8.39046 13.6491 2.46424 
27 1 8.7446 12.2559 2.46425 
35 1 9.57172 10.2302 1.22777 
43 1 8.94695 11.5351 1.22775 
3 1 22.6186 8.508 2.46425 
7 1 21.7987 8.50798 1.22775 
11 1 20.3998 8.50807 1.22775 
20 1 23.5613 7.30854 2.46425 
36 1 24.0076 6.75875 1.22775 
44 1 24.6466 5.49063 1.22775 
47 1 19.6338 8.50839 2.46425 
51 1 18.2041 8.50782 2.46425 
55 1 17.4702 8.50548 1.22775 
17 1 23.5613 9.70746 2.46425 
33 1 24.0076 10.2572 1.22775 
41 1 24.6466 11.5254 1.22775 
15 1 26.3964 0.812369 2.46425 
23 1 25.1308 3.34383 2.46425 
28 1 24.8221 4.77624 2.46425 
31 1 25.9492 1.36087 1.22775 
39 1 25.3118 2.63119 1.22775 
2 1 27.3465 17.398 2.46425 
6 1 28.172 17.398 1.22775 
10 1 29.5666 17.3977 1.22775 
14 1 26.3964 16.2036 2.46425 
22 1 25.1308 13.6722 2.46425 
25 1 24.8221 12.2398 2.46425 
30 1 25.9492 15.6551 1.22775 
38 1 25.3118 14.3848 1.22775 
46 1 30.3105 17.3974 2.46425 
50 1 31.7665 17.3995 2.46425 
54 1 32.5082 17.4041 1.22775 
ITEM: TIMESTEP
90
ITEM: NUMBER OF ATOMS
57
ITEM: BOX BOUNDS pp pp pp
0.0000000000000000e+00 3.2808000000000000e+01
0.0000000000000000e+00 1.7780000000000001e+01
0.0000000000000000e+00 2.4729999999999999e+00
ITEM: ATOMS id type x y z 
13 1 7.30941 0.824451 2.46975 
29 1 7.64517 1.43636 1.23347 
37 1 7.91956 2.93491 1.2359 
57 2 6.92099 3.50819 1.23721 
1 1 6.26911 17.4893 2.46613 
5 1 5.45061 17.5568 1.22955 
9 1 4.059 17.4115 1.22824 
16 1 7.15073 16.2438 2.46442 
32 1 7.56911 15.6774 1.22789 
40 1 8.21332 14.3781 1.22775 
45 1 3.31398 17.3477 2.46474 
49 1 1.86315 17.3693 2.46431 
53 1 1.11854 17.3973 1.22781 
4 1 10.8577 8.41257 2.46488 
8 1 11.6866 8.40612 1.22836 
12 1 13.0748 8.51513 1.22787 
18 1 9.88979 7.23951 2.46659 
21 1 8.68284 3.18956 2.47233 
26 1 8.90396 4.60002 2.46976 
34 1 9.44979 6.68604 1.23018 
42 1 8.86811 5.35237 1.23314 
48 1 13.8286 8.54626 2.46437 
52 1 15.276 8.51933 2.46426 
56 1 16.0145 8.50432 1.22776 
19 1 9.9505 9.64409 2.46429 
24 1 8.40034 13.6553 2.46425 
27 1 8.73491 12.2519 2.46425 
35 1 9.56037 10.2222 1.22778 
43 1 8.92501 11.5334 1.22775 
3 1 22.6228 8.50799 2.46425 
7 1 21.7906 8.50796 1.22775 
11 1 20.4043 8.50815 1.22775 
20 1 23.5682 7.3089 2.46425 
36 1 24.0189 6.76751 1.22775 
44 1 24.6735 5.49732 1.22775 
47 1 19.6555 8.5086 2.46425 
51 1 18.2012 8.50762 2.46425 
55 1 17.4666 8.50426 1.22775 
17 1 23.5682 9.7071 2.46425 
33 1 24.0189 10.2485 1.22775 
41 1 24.6735 11.5187 1.22775 
15 1 26.3936 0.811827 2.46425 
23 1 25.1139 3.34422 2.46425 
28 1 24.8396 4.77527 2.46425 
31 1 25.9393 1.35077 1.22775 
39 1 25.2841 2.62407 1.22775 
2 1 27.3467 17.398 2.46425 
6 1 28.1684 17.398 1.22775 
10 1 29.5668 17.3976 1.22775 
14 1 26.3936 16.2042 2.46425 
22 1 25.1139 13.6718 2.46425 
25 1 24.8396 12.2407 2.46425 
30 1 25.9394 15.6653 1.22775 
38 1 25.2841 14.3919 1.22775 
46 1 30.3119 17.3972 2.46425 
50 1 31.7658 17.4005 2.46425 
54 1 32.5082 17.4059 1.22776 
ITEM: TIMESTEP
100
ITEM: NUMBER OF ATOMS
57
ITEM: BOX BOUNDS pp pp pp
0.0000000000000000e+00 3.2808000000000000e+01
0.0000000000000000e+00 1.7780000000000001e+01
0.0000000000000000e+00 2.4729999999999999e+00
ITEM: ATOMS id type x y z 
13 1 7.31617 0.824041 2.46978 
29 1 7.64675 1.43452 1.23344 
37 1 7.92626 2.93474 1.23577 
57 2 6.92822 3.50912 1.237 
1 1 6.27337 17.4868 2.46619 
5 1 5.4558 17.5612 1.22959 
9 1 4.06517 17.4125 1.22829 
16 1 7.15251 16.2392 2.46446 
32 1 7.57314 15.6764 1.22792 
40 1 8.22384 14.3758 1.22776 
45 1 3.3194 17.3441 2.46478 
49 1 1.86967 17.3656 2.46433 
53 1 1.12744 17.3967 1.22782 
4 1 10.8569 8.41241 2.46492 
8 1 11.6808 8.404 1.22839 
12 1 13.0729 8.51416 1.2279 
18 1 9.88335 7.24485 2.46664 
21 1 8.68656 3.19305 2.47213 
26 1 8.90208 4.60435 2.46974 
34 1 9.44419 6.69264 1.23023 
42 1 8.86695 5.356 1.23312 
48 1 13.8278 8.54835 2.46439 
52 1 15.2709 8.52161 2.46427 
56 1 16.0108 8.50454 1.22777 
19 1 9.94909 9.64335 2.46431 
24 1 8.40738 13.6562 2.46426 
27 1 8.72993 12.247 2.46425 
35 1 9.55566 10.2212 1.22779 
43 1 8.91953 11.5279 1.22775 
3 1 22.6153 8.50798 2.46425 
7 1 21.7952 8.50794 1.22775 
11 1 20.3971 8.50823 1.22775 
20 1 23.5671 7.31331 2.46425 
36 1 24.0235 6.78042 1.22775 
44 1 24.6967 5.50192 1.22775 
47 1 19.6405 8.50873 2.46425 
51 1 18.1992 8.50733 2.46425 
55 1 17.4606 8.50347 1.22775 
17 1 23.567 9.70268 2.46425 
33 1 24.0234 10.2356 1.22775 
41 1 24.6967 11.5141 1.22775 
15 1 26.3943 0.809967 2.46425 
23 1 25.1011 3.3532 2.46425 
28 1 24.8524 4.76672 2.46425 
31 1 25.9335 1.3397 1.22775 
39 1 25.2601 2.61955 1.22775 
2 1 27.3483 17.398 2.46425 
6 1 28.172 17.398 1.22775 
10 1 29.567 17.3974 1.22775 
14 1 26.3944 16.206 2.46425 
22 1 25.1011 13.6628 2.46425 
25 1 24.8524 12.2493 2.46425 
30 1 25.9335 15.6763 1.22775 
38 1 25.26 14.3964 1.22775 
46 1 30.3123 17.3971 2.46425 
50 1 31.7657 17.4012 2.46426 
54 1 32.505 17.4072 1.22776 
ITEM: TIMESTEP
110
ITEM: NUMBER OF ATOMS
57
ITEM: BOX BOUNDS pp pp pp
0.0000000000000000e+00 3.2808000000000000e+01
0.0000000000000000e+00 1.7780000000000001e+01
0.0000000000000000e+00 2.4729999999999999e+00
ITEM: ATOMS id type x y z 
13 1 7.32947 0.820423 2.46975 
29 1 7.65345 1.43578 1.2334 
37 1 7.93629 2.93407 1.23544 
57 2 6.94155 3.51101 1.2366 
1 1 6.28526 17.4847 2.46628 
5 1 5.46871 17.5703 1.2297 
9 1 4.07928 17.4144 1.22839 
16 1 7.15563 16.2314 2.46454 
32 1 7.58282 15.6723 1.228 
40 1 8.24363 14.3804 1.22778 
45 1 3.3286 17.3357 2.46488 
49 1 1.88312 17.3578 2.46436 
53 1 1.14352 17.3956 1.22786 
4 1 10.8499 8.41182 2.46499 
8 1 11.6758 8.39691 1.22846 
12 1 13.0669 8.51346 1.22794 
18 1 9.86808 7.25203 2.46674 
21 1 8.69726 3.19405 2.47183 
26 1 8.89919 4.60712 2.46969 
34 1 9.42438 6.70061 1.23032 
42 1 8.85718 5.35865 1.23308 
48 1 13.8207 8.55445 2.46443 
52 1 15.2649 8.52619 2.46428 
56 1 16.0061 8.50468 1.22778 
19 1 9.94444 9.64528 2.46433 
24 1 8.42225 13.6556 2.46427 
27 1 8.71813 12.2447 2.46426 
35 1 9.54377 10.2181 1.22782 
43 1 8.90082 11.5229 1.22776 
3 1 22.6175 8.50799 2.46425 
7 1 21.7902 8.50794 1.22775 
11 1 20.396 8.50844 1.22775 
20 1 23.5704 7.31653 2.46425 
36 1 24.0363 6.78774 1.22775 
44 1 24.736 5.50705 1.22775 
47 1 19.6423 8.50901 2.46425 
51 1 18.1948 8.50668 2.46425 
55 1 17.4555 8.50167 1.22775 
17 1 23.5703 9.69949 2.46425 
33 1 24.0363 10.2283 1.22775 
41 1 24.736 11.509 1.22775 
15 1 26.3896 0.810683 2.46425 
23 1 25.0815 3.34421 2.46425 
28 1 24.8715 4.77839 2.46425 
31 1 25.9179 1.33569 1.22775 
39 1 25.2184 2.61505 1.22775 
2 1 27.3394 17.398 2.46425 
6 1 28.1653 17.398 1.22775 
10 1 29.5619 17.397 1.22775 
14 1 26.3896 16.2053 2.46425 
22 1 25.0815 13.6718 2.46425 
25 1 24.8715 12.2376 2.46425 
30 1 25.9179 15.6803 1.22775 
38 1 25.2184 14.4009 1.22775 
46 1 30.3163 17.3967 2.46425 
50 1 31.7618 17.4028 2.46426 
54 1 32.5026 17.4102 1.22776 
ITEM: TIMESTEP
120
ITEM: NUMBER OF ATOMS
57
ITEM: BOX BOUNDS pp pp pp
0.0000000000000000e+00 3.2808000000000000e+01
0.0000000000000000e+00 1.7780000000000001e+01
0.0000000000000000e+00 2.4729999999999999e+00
ITEM: ATOMS id type x y z 
13 1 7.33525 0.81946 2.46973 
29 1 7.65481 1.43187 1.23336 
37 1 7.94408 2.93319 1.23531 
57 2 6.94785 3.51211 1.2364 
1 1 6.28244 17.4839 2.46633 
5 1 5.47264 17.5702 1.22972 
9 1 4.07506 17.4142 1.22846 
16 1 7.15667 16.23 2.46458 
32 1 7.58394 15.6742 1.22803 
40 1 8.25481 14.3784 1.22779 
45 1 3.32489 17.3353 2.46491 
49 1 1.88087 17.3553 2.46439 
53 1 1.13685 17.3932 1.22787 
4 1 10.8531 8.41188 2.46503 
8 1 11.6707 8.39538 1.22849 
12 1 13.0695 8.51316 1.22797 
18 1 9.86092 7.25646 2.46678 
21 1 8.70051 3.1959 2.47168 
26 1 8.897 4.60973 2.46966 
34 1 9.41711 6.70631 1.23038 
42 1 8.85496 5.3615 1.23305 
48 1 13.8247 8.55555 2.46445 
52 1 15.2668 8.52834 2.46429 
56 1 16.011 8.50578 1.22778 
19 1 9.94379 9.64484 2.46435 
24 1 8.42905 13.659 2.46429 
27 1 8.71312 12.2399 2.46426 
35 1 9.53981 10.2157 1.22783 
43 1 8.89271 11.5191 1.22776 
3 1 22.6215 8.50797 2.46425 
7 1 21.8075 8.50796 1.22775 
11 1 20.401 8.50858 1.22775 
20 1 23.5787 7.31758 2.46425 
36 1 24.0351 6.78294 1.22775 
44 1 24.7327 5.50677 1.22775 
47 1 19.6345 8.50905 2.46425 
51 1 18.2048 8.50604 2.46425 
55 1 17.4546 8.50101 1.22775 
17 1 23.5786 9.69843 2.46425 
33 1 24.0351 10.2331 1.22775 
41 1 24.7327 11.5092 1.22775 
15 1 26.3795 0.809732 2.46425 
23 1 25.0726 3.34476 2.46425 
28 1 24.8806 4.77785 2.46425 
31 1 25.9201 1.33987 1.22775 
39 1 25.2191 2.61889 1.22775 
2 1 27.3361 17.398 2.46425 
6 1 28.1546 17.3979 1.22775 
10 1 29.5572 17.3968 1.22775 
14 1 26.3795 16.2063 2.46425 
22 1 25.0726 13.6713 2.46425 
25 1 24.8806 12.2381 2.46425 
30 1 25.9202 15.6761 1.22775 
38 1 25.2191 14.3971 1.22775 
46 1 30.3179 17.3969 2.46425 
50 1 31.7535 17.404 2.46427 
54 1 32.503 17.4109 1.22777 
ITEM: TIMESTEP
130
ITEM: NUMBER OF ATOMS
57
ITEM: BOX BOUNDS pp pp pp
0.0000000000000000e+00 3.2808000000000000e+01
0.0000000000000000e+00 1.7780000000000001e+01
0.0000000000000000e+00 2.4729999999999999e+00
ITEM: ATOMS id type x y z 
13 1 7.33525 0.819457 2.46973 
29 1 7.65481 1.43186 1.23336 
37 1 7.94406 2.93318 1.23531 
57 2 6.94785 3.51212 1.2364 
1 1 6.28245 17.4839 2.46633 
5 1 5.47263 17.5702 1.22972 
9 1 4.07507 17.4142 1.22846 
16 1 7.15667 16.23 2.46458 
32 1 7.58394 15.6742 1.22803 
40 1 8.25481 14.3784 1.22779 
45 1 3.32489 17.3353 2.46491 
49 1 1.88087 17.3553 2.46439 
53 1 1.13685 17.3932 1.22787 
4 1 10.853 8.41187 2.46503 
8 1 11.6707 8.39538 1.22849 
12 1 13.0695 8.51316 1.22797 
18 1 9.86092 7.25646 2.46678 
21 1 8.70054 3.19589 2.47168 
26 1 8.897 4.60975 2.46966 
34 1 9.4171 6.70631 1.23038 
42 1 8.85497 5.36151 1.23305 
48 1 13.8247 8.55555 2.46445 
52 1 15.2668 8.52835 2.46429 
56 1 16.011 8.50578 1.22778 
19 1 9.94379 9.64484 2.46435 
24 1 8.42905 13.659 2.46429 
27 1 8.71312 12.2399 2.46426 
35 1 9.53981 10.2157 1.22783 
43 1 8.8927 11.5191 1.22776 
3 1 22.6215 8.50797 2.46425 
7 1 21.8075 8.50796 1.22775 
11 1 20.401 8.50858 1.22775 
20 1 23.5787 7.31758 2.46425 
36 1 24.0351 6.78294 1.22775 
44 1 24.7327 5.50677 1.22775 
47 1 19.6345 8.50905 2.46425 
51 1 18.2048 8.50604 2.46425 
55 1 17.4546 8.50101 1.22775 
17 1 23.5786 9.69844 2.46425 
33 1 24.0351 10.2331 1.22775 
41 1 24.7327 11.5092 1.22775 
15 1 26.3795 0.809732 2.46425 
23 1 25.0726 3.34477 2.46425 
28 1 24.8806 4.77785 2.46425 
31 1 25.9201 1.33987 1.22775 
39 1 25.2191 2.61888 1.22775 
2 1 27.3361 17.398 2.46425 
6 1 28.1546 17.3979 1.22775 
10 1 29.5572 17.3968 1.22775 
14 1 26.3795 16.2063 2.46425 
22 1 25.0726 13.6712 2.46425 
25 1 24.8806 12.2381 2.46425 
30 1 25.9202 15.6761 1.22775 
38 1 25.2191 14.3971 1.22775 
46 1 30.3179 17.3969 2.46425 
50 1 31.7535 17.404 2.46427 
54 1 32.503 17.4109 1.22777 
ITEM: TIMESTEP
133
ITEM: NUMBER OF ATOMS
57
ITEM: BOX BOUNDS pp pp pp
0.0000000000000000e+00 3.2808000000000000e+01
0.0000000000000000e+00 1.7780000000000001e+01
0.0000000000000000e+00 2.4729999999999999e+00
ITEM: ATOMS id type x y z 
13 1 7.33525 0.819457 2.46973 
29 1 7.65481 1.43186 1.23336 
37 1 7.94406 2.93318 1.23531 
57 2 6.94785 3.51212 1.2364 
1 1 6.28245 17.4839 2.46633 
5 1 5.47263 17.5702 1.22972 
9 1 4.07507 17.4142 1.22846 
16 1 7.15667 16.23 2.46458 
32 1 7.58394 15.6742 1.22803 
40 1 8.25481 14.3784 1.22779 
45 1 3.32489 17.3353 2.46491 
49 1 1.88087 17.3553 2.46439 
53 1 1.13685 17.3932 1.22787 
4 1 10.853 8.41187 2.46503 
8 1 11.6707 8.39538 1.22849 
12 1 13.0695 8.51316 1.22797 
18 1 9.86092 7.25646 2.46678 
21 1 8.70054 3.19589 2.47168 
26 1 8.897 4.60976 2.46966 
34 1 9.4171 6.70631 1.23038 
42 1 8.85497 5.36151 1.23305 
48 1 13.8247 8.55555 2.46445 
52 1 15.2668 8.52835 2.46429 
56 1 16.011 8.50578 1.22778 
19 1 9.94379 9.64484 2.46435 
24 1 8.42905 13.659 2.46429 
27 1 8.71312 12.2399 2.46426 
35 1 9.53981 10.2157 1.22783 
43 1 8.8927 11.5191 1.22776 
3 1 22.6215 8.50797 2.46425 
7 1 21.8075 8.50796 1.22775 
11 1 20.401 8.50858 1.22775 
20 1 23.5787 7.31758 2.46425 
36 1 24.0351 6.78294 1.22775 
44 1 24.7327 5.50677 1.22775 
47 1 19.6345 8.50905 2.46425 
51 1 18.2048 8.50604 2.46425 
55 1 17.4546 8.50101 1.22775 
17 1 23.5786 9.69844 2.46425 
33 1 24.0351 10.2331 1.22775 
41 1 24.7327 11.5092 1.22775 
15 1 26.3795 0.809731 2.46425 
23 1 25.0726 3.34477 2.46425 
28 1 24.8806 4.77785 2.46425 
31 1 25.9201 1.33987 1.22775 
39 1 25.2191 2.61888 1.22775 
2 1 27.3361 17.398 2.46425 
6 1 28.1546 17.3979 1.22775 
10 1 29.5572 17.3968 1.22775 
14 1 26.3795 16.2063 2.46425 
22 1 25.0726 13.6712 2.46425 
25 1 24.8806 12.2381 2.46425 
30 1 25.9202 15.6761 1.22775 
38 1 25.2191 14.3971 1.22775 
46 1 30.3179 17.3969 2.46425 
50 1 31.7535 17.404 2.46427 
54 1 32.503 17.4109 1.22777 
ITEM: TIMESTEP
134
ITEM: NUMBER OF ATOMS
57
ITEM: BOX BOUNDS pp pp pp
0.0000000000000000e+00 3.2808000000000000e+01
0.0000000000000000e+00 1.7780000000000001e+01
0.0000000000000000e+00 2.4729999999999999e+00
ITEM: ATOMS id type x y z 
13 1 7.33525 0.819457 2.46973 
29 1 7.65481 1.43186 1.23336 
37 1 7.94406 2.93318 1.23531 
57 2 6.94785 3.51212 1.2364 
1 1 6.28245 17.4839 2.46633 
5 1 5.47263 17.5702 1.22972 
9 1 4.07507 17.4142 1.22846 
16 1 7.15667 16.23 2.46458 
32 1 7.58394 15.6742 1.22803 
53 1 1.13685 17.3932 1.22787 
45 1 3.32489 17.3353 2.46491 
49 1 1.88087 17.3553 2.46439 
4 1 10.853 8.41187 2.46503 
8 1 11.6707 8.39538 1.22849 
12 1 13.0695 8.51316 1.22797 
18 1 9.86092 7.25646 2.46678 
21 1 8.70054 3.19589 2.47168 
26 1 8.897 4.60976 2.46966 
34 1 9.4171 6.70631 1.23038 
42 1 8.85497 5.36151 1.23305 
48 1 13.8247 8.55555 2.46445 
52 1 15.2668 8.52835 2.46429 
56 1 16.011 8.50578 1.22778 
19 1 9.94379 9.64484 2.46435 
24 1 8.42905 13.659 2.46429 
27 1 8.71312 12.2399 2.46426 
35 1 9.53981 10.2157 1.22783 
43 1 8.8927 11.5191 1.22776 
40 1 8.25481 14.3784 1.22779 
3 1 22.6215 8.50797 2.46425 
7 1 21.8075 8.50796 1.22775 
11 1 20.401 8.50858 1.22775 
20 1 23.5787 7.31758 2.46425 
36 1 24.0351 6.78294 1.22775 
55 1 17.4546 8.50101 1.22775 
47 1 19.6345 8.50905 2.46425 
51 1 18.2048 8.50604 2.46425 
17 1 23.5786 9.69844 2.46425 
33 1 24.0351 10.2331 1.22775 
15 1 26.3795 0.809731 2.46425 
23 1 25.0726 3.34477 2.46425 
28 1 24.8806 4.77785 2.46425 
31 1 25.9201 1.33987 1.22775 