ITEM: TIMESTEP
0
ITEM: NUMBER OF ATOMS
49
ITEM: BOX BOUNDS pp pp pp
0.0000000000000000e+00 1.1000000000000000e+01
0.0000000000000000e+00 1.1002000000000001e+01
0.0000000000000000e+00 1.1000000000000000e+01
ITEM: ATOMS id type x y z 
10 1 4.603 4.603 4.603 
11 1 3.085 3.085 3.085 
12 1 3.796 3.796 3.796 
46 1 0.726 0.725 0.725 
47 1 2.26 2.259 2.26 
48 1 1.551 1.55 1.55 
19 1 4.546 4.545 6.226 
20 1 3.013 3.013 7.764 
21 1 3.721 3.721 7.053 
31 1 0.668 0.667 10.103 
32 1 2.187 2.187 8.589 
33 1 1.476 1.475 9.298 
16 1 4.546 6.225 4.546 
17 1 3.013 7.765 3.013 
18 1 3.721 7.053 3.722 
25 1 0.668 10.103 0.668 
26 1 2.188 8.589 2.188 
27 1 1.476 9.298 1.476 
4 1 4.608 6.169 6.169 
5 1 3.086 7.684 7.684 
6 1 3.799 6.974 6.974 
37 1 0.729 10.046 10.046 
38 1 2.259 8.509 8.508 
39 1 1.552 9.219 9.219 
13 1 6.225 4.546 4.546 
14 1 7.764 3.013 3.013 
15 1 7.053 3.721 3.722 
28 1 10.102 0.667 0.668 
29 1 8.589 2.187 2.188 
30 1 9.298 1.475 1.476 
1 1 6.168 4.608 6.169 
2 1 7.684 3.086 7.684 
3 1 6.974 3.799 6.974 
40 1 10.045 0.728 10.046 
41 1 8.508 2.259 8.508 
42 1 9.218 1.551 9.218 
7 1 6.169 6.169 4.608 
8 1 7.684 7.684 3.086 
9 1 6.974 6.974 3.799 
43 1 10.046 10.047 0.729 
44 1 8.508 8.509 2.259 
45 1 9.219 9.219 1.552 
22 1 6.229 6.229 6.229 
23 1 7.764 7.765 7.765 
24 1 7.055 7.056 7.055 
34 1 10.108 10.108 10.107 
35 1 8.59 8.59 8.59 
36 1 9.301 9.301 9.3 
49 2 10.101 9.201 10.723 
ITEM: TIMESTEP
10
ITEM: NUMBER OF ATOMS
49
ITEM: BOX BOUNDS pp pp pp
0.0000000000000000e+00 1.1000000000000000e+01
0.0000000000000000e+00 1.1002000000000001e+01
0.0000000000000000e+00 1.1000000000000000e+01
ITEM: ATOMS id type x y z 
10 1 4.59776 4.59557 4.59875 
11 1 3.08272 3.07954 3.08341 
12 1 3.78617 3.79209 3.78477 
46 1 0.726139 0.725254 0.732263 
47 1 2.26691 2.26731 2.26551 
48 1 1.5626 1.55916 1.56442 
19 1 4.53905 4.53686 6.2329 
20 1 3.00578 3.00391 7.7724 
21 1 3.70645 3.70967 7.06551 
31 1 0.669628 0.672403 10.09 
32 1 2.19248 2.18862 8.58324 
33 1 1.48167 1.48866 9.29258 
16 1 4.53799 6.23283 4.53903 
17 1 3.00409 7.77422 3.00565 
18 1 3.70941 7.06383 3.70752 
25 1 0.711295 10.0968 0.676191 
26 1 2.19205 8.57938 2.19459 
27 1 1.48977 9.29432 1.48546 
4 1 4.597 6.17366 6.176 
5 1 3.08388 7.68688 7.68973 
6 1 3.78877 6.98246 6.97708 
37 1 0.784374 10.0533 10.0393 
38 1 2.26767 8.49642 8.49672 
39 1 1.56916 9.20955 9.20755 
13 1 6.23317 4.53829 4.53889 
14 1 7.77359 3.00447 3.00571 
15 1 7.06371 3.70824 3.7073 
28 1 10.0909 0.702741 0.663778 
29 1 8.58269 2.19013 2.19722 
30 1 9.2888 1.48992 1.47976 
1 1 6.17404 4.59764 6.17597 
2 1 7.68868 3.08394 7.68975 
3 1 6.98153 3.7861 6.97962 
40 1 10.0412 0.76854 10.0528 
41 1 8.50157 2.26259 8.5004 
42 1 9.2094 1.56589 9.2114 
7 1 6.17297 6.1727 4.59981 
8 1 7.68193 7.68084 3.09162 
9 1 6.97315 6.97488 3.79299 
43 1 10.0354 10.0259 0.783259 
44 1 8.49521 8.49912 2.26859 
45 1 9.20781 9.21059 1.57621 
22 1 6.23574 6.2366 6.23464 
23 1 7.77053 7.77185 7.77029 
24 1 7.06337 7.06233 7.06551 
34 1 10.0859 10.0934 10.0283 
35 1 8.56745 8.56819 8.56803 
36 1 9.26867 9.308 9.2397 
49 2 10.1128 9.18632 10.7968 
ITEM: TIMESTEP
20
ITEM: NUMBER OF ATOMS
49
ITEM: BOX BOUNDS pp pp pp
0.0000000000000000e+00 1.1000000000000000e+01
0.0000000000000000e+00 1.1002000000000001e+01
0.0000000000000000e+00 1.1000000000000000e+01
ITEM: ATOMS id type x y z 
10 1 4.58972 4.58429 4.59838 
11 1 3.07773 3.07012 3.07675 
12 1 3.78494 3.795 3.78471 
46 1 0.727976 0.732658 0.747761 
47 1 2.27343 2.27775 2.27067 
48 1 1.56499 1.56022 1.57293 
19 1 4.5345 4.52963 6.23167 
20 1 2.9993 2.99519 7.78263 
21 1 3.69935 3.70416 7.07101 
31 1 0.673227 0.681883 10.0804 
32 1 2.19806 2.19492 8.57335 
33 1 1.48324 1.49739 9.29164 
16 1 4.52337 6.23118 4.53878 
17 1 3.00431 7.77192 3.011 
18 1 3.70861 7.05767 3.70833 
25 1 0.778577 10.1147 0.65847 
26 1 2.18543 8.56478 2.19839 
27 1 1.52478 9.31315 1.48647 
4 1 4.57165 6.16879 6.17978 
5 1 3.08252 7.68449 7.69138 
6 1 3.7846 6.97839 6.97323 
37 1 0.833014 10.0747 10.0406 
38 1 2.26536 8.48127 8.48267 
39 1 1.61231 9.22046 9.20884 
13 1 6.22956 4.52378 4.53852 
14 1 7.77628 3.00233 3.00755 
15 1 7.05994 3.70487 3.70798 
28 1 10.0929 0.743061 0.655413 
29 1 8.57541 2.19719 2.2023 
30 1 9.28631 1.50093 1.48366 
1 1 6.17294 4.57106 6.18168 
2 1 7.69189 3.07983 7.69358 
3 1 6.97691 3.78245 6.97737 
40 1 10.047 0.788008 10.0595 
41 1 8.49476 2.26345 8.48378 
42 1 9.20906 1.59356 9.22608 
7 1 6.15994 6.15819 4.59555 
8 1 7.66401 7.6692 3.10599 
9 1 6.95335 6.95285 3.80675 
43 1 10.0812 10.0222 0.881169 
44 1 8.46722 8.47389 2.29795 
45 1 9.18433 9.21812 1.64154 
22 1 6.21517 6.21581 6.22242 
23 1 7.74733 7.74957 7.75509 
24 1 7.04123 7.03858 7.04905 
34 1 10.1477 10.1187 9.8883 
35 1 8.52207 8.54868 8.53941 
36 1 9.2658 9.32247 9.13692 
49 2 10.1096 9.22853 10.8815 
ITEM: TIMESTEP
30
ITEM: NUMBER OF ATOMS
49
ITEM: BOX BOUNDS pp pp pp
0.0000000000000000e+00 1.1000000000000000e+01
0.0000000000000000e+00 1.1002000000000001e+01
0.0000000000000000e+00 1.1000000000000000e+01
ITEM: ATOMS id type x y z 
10 1 4.58327 4.58014 4.59422 
11 1 3.08061 3.07835 3.08152 
12 1 3.78879 3.79105 3.78571 
46 1 0.74028 0.746471 0.744884 
47 1 2.27593 2.27659 2.27735 
48 1 1.56743 1.5699 1.56863 
19 1 4.52662 4.52086 6.23407 
20 1 2.993 2.99126 7.78727 
21 1 3.69985 3.69923 7.07151 
31 1 0.681423 0.694111 10.0907 
32 1 2.19099 2.19593 8.58265 
33 1 1.48233 1.48759 9.28905 
16 1 4.51297 6.22521 4.53187 
17 1 3.00041 7.77513 3.00443 
18 1 3.69765 7.05645 3.71097 
25 1 0.771573 10.1201 0.662857 
26 1 2.19066 8.5748 2.20069 
27 1 1.52431 9.30514 1.47315 
4 1 4.56334 6.15792 6.17476 
5 1 3.08239 7.68127 7.6905 
6 1 3.7781 6.97421 6.96766 
37 1 0.827928 10.0832 10.0424 
38 1 2.2725 8.48292 8.48623 
39 1 1.61517 9.22436 9.20663 
13 1 6.22505 4.51132 4.53641 
14 1 7.7801 3.00117 3.00332 
15 1 7.05773 3.69588 3.71031 
28 1 10.0889 0.704652 0.674414 
29 1 8.5814 2.1986 2.20047 
30 1 9.28412 1.49812 1.47794 
1 1 6.16173 4.55895 6.17594 
2 1 7.68897 3.07816 7.69352 
3 1 6.97949 3.77515 6.9746 
40 1 10.0432 0.770839 10.0576 
41 1 8.49744 2.27466 8.49408 
42 1 9.20997 1.58597 9.21403 
7 1 6.14964 6.14855 4.58539 
8 1 7.66136 7.67123 3.102 
9 1 6.95307 6.9502 3.79787 
43 1 10.0857 10.0306 0.92996 
44 1 8.45137 8.48543 2.3037 
45 1 9.21393 9.21445 1.67716 
22 1 6.20666 6.20238 6.22217 
23 1 7.74683 7.75693 7.76235 
24 1 7.03843 7.03315 7.06079 
34 1 10.1815 10.173 9.76737 
35 1 8.51789 8.57172 8.53629 
36 1 9.30046 9.31335 9.13254 
49 2 10.1005 9.25534 10.929 
ITEM: TIMESTEP
40
ITEM: NUMBER OF ATOMS
49
ITEM: BOX BOUNDS pp pp pp
0.0000000000000000e+00 1.1000000000000000e+01
0.0000000000000000e+00 1.1002000000000001e+01
0.0000000000000000e+00 1.1000000000000000e+01
ITEM: ATOMS id type x y z 
10 1 4.58349 4.58009 4.59338 
11 1 3.08217 3.08226 3.08025 
12 1 3.78952 3.78769 3.79337 
46 1 0.742762 0.758662 0.739227 
47 1 2.27887 2.27845 2.28151 
48 1 1.56971 1.57724 1.56923 
19 1 4.52361 4.51689 6.23525 
20 1 2.99439 2.99089 7.78669 
21 1 3.69484 3.69725 7.07076 
31 1 0.698952 0.701091 10.1126 
32 1 2.18732 2.19657 8.58047 
33 1 1.4872 1.49023 9.29843 
16 1 4.5101 6.22127 4.53291 
17 1 2.99508 7.77539 3.00225 
18 1 3.69672 7.05647 3.71075 
25 1 0.752393 10.1203 0.660738 
26 1 2.19541 8.57995 2.1944 
27 1 1.52291 9.30946 1.47074 
4 1 4.5745 6.15733 6.17001 
5 1 3.08208 7.67719 7.68179 
6 1 3.78056 6.96397 6.96999 
37 1 0.770317 10.0677 10.0256 
38 1 2.28351 8.49214 8.49131 
39 1 1.6092 9.21855 9.20749 
13 1 6.22207 4.5066 4.53547 
14 1 7.78159 2.99777 3.00026 
15 1 7.06071 3.69213 3.70885 
28 1 10.0876 0.668145 0.695492 
29 1 8.58616 2.20294 2.18893 
30 1 9.29053 1.48424 1.48451 
1 1 6.16128 4.56802 6.17222 
2 1 7.68463 3.08167 7.68489 
3 1 6.97065 3.77921 6.9718 
40 1 10.0245 0.724566 10.0381 
41 1 8.49776 2.28894 8.49427 
42 1 9.19762 1.58656 9.20948 
7 1 6.15002 6.14517 4.59404 
8 1 7.64891 7.66301 3.10331 
9 1 6.94327 6.94431 3.8041 
43 1 10.1082 10.0402 0.964312 
44 1 8.44683 8.4869 2.32155 
45 1 9.21259 9.21551 1.70111 
22 1 6.21103 6.19949 6.23217 
23 1 7.74082 7.75629 7.77332 
24 1 7.03594 7.04196 7.06071 
34 1 10.2404 10.2641 9.5877 
35 1 8.52449 8.56989 8.55903 
36 1 9.33158 9.34745 9.08863 
49 2 10.0882 9.19993 11.0456 
ITEM: TIMESTEP
50
ITEM: NUMBER OF ATOMS
49
ITEM: BOX BOUNDS pp pp pp
0.0000000000000000e+00 1.1000000000000000e+01
0.0000000000000000e+00 1.1002000000000001e+01
0.0000000000000000e+00 1.1000000000000000e+01
ITEM: ATOMS id type x y z 
10 1 4.58798 4.58198 4.59695 
11 1 3.08492 3.07874 3.08788 
12 1 3.7904 3.80016 3.78632 
46 1 0.74034 0.760335 0.735267 
47 1 2.27709 2.27674 2.28028 
48 1 1.56883 1.57847 1.56783 
19 1 4.51314 4.51409 6.24032 
20 1 2.99074 2.99393 7.7843 
21 1 3.70362 3.69432 7.06942 
31 1 0.702826 0.716689 10.1223 
32 1 2.18403 2.19056 8.58178 
33 1 1.48295 1.49305 9.30953 
16 1 4.50846 6.22214 4.53243 
17 1 2.99637 7.77352 3.00361 
18 1 3.69404 7.0559 3.70983 
25 1 0.751758 10.123 0.665829 
26 1 2.20471 8.58437 2.19022 
27 1 1.515 9.3046 1.47422 
4 1 4.57791 6.15719 6.1684 
5 1 3.08276 7.66888 7.68001 
6 1 3.78787 6.96733 6.96322 
37 1 0.741137 10.057 10.0109 
38 1 2.29171 8.49259 8.49052 
39 1 1.60856 9.21439 9.20672 
13 1 6.22515 4.50063 4.53106 
14 1 7.78125 2.99647 2.99948 
15 1 7.06183 3.69415 3.70686 
28 1 10.0827 0.655796 0.685724 
29 1 8.5883 2.19934 2.18477 
30 1 9.29631 1.48301 1.48342 
1 1 6.15938 4.57335 6.17185 
2 1 7.67786 3.08514 7.68386 
3 1 6.97432 3.78351 6.96193 
40 1 10.0209 0.714762 10.0394 
41 1 8.50066 2.2901 8.50036 
42 1 9.19853 1.58331 9.21478 
7 1 6.14504 6.13885 4.60172 
8 1 7.64156 7.65805 3.10431 
9 1 6.93583 6.94329 3.80876 
43 1 10.1127 10.0129 0.945746 
44 1 8.44616 8.48475 2.33204 
45 1 9.2085 9.22005 1.71653 
22 1 6.2227 6.21498 6.24217 
23 1 7.73295 7.75479 7.77552 
24 1 7.03346 7.03888 7.06654 
34 1 10.2525 10.2558 9.56055 
35 1 8.53342 8.56978 8.572 
36 1 9.34566 9.36479 9.06465 
49 2 10.0882 9.23551 11.0669 
ITEM: TIMESTEP
60
ITEM: NUMBER OF ATOMS
49
ITEM: BOX BOUNDS pp pp pp
0.0000000000000000e+00 1.1000000000000000e+01
0.0000000000000000e+00 1.1002000000000001e+01
0.0000000000000000e+00 1.1000000000000000e+01
ITEM: ATOMS id type x y z 
10 1 4.58811 4.58558 4.59642 
11 1 3.08472 3.0847 3.08398 
12 1 3.79186 3.79043 3.79558 
46 1 0.738995 0.759354 0.736028 
47 1 2.27836 2.27846 2.28142 
48 1 1.5692 1.57879 1.5693 
19 1 4.51947 4.51521 6.23932 
20 1 2.99345 2.99255 7.78295 
21 1 3.69881 3.69677 7.06924 
31 1 0.700158 0.717003 10.1256 
32 1 2.18467 2.19141 8.58122 
33 1 1.4838 1.49526 9.31034 
16 1 4.50648 6.22229 4.53256 
17 1 2.99444 7.77448 3.0016 
18 1 3.6929 7.05733 3.70899 
25 1 0.748464 10.1207 0.664897 
26 1 2.2033 8.58444 2.1898 
27 1 1.52108 9.30867 1.47045 
4 1 4.58091 6.15606 6.16772 
5 1 3.08365 7.67173 7.67678 
6 1 3.78737 6.9607 6.96807 
37 1 0.740085 10.0556 10.0084 
38 1 2.29437 8.49392 8.49242 
39 1 1.60855 9.21198 9.20566 
13 1 6.22514 4.50018 4.53309 
14 1 7.78263 2.99597 2.99673 
15 1 7.06399 3.69046 3.70538 
28 1 10.0806 0.652076 0.683023 
29 1 8.59407 2.20063 2.18378 
30 1 9.29112 1.47495 1.4802 
1 1 6.15931 4.57471 6.16709 
2 1 7.68273 3.08488 7.67963 
3 1 6.96781 3.78357 6.97055 
40 1 10.0195 0.711385 10.0388 
41 1 8.49965 2.29254 8.50192 
42 1 9.19596 1.58477 9.21474 
7 1 6.14634 6.13779 4.60384 
8 1 7.63581 7.65629 3.10484 
9 1 6.93374 6.94027 3.81163 
43 1 10.1123 10.0097 0.94638 
44 1 8.44625 8.48388 2.33851 
45 1 9.20743 9.2239 1.72646 
22 1 6.22062 6.21189 6.24296 
23 1 7.73473 7.75579 7.78422 
24 1 7.03573 7.04342 7.07043 
34 1 10.258 10.2594 9.54888 
35 1 8.53155 8.56671 8.57443 
36 1 9.34896 9.36817 9.04752 
49 2 10.0857 9.24525 11.0652 
ITEM: TIMESTEP
70
ITEM: NUMBER OF ATOMS
49
ITEM: BOX BOUNDS pp pp pp
0.0000000000000000e+00 1.1000000000000000e+01
0.0000000000000000e+00 1.1002000000000001e+01
0.0000000000000000e+00 1.1000000000000000e+01
ITEM: ATOMS id type x y z 
10 1 4.59085 4.58555 4.59773 
11 1 3.08569 3.08589 3.08614 
12 1 3.79367 3.79152 3.79674 
46 1 0.735921 0.756919 0.738045 
47 1 2.27815 2.27953 2.28087 
48 1 1.56816 1.57853 1.57067 
19 1 4.51994 4.51515 6.2401 
20 1 2.99271 2.99236 7.7814 
21 1 3.6991 3.69651 7.06861 
31 1 0.697899 0.719359 10.1314 
32 1 2.18388 2.19086 8.58294 
33 1 1.4829 1.49645 9.31348 
16 1 4.5055 6.22186 4.5334 
17 1 2.99404 7.77379 3.00114 
18 1 3.692 7.05714 3.70895 
25 1 0.746657 10.1212 0.661312 
26 1 2.20684 8.58834 2.18569 
27 1 1.52041 9.31014 1.46815 
4 1 4.5835 6.15559 6.16823 
5 1 3.0852 7.67079 7.67502 
6 1 3.78859 6.9584 6.96758 
37 1 0.738405 10.0554 10.0051 
38 1 2.30013 8.49456 8.49509 
39 1 1.60809 9.20999 9.20482 
13 1 6.22635 4.49741 4.53282 
14 1 7.78446 2.99559 2.99393 
15 1 7.06575 3.68833 3.70364 
28 1 10.0751 0.639669 0.679294 
29 1 8.59909 2.19824 2.18009 
30 1 9.29079 1.46793 1.47666 
1 1 6.16063 4.57485 6.16734 
2 1 7.68211 3.08617 7.67891 
3 1 6.96799 3.7851 6.96906 
40 1 10.0168 0.706744 10.0369 
41 1 8.49929 2.29589 8.50554 
42 1 9.19382 1.58561 9.21756 
7 1 6.14337 6.13207 4.60931 
8 1 7.6278 7.65376 3.10511 
9 1 6.92876 6.93699 3.81373 
43 1 10.1105 10.0065 0.945881 
44 1 8.44871 8.48437 2.35002 
45 1 9.20699 9.2323 1.74474 
22 1 6.22305 6.21483 6.24603 
23 1 7.73178 7.75356 7.79292 
24 1 7.03413 7.04201 7.0772 
34 1 10.2664 10.2646 9.52326 
35 1 8.53417 8.56797 8.57774 
36 1 9.35761 9.37524 9.02769 
49 2 10.0794 9.26039 11.0611 
ITEM: TIMESTEP
80
ITEM: NUMBER OF ATOMS
49
ITEM: BOX BOUNDS pp pp pp
0.0000000000000000e+00 1.1000000000000000e+01
0.0000000000000000e+00 1.1002000000000001e+01
0.0000000000000000e+00 1.1000000000000000e+01
ITEM: ATOMS id type x y z 
10 1 4.59608 4.58554 4.599 
11 1 3.08561 3.08651 3.08763 
12 1 3.79549 3.7902 3.79761 
46 1 0.729509 0.752151 0.742874 
47 1 2.27743 2.28161 2.27867 
48 1 1.5637 1.57792 1.57551 
19 1 4.52181 4.51455 6.23896 
20 1 2.9864 2.98984 7.7774 
21 1 3.70269 3.69381 7.07455 
31 1 0.69417 0.723634 10.1415 
32 1 2.1826 2.19092 8.5873 
33 1 1.48081 1.49868 9.31896 
16 1 4.50329 6.21899 4.53433 
17 1 2.99433 7.77316 2.99728 
18 1 3.6875 7.0588 3.71159 
25 1 0.740752 10.1206 0.657116 
26 1 2.21406 8.59465 2.17844 
27 1 1.52244 9.31301 1.46262 
4 1 4.5885 6.15383 6.16647 
5 1 3.08773 7.67163 7.67412 
6 1 3.78933 6.95654 6.96793 
37 1 0.737628 10.0575 9.99708 
38 1 2.31024 8.49289 8.50192 
39 1 1.61025 9.20889 9.20289 
13 1 6.22917 4.49037 4.53478 
14 1 7.79014 2.99408 2.98687 
15 1 7.07071 3.68266 3.69925 
28 1 10.0667 0.616968 0.675609 
29 1 8.60506 2.19442 2.17378 
30 1 9.28941 1.45611 1.4722 
1 1 6.1608 4.5782 6.16256 
2 1 7.68357 3.0875 7.67984 
3 1 6.97032 3.78573 6.96902 
40 1 10.0126 0.698146 10.0304 
41 1 8.4962 2.3036 8.5127 
42 1 9.18931 1.58973 9.22286 
7 1 6.13955 6.12426 4.6151 
8 1 7.6123 7.64912 3.10481 
9 1 6.91908 6.93003 3.8158 
43 1 10.1029 9.9989 0.938674 
44 1 8.45768 8.48911 2.37567 
45 1 9.20881 9.25334 1.78434 
22 1 6.22389 6.21147 6.25226 
23 1 7.72594 7.74841 7.81619 
24 1 7.03249 7.04252 7.09118 
34 1 10.2887 10.2818 9.47408 
35 1 8.5397 8.57374 8.57202 
36 1 9.37357 9.38076 9.00087 
49 2 10.062 9.2851 11.0464 
ITEM: TIMESTEP
90
ITEM: NUMBER OF ATOMS
49
ITEM: BOX BOUNDS pp pp pp
0.0000000000000000e+00 1.1000000000000000e+01
0.0000000000000000e+00 1.1002000000000001e+01
0.0000000000000000e+00 1.1000000000000000e+01
ITEM: ATOMS id type x y z 
10 1 4.59615 4.58504 4.59901 
11 1 3.08586 3.08639 3.08767 
12 1 3.79535 3.79044 3.79776 
46 1 0.728097 0.751354 0.744375 
47 1 2.27619 2.28119 2.27928 
48 1 1.56432 1.57816 1.57386 
19 1 4.52237 4.51388 6.24054 
20 1 2.988 2.99006 7.7781 
21 1 3.70093 3.69419 7.07173 
31 1 0.693573 0.724163 10.1416 
32 1 2.18215 2.19062 8.58752 
33 1 1.48044 1.49938 9.32018 
16 1 4.50302 6.21934 4.53541 
17 1 2.99409 7.77372 2.99866 
18 1 3.6887 7.0574 3.70943 
25 1 0.739899 10.1207 0.65762 
26 1 2.21513 8.59534 2.17763 
27 1 1.52183 9.3125 1.46227 
4 1 4.58765 6.15289 6.16706 
5 1 3.08793 7.66986 7.67401 
6 1 3.79149 6.95779 6.96674 
37 1 0.737843 10.0578 9.9968 
38 1 2.31117 8.49287 8.50211 
39 1 1.61076 9.20888 9.20326 
13 1 6.22953 4.49002 4.53371 
14 1 7.78995 2.99426 2.98688 
15 1 7.07106 3.68317 3.69946 
28 1 10.0662 0.616198 0.675563 
29 1 8.60548 2.1938 2.17297 
30 1 9.2895 1.45492 1.47166 
1 1 6.16167 4.57717 6.16355 
2 1 7.68298 3.08843 7.67917 
3 1 6.96963 3.78668 6.96838 
40 1 10.0126 0.69733 10.0296 
41 1 8.49648 2.30362 8.51408 
42 1 9.18943 1.58976 9.2239 
7 1 6.13876 6.12296 4.61612 
8 1 7.61253 7.64889 3.104 
9 1 6.91862 6.93076 3.81535 
43 1 10.102 9.99772 0.937468 
44 1 8.45785 8.49029 2.37878 
45 1 9.20938 9.25502 1.78818 
22 1 6.22445 6.21345 6.25203 
23 1 7.72371 7.74772 7.81612 
24 1 7.03169 7.03924 7.09271 
34 1 10.2901 10.2813 9.47138 
35 1 8.54292 8.57371 8.5721 
36 1 9.37357 9.38562 8.99961 
49 2 10.06 9.28608 11.0435 
ITEM: TIMESTEP
98
ITEM: NUMBER OF ATOMS
49
ITEM: BOX BOUNDS pp pp pp
0.0000000000000000e+00 1.1000000000000000e+01
0.0000000000000000e+00 1.1002000000000001e+01
0.0000000000000000e+00 1.1000000000000000e+01
ITEM: ATOMS id type x y z 
10 1 4.59614 4.58492 4.59923 
11 1 3.08582 3.08638 3.08771 
12 1 3.79545 3.7904 3.79771 
46 1 0.727798 0.751243 0.744508 
47 1 2.27597 2.28123 2.27927 
48 1 1.56433 1.57796 1.57379 
19 1 4.52266 4.5138 6.24076 
20 1 2.98847 2.99019 7.77821 
21 1 3.70038 3.69417 7.0711 
31 1 0.693463 0.724315 10.1419 
32 1 2.18213 2.19068 8.58768 
33 1 1.48033 1.49943 9.3202 
16 1 4.50286 6.21931 4.53562 
17 1 2.99396 7.77384 2.99895 
18 1 3.68904 7.05717 3.70887 
25 1 0.739664 10.1205 0.657456 
26 1 2.21543 8.59531 2.17726 
27 1 1.52168 9.31272 1.46258 
4 1 4.58747 6.15265 6.16712 
5 1 3.08799 7.6697 7.67393 
6 1 3.7918 6.9578 6.96675 
37 1 0.738047 10.0579 9.99679 
38 1 2.31137 8.49287 8.5022 
39 1 1.61093 9.20887 9.20334 
13 1 6.22951 4.48997 4.53362 
14 1 7.79005 2.99423 2.9868 
15 1 7.07112 3.68322 3.69941 
28 1 10.0661 0.615914 0.675479 
29 1 8.60549 2.19366 2.17282 
30 1 9.28953 1.45474 1.47159 
1 1 6.1617 4.57704 6.16363 
2 1 7.68306 3.08863 7.67914 
3 1 6.96944 3.78661 6.96837 
40 1 10.0127 0.697259 10.0296 
41 1 8.49644 2.30373 8.51434 
42 1 9.18937 1.58987 9.22407 
7 1 6.13855 6.12282 4.61605 
8 1 7.61229 7.64883 3.10378 
9 1 6.91877 6.93069 3.8155 
43 1 10.1018 9.99739 0.93714 
44 1 8.45797 8.49068 2.37956 
45 1 9.20958 9.25553 1.78916 
22 1 6.22465 6.21354 6.25185 
23 1 7.72379 7.74771 7.81646 
24 1 7.03116 7.03887 7.0933 
34 1 10.2903 10.2816 9.47045 
35 1 8.54321 8.57392 8.57172 
36 1 9.37384 9.3858 8.99945 
49 2 10.0595 9.2863 11.0428 
ITEM: TIMESTEP
100
ITEM: NUMBER OF ATOMS
49
ITEM: BOX BOUNDS pp pp pp
0.0000000000000000e+00 1.1000000000000000e+01
0.0000000000000000e+00 1.1002000000000001e+01
0.0000000000000000e+00 1.1000000000000000e+01
ITEM: ATOMS id type x y z 
10 1 4.59615 4.58492 4.59922 
11 1 3.08583 3.08638 3.0877 
12 1 3.79543 3.7904 3.79773 
46 1 0.727795 0.751244 0.744508 
47 1 2.27597 2.28124 2.27926 
48 1 1.56433 1.57795 1.5738 
19 1 4.52266 4.5138 6.24077 
20 1 2.98847 2.99019 7.77821 
21 1 3.70037 3.69417 7.0711 
31 1 0.693455 0.724313 10.1419 
32 1 2.18212 2.19067 8.58767 
33 1 1.48034 1.49944 9.32022 
16 1 4.50286 6.21931 4.53562 
17 1 2.99396 7.77384 2.99895 
18 1 3.68904 7.05717 3.70886 
25 1 0.739665 10.1205 0.657458 
26 1 2.21544 8.59532 2.17726 
27 1 1.52167 9.31271 1.46257 
4 1 4.58747 6.15266 6.16712 
5 1 3.088 7.66971 7.67393 
6 1 3.79179 6.95778 6.96675 
37 1 0.738049 10.0579 9.99679 
38 1 2.31137 8.49287 8.5022 
39 1 1.61093 9.20887 9.20334 
13 1 6.22951 4.48996 4.53362 
14 1 7.79005 2.99423 2.9868 
15 1 7.07112 3.68322 3.6994 
28 1 10.0661 0.615904 0.675487 
29 1 8.60549 2.19365 2.17283 
30 1 9.28952 1.45475 1.47157 
1 1 6.16169 4.57704 6.16363 
2 1 7.68305 3.08863 7.67914 
3 1 6.96945 3.78662 6.96836 
40 1 10.0127 0.697258 10.0296 
41 1 8.49644 2.30373 8.51434 
42 1 9.18937 1.58987 9.22408 
7 1 6.13856 6.12282 4.61606 
8 1 7.6123 7.64883 3.10379 
9 1 6.91875 6.93068 3.81548 
43 1 10.1017 9.99739 0.937136 
44 1 8.45798 8.49068 2.37957 
45 1 9.20958 9.25554 1.78917 
49 2 10.0595 9.2863 0.0428004 
22 1 6.22465 6.21355 6.25185 
23 1 7.72378 7.7477 7.81646 
24 1 7.03115 7.03887 7.09331 
34 1 10.2903 10.2816 9.47045 
35 1 8.54321 8.57392 8.57173 
36 1 9.37385 9.3858 8.99943 
ITEM: TIMESTEP
102
ITEM: NUMBER OF ATOMS
49
ITEM: BOX BOUNDS pp pp pp
0.0000000000000000e+00 1.1000000000000000e+01
0.0000000000000000e+00 1.1002000000000001e+01
0.0000000000000000e+00 1.1000000000000000e+01
ITEM: ATOMS id type x y z 
10 1 4.59616 4.58492 4.59922 
11 1 3.08584 3.08639 3.08769 
12 1 3.79542 3.7904 3.79774 
46 1 0.727794 0.75124 0.744511 
47 1 2.27597 2.28123 2.27926 
48 1 1.56433 1.57796 1.57379 
19 1 4.52266 4.51379 6.24077 
20 1 2.98847 2.99019 7.77822 
21 1 3.70036 3.69416 7.07109 
31 1 0.693449 0.724312 10.1419 
32 1 2.18212 2.19067 8.58766 
33 1 1.48035 1.49944 9.32024 
16 1 4.50286 6.21931 4.53562 
17 1 2.99396 7.77384 2.99895 
18 1 3.68905 7.05717 3.70886 
25 1 0.739665 10.1205 0.657459 
26 1 2.21545 8.59532 2.17726 
27 1 1.52166 9.3127 1.46257 
4 1 4.58748 6.15266 6.16712 
5 1 3.08801 7.66971 7.67393 
6 1 3.79178 6.95776 6.96675 
37 1 0.73805 10.0579 9.99679 
38 1 2.31137 8.49287 8.5022 
39 1 1.61093 9.20887 9.20334 
13 1 6.22951 4.48996 4.53362 
14 1 7.79005 2.99422 2.9868 
15 1 7.07113 3.68323 3.6994 
28 1 10.0661 0.615903 0.675483 
29 1 8.60549 2.19365 2.17282 
30 1 9.28953 1.45474 1.47157 
1 1 6.16169 4.57703 6.16363 
2 1 7.68304 3.08862 7.67914 
3 1 6.96947 3.78663 6.96836 
40 1 10.0127 0.697257 10.0296 
41 1 8.49644 2.30373 8.51434 
42 1 9.18937 1.58987 9.22408 
7 1 6.13856 6.12282 4.61607 
8 1 7.61231 7.64883 3.1038 
9 1 6.91874 6.93068 3.81546 
43 1 10.1017 9.99738 0.937133 
44 1 8.45798 8.49069 2.37958 
45 1 9.20958 9.25554 1.78918 
49 2 10.0595 9.2863 0.0427934 
22 1 6.22466 6.21355 6.25185 
23 1 7.72378 7.7477 7.81646 
24 1 7.03115 7.03887 7.09332 
34 1 10.2903 10.2816 9.47045 
35 1 8.54322 8.57392 8.57174 
36 1 9.37386 9.38581 8.99941 
ITEM: TIMESTEP
110
ITEM: NUMBER OF ATOMS
49
ITEM: BOX BOUNDS pp pp pp
-4.2414269549189820e-03 1.1004241426954920e+01
-4.0539255747272362e-03 1.1006053925574728e+01
-4.3989987874272080e-03 1.1004398998787432e+01
ITEM: ATOMS id type x y z 
10 1 4.59549 4.58427 4.59851 
11 1 3.08399 3.08461 3.08576 
12 1 3.79408 3.78912 3.79639 
46 1 0.724098 0.747722 0.740689 
47 1 2.27347 2.27885 2.27668 
48 1 1.56128 1.57505 1.57064 
19 1 4.52193 4.51308 6.24135 
20 1 2.98655 2.98834 7.78003 
21 1 3.69898 3.69285 7.07232 
31 1 0.689715 0.720767 10.1456 
32 1 2.17955 2.18822 8.59013 
33 1 1.47727 1.49651 9.32331 
16 1 4.5021 6.21982 4.53487 
17 1 2.99203 7.77551 2.99696 
18 1 3.68767 7.0583 3.70743 
25 1 0.73598 10.124 0.653569 
26 1 2.21292 8.59762 2.1746 
27 1 1.51859 9.31549 1.45934 
4 1 4.58681 6.15313 6.16763 
5 1 3.08617 7.67132 7.67566 
6 1 3.79043 6.95882 6.96793 
37 1 0.734352 10.0613 10.0004 
38 1 2.30891 8.49509 8.50461 
39 1 1.60792 9.21162 9.20631 
13 1 6.23005 4.48923 4.53286 
14 1 7.79181 2.99238 2.9848 
15 1 7.07233 3.68191 3.69797 
28 1 10.0696 0.612287 0.671608 
29 1 8.60789 2.1912 2.17015 
30 1 9.29244 1.45176 1.46835 
1 1 6.16217 4.57636 6.16414 
2 1 7.68471 3.08684 7.68088 
3 1 6.97062 3.78538 6.96954 
40 1 10.0162 0.693691 10.0332 
41 1 8.49876 2.30137 8.51676 
42 1 9.19222 1.58698 9.22707 
7 1 6.13903 6.12326 4.61538 
8 1 7.61392 7.6504 3.10188 
9 1 6.91985 6.93174 3.81412 
43 1 10.1053 10.0007 0.93348 
44 1 8.46027 8.49291 2.37709 
45 1 9.21245 9.25831 1.78622 
49 2 10.063 9.2891 0.0384169 
22 1 6.2252 6.21406 6.25243 
23 1 7.72548 7.74934 7.8183 
24 1 7.03232 7.03999 7.0946 
34 1 10.2941 10.2852 9.47366 
35 1 8.54558 8.5762 8.57421 
36 1 9.37684 9.38867 9.00217 
ITEM: TIMESTEP
120
ITEM: NUMBER OF ATOMS
49
ITEM: BOX BOUNDS pp pp pp
-6.1787457932466873e-03 1.1006178745793246e+01
-3.5835000238334802e-03 1.1005583500023834e+01
-9.8989987874272094e-03 1.1009898998787436e+01
ITEM: ATOMS id type x y z 
10 1 4.59561 4.58477 4.59805 
11 1 3.08329 3.08496 3.08348 
12 1 3.7933 3.78909 3.79453 
46 1 0.72213 0.747743 0.735534 
47 1 2.27208 2.27892 2.27325 
48 1 1.55964 1.57511 1.56645 
19 1 4.52198 4.51351 6.24178 
20 1 2.98592 2.98877 7.78214 
21 1 3.6985 3.69323 7.07356 
31 1 0.687586 0.720725 10.1509 
32 1 2.17822 2.18838 8.59337 
33 1 1.47604 1.49703 9.32699 
16 1 4.50206 6.21942 4.53429 
17 1 2.99133 7.77513 2.99471 
18 1 3.68731 7.0579 3.70579 
25 1 0.733978 10.1241 0.648354 
26 1 2.21171 8.59753 2.17111 
27 1 1.51725 9.31495 1.45546 
4 1 4.58692 6.15262 6.16786 
5 1 3.08548 7.67099 7.6777 
6 1 3.78967 6.95886 6.96955 
37 1 0.732127 10.0613 10.0048 
38 1 2.30757 8.49507 8.50786 
39 1 1.60636 9.2115 9.21019 
13 1 6.22998 4.48965 4.53223 
14 1 7.79242 2.99278 2.98248 
15 1 7.07267 3.68231 3.69639 
28 1 10.0717 0.612375 0.66639 
29 1 8.60908 2.19132 2.16668 
30 1 9.29371 1.45223 1.46443 
1 1 6.16197 4.57685 6.16437 
2 1 7.68535 3.08719 7.68292 
3 1 6.97131 3.78539 6.97119 
40 1 10.0182 0.693592 10.0376 
41 1 8.50003 2.30142 8.52004 
42 1 9.19367 1.58714 9.23096 
7 1 6.1388 6.12277 4.61494 
8 1 7.6145 7.65007 3.09963 
9 1 6.92053 6.93178 3.81225 
43 1 10.107 10.0005 0.928908 
44 1 8.46155 8.49294 2.37392 
45 1 9.21386 9.25808 1.78254 
49 2 10.0646 9.28893 0.0328246 
22 1 6.22514 6.21369 6.25286 
23 1 7.72596 7.74883 7.82034 
24 1 7.03263 7.03964 7.09612 
34 1 10.2964 10.2853 9.47826 
35 1 8.54691 8.57617 8.57741 
36 1 9.37815 9.38828 9.0054 
ITEM: TIMESTEP
130
ITEM: NUMBER OF ATOMS
49
ITEM: BOX BOUNDS pp pp pp
-7.4466701733507043e-03 1.1007446670173348e+01
-1.7903005545871391e-03 1.1003790300554590e+01
-1.5398998787427209e-02 1.1015398998787441e+01
ITEM: ATOMS id type x y z 
10 1 4.59597 4.5856 4.59774 
11 1 3.08288 3.0859 3.08123 
12 1 3.7927 3.78944 3.79262 
46 1 0.720642 0.748781 0.730254 
47 1 2.27091 2.27959 2.26965 
48 1 1.55853 1.57615 1.56227 
19 1 4.52228 4.51428 6.24211 
20 1 2.98577 2.98995 7.78411 
21 1 3.69817 3.69402 7.07479 
31 1 0.685935 0.721727 10.1562 
32 1 2.17727 2.18931 8.59662 
33 1 1.47535 1.49856 9.33068 
16 1 4.50225 6.21874 4.53384 
17 1 2.99108 7.77404 2.99262 
18 1 3.68718 7.05714 3.7041 
25 1 0.732375 10.1232 0.643051 
26 1 2.21083 8.59667 2.16759 
27 1 1.51652 9.31358 1.45161 
4 1 4.58728 6.15182 6.16796 
5 1 3.08511 7.67011 7.67972 
6 1 3.78911 6.95858 6.97122 
37 1 0.730353 10.0603 10.0093 
38 1 2.30649 8.49449 8.51126 
39 1 1.60532 9.21044 9.21402 
13 1 6.2297 4.49042 4.53171 
14 1 7.7926 2.99393 2.98031 
15 1 7.07283 3.68311 3.69478 
28 1 10.0733 0.613517 0.661098 
29 1 8.60992 2.1922 2.1632 
30 1 9.29446 1.45369 1.46051 
1 1 6.16157 4.57769 6.16447 
2 1 7.6857 3.08815 7.68496 
3 1 6.97186 3.78576 6.97286 
40 1 10.0197 0.694539 10.0421 
41 1 8.50107 2.30211 8.52348 
42 1 9.19462 1.58829 9.23481 
7 1 6.13837 6.12199 4.61464 
8 1 7.61481 7.64919 3.09738 
9 1 6.92105 6.93151 3.81036 
43 1 10.1081 9.99926 0.924329 
44 1 8.46257 8.49237 2.37073 
45 1 9.21486 9.25696 1.77887 
49 2 10.0656 9.2879 0.0272104 
22 1 6.22487 6.21303 6.25318 
23 1 7.72603 7.74763 7.82228 
24 1 7.03275 7.03891 7.09762 
34 1 10.2982 10.2845 9.48284 
35 1 8.54795 8.57548 8.58043 
36 1 9.37892 9.38687 9.00887 
ITEM: TIMESTEP
140
ITEM: NUMBER OF ATOMS
49
ITEM: BOX BOUNDS pp pp pp
-8.9249968798644809e-03 1.1008924996879859e+01
-1.0279023073467137e-04 1.1002102790230737e+01
-2.0898998787427195e-02 1.1020898998787446e+01
ITEM: ATOMS id type x y z 
10 1 4.59635 4.58646 4.59746 
11 1 3.08238 3.08678 3.07896 
12 1 3.79203 3.78974 3.79072 
46 1 0.718937 0.74967 0.724907 
47 1 2.26951 2.28011 2.26596 
48 1 1.55731 1.57717 1.55816 
19 1 4.52259 4.51507 6.24239 
20 1 2.98563 2.99117 7.78598 
21 1 3.69771 3.69472 7.07604 
31 1 0.684108 0.722631 10.1617 
32 1 2.1762 2.19017 8.59989 
33 1 1.47448 1.50003 9.33437 
16 1 4.50244 6.21802 4.53345 
17 1 2.99082 7.77291 2.99062 
18 1 3.68694 7.05645 3.70235 
25 1 0.730524 10.1225 0.637747 
26 1 2.20985 8.59586 2.16408 
27 1 1.51565 9.31227 1.44775 
4 1 4.58765 6.15101 6.16801 
5 1 3.08465 7.66929 7.68175 
6 1 3.78846 6.95832 6.97289 
37 1 0.728384 10.0594 10.0137 
38 1 2.30522 8.49403 8.51474 
39 1 1.60419 9.2094 9.2178 
13 1 6.22941 4.49122 4.53124 
14 1 7.79277 2.99514 2.97823 
15 1 7.07312 3.68383 3.69315 
28 1 10.0751 0.614517 0.655781 
29 1 8.61088 2.19301 2.15969 
30 1 9.29536 1.45506 1.45661 
1 1 6.16116 4.57857 6.16452 
2 1 7.68614 3.08907 7.68699 
3 1 6.97247 3.78608 6.97454 
40 1 10.0215 0.695396 10.0465 
41 1 8.50227 2.30267 8.52699 
42 1 9.19566 1.58943 9.23861 
7 1 6.13792 6.12117 4.6144 
8 1 7.61521 7.64835 3.09514 
9 1 6.9216 6.93127 3.80847 
43 1 10.1095 9.99814 0.91974 
44 1 8.46376 8.49192 2.36753 
45 1 9.21602 9.25592 1.77522 
49 2 10.0668 9.28697 0.0216066 
22 1 6.22456 6.21233 6.25346 
23 1 7.72608 7.74639 7.82417 
24 1 7.03297 7.03824 7.09911 
34 1 10.3003 10.2838 9.48746 
35 1 8.54908 8.57482 8.58345 
36 1 9.37988 9.38556 9.01225 
ITEM: TIMESTEP
150
ITEM: NUMBER OF ATOMS
49
ITEM: BOX BOUNDS pp pp pp
-1.0597616632361610e-02 1.1010597616632356e+01
1.4667614203305976e-03 1.1000533238579671e+01
-2.6398998787427179e-02 1.1026398998787451e+01
ITEM: ATOMS id type x y z 
10 1 4.59673 4.58734 4.59724 
11 1 3.08178 3.08763 3.07671 
12 1 3.79132 3.78997 3.78878 
46 1 0.716999 0.750384 0.71949 
47 1 2.26791 2.28048 2.26219 
48 1 1.55598 1.57813 1.55406 
19 1 4.52294 4.51589 6.24261 
20 1 2.98548 2.99241 7.7878 
21 1 3.69715 3.69536 7.07729 
31 1 0.682071 0.723439 10.1672 
32 1 2.17499 2.19099 8.60315 
33 1 1.47353 1.5014 9.33807 
16 1 4.50265 6.21726 4.53314 
17 1 2.99054 7.77175 2.98872 
18 1 3.68665 7.05581 3.70057 
25 1 0.72843 10.1218 0.632407 
26 1 2.20875 8.59511 2.16053 
27 1 1.51464 9.31107 1.44395 
4 1 4.58802 6.15016 6.16801 
5 1 3.08411 7.66849 7.68378 
6 1 3.78777 6.95813 6.97457 
37 1 0.72622 10.0586 10.0182 
38 1 2.3038 8.49368 8.51826 
39 1 1.60294 9.20842 9.22157 
13 1 6.22909 4.49206 4.53085 
14 1 7.79295 2.99637 2.97625 
15 1 7.07346 3.6845 3.69147 
28 1 10.0772 0.615333 0.650433 
29 1 8.61192 2.19373 2.15617 
30 1 9.29643 1.45638 1.45274 
1 1 6.16073 4.57943 6.1645 
2 1 7.68664 3.08992 7.68902 
3 1 6.97317 3.7864 6.97624 
40 1 10.0236 0.696146 10.051 
41 1 8.50363 2.30312 8.53055 
42 1 9.19681 1.5905 9.24239 
7 1 6.13744 6.12032 4.6142 
8 1 7.61566 7.64756 3.09289 
9 1 6.92222 6.93105 3.80661 
43 1 10.111 9.99715 0.915134 
44 1 8.46512 8.49161 2.36433 