ITEM: TIMESTEP
0
ITEM: NUMBER OF ATOMS
51
ITEM: BOX BOUNDS pp pp pp
0.0000000000000000e+00 1.1000000000000000e+01
0.0000000000000000e+00 1.1002000000000001e+01
0.0000000000000000e+00 1.1000000000000000e+01
ITEM: ATOMS id type x y z 
10 1 4.603 4.603 4.603 
11 1 3.085 3.085 3.085 
12 1 3.796 3.796 3.796 
46 1 0.726 0.725 0.725 
47 1 2.26 2.259 2.26 
48 1 1.551 1.55 1.55 
19 1 4.546 4.545 6.226 
20 1 3.013 3.013 7.764 
21 1 3.721 3.721 7.053 
31 1 0.668 0.667 10.103 
32 1 2.187 2.187 8.589 
33 1 1.476 1.475 9.298 
16 1 4.546 6.225 4.546 
17 1 3.013 7.765 3.013 
18 1 3.721 7.053 3.722 
25 1 0.668 10.103 0.668 
26 1 2.188 8.589 2.188 
27 1 1.476 9.298 1.476 
4 1 4.608 6.169 6.169 
5 1 3.086 7.684 7.684 
6 1 3.799 6.974 6.974 
37 1 0.729 10.046 10.046 
38 1 2.259 8.509 8.508 
39 1 1.552 9.219 9.219 
13 1 6.225 4.546 4.546 
14 1 7.764 3.013 3.013 
15 1 7.053 3.721 3.722 
28 1 10.102 0.667 0.668 
29 1 8.589 2.187 2.188 
30 1 9.298 1.475 1.476 
49 2 7.312 2.9 4.772 
50 2 8.666 2.355 4.38 
51 3 9.255 2.641 5.13 
1 1 6.168 4.608 6.169 
2 1 7.684 3.086 7.684 
3 1 6.974 3.799 6.974 
40 1 10.045 0.728 10.046 
41 1 8.508 2.259 8.508 
42 1 9.218 1.551 9.218 
7 1 6.169 6.169 4.608 
8 1 7.684 7.684 3.086 
9 1 6.974 6.974 3.799 
43 1 10.046 10.047 0.729 
44 1 8.508 8.509 2.259 
45 1 9.219 9.219 1.552 
22 1 6.229 6.229 6.229 
23 1 7.764 7.765 7.765 
24 1 7.055 7.056 7.055 
34 1 10.108 10.108 10.107 
35 1 8.59 8.59 8.59 
36 1 9.301 9.301 9.3 
ITEM: TIMESTEP
10
ITEM: NUMBER OF ATOMS
51
ITEM: BOX BOUNDS pp pp pp
0.0000000000000000e+00 1.1000000000000000e+01
0.0000000000000000e+00 1.1002000000000001e+01
0.0000000000000000e+00 1.1000000000000000e+01
ITEM: ATOMS id type x y z 
10 1 4.6117 4.59994 4.60173 
11 1 3.07985 3.08163 3.08149 
12 1 3.79531 3.7909 3.79136 
46 1 0.725732 0.724329 0.725059 
47 1 2.2574 2.25616 2.25789 
48 1 1.55087 1.55019 1.5488 
19 1 4.54065 4.54713 6.24548 
20 1 3.01327 3.01252 7.76492 
21 1 3.71847 3.71898 7.05427 
31 1 0.664554 0.666661 10.108 
32 1 2.18513 2.18535 8.5902 
33 1 1.47403 1.47368 9.29977 
16 1 4.51788 6.24682 4.54897 
17 1 3.00887 7.76846 3.00826 
18 1 3.72117 7.05424 3.72296 
25 1 0.66377 10.1066 0.666596 
26 1 2.18464 8.5897 2.18522 
27 1 1.47609 9.302 1.47599 
4 1 4.60923 6.16518 6.16714 
5 1 3.08587 7.68177 7.68282 
6 1 3.80032 6.97645 6.97503 
37 1 0.729222 10.0462 10.0454 
38 1 2.25929 8.50893 8.50739 
39 1 1.55328 9.21864 9.21926 
13 1 6.17169 4.60473 4.57786 
14 1 7.76891 3.01413 2.94237 
15 1 7.12494 3.59576 3.78395 
28 1 10.0913 0.678099 0.679635 
29 1 8.58457 2.19084 2.17547 
30 1 9.3024 1.47335 1.47306 
49 2 7.30763 2.92617 4.71377 
50 2 8.69702 2.34133 4.41321 
51 3 9.24569 2.63906 5.12448 
1 1 6.16405 4.61247 6.15696 
2 1 7.68265 3.08764 7.68509 
3 1 6.97302 3.79999 6.97501 
40 1 10.0456 0.727995 10.0463 
41 1 8.50897 2.25898 8.50823 
42 1 9.21913 1.54974 9.21881 
7 1 6.17299 6.1624 4.60375 
8 1 7.69117 7.6927 3.07826 
9 1 6.98174 6.97814 3.79209 
43 1 10.0463 10.0472 0.729688 
44 1 8.51044 8.5111 2.2569 
45 1 9.2204 9.22067 1.55101 
22 1 6.22662 6.23504 6.25487 
23 1 7.76532 7.76535 7.76583 
24 1 7.05514 7.0571 7.05559 
34 1 10.1074 10.1113 10.1097 
35 1 8.59031 8.5916 8.59136 
36 1 9.30297 9.30168 9.30084 
ITEM: TIMESTEP
20
ITEM: NUMBER OF ATOMS
51
ITEM: BOX BOUNDS pp pp pp
0.0000000000000000e+00 1.1000000000000000e+01
0.0000000000000000e+00 1.1002000000000001e+01
0.0000000000000000e+00 1.1000000000000000e+01
ITEM: ATOMS id type x y z 
10 1 4.61056 4.60143 4.59949 
11 1 3.08529 3.08412 3.08567 
12 1 3.79709 3.79497 3.7925 
46 1 0.72745 0.725956 0.725546 
47 1 2.25958 2.25881 2.2592 
48 1 1.55028 1.549 1.5499 
19 1 4.53736 4.54953 6.24424 
20 1 3.01026 3.00812 7.76567 
21 1 3.71837 3.72242 7.05882 
31 1 0.664159 0.666794 10.1049 
32 1 2.18561 2.18458 8.59089 
33 1 1.47208 1.47404 9.29967 
16 1 4.52332 6.24366 4.55928 
17 1 3.00981 7.76748 3.00597 
18 1 3.71496 7.0593 3.72581 
25 1 0.667319 10.1049 0.667062 
26 1 2.18633 8.59094 2.18587 
27 1 1.47327 9.29989 1.47443 
4 1 4.6085 6.16827 6.16311 
5 1 3.08619 7.68373 7.68452 
6 1 3.79808 6.97486 6.97339 
37 1 0.729718 10.0454 10.0456 
38 1 2.25979 8.50883 8.50866 
39 1 1.55172 9.21939 9.21806 
13 1 6.16117 4.62124 4.57401 
14 1 7.77381 3.01185 2.92397 
15 1 7.13994 3.56493 3.79698 
28 1 10.097 0.672757 0.674617 
29 1 8.57666 2.2016 2.16949 
30 1 9.29646 1.47749 1.46973 
49 2 7.30837 2.92395 4.70631 
50 2 8.70593 2.33002 4.42069 
51 3 9.24999 2.64165 5.1316 
1 1 6.16253 4.61474 6.16165 
2 1 7.68005 3.08993 7.68461 
3 1 6.97379 3.80045 6.97185 
40 1 10.0453 0.727065 10.045 
41 1 8.50901 2.25846 8.50822 
42 1 9.21886 1.55149 9.21862 
7 1 6.17288 6.16399 4.60063 
8 1 7.68646 7.68609 3.08463 
9 1 6.97735 6.97461 3.79319 
43 1 10.0457 10.046 0.729929 
44 1 8.51076 8.51115 2.25713 
45 1 9.22137 9.22205 1.54981 
22 1 6.22244 6.23743 6.25065 
23 1 7.76861 7.76749 7.76593 
24 1 7.05283 7.05808 7.06156 
34 1 10.1083 10.1115 10.1066 
35 1 8.59175 8.59039 8.59101 
36 1 9.30063 9.30414 9.30137 
ITEM: TIMESTEP
30
ITEM: NUMBER OF ATOMS
51
ITEM: BOX BOUNDS pp pp pp
0.0000000000000000e+00 1.1000000000000000e+01
0.0000000000000000e+00 1.1002000000000001e+01
0.0000000000000000e+00 1.1000000000000000e+01
ITEM: ATOMS id type x y z 
10 1 4.61347 4.60283 4.60019 
11 1 3.08486 3.08414 3.08479 
12 1 3.79879 3.79337 3.79238 
46 1 0.728125 0.725547 0.72545 
47 1 2.25969 2.25908 2.25979 
48 1 1.55112 1.54948 1.54991 
19 1 4.53701 4.5501 6.24694 
20 1 3.00976 3.00799 7.76555 
21 1 3.71932 3.72394 7.06041 
31 1 0.66269 0.667221 10.105 
32 1 2.18517 2.18426 8.59052 
33 1 1.47229 1.47372 9.30005 
16 1 4.51843 6.24894 4.56205 
17 1 3.01075 7.76681 3.00605 
18 1 3.71238 7.06079 3.72948 
25 1 0.66671 10.1055 0.666752 
26 1 2.18576 8.59092 2.18492 
27 1 1.47355 9.30072 1.4735 
4 1 4.6074 6.16914 6.16241 
5 1 3.08558 7.68424 7.68534 
6 1 3.79675 6.97633 6.97382 
37 1 0.729376 10.0454 10.0453 
38 1 2.25941 8.50916 8.50871 
39 1 1.55201 9.21948 9.21914 
13 1 6.16136 4.62088 4.57326 
14 1 7.77061 3.01678 2.9165 
15 1 7.14296 3.55412 3.80397 
28 1 10.0984 0.671731 0.675294 
29 1 8.57558 2.20423 2.15783 
30 1 9.29666 1.47754 1.46274 
49 2 7.30925 2.91749 4.70882 
50 2 8.71424 2.31991 4.4277 
51 3 9.25363 2.64385 5.13754 
1 1 6.15971 4.61819 6.15849 
2 1 7.67948 3.09099 7.68243 
3 1 6.97145 3.80256 6.97229 
40 1 10.0456 0.726931 10.0437 
41 1 8.50845 2.25951 8.50818 
42 1 9.21821 1.55169 9.21711 
7 1 6.17214 6.16122 4.60047 
8 1 7.68757 7.68739 3.08278 
9 1 6.97927 6.97391 3.79221 
43 1 10.0464 10.0457 0.729297 
44 1 8.51058 8.51128 2.25756 
45 1 9.22134 9.22136 1.55014 
22 1 6.22167 6.23809 6.25377 
23 1 7.76866 7.7673 7.7655 
24 1 7.05023 7.05718 7.06344 
34 1 10.1075 10.113 10.1065 
35 1 8.59172 8.59097 8.59106 
36 1 9.30181 9.30404 9.30086 
ITEM: TIMESTEP
40
ITEM: NUMBER OF ATOMS
51
ITEM: BOX BOUNDS pp pp pp
0.0000000000000000e+00 1.1000000000000000e+01
0.0000000000000000e+00 1.1002000000000001e+01
0.0000000000000000e+00 1.1000000000000000e+01
ITEM: ATOMS id type x y z 
10 1 4.62298 4.60397 4.60047 
11 1 3.08922 3.08618 3.08686 
12 1 3.80402 3.7937 3.79331 
46 1 0.73007 0.725698 0.725625 
47 1 2.26091 2.26066 2.26122 
48 1 1.55305 1.55107 1.55089 
19 1 4.53703 4.55098 6.25084 
20 1 3.01004 3.00846 7.76735 
21 1 3.71825 3.72625 7.06295 
31 1 0.659523 0.66988 10.1047 
32 1 2.18513 2.18325 8.58976 
33 1 1.47115 1.47409 9.29922 
16 1 4.51179 6.25706 4.57307 
17 1 3.00789 7.76818 3.00775 
18 1 3.70713 7.06502 3.73603 
25 1 0.666145 10.1069 0.66649 
26 1 2.18583 8.59042 2.18261 
27 1 1.47555 9.30134 1.47068 
4 1 4.60189 6.17465 6.16026 
5 1 3.08255 7.6872 7.68819 
6 1 3.7931 6.98007 6.97438 
37 1 0.729015 10.0456 10.045 
38 1 2.2586 8.51073 8.51077 
39 1 1.55084 9.22 9.22217 
13 1 6.16109 4.62121 4.56606 
14 1 7.76383 3.02603 2.89592 
15 1 7.15035 3.52646 3.81688 
28 1 10.1042 0.66729 0.673534 
29 1 8.56632 2.2193 2.12568 
30 1 9.29218 1.48432 1.44438 
49 2 7.31284 2.89281 4.72127 
50 2 8.74229 2.28624 4.4504 
51 3 9.26499 2.65123 5.15648 
1 1 6.15279 4.62649 6.15503 
2 1 7.67521 3.09561 7.67818 
3 1 6.96749 3.80753 6.97008 
40 1 10.046 0.726135 10.0389 
41 1 8.50602 2.26273 8.50601 
42 1 9.21658 1.55423 9.21292 
7 1 6.17276 6.15219 4.59861 
8 1 7.68626 7.6847 3.08361 
9 1 6.97994 6.96968 3.79132 
43 1 10.0472 10.0445 0.729082 
44 1 8.51042 8.51131 2.25886 
45 1 9.22128 9.2203 1.55089 
22 1 6.21922 6.23944 6.25652 
23 1 7.76674 7.76648 7.76734 
24 1 7.04802 7.05616 7.06577 
34 1 10.1059 10.1171 10.1036 
35 1 8.59261 8.59129 8.58947 
36 1 9.30077 9.30488 9.30056 
ITEM: TIMESTEP
50
ITEM: NUMBER OF ATOMS
51
ITEM: BOX BOUNDS pp pp pp
0.0000000000000000e+00 1.1000000000000000e+01
0.0000000000000000e+00 1.1002000000000001e+01
0.0000000000000000e+00 1.1000000000000000e+01
ITEM: ATOMS id type x y z 
10 1 4.65933 4.59702 4.60506 
11 1 3.10021 3.09437 3.09243 
12 1 3.83423 3.78941 3.78888 
46 1 0.730484 0.73404 0.723312 
47 1 2.26686 2.26367 2.26645 
48 1 1.55653 1.55897 1.55573 
19 1 4.53711 4.55452 6.24923 
20 1 3.00894 3.02236 7.77073 
21 1 3.74005 3.71686 7.06664 
31 1 0.647013 0.687702 10.11 
32 1 2.18772 2.18056 8.587 
33 1 1.45727 1.48748 9.29468 
16 1 4.50011 6.27102 4.60136 
17 1 2.99331 7.77118 3.02633 
18 1 3.71003 7.08232 3.75122 
25 1 0.668302 10.1162 0.663278 
26 1 2.19341 8.59007 2.16985 
27 1 1.45954 9.2984 1.48107 
4 1 4.57634 6.19746 6.14718 
5 1 3.07151 7.69802 7.70244 
6 1 3.77705 6.99778 6.97624 
37 1 0.725089 10.0463 10.0579 
38 1 2.25119 8.5128 8.52926 
39 1 1.54197 9.24116 9.22087 
13 1 6.17533 4.59957 4.53272 
14 1 7.73394 3.04516 2.85208 
15 1 7.15659 3.45262 3.85518 
28 1 10.1066 0.662714 0.66944 
29 1 8.5265 2.28805 2.00776 
30 1 9.26776 1.52724 1.37464 
49 2 7.32491 2.79389 4.76195 
50 2 8.87159 2.13986 4.54966 
51 3 9.30391 2.68254 5.22866 
1 1 6.13513 4.64915 6.15134 
2 1 7.6657 3.11392 7.66855 
3 1 6.94934 3.82395 6.96828 
40 1 10.0509 0.726352 10.0159 
41 1 8.49891 2.2756 8.49446 
42 1 9.20627 1.55969 9.19512 
7 1 6.18654 6.10965 4.59301 
8 1 7.68563 7.67467 3.08876 
9 1 6.97807 6.9479 3.78081 
43 1 10.0427 10.0526 0.725553 
44 1 8.51066 8.51076 2.25956 
45 1 9.22247 9.22204 1.55657 
22 1 6.22159 6.23474 6.2485 
23 1 7.7564 7.75963 7.77541 
24 1 7.04345 7.05161 7.06675 
34 1 10.0859 10.132 10.1031 
35 1 8.59087 8.58769 8.58678 
36 1 9.29366 9.31374 9.29027 
ITEM: TIMESTEP
60
ITEM: NUMBER OF ATOMS
51
ITEM: BOX BOUNDS pp pp pp
0.0000000000000000e+00 1.1000000000000000e+01
0.0000000000000000e+00 1.1002000000000001e+01
0.0000000000000000e+00 1.1000000000000000e+01
ITEM: ATOMS id type x y z 
10 1 4.66127 4.59085 4.60062 
11 1 3.1036 3.08945 3.08729 
12 1 3.82866 3.78818 3.79135 
46 1 0.723008 0.737749 0.725492 
47 1 2.26438 2.26427 2.2651 
48 1 1.55577 1.55788 1.55407 
19 1 4.54286 4.55206 6.24817 
20 1 3.01806 3.01248 7.77059 
21 1 3.73057 3.72616 7.06608 
31 1 0.646417 0.692705 10.1099 
32 1 2.18175 2.1894 8.585 
33 1 1.46561 1.48506 9.297 
16 1 4.5086 6.27215 4.5974 
17 1 3.00264 7.77536 3.02214 
18 1 3.69965 7.07801 3.75747 
25 1 0.662124 10.1152 0.665969 
26 1 2.18137 8.58881 2.18083 
27 1 1.47208 9.30098 1.47026 
4 1 4.57729 6.19918 6.14335 
5 1 3.07259 7.69789 7.7025 
6 1 3.77369 6.99625 6.97516 
37 1 0.721457 10.0528 10.0588 
38 1 2.24877 8.52164 8.52522 
39 1 1.54177 9.23368 9.23441 
13 1 6.17458 4.60041 4.53387 
14 1 7.73581 3.04095 2.85155 
15 1 7.15707 3.44554 3.8571 
28 1 10.1025 0.670516 0.668658 
29 1 8.52326 2.29185 2.00125 
30 1 9.26637 1.52861 1.37383 
49 2 7.32482 2.78911 4.75815 
50 2 8.89203 2.12682 4.56758 
51 3 9.30156 2.68173 5.22918 
1 1 6.13312 4.64823 6.15475 
2 1 7.6634 3.11279 7.67287 
3 1 6.95518 3.82581 6.96812 
40 1 10.044 0.726969 10.0156 
41 1 8.49693 2.27424 8.49405 
42 1 9.21146 1.56263 9.19178 
7 1 6.18802 6.10892 4.58809 
8 1 7.68481 7.67514 3.08104 
9 1 6.98808 6.94673 3.78399 
43 1 10.0389 10.0613 0.729384 
44 1 8.51398 8.51162 2.26244 
45 1 9.21781 9.22372 1.55226 
22 1 6.2212 6.23577 6.24704 
23 1 7.75685 7.75747 7.77348 
24 1 7.04302 7.04931 7.06442 
34 1 10.087 10.1316 10.102 
35 1 8.58931 8.59034 8.58503 
36 1 9.28993 9.31075 9.29631 
ITEM: TIMESTEP
70
ITEM: NUMBER OF ATOMS
51
ITEM: BOX BOUNDS pp pp pp
0.0000000000000000e+00 1.1000000000000000e+01
0.0000000000000000e+00 1.1002000000000001e+01
0.0000000000000000e+00 1.1000000000000000e+01
ITEM: ATOMS id type x y z 
10 1 4.66148 4.58795 4.5998 
11 1 3.10361 3.08716 3.08625 
12 1 3.82821 3.78656 3.7903 
46 1 0.721194 0.739432 0.725061 
47 1 2.26517 2.26315 2.26345 
48 1 1.55204 1.55983 1.55362 
19 1 4.54226 4.55311 6.24767 
20 1 3.01994 3.01239 7.7698 
21 1 3.72865 3.72793 7.06314 
31 1 0.647819 0.693935 10.1101 
32 1 2.18328 2.18875 8.58541 
33 1 1.46457 1.48858 9.29912 
16 1 4.50925 6.27139 4.59702 
17 1 3.00093 7.77537 3.02485 
18 1 3.70154 7.07688 3.75551 
25 1 0.661855 10.1142 0.665212 
26 1 2.18109 8.59019 2.18079 
27 1 1.47094 9.30282 1.47142 
4 1 4.57749 6.19865 6.14077 
5 1 3.07162 7.69774 7.7006 
6 1 3.77466 6.99806 6.97384 
37 1 0.721099 10.0528 10.0613 
38 1 2.24954 8.52199 8.52571 
39 1 1.54138 9.23182 9.23685 
13 1 6.17439 4.59877 4.53397 
14 1 7.73514 3.03984 2.85388 
15 1 7.15464 3.44654 3.85821 
28 1 10.1005 0.674113 0.666685 
29 1 8.52162 2.2929 2.00286 
30 1 9.26469 1.53097 1.37326 
49 2 7.32417 2.7876 4.75597 
50 2 8.90133 2.11645 4.57373 
51 3 9.30149 2.68446 5.23258 
1 1 6.13552 4.64779 6.15635 
2 1 7.66454 3.11286 7.67386 
3 1 6.95415 3.8254 6.97018 
40 1 10.0448 0.727198 10.0141 
41 1 8.49862 2.27439 8.49294 
42 1 9.21014 1.5619 9.19348 
7 1 6.19119 6.10941 4.58685 
8 1 7.68762 7.67482 3.08064 
9 1 6.9902 6.94451 3.78151 
43 1 10.0369 10.0626 0.729483 
44 1 8.51367 8.51171 2.26023 
45 1 9.21734 9.22832 1.55308 
22 1 6.21988 6.2356 6.24581 
23 1 7.75793 7.75684 7.77224 
24 1 7.04338 7.04978 7.06318 
34 1 10.0857 10.131 10.1025 
35 1 8.58734 8.5897 8.5863 
36 1 9.28851 9.31087 9.2965 
ITEM: TIMESTEP
80
ITEM: NUMBER OF ATOMS
51
ITEM: BOX BOUNDS pp pp pp
0.0000000000000000e+00 1.1000000000000000e+01
0.0000000000000000e+00 1.1002000000000001e+01
0.0000000000000000e+00 1.1000000000000000e+01
ITEM: ATOMS id type x y z 
10 1 4.65911 4.57326 4.59629 
11 1 3.1053 3.07535 3.07968 
12 1 3.82812 3.77484 3.78651 
46 1 0.704932 0.756345 0.720669 
47 1 2.26297 2.26324 2.25623 
48 1 1.54355 1.5628 1.54902 
19 1 4.54024 4.55792 6.23863 
20 1 3.02374 3.01226 7.76336 
21 1 3.72248 3.73281 7.05287 
31 1 0.652543 0.704612 10.1154 
32 1 2.19052 2.19562 8.58995 
33 1 1.47055 1.49667 9.30426 
16 1 4.51907 6.26527 4.58407 
17 1 2.99443 7.7767 3.03344 
18 1 3.70435 7.07262 3.75021 
25 1 0.657525 10.1095 0.659178 
26 1 2.17891 8.59969 2.18968 
27 1 1.46782 9.30528 1.47441 
4 1 4.5751 6.2036 6.12442 
5 1 3.06765 7.70426 7.68784 
6 1 3.77585 7.00013 6.97154 
37 1 0.718723 10.0486 10.0787 
38 1 2.24944 8.52176 8.53265 
39 1 1.54185 9.2271 9.2476 
13 1 6.17464 4.59525 4.53499 
14 1 7.72926 3.03609 2.86762 
15 1 7.14234 3.448 3.86644 
28 1 10.0857 0.696286 0.656643 
29 1 8.51225 2.29939 2.01053 
30 1 9.25366 1.54447 1.37049 
49 2 7.32068 2.77545 4.74448 
50 2 8.96518 2.05094 4.61857 
51 3 9.29809 2.69926 5.25112 
1 1 6.13948 4.64759 6.16837 
2 1 7.66558 3.11327 7.68116 
3 1 6.95581 3.82759 6.97672 
40 1 10.0431 0.726243 10.0085 
41 1 8.49886 2.27549 8.49199 
42 1 9.21546 1.56212 9.18892 
7 1 6.20525 6.1077 4.57871 
8 1 7.70234 7.67078 3.07457 
9 1 7.00791 6.93146 3.76995 
43 1 10.0259 10.0792 0.731502 
44 1 8.51163 8.52041 2.25647 
45 1 9.21129 9.23893 1.54649 
22 1 6.22057 6.23406 6.23637 
23 1 7.76146 7.75458 7.76467 
24 1 7.04649 7.04875 7.05522 
34 1 10.0795 10.1272 10.1067 
35 1 8.57698 8.58834 8.59237 
36 1 9.28081 9.308 9.30185 
ITEM: TIMESTEP
90
ITEM: NUMBER OF ATOMS
51
ITEM: BOX BOUNDS pp pp pp
0.0000000000000000e+00 1.1000000000000000e+01
0.0000000000000000e+00 1.1002000000000001e+01
0.0000000000000000e+00 1.1000000000000000e+01
ITEM: ATOMS id type x y z 
10 1 4.65879 4.5755 4.59746 
11 1 3.10532 3.07624 3.08059 
12 1 3.83146 3.77365 3.7858 
46 1 0.705925 0.75669 0.717877 
47 1 2.26283 2.26208 2.25774 
48 1 1.5433 1.56628 1.54586 
19 1 4.5386 4.55796 6.23786 
20 1 3.02025 3.01395 7.7633 
21 1 3.72608 3.73041 7.05512 
31 1 0.652625 0.704441 10.1173 
32 1 2.19036 2.19461 8.59027 
33 1 1.47067 1.49681 9.30548 
16 1 4.51807 6.26604 4.58489 
17 1 2.99598 7.77676 3.03105 
18 1 3.70267 7.07537 3.75333 
25 1 0.65816 10.1077 0.658409 
26 1 2.17751 8.59923 2.19095 
27 1 1.46721 9.30514 1.47503 
4 1 4.57456 6.20483 6.12481 
5 1 3.07086 7.70183 7.69279 
6 1 3.77112 7.00468 6.96148 
37 1 0.720962 10.0469 10.0784 
38 1 2.24933 8.52093 8.5314 
39 1 1.54321 9.2263 9.24715 
13 1 6.17456 4.59446 4.53399 
14 1 7.72787 3.03829 2.86656 
15 1 7.1436 3.44502 3.86887 
28 1 10.0854 0.696073 0.656196 
29 1 8.51093 2.30083 2.00986 
30 1 9.25307 1.5452 1.37104 
49 2 7.32134 2.77124 4.74707 
50 2 8.97346 2.04603 4.62613 
51 3 9.2955 2.69864 5.25048 
1 1 6.13701 4.65145 6.16736 
2 1 7.66456 3.11516 7.67961 
3 1 6.95355 3.82932 6.97695 
40 1 10.0457 0.726253 10.0051 
41 1 8.49988 2.27656 8.49118 
42 1 9.21276 1.56152 9.18872 
7 1 6.20531 6.10426 4.57661 
8 1 7.70354 7.66686 3.07257 
9 1 7.00578 6.93545 3.77292 
43 1 10.0252 10.0783 0.72782 
44 1 8.51154 8.51866 2.25527 
45 1 9.21085 9.24178 1.54965 
22 1 6.22295 6.23352 6.23653 
23 1 7.76042 7.75536 7.7656 
24 1 7.04667 7.04878 7.0556 
34 1 10.079 10.1273 10.1079 
35 1 8.5784 8.58767 8.59213 
36 1 9.28021 9.30867 9.30194 
ITEM: TIMESTEP
100
ITEM: NUMBER OF ATOMS
51
ITEM: BOX BOUNDS pp pp pp
0.0000000000000000e+00 1.1000000000000000e+01
0.0000000000000000e+00 1.1002000000000001e+01
0.0000000000000000e+00 1.1000000000000000e+01
ITEM: ATOMS id type x y z 
10 1 4.65961 4.57512 4.59735 
11 1 3.10649 3.07579 3.08022 
12 1 3.83029 3.77418 3.78685 
46 1 0.705865 0.757136 0.717316 
47 1 2.2628 2.26231 2.25756 
48 1 1.54317 1.56668 1.54574 
19 1 4.53865 4.55759 6.23797 
20 1 3.02053 3.01395 7.76346 
21 1 3.72561 3.73098 7.05499 
31 1 0.652805 0.704469 10.1176 
32 1 2.19041 2.19463 8.59036 
33 1 1.4706 1.4969 9.30555 
16 1 4.51763 6.26673 4.58521 
17 1 2.99577 7.77734 3.03108 
18 1 3.70274 7.07572 3.75297 
25 1 0.658173 10.1073 0.657796 
26 1 2.17696 8.59946 2.19138 
27 1 1.46703 9.30478 1.47451 
4 1 4.574 6.20558 6.12389 
5 1 3.0706 7.70218 7.69228 
6 1 3.77113 7.00473 6.96149 
37 1 0.721692 10.0463 10.0789 
38 1 2.24976 8.52059 8.53153 
39 1 1.5432 9.22599 9.24706 
13 1 6.1746 4.59437 4.53325 
14 1 7.7276 3.03875 2.86633 
15 1 7.14403 3.44399 3.86962 
28 1 10.0853 0.696174 0.655706 
29 1 8.51081 2.30127 2.00928 
30 1 9.25283 1.54493 1.37129 
49 2 7.32162 2.76971 4.74791 
50 2 8.97623 2.04334 4.62822 
51 3 9.29489 2.69921 5.25102 
1 1 6.13603 4.65239 6.16772 
2 1 7.66414 3.11553 7.67957 
3 1 6.95365 3.83001 6.97681 
40 1 10.0458 0.725988 10.0045 
41 1 8.49972 2.27666 8.49082 
42 1 9.21257 1.56178 9.18864 
7 1 6.2056 6.10352 4.57631 
8 1 7.70368 7.666 3.07218 
9 1 7.0053 6.93613 3.77343 
43 1 10.0246 10.0792 0.727755 
44 1 8.51168 8.51905 2.25532 
45 1 9.21107 9.24113 1.54913 
22 1 6.22326 6.23343 6.23636 
23 1 7.76019 7.75541 7.76576 
24 1 7.0466 7.04875 7.05572 
34 1 10.0786 10.1276 10.1082 
35 1 8.57841 8.58774 8.59224 
36 1 9.28064 9.30857 9.30181 
ITEM: TIMESTEP
110
ITEM: NUMBER OF ATOMS
51
ITEM: BOX BOUNDS pp pp pp
0.0000000000000000e+00 1.1000000000000000e+01
0.0000000000000000e+00 1.1002000000000001e+01
0.0000000000000000e+00 1.1000000000000000e+01
ITEM: ATOMS id type x y z 
10 1 4.65985 4.57505 4.59753 
11 1 3.1068 3.07569 3.08024 
12 1 3.8303 3.77415 3.78706 
46 1 0.705782 0.757486 0.716943 
47 1 2.26277 2.26245 2.25743 
48 1 1.54319 1.56695 1.54552 
19 1 4.53852 4.55755 6.23792 
20 1 3.02049 3.01413 7.76357 
21 1 3.72558 3.73095 7.05502 
31 1 0.652925 0.704544 10.1179 
32 1 2.19043 2.19457 8.59047 
33 1 1.47053 1.49693 9.30564 
16 1 4.51749 6.26715 4.58527 
17 1 2.99582 7.77767 3.03103 
18 1 3.70253 7.07604 3.75303 
25 1 0.658264 10.1071 0.657295 
26 1 2.17662 8.59964 2.19161 
27 1 1.46675 9.30456 1.47427 
4 1 4.57361 6.20603 6.12332 
5 1 3.07051 7.70226 7.69212 
6 1 3.77098 7.00505 6.96101 
37 1 0.722147 10.0459 10.0792 
38 1 2.24993 8.52031 8.53153 
39 1 1.54349 9.22582 9.24718 
13 1 6.17454 4.59433 4.53267 
14 1 7.72742 3.03905 2.86622 
15 1 7.14432 3.44326 3.87021 
28 1 10.0852 0.696171 0.655541 
29 1 8.51067 2.30146 2.00905 
30 1 9.25267 1.54509 1.37112 
49 2 7.32184 2.76853 4.74853 
50 2 8.97842 2.04121 4.62988 
51 3 9.29438 2.69966 5.25143 
1 1 6.13547 4.65301 6.16798 
2 1 7.66393 3.11588 7.67948 
3 1 6.95348 3.83042 6.97682 
40 1 10.0459 0.725847 10.004 
41 1 8.49966 2.27676 8.49071 
42 1 9.21242 1.56182 9.18837 
7 1 6.20576 6.10293 4.57611 
8 1 7.70382 7.66553 3.07194 
9 1 7.00499 6.93655 3.77362 
43 1 10.0242 10.0798 0.727649 
44 1 8.51179 8.51909 2.25529 
45 1 9.21116 9.24086 1.54887 
22 1 6.22347 6.2334 6.23626 
23 1 7.76008 7.75547 7.76595 
24 1 7.04658 7.04875 7.05578 
34 1 10.0784 10.1278 10.1083 
35 1 8.57856 8.58772 8.59224 
36 1 9.28064 9.30862 9.30187 
ITEM: TIMESTEP
120
ITEM: NUMBER OF ATOMS
51
ITEM: BOX BOUNDS pp pp pp
0.0000000000000000e+00 1.1000000000000000e+01
0.0000000000000000e+00 1.1002000000000001e+01
0.0000000000000000e+00 1.1000000000000000e+01
ITEM: ATOMS id type x y z 
10 1 4.66122 4.57437 4.59897 
11 1 3.10733 3.0752 3.08088 
12 1 3.83241 3.77275 3.78669 
46 1 0.705185 0.759673 0.71472 
47 1 2.26281 2.26318 2.25633 
48 1 1.5424 1.56901 1.5443 
19 1 4.53752 4.55755 6.23728 
20 1 3.01979 3.0151 7.76413 
21 1 3.72627 3.73058 7.05564 
31 1 0.653299 0.705244 10.1194 
32 1 2.19045 2.19438 8.59049 
33 1 1.47085 1.49773 9.30677 
16 1 4.51666 6.26978 4.5851 
17 1 2.99546 7.78002 3.03079 
18 1 3.7017 7.07804 3.75317 
25 1 0.658432 10.1055 0.653955 
26 1 2.17408 8.60023 2.19268 
27 1 1.46582 9.30439 1.47292 
4 1 4.57166 6.20889 6.11994 
5 1 3.06996 7.70327 7.69063 
6 1 3.77007 7.00642 6.95859 
37 1 0.724529 10.0441 10.0806 
38 1 2.25064 8.51931 8.53122 
39 1 1.54528 9.22371 9.24942 
13 1 6.1739 4.59413 4.52996 
14 1 7.72641 3.04031 2.8665 
15 1 7.14573 3.43926 3.8738 
28 1 10.0847 0.696631 0.654551 
29 1 8.50963 2.30291 2.0077 
30 1 9.25147 1.54614 1.37023 
49 2 7.32325 2.76129 4.75198 
50 2 8.99271 2.02755 4.64073 
51 3 9.29094 2.70244 5.25399 
1 1 6.13267 4.65623 6.16884 
2 1 7.66285 3.11787 7.67878 
3 1 6.95234 3.83369 6.9778 
40 1 10.0461 0.724948 10.0015 
41 1 8.49916 2.27765 8.49012 
42 1 9.21167 1.56127 9.18606 
7 1 6.20639 6.10052 4.57553 
8 1 7.70385 7.66485 3.07155 
9 1 7.00517 6.93537 3.77261 
43 1 10.022 10.0822 0.726596 
44 1 8.51276 8.51788 2.25462 
45 1 9.21048 9.24124 1.54822 
22 1 6.2246 6.23328 6.23543 
23 1 7.75955 7.75576 7.76674 
24 1 7.04652 7.04866 7.05642 
34 1 10.0768 10.1299 10.1086 
35 1 8.57931 8.58742 8.5924 
36 1 9.28026 9.30921 9.30216 
ITEM: TIMESTEP
130
ITEM: NUMBER OF ATOMS
51
ITEM: BOX BOUNDS pp pp pp
0.0000000000000000e+00 1.1000000000000000e+01
0.0000000000000000e+00 1.1002000000000001e+01
0.0000000000000000e+00 1.1000000000000000e+01
ITEM: ATOMS id type x y z 
10 1 4.66172 4.574 4.59877 
11 1 3.10787 3.075 3.08053 
12 1 3.83169 3.77286 3.78732 
46 1 0.704808 0.760196 0.714602 
47 1 2.2626 2.2635 2.25637 
48 1 1.54282 1.56887 1.54399 
19 1 4.53774 4.55748 6.23726 
20 1 3.02018 3.01498 7.76428 
21 1 3.72567 3.73103 7.05532 
31 1 0.653335 0.705509 10.1196 
32 1 2.19047 2.19463 8.59071 
33 1 1.47087 1.49745 9.30653 
16 1 4.51653 6.26986 4.58511 
17 1 2.99516 7.78011 3.03098 
18 1 3.70199 7.07848 3.75302 
25 1 0.658527 10.1054 0.653466 
26 1 2.17406 8.60043 2.19267 
27 1 1.46542 9.30411 1.47287 
4 1 4.57156 6.20897 6.11962 
5 1 3.06991 7.70327 7.6905 
6 1 3.76994 7.0067 6.95816 
37 1 0.724783 10.0438 10.0812 
38 1 2.25076 8.51909 8.53174 
39 1 1.54518 9.224 9.249 
13 1 6.17394 4.59394 4.52982 
14 1 7.7264 3.04022 2.86671 
15 1 7.1458 3.43892 3.87424 
28 1 10.0845 0.696598 0.65467 
29 1 8.50949 2.30301 2.00774 
30 1 9.25131 1.54651 1.36991 
49 2 7.32341 2.76059 4.75219 
50 2 8.9944 2.02599 4.64201 
51 3 9.29047 2.70273 5.25425 
1 1 6.13259 4.65675 6.16917 
2 1 7.66295 3.11844 7.67899 
3 1 6.95194 3.83326 6.97753 
40 1 10.046 0.724588 10.001 
41 1 8.49892 2.27751 8.48976 
42 1 9.21184 1.56174 9.18618 
7 1 6.20637 6.10035 4.57523 
8 1 7.70378 7.66478 3.07132 
9 1 7.00552 6.93519 3.77271 
43 1 10.0217 10.0825 0.726572 
44 1 8.51284 8.51788 2.2545 
45 1 9.21044 9.24127 1.54809 
22 1 6.22454 6.23332 6.23557 
23 1 7.75938 7.75559 7.767 
24 1 7.04678 7.04885 7.05603 
34 1 10.0766 10.1301 10.1086 
35 1 8.57933 8.58736 8.59247 
36 1 9.28015 9.30939 9.3021 
ITEM: TIMESTEP
140
ITEM: NUMBER OF ATOMS
51
ITEM: BOX BOUNDS pp pp pp
0.0000000000000000e+00 1.1000000000000000e+01
0.0000000000000000e+00 1.1002000000000001e+01
0.0000000000000000e+00 1.1000000000000000e+01
ITEM: ATOMS id type x y z 
10 1 4.66185 4.57378 4.5988 
11 1 3.10799 3.07491 3.08049 
12 1 3.83165 3.77281 3.78741 
46 1 0.704627 0.760541 0.714382 
47 1 2.26263 2.26355 2.25624 
48 1 1.54275 1.56907 1.54383 
19 1 4.53784 4.55744 6.23722 
20 1 3.02045 3.01492 7.76438 
21 1 3.7252 3.73135 7.05511 
31 1 0.653395 0.705656 10.1198 
32 1 2.19054 2.19467 8.59079 
33 1 1.47085 1.49754 9.30655 
16 1 4.51663 6.27 4.58506 
17 1 2.9951 7.78028 3.03108 
18 1 3.70195 7.07866 3.7531 
25 1 0.658493 10.1052 0.653122 
26 1 2.1739 8.60048 2.19271 
27 1 1.46531 9.30406 1.47278 
4 1 4.57146 6.20916 6.11917 
5 1 3.06985 7.70337 7.6903 
6 1 3.76986 7.00679 6.95795 
37 1 0.725025 10.0435 10.0816 
38 1 2.25091 8.51891 8.53201 
39 1 1.54512 9.22413 9.24883 
13 1 6.174 4.59385 4.52965 
14 1 7.72639 3.04014 2.86693 
15 1 7.14588 3.43861 3.87464 
28 1 10.0844 0.696728 0.654569 
29 1 8.50931 2.30326 2.00749 
30 1 9.25126 1.54651 1.37014 
49 2 7.32357 2.75994 4.75238 
50 2 8.99599 2.02451 4.64323 
51 3 9.29003 2.70301 5.25449 
1 1 6.13242 4.65695 6.16932 
2 1 7.66288 3.11856 7.67898 
3 1 6.95186 3.8335 6.97764 
40 1 10.0459 0.724471 10.0007 
41 1 8.49884 2.27758 8.48964 
42 1 9.21181 1.56183 9.18597 
7 1 6.20639 6.10016 4.57509 
8 1 7.70382 7.6647 3.07122 
9 1 7.00566 6.93502 3.77261 
43 1 10.0215 10.0828 0.726551 
44 1 8.51292 8.51784 2.25439 
45 1 9.21037 9.24136 1.54799 
22 1 6.22452 6.23348 6.23543 
23 1 7.75932 7.75561 7.76703 
24 1 7.04685 7.04868 7.05604 
34 1 10.0763 10.1303 10.1086 
35 1 8.57927 8.58736 8.59253 
36 1 9.28016 9.30943 9.30206 
ITEM: TIMESTEP
150
ITEM: NUMBER OF ATOMS
51
ITEM: BOX BOUNDS pp pp pp
0.0000000000000000e+00 1.1000000000000000e+01
0.0000000000000000e+00 1.1002000000000001e+01
0.0000000000000000e+00 1.1000000000000000e+01
ITEM: ATOMS id type x y z 
10 1 4.66904 4.56216 4.60147 
11 1 3.11068 3.07166 3.07965 
12 1 3.83628 3.76576 3.7884 
46 1 0.695018 0.779379 0.703035 
47 1 2.26526 2.26622 2.25014 
48 1 1.53759 1.58112 1.53568 
19 1 4.532 4.56135 6.23083 
20 1 3.02127 3.01841 7.76532 
21 1 3.72258 3.73473 7.05299 
31 1 0.653509 0.714556 10.1273 
32 1 2.19336 2.19703 8.59336 
33 1 1.47383 1.50225 9.3111 
16 1 4.52122 6.27854 4.57944 
17 1 2.99103 7.7911 3.03599 
18 1 3.69871 7.08751 3.75482 
25 1 0.659343 10.0962 0.634902 
26 1 2.16895 8.60509 2.19355 
27 1 1.45383 9.29835 1.4702 
4 1 4.56728 6.21785 6.10193 
5 1 3.06596 7.70496 7.68208 
6 1 3.76766 7.01699 6.94375 
37 1 0.732716 10.0381 10.0915 
38 1 2.25234 8.51761 8.53458 
39 1 1.55316 9.21633 9.26062 
13 1 6.17483 4.58876 4.5221 
14 1 7.72544 3.03626 2.87987 
15 1 7.1498 3.42239 3.89561 
28 1 10.0779 0.697968 0.658382 
29 1 8.50225 2.30981 2.0057 
30 1 9.24447 1.5585 1.36234 
49 2 7.33198 2.72538 4.76235 
50 2 9.08059 1.94603 4.70782 
51 3 9.26606 2.7177 5.26727 
1 1 6.12492 4.66823 6.17504 
2 1 7.65849 3.12387 7.67746 
3 1 6.94902 3.85008 6.98634 
40 1 10.0446 0.719292 9.98373 
41 1 8.49519 2.28281 8.48555 
42 1 9.21167 1.56094 9.17234 
7 1 6.20835 6.09007 4.567 
8 1 7.70453 7.66063 3.06377 
9 1 7.01721 6.92622 3.77001 
43 1 10.0092 10.0978 0.724461 
44 1 8.51575 8.5145 2.24879 
45 1 9.206 9.24704 1.54404 
22 1 6.22803 6.23577 6.22709 
23 1 7.76025 7.75031 7.76596 
24 1 7.04018 7.05012 7.05906 
34 1 10.0632 10.1447 10.1063 
35 1 8.57919 8.58611 8.59282 
36 1 9.27326 9.31244 9.30418 
ITEM: TIMESTEP
160
ITEM: NUMBER OF ATOMS
51
ITEM: BOX BOUNDS pp pp pp
0.0000000000000000e+00 1.1000000000000000e+01
0.0000000000000000e+00 1.1002000000000001e+01
0.0000000000000000e+00 1.1000000000000000e+01
ITEM: ATOMS id type x y z 
10 1 4.66886 4.56237 4.60191 
11 1 3.11069 3.07104 3.07918 
12 1 3.83643 3.76486 3.78769 
46 1 0.693232 0.780836 0.70349 
47 1 2.26391 2.26692 2.24953 
48 1 1.53811 1.5807 1.53517 
19 1 4.53258 4.56109 6.23047 
20 1 3.02138 3.01879 7.76495 
21 1 3.72299 3.7347 7.05245 
31 1 0.653835 0.715211 10.1269 
32 1 2.1942 2.1977 8.59342 
33 1 1.47361 1.50353 9.31073 
16 1 4.521 6.2779 4.57748 
17 1 2.9906 7.79048 3.03681 
18 1 3.70139 7.08797 3.75434 
25 1 0.656219 10.0949 0.63651 
26 1 2.16585 8.60353 2.19543 
27 1 1.45887 9.30043 1.46756 
4 1 4.56652 6.2197 6.10148 
5 1 3.06669 7.70741 7.68103 
6 1 3.76588 7.0142 6.94492 
37 1 0.732099 10.0378 10.0924 
38 1 2.25353 8.5161 8.53532 
39 1 1.55188 9.21776 9.25955 
13 1 6.17507 4.58824 4.52329 
14 1 7.72546 3.03545 2.88168 
15 1 7.14962 3.4224 3.89676 
28 1 10.0792 0.699488 0.658563 
29 1 8.50282 2.31119 2.00568 
30 1 9.24283 1.55646 1.36404 
49 2 7.33257 2.72452 4.76227 
50 2 9.08512 1.94598 4.71313 
51 3 9.26359 2.71489 5.26526 
1 1 6.12553 4.66888 6.17571 
2 1 7.65874 3.12723 7.6797 
3 1 6.94754 3.84682 6.98347 
40 1 10.0451 0.71839 9.98162 
41 1 8.49613 2.28167 8.48375 
42 1 9.21032 1.56111 9.17392 
7 1 6.21078 6.09016 4.56642 
8 1 7.70848 7.65946 3.06604 
9 1 7.01217 6.9261 3.76507 
43 1 10.0098 10.0989 0.725131 
44 1 8.51463 8.51515 2.24844 
45 1 9.20543 9.24698 1.54435 
22 1 6.22555 6.23593 6.22927 
23 1 7.75856 7.7525 7.7692 
24 1 7.04576 7.04893 7.05549 
34 1 10.0624 10.1451 10.1058 
35 1 8.57849 8.58466 8.59385 
36 1 9.27305 9.31451 9.30139 
ITEM: TIMESTEP
170
ITEM: NUMBER OF ATOMS
51
ITEM: BOX BOUNDS pp pp pp
0.0000000000000000e+00 1.1000000000000000e+01
0.0000000000000000e+00 1.1002000000000001e+01
0.0000000000000000e+00 1.1000000000000000e+01
ITEM: ATOMS id type x y z 
10 1 4.6688 4.56224 4.60186 
11 1 3.11098 3.07081 3.07901 
12 1 3.83614 3.76498 3.78778 
46 1 0.692767 0.781251 0.703372 
47 1 2.26371 2.26709 2.24935 
48 1 1.538 1.5807 1.5351 
19 1 4.53254 4.5611 6.23027 
20 1 3.02146 3.01886 7.76487 
21 1 3.72306 3.73481 7.05227 