ITEM: TIMESTEP
0
ITEM: NUMBER OF ATOMS
50
ITEM: BOX BOUNDS pp pp pp
0.0000000000000000e+00 1.1000000000000000e+01
0.0000000000000000e+00 1.1002000000000001e+01
0.0000000000000000e+00 1.1000000000000000e+01
ITEM: ATOMS id type x y z 
10 1 4.603 4.603 4.603 
11 1 3.085 3.085 3.085 
12 1 3.796 3.796 3.796 
46 1 0.726 0.725 0.725 
47 1 2.26 2.259 2.26 
48 1 1.551 1.55 1.55 
19 1 4.546 4.545 6.226 
20 1 3.013 3.013 7.764 
21 1 3.721 3.721 7.053 
31 1 0.668 0.667 10.103 
32 1 2.187 2.187 8.589 
33 1 1.476 1.475 9.298 
16 1 4.546 6.225 4.546 
17 1 3.013 7.765 3.013 
18 1 3.721 7.053 3.722 
25 1 0.668 10.103 0.668 
26 1 2.188 8.589 2.188 
27 1 1.476 9.298 1.476 
4 1 4.608 6.169 6.169 
5 1 3.086 7.684 7.684 
6 1 3.799 6.974 6.974 
37 1 0.729 10.046 10.046 
38 1 2.259 8.509 8.508 
39 1 1.552 9.219 9.219 
49 2 2.078 8.71 10.358 
50 3 3.054 8.71 10.358 
13 1 6.225 4.546 4.546 
14 1 7.764 3.013 3.013 
15 1 7.053 3.721 3.722 
28 1 10.102 0.667 0.668 
29 1 8.589 2.187 2.188 
30 1 9.298 1.475 1.476 
1 1 6.168 4.608 6.169 
2 1 7.684 3.086 7.684 
3 1 6.974 3.799 6.974 
40 1 10.045 0.728 10.046 
41 1 8.508 2.259 8.508 
42 1 9.218 1.551 9.218 
7 1 6.169 6.169 4.608 
8 1 7.684 7.684 3.086 
9 1 6.974 6.974 3.799 
43 1 10.046 10.047 0.729 
44 1 8.508 8.509 2.259 
45 1 9.219 9.219 1.552 
22 1 6.229 6.229 6.229 
23 1 7.764 7.765 7.765 
24 1 7.055 7.056 7.055 
34 1 10.108 10.108 10.107 
35 1 8.59 8.59 8.59 
36 1 9.301 9.301 9.3 
ITEM: TIMESTEP
10
ITEM: NUMBER OF ATOMS
50
ITEM: BOX BOUNDS pp pp pp
0.0000000000000000e+00 1.1000000000000000e+01
0.0000000000000000e+00 1.1002000000000001e+01
0.0000000000000000e+00 1.1000000000000000e+01
ITEM: ATOMS id type x y z 
10 1 4.59461 4.59507 4.59517 
11 1 3.08171 3.08146 3.08202 
12 1 3.7899 3.79019 3.7892 
46 1 0.734653 0.73711 0.741736 
47 1 2.27216 2.27055 2.27045 
48 1 1.56254 1.56283 1.5648 
19 1 4.53652 4.53563 6.23535 
20 1 3.00282 3.00295 7.77401 
21 1 3.70994 3.70952 7.06448 
31 1 0.675728 0.674433 10.094 
32 1 2.19152 2.1912 8.58472 
33 1 1.4832 1.4832 9.29037 
16 1 4.53642 6.23489 4.53619 
17 1 3.00392 7.7737 3.00441 
18 1 3.70946 7.06535 3.70935 
25 1 0.674356 10.0969 0.672003 
26 1 2.18933 8.58654 2.19202 
27 1 1.48085 9.29324 1.48404 
4 1 4.59679 6.17762 6.17896 
5 1 3.07929 7.69974 7.69259 
6 1 3.78762 6.9862 6.98503 
37 1 0.697178 10.0813 10.0477 
38 1 2.27603 8.49832 8.49378 
39 1 1.52013 9.19463 9.08147 
49 2 2.12476 8.66446 10.4261 
50 3 3.11711 8.6845 10.3869 
13 1 6.23499 4.53665 4.53668 
14 1 7.77363 3.00326 3.00373 
15 1 7.06522 3.70897 3.70921 
28 1 10.0937 0.675252 0.676902 
29 1 8.58539 2.1905 2.19136 
30 1 9.29174 1.4814 1.48267 
1 1 6.1761 4.59968 6.17726 
2 1 7.68718 3.08247 7.6875 
3 1 6.98073 3.79264 6.98011 
40 1 10.0267 0.745892 10.0377 
41 1 8.49691 2.26995 8.49542 
42 1 9.20459 1.56499 9.20747 
7 1 6.17654 6.17699 4.59986 
8 1 7.68771 7.68757 3.08242 
9 1 6.98046 6.98078 3.79201 
43 1 10.0338 10.0379 0.745233 
44 1 8.49713 8.49715 2.26935 
45 1 9.2065 9.20832 1.56573 
22 1 6.23886 6.23868 6.23829 
23 1 7.77261 7.77375 7.77353 
24 1 7.06622 7.06675 7.06629 
34 1 10.1001 10.1004 10.098 
35 1 8.58579 8.58569 8.5858 
36 1 9.29288 9.29372 9.29253 
ITEM: TIMESTEP
20
ITEM: NUMBER OF ATOMS
50
ITEM: BOX BOUNDS pp pp pp
0.0000000000000000e+00 1.1000000000000000e+01
0.0000000000000000e+00 1.1002000000000001e+01
0.0000000000000000e+00 1.1000000000000000e+01
ITEM: ATOMS id type x y z 
10 1 4.5946 4.59143 4.59566 
11 1 3.0829 3.08279 3.08225 
12 1 3.79046 3.78988 3.79162 
46 1 0.73069 0.734927 0.742602 
47 1 2.27225 2.27069 2.27 
48 1 1.56199 1.5629 1.56546 
19 1 4.5354 4.53509 6.2362 
20 1 3.00246 3.00277 7.77439 
21 1 3.70993 3.70989 7.06422 
31 1 0.672623 0.668896 10.0978 
32 1 2.19072 2.19181 8.58605 
33 1 1.48328 1.47929 9.28962 
16 1 4.53365 6.2384 4.53387 
17 1 2.9984 7.77908 2.99917 
18 1 3.70774 7.06765 3.70735 
25 1 0.67488 10.0977 0.659732 
26 1 2.18485 8.58864 2.19317 
27 1 1.47944 9.29621 1.48154 
4 1 4.59725 6.17583 6.18103 
5 1 3.09345 7.68974 7.67952 
6 1 3.79949 6.9774 6.97561 
37 1 0.718606 10.0537 10.0144 
38 1 2.24898 8.51838 8.50662 
39 1 1.4053 9.2818 8.97869 
49 2 2.20358 8.61198 10.5541 
50 3 3.1412 8.66792 10.412 
13 1 6.23736 4.5346 4.53402 
14 1 7.77581 3.00054 3.00123 
15 1 7.06522 3.70917 3.70902 
28 1 10.098 0.673458 0.675657 
29 1 8.5856 2.19023 2.19113 
30 1 9.2922 1.48162 1.48298 
1 1 6.17584 4.59797 6.17758 
2 1 7.68702 3.08318 7.68603 
3 1 6.97854 3.79295 6.98014 
40 1 10.025 0.747703 10.0444 
41 1 8.49619 2.27113 8.49359 
42 1 9.20278 1.56704 9.20822 
7 1 6.17972 6.17731 4.59769 
8 1 7.68655 7.68698 3.08273 
9 1 6.97985 6.97981 3.79292 
43 1 10.0353 10.041 0.746093 
44 1 8.49704 8.49665 2.26988 
45 1 9.20674 9.20863 1.56652 
22 1 6.23929 6.24049 6.23976 
23 1 7.77443 7.77567 7.7754 
24 1 7.06514 7.0664 7.0659 
34 1 10.1052 10.1042 10.1002 
35 1 8.58444 8.58591 8.58645 
36 1 9.29667 9.2936 9.29181 
ITEM: TIMESTEP
30
ITEM: NUMBER OF ATOMS
50
ITEM: BOX BOUNDS pp pp pp
0.0000000000000000e+00 1.1000000000000000e+01
0.0000000000000000e+00 1.1002000000000001e+01
0.0000000000000000e+00 1.1000000000000000e+01
ITEM: ATOMS id type x y z 
10 1 4.59737 4.59708 4.59644 
11 1 3.08376 3.08366 3.08318 
12 1 3.79148 3.79065 3.7916 
46 1 0.736293 0.727325 0.737185 
47 1 2.26984 2.2714 2.26918 
48 1 1.56478 1.55966 1.56623 
19 1 4.53675 4.53797 6.23442 
20 1 3.00264 3.00283 7.77397 
21 1 3.70761 3.70779 7.06721 
31 1 0.6707 0.670285 10.099 
32 1 2.18881 2.19033 8.59142 
33 1 1.47907 1.47463 9.28699 
16 1 4.53608 6.23652 4.53608 
17 1 2.99876 7.77908 2.99958 
18 1 3.70448 7.06952 3.70636 
25 1 0.675612 10.0981 0.653768 
26 1 2.18064 8.59487 2.19618 
27 1 1.47464 9.29422 1.47711 
4 1 4.60409 6.17083 6.16963 
5 1 3.08617 7.69196 7.68945 
6 1 3.79279 6.98618 6.98471 
37 1 0.706355 10.0584 10.0015 
38 1 2.23895 8.5412 8.4932 
39 1 1.37745 9.29149 8.94588 
49 2 2.2598 8.58959 10.6072 
50 3 3.15147 8.64484 10.4199 
13 1 6.2349 4.53736 4.53654 
14 1 7.77424 3.0022 3.00239 
15 1 7.06579 3.70851 3.70901 
28 1 10.0958 0.673465 0.677671 
29 1 8.58575 2.19017 2.19061 
30 1 9.29274 1.48055 1.48368 
1 1 6.17369 4.60122 6.17314 
2 1 7.68587 3.08372 7.68487 
3 1 6.97855 3.79398 6.97884 
40 1 10.0281 0.746786 10.0434 
41 1 8.49629 2.27087 8.49573 
42 1 9.20388 1.5666 9.20753 
7 1 6.17464 6.17498 4.59935 
8 1 7.6863 7.68702 3.08263 
9 1 6.97997 6.9795 3.79249 
43 1 10.044 10.0371 0.741604 
44 1 8.49793 8.49959 2.26798 
45 1 9.21012 9.20789 1.56661 
22 1 6.23582 6.23769 6.23675 
23 1 7.77345 7.77483 7.77439 
24 1 7.06613 7.06703 7.06718 
34 1 10.1013 10.106 10.1009 
35 1 8.58717 8.58736 8.58865 
36 1 9.29519 9.2962 9.29258 
ITEM: TIMESTEP
40
ITEM: NUMBER OF ATOMS
50
ITEM: BOX BOUNDS pp pp pp
0.0000000000000000e+00 1.1000000000000000e+01
0.0000000000000000e+00 1.1002000000000001e+01
0.0000000000000000e+00 1.1000000000000000e+01
ITEM: ATOMS id type x y z 
10 1 4.59748 4.59934 4.59674 
11 1 3.08392 3.0829 3.08367 
12 1 3.79084 3.79212 3.7903 
46 1 0.73689 0.725387 0.737605 
47 1 2.26979 2.27054 2.26979 
48 1 1.56466 1.56027 1.56477 
19 1 4.53606 4.53866 6.23481 
20 1 3.00262 3.00199 7.7749 
21 1 3.7068 3.70878 7.06663 
31 1 0.669541 0.668351 10.0964 
32 1 2.18861 2.18766 8.58753 
33 1 1.48003 1.48033 9.2934 
16 1 4.53597 6.23653 4.53692 
17 1 2.99961 7.77784 3.00109 
18 1 3.70531 7.06917 3.7074 
25 1 0.674742 10.0976 0.652259 
26 1 2.17745 8.59536 2.19785 
27 1 1.47654 9.2961 1.47701 
4 1 4.60113 6.17306 6.17002 
5 1 3.08755 7.69481 7.69139 
6 1 3.79153 6.9871 6.98484 
37 1 0.705758 10.0573 9.99713 
38 1 2.23637 8.54305 8.4872 
39 1 1.37556 9.29183 8.94445 
49 2 2.26628 8.58392 10.6182 
50 3 3.16203 8.63811 10.4168 
13 1 6.2349 4.53742 4.5361 
14 1 7.77417 3.00214 3.00294 
15 1 7.06572 3.70883 3.7081 
28 1 10.0977 0.672485 0.677614 
29 1 8.58633 2.18967 2.19048 
30 1 9.29268 1.48042 1.4833 
1 1 6.17351 4.60117 6.1735 
2 1 7.68517 3.08402 7.68484 
3 1 6.97921 3.79393 6.978 
40 1 10.0275 0.747919 10.0442 
41 1 8.49668 2.27037 8.49486 
42 1 9.20236 1.5686 9.20882 
7 1 6.17251 6.17474 4.59939 
8 1 7.68696 7.68655 3.08294 
9 1 6.97868 6.98072 3.7915 
43 1 10.0449 10.037 0.74231 
44 1 8.49812 8.49994 2.2678 
45 1 9.21048 9.20727 1.56705 
22 1 6.23502 6.23831 6.23684 
23 1 7.77306 7.77372 7.77399 
24 1 7.06578 7.06795 7.06696 
34 1 10.0996 10.1068 10.1005 
35 1 8.58734 8.58652 8.5873 
36 1 9.29252 9.29646 9.29365 
ITEM: TIMESTEP
50
ITEM: NUMBER OF ATOMS
50
ITEM: BOX BOUNDS pp pp pp
0.0000000000000000e+00 1.1000000000000000e+01
0.0000000000000000e+00 1.1002000000000001e+01
0.0000000000000000e+00 1.1000000000000000e+01
ITEM: ATOMS id type x y z 
10 1 4.597 4.60418 4.5971 
11 1 3.08387 3.08439 3.08354 
12 1 3.79115 3.7921 3.79124 
46 1 0.743863 0.71919 0.735335 
47 1 2.26975 2.27098 2.27087 
48 1 1.56832 1.55768 1.56504 
19 1 4.52861 4.54742 6.23385 
20 1 2.99803 3.00451 7.77267 
21 1 3.7164 3.70503 7.07146 
31 1 0.666938 0.676815 10.1012 
32 1 2.19015 2.19578 8.59496 
33 1 1.47773 1.46839 9.27657 
16 1 4.53173 6.2402 4.54007 
17 1 2.99566 7.77888 3.00274 
18 1 3.70421 7.07213 3.70707 
25 1 0.678566 10.0909 0.635003 
26 1 2.17117 8.59904 2.20347 
27 1 1.46769 9.30503 1.49045 
4 1 4.58882 6.17924 6.17779 
5 1 3.09085 7.70836 7.69921 
6 1 3.7901 6.99541 6.99173 
37 1 0.692816 10.0576 9.97868 
38 1 2.22062 8.55565 8.45113 
39 1 1.36797 9.29309 8.94154 
49 2 2.3218 8.54881 10.6749 
50 3 3.21187 8.59591 10.3998 
13 1 6.23311 4.5396 4.53547 
14 1 7.77385 3.00236 3.00246 
15 1 7.06581 3.7086 3.70845 
28 1 10.102 0.669412 0.679264 
29 1 8.58784 2.18852 2.18956 
30 1 9.29437 1.47809 1.48397 
1 1 6.17 4.60414 6.17101 
2 1 7.68364 3.08575 7.68182 
3 1 6.97629 3.79544 6.9757 
40 1 10.0235 0.754086 10.0507 
41 1 8.49518 2.27228 8.49294 
42 1 9.19917 1.57304 9.21066 
7 1 6.16788 6.17541 4.59961 
8 1 7.68569 7.68712 3.08298 
9 1 6.97883 6.97975 3.7912 
43 1 10.0537 10.035 0.745663 
44 1 8.50284 8.5016 2.27285 
45 1 9.20594 9.20394 1.55875 
22 1 6.22775 6.24034 6.23615 
23 1 7.77117 7.77071 7.77124 
24 1 7.06181 7.06612 7.06563 
34 1 10.0872 10.1123 10.1014 
35 1 8.58411 8.58417 8.58515 
36 1 9.28663 9.2964 9.292 
ITEM: TIMESTEP
60
ITEM: NUMBER OF ATOMS
50
ITEM: BOX BOUNDS pp pp pp
0.0000000000000000e+00 1.1000000000000000e+01
0.0000000000000000e+00 1.1002000000000001e+01
0.0000000000000000e+00 1.1000000000000000e+01
ITEM: ATOMS id type x y z 
10 1 4.59635 4.60528 4.59654 
11 1 3.08371 3.08426 3.0838 
12 1 3.79034 3.79365 3.79046 
46 1 0.74499 0.718374 0.733012 
47 1 2.26917 2.26988 2.27115 
48 1 1.57044 1.55618 1.56396 
19 1 4.53194 4.54381 6.23573 
20 1 3.00467 3.00181 7.77583 
21 1 3.70705 3.71276 7.06793 
31 1 0.664573 0.674435 10.0948 
32 1 2.18864 2.1888 8.58751 
33 1 1.47648 1.4802 9.2888 
16 1 4.53085 6.24089 4.53979 
17 1 2.99436 7.78058 3.00264 
18 1 3.70092 7.07327 3.70832 
25 1 0.677321 10.0941 0.640894 
26 1 2.16658 8.60354 2.21225 
27 1 1.47118 9.30085 1.48248 
4 1 4.5894 6.17919 6.17569 
5 1 3.09199 7.70923 7.69805 
6 1 3.79303 6.9968 6.99159 
37 1 0.689819 10.0595 9.97976 
38 1 2.21373 8.55783 8.4399 
39 1 1.3718 9.29329 8.9502 
49 2 2.3472 8.53619 10.6792 
50 3 3.22322 8.58171 10.397 
13 1 6.23233 4.53948 4.53425 
14 1 7.77357 3.00226 3.00249 
15 1 7.0651 3.70895 3.70793 
28 1 10.105 0.670262 0.681962 
29 1 8.58738 2.18827 2.19042 
30 1 9.29596 1.47891 1.48567 
1 1 6.16962 4.60449 6.16979 
2 1 7.68397 3.08694 7.68039 
3 1 6.97378 3.79484 6.97539 
40 1 10.0215 0.756974 10.0527 
41 1 8.49418 2.27409 8.49334 
42 1 9.19783 1.57379 9.20993 
7 1 6.16696 6.17602 4.59796 
8 1 7.686 7.6871 3.08376 
9 1 6.97699 6.98062 3.79115 
43 1 10.0493 10.0329 0.741158 
44 1 8.50004 8.49967 2.26997 
45 1 9.21166 9.20411 1.56561 
22 1 6.22616 6.24191 6.23663 
23 1 7.77174 7.77022 7.77125 
24 1 7.06071 7.06639 7.06527 
34 1 10.0794 10.1153 10.1011 
35 1 8.58304 8.58291 8.58429 
36 1 9.28196 9.29806 9.29219 
ITEM: TIMESTEP
70
ITEM: NUMBER OF ATOMS
50
ITEM: BOX BOUNDS pp pp pp
0.0000000000000000e+00 1.1000000000000000e+01
0.0000000000000000e+00 1.1002000000000001e+01
0.0000000000000000e+00 1.1000000000000000e+01
ITEM: ATOMS id type x y z 
10 1 4.59598 4.60516 4.59635 
11 1 3.084 3.08443 3.0842 
12 1 3.79011 3.79466 3.79049 
46 1 0.746143 0.718135 0.732759 
47 1 2.26992 2.26908 2.27102 
48 1 1.56964 1.55622 1.56378 
19 1 4.53094 4.54486 6.23541 
20 1 3.00456 3.00203 7.77615 
21 1 3.70648 3.7119 7.06762 
31 1 0.663225 0.675247 10.0934 
32 1 2.18847 2.18824 8.58621 
33 1 1.47715 1.48208 9.291 
16 1 4.53046 6.24122 4.53913 
17 1 2.99416 7.78103 3.00379 
18 1 3.69964 7.07352 3.70932 
25 1 0.677098 10.0944 0.64129 
26 1 2.16485 8.60595 2.2145 
27 1 1.47065 9.29917 1.47976 
4 1 4.59006 6.17992 6.17618 
5 1 3.0932 7.71088 7.69836 
6 1 3.79081 6.9966 6.99057 
37 1 0.687681 10.0603 9.9807 
38 1 2.21049 8.55825 8.43451 
39 1 1.37444 9.29281 8.95464 
49 2 2.35575 8.53003 10.6805 
50 3 3.23236 8.57531 10.3955 
13 1 6.23184 4.54013 4.53423 
14 1 7.77381 3.00225 3.00298 
15 1 7.06421 3.70923 3.70698 
28 1 10.105 0.669884 0.682975 
29 1 8.58723 2.18761 2.19054 
30 1 9.29733 1.4794 1.48625 
1 1 6.16888 4.60384 6.16966 
2 1 7.683 3.08724 7.68006 
3 1 6.97415 3.7955 6.97414 
40 1 10.0203 0.757631 10.0536 
41 1 8.49355 2.27419 8.49302 
42 1 9.19778 1.57551 9.2108 
7 1 6.16642 6.17592 4.5972 
8 1 7.68596 7.68681 3.08387 
9 1 6.9762 6.98102 3.79102 
43 1 10.049 10.0331 0.741277 
44 1 8.50034 8.49933 2.26971 
45 1 9.21217 9.20449 1.56657 
22 1 6.22589 6.24188 6.23614 
23 1 7.77171 7.7694 7.77115 
24 1 7.06003 7.06704 7.0648 
34 1 10.0774 10.116 10.1009 
35 1 8.58274 8.58312 8.58457 
36 1 9.28093 9.299 9.29243 
ITEM: TIMESTEP
80
ITEM: NUMBER OF ATOMS
50
ITEM: BOX BOUNDS pp pp pp
0.0000000000000000e+00 1.1000000000000000e+01
0.0000000000000000e+00 1.1002000000000001e+01
0.0000000000000000e+00 1.1000000000000000e+01
ITEM: ATOMS id type x y z 
10 1 4.59292 4.6078 4.59618 
11 1 3.08202 3.08443 3.08403 
12 1 3.78897 3.79662 3.78811 
46 1 0.749873 0.71837 0.730125 
47 1 2.27239 2.2659 2.27174 
48 1 1.57216 1.55432 1.56298 
19 1 4.52486 4.54848 6.23451 
20 1 3.00406 3.00195 7.77644 
21 1 3.70465 3.71114 7.0652 
31 1 0.655376 0.684673 10.0931 
32 1 2.19002 2.18838 8.58687 
33 1 1.47363 1.48615 9.29127 
16 1 4.52614 6.24344 4.53744 
17 1 2.98594 7.78818 3.01118 
18 1 3.69401 7.07758 3.7117 
25 1 0.676827 10.0919 0.635822 
26 1 2.15729 8.61192 2.22104 
27 1 1.46409 9.30046 1.48224 
4 1 4.58891 6.18279 6.17754 
5 1 3.09255 7.71834 7.69469 
6 1 3.79033 7.00224 6.98814 
37 1 0.677962 10.0634 9.98359 
38 1 2.18362 8.56187 8.39274 
39 1 1.3937 9.28913 8.98516 
49 2 2.42239 8.48507 10.6904 
50 3 3.29854 8.52852 10.3913 
13 1 6.22879 4.54246 4.53122 
14 1 7.77322 3.00302 3.00326 
15 1 7.06207 3.7097 3.70544 
28 1 10.1094 0.669659 0.689456 
29 1 8.58814 2.18698 2.19368 
30 1 9.30021 1.47897 1.49087 
1 1 6.16439 4.60439 6.16545 
2 1 7.68063 3.08966 7.67642 
3 1 6.97057 3.79638 6.97033 
40 1 10.0141 0.76551 10.0596 
41 1 8.49111 2.27901 8.49164 
42 1 9.1921 1.58264 9.21458 
7 1 6.16048 6.17707 4.59325 
8 1 7.6848 7.68688 3.08316 
9 1 6.97409 6.98171 3.7897 
43 1 10.0459 10.035 0.743205 
44 1 8.50203 8.49696 2.27127 
45 1 9.21434 9.20487 1.57093 
22 1 6.22285 6.24311 6.23281 
23 1 7.7702 7.76734 7.76999 
24 1 7.05848 7.06586 7.063 
34 1 10.063 10.1245 10.1021 
35 1 8.57797 8.58344 8.58456 
36 1 9.27196 9.30286 9.29267 
ITEM: TIMESTEP
90
ITEM: NUMBER OF ATOMS
50
ITEM: BOX BOUNDS pp pp pp
0.0000000000000000e+00 1.1000000000000000e+01
0.0000000000000000e+00 1.1002000000000001e+01
0.0000000000000000e+00 1.1000000000000000e+01
ITEM: ATOMS id type x y z 
10 1 4.59281 4.60833 4.59542 
11 1 3.08271 3.08484 3.08341 
12 1 3.78787 3.79617 3.78953 
46 1 0.749929 0.718546 0.730107 
47 1 2.27244 2.26572 2.2718 
48 1 1.57246 1.55449 1.56294 
19 1 4.52531 4.54781 6.23385 
20 1 3.00457 3.00125 7.77549 
21 1 3.70403 3.71281 7.0664 
31 1 0.655096 0.684686 10.0933 
32 1 2.18999 2.18831 8.58741 
33 1 1.47315 1.48619 9.29068 
16 1 4.52605 6.24331 4.53731 
17 1 2.98558 7.78834 3.01106 
18 1 3.69386 7.0779 3.71286 
25 1 0.675934 10.0911 0.63595 
26 1 2.15662 8.61098 2.22117 
27 1 1.46509 9.30207 1.48189 
4 1 4.589 6.18275 6.17765 
5 1 3.09202 7.71852 7.6939 
6 1 3.78985 7.00265 6.98719 
37 1 0.67811 10.0633 9.98336 
38 1 2.1823 8.5618 8.39023 
39 1 1.39426 9.28889 8.98564 
49 2 2.42554 8.48344 10.6912 
50 3 3.30136 8.52683 10.3932 
13 1 6.22839 4.54184 4.53097 
14 1 7.77277 3.00269 3.00315 
15 1 7.06276 3.71033 3.70556 
28 1 10.1095 0.670108 0.68964 
29 1 8.58865 2.18737 2.194 
30 1 9.29937 1.47843 1.49109 
1 1 6.1637 4.60424 6.16556 
2 1 7.68017 3.08946 7.67625 
3 1 6.97091 3.7971 6.97005 
40 1 10.0138 0.765625 10.0598 
41 1 8.49089 2.27952 8.49211 
42 1 9.19221 1.58227 9.21411 
7 1 6.16057 6.17749 4.59343 
8 1 7.68523 7.68679 3.08355 
9 1 6.97299 6.98168 3.78896 
43 1 10.0462 10.0352 0.743451 
44 1 8.50289 8.49729 2.27209 
45 1 9.21319 9.20454 1.56949 
22 1 6.22294 6.24299 6.23298 
23 1 7.77026 7.76723 7.77005 
24 1 7.05839 7.06607 7.06291 
34 1 10.0631 10.1249 10.1023 
35 1 8.57792 8.58345 8.58437 
36 1 9.27132 9.30328 9.29319 
ITEM: TIMESTEP
100
ITEM: NUMBER OF ATOMS
50
ITEM: BOX BOUNDS pp pp pp
0.0000000000000000e+00 1.1000000000000000e+01
0.0000000000000000e+00 1.1002000000000001e+01
0.0000000000000000e+00 1.1000000000000000e+01
ITEM: ATOMS id type x y z 
10 1 4.59255 4.60831 4.5953 
11 1 3.08279 3.08486 3.08355 
12 1 3.78788 3.7964 3.78954 
46 1 0.749942 0.718667 0.729991 
47 1 2.27247 2.26564 2.2717 
48 1 1.57251 1.55438 1.56295 
19 1 4.52532 4.54797 6.23382 
20 1 3.00452 3.00126 7.77551 
21 1 3.7041 3.7128 7.06632 
31 1 0.654907 0.684525 10.0933 
32 1 2.18989 2.18833 8.58743 
33 1 1.47308 1.48617 9.29072 
16 1 4.52592 6.2434 4.5374 
17 1 2.98547 7.78834 3.01142 
18 1 3.69366 7.07809 3.71297 
25 1 0.675871 10.0912 0.636053 
26 1 2.15631 8.61109 2.22125 
27 1 1.46534 9.30202 1.48143 
4 1 4.58894 6.18285 6.1776 
5 1 3.09152 7.71875 7.69312 
6 1 3.78978 7.00273 6.98696 
37 1 0.678042 10.0634 9.98331 
38 1 2.18129 8.56183 8.38875 
39 1 1.39472 9.28873 8.98602 
49 2 2.42749 8.48236 10.6917 
50 3 3.30331 8.52574 10.3945 
13 1 6.22828 4.54182 4.5309 
14 1 7.77268 3.00278 3.00322 
15 1 7.06261 3.71042 3.70562 
28 1 10.1096 0.670342 0.689832 
29 1 8.58871 2.1874 2.19422 
30 1 9.29933 1.47845 1.49116 
1 1 6.16348 4.60413 6.16546 
2 1 7.67992 3.08942 7.67609 
3 1 6.97102 3.79744 6.96993 
40 1 10.0137 0.765572 10.0598 
41 1 8.49077 2.27971 8.49221 
42 1 9.19214 1.58236 9.21412 
7 1 6.16047 6.1776 4.59333 
8 1 7.68514 7.68674 3.08363 
9 1 6.97286 6.98157 3.78893 
43 1 10.0461 10.0351 0.743412 
44 1 8.50318 8.4972 2.27245 
45 1 9.21271 9.20462 1.56905 
22 1 6.2229 6.24301 6.23297 
23 1 7.77025 7.76729 7.77009 
24 1 7.05842 7.06597 7.06287 
34 1 10.0631 10.125 10.1023 
35 1 8.57779 8.58367 8.58453 
36 1 9.27131 9.30342 9.29324 
ITEM: TIMESTEP
110
ITEM: NUMBER OF ATOMS
50
ITEM: BOX BOUNDS pp pp pp
0.0000000000000000e+00 1.1000000000000000e+01
0.0000000000000000e+00 1.1002000000000001e+01
0.0000000000000000e+00 1.1000000000000000e+01
ITEM: ATOMS id type x y z 
10 1 4.59119 4.60705 4.59532 
11 1 3.08356 3.08289 3.08575 
12 1 3.7864 3.80147 3.78683 
46 1 0.749223 0.719577 0.728285 
47 1 2.27363 2.26506 2.27057 
48 1 1.57247 1.55233 1.56325 
19 1 4.52503 4.54879 6.23342 
20 1 3.00433 3.00108 7.77506 
21 1 3.70397 3.71342 7.06665 
31 1 0.653149 0.683921 10.094 
32 1 2.18885 2.18832 8.58776 
33 1 1.47177 1.48644 9.29104 
16 1 4.52402 6.24481 4.53821 
17 1 2.98272 7.78937 3.01548 
18 1 3.6909 7.08099 3.71395 
25 1 0.675521 10.0913 0.635035 
26 1 2.15552 8.61098 2.21911 
27 1 1.46314 9.30356 1.48214 
4 1 4.5891 6.18419 6.17847 
5 1 3.08494 7.72139 7.68369 
6 1 3.78664 7.00441 6.98148 
37 1 0.678617 10.0635 9.98268 
38 1 2.16896 8.56277 8.36773 
39 1 1.40089 9.2856 8.9913 
49 2 2.45351 8.46772 10.6992 
50 3 3.33045 8.511 10.4115 
13 1 6.22648 4.54225 4.53028 
14 1 7.77193 3.00369 3.00393 
15 1 7.05987 3.71205 3.70689 
28 1 10.1101 0.671269 0.691725 
29 1 8.5888 2.18774 2.19671 
30 1 9.29993 1.47942 1.49355 
1 1 6.16271 4.60636 6.16476 
2 1 7.67927 3.09279 7.67606 
3 1 6.96841 3.79397 6.96528 
40 1 10.0116 0.766518 10.0612 
41 1 8.48961 2.28309 8.49473 
42 1 9.1902 1.58216 9.21188 
7 1 6.15807 6.17803 4.59147 
8 1 7.68301 7.68678 3.08335 
9 1 6.97441 6.98 3.79023 
43 1 10.0436 10.0357 0.740559 
44 1 8.50457 8.49708 2.27359 
45 1 9.21257 9.20546 1.56795 
22 1 6.22339 6.24314 6.23255 
23 1 7.77083 7.76766 7.77028 
24 1 7.05793 7.066 7.06321 
34 1 10.0626 10.1267 10.1031 
35 1 8.57657 8.58617 8.5854 
36 1 9.26908 9.30492 9.2954 
ITEM: TIMESTEP
120
ITEM: NUMBER OF ATOMS
50
ITEM: BOX BOUNDS pp pp pp
0.0000000000000000e+00 1.1000000000000000e+01
0.0000000000000000e+00 1.1002000000000001e+01
0.0000000000000000e+00 1.1000000000000000e+01
ITEM: ATOMS id type x y z 
10 1 4.58669 4.61311 4.59423 
11 1 3.0823 3.08445 3.08303 
12 1 3.78513 3.79754 3.78998 
46 1 0.748472 0.719313 0.728239 
47 1 2.27565 2.26256 2.27075 
48 1 1.57365 1.55314 1.56214 
19 1 4.52342 4.54984 6.23363 
20 1 3.00398 3.00108 7.7752 
21 1 3.70307 3.71359 7.06648 
31 1 0.649855 0.682931 10.092 
32 1 2.18733 2.18883 8.58823 
33 1 1.47001 1.4864 9.29059 
16 1 4.52208 6.24705 4.53889 
17 1 2.97665 7.79369 3.01915 
18 1 3.68762 7.08296 3.7176 
25 1 0.673648 10.0918 0.632277 
26 1 2.15333 8.61191 2.21793 
27 1 1.46168 9.3032 1.47944 
4 1 4.59074 6.1855 6.17884 
5 1 3.07195 7.72551 7.66755 
6 1 3.78048 7.00658 6.97391 
37 1 0.681263 10.0625 9.98218 
38 1 2.15133 8.56855 8.33801 
39 1 1.4089 9.28019 9.00272 
49 2 2.49204 8.44504 10.7109 
50 3 3.37433 8.48853 10.4375 
13 1 6.22344 4.54309 4.52827 
14 1 7.77096 3.00434 3.00498 
15 1 7.05934 3.71183 3.70533 
28 1 10.1095 0.673335 0.692362 
29 1 8.58965 2.18848 2.20084 
30 1 9.29999 1.48028 1.49631 
1 1 6.15923 4.60535 6.16217 
2 1 7.67742 3.09098 7.67277 
3 1 6.9683 3.79915 6.96762 
40 1 10.0094 0.766304 10.0609 
41 1 8.48797 2.28534 8.49534 
42 1 9.18828 1.58601 9.21589 
7 1 6.15621 6.17927 4.59208 
8 1 7.68466 7.68608 3.08363 
9 1 6.97079 6.98202 3.7884 
43 1 10.0407 10.0369 0.738737 
44 1 8.50573 8.497 2.27475 
45 1 9.21184 9.20474 1.56864 
22 1 6.22357 6.24425 6.2321 
23 1 7.77035 7.76781 7.77092 
24 1 7.05899 7.06675 7.06284 
34 1 10.062 10.1293 10.1032 
35 1 8.57266 8.58848 8.58746 
36 1 9.26734 9.30805 9.295 
ITEM: TIMESTEP
130
ITEM: NUMBER OF ATOMS
50
ITEM: BOX BOUNDS pp pp pp
0.0000000000000000e+00 1.1000000000000000e+01
0.0000000000000000e+00 1.1002000000000001e+01
0.0000000000000000e+00 1.1000000000000000e+01
ITEM: ATOMS id type x y z 
10 1 4.58665 4.61274 4.5946 
11 1 3.08238 3.08418 3.08339 
12 1 3.78504 3.79814 3.78939 
46 1 0.748369 0.719261 0.728327 
47 1 2.27555 2.26236 2.27076 
48 1 1.57369 1.55318 1.56182 
19 1 4.52343 4.54989 6.23369 
20 1 3.00405 3.00116 7.77531 
21 1 3.70281 3.71341 7.06638 
31 1 0.650061 0.682989 10.0921 
32 1 2.18735 2.18897 8.58844 
33 1 1.46986 1.48618 9.29014 
16 1 4.52217 6.24723 4.53877 
17 1 2.97662 7.79388 3.01916 
18 1 3.68722 7.08291 3.7177 
25 1 0.673288 10.0919 0.632541 
26 1 2.15294 8.61211 2.21845 
27 1 1.46218 9.30292 1.47824 
4 1 4.5909 6.18534 6.17925 
5 1 3.07137 7.7254 7.66712 
6 1 3.78017 7.00705 6.97318 
37 1 0.681284 10.0625 9.98239 
38 1 2.15117 8.56881 8.33776 
39 1 1.40909 9.28011 9.00322 
49 2 2.49283 8.44452 10.7111 
50 3 3.37547 8.48806 10.4382 
13 1 6.22322 4.54324 4.52827 
14 1 7.77097 3.00426 3.00495 
15 1 7.05916 3.71211 3.70554 
28 1 10.1095 0.673269 0.692456 
29 1 8.58988 2.18829 2.20089 
30 1 9.29998 1.48035 1.49613 
1 1 6.1593 4.60567 6.16242 
2 1 7.67747 3.09121 7.673 
3 1 6.96815 3.79882 6.96714 
40 1 10.0095 0.766453 10.061 
41 1 8.48782 2.28538 8.4953 
42 1 9.18833 1.58615 9.21602 
7 1 6.15636 6.17927 4.59224 
8 1 7.68473 7.68601 3.08366 
9 1 6.97065 6.98216 3.78837 
43 1 10.0409 10.0369 0.738944 
44 1 8.50586 8.49687 2.27476 
45 1 9.21166 9.20501 1.56856 
22 1 6.22363 6.24414 6.23193 
23 1 7.77025 7.76764 7.77076 
24 1 7.05881 7.06686 7.06292 
34 1 10.0619 10.1293 10.103 
35 1 8.57239 8.58869 8.58752 
36 1 9.26762 9.3078 9.2949 
ITEM: TIMESTEP
140
ITEM: NUMBER OF ATOMS
50
ITEM: BOX BOUNDS pp pp pp
0.0000000000000000e+00 1.1000000000000000e+01
0.0000000000000000e+00 1.1002000000000001e+01
0.0000000000000000e+00 1.1000000000000000e+01
ITEM: ATOMS id type x y z 
10 1 4.58664 4.61273 4.59463 
11 1 3.08237 3.08416 3.08342 
12 1 3.78505 3.79819 3.78934 
46 1 0.748372 0.719274 0.728312 
47 1 2.27556 2.26236 2.27074 
48 1 1.57367 1.55316 1.56184 
19 1 4.52343 4.5499 6.2337 
20 1 3.00405 3.00116 7.77533 
21 1 3.70279 3.71341 7.06635 
31 1 0.650047 0.682997 10.092 
32 1 2.18733 2.18898 8.58843 
33 1 1.46989 1.48615 9.29015 
16 1 4.52219 6.24724 4.53876 
17 1 2.97665 7.79389 3.01916 
18 1 3.68716 7.08288 3.71773 
25 1 0.673274 10.0919 0.632557 
26 1 2.15291 8.61214 2.21847 
27 1 1.46222 9.30289 1.47817 
4 1 4.59091 6.18533 6.17927 
5 1 3.07133 7.72541 7.66707 
6 1 3.78011 7.00706 6.97311 
37 1 0.681285 10.0625 9.98241 
38 1 2.15115 8.56883 8.33774 
39 1 1.4091 9.2801 9.00326 
49 2 2.49291 8.44447 10.7112 
50 3 3.37557 8.48802 10.4382 
13 1 6.22322 4.54327 4.52826 
14 1 7.77097 3.00428 3.00495 
15 1 7.05913 3.71208 3.70555 
28 1 10.1095 0.673262 0.692471 
29 1 8.5899 2.18827 2.20091 
30 1 9.29996 1.48037 1.49608 
1 1 6.15931 4.60565 6.16241 
2 1 7.67748 3.09121 7.67298 
3 1 6.96812 3.79883 6.96717 
40 1 10.0095 0.766463 10.061 
41 1 8.48782 2.28538 8.4953 
42 1 9.18831 1.58616 9.21604 
7 1 6.15633 6.17929 4.59223 
8 1 7.6847 7.68603 3.08364 
9 1 6.9707 6.98213 3.7884 
43 1 10.0409 10.0369 0.738951 
44 1 8.50585 8.49687 2.27475 
45 1 9.21169 9.205 1.56858 
22 1 6.22363 6.24414 6.23193 
23 1 7.77025 7.76765 7.77077 
24 1 7.05882 7.06685 7.06292 
34 1 10.0619 10.1293 10.103 
35 1 8.57237 8.5887 8.58752 
36 1 9.26764 9.30779 9.29489 
ITEM: TIMESTEP
141
ITEM: NUMBER OF ATOMS
50
ITEM: BOX BOUNDS pp pp pp
0.0000000000000000e+00 1.1000000000000000e+01
0.0000000000000000e+00 1.1002000000000001e+01
0.0000000000000000e+00 1.1000000000000000e+01
ITEM: ATOMS id type x y z 
10 1 4.58664 4.61273 4.59463 
11 1 3.08237 3.08415 3.08342 
12 1 3.78505 3.79819 3.78934 
46 1 0.748372 0.719274 0.728312 
47 1 2.27556 2.26236 2.27074 
48 1 1.57367 1.55316 1.56184 
19 1 4.52343 4.5499 6.2337 
20 1 3.00405 3.00116 7.77533 
21 1 3.70279 3.71341 7.06635 
31 1 0.650047 0.682997 10.092 
32 1 2.18733 2.18898 8.58843 
33 1 1.46989 1.48615 9.29015 
16 1 4.52219 6.24724 4.53876 
17 1 2.97665 7.79389 3.01916 
18 1 3.68716 7.08288 3.71773 
25 1 0.673274 10.0919 0.632557 
26 1 2.15291 8.61214 2.21847 
27 1 1.46222 9.30289 1.47817 
4 1 4.59091 6.18533 6.17927 
5 1 3.07133 7.72541 7.66707 
6 1 3.78011 7.00706 6.97311 
37 1 0.681285 10.0625 9.98241 
38 1 2.15115 8.56883 8.33774 
39 1 1.40911 9.2801 9.00326 
49 2 2.49291 8.44447 10.7112 
50 3 3.37557 8.48802 10.4382 
13 1 6.22322 4.54327 4.52826 
14 1 7.77097 3.00428 3.00495 
15 1 7.05913 3.71208 3.70555 
28 1 10.1095 0.673262 0.692471 
29 1 8.5899 2.18827 2.20091 
30 1 9.29996 1.48037 1.49608 
1 1 6.15931 4.60565 6.16241 
2 1 7.67748 3.09121 7.67298 
3 1 6.96812 3.79883 6.96717 
40 1 10.0095 0.766463 10.061 
41 1 8.48782 2.28538 8.4953 
42 1 9.18831 1.58616 9.21604 
7 1 6.15633 6.17929 4.59223 
8 1 7.6847 7.68603 3.08364 
9 1 6.9707 6.98213 3.7884 
43 1 10.0409 10.0369 0.738952 
44 1 8.50585 8.49687 2.27475 
45 1 9.21169 9.205 1.56858 
22 1 6.22363 6.24414 6.23193 
23 1 7.77025 7.76765 7.77077 
24 1 7.05882 7.06685 7.06292 
34 1 10.0619 10.1293 10.103 
35 1 8.57237 8.5887 8.58752 
36 1 9.26764 9.30779 9.29489 
ITEM: TIMESTEP
143
ITEM: NUMBER OF ATOMS
50
ITEM: BOX BOUNDS pp pp pp
0.0000000000000000e+00 1.1000000000000000e+01
0.0000000000000000e+00 1.1002000000000001e+01
0.0000000000000000e+00 1.1000000000000000e+01
ITEM: ATOMS id type x y z 
10 1 4.58664 4.61273 4.59463 
11 1 3.08237 3.08416 3.08342 
12 1 3.78505 3.79819 3.78934 
46 1 0.748372 0.719273 0.728312 
47 1 2.27556 2.26236 2.27074 
48 1 1.57367 1.55316 1.56184 
19 1 4.52343 4.5499 6.2337 
20 1 3.00405 3.00116 7.77533 
21 1 3.7028 3.71341 7.06635 
31 1 0.650047 0.682998 10.092 
32 1 2.18733 2.18898 8.58843 
33 1 1.46989 1.48615 9.29015 
16 1 4.52219 6.24724 4.53876 
17 1 2.97665 7.79389 3.01916 
18 1 3.68716 7.08288 3.71773 
25 1 0.673274 10.0919 0.632557 
26 1 2.15291 8.61213 2.21847 
27 1 1.46222 9.30289 1.47817 
4 1 4.59091 6.18533 6.17927 
5 1 3.07133 7.72541 7.66707 
6 1 3.78011 7.00706 6.97311 
37 1 0.681285 10.0625 9.98241 
38 1 2.15115 8.56883 8.33774 
39 1 1.40911 9.2801 9.00326 
49 2 2.49291 8.44447 10.7112 
50 3 3.37557 8.48802 10.4382 
13 1 6.22322 4.54327 4.52826 
14 1 7.77097 3.00428 3.00495 
15 1 7.05913 3.71208 3.70555 
28 1 10.1095 0.673262 0.692472 
29 1 8.5899 2.18827 2.20091 
30 1 9.29996 1.48037 1.49608 
1 1 6.15931 4.60565 6.16241 
2 1 7.67748 3.09121 7.67298 
3 1 6.96812 3.79883 6.96717 
40 1 10.0095 0.766463 10.061 
41 1 8.48782 2.28538 8.4953 
42 1 9.18831 1.58616 9.21604 
7 1 6.15633 6.17929 4.59223 
8 1 7.6847 7.68603 3.08364 
9 1 6.9707 6.98213 3.7884 
43 1 10.0409 10.0369 0.738952 
44 1 8.50585 8.49687 2.27475 
45 1 9.21169 9.205 1.56858 
22 1 6.22363 6.24414 6.23193 
23 1 7.77025 7.76765 7.77077 
24 1 7.05882 7.06685 7.06292 
34 1 10.0619 10.1293 10.103 
35 1 8.57237 8.5887 8.58752 
36 1 9.26764 9.30779 9.29489 
ITEM: TIMESTEP
150
ITEM: NUMBER OF ATOMS
50
ITEM: BOX BOUNDS pp pp pp
-3.6808448503911021e-03 1.1003680844850393e+01
-2.4751234665093005e-03 1.1004475123466511e+01
-2.1845557202314577e-03 1.1002184555720232e+01
ITEM: ATOMS id type x y z 
10 1 4.58619 4.61251 4.59445 
11 1 3.0808 3.08311 3.08251 
12 1 3.78384 3.79738 3.7886 
46 1 0.745038 0.716992 0.726283 
47 1 2.27334 2.26084 2.26939 
48 1 1.57093 1.55127 1.56016 
19 1 4.52292 4.54961 6.23385 
20 1 3.00243 3.00009 7.77618 
21 1 3.7017 3.71272 7.06687 
31 1 0.64664 0.680645 10.094 
32 1 2.18506 2.18744 8.5897 
33 1 1.46724 1.48441 9.29161 
16 1 4.52168 6.24744 4.53852 
17 1 2.97501 7.79487 3.01824 
18 1 3.68605 7.08349 3.71714 
25 1 0.669876 10.0941 0.630462 
26 1 2.15063 8.61359 2.21711 
27 1 1.45954 9.30454 1.47664 
4 1 4.59047 6.18548 6.17935 
5 1 3.0697 7.72639 7.66781 
6 1 3.77889 7.00777 6.97376 
37 1 0.677896 10.0647 9.98431 
38 1 2.14884 8.57029 8.33891 
39 1 1.40631 9.28188 9.00483 
49 2 2.49096 8.44575 10.7133 
50 3 3.37423 8.48933 10.4402 
13 1 6.22355 4.54298 4.52801 