ITEM: TIMESTEP
0
ITEM: NUMBER OF ATOMS
57
ITEM: BOX BOUNDS pp pp pp
0.0000000000000000e+00 3.2808000000000000e+01
0.0000000000000000e+00 1.7780000000000001e+01
0.0000000000000000e+00 2.4729999999999999e+00
ITEM: ATOMS id type x y z 
13 1 7.043 0.849 2.464 
29 1 7.397 1.432 1.228 
37 1 8.035 2.733 1.228 
1 1 6.173 17.398 2.464 
5 1 5.371 17.398 1.228 
9 1 3.973 17.398 1.228 
16 1 7.043 16.167 2.464 
32 1 7.397 15.584 1.228 
40 1 8.035 14.283 1.228 
45 1 3.236 17.398 2.464 
49 1 1.81 17.398 2.464 
53 1 1.083 17.398 1.228 
57 2 4.353 16.458 0.803 
4 1 10.968 8.508 2.464 
8 1 11.771 8.508 1.228 
12 1 13.168 8.508 1.228 
18 1 10.098 7.277 2.464 
21 1 8.308 3.392 2.464 
26 1 8.833 4.734 2.464 
34 1 9.745 6.694 1.228 
42 1 9.106 5.393 1.228 
48 1 13.906 8.508 2.464 
52 1 15.331 8.508 2.464 
56 1 16.058 8.508 1.228 
19 1 10.098 9.739 2.464 
24 1 8.308 13.624 2.464 
27 1 8.833 12.282 2.464 
35 1 9.745 10.322 1.228 
43 1 9.106 11.623 1.228 
3 1 22.577 8.508 2.464 
7 1 21.775 8.508 1.228 
11 1 20.377 8.508 1.228 
20 1 23.447 7.277 2.464 
36 1 23.801 6.694 1.228 
44 1 24.439 5.393 1.228 
47 1 19.64 8.508 2.464 
51 1 18.214 8.508 2.464 
55 1 17.487 8.508 1.228 
17 1 23.447 9.739 2.464 
33 1 23.801 10.322 1.228 
41 1 24.439 11.623 1.228 
15 1 26.502 0.849 2.464 
23 1 25.237 3.392 2.464 
28 1 24.712 4.734 2.464 
31 1 26.149 1.432 1.228 
39 1 25.511 2.733 1.228 
2 1 27.373 17.398 2.464 
6 1 28.175 17.398 1.228 
10 1 29.572 17.398 1.228 
14 1 26.502 16.167 2.464 
22 1 25.237 13.624 2.464 
25 1 24.712 12.282 2.464 
30 1 26.149 15.584 1.228 
38 1 25.511 14.283 1.228 
46 1 30.31 17.398 2.464 
50 1 31.735 17.398 2.464 
54 1 32.462 17.398 1.228 
ITEM: TIMESTEP
10
ITEM: NUMBER OF ATOMS
57
ITEM: BOX BOUNDS pp pp pp
0.0000000000000000e+00 3.2808000000000000e+01
0.0000000000000000e+00 1.7780000000000001e+01
0.0000000000000000e+00 2.4729999999999999e+00
ITEM: ATOMS id type x y z 
13 1 7.05956 0.835108 2.46384 
29 1 7.42836 1.42848 1.22765 
37 1 8.04628 2.68836 1.22775 
1 1 6.10033 17.4076 2.45297 
5 1 5.32023 17.4133 1.21334 
9 1 3.96318 17.4243 1.15945 
16 1 7.05155 16.1821 2.46359 
32 1 7.42295 15.5939 1.22747 
40 1 8.04626 14.3273 1.22773 
45 1 3.24749 17.5949 2.39529 
49 1 1.8094 17.3985 2.46384 
53 1 1.03393 17.3905 1.22589 
57 2 4.53414 16.2059 0.969826 
4 1 10.9744 8.50826 2.46422 
8 1 11.7944 8.50803 1.22771 
12 1 13.2013 8.508 1.22775 
18 1 10.0552 7.28934 2.46426 
21 1 8.30844 3.36766 2.46424 
26 1 8.82839 4.7492 2.46424 
34 1 9.70076 6.67545 1.22778 
42 1 9.08997 5.42376 1.22775 
48 1 13.9071 8.508 2.46427 
52 1 15.3016 8.508 2.46426 
56 1 16.0358 8.508 1.22773 
19 1 10.0553 9.72668 2.46426 
24 1 8.30807 13.6489 2.46424 
27 1 8.8272 12.27 2.46424 
35 1 9.70077 10.3406 1.22778 
43 1 9.08958 11.5932 1.22775 
3 1 22.5733 8.508 2.46421 
7 1 21.7492 8.508 1.22771 
11 1 20.3405 8.508 1.22775 
20 1 23.4908 7.28907 2.46426 
36 1 23.8459 6.67439 1.22778 
44 1 24.4514 5.43315 1.22775 
47 1 19.6429 8.508 2.46427 
51 1 18.247 8.508 2.46426 
55 1 17.5013 8.508 1.22774 
17 1 23.4908 9.72693 2.46426 
33 1 23.8459 10.3416 1.22778 
41 1 24.4514 11.5829 1.22775 
15 1 26.4553 0.839118 2.46426 
23 1 25.2348 3.37001 2.46424 
28 1 24.7134 4.75745 2.46424 
31 1 26.1029 1.45416 1.22778 
39 1 25.4986 2.69298 1.22775 
2 1 27.3616 17.398 2.46421 
6 1 28.1976 17.398 1.22772 
10 1 29.5803 17.398 1.22775 
14 1 26.4553 16.1769 2.46426 
22 1 25.2348 13.646 2.46424 
25 1 24.7134 12.2585 2.46424 
30 1 26.1029 15.5618 1.22778 
38 1 25.4986 14.323 1.22775 
46 1 30.3322 17.3981 2.46426 
50 1 31.7963 17.3981 2.4642 
54 1 32.4739 17.3965 1.22771 
ITEM: TIMESTEP
20
ITEM: NUMBER OF ATOMS
57
ITEM: BOX BOUNDS pp pp pp
0.0000000000000000e+00 3.2808000000000000e+01
0.0000000000000000e+00 1.7780000000000001e+01
0.0000000000000000e+00 2.4729999999999999e+00
ITEM: ATOMS id type x y z 
13 1 7.07567 0.848292 2.46251 
29 1 7.45868 1.43311 1.22643 
37 1 8.06674 2.67677 1.22766 
1 1 6.1152 17.4132 2.44324 
5 1 5.38471 17.4422 1.21944 
9 1 3.95617 17.428 1.15566 
16 1 7.04855 16.1762 2.46201 
32 1 7.43851 15.6023 1.22604 
40 1 8.06284 14.3454 1.22762 
45 1 3.22097 17.6902 2.4027 
49 1 1.83209 17.4049 2.45456 
53 1 1.04244 17.3727 1.22396 
57 2 4.50678 16.0453 0.987537 
4 1 10.9673 8.50934 2.46422 
8 1 11.7641 8.50829 1.22774 
12 1 13.1961 8.50797 1.22777 
18 1 10.0413 7.29303 2.46427 
21 1 8.31551 3.35726 2.46421 
26 1 8.81831 4.75165 2.46426 
34 1 9.67856 6.687 1.22775 
42 1 9.07132 5.42853 1.22774 
48 1 13.9333 8.50799 2.46424 
52 1 15.2953 8.508 2.46423 
56 1 16.0445 8.508 1.22777 
19 1 10.0412 9.72387 2.46427 
24 1 8.31315 13.6637 2.46418 
27 1 8.81587 12.2718 2.46425 
35 1 9.67822 10.3304 1.22775 
43 1 9.06937 11.5929 1.22774 
3 1 22.5707 8.508 2.46423 
7 1 21.7736 8.508 1.22774 
11 1 20.3421 8.508 1.22777 
20 1 23.5048 7.29458 2.46427 
36 1 23.8686 6.68828 1.22775 
44 1 24.4701 5.44263 1.22774 
47 1 19.6096 8.508 2.46424 
51 1 18.2482 8.508 2.46423 
55 1 17.5009 8.508 1.22777 
17 1 23.5048 9.72142 2.46427 
33 1 23.8686 10.3277 1.22775 
41 1 24.4701 11.5734 1.22774 
15 1 26.4369 0.833347 2.46427 
23 1 25.224 3.36799 2.46425 
28 1 24.7225 4.7637 2.46425 
31 1 26.0796 1.44061 1.22775 
39 1 25.4773 2.6896 1.22774 
2 1 27.3639 17.398 2.46424 
6 1 28.1887 17.398 1.22773 
10 1 29.5852 17.398 1.22776 
14 1 26.4369 16.1827 2.46427 
22 1 25.224 13.648 2.46425 
25 1 24.7225 12.2523 2.46425 
30 1 26.0796 15.5754 1.22775 
38 1 25.4773 14.3264 1.22774 
46 1 30.321 17.3986 2.46423 
50 1 31.789 17.399 2.46391 
54 1 32.511 17.3902 1.22735 
ITEM: TIMESTEP
30
ITEM: NUMBER OF ATOMS
57
ITEM: BOX BOUNDS pp pp pp
0.0000000000000000e+00 3.2808000000000000e+01
0.0000000000000000e+00 1.7780000000000001e+01
0.0000000000000000e+00 2.4729999999999999e+00
ITEM: ATOMS id type x y z 
13 1 7.09156 0.835412 2.46165 
29 1 7.47825 1.44646 1.22599 
37 1 8.07698 2.6773 1.22755 
1 1 6.16793 17.4106 2.45057 
5 1 5.35631 17.4674 1.21898 
9 1 3.91593 17.438 1.16163 
16 1 7.04848 16.1891 2.46118 
32 1 7.45322 15.5911 1.22553 
40 1 8.07062 14.3478 1.2275 
45 1 3.24529 17.7171 2.40267 
49 1 1.8051 17.4027 2.45566 
53 1 1.06214 17.3652 1.22015 
57 2 4.48531 15.9797 0.981169 
4 1 10.9631 8.51078 2.46423 
8 1 11.7605 8.50874 1.22774 
12 1 13.1902 8.50792 1.22775 
18 1 10.0351 7.29269 2.46426 
21 1 8.32109 3.36017 2.46412 
26 1 8.81663 4.758 2.46425 
34 1 9.66912 6.68645 1.22776 
42 1 9.06663 5.43531 1.22775 
48 1 13.9423 8.50798 2.46425 
52 1 15.3006 8.508 2.46425 
56 1 16.0306 8.508 1.22775 
19 1 10.0348 9.72556 2.46426 
24 1 8.31817 13.6625 2.46408 
27 1 8.81334 12.2687 2.46424 
35 1 9.66869 10.3319 1.22776 
43 1 9.06359 11.5899 1.22774 
3 1 22.5746 8.508 2.46423 
7 1 21.774 8.508 1.22774 
11 1 20.3478 8.508 1.22775 
20 1 23.5082 7.29565 2.46426 
36 1 23.8758 6.69255 1.22776 
44 1 24.4775 5.44408 1.22775 
47 1 19.6074 8.508 2.46425 
51 1 18.2516 8.508 2.46425 
55 1 17.5055 8.508 1.22775 
17 1 23.5082 9.72035 2.46426 
33 1 23.8758 10.3235 1.22776 
41 1 24.4775 11.5719 1.22775 
15 1 26.433 0.831146 2.46426 
23 1 25.2202 3.36803 2.46425 
28 1 24.7273 4.76118 2.46425 
31 1 26.0682 1.44349 1.22776 
39 1 25.4692 2.69063 1.22775 
2 1 27.3613 17.398 2.46424 
6 1 28.1901 17.3979 1.22774 
10 1 29.5868 17.398 1.22774 
14 1 26.433 16.1849 2.46426 
22 1 25.2202 13.648 2.46425 
25 1 24.7273 12.2548 2.46425 
30 1 26.0682 15.5725 1.22776 
38 1 25.4692 14.3254 1.22775 
46 1 30.3168 17.399 2.46423 
50 1 31.7801 17.3999 2.46363 
54 1 32.5174 17.3867 1.22699 
ITEM: TIMESTEP
40
ITEM: NUMBER OF ATOMS
57
ITEM: BOX BOUNDS pp pp pp
0.0000000000000000e+00 3.2808000000000000e+01
0.0000000000000000e+00 1.7780000000000001e+01
0.0000000000000000e+00 2.4729999999999999e+00
ITEM: ATOMS id type x y z 
13 1 7.12485 0.839806 2.46136 
29 1 7.49952 1.45572 1.22539 
37 1 8.08985 2.67835 1.22739 
1 1 6.20763 17.4138 2.45365 
5 1 5.34069 17.4749 1.21863 
9 1 3.87333 17.3946 1.15934 
16 1 7.06459 16.1775 2.46095 
32 1 7.47177 15.5793 1.22496 
40 1 8.08142 14.3488 1.22733 
45 1 3.23636 17.758 2.40456 
49 1 1.80851 17.402 2.45397 
53 1 1.05662 17.3541 1.21864 
57 2 4.45711 15.9765 0.985529 
4 1 10.9586 8.51207 2.46424 
8 1 11.7514 8.50947 1.22774 
12 1 13.1829 8.50782 1.22775 
18 1 10.028 7.29354 2.46426 
21 1 8.32858 3.3637 2.46396 
26 1 8.81427 4.76709 2.46424 
34 1 9.6599 6.69165 1.22776 
42 1 9.06044 5.4458 1.22774 
48 1 13.9506 8.50794 2.46425 
52 1 15.3007 8.50799 2.46425 
56 1 16.0365 8.508 1.22775 
19 1 10.0273 9.72677 2.46426 
24 1 8.32446 13.6629 2.46391 
27 1 8.80993 12.2642 2.46424 
35 1 9.65871 10.3292 1.22776 
43 1 9.05683 11.5824 1.22774 
3 1 22.5771 8.508 2.46424 
7 1 21.7837 8.508 1.22774 
11 1 20.3516 8.508 1.22775 
20 1 23.5132 7.29624 2.46426 
36 1 23.8865 6.69566 1.22776 
44 1 24.4866 5.44828 1.22775 
47 1 19.5983 8.508 2.46425 
51 1 18.2444 8.508 2.46425 
55 1 17.5091 8.508 1.22775 
17 1 23.5132 9.71976 2.46426 
33 1 23.8865 10.3203 1.22776 
41 1 24.4866 11.5677 1.22775 
15 1 26.429 0.829547 2.46426 
23 1 25.2158 3.36553 2.46425 
28 1 24.731 4.76563 2.46425 
31 1 26.0608 1.43488 1.22776 
39 1 25.4618 2.68356 1.22775 
2 1 27.3567 17.398 2.46424 
6 1 28.1852 17.3979 1.22774 
10 1 29.5793 17.3981 1.22772 
14 1 26.429 16.1865 2.46426 
22 1 25.2158 13.6505 2.46425 
25 1 24.731 12.2504 2.46425 
30 1 26.0608 15.5811 1.22776 
38 1 25.4618 14.3324 1.22775 
46 1 30.3094 17.3999 2.46422 
50 1 31.7798 17.4011 2.4631 
54 1 32.5182 17.3812 1.22644 
ITEM: TIMESTEP
50
ITEM: NUMBER OF ATOMS
57
ITEM: BOX BOUNDS pp pp pp
0.0000000000000000e+00 3.2808000000000000e+01
0.0000000000000000e+00 1.7780000000000001e+01
0.0000000000000000e+00 2.4729999999999999e+00
ITEM: ATOMS id type x y z 
13 1 7.17392 0.806657 2.4605 
29 1 7.53391 1.41508 1.22431 
37 1 8.13502 2.68349 1.22679 
1 1 6.17986 17.4257 2.45595 
5 1 5.35283 17.4782 1.21636 
9 1 3.87322 17.3287 1.15635 
16 1 7.0742 16.186 2.46013 
32 1 7.48259 15.6169 1.22397 
40 1 8.12157 14.3528 1.2267 
45 1 3.26046 17.7943 2.40084 
49 1 1.87338 17.4312 2.44568 
53 1 1.09974 17.313 1.21213 
57 2 4.36978 15.9768 1.01784 
4 1 10.952 8.51821 2.46424 
8 1 11.7427 8.51334 1.22774 
12 1 13.1749 8.50724 1.22775 
18 1 10.01 7.30675 2.46425 
21 1 8.35422 3.37062 2.46336 
26 1 8.7966 4.78056 2.4642 
34 1 9.62525 6.71409 1.22775 
42 1 9.02843 5.47268 1.22771 
48 1 13.9412 8.50764 2.46425 
52 1 15.2979 8.50795 2.46425 
56 1 16.0513 8.50802 1.22775 
19 1 10.0071 9.72338 2.46425 
24 1 8.34791 13.6662 2.46328 
27 1 8.79243 12.2581 2.46418 
35 1 9.62159 10.3164 1.22775 
43 1 9.02365 11.5659 1.2277 
3 1 22.592 8.50799 2.46425 
7 1 21.7876 8.508 1.22775 
11 1 20.3714 8.508 1.22775 
20 1 23.5331 7.29766 2.46425 
36 1 23.9233 6.71258 1.22775 
44 1 24.5244 5.45908 1.22775 
47 1 19.5975 8.508 2.46425 
51 1 18.2187 8.508 2.46425 
55 1 17.5107 8.50801 1.22775 
17 1 23.5331 9.71834 2.46425 
33 1 23.9233 10.3034 1.22775 
41 1 24.5244 11.5569 1.22775 
15 1 26.4125 0.825831 2.46425 
23 1 25.1975 3.35943 2.46425 
28 1 24.7502 4.77011 2.46425 
31 1 26.0242 1.41875 1.22775 
39 1 25.4271 2.67007 1.22775 
2 1 27.3459 17.398 2.46424 
6 1 28.1733 17.3973 1.22774 
10 1 29.5668 17.3984 1.2276 
14 1 26.4123 16.1902 2.46425 
22 1 25.1975 13.6566 2.46425 
25 1 24.7502 12.2459 2.46425 
30 1 26.0241 15.5972 1.22775 
38 1 25.4271 14.3459 1.22775 
46 1 30.3088 17.4043 2.46408 
50 1 31.7666 17.4063 2.46096 
54 1 32.5027 17.3601 1.22441 
ITEM: TIMESTEP
60
ITEM: NUMBER OF ATOMS
57
ITEM: BOX BOUNDS pp pp pp
0.0000000000000000e+00 3.2808000000000000e+01
0.0000000000000000e+00 1.7780000000000001e+01
0.0000000000000000e+00 2.4729999999999999e+00
ITEM: ATOMS id type x y z 
13 1 7.17561 0.800238 2.46016 
29 1 7.5489 1.40983 1.2241 
37 1 8.14202 2.67298 1.22663 
1 1 6.17933 17.428 2.45396 
5 1 5.35267 17.4858 1.21633 
9 1 3.88408 17.3162 1.15301 
16 1 7.06721 16.191 2.45981 
32 1 7.48993 15.6174 1.22376 
40 1 8.12902 14.3636 1.22653 
45 1 3.26147 17.789 2.40076 
49 1 1.87338 17.4417 2.44525 
53 1 1.14163 17.3035 1.20925 
57 2 4.34058 15.9817 1.02951 
4 1 10.9498 8.51934 2.46425 
8 1 11.742 8.51507 1.22775 
12 1 13.1725 8.50691 1.22775 
18 1 10.0068 7.30916 2.46424 
21 1 8.35968 3.36582 2.46321 
26 1 8.78914 4.78128 2.46417 
34 1 9.61523 6.7216 1.22774 
42 1 9.01392 5.47306 1.22768 
48 1 13.9405 8.50736 2.46425 
52 1 15.2991 8.50791 2.46425 
56 1 16.0307 8.50804 1.22775 
19 1 10.0036 9.72337 2.46424 
24 1 8.35432 13.6718 2.46313 
27 1 8.78517 12.2603 2.46415 
35 1 9.61102 10.3112 1.22774 
43 1 9.00981 11.566 1.22767 
3 1 22.5916 8.50799 2.46425 
7 1 21.7993 8.508 1.22775 
11 1 20.3696 8.508 1.22775 
20 1 23.5353 7.3008 2.46425 
36 1 23.9342 6.71645 1.22775 
44 1 24.5365 5.46391 1.22775 
47 1 19.6023 8.508 2.46425 
51 1 18.2385 8.508 2.46425 
55 1 17.5068 8.50801 1.22775 
17 1 23.5353 9.71519 2.46425 
33 1 23.9342 10.2995 1.22775 
41 1 24.5365 11.552 1.22775 
15 1 26.4095 0.824338 2.46425 
23 1 25.1911 3.35705 2.46425 
28 1 24.7569 4.77193 2.46425 
31 1 26.0149 1.41231 1.22775 
39 1 25.4149 2.66624 1.22775 
2 1 27.3463 17.398 2.46424 
6 1 28.1717 17.397 1.22773 
10 1 29.5665 17.3988 1.22752 
14 1 26.4091 16.1917 2.46425 
22 1 25.1911 13.6589 2.46425 
25 1 24.7569 12.244 2.46425 
30 1 26.0148 15.6036 1.22775 
38 1 25.4149 14.3497 1.22775 
46 1 30.3127 17.407 2.46396 
50 1 31.7673 17.4065 2.46053 
54 1 32.4961 17.3538 1.22397 
ITEM: TIMESTEP
70
ITEM: NUMBER OF ATOMS
57
ITEM: BOX BOUNDS pp pp pp
0.0000000000000000e+00 3.2808000000000000e+01
0.0000000000000000e+00 1.7780000000000001e+01
0.0000000000000000e+00 2.4729999999999999e+00
ITEM: ATOMS id type x y z 
13 1 7.1855 0.776802 2.45844 
29 1 7.59786 1.37337 1.22278 
37 1 8.1844 2.65117 1.22599 
1 1 6.17168 17.4372 2.44832 
5 1 5.36141 17.5194 1.21262 
9 1 3.89567 17.2497 1.14737 
16 1 7.04312 16.2022 2.45826 
32 1 7.50222 15.6398 1.22253 
40 1 8.16907 14.3902 1.22588 
45 1 3.28021 17.7479 2.39497 
49 1 1.88202 17.4782 2.43957 
53 1 1.16314 17.2856 1.20322 
57 2 4.22077 16.0334 1.07597 
4 1 10.9327 8.52255 2.46424 
8 1 11.736 8.5212 1.22774 
12 1 13.1532 8.50553 1.22775 
18 1 9.99196 7.3138 2.46422 
21 1 8.38409 3.35401 2.46261 
26 1 8.75676 4.78203 2.46403 
34 1 9.57594 6.74489 1.22772 
42 1 8.95841 5.48123 1.22755 
48 1 13.9307 8.50575 2.46425 
52 1 15.314 8.50762 2.46425 
56 1 16.0218 8.5082 1.22775 
19 1 9.98747 9.7254 2.46422 
24 1 8.38386 13.6901 2.46252 
27 1 8.75496 12.27 2.46399 
35 1 9.57079 10.2939 1.22771 
43 1 8.95468 11.5631 1.22752 
3 1 22.6073 8.50794 2.46425 
7 1 21.8041 8.50797 1.22775 
11 1 20.3825 8.508 1.22775 
20 1 23.5481 7.30777 2.46425 
36 1 23.9732 6.7368 1.22775 
44 1 24.5899 5.4769 1.22775 
47 1 19.6161 8.50799 2.46425 
51 1 18.2287 8.508 2.46425 
55 1 17.5173 8.50808 1.22775 
17 1 23.5481 9.70816 2.46425 
33 1 23.9732 10.2791 1.22775 
41 1 24.5898 11.5389 1.22775 
15 1 26.4108 0.811681 2.46424 
23 1 25.1629 3.34786 2.46425 
28 1 24.7879 4.77475 2.46425 
31 1 25.9856 1.38019 1.22775 
39 1 25.3656 2.6478 1.22775 
2 1 27.3609 17.3977 2.46419 
6 1 28.1887 17.3956 1.22766 
10 1 29.5844 17.4032 1.22694 
14 1 26.4095 16.2045 2.46424 
22 1 25.1629 13.668 2.46425 
25 1 24.7878 12.241 2.46425 
30 1 25.9849 15.6354 1.22775 
38 1 25.3655 14.368 1.22775 
46 1 30.3186 17.4186 2.46342 
50 1 31.791 17.3963 2.45851 
54 1 32.5142 17.3254 1.2223 
ITEM: TIMESTEP
80
ITEM: NUMBER OF ATOMS
57
ITEM: BOX BOUNDS pp pp pp
0.0000000000000000e+00 3.2808000000000000e+01
0.0000000000000000e+00 1.7780000000000001e+01
0.0000000000000000e+00 2.4729999999999999e+00
ITEM: ATOMS id type x y z 
13 1 7.20616 0.778509 2.45738 
29 1 7.62299 1.3539 1.2215 
37 1 8.21352 2.64389 1.22561 
1 1 6.14362 17.4432 2.44821 
5 1 5.36933 17.5498 1.20804 
9 1 3.91429 17.2107 1.14894 
16 1 7.03371 16.1922 2.45731 
32 1 7.49756 15.6627 1.22138 
40 1 8.19593 14.4038 1.22553 
45 1 3.28435 17.716 2.39258 
49 1 1.89177 17.4883 2.43673 
53 1 1.1679 17.2913 1.20073 
57 2 4.15269 16.0544 1.09666 
4 1 10.9267 8.5231 2.46424 
8 1 11.7185 8.52349 1.22774 
12 1 13.1469 8.50487 1.22775 
18 1 9.98451 7.31705 2.4642 
21 1 8.39926 3.35117 2.46225 
26 1 8.73692 4.78287 2.46392 
34 1 9.55874 6.75587 1.22769 
42 1 8.92856 5.48902 1.22745 
48 1 13.915 8.50428 2.46425 
52 1 15.2857 8.50724 2.46425 
56 1 16.0457 8.50844 1.22775 
19 1 9.97944 9.72267 2.46419 
24 1 8.40409 13.6959 2.46218 
27 1 8.73807 12.2727 2.46387 
35 1 9.55341 10.2839 1.22768 
43 1 8.92359 11.5579 1.22741 
3 1 22.6113 8.5079 2.46425 
7 1 21.825 8.50794 1.22775 
11 1 20.3925 8.50801 1.22775 
20 1 23.5605 7.30263 2.46425 
36 1 23.9913 6.74759 1.22775 
44 1 24.6214 5.48027 1.22775 
47 1 19.6128 8.50798 2.46425 
51 1 18.2518 8.508 2.46425 
55 1 17.4968 8.5082 1.22775 
17 1 23.5605 9.71326 2.46425 
33 1 23.9913 10.2683 1.22775 
41 1 24.6214 11.5354 1.22775 
15 1 26.4126 0.811965 2.46423 
23 1 25.1449 3.34423 2.46425 
28 1 24.8081 4.77286 2.46425 
31 1 25.9736 1.36544 1.22774 
39 1 25.3379 2.6353 1.22775 
2 1 27.3662 17.3973 2.46413 
6 1 28.193 17.395 1.22758 
10 1 29.5852 17.408 1.22663 
14 1 26.4105 16.2042 2.46423 
22 1 25.1448 13.6715 2.46425 
25 1 24.808 12.2426 2.46425 
30 1 25.9721 15.6499 1.22774 
38 1 25.3377 14.3803 1.22775 
46 1 30.3389 17.4239 2.46298 
50 1 31.7856 17.3885 2.45763 
54 1 32.5294 17.3101 1.22069 
ITEM: TIMESTEP
90
ITEM: NUMBER OF ATOMS
57
ITEM: BOX BOUNDS pp pp pp
0.0000000000000000e+00 3.2808000000000000e+01
0.0000000000000000e+00 1.7780000000000001e+01
0.0000000000000000e+00 2.4729999999999999e+00
ITEM: ATOMS id type x y z 
13 1 7.22119 0.750273 2.4552 
29 1 7.66407 1.32245 1.21954 
37 1 8.26644 2.63119 1.22495 
1 1 6.14376 17.4511 2.4417 
5 1 5.36084 17.6002 1.20771 
9 1 3.95006 17.1978 1.15307 
16 1 7.00357 16.2023 2.45537 
32 1 7.49243 15.6747 1.21977 
40 1 8.23601 14.434 1.22495 
45 1 3.29849 17.6711 2.39481 
49 1 1.89066 17.4968 2.43252 
53 1 1.17291 17.308 1.19767 
57 2 4.05695 16.0199 1.12131 
4 1 10.9091 8.52143 2.46422 
8 1 11.7326 8.52564 1.22772 
12 1 13.1269 8.50392 1.22775 
18 1 9.96881 7.31667 2.46415 
21 1 8.42456 3.35078 2.46163 
26 1 8.7017 4.77933 2.46372 
34 1 9.52789 6.76721 1.22764 
42 1 8.87793 5.504 1.22726 
48 1 13.901 8.50172 2.46425 
52 1 15.3291 8.50654 2.46425 
56 1 16.0136 8.50881 1.22775 
19 1 9.96328 9.72058 2.46414 
24 1 8.43205 13.7099 2.4617 
27 1 8.7075 12.2934 2.46365 
35 1 9.52209 10.2723 1.22763 
43 1 8.8611 11.5694 1.2272 
3 1 22.6279 8.50808 2.46425 
7 1 21.8158 8.50793 1.22775 
11 1 20.4141 8.508 1.22775 
20 1 23.569 7.31368 2.46425 
36 1 24.0192 6.76176 1.22775 
44 1 24.6753 5.49318 1.22775 
47 1 19.6426 8.50794 2.46425 
51 1 18.2063 8.50803 2.46425 
55 1 17.5284 8.50848 1.22775 
17 1 23.5691 9.70238 2.46425 
33 1 24.0194 10.2545 1.22775 
41 1 24.675 11.5226 1.22775 
15 1 26.4221 0.802032 2.4642 
23 1 25.1137 3.3429 2.46425 
28 1 24.8431 4.76202 2.46425 
31 1 25.9628 1.33334 1.22771 
39 1 25.2842 2.61947 1.22775 
2 1 27.3846 17.3962 2.464 
6 1 28.2012 17.3949 1.22744 
10 1 29.6047 17.417 1.22597 
14 1 26.4186 16.2138 2.4642 
22 1 25.1136 13.6731 2.46425 
25 1 24.8427 12.252 2.46425 
30 1 25.9597 15.681 1.22771 
38 1 25.2843 14.3963 1.22775 
46 1 30.3446 17.4301 2.46233 
50 1 31.8027 17.3703 2.45537 
54 1 32.5229 17.2936 1.21886 
ITEM: TIMESTEP
100
ITEM: NUMBER OF ATOMS
57
ITEM: BOX BOUNDS pp pp pp
0.0000000000000000e+00 3.2808000000000000e+01
0.0000000000000000e+00 1.7780000000000001e+01
0.0000000000000000e+00 2.4729999999999999e+00
ITEM: ATOMS id type x y z 
13 1 7.24189 0.743432 2.45375 
29 1 7.68804 1.297 1.21801 
37 1 8.30007 2.61801 1.22444 
1 1 6.13816 17.4557 2.44201 
5 1 5.3736 17.6126 1.20266 
9 1 3.96601 17.1633 1.15902 
16 1 7.00082 16.1899 2.45416 
32 1 7.47883 15.6777 1.21845 
40 1 8.24981 14.4454 1.2245 
45 1 3.31508 17.6504 2.39858 
49 1 1.90732 17.5041 2.43081 
53 1 1.17301 17.3189 1.19533 
57 2 4.01401 16.0191 1.13315 
4 1 10.8832 8.53797 2.4642 
8 1 11.7145 8.5314 1.2277 
12 1 13.1022 8.50381 1.22775 
18 1 9.96001 7.32631 2.46411 
21 1 8.44161 3.34601 2.4612 
26 1 8.67546 4.77337 2.46353 
34 1 9.51485 6.78314 1.2276 
42 1 8.83306 5.50026 1.22709 
48 1 13.8665 8.49872 2.46424 
52 1 15.3043 8.50574 2.46425 
56 1 16.0377 8.5094 1.22775 
19 1 9.94315 9.73225 2.4641 
24 1 8.44734 13.7273 2.46126 
27 1 8.68934 12.3018 2.46347 
35 1 9.49965 10.283 1.22758 
43 1 8.83803 11.5695 1.22703 
3 1 22.6479 8.50765 2.46425 
7 1 21.8181 8.50779 1.22775 
11 1 20.4293 8.508 1.22775 
20 1 23.5849 7.30639 2.46425 
36 1 24.0396 6.76992 1.22775 
44 1 24.7228 5.48427 1.22775 
47 1 19.6662 8.50786 2.46425 
51 1 18.2287 8.50803 2.46425 
55 1 17.4996 8.5089 1.22775 
17 1 23.5845 9.70881 2.46425 
33 1 24.0393 10.245 1.22775 
41 1 24.723 11.5303 1.22775 
15 1 26.4194 0.804516 2.46417 
23 1 25.0932 3.33251 2.46424 
28 1 24.8675 4.75552 2.46425 
31 1 25.9513 1.32909 1.22769 
39 1 25.2529 2.60086 1.22774 
2 1 27.3824 17.3963 2.46389 
6 1 28.2027 17.3956 1.22729 
10 1 29.6011 17.4236 1.2255 
14 1 26.4159 16.2122 2.46417 
22 1 25.0928 13.683 2.46424 
25 1 24.8675 12.2587 2.46425 
30 1 25.9476 15.687 1.22769 
38 1 25.2513 14.414 1.22774 
46 1 30.3592 17.4343 2.46171 
50 1 31.799 17.3583 2.45423 
54 1 32.5388 17.2821 1.21697 
ITEM: TIMESTEP
110
ITEM: NUMBER OF ATOMS
57
ITEM: BOX BOUNDS pp pp pp
0.0000000000000000e+00 3.2808000000000000e+01
0.0000000000000000e+00 1.7780000000000001e+01
0.0000000000000000e+00 2.4729999999999999e+00
ITEM: ATOMS id type x y z 
13 1 7.25107 0.742032 2.45292 
29 1 7.70313 1.29297 1.2172 
37 1 8.31607 2.61499 1.22413 
1 1 6.14329 17.4654 2.44061 
5 1 5.37511 17.611 1.20232 
9 1 3.97299 17.1569 1.16212 
16 1 6.99403 16.1904 2.45347 
32 1 7.47322 15.6764 1.21778 
40 1 8.25833 14.4498 1.2242 
45 1 3.31568 17.6401 2.40143 
49 1 1.90795 17.5058 2.43009 
53 1 1.17569 17.3292 1.19474 
57 2 4.00251 16.0108 1.13774 
4 1 10.8802 8.53901 2.46419 
8 1 11.7046 8.53495 1.22769 
12 1 13.1012 8.50399 1.22774 
18 1 9.94942 7.32698 2.46408 
21 1 8.45002 3.34335 2.46091 
26 1 8.66329 4.7744 2.4634 
34 1 9.5079 6.78252 1.22756 
42 1 8.81852 5.50233 1.22698 
48 1 13.8567 8.49721 2.46424 
52 1 15.3018 8.50513 2.46425 
56 1 16.0413 8.50947 1.22775 
19 1 9.9333 9.7335 2.46407 
24 1 8.45605 13.733 2.46098 
27 1 8.68133 12.3045 2.46335 
35 1 9.49375 10.2815 1.22755 
43 1 8.82394 11.5747 1.22693 
3 1 22.6527 8.50738 2.46425 
7 1 21.8292 8.50761 1.22775 
11 1 20.4319 8.50797 1.22775 
20 1 23.595 7.3068 2.46425 
36 1 24.046 6.76847 1.22775 
44 1 24.7358 5.48733 1.22775 
47 1 19.6758 8.50783 2.46425 
51 1 18.2326 8.5081 2.46425 
55 1 17.4912 8.5092 1.22775 
17 1 23.5947 9.70834 2.46425 
33 1 24.0459 10.2465 1.22775 
41 1 24.7362 11.5272 1.22775 
15 1 26.4179 0.803363 2.46415 
23 1 25.0831 3.32608 2.46424 
28 1 24.8786 4.7564 2.46425 
31 1 25.9494 1.32819 1.22767 
39 1 25.2384 2.59883 1.22774 
2 1 27.3816 17.396 2.46381 
6 1 28.2028 17.397 1.22719 
10 1 29.6014 17.4272 1.22515 
14 1 26.4143 16.2131 2.46415 
22 1 25.0825 13.6885 2.46424 
25 1 24.8788 12.2581 2.46425 
30 1 25.9452 15.688 1.22767 
38 1 25.2366 14.4163 1.22774 
46 1 30.357 17.4341 2.46135 
50 1 31.7997 17.3504 2.45332 
54 1 32.5373 17.2795 1.21621 
ITEM: TIMESTEP
120
ITEM: NUMBER OF ATOMS
57
ITEM: BOX BOUNDS pp pp pp
0.0000000000000000e+00 3.2808000000000000e+01
0.0000000000000000e+00 1.7780000000000001e+01
0.0000000000000000e+00 2.4729999999999999e+00
ITEM: ATOMS id type x y z 
13 1 7.28727 0.743879 2.44981 
29 1 7.75604 1.28497 1.21409 
37 1 8.36738 2.6128 1.22273 
1 1 6.16658 17.4923 2.43834 
5 1 5.39737 17.5986 1.19946 
9 1 3.99544 17.1345 1.17417 
16 1 6.99146 16.1886 2.45063 
32 1 7.4497 15.6632 1.21501 
40 1 8.2708 14.4593 1.22288 
45 1 3.32579 17.5932 2.41169 
49 1 1.90996 17.5133 2.42825 
53 1 1.16325 17.3718 1.19307 
57 2 3.97261 15.9879 1.15536 
4 1 10.8714 8.54365 2.46412 
8 1 11.6895 8.54288 1.22763 
12 1 13.0935 8.50645 1.22772 
18 1 9.92027 7.34314 2.46394 
21 1 8.48136 3.34097 2.45964 
26 1 8.62337 4.78718 2.46284 
34 1 9.49467 6.78642 1.22741 
42 1 8.78552 5.50805 1.22647 
48 1 13.857 8.49442 2.46423 
52 1 15.2938 8.50216 2.46425 
56 1 16.0461 8.50841 1.22775 
19 1 9.90393 9.7282 2.46392 
24 1 8.48241 13.7455 2.45973 
27 1 8.65746 12.3078 2.46283 
35 1 9.47789 10.2866 1.22739 
43 1 8.80343 11.5802 1.22645 
3 1 22.6612 8.50721 2.46425 
7 1 21.8434 8.50723 1.22775 
11 1 20.4393 8.50772 1.22775 
20 1 23.6261 7.31744 2.46425 
36 1 24.0583 6.76543 1.22775 
44 1 24.763 5.48768 1.22775 
47 1 19.6762 8.5078 2.46425 
51 1 18.2389 8.50878 2.46425 
55 1 17.4869 8.5102 1.22775 
17 1 23.6258 9.69719 2.46425 
33 1 24.0582 10.2492 1.22775 
41 1 24.7637 11.5266 1.22775 
15 1 26.403 0.80352 2.46403 
23 1 25.0478 3.31782 2.46422 
28 1 24.9139 4.76098 2.46425 
31 1 25.9453 1.33466 1.22756 
39 1 25.2062 2.59216 1.22771 
2 1 27.3712 17.395 2.46341 
6 1 28.1894 17.404 1.22671 
10 1 29.591 17.4389 1.22366 
14 1 26.4002 16.212 2.46403 
22 1 25.0469 13.6967 2.46422 
25 1 24.9145 12.2532 2.46425 
30 1 25.94 15.6817 1.22756 
38 1 25.2033 14.4228 1.22771 
46 1 30.3525 17.4281 2.45967 
50 1 31.7862 17.32 2.45017 
54 1 32.5361 17.2755 1.21254 
ITEM: TIMESTEP
130
ITEM: NUMBER OF ATOMS
57
ITEM: BOX BOUNDS pp pp pp
0.0000000000000000e+00 3.2808000000000000e+01
0.0000000000000000e+00 1.7780000000000001e+01
0.0000000000000000e+00 2.4729999999999999e+00
ITEM: ATOMS id type x y z 
13 1 7.29331 0.74798 2.44926 
29 1 7.76147 1.28836 1.2135 
37 1 8.37124 2.61464 1.22228 
1 1 6.17189 17.4962 2.43818 
5 1 5.40089 17.5935 1.20015 
9 1 4.00058 17.1326 1.17623 
16 1 6.99627 16.1927 2.44998 
32 1 7.44811 15.6612 1.21435 
40 1 8.2673 14.4542 1.22244 
45 1 3.32114 17.58 2.41376 
49 1 1.90638 17.5148 2.42863 
53 1 1.16056 17.3842 1.19328 
57 2 3.97901 15.985 1.15876 
4 1 10.8755 8.54305 2.46409 
8 1 11.6942 8.54126 1.22761 
12 1 13.0967 8.50741 1.22772 
18 1 9.92228 7.34407 2.46388 
21 1 8.48441 3.34542 2.45918 
26 1 8.62377 4.78911 2.46265 
34 1 9.49347 6.79018 1.22734 
42 1 8.79031 5.5116 1.22628 
48 1 13.8564 8.49623 2.46422 
52 1 15.297 8.50149 2.46425 
56 1 16.0445 8.50728 1.22775 
19 1 9.90732 9.72574 2.46386 
24 1 8.48056 13.7431 2.45931 
27 1 8.66069 12.3049 2.46264 
35 1 9.47924 10.2829 1.22732 
43 1 8.80921 11.5793 1.22628 
3 1 22.6578 8.50745 2.46425 
7 1 21.8396 8.50729 1.22775 
11 1 20.4366 8.50763 1.22775 
20 1 23.6229 7.31924 2.46425 
36 1 24.0582 6.76894 1.22775 
44 1 24.7576 5.48856 1.22774 
47 1 19.6768 8.5079 2.46425 
51 1 18.2363 8.50918 2.46425 
55 1 17.4887 8.51009 1.22775 
17 1 23.6228 9.69567 2.46425 
33 1 24.0582 10.2459 1.22775 
41 1 24.7581 11.526 1.22774 
15 1 26.4 0.802893 2.46397 
23 1 25.0481 3.32032 2.46421 
28 1 24.9111 4.76286 2.46424 
31 1 25.9445 1.33674 1.22751 
39 1 25.208 2.59516 1.2277 
2 1 27.3674 17.3952 2.46324 
6 1 28.1865 17.4064 1.22651 
10 1 29.5874 17.4379 1.22311 
14 1 26.3982 16.2121 2.46397 
22 1 25.0472 13.6944 2.46421 
25 1 24.9116 12.2517 2.46424 
30 1 25.9402 15.6793 1.22751 
38 1 25.2055 14.42 1.2277 
46 1 30.3469 17.4224 2.45911 
50 1 31.7833 17.316 2.44926 
54 1 32.5307 17.2803 1.21185 
ITEM: TIMESTEP
140
ITEM: NUMBER OF ATOMS
57
ITEM: BOX BOUNDS pp pp pp
0.0000000000000000e+00 3.2808000000000000e+01
0.0000000000000000e+00 1.7780000000000001e+01
0.0000000000000000e+00 2.4729999999999999e+00
ITEM: ATOMS id type x y z 
13 1 7.31246 0.761615 2.44647 
29 1 7.79028 1.29366 1.21052 
37 1 8.40425 2.61774 1.21947 
1 1 6.18606 17.5174 2.43957 
5 1 5.41446 17.5828 1.20222 
9 1 4.01921 17.1074 1.18851 
16 1 7.01678 16.2103 2.44675 
32 1 7.44351 15.6636 1.21086 
40 1 8.246 14.4435 1.2197 
45 1 3.31211 17.5114 2.42529 
49 1 1.89925 17.5309 2.43108 
53 1 1.14407 17.4502 1.19528 
57 2 4.02375 15.9605 1.1779 
4 1 10.8785 8.53791 2.46386 
8 1 11.6998 8.53818 1.22739 
12 1 13.0994 8.51233 1.22765 
18 1 9.9244 7.34388 2.46341 
21 1 8.50426 3.35084 2.45641 
26 1 8.62236 4.79631 2.46135 
34 1 9.47791 6.80171 1.22685 
42 1 8.78055 5.52163 1.22504 
48 1 13.8573 8.50169 2.46416 
52 1 15.3 8.49789 2.46423 
56 1 16.0447 8.50186 1.22773 
19 1 9.9151 9.72352 2.46341 
24 1 8.47185 13.7375 2.45664 
27 1 8.6752 12.3028 2.46141 
35 1 9.47459 10.2731 1.22684 
43 1 8.81798 11.575 1.2251 
3 1 22.6557 8.50861 2.46425 
7 1 21.8348 8.50774 1.22775 
11 1 20.4347 8.5074 1.22775 
20 1 23.6164 7.31928 2.46425 
36 1 24.068 6.78029 1.22775 
44 1 24.7572 5.49719 1.22773 
47 1 19.6773 8.50856 2.46425 
51 1 18.2344 8.51093 2.46425 
55 1 17.49 8.50967 1.22775 
17 1 23.6169 9.69703 2.46425 
33 1 24.0686 10.2362 1.22775 
41 1 24.757 11.5197 1.22773 
15 1 26.3841 0.804658 2.46354 
23 1 25.0432 3.32663 2.46412 
28 1 24.9013 4.76755 2.46422 
31 1 25.9327 1.34026 1.22712 
39 1 25.2013 2.60061 1.2276 
2 1 27.3531 17.3977 2.46209 
6 1 28.1709 17.4165 1.22521 
10 1 29.5736 17.4264 1.21979 
14 1 26.3913 16.2081 2.46355 
22 1 25.0432 13.6903 2.46412 
25 1 24.9013 12.2493 2.46422 
30 1 25.9366 15.6748 1.22713 
38 1 25.2024 14.4163 1.2276 
46 1 30.3329 17.3904 2.45567 
50 1 31.7693 17.2987 2.4449 
54 1 32.5198 17.3081 1.20759 
ITEM: TIMESTEP
150
ITEM: NUMBER OF ATOMS
57
ITEM: BOX BOUNDS pp pp pp
0.0000000000000000e+00 3.2808000000000000e+01
0.0000000000000000e+00 1.7780000000000001e+01
0.0000000000000000e+00 2.4729999999999999e+00
ITEM: ATOMS id type x y z 
13 1 7.31025 0.762798 2.4465 
29 1 7.79074 1.29229 1.21052 
37 1 8.40778 2.61557 1.2191 
1 1 6.1823 17.5188 2.43991 
5 1 5.41073 17.5884 1.20245 
9 1 4.02039 17.1003 1.18955 
16 1 7.01399 16.2135 2.44675 
32 1 7.44593 15.6678 1.21086 
40 1 8.2435 14.445 1.2193 
45 1 3.31341 17.5054 2.42633 
49 1 1.90058 17.5355 2.43174 
53 1 1.14532 17.455 1.19589 
57 2 4.03357 15.9529 1.17968 
4 1 10.876 8.53754 2.46379 
8 1 11.6953 8.53814 1.22733 
12 1 13.0972 8.51276 1.22763 
18 1 9.91859 7.34343 2.46329 
21 1 8.50914 3.34838 2.45604 
26 1 8.62043 4.79464 2.46108 
34 1 9.47607 6.79895 1.22672 
42 1 8.7733 5.52015 1.22477 
48 1 13.8566 8.50149 2.46414 
52 1 15.2973 8.49763 2.46422 
56 1 16.0447 8.50145 1.22773 
19 1 9.91113 9.72236 2.46329 
24 1 8.46947 13.739 2.45623 
27 1 8.67434 12.3037 2.46113 
35 1 9.47518 10.2747 1.22672 
43 1 8.81579 11.5768 1.22484 
3 1 22.6573 8.50882 2.46425 
7 1 21.8384 8.50799 1.22775 
11 1 20.4363 8.50759 1.22775 
20 1 23.6213 7.32064 2.46425 
36 1 24.0686 6.77894 1.22774 
44 1 24.7632 5.49657 1.22772 
47 1 19.6767 8.50875 2.46425 
51 1 18.2362 8.5109 2.46425 
55 1 17.4887 8.50943 1.22775 
17 1 23.6219 9.6962 2.46425 
33 1 24.0692 10.2381 1.22774 
41 1 24.7626 11.5211 1.22772 
15 1 26.3828 0.802999 2.46341 
23 1 25.0396 3.32569 2.46408 
28 1 24.904 4.76771 2.46422 