ITEM: TIMESTEP
0
ITEM: NUMBER OF ATOMS
129
ITEM: BOX BOUNDS xy xz yz pp pp pp
0.0000000000000000e+00 2.3654499999999999e+01 7.8845000000000001e+00
0.0000000000000000e+00 1.3658086643083999e+01 0.0000000000000000e+00
0.0000000000000000e+00 2.5747000000000000e+01 0.0000000000000000e+00
ITEM: ATOMS id type x y z 
18 1 10.522 6.683 2.644 
28 1 5.247 4.273 12.803 
31 1 9.65 6.514 0.446 
62 1 9.171 5.15 12.405 
91 1 9.65 6.514 11.889 
92 1 10.81 6.18 11.007 
106 1 10.522 6.683 9.691 
127 1 10.81 6.18 1.328 
4 1 4.402 5.735 13.319 
5 1 3.307 5.568 14.201 
43 1 4.549 6.796 15.517 
52 1 9.172 5.15 25.677 
66 1 4.402 5.735 24.762 
67 1 5.003 6.76 23.881 
88 1 5.247 4.273 25.278 
107 1 3.307 5.568 23.881 
116 1 4.549 6.796 22.565 
117 1 5.003 6.76 14.201 
11 1 11.272 7.494 3.321 
12 1 10.477 8.871 4.018 
14 1 9.018 11.397 0.446 
15 1 10.114 11.565 1.328 
16 1 8.412 9.024 0.654 
19 1 10.477 8.871 5.569 
29 1 10.927 10.156 3.321 
32 1 8.77 7.648 1.328 
35 1 12.036 9.594 2.644 
45 1 9.231 8.963 3.321 
47 1 12.762 8.702 0.446 
49 1 11.224 11 0.654 
51 1 8.872 10.337 2.644 
53 1 11.272 7.494 9.014 
54 1 10.477 8.871 8.317 
56 1 9.018 11.397 11.889 
57 1 8.418 10.372 11.007 
58 1 11.224 11 11.681 
60 1 12.255 7.901 9.691 
61 1 10.477 8.871 6.766 
73 1 9.231 8.963 9.014 
75 1 12.762 8.702 11.889 
76 1 12.202 10.061 11.007 
79 1 9.224 7.617 9.691 
80 1 8.174 12.859 12.405 
89 1 10.927 10.156 9.014 
93 1 8.412 9.024 11.681 
95 1 9.951 11.095 9.691 
105 1 10.114 11.565 11.007 
109 1 8.77 7.648 11.007 
110 1 12.036 9.594 9.691 
114 1 8.872 10.337 9.691 
119 1 8.418 10.372 1.328 
120 1 12.255 7.901 2.644 
123 1 12.202 10.061 1.328 
124 1 9.224 7.617 2.644 
128 1 9.951 11.095 2.644 
129 2 7.318 10.372 11.007 
6 1 5.009 8.108 13.527 
13 1 9.663 10.28 25.128 
17 1 9.204 8.965 25.162 
30 1 10.016 7.556 25.128 
34 1 11.289 7.464 25.162 
36 1 8.174 12.859 25.677 
46 1 11.752 8.777 25.128 
50 1 10.937 10.184 25.162 
55 1 9.663 10.28 12.954 
59 1 10.937 10.184 12.919 
74 1 11.752 8.777 12.954 
78 1 11.289 7.464 12.919 
90 1 10.016 7.556 12.954 
94 1 9.204 8.965 12.919 
101 1 5.009 8.108 24.555 
33 1 11.795 6.589 0.654 
77 1 11.795 6.589 11.681 
41 1 17.967 6.132 13.527 
68 1 17.967 6.132 24.554 
103 1 19.24 6.037 22.565 
126 1 19.24 6.037 15.517 
3 1 19.528 6.852 12.254 
7 1 19.987 8.167 12.289 
10 1 15.106 8.528 12.804 
22 1 19.175 9.576 12.254 
26 1 17.902 9.668 12.289 
38 1 17.439 8.356 12.254 
42 1 18.254 6.949 12.289 
44 1 20.019 11.982 12.804 
48 1 12.546 7.4 1.328 
65 1 19.528 6.852 0.081 
69 1 18.254 6.949 0.046 
82 1 17.439 8.356 0.081 
86 1 17.902 9.668 0.046 
96 1 14.084 8.604 12.405 
98 1 19.175 9.576 0.081 
102 1 19.987 8.167 0.046 
113 1 12.546 7.4 11.007 
1 1 17.919 9.638 16.194 
2 1 18.714 8.261 16.892 
8 1 18.669 10.449 15.517 
9 1 18.714 8.261 18.442 
20 1 14.084 8.604 25.677 
21 1 18.264 6.977 16.194 
23 1 19.541 10.618 13.32 
24 1 20.421 9.484 14.201 
25 1 17.396 10.544 13.527 
27 1 17.155 7.538 15.517 
37 1 19.96 8.169 16.194 
39 1 16.429 8.43 13.319 
40 1 16.644 9.732 14.201 
63 1 17.919 9.638 21.888 
64 1 18.714 8.261 21.19 
70 1 16.936 9.231 22.565 
71 1 18.714 8.261 19.64 
72 1 20.019 11.982 25.278 
81 1 19.96 8.169 21.888 
83 1 16.429 8.43 24.762 
84 1 16.989 7.071 23.881 
85 1 17.396 10.544 24.555 
87 1 19.967 9.515 22.565 
97 1 18.263 6.977 21.888 
99 1 19.541 10.618 24.762 
100 1 18.38 10.953 23.881 
104 1 15.106 8.528 25.278 
108 1 18.669 10.449 22.565 
111 1 20.421 9.484 23.881 
112 1 17.155 7.538 22.565 
115 1 16.644 9.732 23.881 
118 1 16.936 9.231 15.517 
121 1 16.989 7.071 14.201 
122 1 19.967 9.515 15.517 
125 1 18.38 10.953 14.201 
ITEM: TIMESTEP
10
ITEM: NUMBER OF ATOMS
129
ITEM: BOX BOUNDS xy xz yz pp pp pp
0.0000000000000000e+00 2.3654499999999999e+01 7.8845000000000001e+00
0.0000000000000000e+00 1.3658086643083999e+01 0.0000000000000000e+00
0.0000000000000000e+00 2.5747000000000000e+01 0.0000000000000000e+00
ITEM: ATOMS id type x y z 
18 1 10.3918 6.76526 2.65051 
28 1 5.11398 4.54944 12.8812 
31 1 9.36778 6.47466 0.390326 
62 1 9.11369 5.19342 12.4029 
91 1 9.40188 6.52032 11.9281 
92 1 10.8375 6.18377 10.957 
106 1 10.4052 6.76014 9.68629 
127 1 10.8226 6.17371 1.37078 
4 1 4.44363 5.80799 13.2321 
5 1 3.19981 5.58444 14.2387 
43 1 4.59043 6.95558 15.467 
52 1 9.13075 5.2833 25.7134 
66 1 4.46939 5.77613 24.8338 
67 1 5.10584 6.95325 23.8785 
88 1 5.12318 4.53563 25.1992 
107 1 3.15789 5.59953 23.8683 
116 1 4.60764 6.96374 22.5935 
117 1 5.11959 6.9464 14.2103 
11 1 11.263 7.54397 3.4066 
12 1 10.4977 8.81939 4.12328 
14 1 8.98007 11.3253 0.342647 
15 1 10.2185 11.5608 1.36888 
16 1 8.42371 8.94764 0.701624 
19 1 10.4681 8.8656 5.55021 
29 1 10.9571 10.1397 3.3338 
32 1 8.71458 7.67952 1.27318 
35 1 12.0109 9.59466 2.56392 
45 1 9.24448 8.95083 3.26218 
47 1 12.7324 8.74673 0.545466 
49 1 11.312 11.032 0.684975 
51 1 8.83369 10.1789 2.59349 
53 1 11.266 7.53912 8.92717 
54 1 10.5286 8.79425 8.19581 
56 1 9.04998 11.4627 12.0315 
57 1 8.2477 10.1986 11.0057 
58 1 11.3698 10.93 11.6641 
60 1 12.3302 8.09479 9.6682 
61 1 10.4795 8.86974 6.76908 
73 1 9.25956 8.90318 9.01618 
75 1 12.7266 8.78675 11.7524 
76 1 12.2762 10.0787 10.9941 
79 1 9.19634 7.65712 9.76354 
80 1 8.33355 12.5744 12.3337 
89 1 10.8797 10.146 9.01562 
93 1 8.4235 8.89553 11.6378 
95 1 10.0559 11.0724 9.73592 
105 1 10.2453 11.5191 11.014 
109 1 8.68686 7.62373 11.0471 
110 1 12.028 9.57942 9.73378 
114 1 8.92107 10.1969 9.63065 
119 1 8.29086 10.1753 1.34142 
120 1 12.3203 8.10997 2.67213 
123 1 12.2267 10.0419 1.24126 
124 1 9.20374 7.67629 2.55658 
128 1 10.0459 11.0387 2.6351 
129 2 7.15017 10.408 11.0049 
6 1 4.99947 8.17794 13.5745 
13 1 9.60976 10.2836 25.1652 
17 1 9.16774 8.96725 25.1523 
30 1 9.92448 7.74063 25.0626 
34 1 11.2855 7.48861 25.1285 
36 1 8.31263 12.5728 25.7557 
46 1 11.6947 8.80186 25.0666 
50 1 11.0436 10.1004 25.2418 
55 1 9.57926 10.3241 13.0192 
59 1 10.9588 10.1068 12.9065 
74 1 11.6811 8.82961 13.0281 
78 1 11.2736 7.5201 12.9421 
90 1 9.94162 7.68971 13.0353 
94 1 9.20539 8.9704 12.9405 
101 1 5.00423 8.18898 24.4768 
33 1 11.7357 6.58798 0.700463 
77 1 11.7346 6.60766 11.6441 
41 1 17.8938 6.10378 13.5523 
68 1 17.8777 6.16391 24.5224 
103 1 19.1555 6.08287 22.5733 
126 1 19.1421 6.09604 15.5008 
3 1 19.5731 6.84881 12.2829 
7 1 20.0226 8.15681 12.2674 
10 1 15.1315 8.45699 12.84 
22 1 19.256 9.3915 12.1881 
26 1 17.9038 9.64933 12.2681 
38 1 17.4985 8.3315 12.1944 
42 1 18.1505 7.03168 12.3825 
44 1 20.0618 11.8514 12.8391 
48 1 12.5939 7.55602 1.39773 
65 1 19.606 6.75737 0.109794 
69 1 18.3272 7.07513 -0.0270836 
82 1 17.4756 8.34573 0.183556 
86 1 17.9617 9.69351 0.0881073 
96 1 14.0482 8.67519 12.3622 
98 1 19.1389 9.46116 0.126392 
102 1 19.9458 8.07344 0.105206 
113 1 12.5838 7.55937 10.9544 
1 1 17.9518 9.59602 16.297 
2 1 18.6908 8.31472 16.9921 
8 1 18.797 10.3715 15.5268 
9 1 18.7209 8.26533 18.4322 
20 1 14.0543 8.67117 25.7157 
21 1 18.2349 6.99487 16.207 
23 1 19.8192 10.6571 13.2645 
24 1 20.4798 9.46439 14.1569 
25 1 17.4564 10.5354 13.573 
27 1 17.1788 7.54472 15.4439 
37 1 19.9445 8.18085 16.1361 
39 1 16.4529 8.39642 13.4119 
40 1 16.5975 9.56823 14.2686 
63 1 17.9531 9.5809 21.7792 
64 1 18.6881 8.32048 21.0891 
70 1 16.8446 9.01674 22.549 
71 1 18.7195 8.26561 19.6511 
72 1 20.0678 11.88 25.2534 
81 1 19.95 8.19143 21.9515 
83 1 16.4474 8.35662 24.6349 
84 1 16.9532 7.08054 23.9227 
85 1 17.4545 10.5603 24.4994 
87 1 19.9829 9.44115 22.6554 
97 1 18.2191 6.99399 21.8487 
99 1 19.827 10.6406 24.8112 
100 1 18.358 10.9556 23.8422 
104 1 15.1406 8.45702 25.2307 
108 1 18.8091 10.3795 22.5495 
111 1 20.48 9.4328 23.9305 
112 1 17.1663 7.54504 22.6575 
115 1 16.5869 9.56655 23.8099 
118 1 16.8531 9.00815 15.5273 
121 1 16.9598 7.08955 14.1052 
122 1 19.9898 9.45097 15.4263 
125 1 18.3613 10.9554 14.2425 
ITEM: TIMESTEP
20
ITEM: NUMBER OF ATOMS
129
ITEM: BOX BOUNDS xy xz yz pp pp pp
0.0000000000000000e+00 2.3654499999999999e+01 7.8845000000000001e+00
0.0000000000000000e+00 1.3658086643083999e+01 0.0000000000000000e+00
0.0000000000000000e+00 2.5747000000000000e+01 0.0000000000000000e+00
ITEM: ATOMS id type x y z 
18 1 10.3828 6.78203 2.6614 
28 1 5.08634 4.62622 12.8907 
31 1 9.37866 6.52936 0.400184 
62 1 9.08136 5.25694 12.3852 
91 1 9.4121 6.54126 11.9441 
92 1 10.78 6.20381 10.973 
106 1 10.3841 6.78627 9.66976 
127 1 10.7903 6.19617 1.36703 
4 1 4.43771 5.84671 13.2762 
5 1 3.18979 5.60844 14.2216 
43 1 4.58534 6.95853 15.4764 
52 1 9.08388 5.28605 25.71 
66 1 4.44627 5.81118 24.7874 
67 1 5.08642 6.96861 23.8921 
88 1 5.10398 4.59689 25.1849 
107 1 3.16682 5.64764 23.8676 
116 1 4.59425 6.95772 22.6051 
117 1 5.10533 6.96678 14.1855 
11 1 11.2386 7.56223 3.42981 
12 1 10.5139 8.80058 4.07481 
14 1 8.98266 11.2851 0.404037 
15 1 10.2274 11.5286 1.36349 
16 1 8.3618 8.90452 0.688532 
19 1 10.4679 8.86668 5.54602 
29 1 10.9486 10.126 3.31699 
32 1 8.67655 7.66421 1.27208 
35 1 12.0356 9.61793 2.56498 
45 1 9.22979 8.94121 3.25626 
47 1 12.7131 8.77679 0.499703 
49 1 11.3457 11.0453 0.682004 
51 1 8.84101 10.1727 2.6029 
53 1 11.2593 7.54929 8.90635 
54 1 10.5262 8.7651 8.24032 
56 1 9.08264 11.385 12.033 
57 1 8.22048 10.1517 10.9773 
58 1 11.3743 10.9094 11.6713 
60 1 12.3183 8.13054 9.64833 
61 1 10.4788 8.86123 6.7736 
73 1 9.23312 8.88838 9.02733 
75 1 12.7069 8.84404 11.8009 
76 1 12.2949 10.0997 10.9878 
79 1 9.17297 7.64249 9.77887 
80 1 8.349 12.5481 12.3383 
89 1 10.9019 10.1401 9.01333 
93 1 8.4195 8.85623 11.6447 
95 1 10.0524 11.0555 9.73593 
105 1 10.2856 11.5033 11.0433 
109 1 8.66025 7.6257 11.0628 
110 1 12.0499 9.59954 9.71918 
114 1 8.93775 10.1641 9.64788 
119 1 8.31648 10.1587 1.32141 
120 1 12.3214 8.12822 2.69734 
123 1 12.2266 10.0914 1.23779 
124 1 9.17661 7.67619 2.54041 
128 1 10.0331 11.0209 2.64248 
129 2 7.13396 10.4131 10.9951 
6 1 5.05283 8.23081 13.5591 
13 1 9.66031 10.2523 25.1362 
17 1 9.1287 8.94012 25.1396 
30 1 9.90734 7.73414 25.0399 
34 1 11.2334 7.49814 25.1558 
36 1 8.33795 12.5012 25.7604 
46 1 11.7165 8.79313 25.0776 
50 1 11.0695 10.1525 25.2622 
55 1 9.59828 10.3347 13.0202 
59 1 10.9311 10.0942 12.9179 
74 1 11.6775 8.84112 12.9932 
78 1 11.2585 7.521 12.9484 
90 1 9.92245 7.67856 13.0234 
94 1 9.19647 8.98239 12.9426 
101 1 5.0117 8.21043 24.5358 
33 1 11.7085 6.62529 0.709789 
77 1 11.7216 6.63215 11.6371 
41 1 17.8477 6.10526 13.5512 
68 1 17.8596 6.193 24.5422 
103 1 19.1472 6.10909 22.5639 
126 1 19.1577 6.11076 15.5211 
3 1 19.535 6.88407 12.2639 
7 1 20.0618 8.18373 12.2617 
10 1 15.1307 8.43945 12.8393 
22 1 19.2744 9.39575 12.1669 
26 1 17.955 9.63006 12.2913 
38 1 17.4775 8.34734 12.2146 
42 1 18.1273 6.97851 12.3862 
44 1 20.1076 11.8437 12.8374 
48 1 12.585 7.55387 1.40576 
65 1 19.6181 6.79084 0.12199 
69 1 18.2737 7.02969 0.0159249 
82 1 17.5155 8.3557 0.152755 
86 1 17.9095 9.70142 0.0663897 
96 1 14.0445 8.6885 12.3603 
98 1 19.2137 9.38273 0.155858 
102 1 20.0154 8.13395 0.0790819 
113 1 12.5827 7.57358 10.9198 
1 1 17.9478 9.57413 16.292 
2 1 18.6722 8.3364 16.955 
8 1 18.8067 10.3387 15.5318 
9 1 18.7239 8.26834 18.4479 
20 1 14.0614 8.68547 25.7114 
21 1 18.2327 7.00987 16.1924 
23 1 19.8071 10.5985 13.2755 
24 1 20.5178 9.47157 14.1466 
25 1 17.4726 10.4885 13.5923 
27 1 17.1454 7.52625 15.445 
37 1 19.9657 8.19289 16.1334 
39 1 16.4755 8.36451 13.3822 
40 1 16.6178 9.55705 14.2843 
63 1 17.9305 9.55812 21.7578 
64 1 18.6673 8.31156 21.1178 
70 1 16.8467 9.02091 22.5355 
71 1 18.7206 8.26857 19.6337 
72 1 20.1152 11.8483 25.2457 
81 1 19.9787 8.19419 21.9446 
83 1 16.4836 8.32073 24.6787 
84 1 16.9099 7.03367 23.9018 
85 1 17.4718 10.5382 24.4576 
87 1 20.0355 9.44294 22.6829 
97 1 18.2409 7.0071 21.8722 
99 1 19.8006 10.5954 24.7951 
100 1 18.3819 10.9279 23.8693 
104 1 15.1415 8.44252 25.2293 
108 1 18.8266 10.3931 22.5385 
111 1 20.5149 9.46532 23.9542 
112 1 17.1377 7.50999 22.6137 
115 1 16.6166 9.56817 23.8022 
118 1 16.8857 9.00463 15.54 
121 1 16.9482 7.04818 14.1031 
122 1 20.0057 9.46684 15.4109 
125 1 18.4025 10.9319 14.249 
ITEM: TIMESTEP
30
ITEM: NUMBER OF ATOMS
129
ITEM: BOX BOUNDS xy xz yz pp pp pp
0.0000000000000000e+00 2.3654499999999999e+01 7.8845000000000001e+00
0.0000000000000000e+00 1.3658086643083999e+01 0.0000000000000000e+00
0.0000000000000000e+00 2.5747000000000000e+01 0.0000000000000000e+00
ITEM: ATOMS id type x y z 
18 1 10.3756 6.79046 2.66048 
28 1 5.08872 4.62781 12.8889 
31 1 9.38178 6.53981 0.405722 
62 1 9.07216 5.26164 12.3852 
91 1 9.40773 6.54145 11.9437 
92 1 10.7832 6.21921 10.9733 
106 1 10.3764 6.78819 9.67353 
127 1 10.7788 6.20597 1.37339 
4 1 4.42677 5.86485 13.281 
5 1 3.18796 5.61859 14.2194 
43 1 4.58521 6.97002 15.4753 
52 1 9.07298 5.28883 25.71 
66 1 4.43778 5.82331 24.7856 
67 1 5.0861 6.97535 23.8925 
88 1 5.10655 4.59704 25.1847 
107 1 3.1659 5.65694 23.8704 
116 1 4.58902 6.96918 22.6 
117 1 5.09856 6.97692 14.1843 
11 1 11.241 7.57 3.41945 
12 1 10.5179 8.80046 4.06899 
14 1 8.99517 11.266 0.407774 
15 1 10.2329 11.52 1.34901 
16 1 8.35525 8.90186 0.682088 
19 1 10.4688 8.86624 5.55879 
29 1 10.9513 10.1165 3.31717 
32 1 8.6684 7.65692 1.26841 
35 1 12.0432 9.61183 2.57216 
45 1 9.22131 8.9359 3.2543 
47 1 12.7047 8.779 0.501792 
49 1 11.3458 11.0415 0.682138 
51 1 8.83438 10.1634 2.60304 
53 1 11.2501 7.55834 8.90536 
54 1 10.5236 8.76173 8.24726 
56 1 9.08338 11.3779 12.021 
57 1 8.2162 10.1459 10.9826 
58 1 11.3787 10.9121 11.6699 
60 1 12.3214 8.11707 9.64892 
61 1 10.4783 8.85847 6.76793 
73 1 9.23682 8.88298 9.03117 
75 1 12.6993 8.84101 11.7971 
76 1 12.3006 10.0996 10.9935 
79 1 9.17465 7.64153 9.77605 
80 1 8.34986 12.5468 12.3407 
89 1 10.9043 10.1374 9.00788 
93 1 8.42282 8.8547 11.6553 
95 1 10.0572 11.048 9.73873 
105 1 10.2843 11.4944 11.042 
109 1 8.65788 7.62974 11.0632 
110 1 12.0587 9.61185 9.7152 
114 1 8.92525 10.1621 9.65039 
119 1 8.32114 10.1531 1.31459 
120 1 12.3121 8.12351 2.6834 
123 1 12.2391 10.0947 1.24107 
124 1 9.18249 7.6698 2.5427 
128 1 10.0359 11.0303 2.65145 
129 2 7.13556 10.4126 10.9922 
6 1 5.06025 8.23111 13.5545 
13 1 9.65685 10.2405 25.1446 
17 1 9.12605 8.94969 25.1405 
30 1 9.9039 7.73581 25.0391 
34 1 11.2373 7.49976 25.1454 
36 1 8.33628 12.498 25.7591 
46 1 11.7089 8.79835 25.0962 
50 1 11.0695 10.1515 25.25 
55 1 9.5826 10.3295 13.0248 
59 1 10.9473 10.1007 12.9251 
74 1 11.679 8.83008 12.9838 
78 1 11.2613 7.51716 12.9493 
90 1 9.92164 7.6909 13.0226 
94 1 9.18627 8.9707 12.9326 
101 1 5.02439 8.21862 24.5322 
33 1 11.7126 6.63437 0.719698 
77 1 11.7209 6.64394 11.6233 
41 1 17.8451 6.1031 13.5525 
68 1 17.8487 6.20314 24.5439 
103 1 19.1487 6.10815 22.5596 
126 1 19.1537 6.10708 15.5253 
3 1 19.5379 6.89223 12.2689 
7 1 20.0656 8.18253 12.2631 
10 1 15.1318 8.43846 12.8372 
22 1 19.2855 9.39632 12.1658 
26 1 17.9547 9.6327 12.2812 
38 1 17.4766 8.33745 12.2259 
42 1 18.1221 6.97912 12.3757 
44 1 20.119 11.8429 12.8365 
48 1 12.5741 7.57666 1.4094 
65 1 19.6123 6.79737 0.125406 
69 1 18.248 7.0441 0.0208092 
82 1 17.5284 8.34501 0.130883 
86 1 17.9094 9.67186 0.0654368 
96 1 14.0417 8.68744 12.3602 
98 1 19.2264 9.3903 0.152682 
102 1 20.0195 8.14917 0.0889339 
113 1 12.5685 7.59 10.9311 
1 1 17.9507 9.56268 16.2946 
2 1 18.673 8.33352 16.9442 
8 1 18.8154 10.3414 15.5347 
9 1 18.724 8.26951 18.4357 
20 1 14.0535 8.68558 25.7123 
21 1 18.2376 7.01853 16.1904 
23 1 19.8054 10.5887 13.2798 
24 1 20.526 9.47527 14.143 
25 1 17.4805 10.492 13.5954 
27 1 17.1403 7.51756 15.4494 
37 1 19.9693 8.19709 16.1285 
39 1 16.4815 8.35067 13.3748 
40 1 16.611 9.55203 14.2812 
63 1 17.9542 9.56102 21.7952 
64 1 18.6704 8.32381 21.136 
70 1 16.8691 9.02394 22.5253 
71 1 18.721 8.26873 19.6426 
72 1 20.1246 11.8399 25.244 
81 1 19.9713 8.1979 21.9539 
83 1 16.5016 8.30917 24.6841 
84 1 16.9129 7.03465 23.8989 
85 1 17.4595 10.5219 24.4717 
87 1 20.0083 9.45625 22.6727 
97 1 18.2429 7.01535 21.8748 
99 1 19.7959 10.5836 24.7953 
100 1 18.4141 10.9214 23.8331 
104 1 15.1431 8.44286 25.2319 
108 1 18.8209 10.3432 22.5413 
111 1 20.5162 9.47136 23.9536 
112 1 17.1272 7.51477 22.6144 
115 1 16.6212 9.55686 23.7966 
118 1 16.886 9.00416 15.5514 
121 1 16.94 7.04352 14.1069 
122 1 20.0084 9.46249 15.4151 
125 1 18.4111 10.9259 14.2466 
ITEM: TIMESTEP
40
ITEM: NUMBER OF ATOMS
129
ITEM: BOX BOUNDS xy xz yz pp pp pp
0.0000000000000000e+00 2.3654499999999999e+01 7.8845000000000001e+00
0.0000000000000000e+00 1.3658086643083999e+01 0.0000000000000000e+00
0.0000000000000000e+00 2.5747000000000000e+01 0.0000000000000000e+00
ITEM: ATOMS id type x y z 
18 1 10.3497 6.79902 2.67313 
28 1 5.0911 4.65241 12.8853 
31 1 9.37706 6.57166 0.414141 
62 1 9.0278 5.27755 12.3873 
91 1 9.38606 6.54601 11.9472 
92 1 10.764 6.24955 10.9701 
106 1 10.3542 6.79114 9.67 
127 1 10.7502 6.23485 1.37207 
4 1 4.40148 5.91464 13.2874 
5 1 3.18026 5.63669 14.228 
43 1 4.57627 6.98132 15.474 
52 1 9.01946 5.29172 25.7057 
66 1 4.41919 5.86591 24.7819 
67 1 5.08203 7.00282 23.9005 
88 1 5.10873 4.61548 25.1786 
107 1 3.15408 5.69427 23.8795 
116 1 4.57596 6.97293 22.6046 
117 1 5.09605 7.00733 14.1812 
11 1 11.2358 7.58526 3.42035 
12 1 10.5125 8.79724 4.06811 
14 1 9.02043 11.2164 0.418404 
15 1 10.2419 11.4973 1.35433 
16 1 8.32198 8.8753 0.659181 
19 1 10.4726 8.86275 5.57463 
29 1 10.9428 10.1011 3.30783 
32 1 8.62491 7.63947 1.26528 
35 1 12.0737 9.61479 2.58829 
45 1 9.20569 8.92719 3.25455 
47 1 12.6946 8.81169 0.505546 
49 1 11.3644 11.0375 0.666761 
51 1 8.84501 10.1521 2.60225 
53 1 11.2374 7.58096 8.89175 
54 1 10.5127 8.7675 8.2645 
56 1 9.07235 11.3416 11.9904 
57 1 8.20296 10.1381 10.9944 
58 1 11.3852 10.8972 11.6948 
60 1 12.3099 8.13846 9.63421 
61 1 10.4771 8.84676 6.78401 
73 1 9.22799 8.87924 9.02634 
75 1 12.6821 8.86534 11.8032 
76 1 12.3252 10.1039 10.9937 
79 1 9.15838 7.62455 9.77509 
80 1 8.3588 12.5327 12.3484 
89 1 10.906 10.1116 8.99164 
93 1 8.40773 8.84439 11.6692 
95 1 10.0562 11.0132 9.74409 
105 1 10.2921 11.4694 11.0431 
109 1 8.63788 7.63034 11.066 
110 1 12.0949 9.62289 9.70388 
114 1 8.92072 10.158 9.65425 
119 1 8.32516 10.1263 1.30747 
120 1 12.303 8.1476 2.68173 
123 1 12.2753 10.1069 1.23463 
124 1 9.16574 7.65959 2.54245 
128 1 10.0278 11.0299 2.6623 
129 2 7.13597 10.4113 10.9793 
6 1 5.09678 8.25558 13.531 
13 1 9.65864 10.2199 25.1459 
17 1 9.10646 8.94016 25.138 
30 1 9.9013 7.7329 25.0305 
34 1 11.2291 7.4887 25.1342 
36 1 8.33112 12.4779 25.7542 
46 1 11.6981 8.79725 25.119 
50 1 11.0919 10.1792 25.2499 
55 1 9.57291 10.3309 13.0301 
59 1 10.9412 10.1091 12.9311 
74 1 11.6856 8.82084 12.9602 
78 1 11.2606 7.49038 12.954 
90 1 9.93074 7.69416 13.026 
94 1 9.18728 8.96971 12.9349 
101 1 5.06568 8.2442 24.5426 
33 1 11.6901 6.66371 0.72328 
77 1 11.7081 6.67352 11.6198 
41 1 17.8247 6.09286 13.5406 
68 1 17.8266 6.22142 24.5503 
103 1 19.152 6.10991 22.5474 
126 1 19.1607 6.104 15.5354 
3 1 19.5299 6.91137 12.272 
7 1 20.0862 8.19135 12.2626 
10 1 15.1287 8.43561 12.8269 
22 1 19.2864 9.3958 12.1562 
26 1 17.9622 9.64165 12.2555 
38 1 17.4989 8.33908 12.2399 
42 1 18.0976 6.95967 12.377 
44 1 20.1714 11.8362 12.8333 
48 1 12.5725 7.61521 1.3974 
65 1 19.6091 6.82737 0.148418 
69 1 18.2476 7.03196 0.0504361 
82 1 17.5019 8.31555 0.0964682 
86 1 17.9346 9.6456 0.0606149 
96 1 14.0364 8.69091 12.3663 
98 1 19.2725 9.4253 0.159542 
102 1 20.0084 8.16776 0.0991958 
113 1 12.5613 7.63512 10.9326 
1 1 17.9546 9.54887 16.2929 
2 1 18.6764 8.33753 16.9354 
8 1 18.8428 10.3346 15.548 
9 1 18.7239 8.2733 18.4375 
20 1 14.0574 8.68673 25.6968 
21 1 18.2466 7.03284 16.1798 
23 1 19.8166 10.5625 13.2889 
24 1 20.5649 9.49304 14.1371 
25 1 17.496 10.4706 13.6044 
27 1 17.1127 7.51202 15.4567 
37 1 19.9861 8.20465 16.127 
39 1 16.4907 8.32486 13.3802 
40 1 16.6165 9.51931 14.2716 
63 1 17.9547 9.54926 21.7893 
64 1 18.6788 8.33785 21.1429 
70 1 16.8731 9.01072 22.5117 
71 1 18.7231 8.27178 19.6406 
72 1 20.1763 11.8349 25.2496 
81 1 19.9827 8.20092 21.9543 
83 1 16.5128 8.27874 24.6843 
84 1 16.8834 7.02594 23.8915 
85 1 17.4857 10.4802 24.4883 
87 1 20.0255 9.47051 22.6662 
97 1 18.2464 7.02592 21.8869 
99 1 19.7981 10.5549 24.8044 
100 1 18.4259 10.8927 23.8273 
104 1 15.1547 8.44595 25.2412 
108 1 18.8476 10.3329 22.5374 
111 1 20.5553 9.47561 23.9501 
112 1 17.0895 7.50776 22.5852 
115 1 16.6302 9.50914 23.8078 
118 1 16.8866 8.98278 15.557 
121 1 16.9163 7.02093 14.1097 
122 1 20.0266 9.47327 15.4158 
125 1 18.4399 10.8975 14.2477 
ITEM: TIMESTEP
50
ITEM: NUMBER OF ATOMS
129
ITEM: BOX BOUNDS xy xz yz pp pp pp
0.0000000000000000e+00 2.3654499999999999e+01 7.8845000000000001e+00
0.0000000000000000e+00 1.3658086643083999e+01 0.0000000000000000e+00
0.0000000000000000e+00 2.5747000000000000e+01 0.0000000000000000e+00
ITEM: ATOMS id type x y z 
18 1 10.3505 6.80772 2.67573 
28 1 5.08615 4.67986 12.8862 
31 1 9.35474 6.56377 0.406945 
62 1 8.99912 5.28132 12.3906 
91 1 9.37928 6.55089 11.9501 
92 1 10.7529 6.26133 10.9707 
106 1 10.3572 6.80407 9.66135 
127 1 10.7417 6.25156 1.37479 
4 1 4.40332 5.92097 13.289 
5 1 3.17441 5.63723 14.2285 
43 1 4.58361 6.98248 15.4679 
52 1 8.99005 5.30445 25.7062 
66 1 4.42381 5.87486 24.7911 
67 1 5.08338 7.01141 23.9057 
88 1 5.10143 4.64316 25.1696 
107 1 3.14623 5.70249 23.8797 
116 1 4.57942 6.97526 22.6103 
117 1 5.09897 7.02042 14.1767 
11 1 11.23 7.5874 3.41851 
12 1 10.5033 8.79188 4.08129 
14 1 9.01785 11.2101 0.414754 
15 1 10.2455 11.4977 1.35901 
16 1 8.3053 8.86537 0.654729 
19 1 10.4736 8.85705 5.58187 
29 1 10.9469 10.0947 3.30514 
32 1 8.60701 7.63452 1.26953 
35 1 12.075 9.63587 2.57979 
45 1 9.21003 8.92216 3.25849 
47 1 12.702 8.81463 0.502674 
49 1 11.3739 11.0554 0.677996 
51 1 8.83971 10.1472 2.59645 
53 1 11.2334 7.57792 8.88862 
54 1 10.4981 8.767 8.2709 
56 1 9.06097 11.3286 11.9864 
57 1 8.20316 10.1344 10.9915 
58 1 11.393 10.894 11.6939 
60 1 12.3073 8.15216 9.63059 
61 1 10.4764 8.8439 6.79138 
73 1 9.21411 8.87059 9.01194 
75 1 12.6858 8.87238 11.8006 
76 1 12.334 10.1155 10.9875 
79 1 9.13734 7.62188 9.77819 
80 1 8.3657 12.521 12.3492 
89 1 10.9059 10.097 8.98722 
93 1 8.40129 8.84252 11.6764 
95 1 10.058 11.0145 9.749 
105 1 10.296 11.459 11.0491 
109 1 8.62407 7.62763 11.0665 
110 1 12.1026 9.63456 9.69994 
114 1 8.92858 10.1464 9.65806 
119 1 8.32208 10.1097 1.30634 
120 1 12.2994 8.15602 2.68308 
123 1 12.2784 10.1213 1.23604 
124 1 9.14309 7.66092 2.54013 
128 1 10.0292 11.0193 2.66116 
129 2 7.12788 10.4116 10.9719 
6 1 5.11508 8.26695 13.5269 
13 1 9.67268 10.2109 25.1475 
17 1 9.11176 8.93221 25.1374 
30 1 9.89212 7.73039 25.026 
34 1 11.2263 7.49618 25.133 
36 1 8.33556 12.4512 25.7554 
46 1 11.6942 8.79563 25.1075 
50 1 11.0922 10.1683 25.2574 
55 1 9.57464 10.3259 13.0293 
59 1 10.941 10.1017 12.9363 
74 1 11.6786 8.82181 12.9686 
78 1 11.2598 7.49754 12.9558 
90 1 9.92335 7.68571 13.0291 
94 1 9.18447 8.9643 12.9359 
101 1 5.07546 8.25085 24.5568 
33 1 11.6813 6.67983 0.724689 
77 1 11.6997 6.6873 11.6127 
41 1 17.8184 6.0794 13.5489 
68 1 17.8271 6.23588 24.5573 
103 1 19.1459 6.11546 22.5569 
126 1 19.1626 6.11048 15.532 
3 1 19.518 6.92145 12.2708 
7 1 20.0782 8.20009 12.2614 
10 1 15.1301 8.43043 12.8252 
22 1 19.299 9.40227 12.1507 
26 1 17.9666 9.63862 12.2676 
38 1 17.4904 8.33782 12.2337 
42 1 18.1005 6.96214 12.3841 
44 1 20.2023 11.829 12.8321 
48 1 12.5616 7.61652 1.40284 
65 1 19.6195 6.82206 0.15925 
69 1 18.2521 7.03384 0.0520975 
82 1 17.5093 8.31936 0.100749 
86 1 17.9366 9.63502 0.0734351 
96 1 14.0383 8.69884 12.3692 
98 1 19.2704 9.43358 0.168881 
102 1 20.0124 8.1655 0.0895154 
113 1 12.5537 7.64236 10.9247 
1 1 17.9531 9.55381 16.2873 
2 1 18.6845 8.34474 16.943 
8 1 18.8424 10.3265 15.5489 
9 1 18.7243 8.27472 18.4358 
20 1 14.059 8.69495 25.6952 
21 1 18.2435 7.03591 16.1734 
23 1 19.8337 10.5668 13.28 
24 1 20.5845 9.49667 14.1437 
25 1 17.5108 10.4512 13.5962 
27 1 17.1132 7.49817 15.4549 
37 1 19.9827 8.20803 16.1273 
39 1 16.4886 8.31525 13.3768 
40 1 16.6254 9.51349 14.2773 
63 1 17.9578 9.55766 21.793 
64 1 18.6841 8.34152 21.1362 
70 1 16.8764 8.99933 22.5108 
71 1 18.7244 8.27446 19.6422 
72 1 20.2044 11.8251 25.2508 
81 1 19.9855 8.20483 21.9551 
83 1 16.5096 8.26064 24.6774 
84 1 16.8635 7.01843 23.8797 
85 1 17.4933 10.4595 24.4808 
87 1 20.0491 9.46726 22.6688 
97 1 18.2455 7.03486 21.8864 
99 1 19.8262 10.564 24.8041 
100 1 18.4373 10.8802 23.8314 
104 1 15.154 8.43631 25.2424 
108 1 18.8424 10.327 22.5339 
111 1 20.5686 9.48349 23.9448 
112 1 17.0811 7.49267 22.5774 
115 1 16.6372 9.50119 23.7987 
118 1 16.8898 8.97426 15.5542 
121 1 16.9066 7.01371 14.1068 
122 1 20.0485 9.47226 15.413 
125 1 18.4474 10.8812 14.249 
ITEM: TIMESTEP
60
ITEM: NUMBER OF ATOMS
129
ITEM: BOX BOUNDS xy xz yz pp pp pp
0.0000000000000000e+00 2.3654499999999999e+01 7.8845000000000001e+00
0.0000000000000000e+00 1.3658086643083999e+01 0.0000000000000000e+00
0.0000000000000000e+00 2.5747000000000000e+01 0.0000000000000000e+00
ITEM: ATOMS id type x y z 
18 1 10.3489 6.80798 2.67535 
28 1 5.08637 4.68048 12.8859 
31 1 9.35414 6.5642 0.407157 
62 1 8.99764 5.28181 12.3907 
91 1 9.37886 6.55099 11.9502 
92 1 10.7522 6.26197 10.9707 
106 1 10.3558 6.80428 9.6616 
127 1 10.7407 6.25212 1.37472 
4 1 4.403 5.92195 13.2886 
5 1 3.17423 5.63712 14.2287 
43 1 4.5836 6.98311 15.4679 
52 1 8.98833 5.30471 25.7061 
66 1 4.42313 5.876 24.7915 
67 1 5.08351 7.01264 23.9051 
88 1 5.1021 4.64272 25.1697 
107 1 3.14556 5.70362 23.8796 
116 1 4.57908 6.97597 22.6107 
117 1 5.09918 7.02138 14.1767 
11 1 11.2306 7.58806 3.4188 
12 1 10.5037 8.79202 4.08144 
14 1 9.01873 11.2096 0.415741 
15 1 10.2456 11.4961 1.35849 
16 1 8.30446 8.86494 0.654679 
19 1 10.4736 8.85679 5.58204 
29 1 10.9474 10.0943 3.3054 
32 1 8.60612 7.63414 1.26931 
35 1 12.0753 9.63494 2.58024 
45 1 9.20883 8.92192 3.25834 
47 1 12.702 8.815 0.502284 
49 1 11.3728 11.0563 0.678189 
51 1 8.83932 10.1468 2.59595 
53 1 11.234 7.57875 8.88854 
54 1 10.4981 8.76647 8.2712 
56 1 9.06064 11.3279 11.9864 
57 1 8.20225 10.1342 10.9917 
58 1 11.3936 10.8937 11.6941 
60 1 12.307 8.15186 9.63008 
61 1 10.4763 8.8438 6.79162 
73 1 9.21361 8.87063 9.01217 
75 1 12.6862 8.873 11.8005 
76 1 12.3345 10.1157 10.9881 
79 1 9.13697 7.62171 9.77789 
80 1 8.36585 12.5207 12.3494 
89 1 10.9056 10.097 8.98717 
93 1 8.40082 8.84198 11.6764 
95 1 10.0583 11.0132 9.74848 
105 1 10.2961 11.4586 11.049 
109 1 8.62352 7.62763 11.0666 
110 1 12.1032 9.6353 9.69942 
114 1 8.92786 10.1465 9.65837 
119 1 8.32232 10.1091 1.30615 
120 1 12.299 8.15724 2.68295 
123 1 12.2801 10.1217 1.23697 
124 1 9.14288 7.66024 2.54021 
128 1 10.0292 11.02 2.66023 
129 2 7.12775 10.4115 10.9715 
6 1 5.11578 8.26745 13.5267 
13 1 9.6724 10.2106 25.1475 
17 1 9.11106 8.93214 25.1373 
30 1 9.89222 7.73003 25.0259 
34 1 11.2262 7.49558 25.1323 
36 1 8.33551 12.4503 25.7552 
46 1 11.6944 8.7961 25.108 
50 1 11.0924 10.1686 25.2569 
55 1 9.57433 10.3258 13.0294 
59 1 10.9407 10.1018 12.9365 
74 1 11.6786 8.82154 12.9686 
78 1 11.2595 7.49716 12.9559 
90 1 9.92359 7.68546 13.0291 
94 1 9.18452 8.96411 12.9362 
101 1 5.07637 8.25117 24.5563 
33 1 11.6807 6.67998 0.724926 
77 1 11.6996 6.68796 11.6124 
41 1 17.8176 6.07867 13.5494 
68 1 17.8267 6.23642 24.5569 
103 1 19.1462 6.11601 22.5574 
126 1 19.1628 6.11077 15.5322 
3 1 19.5189 6.92218 12.2712 
7 1 20.0788 8.19972 12.2614 
10 1 15.1297 8.43047 12.825 
22 1 19.299 9.40156 12.1507 
26 1 17.9654 9.63835 12.2649 
38 1 17.4915 8.33734 12.2357 
42 1 18.0991 6.96371 12.3829 
44 1 20.2038 11.828 12.8322 
48 1 12.5618 7.61781 1.40306 
65 1 19.6185 6.82292 0.159501 
69 1 18.2523 7.0337 0.052429 
82 1 17.5091 8.31775 0.100189 
86 1 17.937 9.63564 0.0735065 
96 1 14.0384 8.69896 12.3692 
98 1 19.2713 9.43361 0.168679 
102 1 20.0127 8.16649 0.0903662 
113 1 12.5534 7.64327 10.9247 
1 1 17.953 9.55245 16.2872 
2 1 18.6841 8.34506 16.9425 
8 1 18.8432 10.3262 15.549 
9 1 18.7244 8.27485 18.4359 
20 1 14.0594 8.69504 25.6951 
21 1 18.244 7.03626 16.1737 
23 1 19.8347 10.5667 13.2804 
24 1 20.5852 9.49731 14.143 
25 1 17.5104 10.4514 13.5978 
27 1 17.1127 7.49809 15.455 
37 1 19.9834 8.20811 16.1269 
39 1 16.4892 8.31492 13.3757 
40 1 16.6256 9.51244 14.2772 
63 1 17.9577 9.5571 21.7925 
64 1 18.6848 8.34181 21.1364 
70 1 16.8763 8.9994 22.5102 
71 1 18.7245 8.2746 19.6421 
72 1 20.2062 11.8251 25.251 
81 1 19.9856 8.20466 21.9558 
83 1 16.5093 8.25998 24.6777 
84 1 16.8632 7.01809 23.8803 
85 1 17.4938 10.4587 24.4806 
87 1 20.0489 9.46729 22.6681 
97 1 18.2462 7.03485 21.886 
99 1 19.8264 10.5633 24.8044 
100 1 18.438 10.8794 23.8316 
104 1 15.1542 8.43607 25.2422 
108 1 18.8441 10.3268 22.5345 
111 1 20.5696 9.48364 23.945 
112 1 17.0799 7.49187 22.5771 
115 1 16.6375 9.50021 23.7993 
118 1 16.8905 8.9742 15.5544 
121 1 16.9059 7.01314 14.1068 
122 1 20.049 9.47237 15.4132 
125 1 18.4487 10.881 14.2487 
ITEM: TIMESTEP
70
ITEM: NUMBER OF ATOMS
129
ITEM: BOX BOUNDS xy xz yz pp pp pp
0.0000000000000000e+00 2.3654499999999999e+01 7.8845000000000001e+00
0.0000000000000000e+00 1.3658086643083999e+01 0.0000000000000000e+00
0.0000000000000000e+00 2.5747000000000000e+01 0.0000000000000000e+00
ITEM: ATOMS id type x y z 
18 1 10.3375 6.81581 2.67672 
28 1 5.08859 4.69569 12.8823 
31 1 9.34273 6.57037 0.407569 
62 1 8.96946 5.28894 12.3935 
91 1 9.36958 6.55342 11.9523 
92 1 10.7408 6.27353 10.971 
106 1 10.3442 6.81112 9.66159 
127 1 10.7269 6.26375 1.37149 
4 1 4.39835 5.93373 13.2912 
5 1 3.17193 5.64182 14.2297 
43 1 4.58632 6.9894 15.4644 
52 1 8.95601 5.309 25.7036 
66 1 4.41935 5.88925 24.7939 
67 1 5.08641 7.02172 23.9103 
88 1 5.10438 4.65342 25.1664 
107 1 3.14344 5.71565 23.8863 
116 1 4.57915 6.97944 22.6151 
117 1 5.10249 7.03309 14.1743 
11 1 11.2284 7.59422 3.41868 
12 1 10.5034 8.79165 4.08205 
14 1 9.02298 11.1973 0.419135 
15 1 10.2492 11.4901 1.35971 
16 1 8.29076 8.85571 0.648831 
19 1 10.474 8.85229 5.58551 
29 1 10.9433 10.0897 3.30609 
32 1 8.58918 7.62712 1.26768 
35 1 12.081 9.63877 2.58242 
45 1 9.20246 8.9196 3.25806 
47 1 12.7019 8.82513 0.500286 
49 1 11.3793 11.0576 0.676953 
51 1 8.83723 10.1397 2.59371 
53 1 11.2355 7.58171 8.88744 
54 1 10.4942 8.75783 8.27452 
56 1 9.0571 11.3161 11.9827 