ITEM: TIMESTEP
0
ITEM: NUMBER OF ATOMS
163
ITEM: BOX BOUNDS xy xz yz pp pp pp
-6.7755000000000001e+00 1.3552000000000000e+01 -6.7755000000000001e+00
0.0000000000000000e+00 1.1735510246683001e+01 0.0000000000000000e+00
0.0000000000000000e+00 2.2149999999999999e+01 0.0000000000000000e+00
ITEM: ATOMS id type x y z 
8 1 -2.486 5.297 9.849 
87 1 3.001 4.231 10.696 
90 1 2.733 5.481 9.824 
109 1 -2.486 5.297 0.765 
158 1 2.733 5.481 0.79 
163 3 -2.236 4.599 6.267 
11 1 4.24 4.139 20.131 
14 1 3.031 4.094 19.728 
18 1 1.299 5.827 18.554 
33 1 2.266 4.151 20.924 
43 1 4.343 3.96 21.647 
47 1 3.32 5.732 17.88 
52 1 4.24 4.139 12.633 
76 1 2.552 4.924 14.209 
85 1 4.343 3.96 11.117 
89 1 3.32 5.732 14.883 
91 1 1.036 5.037 11.84 
102 1 3.031 4.094 13.035 
105 1 1.299 5.827 14.209 
114 1 2.266 4.151 11.84 
150 1 2.552 4.924 18.554 
156 1 3.001 4.231 22.068 
159 1 1.036 5.037 20.924 
5 1 -5.049 10.63 8.653 
9 1 -3.317 8.897 7.479 
19 1 -1.707 7.414 10.572 
21 1 -2.66 8.795 10.993 
23 1 -3.31 7.532 6.805 
25 1 -4.284 10.573 9.849 
32 1 1.503 6.367 0.79 
36 1 -1.869 7.426 9.056 
38 1 -2.209 6.086 8.653 
54 1 0.3 8.576 10.696 
57 1 1.291 8.001 9.824 
60 1 -1.707 7.414 0.042 
65 1 -3.31 7.532 3.808 
78 1 -1.869 7.426 1.558 
80 1 -2.566 8.842 1.961 
84 1 -4.57 9.799 3.135 
99 1 -3.054 9.687 0.765 
100 1 -2.96 6.142 3.135 
107 1 -5.049 10.63 1.961 
110 1 -3.317 8.897 3.135 
111 1 0.642 5.929 10.696 
113 1 1.503 6.367 9.824 
119 1 -4.284 10.573 0.765 
127 1 -2.209 6.086 1.961 
131 1 -2.318 6.148 10.993 
138 1 1.291 8.001 0.79 
142 1 -2.566 8.842 8.653 
145 1 -4.57 9.799 7.479 
151 1 -5.019 10.493 10.993 
154 1 -3.054 9.687 9.849 
155 1 -2.96 6.142 7.479 
12 1 2.53 7.1 17.202 
17 1 0.468 9.427 20.924 
24 1 -3.52 8.357 11.865 
27 1 -0.31 7.31 21.647 
29 1 0.642 5.929 22.068 
31 1 1.292 7.192 17.88 
44 1 -0.148 7.298 20.131 
46 1 0.191 8.638 19.728 
51 1 -0.31 7.31 11.117 
53 1 2.53 7.1 15.561 
56 1 1.292 7.192 14.883 
63 1 -2.318 6.148 21.771 
66 1 -3.309 6.723 20.899 
70 1 -0.148 7.298 12.633 
72 1 0.548 5.882 13.035 
92 1 0.942 8.582 14.209 
95 1 -5.019 10.493 21.771 
98 1 -4.751 9.243 20.899 
104 1 0.468 9.427 11.84 
116 1 -2.66 8.795 21.771 
118 1 -3.52 8.357 20.899 
122 1 0.191 8.638 13.035 
133 1 -3.309 6.723 11.865 
136 1 0.3 8.576 22.068 
147 1 0.548 5.882 19.728 
153 1 -4.751 9.243 11.865 
160 1 0.942 8.582 18.554 
1 1 7.976 4.694 10.572 
4 1 9.274 4.77 10.993 
20 1 8.034 4.861 9.056 
42 1 9.55 5.41 7.479 
67 1 10.043 4.578 0.765 
77 1 7.976 4.694 0.042 
94 1 8.035 4.861 1.558 
96 1 9.278 4.635 1.961 
121 1 4.688 5.417 10.696 
130 1 9.55 5.41 3.135 
134 1 10.043 4.578 9.849 
152 1 9.278 4.635 8.653 
161 2 9.55 5.41 6.129 
162 2 10.43 4.185 6.206 
45 1 4.688 5.417 22.068 
55 1 4.788 5.329 13.035 
106 1 9.274 4.77 21.771 
137 1 4.788 5.329 19.728 
2 1 7.294 10.585 9.056 
3 1 9.004 7.624 6.127 
6 1 8.556 6.347 6.805 
16 1 2.314 8.72 0.79 
22 1 7.166 6.156 8.653 
26 1 7.226 8.565 7.479 
35 1 7.191 10.764 10.572 
37 1 6.846 9.307 10.993 
39 1 8.214 8.992 6.805 
41 1 6.677 7.002 9.849 
48 1 3.775 6.213 0.79 
61 1 7.294 10.585 1.558 
62 1 9.004 7.624 4.487 
64 1 6.747 9.395 1.961 
68 1 7.437 6.931 3.135 
71 1 4.29 8.493 10.696 
74 1 3.567 7.818 9.824 
81 1 8.556 6.347 3.808 
83 1 6.47 8.606 0.765 
93 1 7.191 10.764 0.042 
97 1 8.214 8.992 3.808 
101 1 2.261 9.954 10.696 
103 1 2.314 8.72 9.824 
117 1 7.166 6.156 1.961 
120 1 7.226 8.565 3.135 
123 1 3.775 6.213 9.824 
129 1 6.677 7.002 0.765 
132 1 6.747 9.395 8.653 
135 1 7.437 6.931 7.479 
141 1 7.244 6.231 10.993 
144 1 6.47 8.606 9.849 
148 1 3.567 7.818 0.79 
7 1 9.22 6.004 11.865 
10 1 3.558 10.029 21.647 
13 1 2.261 9.954 22.068 
15 1 2.978 8.376 17.88 
28 1 3.5 9.862 20.131 
30 1 4.369 8.568 19.728 
34 1 4.308 6.159 18.554 
40 1 7.76 8.511 11.865 
49 1 4.857 7.722 20.924 
50 1 1.984 9.314 18.554 
58 1 1.491 10.146 11.84 
59 1 4.097 7.793 14.209 
69 1 3.558 10.029 11.117 
73 1 2.978 8.376 14.883 
75 1 5.064 6.118 11.84 
79 1 7.244 6.231 21.771 
82 1 7.967 6.906 20.899 
86 1 3.5 9.862 12.633 
88 1 2.256 10.089 13.035 
108 1 9.22 6.004 20.899 
112 1 4.369 8.568 13.035 
115 1 4.308 6.159 14.209 
124 1 4.857 7.722 11.84 
125 1 1.984 9.314 14.209 
126 1 6.846 9.307 21.771 
128 1 7.76 8.511 20.899 
139 1 1.491 10.146 20.924 
140 1 4.097 7.793 18.554 
143 1 7.967 6.906 11.865 
146 1 4.29 8.493 22.068 
149 1 5.064 6.118 20.924 
157 1 2.256 10.089 19.728 
ITEM: TIMESTEP
10
ITEM: NUMBER OF ATOMS
163
ITEM: BOX BOUNDS xy xz yz pp pp pp
-6.7755000000000001e+00 1.3552000000000000e+01 -6.7755000000000001e+00
0.0000000000000000e+00 1.1735510246683001e+01 0.0000000000000000e+00
0.0000000000000000e+00 2.2149999999999999e+01 0.0000000000000000e+00
ITEM: ATOMS id type x y z 
8 1 -2.40783 5.35053 9.84908 
87 1 2.97239 4.25942 10.647 
90 1 2.65438 5.44652 9.7826 
109 1 -2.40287 5.35826 0.763529 
158 1 2.6524 5.44466 0.834157 
163 3 -2.22395 4.57691 6.25487 
11 1 4.30823 4.16574 20.1435 
14 1 2.91061 4.11479 19.6951 
18 1 1.32922 5.84955 18.5992 
33 1 2.12403 4.23794 20.9015 
43 1 4.33093 4.11408 21.5949 
47 1 3.25424 5.79538 17.8541 
52 1 4.2997 4.17195 12.6108 
76 1 2.43727 4.90754 14.1879 
85 1 4.32755 4.11609 11.1741 
89 1 3.25383 5.79824 14.9105 
91 1 0.9861 5.10063 11.8639 
102 1 2.91647 4.11406 13.0681 
105 1 1.32751 5.84759 14.162 
114 1 2.12609 4.23819 11.8611 
150 1 2.43676 4.90402 18.5753 
156 1 2.97657 4.26174 22.118 
159 1 0.985642 5.10061 20.8998 
5 1 -4.93615 10.5862 8.60937 
9 1 -3.28314 8.88726 7.53964 
19 1 -1.76282 7.51278 10.5522 
21 1 -2.61076 8.76336 10.9082 
23 1 -3.24578 7.60301 6.87547 
25 1 -4.14742 10.4805 9.81874 
32 1 1.57422 6.33454 0.784083 
36 1 -1.91296 7.54389 9.07362 
38 1 -2.15421 6.21459 8.64248 
54 1 0.292831 8.52404 10.6793 
57 1 1.34616 7.99985 9.78356 
60 1 -1.76425 7.50418 0.0541613 
65 1 -3.31519 7.51929 3.77012 
78 1 -1.9105 7.53266 1.56477 
80 1 -2.57035 8.78817 1.8866 
84 1 -4.45525 9.81658 3.11062 
99 1 -3.00315 9.62695 0.791616 
100 1 -2.92289 6.23469 3.17633 
107 1 -4.93485 10.6056 1.99214 
110 1 -3.34065 8.88067 3.08529 
111 1 0.595052 5.96208 10.7834 
113 1 1.57574 6.33501 9.82955 
119 1 -4.14509 10.4886 0.796853 
127 1 -2.15607 6.19842 1.96714 
131 1 -2.30922 6.19253 11.0163 
138 1 1.34347 8.00151 0.828959 
142 1 -2.55355 8.78078 8.73624 
145 1 -4.47944 9.78857 7.49336 
151 1 -4.98907 10.459 11.0374 
154 1 -3.00885 9.63044 9.82573 
155 1 -2.89746 6.34865 7.4547 
12 1 2.57213 7.07137 17.1285 
17 1 0.389075 9.36672 20.9214 
24 1 -3.58985 8.38923 11.863 
27 1 -0.250689 7.21964 21.6347 
29 1 0.595083 5.9627 21.9809 
31 1 1.30417 7.20741 17.9154 
44 1 -0.103031 7.19005 20.1288 
46 1 0.142238 8.52269 19.7221 
51 1 -0.249976 7.2185 11.1333 
53 1 2.57336 7.07005 15.6316 
56 1 1.3054 7.2075 14.8482 
63 1 -2.31029 6.20009 21.7548 
66 1 -3.36319 6.72305 20.8592 
70 1 -0.100889 7.1902 12.6324 
72 1 0.554903 5.938 12.9648 
92 1 0.906009 8.47733 14.2501 
95 1 -4.99626 10.4626 21.7158 
98 1 -4.68491 9.25558 20.8518 
104 1 0.38909 9.36775 11.8438 
116 1 -2.60646 8.76535 21.8554 
118 1 -3.56538 8.38836 20.8994 
122 1 0.139784 8.51938 13.0412 
133 1 -3.36795 6.72382 11.9054 
136 1 0.293805 8.52287 22.0833 
147 1 0.555326 5.93596 19.7985 
153 1 -4.67368 9.279 11.9056 
160 1 0.906902 8.47858 18.5137 
1 1 7.8961 4.93791 10.5418 
4 1 9.16864 4.77964 11.0555 
20 1 7.88237 4.93153 9.05307 
42 1 9.49265 5.36687 7.33356 
67 1 9.99862 4.53327 0.751913 
77 1 7.90113 4.93714 0.0787911 
94 1 7.87367 4.93761 1.53392 
96 1 9.21244 4.63213 2.00618 
121 1 4.69552 5.40316 10.7339 
130 1 9.47603 5.41759 3.18295 
134 1 9.99956 4.53024 9.84519 
152 1 9.20533 4.63355 8.64786 
161 2 9.50275 5.36703 6.16397 
162 2 10.4734 4.13976 6.18578 
45 1 4.69163 5.40103 22.0284 
55 1 4.82029 5.48036 13.0639 
106 1 9.17592 4.781 21.721 
137 1 4.81968 5.4862 19.7022 
2 1 7.24747 10.5462 9.07297 
3 1 8.96204 7.6571 6.10338 
6 1 8.39711 6.40092 6.78884 
16 1 2.34479 8.69548 0.835226 
22 1 7.17108 6.18854 8.75645 
26 1 7.1741 8.47373 7.5379 
35 1 7.20229 10.6178 10.5094 
37 1 6.84303 9.31853 10.9494 
39 1 8.25197 8.92555 6.7855 
41 1 6.73216 7.02294 9.83293 
48 1 3.7406 6.36805 0.852779 
61 1 7.23536 10.547 1.53944 
62 1 8.95563 7.66479 4.5449 
64 1 6.71556 9.24562 1.97881 
68 1 7.40622 6.96291 3.05523 
71 1 4.28135 8.54816 10.785 
74 1 3.63136 7.80794 9.85683 
81 1 8.55468 6.41076 3.77709 
83 1 6.54627 8.44962 0.794284 
93 1 7.19932 10.6077 0.103191 
97 1 8.27025 8.9286 3.83397 
101 1 2.35387 9.95555 10.6468 
103 1 2.34494 8.69464 9.77836 
117 1 7.15318 6.19988 1.89162 
120 1 7.16809 8.43687 3.06305 
123 1 3.73952 6.3672 9.76375 
129 1 6.74414 7.02035 0.776481 
132 1 6.71231 9.26601 8.64486 
135 1 7.38856 6.92606 7.56423 
141 1 7.26726 6.16554 10.9037 
144 1 6.53708 8.46821 9.81571 
148 1 3.63269 7.81201 0.756371 
7 1 9.18853 6.02322 11.9083 
10 1 3.63605 9.78734 21.6029 
13 1 2.3539 9.95507 22.1165 
15 1 2.97795 8.31144 17.9089 
28 1 3.64771 9.78883 20.154 
30 1 4.38102 8.52842 19.8008 
34 1 4.35932 6.2867 18.6289 
40 1 7.78929 8.35503 11.9269 
49 1 4.79013 7.70361 20.9161 
50 1 2.06412 9.30616 18.5089 
58 1 1.54141 10.1856 11.8431 
59 1 4.12323 7.75793 14.1362 
69 1 3.63523 9.78738 11.1621 
73 1 2.97668 8.30932 14.8546 
75 1 4.99594 6.27844 11.8704 
79 1 7.2535 6.17358 21.8636 
82 1 7.89431 6.93679 20.9276 
86 1 3.64751 9.78941 12.6096 
88 1 2.32464 10.0835 13.0692 
108 1 9.19505 6.01813 20.8606 
112 1 4.38127 8.52777 12.9624 
115 1 4.35841 6.28875 14.1362 
124 1 4.79127 7.70479 11.8482 
125 1 2.06599 9.30772 14.2548 
126 1 6.85106 9.31116 21.8031 
128 1 7.76831 8.3683 20.8546 
139 1 1.54109 10.1849 20.9217 
140 1 4.12466 7.75822 18.6278 
143 1 7.90202 6.90892 11.8321 
146 1 4.28212 8.5481 21.9783 
149 1 4.99341 6.27866 20.8909 
157 1 2.32349 10.0838 19.6937 
ITEM: TIMESTEP
20
ITEM: NUMBER OF ATOMS
163
ITEM: BOX BOUNDS xy xz yz pp pp pp
-6.7755000000000001e+00 1.3552000000000000e+01 -6.7755000000000001e+00
0.0000000000000000e+00 1.1735510246683001e+01 0.0000000000000000e+00
0.0000000000000000e+00 2.2149999999999999e+01 0.0000000000000000e+00
ITEM: ATOMS id type x y z 
8 1 -2.41897 5.38543 9.83818 
87 1 2.96034 4.27021 10.6597 
90 1 2.6705 5.45158 9.78138 
109 1 -2.41852 5.38347 0.774302 
158 1 2.67282 5.45437 0.833337 
163 3 -2.21266 4.56494 6.24648 
11 1 4.28132 4.20985 20.1289 
14 1 2.90583 4.14334 19.6934 
18 1 1.30221 5.84889 18.5869 
33 1 2.10949 4.26109 20.9085 
43 1 4.30665 4.16189 21.5733 
47 1 3.26639 5.78182 17.844 
52 1 4.28232 4.21045 12.6351 
76 1 2.45691 4.924 14.1736 
85 1 4.30689 4.16234 11.1863 
89 1 3.26532 5.78375 14.9192 
91 1 0.97698 5.1126 11.8547 
102 1 2.90467 4.14204 13.0702 
105 1 1.3023 5.85183 14.179 
114 1 2.10899 4.25857 11.8565 
150 1 2.4563 4.92338 18.5914 
156 1 2.96054 4.27172 22.1026 
159 1 0.978105 5.11393 20.9077 
5 1 -4.92041 10.5641 8.61296 
9 1 -3.27104 8.8819 7.52779 
19 1 -1.76745 7.51767 10.5675 
21 1 -2.63313 8.7615 10.9467 
23 1 -3.25315 7.61891 6.896 
25 1 -4.12452 10.4661 9.81078 
32 1 1.59886 6.35294 0.770948 
36 1 -1.87071 7.55248 9.08063 
38 1 -2.16155 6.22585 8.65612 
54 1 0.309505 8.50804 10.6732 
57 1 1.35979 7.9903 9.79532 
60 1 -1.76702 7.51918 0.0578298 
65 1 -3.30089 7.53213 3.77167 
78 1 -1.89282 7.55049 1.55205 
80 1 -2.55651 8.78961 1.88198 
84 1 -4.47053 9.80292 3.0979 
99 1 -2.99074 9.61294 0.776581 
100 1 -2.93142 6.2582 3.17222 
107 1 -4.92227 10.5851 1.99507 
110 1 -3.32365 8.87462 3.1037 
111 1 0.613934 5.9656 10.7459 
113 1 1.60055 6.35395 9.84376 
119 1 -4.12721 10.466 0.780584 
127 1 -2.1616 6.20987 1.97071 
131 1 -2.3292 6.21175 11.0155 
138 1 1.35943 7.99076 0.818694 
142 1 -2.54516 8.80435 8.72028 
145 1 -4.4674 9.76578 7.49561 
151 1 -4.97322 10.4644 11.0351 
154 1 -2.99078 9.61586 9.8479 
155 1 -2.91559 6.3772 7.45154 
12 1 2.55818 7.06637 17.1468 
17 1 0.401163 9.33978 20.9133 
24 1 -3.61989 8.36873 11.8481 
27 1 -0.250065 7.20707 21.6301 
29 1 0.613488 5.96414 22.0166 
31 1 1.28719 7.18774 17.9105 
44 1 -0.120682 7.17325 20.1386 
46 1 0.144623 8.5095 19.72 
51 1 -0.249194 7.20612 11.1349 
53 1 2.55689 7.06472 15.6158 
56 1 1.28906 7.18811 14.8505 
63 1 -2.32777 6.21958 21.7472 
66 1 -3.37763 6.7312 20.8714 
70 1 -0.119896 7.17379 12.6263 
72 1 0.539606 5.9342 12.9582 
92 1 0.912854 8.45934 14.2467 
95 1 -4.97575 10.4547 21.736 
98 1 -4.68412 9.27533 20.8524 
104 1 0.401164 9.33968 11.8514 
116 1 -2.62428 8.75551 21.827 
118 1 -3.61665 8.37504 20.915 
122 1 0.14445 8.50828 13.0436 
133 1 -3.37631 6.73367 11.8901 
136 1 0.308596 8.50746 22.0899 
147 1 0.541457 5.93186 19.8056 
153 1 -4.68825 9.26376 11.9131 
160 1 0.911865 8.46079 18.517 
1 1 7.87102 4.92737 10.5319 
4 1 9.17248 4.78908 11.0233 
20 1 7.8768 4.92831 9.05634 
42 1 9.47027 5.38724 7.3353 
67 1 9.98456 4.55658 0.774836 
77 1 7.86166 4.92636 0.0906702 
94 1 7.86247 4.94143 1.5525 
96 1 9.19321 4.66213 1.99204 
121 1 4.66567 5.46462 10.7129 
130 1 9.46498 5.436 3.16967 
134 1 9.97189 4.55608 9.84412 
152 1 9.19038 4.66634 8.6367 
161 2 9.48986 5.34008 6.17196 
162 2 10.4893 4.11882 6.17499 
45 1 4.66529 5.46518 22.0499 
55 1 4.81268 5.48556 13.0594 
106 1 9.18276 4.77646 21.7359 
137 1 4.81155 5.48468 19.7034 
2 1 7.2597 10.5254 9.05201 
3 1 8.98114 7.66253 6.11605 
6 1 8.39815 6.3923 6.79032 
16 1 2.35682 8.69148 0.844079 
22 1 7.14559 6.18914 8.74558 
26 1 7.19077 8.4575 7.54166 
35 1 7.21356 10.5737 10.5075 
37 1 6.86412 9.25897 10.9707 
39 1 8.22596 8.91883 6.80211 
41 1 6.72093 7.01135 9.83713 
48 1 3.70107 6.35805 0.821985 
61 1 7.25151 10.5175 1.55726 
62 1 8.97415 7.65829 4.50257 
64 1 6.71819 9.23529 1.98977 
68 1 7.39953 6.97112 3.0576 
71 1 4.30327 8.52739 10.7661 
74 1 3.5967 7.78525 9.83132 
81 1 8.52384 6.38725 3.78098 
83 1 6.54508 8.44427 0.7795 
93 1 7.22294 10.5609 0.109525 
97 1 8.26837 8.94269 3.84458 
101 1 2.35493 9.93487 10.668 
103 1 2.35677 8.6919 9.7701 
117 1 7.13325 6.19259 1.89184 
120 1 7.18563 8.42242 3.06304 
123 1 3.70152 6.35731 9.79221 
129 1 6.73247 7.00487 0.779415 
132 1 6.71595 9.2405 8.62326 
135 1 7.35157 6.95747 7.5715 
141 1 7.24323 6.18896 10.9192 
144 1 6.5411 8.46004 9.82667 
148 1 3.59698 7.78265 0.783051 
7 1 9.17793 6.03366 11.9235 
10 1 3.66247 9.79644 21.6016 
13 1 2.35527 9.93546 22.0965 
15 1 3.01743 8.33833 17.8992 
28 1 3.67284 9.77997 20.1372 
30 1 4.39901 8.53062 19.7955 
34 1 4.3421 6.29821 18.6258 
40 1 7.83442 8.35911 11.8983 
49 1 4.80114 7.72127 20.9082 
50 1 2.06722 9.29123 18.5173 
58 1 1.55583 10.1664 11.8379 
59 1 4.13353 7.75486 14.1249 
69 1 3.66189 9.79592 11.1627 
73 1 3.01798 8.33826 14.8615 
75 1 4.99201 6.2791 11.8575 
79 1 7.23103 6.19753 21.8393 
82 1 7.93499 6.93185 20.91 
86 1 3.67394 9.7789 12.6259 
88 1 2.34496 10.0631 13.069 
108 1 9.17656 6.04839 20.8388 
112 1 4.39806 8.52974 12.9693 
115 1 4.34221 6.30064 14.1387 
124 1 4.80197 7.7212 11.8554 
125 1 2.0663 9.2899 14.2467 
126 1 6.86079 9.26421 21.7959 
128 1 7.83065 8.35997 20.8588 
139 1 1.55573 10.1664 20.9247 
140 1 4.1355 7.75398 18.6373 
143 1 7.93602 6.93683 11.8585 
146 1 4.3035 8.52758 21.9984 
149 1 4.98889 6.27779 20.9078 
157 1 2.34426 10.0625 19.6953 
ITEM: TIMESTEP
30
ITEM: NUMBER OF ATOMS
163
ITEM: BOX BOUNDS xy xz yz pp pp pp
-6.7755000000000001e+00 1.3552000000000000e+01 -6.7755000000000001e+00
0.0000000000000000e+00 1.1735510246683001e+01 0.0000000000000000e+00
0.0000000000000000e+00 2.2149999999999999e+01 0.0000000000000000e+00
ITEM: ATOMS id type x y z 
8 1 -2.45375 5.44295 9.82598 
87 1 2.93777 4.28994 10.6482 
90 1 2.62623 5.42041 9.76206 
109 1 -2.45278 5.44371 0.775704 
158 1 2.62599 5.4177 0.847235 
163 3 -2.17855 4.53253 6.22556 
11 1 4.2569 4.26273 20.1245 
14 1 2.85652 4.17479 19.7129 
18 1 1.28211 5.8343 18.5594 
33 1 2.05787 4.29099 20.8939 
43 1 4.26807 4.25812 21.5386 
47 1 3.22796 5.81671 17.8098 
52 1 4.25854 4.26227 12.6413 
76 1 2.42727 4.94415 14.1872 
85 1 4.27552 4.25272 11.2254 
89 1 3.22586 5.81749 14.9533 
91 1 0.935091 5.14763 11.8258 
102 1 2.85577 4.1731 13.0521 
105 1 1.28235 5.83415 14.2038 
114 1 2.05812 4.28832 11.8695 
150 1 2.42629 4.94556 18.5777 
156 1 2.93936 4.29232 22.1136 
159 1 0.938085 5.1488 20.9384 
5 1 -4.87744 10.5107 8.62029 
9 1 -3.2243 8.91172 7.51024 
19 1 -1.76819 7.55715 10.5927 
21 1 -2.61064 8.77093 11.001 
23 1 -3.24618 7.64219 6.88488 
25 1 -4.07752 10.4333 9.81845 
32 1 1.6153 6.40965 0.797678 
36 1 -1.80811 7.60102 9.08739 
38 1 -2.15987 6.30196 8.64592 
54 1 0.327627 8.47031 10.6826 
57 1 1.37931 7.96954 9.79516 
60 1 -1.77418 7.55262 0.0419381 
65 1 -3.27783 7.53289 3.79526 
78 1 -1.85088 7.58343 1.54424 
80 1 -2.51504 8.8065 1.91223 
84 1 -4.44207 9.7879 3.10528 
99 1 -2.95152 9.57361 0.746091 
100 1 -2.9369 6.29737 3.16534 
107 1 -4.87369 10.5541 1.97344 
110 1 -3.29985 8.89479 3.12467 
111 1 0.587367 5.95622 10.7032 
113 1 1.61352 6.40931 9.81481 
119 1 -4.07531 10.4332 0.792391 
127 1 -2.14729 6.27232 1.97084 
131 1 -2.34647 6.24298 11.0104 
138 1 1.38157 7.9672 0.819749 
142 1 -2.45603 8.83764 8.71672 
145 1 -4.44656 9.74052 7.48911 
151 1 -4.9464 10.4217 11.046 
154 1 -2.95241 9.59327 9.88406 
155 1 -2.93081 6.4217 7.48293 
12 1 2.56455 7.09092 17.1501 
17 1 0.433101 9.27951 20.906 
24 1 -3.63742 8.3175 11.8782 
27 1 -0.245516 7.16626 21.6455 
29 1 0.589444 5.9555 22.0611 
31 1 1.26951 7.17992 17.8873 
44 1 -0.166211 7.13732 20.1424 
46 1 0.136464 8.45084 19.7123 
51 1 -0.242446 7.16861 11.1203 
53 1 2.56368 7.09177 15.6128 
56 1 1.2697 7.18164 14.8775 
63 1 -2.3465 6.25848 21.7562 
66 1 -3.41022 6.74725 20.8718 
70 1 -0.166842 7.13729 12.6227 
72 1 0.496948 5.91839 12.9866 
92 1 0.931463 8.41531 14.2442 
95 1 -4.95586 10.4336 21.7225 
98 1 -4.64426 9.3141 20.8389 
104 1 0.433865 9.27687 11.8554 
116 1 -2.61228 8.76919 21.7741 
118 1 -3.63946 8.30909 20.8956 
122 1 0.136941 8.45361 13.0504 
133 1 -3.40266 6.75341 11.8947 
136 1 0.326572 8.4707 22.0851 
147 1 0.496288 5.9191 19.7795 
153 1 -4.64732 9.31016 11.9124 
160 1 0.931076 8.41529 18.5201 
1 1 7.80016 4.92757 10.5378 
4 1 9.10305 4.84141 10.9987 
20 1 7.81208 4.94835 9.04993 
42 1 9.4415 5.42624 7.31749 
67 1 9.95855 4.61024 0.787618 
77 1 7.77936 4.93316 0.0863077 
94 1 7.79502 4.94309 1.53491 
96 1 9.13467 4.70639 1.99908 
121 1 4.6232 5.54601 10.6581 
130 1 9.43833 5.47604 3.16383 
134 1 9.94632 4.61553 9.80875 
152 1 9.13471 4.72081 8.62396 
161 2 9.42487 5.28364 6.19476 
162 2 10.5398 4.05464 6.14765 
45 1 4.62141 5.54558 22.1065 
55 1 4.82071 5.55463 13.0667 
106 1 9.11088 4.85102 21.7695 
137 1 4.81907 5.55369 19.6986 
2 1 7.2951 10.4681 9.03648 
3 1 8.97381 7.67086 6.09747 
6 1 8.36145 6.41995 6.77243 
16 1 2.36923 8.70166 0.877271 
22 1 7.06756 6.16655 8.7214 
26 1 7.17918 8.42094 7.53874 
35 1 7.26231 10.4841 10.4633 
37 1 6.90792 9.18141 11.0317 
39 1 8.21652 8.88635 6.79833 
41 1 6.68057 6.97383 9.84398 
48 1 3.70873 6.33988 0.827266 
61 1 7.27369 10.4599 1.56628 
62 1 8.96985 7.64426 4.49951 
64 1 6.71307 9.17048 1.98781 
68 1 7.35918 6.95454 3.06078 
71 1 4.32343 8.5134 10.7254 
74 1 3.59344 7.82028 9.78736 
81 1 8.50109 6.39109 3.81512 
83 1 6.54174 8.37762 0.809485 
93 1 7.26436 10.4688 0.154903 
97 1 8.29628 8.92669 3.87204 
101 1 2.42864 9.88429 10.7039 
103 1 2.36875 8.70271 9.73613 
117 1 7.06343 6.17327 1.92775 
120 1 7.2107 8.40302 3.08668 
123 1 3.7077 6.34116 9.78381 
129 1 6.68531 6.9754 0.762368 
132 1 6.70893 9.18765 8.59771 
135 1 7.29695 6.9675 7.54477 
141 1 7.21626 6.21109 10.9659 
144 1 6.53423 8.3916 9.808 
148 1 3.59188 7.8209 0.825792 
7 1 9.16614 6.02214 11.9532 
10 1 3.74354 9.79209 21.602 
13 1 2.42784 9.88383 22.0605 
15 1 3.03989 8.32576 17.8671 
28 1 3.73996 9.78167 20.1466 
30 1 4.46505 8.55154 19.7612 
34 1 4.32409 6.32422 18.6028 
40 1 7.8254 8.38697 11.9018 
49 1 4.85122 7.7462 20.9225 
50 1 2.09816 9.24098 18.523 
58 1 1.58005 10.1137 11.8623 
59 1 4.16557 7.76798 14.1362 
69 1 3.74334 9.79222 11.1619 
73 1 3.04308 8.32515 14.8972 
75 1 4.9971 6.34477 11.8857 
79 1 7.21476 6.20951 21.8001 
82 1 7.94836 6.89409 20.8645 
86 1 3.739 9.7815 12.6163 
88 1 2.40247 10.0107 13.078 
108 1 9.1733 6.02755 20.8198 
112 1 4.46581 8.54987 13.0033 
115 1 4.32417 6.32702 14.1605 
124 1 4.85182 7.74898 11.8421 
125 1 2.09658 9.24248 14.2386 
126 1 6.91268 9.17193 21.7322 
128 1 7.83653 8.38639 20.8629 
139 1 1.58132 10.1146 20.901 
140 1 4.16641 7.76851 18.6261 
143 1 7.94257 6.89548 11.9012 
146 1 4.32188 8.51308 22.0399 
149 1 4.99367 6.34596 20.8751 
157 1 2.40186 10.0111 19.6869 
ITEM: TIMESTEP
40
ITEM: NUMBER OF ATOMS
163
ITEM: BOX BOUNDS xy xz yz pp pp pp
-6.7755000000000001e+00 1.3552000000000000e+01 -6.7755000000000001e+00
0.0000000000000000e+00 1.1735510246683001e+01 0.0000000000000000e+00
0.0000000000000000e+00 2.2149999999999999e+01 0.0000000000000000e+00
ITEM: ATOMS id type x y z 
8 1 -2.49158 5.51708 9.80398 
87 1 2.9169 4.33962 10.6521 
90 1 2.6107 5.44344 9.71944 
109 1 -2.48324 5.50437 0.795314 
158 1 2.61078 5.44228 0.893419 
163 3 -2.14189 4.49642 6.202 
11 1 4.22214 4.33629 20.0831 
14 1 2.81837 4.21683 19.7191 
18 1 1.24736 5.83934 18.5388 
33 1 2.02686 4.32528 20.9116 
43 1 4.23649 4.33833 21.5153 
47 1 3.20085 5.83241 17.7945 
52 1 4.22256 4.3373 12.681 
76 1 2.38918 4.95455 14.2012 
85 1 4.23808 4.33703 11.2472 
89 1 3.20095 5.83401 14.9706 
91 1 0.889136 5.16417 11.8224 
102 1 2.81892 4.21765 13.0459 
105 1 1.248 5.83705 14.2247 
114 1 2.02835 4.32455 11.8513 
150 1 2.38898 4.95518 18.5618 
156 1 2.91591 4.33842 22.112 
159 1 0.890255 5.16504 20.9405 
5 1 -4.8236 10.4584 8.6266 
9 1 -3.15053 8.93467 7.50591 
19 1 -1.75923 7.58952 10.5985 
21 1 -2.58314 8.77813 11.0474 
23 1 -3.23976 7.6723 6.88363 
25 1 -4.04293 10.3943 9.82968 
32 1 1.57423 6.39856 0.837841 
36 1 -1.74677 7.6582 9.09627 
38 1 -2.15796 6.37215 8.64693 
54 1 0.354852 8.43492 10.6784 
57 1 1.40795 7.9803 9.77739 
60 1 -1.7627 7.5971 0.0373114 
65 1 -3.30795 7.54459 3.84158 
78 1 -1.80382 7.64045 1.54872 
80 1 -2.47091 8.83134 1.92795 
84 1 -4.39864 9.78521 3.11611 
99 1 -2.90692 9.55798 0.745136 
100 1 -2.93451 6.29269 3.14667 
107 1 -4.83687 10.5173 1.96714 
110 1 -3.26882 8.89234 3.14573 
111 1 0.562531 5.95192 10.6617 
113 1 1.57284 6.39809 9.77729 
119 1 -4.04342 10.3986 0.770412 
127 1 -2.13247 6.31925 1.96586 
131 1 -2.37538 6.27906 11.0049 
138 1 1.40499 7.97991 0.834878 
142 1 -2.373 8.88746 8.71691 
145 1 -4.41427 9.70354 7.47357 
151 1 -4.9346 10.3914 11.0342 
154 1 -2.88961 9.57623 9.89841 
155 1 -2.95959 6.47465 7.49623 
12 1 2.56429 7.07841 17.1103 
17 1 0.467411 9.21716 20.8891 
24 1 -3.5995 8.32183 11.9237 
27 1 -0.25396 7.12936 21.6501 
29 1 0.560602 5.95315 22.103 
31 1 1.29528 7.17258 17.8442 
44 1 -0.214999 7.08425 20.1366 
46 1 0.122484 8.40033 19.7166 
51 1 -0.254121 7.12612 11.1197 
53 1 2.56502 7.07865 15.6465 
56 1 1.29677 7.17378 14.9239 
63 1 -2.37326 6.28993 21.7508 
66 1 -3.43017 6.73873 20.8552 
70 1 -0.214201 7.08415 12.6325 
72 1 0.453577 5.89299 13.0037 
92 1 0.926831 8.41326 14.2282 
95 1 -4.93481 10.3888 21.7225 
98 1 -4.62781 9.28402 20.7936 
104 1 0.467876 9.21918 11.8758 
116 1 -2.57988 8.77213 21.7332 
118 1 -3.59461 8.32005 20.8524 
122 1 0.122774 8.40138 13.048 
133 1 -3.42419 6.74022 11.9091 
136 1 0.354071 8.43354 22.0848 
147 1 0.453108 5.89471 19.7612 
153 1 -4.63417 9.2783 11.9646 
160 1 0.926903 8.4104 18.5354 
1 1 7.7125 4.91755 10.5392 
4 1 9.05663 4.88245 10.9647 
20 1 7.74984 4.96127 9.04771 
42 1 9.40677 5.47609 7.31164 
67 1 9.89984 4.68267 0.792324 
77 1 7.69742 4.90636 0.0853627 
94 1 7.71865 4.95953 1.54623 
96 1 9.05708 4.75449 2.00491 
121 1 4.59602 5.59542 10.673 
130 1 9.42671 5.51174 3.14678 
134 1 9.88651 4.69744 9.77863 
152 1 9.06504 4.78364 8.61566 
161 2 9.35152 5.21284 6.2175 
162 2 10.6004 3.98157 6.11591 
45 1 4.59448 5.59438 22.0917 
55 1 4.8114 5.60921 13.0797 
106 1 9.05229 4.89141 21.8048 
137 1 4.81121 5.60886 19.6827 
2 1 7.32615 10.3986 9.00349 
3 1 8.96941 7.67879 6.07981 
6 1 8.33055 6.44238 6.75785 
16 1 2.39696 8.71748 0.900992 
22 1 6.96648 6.14855 8.68198 
26 1 7.1442 8.39279 7.49593 
35 1 7.30544 10.3996 10.4416 
37 1 6.93399 9.14077 11.0143 
39 1 8.24077 8.87608 6.78396 
41 1 6.63628 6.9267 9.85269 
48 1 3.67066 6.36518 0.892292 
61 1 7.3088 10.3881 1.60622 
62 1 8.9728 7.65861 4.49729 
64 1 6.72057 9.11616 2.00536 
68 1 7.33394 6.93629 3.08449 
71 1 4.36869 8.49792 10.6917 
74 1 3.60622 7.82605 9.73863 
81 1 8.4884 6.41857 3.84247 
83 1 6.53921 8.33458 0.797252 
93 1 7.29896 10.3834 0.176414 
97 1 8.33431 8.90614 3.89336 
101 1 2.47805 9.83643 10.7306 
103 1 2.39761 8.71711 9.71337 
117 1 6.98308 6.14054 1.9452 
120 1 7.21882 8.36478 3.10716 
123 1 3.67101 6.36422 9.72139 
129 1 6.63237 6.92644 0.765981 
132 1 6.67912 9.14965 8.62487 
135 1 7.24181 6.908 7.51499 
141 1 7.1717 6.21767 11.0005 
144 1 6.53525 8.35178 9.81619 
148 1 3.60579 7.82596 0.875755 
7 1 9.138 6.00755 11.9807 
10 1 3.83818 9.81776 21.6012 
13 1 2.47573 9.83752 22.0339 
15 1 3.04968 8.30512 17.842 
28 1 3.81669 9.76435 20.1357 
30 1 4.5444 8.58296 19.7427 
34 1 4.31347 6.35771 18.5753 
40 1 7.86137 8.35987 11.9625 
49 1 4.90221 7.79549 20.9193 
50 1 2.11952 9.20408 18.5316 
58 1 1.63603 10.0418 11.8726 
59 1 4.19433 7.79077 14.158 
69 1 3.83691 9.81653 11.1621 
73 1 3.04979 8.30405 14.9252 
75 1 4.9977 6.38566 11.8751 
79 1 7.1684 6.22455 21.763 
82 1 7.93366 6.89532 20.812 
86 1 3.8152 9.7629 12.627 
88 1 2.47935 9.96443 13.0808 
108 1 9.14428 6.00848 20.7913 
112 1 4.54524 8.58206 13.0214 
115 1 4.31403 6.35768 14.1871 
124 1 4.9023 7.7971 11.845 
125 1 2.11922 9.20465 14.2303 
126 1 6.93869 9.1301 21.7472 
128 1 7.86767 8.36056 20.7974 
139 1 1.63369 10.0417 20.891 
140 1 4.19471 7.79098 18.6043 
143 1 7.92733 6.89931 11.9505 
146 1 4.36726 8.49736 22.073 
149 1 4.99544 6.38618 20.8871 
157 1 2.47944 9.96476 19.683 
ITEM: TIMESTEP
50
ITEM: NUMBER OF ATOMS
163
ITEM: BOX BOUNDS xy xz yz pp pp pp
-6.7755000000000001e+00 1.3552000000000000e+01 -6.7755000000000001e+00
0.0000000000000000e+00 1.1735510246683001e+01 0.0000000000000000e+00
0.0000000000000000e+00 2.2149999999999999e+01 0.0000000000000000e+00
ITEM: ATOMS id type x y z 
8 1 -2.50281 5.52308 9.80402 
87 1 2.91521 4.34964 10.6496 
90 1 2.60944 5.46215 9.70514 
109 1 -2.48412 5.51087 0.796034 
158 1 2.60987 5.46357 0.908604 
163 3 -2.13806 4.49283 6.19929 
11 1 4.2188 4.33918 20.079 
14 1 2.81458 4.22429 19.712 
18 1 1.2446 5.85217 18.5403 
33 1 2.03872 4.32455 20.9164 
43 1 4.22735 4.33244 21.5147 
47 1 3.20205 5.82787 17.8032 
52 1 4.21964 4.33933 12.684 
76 1 2.38182 4.95277 14.2088 
85 1 4.2282 4.33297 11.2482 
89 1 3.20302 5.8265 14.9605 
91 1 0.879406 5.1542 11.8243 
102 1 2.81538 4.22436 13.0522 
105 1 1.24485 5.85124 14.2251 
114 1 2.0394 4.32359 11.8471 
150 1 2.38053 4.95359 18.5555 
156 1 2.91389 4.34932 22.1136 
159 1 0.880188 5.15549 20.94 
5 1 -4.82356 10.4531 8.6242 
9 1 -3.1392 8.9416 7.5081 
19 1 -1.75426 7.5892 10.592 
21 1 -2.5774 8.77479 11.0385 
23 1 -3.23914 7.6763 6.88029 
25 1 -4.04802 10.3883 9.83642 
32 1 1.56432 6.38628 0.848436 
36 1 -1.74729 7.66668 9.09467 
38 1 -2.15849 6.37229 8.64062 
54 1 0.366163 8.42729 10.6823 
57 1 1.4067 7.98035 9.76881 
60 1 -1.75819 7.59181 0.0450305 
65 1 -3.29964 7.53309 3.84095 
78 1 -1.79822 7.64211 1.55303 
80 1 -2.46704 8.83736 1.92399 
84 1 -4.38868 9.78539 3.12648 
99 1 -2.89797 9.57016 0.745235 
100 1 -2.92661 6.29408 3.15256 
107 1 -4.83349 10.5125 1.97071 
110 1 -3.26277 8.88257 3.14403 
111 1 0.55899 5.95348 10.675 
113 1 1.56402 6.38653 9.76619 
119 1 -4.05627 10.4012 0.765538 
127 1 -2.135 6.31842 1.96452 
131 1 -2.38655 6.28414 11.0043 
138 1 1.40656 7.9802 0.845329 
142 1 -2.36229 8.89529 8.71875 
145 1 -4.3993 9.69878 7.47433 
151 1 -4.92756 10.3749 11.0374 
154 1 -2.88027 9.59101 9.90155 
155 1 -2.96334 6.47593 7.48895 
12 1 2.56368 7.07354 17.106 
17 1 0.472086 9.21224 20.8883 
24 1 -3.59025 8.33551 11.9338 
27 1 -0.258252 7.13281 21.642 
29 1 0.557939 5.95393 22.0894 
31 1 1.29328 7.18156 17.8399 
44 1 -0.220035 7.08045 20.1338 
46 1 0.124903 8.40106 19.7183 
51 1 -0.25548 7.13076 11.1271 
53 1 2.564 7.07374 15.6535 
56 1 1.29335 7.1838 14.9255 
63 1 -2.37878 6.29515 21.7542 
66 1 -3.42066 6.74575 20.8417 
70 1 -0.219417 7.07968 12.6361 
72 1 0.451342 5.88728 13.003 
92 1 0.919559 8.41415 14.2344 
95 1 -4.93312 10.3749 21.721 
98 1 -4.6268 9.26037 20.7785 
104 1 0.472966 9.21206 11.8756 
116 1 -2.57364 8.77153 21.7471 
118 1 -3.58114 8.3393 20.8386 
122 1 0.125882 8.40339 13.0459 
133 1 -3.42337 6.7415 11.9189 
136 1 0.36413 8.42772 22.0833 
147 1 0.451008 5.88884 19.7616 
153 1 -4.63121 9.2612 11.9779 
160 1 0.920458 8.4132 18.53 
1 1 7.70863 4.90692 10.5416 
4 1 9.04959 4.87622 10.967 
20 1 7.73108 4.96509 9.04799 
42 1 9.40655 5.48109 7.31534 
67 1 9.8857 4.69222 0.803381 
77 1 7.69462 4.90994 0.0747283 
94 1 7.70507 4.95875 1.55807 
96 1 9.05166 4.75975 2.00875 
121 1 4.59153 5.59745 10.6859 
130 1 9.41713 5.51176 3.14339 
134 1 9.87648 4.71443 9.78096 
152 1 9.0513 4.787 8.61635 
161 2 9.34184 5.19422 6.21768 
162 2 10.6105 3.97135 6.11117 
45 1 4.58964 5.59809 22.0778 
55 1 4.80413 5.61585 13.0868 
106 1 9.03924 4.87631 21.7902 
137 1 4.80347 5.61517 19.6757 
2 1 7.32599 10.3939 9.00117 
3 1 8.96805 7.67485 6.086 
6 1 8.32777 6.44729 6.75398 
16 1 2.40506 8.71032 0.898065 
22 1 6.95359 6.13911 8.68015 
26 1 7.13125 8.3936 7.48789 
35 1 7.31197 10.404 10.4375 
37 1 6.94285 9.14001 11.0013 
39 1 8.24146 8.87841 6.79109 
41 1 6.63245 6.92778 9.84853 
48 1 3.66019 6.37907 0.905899 
61 1 7.3137 10.3852 1.60838 
62 1 8.9716 7.66233 4.49371 
64 1 6.72702 9.1088 2.00916 
68 1 7.32714 6.92155 3.08071 
71 1 4.37116 8.51662 10.6985 
74 1 3.62342 7.82732 9.74402 
81 1 8.49106 6.42393 3.84657 
83 1 6.54063 8.34774 0.789059 
93 1 7.30651 10.3916 0.175974 
97 1 8.33183 8.91409 3.87983 
101 1 2.49172 9.84522 10.7191 
103 1 2.40623 8.71042 9.71606 
117 1 6.97401 6.14791 1.94887 
120 1 7.21435 8.36068 3.11171 
123 1 3.66108 6.38017 9.70763 
129 1 6.62932 6.91674 0.770047 
132 1 6.6861 9.14093 8.61952 
135 1 7.23909 6.90349 7.50648 
141 1 7.16302 6.20918 10.9943 
144 1 6.53395 8.35446 9.83001 
148 1 3.62318 7.82693 0.870541 
7 1 9.1304 6.01297 11.9777 
10 1 3.83729 9.81351 21.6152 
13 1 2.49168 9.84623 22.0447 
15 1 3.04948 8.29641 17.835 
28 1 3.8319 9.76867 20.1278 
30 1 4.55777 8.57346 19.7367 