LAMMPS (3 Mar 2020)
Reading data file ...
  orthogonal box = (0 0 0) to (14.19 14.19 14.19)
  2 by 2 by 2 MPI processor grid
  reading atoms ...
  66 atoms
  read_data CPU = 0.00311705 secs
WARNING: Changed valency_val to valency_boc for X (../reaxc_ffield.cpp:315)
WARNING: Using 'neigh_modify every 1 delay 0 check yes' setting during minimization (../min.cpp:190)
Neighbor list info ...
  update every 1 steps, delay 0 steps, check yes
  max neighbors/atom: 2000, page size: 100000
  master list distance cutoff = 12
  ghost atom cutoff = 12
  binsize = 6, bins = 3 3 3
  2 neighbor lists, perpetual/occasional/extra = 2 0 0
  (1) pair reax/c, perpetual
      attributes: half, newton off, ghost
      pair build: half/bin/newtoff/ghost
      stencil: half/ghost/bin/3d/newtoff
      bin: standard
  (2) fix qeq/reax, perpetual, copy from (1)
      attributes: half, newton off, ghost
      pair build: copy
      stencil: none
      bin: none
Setting up cg style minimization ...
  Unit style    : real
  Current step  : 0
Per MPI rank memory allocation (min/avg/max) = 20.3 | 20.37 | 20.44 Mbytes
Step Temp E_pair E_mol TotEng Press 
       0            0   -10328.792            0   -10328.792   -14992.122 
     280            0   -10655.529            0   -10655.529   -46488.457 
Loop time of 7.61727 on 8 procs for 280 steps with 66 atoms

99.5% CPU use with 8 MPI tasks x no OpenMP threads

Minimization stats:
  Stopping criterion = energy tolerance
  Energy initial, next-to-last, final = 
        -10328.7918756     -10655.5289455     -10655.5290028
  Force two-norm initial, final = 879.989 246.39
  Force max component initial, final = 135.742 43.0769
  Final line search alpha, max atom move = 1.19214e-08 5.13535e-07
  Iterations, force evaluations = 280 3436

MPI task timing breakdown:
Section |  min time  |  avg time  |  max time  |%varavg| %total
---------------------------------------------------------------
Pair    | 5.6924     | 5.9426     | 6.2586     |   7.7 | 78.01
Neigh   | 0          | 0          | 0          |   0.0 |  0.00
Comm    | 0.062437   | 0.3791     | 0.62813    |  30.5 |  4.98
Output  | 0.00055481 | 0.00074761 | 0.0012204  |   0.0 |  0.01
Modify  | 1.2776     | 1.2779     | 1.2783     |   0.0 | 16.78
Other   |            | 0.01692    |            |       |  0.22

Nlocal:    8.25 ave 10 max 8 min
Histogram: 7 0 0 0 0 0 0 0 0 1
Nghost:    685.75 ave 690 max 682 min
Histogram: 4 0 0 0 0 0 0 1 0 3
Neighs:    1475.12 ave 1751 max 1425 min
Histogram: 7 0 0 0 0 0 0 0 0 1

Total # of neighbors = 11801
Ave neighs/atom = 178.803
Neighbor list builds = 0
Dangerous builds = 0
WARNING: Using 'neigh_modify every 1 delay 0 check yes' setting during minimization (../min.cpp:190)
Setting up cg style minimization ...
  Unit style    : real
  Current step  : 280
Per MPI rank memory allocation (min/avg/max) = 20.3 | 20.37 | 20.44 Mbytes
Step Temp E_pair E_mol TotEng Press 
     280            0   -10655.529            0   -10655.529   -46488.456 
     281            0   -10655.529            0   -10655.529   -46488.435 
Loop time of 0.0492756 on 8 procs for 1 steps with 66 atoms

99.4% CPU use with 8 MPI tasks x no OpenMP threads

Minimization stats:
  Stopping criterion = energy tolerance
  Energy initial, next-to-last, final = 
         -10655.529002      -10655.529002     -10655.5290787
  Force two-norm initial, final = 246.39 241.038
  Force max component initial, final = 43.0769 43.5891
  Final line search alpha, max atom move = 4.42778e-09 1.93003e-07
  Iterations, force evaluations = 1 22

MPI task timing breakdown:
Section |  min time  |  avg time  |  max time  |%varavg| %total
---------------------------------------------------------------
Pair    | 0.037935   | 0.039615   | 0.041761   |   0.6 | 80.39
Neigh   | 0          | 0          | 0          |   0.0 |  0.00
Comm    | 0.00044701 | 0.0025939  | 0.0042664  |   2.5 |  5.26
Output  | 0          | 0          | 0          |   0.0 |  0.00
Modify  | 0.0068873  | 0.0068905  | 0.0068934  |   0.0 | 13.98
Other   |            | 0.0001765  |            |       |  0.36

Nlocal:    8.25 ave 10 max 8 min
Histogram: 7 0 0 0 0 0 0 0 0 1
Nghost:    685.75 ave 690 max 682 min
Histogram: 4 0 0 0 0 0 0 1 0 3
Neighs:    1477.12 ave 1761 max 1426 min
Histogram: 7 0 0 0 0 0 0 0 0 1

Total # of neighbors = 11817
Ave neighs/atom = 179.045
Neighbor list builds = 0
Dangerous builds = 0
WARNING: Using 'neigh_modify every 1 delay 0 check yes' setting during minimization (../min.cpp:190)
Setting up cg style minimization ...
  Unit style    : real
  Current step  : 281
WARNING: Energy due to 3 extra global DOFs will be included in minimizer energies
Per MPI rank memory allocation (min/avg/max) = 20.3 | 20.37 | 20.44 Mbytes
Step Temp E_pair E_mol TotEng Press Volume 
     281            0   -10655.529            0   -10655.529   -46488.435    2857.2431 
    1977            0   -11121.752            0   -11121.752   -656.71909    2758.0765 
Loop time of 4.38563 on 8 procs for 1696 steps with 66 atoms

99.5% CPU use with 8 MPI tasks x no OpenMP threads

Minimization stats:
  Stopping criterion = linesearch alpha is zero
  Energy initial, next-to-last, final = 
        -10655.5290783     -11121.7521754     -11121.7521771
  Force two-norm initial, final = 3367.29 73.2218
  Force max component initial, final = 2002.75 27.3723
  Final line search alpha, max atom move = 1.27145e-12 3.48024e-11
  Iterations, force evaluations = 1696 1927

MPI task timing breakdown:
Section |  min time  |  avg time  |  max time  |%varavg| %total
---------------------------------------------------------------
Pair    | 3.4118     | 3.5815     | 3.7954     |   6.7 | 81.66
Neigh   | 0          | 0          | 0          |   0.0 |  0.00
Comm    | 0.034115   | 0.24864    | 0.41776    |  25.3 |  5.67
Output  | 0.002907   | 0.0036086  | 0.0055587  |   1.3 |  0.08
Modify  | 0.51379    | 0.51415    | 0.51439    |   0.0 | 11.72
Other   |            | 0.03771    |            |       |  0.86

Nlocal:    8.25 ave 10 max 8 min
Histogram: 7 0 0 0 0 0 0 0 0 1
Nghost:    685.75 ave 690 max 682 min
Histogram: 4 0 0 0 0 0 0 1 0 3
Neighs:    1477.12 ave 1761 max 1426 min
Histogram: 7 0 0 0 0 0 0 0 0 1

Total # of neighbors = 11817
Ave neighs/atom = 179.045
Neighbor list builds = 0
Dangerous builds = 0
WARNING: Using 'neigh_modify every 1 delay 0 check yes' setting during minimization (../min.cpp:190)
Setting up cg style minimization ...
  Unit style    : real
  Current step  : 1977
Per MPI rank memory allocation (min/avg/max) = 20.3 | 20.37 | 20.44 Mbytes
Step Temp E_pair E_mol TotEng Press 
    1977            0   -11121.752            0   -11121.752   -656.71482 
    1984            0   -11121.832            0   -11121.832   -1701.0012 
Loop time of 0.169804 on 8 procs for 7 steps with 66 atoms

99.5% CPU use with 8 MPI tasks x no OpenMP threads

Minimization stats:
  Stopping criterion = energy tolerance
  Energy initial, next-to-last, final = 
        -11121.7521749     -11121.8318059     -11121.8318484
  Force two-norm initial, final = 56.7234 73.2623
  Force max component initial, final = 10.2406 18.3486
  Final line search alpha, max atom move = 0.000459822 0.0084371
  Iterations, force evaluations = 7 70

MPI task timing breakdown:
Section |  min time  |  avg time  |  max time  |%varavg| %total
---------------------------------------------------------------
Pair    | 0.12511    | 0.13229    | 0.13649    |   1.0 | 77.91
Neigh   | 0          | 0          | 0          |   0.0 |  0.00
Comm    | 0.001345   | 0.0055288  | 0.012694   |   5.1 |  3.26
Output  | 2.16e-05   | 2.9034e-05 | 5.7989e-05 |   0.0 |  0.02
Modify  | 0.031508   | 0.031517   | 0.031526   |   0.0 | 18.56
Other   |            | 0.0004399  |            |       |  0.26

Nlocal:    8.25 ave 12 max 5 min
Histogram: 1 2 0 0 1 2 0 0 1 1
Nghost:    695.75 ave 701 max 690 min
Histogram: 1 0 1 0 1 2 1 1 0 1
Neighs:    1501.62 ave 2155 max 936 min
Histogram: 1 2 0 0 1 2 0 0 1 1

Total # of neighbors = 12013
Ave neighs/atom = 182.015
Neighbor list builds = 0
Dangerous builds = 0
WARNING: Using 'neigh_modify every 1 delay 0 check yes' setting during minimization (../min.cpp:190)
Setting up cg style minimization ...
  Unit style    : real
  Current step  : 1984
WARNING: Energy due to 3 extra global DOFs will be included in minimizer energies
Per MPI rank memory allocation (min/avg/max) = 20.3 | 20.37 | 20.44 Mbytes
Step Temp E_pair E_mol TotEng Press Volume 
    1984            0   -11121.832            0   -11121.832   -1701.0046    2758.0765 
    2201            0   -11125.273            0   -11125.273    645.48947    2756.7085 
Loop time of 1.18873 on 8 procs for 217 steps with 66 atoms

99.5% CPU use with 8 MPI tasks x no OpenMP threads

Minimization stats:
  Stopping criterion = energy tolerance
  Energy initial, next-to-last, final = 
        -11121.8318501     -11125.2724489     -11125.2725016
  Force two-norm initial, final = 139.351 58.3815
  Force max component initial, final = 70.3033 26.3451
  Final line search alpha, max atom move = 5.90877e-07 1.55667e-05
  Iterations, force evaluations = 217 534

MPI task timing breakdown:
Section |  min time  |  avg time  |  max time  |%varavg| %total
---------------------------------------------------------------
Pair    | 0.93079    | 0.98555    | 1.0177     |   2.9 | 82.91
Neigh   | 0          | 0          | 0          |   0.0 |  0.00
Comm    | 0.010551   | 0.042601   | 0.097283   |  13.9 |  3.58
Output  | 0.00040339 | 0.00050808 | 0.00081204 |   0.0 |  0.04
Modify  | 0.15089    | 0.15098    | 0.15106    |   0.0 | 12.70
Other   |            | 0.009084   |            |       |  0.76

Nlocal:    8.25 ave 12 max 5 min
Histogram: 1 2 0 0 1 2 0 0 1 1
Nghost:    695.75 ave 701 max 690 min
Histogram: 1 0 1 0 1 2 1 1 0 1
Neighs:    1501.62 ave 2155 max 936 min
Histogram: 1 2 0 0 1 2 0 0 1 1

Total # of neighbors = 12013
Ave neighs/atom = 182.015
Neighbor list builds = 0
Dangerous builds = 0
WARNING: Using 'neigh_modify every 1 delay 0 check yes' setting during minimization (../min.cpp:190)
Setting up cg style minimization ...
  Unit style    : real
  Current step  : 2201
Per MPI rank memory allocation (min/avg/max) = 20.3 | 20.37 | 20.44 Mbytes
Step Temp E_pair E_mol TotEng Press 
    2201            0   -11125.273            0   -11125.273    645.47741 
    2217            0   -11125.284            0   -11125.284   -59.921749 
Loop time of 0.577616 on 8 procs for 16 steps with 66 atoms

99.4% CPU use with 8 MPI tasks x no OpenMP threads

Minimization stats:
  Stopping criterion = energy tolerance
  Energy initial, next-to-last, final = 
        -11125.2725076     -11125.2835024      -11125.283606
  Force two-norm initial, final = 37.2436 40.3433
  Force max component initial, final = 11.6069 11.3737
  Final line search alpha, max atom move = 6.49577e-07 7.3881e-06
  Iterations, force evaluations = 16 250

MPI task timing breakdown:
Section |  min time  |  avg time  |  max time  |%varavg| %total
---------------------------------------------------------------
Pair    | 0.43751    | 0.46578    | 0.48271    |   2.0 | 80.64
Neigh   | 0          | 0          | 0          |   0.0 |  0.00
Comm    | 0.0047417  | 0.021734   | 0.049814   |   9.5 |  3.76
Output  | 2.169e-05  | 2.7414e-05 | 4.0205e-05 |   0.0 |  0.00
Modify  | 0.088236   | 0.088752   | 0.088959   |   0.1 | 15.37
Other   |            | 0.001318   |            |       |  0.23

Nlocal:    8.25 ave 12 max 5 min
Histogram: 1 2 0 0 1 2 0 0 1 1
Nghost:    699.75 ave 704 max 695 min
Histogram: 1 0 1 2 0 0 2 0 0 2
Neighs:    1501.38 ave 2159 max 935 min
Histogram: 1 2 0 0 1 2 0 0 1 1

Total # of neighbors = 12011
Ave neighs/atom = 181.985
Neighbor list builds = 0
Dangerous builds = 0
Setting up Verlet run ...
  Unit style    : real
  Current step  : 0
  Time step     : 0.25
Per MPI rank memory allocation (min/avg/max) = 19.17 | 19.24 | 19.31 Mbytes
Step Temp TotEng KinEng PotEng Press 
       0          300   -11067.158    58.125796   -11125.284     903.9317 
     200    423.30374   -11054.375    82.016223   -11136.391   -18679.445 
     400     330.9912   -11101.381    64.130424   -11165.511    7295.4134 
     600     611.1268   -11228.283    118.40744   -11346.691   -9089.2021 
     800    295.97539   -11305.574    57.346017    -11362.92     4611.396 
    1000    296.38351   -11314.307    57.425091   -11371.732    8790.1142 
    1200    375.44367   -11290.511    72.743206   -11363.254     561.9272 
    1400    306.20405   -11302.993    59.327847   -11362.321   -13575.545 
    1600    365.21575   -11334.118    70.761521    -11404.88    15488.628 
    1800    279.63262   -11365.494    54.179562   -11419.674   -6881.2618 
    2000     319.2402   -11360.545    61.853636   -11422.399    5140.6064 
    2200    362.36186   -11343.475    70.208573   -11413.684    15281.576 
    2400    313.73029   -11349.753    60.786076   -11410.539    6110.7451 
    2600    239.91175   -11366.275    46.483539   -11412.758    4269.7741 
    2800    269.17227   -11350.501    52.152842   -11402.654    4349.4755 
    3000    298.65865   -11345.616    57.865906   -11403.482   -17645.533 
    3200    305.34595   -11363.965    59.161588   -11423.126   -15810.549 
    3400    300.08808   -11357.178    58.142861   -11415.321    3674.3837 
    3600    310.00204   -11349.936    60.063718   -11409.999   -7053.9088 
    3800    311.82201   -11352.457    60.416343   -11412.873   -6158.6623 
    4000    255.59692   -11369.183    49.522581   -11418.705    4703.2203 
    4200     321.2793    -11355.31    62.248716   -11417.559    10844.415 
    4400    340.10381   -11350.699    65.896016   -11416.595    13414.304 
    4600    261.71876   -11370.317    50.708703   -11421.026    2019.3486 
    4800    326.86584   -11361.096    63.331124   -11424.427   -6740.6155 
    5000    293.17455   -11352.748    56.803347   -11409.551    2534.6155 
    5200     262.6459   -11351.801    50.888341   -11402.689   -7182.2798 
    5400    267.13976   -11372.495    51.759038   -11424.254    12324.167 
    5600    297.37984   -11360.529    57.618132   -11418.147    2577.5436 
    5800    311.49709   -11347.986    60.353388   -11408.339    -1555.582 
    6000    276.21816   -11355.623    53.518001   -11409.141    7932.2319 
    6200    273.06284   -11369.064    52.906649   -11421.971   -9648.6409 
    6400    327.57341   -11353.199    63.468217   -11416.667    6607.6667 
    6600    282.72023    -11357.42    54.777794   -11412.198   -10490.355 
    6800    226.87296   -11367.696    43.957237   -11411.653    28828.143 
    7000    281.16807   -11348.176    54.477059   -11402.653    24191.332 
    7200    300.37559   -11360.545    58.198568   -11418.744    6188.2829 
    7400     281.2168   -11362.856    54.486502   -11417.343    17159.432 
    7600    323.65828   -11345.543    62.709651   -11408.253    2917.1757 
    7800    262.34078   -11363.727    50.829223   -11414.557    9166.6767 
    8000    303.32427    -11356.91    58.769881    -11415.68    2440.8003 
    8200    307.44579   -11348.257    59.568438   -11407.826    22322.077 
    8400    260.34991   -11357.967    50.443485   -11408.411    26901.982 
    8600    329.73589   -11344.629    63.887204   -11408.516   -875.48933 
    8800    333.77552   -11340.825    64.669893   -11405.495   -10804.498 
    9000    292.43506    -11363.46    56.660068    -11420.12    14850.443 
    9200    292.35521   -11350.284    56.644598   -11406.928    12860.422 
    9400    307.91083   -11345.567     59.65854   -11405.226   -3318.2929 
    9600    236.88503   -11352.808    45.897102   -11398.705   -17884.927 
    9800    343.93938   -11348.331    66.639167    -11414.97    6227.9283 
   10000    265.67622   -11354.114    51.475472   -11405.589   -9415.5708 
   10200    354.17368   -11340.724     68.62209   -11409.346    18231.757 
   10400    274.82172   -11360.518    53.247438   -11413.765    7905.0541 
   10600    308.15943   -11349.643    59.706707    -11409.35   -2966.6938 
   10800     299.4892    -11345.15    58.026828   -11403.177   -13987.301 
   11000    240.80137   -11346.634    46.655904    -11393.29   -4316.6538 
   11200    390.80373    -11330.09    75.719259   -11405.809    1409.4427 
   11400    309.08783   -11349.069    59.886587   -11408.955   -26065.532 
   11600    227.08501   -11362.973    43.998324   -11406.971   -6970.7136 
   11800    330.91645   -11353.558     64.11594   -11417.674   -250.42266 
   12000    327.61894   -11355.005     63.47704   -11418.482   -3003.9114 
   12200    342.74655   -11343.248    66.408054   -11409.656    -2805.226 
   12400    301.80141   -11350.518    58.474823   -11408.993    14220.605 
   12600    298.69097    -11355.25    57.872168   -11413.122   -26483.252 
   12800    312.94078   -11342.467    60.633106     -11403.1    2341.4428 
   13000    352.10885    -11332.47    68.222025   -11400.692   -1889.8544 
   13200    309.47716   -11350.954     59.96202   -11410.916   -4545.1203 
   13400    284.49644    -11358.37    55.121941   -11413.491   -2776.8176 
   13600    305.17643   -11346.279    59.128743   -11405.407    2303.8696 
   13800    344.12704   -11342.114    66.675527    -11408.79    -14567.41 
   14000    316.25461   -11360.284    61.275169   -11421.559    8872.2501 
   14200    323.54488   -11345.048    62.687679   -11407.735   -2945.4282 
   14400    292.81637    -11359.06    56.733949   -11415.793   -3888.8789 
   14600    275.86935   -11356.089    53.450418    -11409.54   -17428.935 
   14800    300.47532    -11343.88     58.21789   -11402.098   -7005.7586 
   15000    254.41202   -11363.075    49.293004   -11412.368    13728.321 
   15200    302.12415   -11357.774    58.537355   -11416.311    2558.4066 
   15400    324.56296   -11346.015    62.884934     -11408.9   -10074.778 
   15600    219.48245   -11365.761    42.525307   -11408.286    19841.444 
   15800    294.51458   -11358.926    57.062981   -11415.989   -9749.9197 
   16000    291.36887   -11350.279    56.453492   -11406.732   -9988.4955 
   16200    298.48647   -11349.389    57.832545   -11407.222   -1641.9002 
   16400     275.0583   -11369.242    53.293276   -11422.535   -9223.8467 
   16600    334.25486   -11352.632    64.762766   -11417.395    12602.145 
   16800    311.37586    -11351.29      60.3299   -11411.619   -7104.2556 
   17000    241.24081   -11361.274    46.741047   -11408.015   -4945.5901 
   17200    292.82845   -11352.902     56.73629   -11409.638   -10271.058 
   17400    311.61983    -11349.18    60.377168   -11409.557   -8237.1238 
   17600    261.38752   -11366.445    50.644525   -11417.089    -23057.91 
   17800    331.54147   -11349.422     64.23704   -11413.659   -3729.6595 
   18000     328.9815   -11349.467    63.741038   -11413.208    8920.5588 
   18200    260.66677   -11362.742    50.504878   -11413.247   -7280.1831 
   18400    315.17805   -11339.594    61.066583    -11400.66    12237.168 
   18600    277.62996   -11354.224     53.79154   -11408.016    15090.899 
   18800    286.64197   -11352.595    55.537643   -11408.133   -6899.9716 
   19000    335.33221   -11339.675    64.971506   -11404.647    22168.851 
   19200    308.22435   -11360.862    59.719286   -11420.581    4103.7426 
   19400    295.69771   -11356.496    57.292216   -11413.788    5099.6454 
   19600     374.6989   -11336.109    72.598907   -11408.707    2215.4023 
   19800    244.44023   -11362.451    47.360943   -11409.812   -13346.728 
   20000    310.75943   -11353.636    60.210463   -11413.846    1189.5717 
   20200     296.3125   -11341.276    57.411332   -11398.687   -3375.1793 
   20400    350.14754   -11338.029    67.842014   -11405.871   -764.06278 
   20600    302.99766   -11360.033      58.7066   -11418.739   -2998.4664 
   20800    328.55874   -11353.331    63.659127    -11416.99   -5657.8781 
   21000    313.98659   -11340.271    60.835734   -11401.107   -19659.084 
   21200    289.31622   -11362.809    56.055786   -11418.864    -3454.606 
   21400    304.51583   -11350.563    59.000749   -11409.564    10118.659 
   21600    341.23745   -11353.676    66.115662   -11419.792    1943.5307 
   21800    256.52144   -11368.069     49.70171   -11417.771      13290.1 
   22000    315.57905   -11346.001    61.144279   -11407.146   -8669.1094 
   22200     313.8342   -11347.033     60.80621    -11407.84   -10887.904 
   22400    256.69053   -11361.226    49.734471    -11410.96   -2050.6143 
   22600    340.04479   -11336.819    65.884581   -11402.703   -4744.4514 
   22800    293.20843   -11344.857    56.809911   -11401.667    3346.5681 
   23000    320.60892    -11357.28    62.118829   -11419.399   -11958.391 
   23200    307.53436   -11356.147    59.585599   -11415.733    11151.031 
   23400     326.3596   -11339.924    63.233039   -11403.157    16313.104 
   23600    326.64928   -11348.744    63.289165   -11412.033    13381.068 
   23800    298.10215   -11356.817    57.758082   -11414.575    -11546.32 
   24000    368.94125   -11348.867    71.483346    -11420.35   -6527.8307 
   24200    284.14225   -11360.899    55.053315   -11415.952    15656.154 
   24400    321.44675   -11349.605     62.28116   -11411.886    3492.6641 
   24600    318.54719   -11348.933    61.719363   -11410.652    5551.8941 
   24800    279.68914   -11363.652    54.190512   -11417.843    11425.426 
   25000    306.33833   -11357.402    59.353865   -11416.756     2162.657 
   25200    305.14335   -11351.715    59.122334   -11410.837   -1462.0854 
   25400    295.00533   -11349.198    57.158065   -11406.356   -6395.7016 
   25600    258.79754   -11365.032     50.14271   -11415.174   -6835.7748 
   25800    300.40639   -11354.223    58.204535   -11412.428   -144.56474 
   26000    277.56965   -11359.189    53.779857   -11412.969   -6323.4692 
   26200    341.87505   -11347.495    66.239199   -11413.734    5163.5441 
   26400    322.56783   -11351.509    62.498372   -11414.007   -1912.7141 
   26600    273.25235   -11361.985    52.943367   -11414.928     20614.16 
   26800     329.4938   -11349.531    63.840297   -11413.372    15833.767 
   27000     276.5951   -11355.006    53.591035   -11408.597   -2926.9216 
   27200    297.04155   -11353.954    57.552588   -11411.507    9601.7133 
   27400    371.49127   -11341.703    71.977419    -11413.68   -10717.108 
   27600    268.23212   -11362.438    51.970684   -11414.409    19649.132 
   27800    268.54757   -11348.277    52.031805   -11400.309    1512.3884 
   28000    296.80838   -11346.579     57.50741   -11404.086    3632.0106 
   28200    253.50973   -11365.624    49.118182   -11414.742   -9721.6468 
   28400    295.23146   -11354.555     57.20188   -11411.757    7423.9834 
   28600     368.9896   -11338.461    71.492714   -11409.953    27003.087 
   28800    265.09091    -11359.87    51.362067   -11411.233   -13388.029 
   29000    262.42509   -11363.159    50.845558   -11414.004   -5388.3238 
   29200    309.53285   -11351.344    59.972811   -11411.316   -2500.8387 
   29400    275.80719   -11355.496    53.438375   -11408.935    6333.7529 
   29600    222.22733   -11368.596    43.057134   -11411.653     12726.15 
   29800    305.16989   -11350.269    59.127477   -11409.397    6437.9742 
   30000    309.13823   -11351.625    59.896352   -11411.521   -22279.335 
   30200    279.94935   -11349.132    54.240929   -11403.373   -5237.0187 
   30400    282.21627   -11359.199    54.680152   -11413.879   -118.04946 
   30600    266.41215   -11369.713    51.618061   -11421.331   -18416.376 
   30800    325.48442   -11347.325     63.06347   -11410.389   -2306.4162 
   31000    280.55103   -11362.353    54.357506    -11416.71    8968.1434 
   31200    308.34122   -11353.018     59.74193    -11412.76   -6995.1898 
   31400     294.2903   -11351.473    57.019527   -11408.493    3720.6867 
   31600    261.59612   -11358.229    50.684943   -11408.914   -7521.7509 
   31800    326.72891   -11350.942    63.304594   -11414.246    4560.1527 
   32000    270.15714    -11373.11    52.343662   -11425.454   -656.32798 
   32200    345.39196   -11354.571    66.920609   -11421.491   -5657.1926 
   32400    273.79888   -11352.071    53.049259   -11405.121   -5018.6012 
   32600    330.04785   -11340.153    63.947647   -11404.101    6550.7875 
   32800    290.20241   -11360.874    56.227487   -11417.101   -1993.6525 
   33000     263.6123   -11363.091    51.075582   -11414.167    3258.6369 
   33200    325.19437   -11343.519    63.007271   -11406.526    11538.608 
   33400    287.55965   -11357.438    55.715445   -11413.154    2001.4383 
   33600    253.96037    -11374.56    49.205495   -11423.766     2426.271 
   33800    261.99947   -11364.827    50.763093    -11415.59   -3701.6942 
   34000    302.66017   -11348.395    58.641211   -11407.036   -18714.639 
   34200    372.75548   -11339.864    72.222364   -11412.086    5402.7098 
   34400     259.2256   -11362.232    50.225648   -11412.458    7634.1734 
   34600    291.03953   -11349.238     56.38968   -11405.627    6033.3968 
   34800    293.63578   -11350.584    56.892711   -11407.477    118.81232 
   35000    306.05372   -11362.888    59.298721   -11422.186   -16028.888 
   35200     355.9725   -11344.621    68.970617   -11413.591    19327.821 
   35400    262.08861   -11360.294    50.780364   -11411.074    16966.901 
   35600    297.70737   -11356.782    57.681593   -11414.464   -787.68054 
   35800    264.66023   -11362.602    51.278622    -11413.88    6019.6619 
   36000     338.2754   -11354.126    65.541757   -11419.668   -1844.3058 
   36200     317.2096    -11354.56    61.460201    -11416.02   -10718.641 
   36400    266.96123   -11367.721    51.724447   -11419.446    4631.4205 
   36600    306.97147    -11355.74    59.476537   -11415.217    2008.4373 
   36800    276.35037   -11357.223    53.543617   -11410.766    2732.8785 
   37000    282.02403    -11346.46    54.642905   -11401.103   -20042.046 
   37200    256.37313   -11353.292    49.672975   -11402.965   -31246.644 
   37400    328.51002    -11355.96    63.649688    -11419.61   -25756.741 
   37600    282.96341   -11357.702    54.824911   -11412.526    -18510.69 
   37800    369.25234    -11341.36    71.543621   -11412.904    20186.302 
   38000    284.64156   -11357.931    55.150058   -11413.081    15217.812 
   38200    333.01507   -11348.765    64.522553   -11413.288    1188.5182 
   38400    314.76095   -11349.223    60.985768   -11410.209   -13681.027 
   38600    266.35478   -11359.486    51.606945   -11411.093    3584.1722 
   38800    301.08079   -11346.307    58.335201   -11404.642    969.28768 
   39000    250.92963   -11367.759    48.618282   -11416.377    7513.5533 
   39200    266.53479   -11359.016    51.641822   -11410.658   -19652.818 
   39400    288.01879   -11349.201    55.804404   -11405.006   -8846.4786 
   39600    394.08281   -11329.493    76.354591   -11405.848   -22267.346 
   39800    292.90725   -11352.483    56.751557   -11409.235    9122.1252 
   40000    304.56234   -11355.616    59.009761   -11414.626   -4714.9479 
   40200    315.96493   -11333.876    61.219044   -11395.095   -11431.418 
   40400    312.85198   -11345.422    60.615902   -11406.038    15884.729 
   40600    323.43056   -11357.377     62.66553   -11420.043   -4354.4244 
   40800    336.04158   -11354.934    65.108948   -11420.043   -10575.983 
   41000    314.66402   -11342.698    60.966988   -11403.665   -12533.321 
   41200    252.87835    -11363.82    48.995852   -11412.816    19895.968 
   41400    281.99448   -11355.107    54.637178   -11409.744    1071.1371 
   41600    302.43207   -11346.573    58.597017    -11405.17    4029.0047 
   41800    285.86986   -11368.406    55.388043   -11423.794    13368.615 
   42000     285.1272   -11361.585    55.244152   -11416.829   -8370.4009 
   42200    282.81577   -11346.331    54.796305   -11401.127   -4657.6213 
   42400    307.08236   -11356.043    59.498022   -11415.541   -2172.4736 
   42600    261.55789    -11368.05    50.677534   -11418.728   -1979.2276 
   42800    297.34529   -11351.521    57.611439   -11409.132   -5289.8331 
   43000    329.20196   -11352.677    63.783753   -11416.461    28518.577 
   43200    250.96221   -11370.404    48.624594   -11419.029    18119.011 
   43400    302.27032   -11356.964    58.565676   -11415.529     7996.975 
   43600    275.83253   -11355.377    53.443284    -11408.82    31207.314 
   43800     365.5641   -11341.757    70.829014   -11412.586   -4234.5745 
   44000    293.76005   -11362.774    56.916789    -11419.69   -2274.3367 
   44200    318.89792   -11359.442    61.787318   -11421.229    346.95556 
   44400    275.28534   -11363.079    53.337266   -11416.416    21185.452 
   44600    269.96744   -11349.088    52.306907   -11401.395   -29310.094 
   44800    266.53758   -11362.666    51.642363   -11414.309     2016.379 
   45000    278.21754   -11363.054    53.905386    -11416.96    -16419.72 
   45200    329.31553   -11346.273    63.805757   -11410.079   -5868.2654 
   45400    295.47454    -11358.72    57.248976   -11415.969    2448.3276 
   45600    328.08978   -11354.754    63.568266   -11418.322   -6294.9017 
   45800    287.56221    -11360.86    55.715942   -11416.576     13274.75 
   46000    287.04381   -11360.146      55.6155   -11415.761    26298.107 
   46200    299.50667   -11345.397    58.030213   -11403.427    11911.634 
   46400    260.17583   -11366.872    50.409758   -11417.282   -28222.151 
   46600    309.01647   -11352.272    59.872761   -11412.145    15843.914 
   46800     265.0856   -11360.109    51.361039    -11411.47    3876.7816 
   47000    346.96295   -11349.409    67.224992   -11416.634    8139.3937 
   47200    267.40156   -11355.589    51.809763   -11407.398    26800.488 
   47400    296.71923   -11360.134    57.490139   -11417.624   -2305.2013 
   47600    330.73251   -11341.361    64.080301   -11405.441    12056.899 
   47800    280.92729   -11360.329    54.430409    -11414.76   -4985.7537 
   48000    303.24816   -11356.192    58.755136   -11414.947   -13206.409 
   48200    277.69477   -11361.993    53.804098   -11415.797    4735.7945 
   48400    302.22285   -11347.872    58.556479   -11406.428   -3426.0224 
   48600    296.42181   -11349.411    57.432511   -11406.844    1777.8663 
   48800    283.80574   -11360.848    54.988115   -11415.836    3011.5383 
   49000    283.61628   -11347.748    54.951407   -11402.699    5603.8636 
   49200    290.30281   -11357.672     56.24694   -11413.919   -448.69625 
   49400    318.24871   -11358.448    61.661531    -11420.11    15737.898 
   49600    296.80854   -11356.087    57.507443   -11413.594   -19738.095 
   49800    325.20014    -11353.92     63.00839   -11416.928    30055.448 
   50000    337.69384   -11348.468    65.429077   -11413.897   -15952.311 
   50200    270.95277   -11364.882    52.497818   -11417.379   -9798.8864 
   50400    293.97667   -11354.142     56.95876     -11411.1    625.01176 
   50600    275.78074    -11356.37    53.433249   -11409.803    8731.7447 
   50800    257.26214   -11369.684    49.845222   -11419.529    3230.5001 
   51000    276.57169   -11357.808    53.586499   -11411.395   -13990.439 
   51200    315.19215   -11351.099    61.069315   -11412.168    8574.7799 
   51400    279.29433   -11356.213    54.114017   -11410.327   -16567.118 
   51600    290.65193   -11355.054    56.314583   -11411.369   -11884.698 
   51800    254.63253   -11360.478    49.335727   -11409.814    3178.7328 
   52000    272.99721    -11351.36    52.893933   -11404.254    3395.0104 
   52200    280.17669   -11352.349    54.284978   -11406.634    -33681.98 
   52400    285.48079   -11369.255    55.312661   -11424.568    3490.1205 
   52600    278.24807   -11356.114    53.911302   -11410.026    11634.602 
   52800    324.75209   -11349.627    62.921579   -11412.549   -10701.668 
   53000    284.67003   -11353.831    55.155574   -11408.987    15362.649 
   53200    275.87499   -11364.451    53.451512   -11417.902   -7404.5043 
   53400    299.99512   -11351.045    58.124851    -11409.17   -16572.534 
   53600    365.23058   -11351.406    70.764395    -11422.17    14313.436 
   53800    243.91359   -11364.391    47.258906    -11411.65    12543.278 
   54000     290.2855   -11345.154    56.243586   -11401.398    8936.8801 
   54200    303.21418   -11347.652    58.748552     -11406.4    -15844.54 
   54400    268.21397   -11362.179    51.967169   -11414.146    21521.653 
   54600    316.72644   -11348.764    61.366589   -11410.131    20914.587 
   54800    299.24611   -11351.018    57.979727   -11408.998    20984.687 
   55000    295.75889   -11352.157    57.304069   -11409.461    19307.445 
   55200    280.16529   -11365.403    54.282769   -11419.686   -14243.279 
   55400    269.54575   -11361.655    52.225204    -11413.88    2332.9211 
   55600    307.06539   -11348.616    59.494735   -11408.111    28355.763 
   55800    301.14654   -11362.086    58.347941   -11420.434    10087.389 
   56000     230.7579   -11371.098    44.709955   -11415.808   -16236.368 
   56200    308.96759   -11354.701     59.86329   -11414.564   -6722.0714 
   56400    396.15398   -11341.723    76.755884   -11418.479   -9315.0594 
   56600    291.93489   -11365.208    56.563159   -11421.772    16668.879 
   56800    312.97531   -11357.237    60.639796   -11417.877    4019.6538 
   57000    315.35933   -11351.294    61.101708   -11412.396    3354.7606 
   57200    304.07703   -11357.725    58.915732    -11416.64   -9261.0041 
   57400    274.95257   -11358.388    53.272789   -11411.661    14835.483 
   57600    358.98916   -11335.827    69.555102   -11405.382     13647.82 
   57800     298.3701   -11358.297    57.809998   -11416.107    5614.8203 
   58000      317.974   -11353.684    61.608306   -11415.292    11248.971 
   58200    346.57026   -11340.351    67.148907     -11407.5   -10242.213 
   58400    302.69025   -11357.859     58.64704   -11416.506   -12880.933 
   58600    307.52577   -11354.469    59.583935   -11414.053   -3492.7678 
   58800    346.62579   -11359.634    67.159667   -11426.793    15350.819 
   59000    270.77308   -11366.647    52.463002    -11419.11   -12443.011 
   59200    287.08117    -11353.56    55.622739   -11409.182   -4953.3825 
   59400    376.78121   -11341.857    73.002359   -11414.859   -4117.3655 
   59600    293.80045   -11352.294    56.924618   -11409.218    19841.784 
   59800    265.64897    -11363.57    51.470194    -11415.04   -3206.0128 
   60000    315.78377   -11342.842    61.183943   -11404.026     10530.62 
   60200    295.21506   -11353.359    57.198702   -11410.557   -1399.6491 
   60400    320.71745   -11351.637    62.139857   -11413.777   -20758.643 
   60600    282.59298   -11350.216    54.753139    -11404.97   -6367.0018 
   60800    260.68891   -11359.354    50.509168   -11409.863   -8057.8268 
   61000    321.82642   -11346.222    62.354722   -11408.576    5064.5511 
   61200    318.97884   -11354.399    61.802996   -11416.202     2925.604 
   61400    308.17339   -11356.445    59.709413   -11416.154   -2360.2357 
   61600    316.47604   -11336.507    61.318072   -11397.825   -8073.0888 
   61800    285.33093   -11356.566    55.283624    -11411.85   -4400.7745 
   62000    293.05656   -11363.193    56.780485   -11419.973     5097.162 
   62200    313.32097   -11346.933    60.706769    -11407.64    32889.518 
   62400    323.65482   -11350.118     62.70898   -11412.827    20819.939 
   62600    310.69208   -11357.584    60.197416   -11417.781    3855.5784 
   62800    273.08095   -11358.996    52.910158   -11411.906    6558.5612 
   63000    325.96902   -11352.668    63.157363   -11415.825    17919.658 
   63200    360.74585   -11340.615    69.895465    -11410.51    6189.2924 
   63400    266.63642   -11359.123    51.661513   -11410.784    5411.5738 
   63600    285.78177   -11358.185    55.370977   -11413.556   -4725.9707 
   63800    332.89233   -11333.766    64.498772   -11398.265   -7100.2485 
   64000    340.82864   -11331.333    66.036452    -11397.37    18226.776 
   64200    282.35956   -11356.378    54.707913   -11411.086    5071.4276 
   64400    315.30829   -11350.097    61.091818   -11411.189   -13028.488 
   64600    338.49407   -11339.201    65.584125   -11404.785     18321.09 
   64800    263.27927   -11366.218    51.011056   -11417.229   -1653.7052 
   65000    300.86722   -11353.524    58.293822   -11411.818   -1562.5327 
   65200    275.53999   -11343.248    53.386605   -11396.635    5456.2624 
   65400    327.75494   -11354.903    63.503389   -11418.407   -10169.076 
   65600    329.85044   -11358.946    63.909398   -11422.856   -8983.1743 
   65800    343.77086   -11345.423    66.606516    -11412.03    3424.2029 
   66000    263.48106   -11365.907    51.050154   -11416.957    4516.7429 
   66200    308.96564   -11351.573    59.862912   -11411.436   -12931.181 
   66400    311.13304   -11347.695    60.282853   -11407.978    8839.9847 
   66600    296.09037   -11365.319    57.368294   -11422.687     598.3582 
   66800    285.77316   -11356.948    55.369307   -11412.317    12614.142 
   67000    362.92701   -11349.643    70.318071   -11419.961   -37594.656 
   67200    318.49428   -11354.228    61.709111   -11415.937    8146.0848 
   67400    244.28646   -11368.093    47.331149   -11415.424    4866.8233 
   67600    281.83994   -11365.487    54.607236   -11420.095    2309.0293 
   67800    299.27118   -11347.457    57.984584   -11405.442    24013.071 
   68000    318.39423   -11327.537    61.689727   -11389.226   -451.47296 
   68200    350.70577   -11340.882    67.950174   -11408.832   -4522.1497 
   68400    318.74673   -11356.251    61.758024   -11418.009    25888.755 
   68600    304.26172   -11349.728    58.951515   -11408.679     5962.029 
   68800    335.44097   -11343.638    64.992578    -11408.63    1106.2694 
   69000    269.41822   -11362.878    52.200496   -11415.079   -17299.123 
   69200     319.7355    -11344.12    61.949601   -11406.069   -8216.7496 
   69400    297.54763   -11347.892    57.650642   -11405.543    2118.3517 
   69600     324.4568   -11353.777    62.864365   -11416.642   -4010.8984 
   69800    276.40911   -11348.874    53.554999   -11402.429     7476.995 
   70000    378.88358   -11331.904    73.409699   -11405.314    5723.1689 
   70200    273.96101   -11351.618    53.080673   -11404.699    6267.8751 
   70400    305.92393    -11359.23    59.273573   -11418.504    9233.4378 
   70600    329.71917    -11350.89    63.883964   -11414.774     -20390.3 
   70800     249.0951    -11345.57    48.262837   -11393.833   -20619.392 
   71000     282.2342   -11362.175    54.683625   -11416.858     12987.56 
   71200    310.05736   -11355.728    60.074436   -11415.803    15219.773 
   71400    258.50627   -11363.917    50.086275   -11414.003   -14945.605 
   71600    241.40475   -11376.257     46.77281    -11423.03   -19333.558 
   71800    229.42408   -11356.387    44.451525   -11400.839    5435.3638 
   72000    267.25377   -11353.798    51.781127   -11405.579    3075.8992 
   72200    388.72669   -11334.386    75.316827   -11409.703   -7955.4384 
   72400      315.125   -11357.908    61.056305   -11418.965   -3658.2637 
   72600    295.19516   -11354.841    57.194845   -11412.036    3121.5204 
   72800    336.49625   -11335.951    65.197041   -11401.148   -18560.724 
   73000    341.70194   -11329.988    66.205658   -11396.194   -4761.7549 
   73200    292.62295   -11357.663    56.696473   -11414.359    4828.3114 
   73400    306.76439   -11351.535    59.436414   -11410.971   -3689.7575 
   73600    280.29182   -11350.906    54.307285   -11405.213   -2386.1568 
   73800    233.39304   -11364.724    45.220522   -11409.945   -6148.6431 
   74000    313.35434   -11352.001    60.713234   -11412.715    19287.983 
   74200    247.17048   -11354.276    47.889936   -11402.166   -5211.9356 
   74400    310.82453   -11352.267    60.223078    -11412.49   -6560.6509 
   74600    283.29208    -11359.05    54.888592   -11413.939    7610.9455 
   74800    358.14111   -11341.023     69.39079   -11410.414   -12530.091 
   75000    251.47906   -11358.239    48.724734   -11406.963    18465.831 
   75200    310.86756   -11361.853    60.231414   -11422.084   -12820.281 
   75400    272.85118   -11359.084     52.86564   -11411.949    8750.5035 
   75600    335.85052   -11346.068     65.07193    -11411.14   -17203.431 
   75800    285.38511   -11366.844    55.294123   -11422.138    8060.8041 
   76000    273.99558   -11358.724     53.08737   -11411.811   -674.32449 
   76200    311.58109   -11351.221    60.369662   -11411.591    2472.6679 
   76400    297.83551   -11349.746    57.706421   -11407.453     15526.09 
   76600    364.38174   -11335.942    70.599929   -11406.542   -376.89468 
   76800    263.06317   -11349.592    50.969187   -11400.562   -4818.9866 
   77000    259.79505   -11348.794     50.33598    -11399.13   -6329.0714 
   77200    306.99242    -11360.57    59.480595   -11420.051    2208.7892 
   77400    272.23909   -11371.198    52.747045   -11423.945    4782.6005 
   77600     295.5577   -11353.065    57.265088    -11410.33   -3696.0875 
   77800    324.97665   -11352.151    62.965089   -11415.116   -2480.2338 
   78000    249.96193   -11359.489    48.430786   -11407.919     13292.72 
   78200    333.98376   -11341.674    64.710239   -11406.384    4782.5772 
   78400    256.79176   -11354.365    49.754085   -11404.119   -4725.2475 
   78600    311.77944   -11338.029    60.408094   -11398.437   -1862.9805 
   78800    305.06138   -11343.002    59.106452   -11402.108    11679.694 
   79000    334.46076   -11357.797     64.80266     -11422.6     18466.53 
   79200    284.12078   -11367.726    55.049154   -11422.775   -21209.761 
   79400    295.76396    -11361.76    57.305053   -11419.065    15685.266 
   79600     333.2043   -11347.745    64.559218   -11412.304   -19757.533 
   79800    249.89643   -11362.886    48.418097   -11411.304     7697.441 
   80000    293.48438   -11346.641    56.863377   -11403.504   -9515.9818 
   80200    303.36554   -11346.345    58.777879   -11405.123    17792.485 
   80400    251.44975   -11362.291    48.719057    -11411.01   -948.68772 
   80600    350.93781   -11343.384    67.995132   -11411.379    2589.8553 
   80800    295.75726    -11355.13    57.303753   -11412.433    11305.546 
   81000    316.36295   -11356.955     61.29616   -11418.251    14164.091 
   81200    320.75311   -11356.326    62.146767   -11418.473   -3713.5362 
   81400    288.90347   -11357.944    55.975815    -11413.92    6102.1725 
   81600    341.85062   -11334.742    66.234465   -11400.976    7820.4652 
   81800    305.71634   -11347.582    59.233353   -11406.816   -9058.8092 
   82000    268.82339   -11361.295    52.085245    -11413.38   -5270.0358 
   82200    242.08587   -11350.796    46.904779   -11397.701   -19301.952 
   82400    322.18529   -11348.395    62.424256   -11410.819    -6658.594 
   82600    316.12559    -11334.23    61.250172    -11395.48    813.45959 
   82800    287.45023   -11354.173    55.694245   -11409.868   -25646.399 
   83000    313.73913   -11353.766     60.78779   -11414.553   -15189.799 
   83200    321.10122   -11342.972    62.214214   -11405.186    6967.9538 
   83400    297.35886    -11358.28    57.614069   -11415.894    12625.557 
   83600    307.27678   -11356.078    59.535691   -11415.614    5518.3559 
   83800    367.77901   -11334.322     71.25816    -11405.58    -8095.404 
   84000    294.75737   -11342.594    57.110022   -11399.704    15837.676 
   84200    275.73425   -11356.255    53.424242   -11409.679   -7858.2591 
   84400    349.10433   -11345.247    67.639889   -11412.887   -7564.0854 
   84600    336.21737    -11328.46    65.143008   -11393.603   -5934.5573 
   84800    273.87987    -11345.23    53.064952   -11398.295    13574.726 
   85000    270.20462   -11359.673    52.352862   -11412.026   -457.76551 
   85200    281.96755   -11363.829    54.631961   -11418.461    16625.447 
   85400    326.17049   -11346.288    63.196397   -11409.484    5215.1148 
   85600    277.43508   -11360.113    53.753783   -11413.866    11824.266 
   85800    354.76902   -11347.225    68.737439   -11415.963    16659.097 
   86000    332.71951   -11346.133    64.465288   -11410.599   -9232.1547 
   86200    282.98221   -11361.479    54.828555   -11416.308     14015.26 
   86400    275.89296   -11349.786    53.454993   -11403.241    5565.2468 
   86600    269.01379   -11344.602    52.122136   -11396.724     6499.602 
   86800    291.78365   -11364.763    56.533856   -11421.297    22514.824 
   87000    291.61787   -11359.612    56.501736   -11416.113   -22340.452 
   87200    343.44794   -11345.452     66.54395   -11411.996   -14764.786 
   87400    263.80558   -11364.105    51.113032   -11415.218   -875.90188 
   87600    298.81342   -11352.727    57.895892   -11410.623    10406.942 
   87800    341.33755   -11345.686    66.135055   -11411.821    -6444.193 
   88000    242.57103   -11366.841     46.99878    -11413.84     3389.959 
   88200    310.70351    -11344.35     60.19963   -11404.549   -4781.1374 
   88400    296.04036   -11351.517    57.358606   -11408.875   -10401.808 
   88600    276.68512   -11361.593    53.608475   -11415.202   -9313.7877 
   88800    331.48352   -11349.759    64.225812   -11413.984   -4338.7364 
   89000    362.46219   -11343.511     70.22801   -11413.739   -11865.118 
   89200    327.23863   -11358.437    63.403353   -11421.841    7951.8732 
   89400    294.95417   -11355.679    57.148154   -11412.827   -662.78956 
   89600    352.81644   -11340.299    68.359122   -11408.658    5100.1838 
   89800    270.51563   -11353.789    52.413121   -11406.202   -31033.763 
   90000    313.75367   -11350.216    60.790607   -11411.007    5531.0223 
   90200    297.87386   -11361.629     57.71385   -11419.343    4776.8799 
   90400    310.55681   -11353.758    60.171206   -11413.929    12906.539 
   90600    245.66626   -11366.196    47.598489   -11413.795   -14355.374 
   90800    306.56267   -11361.608     59.39733   -11421.005    4841.8995 
   91000    307.37726   -11358.253    59.555159   -11417.809    18431.217 
   91200    269.74142     -11360.8    52.263115   -11413.063    31221.787 
   91400    294.46852   -11356.436    57.054058    -11413.49    461.48004 
   91600     337.3007   -11341.819    65.352905   -11407.172   -10743.934 
   91800    319.32071    -11361.69    61.869235    -11423.56   -14146.732 
   92000    260.72924   -11365.105    50.516982   -11415.622   -21279.153 
   92200    341.32362   -11352.847    66.132357   -11418.979     9607.856 
   92400    275.44881   -11370.393    53.368938   -11423.762     4433.708 
   92600    340.33126   -11356.974    65.940084   -11422.914    12149.281 
   92800    343.37356   -11357.339    66.529539   -11423.869    9408.1548 
   93000    249.01072   -11369.344    48.246488   -11417.591    1845.1388 
   93200    336.30757   -11351.254    65.160484   -11416.415   -9347.6308 
   93400    285.20633   -11360.739    55.259483   -11415.999   -9659.1962 
   93600    313.54805   -11354.473    60.750766   -11415.224   -20873.049 
   93800    244.90207   -11373.438    47.450426   -11420.889    65.476791 
   94000    275.38266   -11361.992    53.356122   -11415.348      29708.1 
   94200    328.09543   -11354.267    63.569359   -11417.837   -363.74221 
   94400    268.67637   -11371.928     52.05676   -11423.985   -7508.3814 
   94600    275.76866   -11352.645     53.43091   -11406.075   -2583.5262 
   94800    303.70053   -11349.742    58.842783   -11408.584   -35498.235 
   95000    251.50611   -11367.124    48.729976   -11415.854    6533.7205 
   95200     295.7959    -11359.41    57.311241   -11416.721    3192.2577 
   95400    304.67475   -11356.529    59.031542   -11415.561   -8912.0208 
   95600     287.0312   -11365.763    55.613057   -11421.376   -8885.6594 
   95800    273.96792   -11368.565    53.082011   -11421.647    9333.7383 
   96000    300.41736   -11354.627    58.206661   -11412.834     3452.733 
   96200    339.07363   -11358.999    65.696415   -11424.695    5893.9432 
   96400    230.58422     -11369.1    44.676304   -11413.777    11594.815 
   96600    307.50757   -11361.538    59.580408   -11421.119   -17532.381 
   96800    342.12818   -11345.481    66.288243   -11411.769   -10530.067 
   97000    317.48666   -11365.165    61.513883   -11426.679   -1893.2551 
   97200    250.48433   -11373.655    48.532003   -11422.187   -12197.602 
   97400    330.19018   -11355.353    63.975223   -11419.328   -7199.6983 
   97600    298.26772   -11362.975    57.790162   -11420.765    1569.9691 
   97800     230.8587   -11377.395    44.729486   -11422.125   -9249.9641 
   98000    337.35349   -11356.051    65.363133   -11421.414    4273.5256 
   98200    347.05456   -11350.928    67.242742   -11418.171    6316.3092 
   98400    271.48664   -11365.521    52.601257   -11418.122   -1457.7934 
   98600    319.75937   -11354.604    61.954227   -11416.558     5189.931 
   98800    345.63762   -11354.867    66.968206   -11421.835     7938.265 
   99000    264.87175   -11362.019    51.319605   -11413.339   -9505.8092 
   99200    273.71613   -11369.724    53.033226   -11422.757   -13055.597 
   99400    267.36694    -11364.66    51.803054   -11416.463   -15259.389 
   99600    272.78008   -11350.198    52.851864   -11403.049    23893.142 
   99800    267.81202   -11366.482    51.889289   -11418.371    23875.164 
  100000    323.82071   -11359.776    62.741122   -11422.517   -6031.2838 
  100200    271.06517     -11358.9    52.519597    -11411.42   -13412.141 
  100400    246.26193   -11378.597    47.713903   -11426.311    13803.654 
  100600    311.16566   -11362.885    60.289172   -11423.174    10689.552 
  100800    312.02669   -11360.688    60.455998   -11421.144   -6521.1355 
  101000    281.75284   -11354.506    54.590361   -11409.097   -8759.9049 
  101200    299.43361   -11352.541    58.016056   -11410.558    2181.2462 
  101400    306.37891   -11362.678    59.361727   -11422.039    3195.7524 
  101600    327.13817   -11343.318    63.383889   -11406.702    7403.6551 
  101800    317.71647   -11342.512     61.55841   -11404.071    3191.3044 
  102000    275.27966   -11363.274    53.336165   -11416.611    5763.5007 
  102200    317.82116   -11353.774    61.578692   -11415.352   -23083.917 
  102400    348.75374    -11334.69    67.571963   -11402.262    26664.802 
  102600    291.09102   -11352.116    56.399657   -11408.516   -5604.3602 
  102800    298.66921   -11358.889    57.867952   -11416.757    6319.3304 
  103000    381.75325   -11338.417    73.965704   -11412.383     6220.194 
  103200    290.67133   -11350.385    56.318341   -11406.704    1953.5988 
  103400    323.49776   -11354.198     62.67855   -11416.876    285.01903 
  103600    291.62854   -11374.294    56.503804   -11430.798    8716.1248 
  103800    307.97191   -11364.757    59.670375   -11424.427    3257.2175 
  104000    296.93844   -11360.277    57.532611    -11417.81   -10559.176 
  104200    314.93783   -11360.601     61.02004   -11421.621    4077.1246 
  104400    280.25083   -11370.701    54.299342       -11425    5638.6409 
  104600    328.40225   -11351.355    63.628808   -11414.984    26470.125 
  104800    307.06266   -11355.406    59.494205     -11414.9    17572.295 
  105000     266.7543   -11376.642    51.684353   -11428.326    12560.802 
  105200    272.42848   -11358.971    52.783742   -11411.754   -17591.818 
  105400    321.40836   -11354.345    62.273722   -11416.618   -6664.9558 
  105600    272.22022   -11375.193     52.74339   -11427.936   -7213.8194 
  105800    256.38632   -11368.995    49.675529    -11418.67    7527.4404 
  106000    289.19327   -11353.752    56.031963   -11409.784    2971.6368 
  106200     303.2704   -11351.979    58.759445   -11410.739   -10260.594 
  106400    294.93498   -11363.806    57.144435    -11420.95   -3326.6219 
  106600    283.15597   -11357.987     54.86222   -11412.849    9371.7667 
  106800    298.05673   -11345.357    57.749283   -11403.106   -6296.1079 
  107000    267.01018   -11357.435     51.73393   -11409.169   -7100.8848 
  107200    229.05148   -11363.278    44.379332   -11407.657   -2544.7448 
  107400    277.68586   -11349.991    53.802372   -11403.793    25567.858 
  107600    301.88018   -11356.705    58.490086   -11415.195    -10382.71 
  107800    311.72773   -11367.414    60.398074   -11427.812    3697.4956 
  108000    300.33831   -11359.717    58.191344   -11417.908    30121.036 
  108200    362.10965   -11344.966    70.159705   -11415.126   -7163.9816 
  108400    268.51251   -11359.574    52.025011   -11411.599    22514.322 
  108600    278.22459   -11364.659    53.906753   -11418.565    17981.719 
  108800    345.15267   -11347.685    66.874246   -11414.559   -4733.9359 
  109000    283.19888   -11362.087    54.870534   -11416.958    6933.9897 
  109200    271.82291   -11362.551     52.66641   -11415.218    -11645.82 
  109400     380.6583   -11348.921    73.753556   -11422.675   -553.97987 
  109600    302.39926    -11364.55     58.59066   -11423.141   -23001.533 
  109800    344.49745   -11351.154    66.747294   -11417.901    13960.159 
  110000    308.41056   -11357.279    59.755364   -11417.034   -4886.4007 
  110200    251.47867   -11354.296     48.72466    -11403.02   -12100.034 
  110400    296.82808   -11358.013    57.511228   -11415.524   -18550.405 
  110600    283.38724   -11368.337     54.90703   -11423.244    20966.007 
  110800    262.34746   -11365.737    50.830517   -11416.567   -10434.988 
  111000    310.79464   -11346.916    60.217287   -11407.133    6160.3356 
  111200    284.96283   -11360.482    55.212305   -11415.694    16313.717 
  111400     275.8262   -11360.745    53.442059   -11414.187    13435.277 
  111600    319.93456   -11351.855    61.988169   -11413.843    -32509.77 
  111800    309.07111     -11340.1    59.883347   -11399.984    12863.725 
  112000    288.90677    -11360.25    55.976454   -11416.226    755.06082 
  112200    325.81757   -11348.589    63.128019   -11411.717    8283.3087 
  112400    345.01149   -11339.915    66.846893   -11406.761    9844.3483 
  112600    261.96103   -11357.456    50.755644   -11408.212   -16646.469 
  112800    327.90215    -11343.97    63.531911   -11407.501    8952.7387 
  113000    283.13928   -11351.715    54.858986   -11406.574     9220.045 
  113200    318.72033   -11352.244    61.752909   -11413.997    11531.178 
  113400    293.21422   -11356.685    56.811034   -11413.496   -1817.3729 
  113600    289.43694   -11365.958    56.079176   -11422.037   -13793.441 
  113800    321.21112   -11356.215    62.235507    -11418.45    866.90849 
  114000    309.72613   -11358.713     60.01026   -11418.723   -8632.9397 
  114200    289.65279   -11357.561    56.120996   -11413.682   -4490.0957 
  114400     336.4145   -11332.873    65.181201   -11398.054   -2145.7039 
  114600     321.8564   -11350.388    62.360532   -11412.748   -5968.8984 
  114800    288.55011   -11356.702    55.907349   -11412.609   -2549.5962 
  115000    287.08089   -11357.511    55.622684   -11413.134    11428.556 
  115200    289.30287   -11344.945    56.053198   -11400.998    22356.245 
  115400    282.62069   -11364.525    54.758509   -11419.283    -12200.33 
  115600    304.42257   -11365.581     58.98268   -11424.564   -18249.589 
  115800    242.03752   -11359.795    46.895412    -11406.69   -7203.1818 
  116000    426.33019   -11323.681    82.602606   -11406.284   -11053.476 
  116200    323.34775   -11344.851    62.649484     -11407.5   -15316.894 
  116400    282.37657   -11360.219     54.71121    -11414.93   -35763.759 
  116600    275.82893   -11358.158    53.442586   -11411.601   -36208.762 
  116800    296.00863    -11340.36    57.352458   -11397.712    2401.8284 
  117000    278.59674    -11353.24    53.978858   -11407.219    7153.7117 
  117200    268.43924   -11365.652    52.010814   -11417.663    31110.764 
  117400    337.05665   -11343.929     65.30562   -11409.234    6340.6875 
  117600    298.06793   -11359.314    57.751453   -11417.066    -20236.08 
  117800    277.69268   -11365.259    53.803694   -11419.063    -9544.054 
  118000    309.14083   -11343.547    59.896856   -11403.444    18560.272 
  118200    307.69465   -11360.439    59.616654   -11420.056    5801.2014 
  118400    292.35014   -11360.365    56.643615   -11417.008   -12644.655 
  118600    326.86626    -11348.44    63.331205   -11411.771    9107.3411 
  118800    324.01227   -11342.318    62.778237   -11405.096   -3262.6363 
  119000    371.20969   -11330.041    71.922862   -11401.964    13662.776 
  119200    285.36241   -11348.713    55.289725   -11404.003   -17762.882 
  119400    311.00558   -11350.476    60.258157   -11410.735    22003.262 
  119600    301.17963   -11359.575    58.354353    -11417.93   -2702.8922 
  119800    285.61298   -11362.913    55.338273   -11418.251    17759.725 
  120000    276.58728   -11346.196    53.589519   -11399.785    15315.277 
  120200    259.27342   -11358.225    50.234912    -11408.46   -6255.2829 
  120400    271.93148   -11368.614    52.687446   -11421.301   -5557.9935 
  120600    334.35816   -11341.252    64.782781   -11406.035   -3209.5801 
  120800    266.03413   -11343.242    51.544819   -11394.787    4781.0648 
  121000    296.67893   -11354.983     57.48233   -11412.466    3595.8096 
  121200    306.09789   -11354.721    59.307278   -11414.028    18727.144 
  121400    340.09344   -11335.349    65.894007   -11401.243    6119.7012 
  121600    272.22022   -11354.996     52.74339    -11407.74   -20608.095 
  121800    289.53038   -11365.189     56.09728   -11421.286    11735.969 
  122000    338.39616   -11354.754    65.565154   -11420.319      108.162 
  122200    368.51671   -11345.329    71.401091    -11416.73    20377.262 
  122400    288.89446   -11359.173    55.974068   -11415.147   -24227.981 
  122600    257.36801   -11368.415    49.865735    -11418.28   -23159.881 
  122800    322.55498   -11350.885    62.495883    -11413.38   -5586.8209 
  123000    299.23983   -11349.066    57.978511   -11407.045    -9591.763 
  123200    263.22876   -11367.348     51.00127   -11418.349   -7102.8919 
  123400    307.04465   -11357.594    59.490715   -11417.085    8437.4541 
  123600    281.02485   -11365.103    54.449311   -11419.552    1870.7885 
  123800    335.92618   -11346.998    65.086589   -11412.084    1910.8748 
  124000    303.65693   -11353.973    58.834335   -11412.808   -4828.8157 
  124200    306.66201   -11366.017    59.416578   -11425.434   -13390.314 
  124400    292.81913   -11357.621    56.734482   -11414.356    11493.009 
  124600    323.27769   -11348.725     62.63591   -11411.361   -6078.2621 
  124800    285.35338   -11370.839    55.287975   -11426.127   -1375.7702 
  125000    251.03899   -11362.795     48.63947   -11411.434    5356.5024 
  125200    288.52695   -11347.494    55.902862   -11403.397     19965.31 
  125400    287.38371   -11357.977    55.681356   -11413.658    19589.129 
  125600    262.16829   -11368.586    50.795802   -11419.382   -15594.785 
  125800    356.80647   -11353.727    69.132201   -11422.859    14399.788 
  126000    252.52577   -11361.319    48.927538   -11410.246    26430.934 
  126200    271.41817   -11367.887     52.58799   -11420.475   -21064.841 
  126400    345.29488   -11348.961    66.901798   -11415.863   -11051.614 
  126600    331.48068   -11357.986    64.225261   -11422.212    20877.157 
  126800    307.15243   -11359.711    59.511599   -11419.223   -2825.0607 
  127000    318.57055   -11350.969    61.723889   -11412.693    22108.776 
  127200    350.35763    -11344.84    67.882721   -11412.723    12360.999 
  127400    269.35766   -11358.387    52.188762   -11410.576   -15293.666 
  127600    287.38197   -11350.663    55.681018   -11406.344   -6779.3347 
  127800    306.23347   -11356.815    59.333548   -11416.148   -11794.074 
  128000    285.49825   -11368.313    55.316044   -11423.629    3956.5641 
  128200    297.39859   -11361.665    57.621767   -11419.287   -591.58919 
  128400    348.69083   -11345.233    67.559773   -11412.793   -7835.1494 
  128600    274.60366   -11354.361    53.205188   -11407.566    10178.439 
  128800    303.10716   -11359.476    58.727817   -11418.204    18864.542 
  129000    300.83673   -11340.252    58.287914    -11398.54   -7896.7276 
  129200      343.863   -11340.987    66.624368   -11407.611   -13484.968 
  129400    256.41145   -11353.311    49.680398   -11402.991   -2331.5709 
  129600    270.87388   -11373.076    52.482532   -11425.558   -4827.3399 
  129800    237.95915   -11365.569    46.105217   -11411.674   -14169.894 
  130000    287.14813   -11351.324    55.635712    -11406.96    31990.176 
  130200    282.06448   -11364.404    54.650741   -11419.055     5963.055 
  130400    279.39303   -11368.421    54.133141   -11422.554    8874.9738 
  130600    298.35227    -11342.67    57.806545   -11400.476    7830.1766 
  130800    277.10218   -11356.709    53.689282   -11410.398    3183.6115 
  131000    278.51557   -11358.357    53.963131   -11412.321   -5001.1374 
  131200    334.18515   -11341.452     64.74926   -11406.201    457.93087 
  131400    313.01227   -11357.035    60.646958   -11417.682   -5242.9776 
  131600    295.58914   -11360.593     57.27118   -11417.864    7371.0402 
  131800    321.20542   -11355.102    62.234403   -11417.336    6603.6034 
  132000    323.69987   -11353.822    62.717709    -11416.54    3162.2662 
  132200    233.10617   -11371.283    45.164939   -11416.448   -901.21356 
  132400    285.95969   -11352.549     55.40545   -11407.954    6454.8158 
  132600    277.17795   -11356.023    53.703963   -11409.727   -27034.178 
  132800    270.46199   -11354.566    52.402728   -11406.969    7705.0727 
  133000    358.71404   -11341.758    69.501798    -11411.26    16887.446 
  133200    275.33486    -11359.92     53.34686   -11413.267   -14212.295 
  133400    267.39034   -11360.133    51.807587    -11411.94    10546.645 
  133600    300.73643    -11342.68    58.268481   -11400.949   -12996.953 
  133800    294.27583   -11362.009    57.016723   -11419.026    10871.677 
  134000    292.70782   -11359.873    56.712917   -11416.586   -17108.313 
  134200    296.06098   -11355.558    57.362599    -11412.92    627.45481 
  134400    328.66889   -11350.554    63.680469   -11414.235    -20471.62 
  134600    341.12229   -11348.569    66.093348   -11414.662   -186.32974 
  134800    242.48906   -11360.906    46.982898   -11407.889   -24386.214 
  135000    322.30381   -11344.325    62.447218   -11406.772    32011.699 
  135200    317.80631    -11340.64    61.575817   -11402.215    8528.6691 
  135400      301.616   -11356.097      58.4389   -11414.536    707.01376 
  135600    286.46091   -11355.477     55.50256    -11410.98   -19823.271 
  135800    297.62393   -11351.496    57.665427   -11409.161    5136.4635 
  136000    300.47865   -11353.704    58.218535   -11411.922   -9.5330794 
  136200    279.35628    -11355.24    54.126021   -11409.366    4328.7183 
  136400    274.09868   -11365.038    53.107346   -11418.145   -7967.8829 
  136600     322.6987   -11351.611     62.52373   -11414.135    1848.7739 
  136800    288.21294   -11347.358    55.842022     -11403.2   -3605.0499 
  137000    282.91833   -11363.643    54.816176   -11418.459   -5366.3321 
  137200    284.86131   -11351.215    55.192635   -11406.408    2372.8402 
  137400    312.26807    -11345.97    60.502766   -11406.472    31962.369 
  137600    263.81622   -11365.975    51.115093    -11417.09   -1451.7587 
  137800    300.02428    -11348.82    58.130501    -11406.95    10751.227 
  138000    294.72436   -11348.644    57.103626   -11405.747     3834.783 
  138200    262.86363   -11370.077    50.930526   -11421.008    11184.015 
  138400    317.23485   -11368.007    61.465093   -11429.472    16465.247 
  138600     302.2872   -11350.982    58.568947    -11409.55   -27454.337 
  138800      305.972   -11348.614    59.282887   -11407.897    11467.607 
  139000    294.27215   -11354.941    57.016009   -11411.957    4087.9444 
  139200    301.05559   -11345.474    58.330319   -11403.804   -8746.0244 
  139400    347.04123     -11343.6     67.24016   -11410.841   -6874.0703 
  139600    297.00987   -11363.446     57.54645   -11420.992    757.04072 
  139800    320.80142   -11347.461    62.156126   -11409.618   -11916.964 
  140000    282.62719   -11356.043    54.759768   -11410.803   -5822.5799 
  140200    251.16811   -11359.636    48.664488   -11408.301   -9895.3318 
  140400    298.82332   -11347.698    57.897811   -11405.596   -13360.785 
  140600    285.17483   -11364.879    55.253381   -11420.133    9532.5755 
  140800    319.50518    -11353.14    61.904976   -11415.045    4729.8385 
  141000     238.1104    -11354.84    46.134521   -11400.974    16626.138 
  141200    323.44327    -11337.86    62.667991   -11400.528   -5352.4898 
  141400    331.49607   -11337.473    64.228242   -11401.702   -12676.343 
  141600     305.2935    -11352.56    59.151425   -11411.712   -13387.669 
  141800    297.96986   -11355.082     57.73245   -11412.814    18019.046 
  142000    351.49744   -11338.646    68.103562    -11406.75    -19104.51 
  142200    265.32697   -11357.382    51.407804    -11408.79    5486.1741 
  142400    299.32593   -11351.179    57.995193   -11409.174    31286.655 
  142600    333.29482   -11340.628    64.576756   -11405.204   -8656.1368 
  142800      274.559   -11350.248    53.196535   -11403.445    -6748.505 
  143000    301.22433   -11350.363    58.363014   -11408.726    19646.976 
  143200    330.49184   -11329.177    64.033671   -11393.211   -2430.6735 
  143400    299.76349   -11342.588    58.079971   -11400.668    4963.5874 
  143600    295.37962    -11353.18    57.230585    -11410.41    -2174.634 
  143800    248.16895   -11357.981    48.083392   -11406.064    4012.4088 
  144000    324.22114   -11338.634    62.818707   -11401.452   -6113.0939 
  144200    299.25026   -11357.077    57.980532   -11415.058   -3098.6292 
  144400    338.99771   -11360.643    65.681705   -11426.325    13277.218 
  144600    320.26149    -11352.43    62.051513   -11414.482   -3267.1745 
  144800    336.14483   -11348.347    65.128952   -11413.476    1345.5134 
  145000    255.08456   -11359.968     49.42331   -11409.392   -9414.2012 
  145200    353.55173   -11340.411    68.501585   -11408.913   -16260.715 
  145400    320.64625   -11349.716    62.126062   -11411.842    11738.496 
  145600    312.51537   -11358.848    60.550682   -11419.398    28237.497 
  145800    267.00426   -11364.692    51.732783   -11416.425   -16265.438 
  146000    360.72933    -11343.67    69.892266   -11413.562    -2272.319 
  146200    297.38616   -11359.536    57.619358   -11417.156       4443.4 
  146400    235.88196   -11369.964    45.702755   -11415.667   -10767.244 
  146600    368.14843   -11345.112    71.329735   -11416.442    6551.4191 
  146800    287.46077   -11356.545    55.696286   -11412.242    34205.661 
  147000    345.59116   -11337.405    66.959205   -11404.364    10798.043 
  147200    294.44968   -11352.234    57.050408   -11409.284    1834.9268 
  147400    282.65633   -11357.513    54.765414   -11412.278    8990.1604 
  147600    343.00037    -11349.88    66.457232   -11416.337    5935.2762 
  147800    298.44313   -11344.719    57.824148   -11402.543    14197.309 
  148000    275.88022   -11357.875    53.452525   -11411.328   -16005.646 
  148200    379.95235   -11337.172    73.616776   -11410.789   -27359.931 
  148400    285.51993   -11349.796    55.320243   -11405.116   -1778.4188 
  148600    334.02472   -11351.883    64.718176   -11416.601    -18312.55 
  148800    267.05097   -11368.802    51.741834   -11420.544   -13411.316 
  149000    295.21842   -11349.036    57.199352   -11406.235    11264.056 
  149200    318.09925   -11356.855    61.632574   -11418.487    5577.7656 
  149400    307.85553   -11351.806    59.647826   -11411.454    2801.9073 
  149600    288.01387   -11345.667    55.803451    -11401.47    13268.671 
  149800    269.21174   -11360.674    52.160489   -11412.835    1349.0763 
  150000     334.0967   -11348.416    64.732123   -11413.149    -17304.48 
  150200    293.31787   -11358.504    56.831115   -11415.335   -22690.805 
  150400    259.88752   -11359.224    50.353897   -11409.578    12399.984 
  150600     309.2347   -11345.206    59.915043   -11405.121   -11398.801 
  150800    323.99629   -11345.873    62.775141   -11408.648    14714.173 
  151000    288.18146   -11361.929    55.835923   -11417.765    46741.646 
  151200    364.20938   -11344.774    70.566534    -11415.34    14534.516 
  151400    309.82495   -11352.343    60.029407   -11412.372   -13404.872 
  151600    293.40166   -11362.967     56.84735   -11419.814    4650.9765 
  151800    299.20088   -11355.405    57.970964   -11413.376   -6162.2773 
  152000    317.23204    -11343.29     61.46455   -11404.754   -749.99047 
  152200    312.26723   -11353.114    60.502605   -11413.616   -23744.774 
  152400    298.06701   -11356.752    57.751274   -11414.503   -2717.1021 
  152600    242.47874   -11375.652    46.980899   -11422.633   -5878.6548 
  152800    276.47897   -11358.081    53.568535    -11411.65   -11037.971 
  153000    286.35327   -11346.529    55.481706    -11402.01   -5414.5532 
  153200    287.45183   -11366.379    55.694554   -11422.073    14323.187 
  153400    267.42511   -11362.509    51.814324   -11414.324    15377.745 
  153600    310.19012   -11348.214     60.10016   -11408.314   -18988.745 
  153800     277.0509    -11351.47    53.679346   -11405.149   -8093.4059 
  154000    294.50005   -11356.291    57.060166   -11413.351    13377.947 
  154200    245.22927   -11361.376    47.513823    -11408.89   -23930.466 
  154400    321.70987   -11343.858    62.332141    -11406.19    -1530.564 
  154600    286.42472   -11360.604     55.49555     -11416.1    8088.8027 
  154800    250.34118   -11362.292    48.504269   -11410.796    35894.545 
  155000    307.10594   -11352.448     59.50259   -11411.951   -25777.884 
  155200    270.40816   -11373.902    52.392299   -11426.294    7077.8509 
  155400    278.25763   -11360.856    53.913154   -11414.769    21716.198 
  155600    294.58386   -11352.599    57.076404   -11409.675    -11990.84 
  155800    297.36541   -11356.096    57.615337   -11413.711   -20742.738 
  156000    260.99775   -11370.182    50.569006   -11420.751   -14960.441 
  156200    325.01298   -11349.803    62.972127   -11412.775   -1299.5182 
  156400    279.83473   -11353.551    54.218721    -11407.77    3484.6554 
  156600    294.53394   -11357.043    57.066733    -11414.11   -14732.673 
  156800    283.17572   -11362.345    54.866046   -11417.211    11759.052 
  157000    280.67809     -11354.5    54.382125   -11408.882    2305.7311 
  157200    400.72357   -11339.059    77.641254     -11416.7   -3583.4118 
  157400    294.39347   -11357.395    57.039517   -11414.434    14429.016 
  157600    293.01096   -11357.718    56.771652    -11414.49   -7127.4881 
  157800    331.73887   -11336.534    64.275287   -11400.809     1598.381 
  158000    308.81215   -11351.384    59.833174   -11411.218   -15087.287 
  158200    280.97353   -11358.952    54.439367   -11413.391   -7021.4275 
  158400    275.64362   -11353.446    53.406682   -11406.853    7802.7096 
  158600    268.32361   -11340.464    51.988412   -11392.452    4995.7278 
  158800    320.10373   -11345.714    62.020947   -11407.735    21264.013 
  159000    282.55377   -11362.209    54.745543   -11416.954   -24652.156 
  159200    302.51547   -11345.727    58.613175   -11404.341    2921.1235 
  159400    276.70422   -11355.495    53.612177   -11409.107   -2567.0035 
  159600    282.40316   -11362.901    54.716362   -11417.617     18249.86 
  159800    310.60312   -11351.409    60.180178   -11411.589    10119.401 
  160000    291.21464   -11354.572    56.423609   -11410.996    11581.774 
  160200     271.8832   -11359.144    52.678091   -11411.822   -7387.0085 
  160400    266.94474   -11357.587    51.721252   -11409.309    10497.092 
  160600     304.9751   -11352.851    59.089734   -11411.941   -8722.2574 
  160800    333.72499   -11338.604    64.660102   -11403.264    17020.453 
  161000    285.80692   -11362.544    55.375849   -11417.919   -9098.4834 
  161200     304.7128   -11354.421    59.038913    -11413.46    3015.3659 
  161400    311.93662   -11346.197    60.438548   -11406.636   -19624.409 
  161600    284.47039   -11365.207    55.116892   -11420.324   -6410.0606 
  161800    309.33604   -11355.495    59.934678   -11415.429   -10712.109 
  162000    267.80385   -11371.322    51.887706    -11423.21   -11809.668 
  162200    323.81859   -11352.202     62.74071   -11414.943   -2381.0057 
  162400    308.10908   -11350.364    59.696951    -11410.06    679.99254 
  162600    279.50188   -11357.281    54.154232   -11411.435   -11423.242 
  162800    246.39948   -11372.146    47.740554   -11419.887    18054.076 
  163000    304.38023   -11354.075    58.974477    -11413.05      -9837.2 
  163200    304.53048   -11348.259    59.003589   -11407.262    13210.663 
  163400    277.43961   -11363.465     53.75466   -11417.219    8843.5984 
  163600    285.92717   -11352.115    55.399148   -11407.514   -26284.245 
  163800    343.84686   -11348.502    66.621242   -11415.123    3104.7906 
  164000    286.61268   -11360.405    55.531967   -11415.937   -7109.6778 
  164200    313.24868   -11352.523    60.692764   -11413.216    14412.075 
  164400     269.5489   -11352.868    52.225815   -11405.094   -11178.715 
  164600    262.21466   -11366.518    50.804786   -11417.323    27941.045 
  164800    249.42365   -11379.924    48.326494    -11428.25   -6849.0472 
  165000    324.96538   -11359.769    62.962904   -11422.732   -18297.294 
  165200    293.96521   -11353.171    56.956539   -11410.127   -1882.1827 
  165400     336.0374   -11354.006    65.108139   -11419.114      6886.28 
  165600    292.87514   -11367.637    56.745335   -11424.382    9556.1957 
  165800    394.08915   -11348.787    76.355818   -11425.143    8063.2978 
  166000    273.89046   -11356.179    53.067003   -11409.246   -4579.9721 
  166200    347.99028   -11353.945     67.42404   -11421.369   -8200.4251 
  166400    295.37272   -11359.149    57.229248   -11416.378   -13256.271 
  166600    330.83495   -11357.516     64.10015   -11421.616   -294.61232 
  166800    305.87603   -11356.033    59.264292   -11415.297   -18934.686 
  167000    349.00412   -11353.461    67.620475   -11421.081   -4977.9351 
  167200    286.07824   -11368.688    55.428418   -11424.117    11064.035 
  167400    295.91988   -11352.454    57.335261    -11409.79   -16147.048 
  167600    332.88327   -11343.484    64.497016   -11407.981   -11295.391 
  167800    302.71498   -11361.192    58.651831   -11419.844   -4195.3475 
  168000     258.0652   -11361.269    50.000816    -11411.27   -10367.308 
  168200    349.04396   -11336.371    67.628194   -11403.999    22002.681 
  168400    290.20219   -11352.145    56.227445   -11408.372   -20034.549 
  168600    319.16653   -11355.333    61.839362   -11417.173    1329.7182 
  168800    302.71472   -11364.037     58.65178   -11422.689   -12324.035 
  169000    282.90134   -11361.393    54.812886   -11416.206   -2887.4546 
  169200    325.92728   -11346.918    63.149274   -11410.067    23412.488 
  169400    303.74954   -11354.054    58.852279   -11412.906    9475.8328 
  169600    282.28451   -11357.963    54.693373   -11412.656    718.33928 
  169800    342.00959   -11353.546    66.265265   -11419.811    7779.5729 
  170000    226.78642   -11364.535    43.940471   -11408.476   -27709.296 
  170200    294.31223    -11353.94    57.023776   -11410.964    -6731.486 
  170400    332.04323   -11339.952    64.334257   -11404.287    6647.1164 
  170600    381.28736   -11327.086    73.875437   -11400.961    14756.397 
  170800    324.85324   -11351.893    62.941177   -11414.834   -6666.5238 
  171000    310.85159   -11356.934     60.22832   -11417.162    5022.2312 
  171200    299.17549   -11360.669    57.966045   -11418.635    7827.3976 
  171400    334.46791   -11354.413    64.804045   -11419.217    1469.9905 
  171600     293.7391   -11352.095     56.91273   -11409.008    2317.6079 
  171800    295.33894    -11350.46    57.222704   -11407.682   -4189.3637 
  172000    204.93415   -11368.428    39.706535   -11408.135    1582.4965 
  172200    316.27523   -11355.446    61.279165   -11416.725     20203.84 
  172400    272.79239   -11344.803    52.854248   -11397.657   -17486.934 
  172600    318.79895   -11340.151    61.768142   -11401.919   -2974.3196 
  172800    303.91798    -11345.87    58.884916   -11404.755    6619.8573 
  173000    270.98718   -11362.765    52.504485    -11415.27   -23980.624 
  173200    255.83677   -11358.492    49.569052   -11408.061    6715.3937 
  173400    305.98823   -11347.708    59.286032   -11406.994   -20692.347 
  173600    284.75594   -11362.148    55.172218    -11417.32    14458.575 
  173800    250.65074   -11364.945    48.564247   -11413.509   -9890.7485 
  174000    280.23269   -11354.758    54.295827   -11409.054   -720.96201 
  174200    359.54486   -11335.757    69.662772   -11405.419    5658.9492 
  174400    253.16245   -11351.359    49.050897   -11400.409   -12156.558 
  174600     295.0966   -11357.023    57.175748   -11414.199     4202.954 
  174800    258.94185    -11369.56     50.17067   -11419.731   -2618.9986 
  175000    339.22291   -11349.091    65.725338   -11414.816   -11336.927 
  175200    321.86816   -11347.361    62.362811   -11409.724      17631.3 
  175400    266.77711   -11361.854    51.688773   -11413.543   -25167.481 
  175600    293.68962    -11364.98    56.903143   -11421.883    9987.0731 
  175800    366.05386    -11345.01    70.923906   -11415.934   -2344.0017 
  176000    299.34509   -11357.382    57.998905   -11415.381    -10296.12 
  176200    280.48182   -11363.435    54.344097   -11417.779    6545.4561 
  176400    288.70065   -11348.801    55.936518   -11404.737   -7820.3161 
  176600    265.87526   -11345.604    51.514036   -11397.118   -9834.2757 
  176800    257.36497   -11369.152    49.865147   -11419.017    8054.2789 
  177000    313.22653   -11352.994    60.688471   -11413.682   -10091.636 
  177200    346.94517   -11343.577    67.221547   -11410.799   -6697.1645 
  177400    274.91734   -11359.525    53.265964   -11412.791   -11197.163 
  177600    325.77961   -11355.093    63.120664   -11418.213    12459.835 
  177800    311.49867   -11362.701    60.353694   -11423.054   -19355.707 
  178000    266.97673   -11357.628    51.727449   -11409.355    19524.463 
  178200     321.7354   -11355.587    62.337087   -11417.924   -2010.9527 
  178400    263.80364   -11364.352    51.112655   -11415.464    33613.613 
  178600    350.08991   -11345.025     67.83085   -11412.856   -3941.2625 
  178800    311.93935   -11353.647    60.439076   -11414.086   -5956.1265 
  179000    259.83595   -11367.348    50.343904   -11417.692     10396.77 
  179200    323.23051   -11352.261    62.626769   -11414.887    -6512.954 
  179400    276.56101   -11359.578    53.584429   -11413.163   -6808.6126 
  179600    243.90173   -11372.776    47.256606   -11420.032    7082.1411 
  179800    312.16993   -11356.454    60.483752   -11416.938    7385.3496 
  180000    327.75024   -11347.793    63.502479   -11411.295   -1085.3301 
  180200    264.60775   -11368.661    51.268453   -11419.929    -11558.31 
  180400    349.39428   -11359.189    67.696068   -11426.885    21972.024 
  180600    327.03739   -11343.623    63.364362   -11406.987   -3849.2999 
  180800    272.91777   -11363.694    52.878541   -11416.572   -721.58228 
  181000    286.16316   -11356.019    55.444871   -11411.463    -6921.767 
  181200    336.89715   -11350.127    65.274716   -11415.402    12257.524 
[...]
  950000    273.65297   -11362.662    53.020989   -11415.683   -7504.1559 
  950200    341.06008   -11351.989    66.081295    -11418.07   -5700.8244 
  950400    308.50962   -11348.011    59.774558   -11407.785    8038.3794 
  950600    252.38313   -11365.134    48.899901   -11414.033    22086.024 
  950800    288.55994   -11360.205    55.909255   -11416.115    11917.942 
  951000    297.13385   -11344.049    57.570472   -11401.619    2862.9191 
  951200    282.92405   -11351.727    54.817285   -11406.544    6807.4531 
  951400    308.25787   -11353.619     59.72578   -11413.345    7961.7697 
  951600    298.29502   -11357.199    57.795451   -11414.995    9836.2876 
  951800    318.36827   -11355.027    61.684697   -11416.711    3182.5423 
  952000    314.63131   -11348.593     60.96065   -11409.554    2416.9528 
  952200    248.42853   -11367.957    48.133687   -11416.091   -5485.1193 
  952400    279.92062   -11356.083    54.235364   -11410.319   -3360.2825 
  952600    337.25795   -11332.894    65.344622   -11398.239    12253.871 
  952800    280.31448   -11352.792    54.311674   -11407.104    932.23212 
  953000      266.082   -11354.779    51.554093   -11406.333   -23122.497 
  953200    335.92149   -11349.154     65.08568    -11414.24    10554.535 
  953400    269.23174   -11363.197    52.164364   -11415.361   -22868.296 
  953600    309.01298   -11351.733    59.872085   -11411.605   -3015.0088 
  953800    282.58159   -11346.703    54.750933   -11401.454   -3940.3254 
  954000    322.30842   -11356.112    62.448112    -11418.56   -21956.054 
  954200    290.35771   -11354.908    56.257577   -11411.165     11899.99 
  954400    282.14489   -11349.337    54.666322   -11404.004    4059.3628 
  954600    301.57768   -11363.891    58.431476   -11422.322   -3579.1324 
  954800    308.88865   -11364.551    59.847996   -11424.399   -5597.9826 
  955000    275.42506   -11359.858    53.364337   -11413.223    13205.845 
  955200     339.5557   -11348.828    65.789818   -11414.618    17757.285 
  955400    333.45026   -11346.752    64.606872   -11411.358   -2773.9708 
  955600    282.71833   -11354.324    54.777427   -11409.101   -4938.1359 
  955800    301.62348   -11345.292    58.440349   -11403.733    5892.0052 
  956000    310.60563   -11356.652    60.180665   -11416.833   -2090.2918 
  956200    278.12195   -11357.056    53.886865   -11410.943   -7451.9749 
  956400    326.15106   -11341.577    63.192633    -11404.77    6312.6435 
  956600    307.74245    -11363.87    59.625916   -11423.496    10898.133 
  956800    328.85067   -11352.706    63.715689   -11416.422    3560.4705 
  957000    353.60389   -11337.619    68.511692    -11406.13     5957.978 
  957200    307.30881    -11362.52    59.541897   -11422.062    21654.018 
  957400    348.37474   -11351.048     67.49853   -11418.546     28770.69 
  957600    314.42245   -11347.543    60.920184   -11408.463   -9269.8251 
  957800    272.17371   -11368.033    52.734378   -11420.767   -29645.899 
  958000    321.66275   -11348.986    62.323011   -11411.309     -2824.84 
  958200    285.38248   -11352.114    55.293612   -11407.407   -3839.8199 
  958400     257.6621   -11373.882    49.922716   -11423.805    20014.555 
  958600    300.26056   -11365.456    58.176281   -11423.633   -11048.632 
  958800    315.54263   -11360.372    61.137221   -11421.509   -5144.7329 
  959000    317.65094     -11350.7    61.545712   -11412.246    13000.253 
  959200    274.64213   -11345.818    53.212642    -11399.03   -19492.145 
  959400    297.17277   -11362.707    57.578013   -11420.285     14003.34 
  959600    282.09444   -11358.721    54.656546   -11413.378   -7910.7926 
  959800    350.19936   -11340.509    67.852055   -11408.361   -10631.186 
  960000    291.89461    -11347.59    56.555354   -11404.146   -4904.4659 
  960200     301.4889   -11359.475    58.414274    -11417.89    5120.0858 
  960400    307.93532   -11365.362    59.663285   -11425.025   -9777.0337 
  960600    262.36743   -11373.555    50.834385   -11424.389    19807.367 
  960800    293.71503   -11353.969    56.908066   -11410.877    10200.064 
  961000    302.16237   -11353.207     58.54476   -11411.752    -16372.52 
  961200    252.21555   -11368.879    48.867431   -11417.747    2145.7461 
  961400    330.47495   -11349.836    64.030399   -11413.866   -13092.176 
  961600    290.35413    -11356.58    56.256884   -11412.837    25323.143 
  961800    338.95958   -11338.618    65.674317   -11404.293   -15405.543 
  962000    282.44063   -11352.811    54.723622   -11407.534    16100.155 
  962200    276.35063   -11353.778    53.543668   -11407.322   -9961.7083 
  962400    317.36067   -11343.453    61.489471   -11404.942    20216.238 
  962600    251.23571   -11365.492    48.677585    -11414.17    27664.501 
  962800    275.78267   -11354.503    53.433623   -11407.936    5357.4066 
  963000    316.70244    -11342.78    61.361938   -11404.141    7227.1287 
  963200    338.20137   -11352.842    65.527413   -11418.369    13343.404 
  963400    288.69954   -11361.069    55.936301   -11417.005   -18651.503 
  963600    327.01656   -11339.456    63.360327   -11402.816    10765.448 
  963800    313.92688    -11349.79    60.824167   -11410.615    617.10537 
  964000    292.97579   -11361.905    56.764837    -11418.67     2083.174 
  964200    329.91241   -11343.613    63.921404   -11407.534    8021.8968 
  964400    323.68734   -11349.561    62.715282   -11412.277    1766.6861 
  964600    294.91434   -11360.947    57.140437   -11418.087      11685.2 
  964800    296.41088   -11352.454    57.430395   -11409.885   -11885.553 
  965000    301.98867   -11349.282    58.511106   -11407.793   -18993.259 
  965200    266.59092    -11360.87    51.652697   -11412.523    21763.701 
  965400    305.96949   -11342.809      59.2824   -11402.091    -4054.975 
  965600    350.44438   -11338.126    67.899528   -11406.025    15940.431 
  965800    278.52965    -11356.16    53.965859   -11410.126    377.00417 
  966000     336.5425   -11342.682    65.206002   -11407.888    21701.892 
  966200     324.3284   -11340.666    62.839488   -11403.506   -3010.4242 
  966400    289.64417   -11357.973    56.119327   -11414.092    -10193.18 
  966600    324.68245   -11352.366    62.908086   -11415.274   -3446.1738 
  966800    269.38673   -11345.799    52.194395   -11397.994   -16706.425 
  967000    327.95382   -11351.775    63.541923   -11415.316    4593.5911 
  967200     267.7748   -11364.859    51.882078   -11416.741   -6276.1387 
  967400    300.15936    -11355.38    58.156673   -11413.537   -5266.5297 
  967600    346.00997   -11355.535     67.04035   -11422.576    -3287.495 
  967800     322.7057   -11354.123    62.525086   -11416.648    2619.0447 
  968000    356.57886   -11343.048      69.0881   -11412.136   -3880.7915 
  968200    269.97148    -11363.06     52.30769   -11415.367   -8847.0735 
  968400    319.31089   -11360.945    61.867333   -11422.812    10679.555 
  968600    308.11756   -11360.311    59.698596   -11420.009    2397.5565 
  968800    302.96767   -11350.371    58.700789   -11409.071    4768.1161 
  969000    306.37753   -11362.427    59.361459   -11421.788    5140.4004 
  969200     258.6809   -11366.843     50.12011   -11416.963   -7838.4998 
  969400    307.71594   -11345.722    59.620779   -11405.343   -1994.8392 
  969600    352.27665   -11342.107    68.254535   -11410.362    6427.7149 
  969800    301.04996   -11360.513    58.329229   -11418.842   -7759.1264 
  970000    263.44285   -11366.776    51.042752   -11417.818   -8937.8549 
  970200    352.04106   -11346.347    68.208889   -11414.556    7362.5216 
  970400     279.4125   -11360.035    54.136913   -11414.172    534.79832 
  970600    297.94236   -11355.958    57.727122   -11413.685   -11389.744 
  970800    312.84886   -11341.308    60.615296   -11401.923   -9760.4052 
  971000    345.41349   -11345.843     66.92478   -11412.768    5224.9973 
  971200    320.87643   -11361.345    62.170659   -11423.516    -4587.194 
  971400    285.13845   -11368.207    55.246332   -11423.454    4835.1171 
  971600    352.34436   -11347.836    68.267654   -11416.104    14424.486 
  971800    291.54078   -11360.698      56.4868   -11417.185    5356.7371 
  972000    332.57281   -11347.375    64.436864   -11411.812   -8291.8697 
  972200    333.90584   -11350.676    64.695142   -11415.372   -18181.023 
  972400    286.97474   -11362.578    55.602118    -11418.18    25981.115 
  972600     310.4152   -11357.678    60.143769   -11417.822   -3677.5253 
  972800      357.672   -11343.499    69.299898   -11412.799    8513.5035 
  973000    270.77255    -11366.35    52.462899   -11418.812    1474.2131 
  973200    285.63272   -11359.409    55.342097   -11414.751    9274.4251 
  973400    314.68452   -11350.214     60.97096   -11411.185    4293.3966 
  973600    268.49037    -11348.95    52.020722   -11400.971    11119.178 
  973800    310.97689     -11358.9    60.252597   -11419.153    2605.6802 
  974000    296.47099   -11353.759     57.44204   -11411.201   -1131.9547 
  974200    342.79412    -11343.23    66.417271   -11409.647   -4441.8653 
  974400    318.54644   -11363.021    61.719217    -11424.74    6358.6327 
  974600    325.74543   -11349.445    63.114042   -11412.559   -16971.812 
  974800    268.71719   -11367.574    52.064669   -11419.638   -1077.8152 
  975000    238.38482   -11364.746    46.187691   -11410.933   -923.71208 
  975200       290.73   -11353.472    56.329708   -11409.802    640.44124 
  975400    276.48612   -11355.069    53.569918   -11408.639   -2234.3378 
  975600    312.36803   -11366.464    60.522134   -11426.986   -7409.9524 
  975800    338.02094   -11344.315    65.492454   -11409.807   -16333.735 
  976000    282.20521   -11354.669    54.678009   -11409.347   -3233.1105 
  976200    305.49678   -11369.929    59.190812    -11429.12   -13919.101 
  976400    236.43611   -11387.114    45.810123   -11432.925    11192.171 
  976600    283.41637   -11365.881    54.912674   -11420.794   -23626.151 
  976800    280.77603   -11349.734    54.401101   -11404.135    641.67083 
  977000    305.29767   -11360.574    59.152233   -11419.726   -28050.353 
  977200     275.5091   -11362.408    53.380618   -11415.789   -15098.273 
  977400    268.54454   -11351.619    52.031217    -11403.65    8780.0323 
  977600    280.97012   -11348.339    54.438707   -11402.778    -11406.89 
  977800    258.11103   -11363.702    50.009696   -11413.711    18631.367 
  978000    303.83901   -11354.916    58.869615   -11413.786    20559.875 
  978200    361.16676   -11347.291    69.977018   -11417.268    13558.638 
  978400    296.14604   -11353.683    57.379081   -11411.062   -1222.2942 
  978600    278.97255    -11357.65    54.051673   -11411.701    14079.522 
  978800    299.92263   -11351.203    58.110805   -11409.314   -14513.914 
  979000    306.54599   -11340.848    59.394098   -11400.243   -639.49135 
  979200    303.67373   -11354.813    58.837592   -11413.651   -16514.361 
  979400    247.60434   -11369.618    47.973998   -11417.592    16.991502 
  979600    297.04017   -11360.516     57.55232   -11418.069   -28077.049 
  979800    260.27372   -11352.669    50.428723   -11403.097    24244.107 
  980000    275.43204   -11347.852    53.365689   -11401.218     11348.79 
  980200    249.23192    -11364.94    48.289345    -11413.23    6615.4433 
  980400    321.45991   -11348.452    62.283711   -11410.735    2312.7267 
  980600    258.94191    -11361.12    50.170682   -11411.291    10692.143 
  980800    257.30921   -11362.486    49.854341    -11412.34    5367.0729 
  981000    272.74143   -11347.083    52.844377   -11399.927   -2754.0107 
  981200    306.43162   -11348.954     59.37194   -11408.326    -8591.383 
  981400    287.32183   -11366.763    55.669367   -11422.432    5371.5456 
  981600    361.06599   -11348.613    69.957494    -11418.57    12379.331 
  981800     320.3621   -11353.295    62.071008   -11415.366    1252.3392 
  982000     276.6348   -11362.969    53.598727   -11416.568   -1774.4517 
  982200    332.82885   -11347.489    64.486472   -11411.975   -3902.8074 
  982400    299.27881   -11345.005    57.986063   -11402.992   -12550.521 
  982600    236.15453   -11358.604    45.755567    -11404.36   -6886.4828 
  982800    307.58551   -11345.877    59.595509   -11405.472    439.17137 
  983000    312.77973   -11359.196    60.601903   -11419.798    8630.3064 
  983200     280.9703   -11368.407    54.438742   -11422.846   -16629.625 
  983400    305.12963   -11346.877    59.119675   -11405.997    12238.083 
  983600     293.3391   -11357.487    56.835228   -11414.322    2097.5806 
  983800     292.5495   -11359.975    56.682243   -11416.658   -7177.7835 
  984000    315.89154   -11346.239    61.204823   -11407.444   -13750.611 
  984200    345.67044   -11352.878    66.974565   -11419.853   -18391.767 
  984400    253.35589   -11369.879    49.088376   -11418.968   -7222.1771 
  984600    307.80259   -11361.504    59.637568   -11421.141   -9047.2604 
  984800    287.93505   -11355.173    55.788179   -11410.961    12958.804 
  985000    294.76063   -11361.083    57.110655   -11418.194    16033.952 
  985200    266.78035   -11371.361      51.6894    -11423.05   -10027.879 
  985400    253.07183   -11352.112    49.033338   -11401.145    4661.5974 
  985600    264.35442   -11362.941     51.21937    -11414.16    -6519.807 
  985800    244.38961   -11368.695    47.351136   -11416.046    11140.824 
  986000    321.79848   -11347.754    62.349309   -11410.103   -19648.698 
  986200    275.68459   -11363.018     53.41462   -11416.433     8481.012 
  986400    308.55211   -11353.924     59.78279   -11413.707   -11524.695 
  986600    319.33604   -11346.631    61.872204   -11408.503    4666.6681 
  986800    294.86728   -11358.232    57.131319   -11415.363   -1373.9702 
  987000    329.97691   -11352.674    63.933902   -11416.608    16463.718 
  987200    312.22217   -11348.163    60.493874   -11408.657    8665.1533 
  987400     287.2891    -11359.93    55.663024   -11415.593    5299.2571 
  987600    324.66813    -11356.96    62.905311   -11419.865   -759.15502 
  987800     272.5442   -11358.762    52.806163   -11411.568    3432.9114 
  988000     260.9156   -11367.071    50.553089   -11417.624   -854.42592 
  988200    311.80639   -11349.617    60.413316   -11410.031    9898.8317 
  988400    257.65087   -11363.524     49.92054   -11413.445    -7629.555 
  988600    268.59013   -11354.909    52.040049    -11406.95   -24863.079 
  988800    310.02697   -11350.606    60.068549   -11410.674    10251.798 
  989000     258.9082    -11362.72     50.16415   -11412.884   -4146.0485 
  989200    364.26735   -11341.933    70.577766   -11412.511    13801.005 
  989400    326.94313     -11353.8    63.346098   -11417.146    -802.8585 
  989600    341.16764   -11358.394    66.102134   -11424.496    -8383.412 
  989800    239.11729   -11371.917     46.32961   -11418.247   -5178.5242 
  990000    283.76623   -11359.915     54.98046   -11414.896    1288.0041 
  990200    276.56148   -11350.721    53.584521   -11404.306   -23226.379 
  990400    291.98036   -11355.519    56.571969   -11412.091    3824.4537 
  990600      248.503   -11366.926    48.148115   -11415.074    9886.1018 
  990800    291.65808   -11349.157    56.509527   -11405.666    10937.038 
  991000    309.45376   -11356.959    59.957487   -11416.916    13201.091 
  991200    314.88812   -11355.958    61.010409   -11416.969    -10226.15 
  991400    299.44896   -11362.032    58.019031   -11420.051   -25644.704 
  991600    262.29243    -11377.11    50.819853    -11427.93   -8751.3145 
  991800    331.23105   -11354.339    64.176895   -11418.515    3793.0363 
  992000     310.1988    -11353.29     60.10184   -11413.392    9338.7139 
  992200    285.80556   -11346.987    55.375586   -11402.363   -5734.0244 
  992400    250.10638    -11365.35    48.458775   -11413.809   -17595.694 
  992600    305.28654   -11352.636    59.150077   -11411.786    -11128.03 
  992800    295.34535   -11355.525    57.223946   -11412.749    11796.364 
  993000    248.13781   -11374.362     48.07736    -11422.44     7712.294 
  993200    268.81107   -11356.767    52.082858    -11408.85    13468.261 
  993400    268.42871   -11360.354    52.008776   -11412.363    12517.078 
  993600    264.19988   -11370.696    51.189427   -11421.885   -3075.2295 
  993800    294.78961    -11357.75    57.116269   -11414.866   -15702.835 
  994000     318.3803   -11353.019    61.687028   -11414.706    838.42478 
  994200     283.9661   -11368.541    55.019186    -11423.56    5023.7772 
  994400     298.8183   -11355.663    57.896838    -11413.56   -2149.6284 
  994600    329.29225   -11350.377    63.801247   -11414.178    9414.2686 
  994800    307.96554   -11359.502    59.669141   -11419.171   -1008.0312 
  995000    375.82715   -11333.541    72.817508   -11406.358    -9673.201 
  995200    317.34722   -11352.176    61.486865   -11413.663    11481.966 
  995400    266.75054   -11358.875    51.683624   -11410.559   -6465.6084 
  995600    322.16249    -11338.87    62.419836    -11401.29    4546.4955 
  995800     255.3367    -11351.53    49.472164   -11401.002    21678.379 
  996000    263.47704   -11359.201    51.049375   -11410.251    2116.1393 
  996200    240.89361   -11371.662    46.673776   -11418.336   -17490.657 
  996400    282.57671    -11351.59    54.749988    -11406.34    -629.6056 
  996600    260.31774   -11351.649    50.437254   -11402.086    3092.4432 
  996800    342.00344   -11349.904    66.264074   -11416.169   -4479.3506 
  997000    337.43084   -11347.848     65.37812   -11413.226    -3880.959 
  997200    261.77557   -11360.349    50.719711   -11411.069    18003.902 
  997400    320.58021   -11348.223    62.113267   -11410.336    4358.9593 
  997600     291.0634   -11363.799    56.394306   -11420.194    2372.7308 
  997800     263.1385   -11370.588    50.983782   -11421.572   -16837.701 
  998000    295.51521   -11350.329    57.256856   -11407.586    -35414.35 
  998200    340.63109   -11349.928    65.998178   -11415.926   -9398.4986 
  998400    235.89001   -11370.714    45.704314   -11416.418    16909.196 
  998600    284.71422   -11352.293    55.164135   -11407.457    3079.3673 
  998800    319.44624   -11341.658    61.893556   -11403.552   -6753.3593 
  999000    278.86135   -11364.971    54.030126   -11419.001   -8246.2044 
  999200    302.51266    -11353.07     58.61263   -11411.683   -13893.938 
  999400    268.47718   -11358.241    52.018165   -11410.259   -3066.3133 
  999600    332.70255   -11366.421    64.462002   -11430.883   -14640.226 
  999800    316.16183   -11346.452    61.257194   -11407.709    245.13988 
 1000000    289.06115   -11362.532    56.006364   -11418.539   -7386.6854 
Loop time of 2860.35 on 8 procs for 1000000 steps with 66 atoms

Performance: 7.552 ns/day, 3.178 hours/ns, 349.608 timesteps/s
99.3% CPU use with 8 MPI tasks x no OpenMP threads

MPI task timing breakdown:
Section |  min time  |  avg time  |  max time  |%varavg| %total
---------------------------------------------------------------
Pair    | 2262.9     | 2389.9     | 2506.6     | 200.3 | 83.55
Neigh   | 4.3982     | 4.4782     | 4.5631     |   2.6 |  0.16
Comm    | 51.529     | 167.81     | 294.72     | 756.1 |  5.87
Output  | 0.089303   | 0.10079    | 0.1664     |   7.8 |  0.00
Modify  | 295.17     | 295.61     | 295.93     |   1.5 | 10.33
Other   |            | 2.472      |            |       |  0.09

Nlocal:    8.25 ave 15 max 1 min
Histogram: 1 1 2 0 0 0 0 1 1 2
Nghost:    775.75 ave 793 max 758 min
Histogram: 1 1 1 0 2 0 0 1 0 2
Neighs:    1643.88 ave 2922 max 205 min
Histogram: 1 1 2 0 0 0 0 0 2 2

Total # of neighbors = 13151
Ave neighs/atom = 199.258
Neighbor list builds = 4181
Dangerous builds = 0

Please see the log.cite file for references relevant to this simulation

Total wall time: 0:47:54
