ITEM: TIMESTEP
0
ITEM: NUMBER OF ATOMS
65
ITEM: BOX BOUNDS pp pp pp
0.0000000000000000e+00 1.4190000000000000e+01
0.0000000000000000e+00 1.4190000000000000e+01
0.0000000000000000e+00 1.4190000000000000e+01
ITEM: ATOMS id type x y z 
57 1 2.098 0.759 2.098 
58 1 2.801 0.056 2.801 
59 1 0.759 0.759 0.759 
60 1 0.056 0.056 0.056 
61 1 0.759 2.098 2.098 
62 1 0.056 2.801 2.801 
63 1 2.098 2.098 0.759 
64 1 2.801 2.801 0.056 
41 1 4.307 4.307 12.741 
42 1 3.604 3.604 13.443 
43 1 4.307 5.646 11.401 
44 1 3.604 6.348 10.699 
45 1 5.646 5.646 12.741 
46 1 6.348 6.348 13.443 
47 1 5.646 4.307 11.401 
48 1 6.348 3.604 10.699 
25 1 4.307 12.741 4.307 
26 1 3.604 13.443 3.604 
27 1 5.646 11.401 4.307 
28 1 6.348 10.699 3.604 
29 1 5.646 12.741 5.646 
30 1 6.348 13.443 6.348 
31 1 4.307 11.401 5.646 
32 1 3.604 10.699 6.348 
1 1 0.759 9.193 9.193 
2 1 0.056 9.896 9.896 
3 1 2.098 7.854 9.193 
4 1 2.801 7.151 9.896 
5 1 0.759 7.854 7.854 
6 1 0.056 7.151 7.151 
7 1 2.098 9.193 7.854 
8 1 2.801 9.896 7.151 
65 2 1.221 10.194 9.073 
33 1 12.741 4.307 4.307 
34 1 13.443 3.604 3.604 
35 1 11.401 4.307 5.646 
36 1 10.699 3.604 6.348 
37 1 12.741 5.646 5.646 
38 1 13.443 6.348 6.348 
39 1 11.401 5.646 4.307 
40 1 10.699 6.348 3.604 
9 1 9.193 0.759 9.193 
10 1 9.896 0.056 9.896 
11 1 9.193 2.098 7.854 
12 1 9.896 2.801 7.151 
13 1 7.854 0.759 7.854 
14 1 7.151 0.056 7.151 
15 1 7.854 2.098 9.193 
16 1 7.151 2.801 9.896 
17 1 9.193 9.193 0.759 
18 1 9.896 9.896 0.056 
19 1 7.854 9.193 2.098 
20 1 7.151 9.896 2.801 
21 1 7.854 7.854 0.759 
22 1 7.151 7.151 0.056 
23 1 9.193 7.854 2.098 
24 1 9.896 7.151 2.801 
49 1 12.741 12.741 12.741 
50 1 13.443 13.443 13.443 
51 1 12.74 11.401 11.401 
52 1 13.443 10.699 10.699 
53 1 11.401 11.401 12.741 
54 1 10.699 10.699 13.443 
55 1 11.401 12.74 11.401 
56 1 10.699 13.443 10.699 
ITEM: TIMESTEP
10
ITEM: NUMBER OF ATOMS
65
ITEM: BOX BOUNDS pp pp pp
0.0000000000000000e+00 1.4190000000000000e+01
0.0000000000000000e+00 1.4190000000000000e+01
0.0000000000000000e+00 1.4190000000000000e+01
ITEM: ATOMS id type x y z 
57 1 2.07764 0.779705 2.07765 
58 1 2.79019 0.0705642 2.7903 
59 1 0.777047 0.783235 0.780347 
60 1 0.0689941 0.0558274 0.0663775 
61 1 0.779576 2.07772 2.07774 
62 1 0.0706226 2.79022 2.79022 
63 1 2.07776 2.07772 0.779597 
64 1 2.79027 2.79019 0.0706125 
41 1 4.33248 4.33274 12.7159 
42 1 3.60898 3.60916 13.4358 
43 1 4.33796 5.61154 11.4281 
44 1 3.61162 6.34599 10.7085 
45 1 5.62487 5.62517 12.7137 
46 1 6.33774 6.33782 13.4357 
47 1 5.61799 4.33165 11.4211 
48 1 6.3452 3.61177 10.7091 
25 1 4.33255 12.7169 4.33193 
26 1 3.60877 13.4362 3.60845 
27 1 5.61893 11.4213 4.33065 
28 1 6.34564 10.7087 3.61139 
29 1 5.62538 12.7142 5.62467 
30 1 6.33877 13.4366 6.33857 
31 1 4.33913 11.4295 5.61031 
32 1 3.60998 10.7075 6.34715 
1 1 0.795775 9.11682 9.15496 
2 1 -0.0315387 9.96529 9.99696 
3 1 2.08838 7.85876 9.16287 
4 1 2.79778 7.15646 9.89735 
5 1 0.780902 7.86774 7.8595 
6 1 0.070031 7.15074 7.14846 
7 1 2.10696 9.15556 7.83982 
8 1 2.79302 9.88997 7.16165 
65 2 1.26181 10.2248 9.04135 
33 1 12.7162 4.33311 4.33312 
34 1 13.436 3.60889 3.6089 
35 1 11.4219 4.33197 5.61824 
36 1 10.7089 3.61155 6.34547 
37 1 12.709 5.62008 5.62054 
38 1 13.4338 6.33578 6.33614 
39 1 11.4218 5.61834 4.33188 
40 1 10.709 6.34535 3.61168 
9 1 9.17041 0.775356 9.17042 
10 1 9.89029 0.0709697 9.89057 
11 1 9.16797 2.07843 7.87211 
12 1 9.88874 2.7891 7.16589 
13 1 7.87962 0.775353 7.8796 
14 1 7.15471 0.0741961 7.1548 
15 1 7.87226 2.0783 9.1678 
16 1 7.1657 2.7893 9.88896 
17 1 9.1688 9.16895 0.77613 
18 1 9.88999 9.89046 0.065731 
19 1 7.87198 9.16785 2.0785 
20 1 7.16585 9.88875 2.78912 
21 1 7.87962 7.87968 0.775782 
22 1 7.15439 7.15435 0.0738359 
23 1 9.16775 7.87205 2.07849 
24 1 9.88891 7.16572 2.78926 
49 1 12.7135 12.7102 12.7158 
50 1 13.4282 13.4372 13.4237 
51 1 12.6988 11.4521 11.4494 
52 1 13.4208 10.6888 10.699 
53 1 11.4255 11.4247 12.7067 
54 1 10.717 10.7159 13.4381 
55 1 11.4279 12.7107 11.4274 
56 1 10.7116 13.4295 10.711 
ITEM: TIMESTEP
20
ITEM: NUMBER OF ATOMS
65
ITEM: BOX BOUNDS pp pp pp
0.0000000000000000e+00 1.4190000000000000e+01
0.0000000000000000e+00 1.4190000000000000e+01
0.0000000000000000e+00 1.4190000000000000e+01
ITEM: ATOMS id type x y z 
57 1 2.07598 0.782519 2.07047 
58 1 2.78624 0.06945 2.79455 
59 1 0.785401 0.774061 0.783618 
60 1 0.0551071 0.0865838 0.0596192 
61 1 0.781781 2.07504 2.07211 
62 1 0.0644283 2.78628 2.79053 
63 1 2.07622 2.07309 0.784279 
64 1 2.78729 2.79021 0.0650457 
41 1 4.32993 4.32768 12.7232 
42 1 3.60855 3.61297 13.4311 
43 1 4.33342 5.6245 11.4338 
44 1 3.62038 6.32765 10.7093 
45 1 5.62068 5.62214 12.724 
46 1 6.34214 6.34225 13.4309 
47 1 5.63079 4.3269 11.4259 
48 1 6.33414 3.61394 10.7013 
25 1 4.32993 12.7248 4.32723 
26 1 3.60999 13.429 3.60902 
27 1 5.63197 11.4268 4.32593 
28 1 6.33463 10.7011 3.61313 
29 1 5.62179 12.7238 5.62143 
30 1 6.34257 13.4339 6.34209 
31 1 4.33349 11.4377 5.62149 
32 1 3.62182 10.7118 6.32803 
1 1 0.829977 9.09515 9.1317 
2 1 -0.0973549 9.93966 10.0397 
3 1 2.07689 7.87046 9.17383 
4 1 2.80151 7.14576 9.88416 
5 1 0.795228 7.86897 7.8576 
6 1 0.0585271 7.15878 7.15117 
7 1 2.11554 9.12168 7.8243 
8 1 2.8136 9.8809 7.13833 
65 2 1.32502 10.2477 8.99462 
33 1 12.7196 4.32765 4.32728 
34 1 13.4389 3.61538 3.614 
35 1 11.4277 4.32706 5.63216 
36 1 10.7016 3.61402 6.33444 
37 1 12.7157 5.61404 5.61738 
38 1 13.4251 6.33484 6.33345 
39 1 11.4276 5.63212 4.32696 
40 1 10.7017 6.33433 3.61413 
9 1 9.17158 0.788776 9.17403 
10 1 9.88074 0.0597494 9.88169 
11 1 9.17713 2.07203 7.88676 
12 1 9.87738 2.79053 7.15764 
13 1 7.87613 0.785896 7.87636 
14 1 7.16668 0.062128 7.16664 
15 1 7.88666 2.0721 9.17723 
16 1 7.15779 2.79049 9.87733 
17 1 9.17105 9.17243 0.785611 
18 1 9.88333 9.88397 0.063872 
19 1 7.88668 9.17668 2.07201 
20 1 7.15785 9.87709 2.79003 
21 1 7.87535 7.87519 0.785313 
22 1 7.16624 7.16645 0.063081 
23 1 9.17702 7.88634 2.07199 
24 1 9.87749 7.15746 2.79071 
49 1 12.7317 12.7101 12.6973 
50 1 13.451 13.416 13.4459 
51 1 12.5909 11.5452 11.5302 
52 1 13.4185 10.6925 10.7381 
53 1 11.4415 11.4116 12.7086 
54 1 10.704 10.6971 13.4295 
55 1 11.4402 12.7068 11.4128 
56 1 10.7057 13.4317 10.6949 
ITEM: TIMESTEP
30
ITEM: NUMBER OF ATOMS
65
ITEM: BOX BOUNDS pp pp pp
0.0000000000000000e+00 1.4190000000000000e+01
0.0000000000000000e+00 1.4190000000000000e+01
0.0000000000000000e+00 1.4190000000000000e+01
ITEM: ATOMS id type x y z 
57 1 2.07132 0.779288 2.07074 
58 1 2.78802 0.0668824 2.78868 
59 1 0.782318 0.787331 0.787356 
60 1 0.0707869 0.068026 0.0696412 
61 1 0.77913 2.07167 2.07125 
62 1 0.0656468 2.78892 2.78835 
63 1 2.0722 2.0718 0.780213 
64 1 2.78804 2.78887 0.065773 
41 1 4.32735 4.32899 12.7201 
42 1 3.61224 3.61304 13.4333 
43 1 4.33717 5.6179 11.4287 
44 1 3.61956 6.33185 10.7136 
45 1 5.62299 5.62449 12.7203 
46 1 6.33892 6.33983 13.4337 
47 1 5.62318 4.3293 11.4195 
48 1 6.33954 3.61361 10.7071 
25 1 4.32761 12.7207 4.32798 
26 1 3.61195 13.4345 3.61171 
27 1 5.62435 11.42 4.32802 
28 1 6.34036 10.7073 3.6127 
29 1 5.62384 12.7215 5.62419 
30 1 6.3403 13.4346 6.34071 
31 1 4.33653 11.4467 5.61738 
32 1 3.62608 10.7146 6.32711 
1 1 0.844146 9.13757 9.14291 
2 1 -0.116846 9.91533 10.0553 
3 1 2.06907 7.87318 9.17834 
4 1 2.79183 7.15486 9.89099 
5 1 0.783083 7.88307 7.86609 
6 1 0.0645528 7.1617 7.15196 
7 1 2.12196 9.09968 7.80597 
8 1 2.81975 9.86466 7.12731 
65 2 1.32988 10.2446 8.99254 
33 1 12.7216 4.32863 4.32953 
34 1 13.4352 3.61424 3.6134 
35 1 11.4216 4.32944 5.62529 
36 1 10.7083 3.61351 6.34092 
37 1 12.7119 5.61484 5.61949 
38 1 13.4284 6.3334 6.33096 
39 1 11.4215 5.62511 4.32946 
40 1 10.7086 6.34059 3.61356 
9 1 9.16267 0.788888 9.17157 
10 1 9.88322 0.0673419 9.87801 
11 1 9.17324 2.07137 7.88131 
12 1 9.88607 2.78853 7.16439 
13 1 7.88097 0.779448 7.88109 
14 1 7.16452 0.0659073 7.1641 
15 1 7.88168 2.0715 9.17315 
16 1 7.16437 2.78842 9.8869 
17 1 9.16318 9.17247 0.788094 
18 1 9.8841 9.87877 0.0672317 
19 1 7.88162 9.17263 2.07124 
20 1 7.16427 9.88608 2.78844 
21 1 7.88027 7.87984 0.77936 
22 1 7.16375 7.16393 0.0650487 
23 1 9.17302 7.88071 2.07164 
24 1 9.88617 7.16416 2.78884 
49 1 12.7469 12.7021 12.7007 
50 1 13.4519 13.4355 13.4348 
51 1 12.5784 11.5595 11.551 
52 1 13.4081 10.6873 10.7313 
53 1 11.4387 11.3997 12.7034 
54 1 10.7089 10.6855 13.4333 
55 1 11.4395 12.7009 11.3978 
56 1 10.7084 13.4345 10.686 
ITEM: TIMESTEP
40
ITEM: NUMBER OF ATOMS
65
ITEM: BOX BOUNDS pp pp pp
0.0000000000000000e+00 1.4190000000000000e+01
0.0000000000000000e+00 1.4190000000000000e+01
0.0000000000000000e+00 1.4190000000000000e+01
ITEM: ATOMS id type x y z 
57 1 2.07125 0.779224 2.07112 
58 1 2.7876 0.0653306 2.78737 
59 1 0.780768 0.788753 0.789509 
60 1 0.0740929 0.0683873 0.0688483 
61 1 0.778289 2.07163 2.07118 
62 1 0.0652581 2.78907 2.78808 
63 1 2.07208 2.07192 0.779414 
64 1 2.78791 2.78812 0.0649209 
41 1 4.3274 4.32914 12.7201 
42 1 3.61223 3.61324 13.4336 
43 1 4.33779 5.61744 11.4267 
44 1 3.61856 6.33262 10.7142 
45 1 5.62285 5.62433 12.7203 
46 1 6.33913 6.34012 13.4333 
47 1 5.62298 4.32959 11.4194 
48 1 6.33951 3.61351 10.7072 
25 1 4.32768 12.7212 4.3282 
26 1 3.61147 13.4346 3.61162 
27 1 5.62438 11.4197 4.32819 
28 1 6.34016 10.7072 3.61258 
29 1 5.62377 12.7215 5.6245 
30 1 6.34071 13.4351 6.34051 
31 1 4.33634 11.4492 5.61847 
32 1 3.6272 10.7125 6.32525 
1 1 0.845525 9.14428 9.1466 
2 1 -0.116941 9.91504 10.0554 
3 1 2.06749 7.87459 9.1795 
4 1 2.78918 7.15696 9.89337 
5 1 0.781478 7.88577 7.86713 
6 1 0.0645539 7.16369 7.15298 
7 1 2.12146 9.09892 7.80541 
8 1 2.82045 9.86079 7.12501 
65 2 1.3285 10.2411 8.99238 
33 1 12.7223 4.32951 4.32965 
34 1 13.4343 3.61311 3.61356 
35 1 11.4213 4.32968 5.62499 
36 1 10.7084 3.61344 6.34106 
37 1 12.7129 5.61463 5.61996 
38 1 13.4287 6.33441 6.33139 
39 1 11.4214 5.62494 4.32964 
40 1 10.7085 6.34055 3.61358 
9 1 9.16128 0.790001 9.17188 
10 1 9.8832 0.0686332 9.87672 
11 1 9.17356 2.07118 7.88099 
12 1 9.88737 2.78825 7.1652 
13 1 7.8814 0.778667 7.88119 
14 1 7.16462 0.0652845 7.16489 
15 1 7.88197 2.07125 9.17431 
16 1 7.16434 2.78832 9.88725 
17 1 9.16207 9.17237 0.789213 
18 1 9.88369 9.87711 0.0677613 
19 1 7.88169 9.17326 2.07128 
20 1 7.16471 9.88723 2.78795 
21 1 7.88085 7.88017 0.777934 
22 1 7.16338 7.16378 0.0654524 
23 1 9.17374 7.88061 2.07148 
24 1 9.88708 7.16467 2.78858 
49 1 12.7495 12.7026 12.7012 
50 1 13.4563 13.4349 13.4347 
51 1 12.5766 11.5614 11.5535 
52 1 13.4067 10.6837 10.7311 
53 1 11.4389 11.3956 12.7031 
54 1 10.7085 10.6828 13.4333 
55 1 11.4397 12.7016 11.3947 
56 1 10.708 13.4328 10.6813 
ITEM: TIMESTEP
50
ITEM: NUMBER OF ATOMS
65
ITEM: BOX BOUNDS pp pp pp
0.0000000000000000e+00 1.4190000000000000e+01
0.0000000000000000e+00 1.4190000000000000e+01
0.0000000000000000e+00 1.4190000000000000e+01
ITEM: ATOMS id type x y z 
57 1 2.07111 0.77865 2.0708 
58 1 2.78755 0.0653448 2.78753 
59 1 0.780471 0.789496 0.790452 
60 1 0.0749405 0.068534 0.0688042 
61 1 0.777858 2.07164 2.07105 
62 1 0.0647433 2.78875 2.78821 
63 1 2.07202 2.07166 0.778811 
64 1 2.78793 2.78836 0.0649555 
41 1 4.32749 4.32919 12.7201 
42 1 3.61216 3.61315 13.4333 
43 1 4.33783 5.6174 11.4259 
44 1 3.61819 6.33288 10.7143 
45 1 5.6227 5.62433 12.7204 
46 1 6.33897 6.33993 13.4334 
47 1 5.62284 4.32978 11.4193 
48 1 6.33943 3.61337 10.7073 
25 1 4.32761 12.7212 4.32807 
26 1 3.61133 13.4346 3.61158 
27 1 5.62435 11.4196 4.32826 
28 1 6.34022 10.7075 3.61242 
29 1 5.6239 12.7217 5.62436 
30 1 6.34057 13.4349 6.34104 
31 1 4.33617 11.4505 5.61912 
32 1 3.62777 10.7114 6.32428 
1 1 0.846098 9.14732 9.14844 
2 1 -0.117033 9.91465 10.0554 
3 1 2.06635 7.8755 9.18056 
4 1 2.78831 7.15781 9.89406 
5 1 0.781101 7.88693 7.86753 
6 1 0.0639189 7.16518 7.15346 
7 1 2.12125 9.09849 7.80511 
8 1 2.82085 9.85891 7.12374 
65 2 1.32812 10.2396 8.99215 
33 1 12.7223 4.32952 4.32978 
34 1 13.4345 3.61341 3.61349 
35 1 11.4213 4.32989 5.62523 
36 1 10.7084 3.61327 6.3408 
37 1 12.7137 5.6147 5.61998 
38 1 13.4287 6.3345 6.33198 
39 1 11.4214 5.625 4.32982 
40 1 10.7086 6.34039 3.61349 
9 1 9.16069 0.790763 9.17189 
10 1 9.88288 0.0683852 9.8758 
11 1 9.17416 2.07114 7.88129 
12 1 9.88745 2.78814 7.16503 
13 1 7.88162 0.778277 7.88131 
14 1 7.16479 0.0651444 7.16483 
15 1 7.882 2.07107 9.17477 
16 1 7.1645 2.78844 9.88761 
17 1 9.16144 9.17223 0.789791 
18 1 9.88354 9.8765 0.0680077 
19 1 7.88185 9.17386 2.0711 
20 1 7.16463 9.8873 2.78809 
21 1 7.88065 7.88012 0.777907 
22 1 7.16396 7.1641 0.0643866 
23 1 9.17417 7.88076 2.07148 
24 1 9.88744 7.16463 2.78845 
49 1 12.751 12.7029 12.7016 
50 1 13.4585 13.4344 13.4341 
51 1 12.5756 11.5624 11.5547 
52 1 13.4056 10.6823 10.7314 
53 1 11.4389 11.3936 12.7031 
54 1 10.7086 10.6813 13.4331 
55 1 11.4397 12.7015 11.3924 
56 1 10.7083 13.433 10.68 
ITEM: TIMESTEP
60
ITEM: NUMBER OF ATOMS
65
ITEM: BOX BOUNDS pp pp pp
0.0000000000000000e+00 1.4190000000000000e+01
0.0000000000000000e+00 1.4190000000000000e+01
0.0000000000000000e+00 1.4190000000000000e+01
ITEM: ATOMS id type x y z 
57 1 2.06883 0.771456 2.06888 
58 1 2.78643 0.0606189 2.78539 
59 1 0.780622 0.800808 0.803047 
60 1 0.0895534 0.0708619 0.0706796 
61 1 0.767018 2.07046 2.07041 
62 1 0.0581755 2.78874 2.78936 
63 1 2.07152 2.07105 0.770205 
64 1 2.78855 2.78688 0.0590589 
41 1 4.32871 4.33142 12.7212 
42 1 3.61249 3.61302 13.431 
43 1 4.33622 5.62054 11.414 
44 1 3.61111 6.33668 10.7108 
45 1 5.62091 5.62315 12.7204 
46 1 6.33832 6.33953 13.4317 
47 1 5.61981 4.33259 11.4173 
48 1 6.33873 3.61423 10.7088 
25 1 4.32592 12.7229 4.3282 
26 1 3.61007 13.4338 3.60914 
27 1 5.62335 11.4193 4.3292 
28 1 6.34043 10.7102 3.61238 
29 1 5.62386 12.7233 5.62633 
30 1 6.34283 13.4343 6.34315 
31 1 4.33665 11.4596 5.62593 
32 1 3.63176 10.7011 6.31406 
1 1 0.85094 9.19072 9.18456 
2 1 -0.126435 9.91242 10.0621 
3 1 2.04326 7.89724 9.20685 
4 1 2.77178 7.17156 9.90465 
5 1 0.767443 7.91511 7.87651 
6 1 0.0595389 7.18537 7.16353 
7 1 2.12498 9.07857 7.78877 
8 1 2.8244 9.83191 7.1034 
65 2 1.32738 10.2249 8.98595 
33 1 12.7228 4.33248 4.33215 
34 1 13.4329 3.61453 3.61469 
35 1 11.421 4.33172 5.62385 
36 1 10.7106 3.61376 6.34082 
37 1 12.7267 5.61676 5.62625 
38 1 13.4322 6.34293 6.33822 
39 1 11.4205 5.6222 4.33174 
40 1 10.7115 6.34046 3.61458 
9 1 9.15003 0.801176 9.16905 
10 1 9.8795 0.0710195 9.86346 
11 1 9.18274 2.06907 7.88101 
12 1 9.89338 2.78778 7.16576 
13 1 7.88481 0.771174 7.88367 
14 1 7.16664 0.0606112 7.16702 
15 1 7.88308 2.06935 9.1857 
16 1 7.16412 2.78805 9.89412 
17 1 9.15182 9.16808 0.799646 
18 1 9.87944 9.86548 0.0714491 
19 1 7.88255 9.18401 2.06979 
20 1 7.16495 9.89399 2.78793 
21 1 7.88237 7.88084 0.767891 
22 1 7.16442 7.16416 0.0585592 
23 1 9.1836 7.88038 2.07027 
24 1 9.89391 7.16463 2.78801 
49 1 12.7939 12.7014 12.7003 
50 1 13.4897 13.4311 13.4303 
51 1 12.555 11.5769 11.5765 
52 1 13.3839 10.6613 10.7441 
53 1 11.4422 11.3478 12.699 
54 1 10.7097 10.6549 13.4318 
55 1 11.4437 12.6982 11.3438 
56 1 10.7092 13.4305 10.6524 
ITEM: TIMESTEP
70
ITEM: NUMBER OF ATOMS
65
ITEM: BOX BOUNDS pp pp pp
0.0000000000000000e+00 1.4190000000000000e+01
0.0000000000000000e+00 1.4190000000000000e+01
0.0000000000000000e+00 1.4190000000000000e+01
ITEM: ATOMS id type x y z 
57 1 2.06929 0.771321 2.06834 
58 1 2.78611 0.0604734 2.78584 
59 1 0.781649 0.800757 0.802494 
60 1 0.0884622 0.0710408 0.0715702 
61 1 0.767019 2.07051 2.07088 
62 1 0.0577203 2.78895 2.78906 
63 1 2.07193 2.07041 0.769718 
64 1 2.7882 2.78779 0.0591465 
41 1 4.32892 4.33096 12.7208 
42 1 3.61261 3.61351 13.4313 
43 1 4.33597 5.62006 11.4129 
44 1 3.61091 6.33777 10.7116 
45 1 5.62059 5.62293 12.7209 
46 1 6.33854 6.33966 13.431 
47 1 5.61982 4.33283 11.4173 
48 1 6.33832 3.61412 10.7089 
25 1 4.32647 12.7228 4.32746 
26 1 3.60947 13.4339 3.60993 
27 1 5.62357 11.4196 4.32923 
28 1 6.34019 10.7101 3.61239 
29 1 5.62413 12.7233 5.62624 
30 1 6.34246 13.4344 6.34346 
31 1 4.33627 11.4591 5.6257 
32 1 3.63185 10.701 6.31443 
1 1 0.850453 9.19007 9.18536 
2 1 -0.126979 9.91286 10.0628 
3 1 2.04262 7.89758 9.20722 
4 1 2.77146 7.17206 9.90512 
5 1 0.767106 7.91571 7.87707 
6 1 0.0595552 7.18615 7.16324 
7 1 2.12451 9.07818 7.78817 
8 1 2.82469 9.83175 7.10365 
65 2 1.32819 10.225 8.98512 
33 1 12.7232 4.33263 4.33254 
34 1 13.4323 3.61451 3.61457 
35 1 11.4212 4.33197 5.62414 
36 1 10.7107 3.61374 6.34057 
37 1 12.7272 5.61673 5.62677 
38 1 13.4323 6.34349 6.33844 
39 1 11.421 5.62285 4.33205 
40 1 10.7111 6.33938 3.61428 
9 1 9.1496 0.801337 9.16921 
10 1 9.87959 0.0709617 9.86327 
11 1 9.18312 2.06944 7.88138 
12 1 9.89333 2.78744 7.165 
13 1 7.88478 0.771066 7.88367 
14 1 7.16686 0.060447 7.16682 
15 1 7.88295 2.06939 9.18586 
16 1 7.16424 2.78825 9.89455 
17 1 9.15122 9.16859 0.800058 
18 1 9.88001 9.86455 0.0712817 
19 1 7.88273 9.18428 2.06988 
20 1 7.16471 9.89417 2.78786 
21 1 7.88217 7.88064 0.768016 
22 1 7.16451 7.1642 0.058191 
23 1 9.18413 7.8808 2.0704 
24 1 9.89386 7.16428 2.78808 
49 1 12.7959 12.7008 12.6994 
50 1 13.4899 13.4309 13.4302 
51 1 12.554 11.5772 11.5774 
52 1 13.3831 10.6616 10.7448 
53 1 11.4424 11.347 12.6989 
54 1 10.71 10.6537 13.4312 
55 1 11.4437 12.6977 11.343 
56 1 10.7101 13.4302 10.651 
ITEM: TIMESTEP
80
ITEM: NUMBER OF ATOMS
65
ITEM: BOX BOUNDS pp pp pp
0.0000000000000000e+00 1.4190000000000000e+01
0.0000000000000000e+00 1.4190000000000000e+01
0.0000000000000000e+00 1.4190000000000000e+01
ITEM: ATOMS id type x y z 
57 1 2.06933 0.771181 2.06833 
58 1 2.78611 0.0603744 2.78587 
59 1 0.781808 0.800938 0.802505 
60 1 0.088668 0.0709525 0.071621 
61 1 0.766716 2.07062 2.07101 
62 1 0.0574563 2.78898 2.78914 
63 1 2.07205 2.07045 0.769493 
64 1 2.7883 2.7879 0.0590056 
41 1 4.32903 4.33102 12.7207 
42 1 3.61269 3.6136 13.4312 
43 1 4.33575 5.61952 11.4117 
44 1 3.61058 6.33889 10.7124 
45 1 5.62052 5.62289 12.7208 
46 1 6.33842 6.33953 13.431 
47 1 5.61966 4.33299 11.4173 
48 1 6.33821 3.6142 10.7089 
25 1 4.3265 12.7228 4.32737 
26 1 3.60949 13.4339 3.60994 
27 1 5.62349 11.4197 4.32923 
28 1 6.34025 10.7104 3.61238 
29 1 5.62419 12.7233 5.62628 
30 1 6.3425 13.4343 6.34349 
31 1 4.3361 11.4588 5.62588 
32 1 3.63181 10.7005 6.3144 
1 1 0.849884 9.18943 9.18629 
2 1 -0.127535 9.9135 10.0636 
3 1 2.04191 7.89783 9.20756 
4 1 2.77111 7.17287 9.90585 
5 1 0.766758 7.91666 7.87735 
6 1 0.0594279 7.18674 7.1634 
7 1 2.12442 9.07779 7.78785 
8 1 2.82455 9.83152 7.10347 
65 2 1.3288 10.2251 8.98445 
33 1 12.7232 4.33277 4.3327 
34 1 13.4322 3.61463 3.61464 
35 1 11.4212 4.33204 5.62409 
36 1 10.7108 3.61384 6.34053 
37 1 12.7277 5.61693 5.62719 
38 1 13.4325 6.34392 6.33872 
39 1 11.421 5.62275 4.33214 
40 1 10.7112 6.33927 3.61434 
9 1 9.149 0.801642 9.16974 
10 1 9.87996 0.0707568 9.86244 
11 1 9.18338 2.0695 7.88127 
12 1 9.89347 2.78749 7.16487 
13 1 7.8848 0.770924 7.88366 
14 1 7.16686 0.0603607 7.1668 
15 1 7.88287 2.06944 9.18619 
16 1 7.16414 2.78833 9.89478 
17 1 9.15065 9.16922 0.800591 
18 1 9.88037 9.86342 0.0708907 
19 1 7.8826 9.18437 2.06992 
20 1 7.1648 9.89456 2.78785 
21 1 7.88216 7.88056 0.76781 
22 1 7.16451 7.16419 0.0579578 
23 1 9.18437 7.88073 2.07044 
24 1 9.89403 7.16419 2.78809 
49 1 12.7976 12.7002 12.6986 
50 1 13.4903 13.4305 13.4301 
51 1 12.5528 11.5776 11.5784 
52 1 13.3824 10.662 10.7456 
53 1 11.4427 11.3462 12.6986 
54 1 10.7106 10.6524 13.4306 
55 1 11.4438 12.6973 11.342 
56 1 10.711 13.4298 10.6496 
ITEM: TIMESTEP
90
ITEM: NUMBER OF ATOMS
65
ITEM: BOX BOUNDS pp pp pp
0.0000000000000000e+00 1.4190000000000000e+01
0.0000000000000000e+00 1.4190000000000000e+01
0.0000000000000000e+00 1.4190000000000000e+01
ITEM: ATOMS id type x y z 
57 1 2.0693 0.771203 2.06839 
58 1 2.78614 0.0603502 2.78582 
59 1 0.78176 0.800961 0.802552 
60 1 0.088742 0.0709321 0.071583 
61 1 0.766684 2.07064 2.071 
62 1 0.057448 2.78897 2.78918 
63 1 2.07205 2.07048 0.769483 
64 1 2.78832 2.78788 0.0589779 
41 1 4.32901 4.33104 12.7207 
42 1 3.61272 3.6136 13.4312 
43 1 4.33574 5.61949 11.4116 
44 1 3.61055 6.33896 10.7124 
45 1 5.6205 5.62288 12.7208 
46 1 6.33843 6.33954 13.4309 
47 1 5.61962 4.33297 11.4173 
48 1 6.33825 3.61425 10.7089 
25 1 4.32648 12.7229 4.32744 
26 1 3.6095 13.4339 3.60987 
27 1 5.62347 11.4196 4.32924 
28 1 6.34028 10.7104 3.61239 
29 1 5.6242 12.7233 5.62626 
30 1 6.34247 13.4343 6.34353 
31 1 4.33611 11.4588 5.62589 
32 1 3.63178 10.7005 6.3144 
1 1 0.849844 9.1894 9.18635 
2 1 -0.127567 9.91355 10.0637 
3 1 2.04187 7.89785 9.20759 
4 1 2.77108 7.17292 9.9059 
5 1 0.766743 7.91667 7.87741 
6 1 0.0594039 7.18684 7.16337 
7 1 2.12442 9.07776 7.78782 
8 1 2.82455 9.83149 7.10346 
65 2 1.32882 10.2251 8.98442 
33 1 12.7232 4.33279 4.33269 
34 1 13.4322 3.61463 3.61467 
35 1 11.4212 4.33205 5.62405 
36 1 10.7108 3.61383 6.34056 
37 1 12.7278 5.6169 5.62726 
38 1 13.4325 6.34399 6.33869 
39 1 11.421 5.62271 4.33213 
40 1 10.7112 6.3393 3.61437 
9 1 9.14896 0.801674 9.16979 
10 1 9.87999 0.0707311 9.86237 
11 1 9.18335 2.0695 7.88121 
12 1 9.89352 2.78751 7.16491 
13 1 7.88478 0.770932 7.88366 
14 1 7.1669 0.0603343 7.16678 
15 1 7.88287 2.06944 9.18621 
16 1 7.1641 2.78831 9.89479 
17 1 9.15061 9.16926 0.800631 
18 1 9.8804 9.86335 0.0708618 
19 1 7.8826 9.18436 2.06994 
20 1 7.16479 9.8946 2.78782 
21 1 7.88216 7.88057 0.767787 
22 1 7.1645 7.16417 0.0579702 
23 1 9.18436 7.88069 2.07043 
24 1 9.89407 7.16422 2.7881 
49 1 12.7977 12.7001 12.6986 
50 1 13.4904 13.4305 13.4301 
51 1 12.5527 11.5776 11.5785 
52 1 13.3824 10.662 10.7457 
53 1 11.4427 11.3461 12.6986 
54 1 10.7107 10.6523 13.4306 
55 1 11.4438 12.6973 11.3419 
56 1 10.711 13.4298 10.6495 
ITEM: TIMESTEP
100
ITEM: NUMBER OF ATOMS
65
ITEM: BOX BOUNDS pp pp pp
0.0000000000000000e+00 1.4190000000000000e+01
0.0000000000000000e+00 1.4190000000000000e+01
0.0000000000000000e+00 1.4190000000000000e+01
ITEM: ATOMS id type x y z 
57 1 2.0693 0.771201 2.06839 
58 1 2.78614 0.0603476 2.78582 
59 1 0.781752 0.800966 0.802561 
60 1 0.0887533 0.0709293 0.0715781 
61 1 0.766678 2.07064 2.071 
62 1 0.0574427 2.78897 2.78918 
63 1 2.07205 2.07048 0.769475 
64 1 2.78832 2.78789 0.058981 
41 1 4.32901 4.33104 12.7207 
42 1 3.61272 3.6136 13.4312 
43 1 4.33574 5.61948 11.4116 
44 1 3.61054 6.33898 10.7124 
45 1 5.6205 5.62288 12.7208 
46 1 6.33843 6.33954 13.4309 
47 1 5.61962 4.33298 11.4173 
48 1 6.33825 3.61425 10.7089 
25 1 4.32648 12.7229 4.32744 
26 1 3.6095 13.4339 3.60987 
27 1 5.62347 11.4197 4.32924 
28 1 6.34028 10.7104 3.61239 
29 1 5.6242 12.7233 5.62627 
30 1 6.34248 13.4343 6.34353 
31 1 4.33611 11.4588 5.62591 
32 1 3.63177 10.7005 6.31439 
1 1 0.849833 9.18939 9.18637 
2 1 -0.127576 9.91356 10.0637 
3 1 2.04186 7.89786 9.20759 
4 1 2.77107 7.17293 9.90591 
5 1 0.766741 7.91668 7.87743 
6 1 0.0593964 7.18687 7.16336 
7 1 2.12442 9.07775 7.78782 
8 1 2.82455 9.83148 7.10344 
65 2 1.32883 10.2251 8.98441 
33 1 12.7232 4.3328 4.33269 
34 1 13.4322 3.61463 3.61467 
35 1 11.4212 4.33205 5.62405 
36 1 10.7108 3.61383 6.34056 
37 1 12.7278 5.61689 5.62727 
38 1 13.4325 6.34401 6.33869 
39 1 11.421 5.62271 4.33213 
40 1 10.7112 6.3393 3.61437 
9 1 9.14895 0.801682 9.1698 
10 1 9.88 0.0707243 9.86235 
11 1 9.18335 2.06951 7.88121 
12 1 9.89352 2.78751 7.16491 
13 1 7.88479 0.770929 7.88366 
14 1 7.16689 0.0603325 7.16678 
15 1 7.88287 2.06944 9.18622 
16 1 7.16409 2.78831 9.89479 
17 1 9.1506 9.16927 0.800641 
18 1 9.88041 9.86333 0.0708544 
19 1 7.8826 9.18436 2.06994 
20 1 7.16479 9.8946 2.78781 
21 1 7.88216 7.88056 0.767784 
22 1 7.1645 7.16417 0.0579652 
23 1 9.18437 7.88069 2.07044 
24 1 9.89407 7.16422 2.78809 
49 1 12.7977 12.7001 12.6986 
50 1 13.4905 13.4305 13.4301 
51 1 12.5527 11.5776 11.5785 
52 1 13.3823 10.662 10.7457 
53 1 11.4427 11.3461 12.6986 
54 1 10.7107 10.6523 13.4306 
55 1 11.4438 12.6972 11.3419 
56 1 10.7111 13.4298 10.6495 
ITEM: TIMESTEP
106
ITEM: NUMBER OF ATOMS
65
ITEM: BOX BOUNDS pp pp pp
0.0000000000000000e+00 1.4190000000000000e+01
0.0000000000000000e+00 1.4190000000000000e+01
0.0000000000000000e+00 1.4190000000000000e+01
ITEM: ATOMS id type x y z 
57 1 2.0693 0.7712 2.06839 
58 1 2.78614 0.0603477 2.78582 
59 1 0.781751 0.800967 0.802562 
60 1 0.0887549 0.0709289 0.0715774 
61 1 0.766677 2.07064 2.071 
62 1 0.0574426 2.78897 2.78918 
63 1 2.07205 2.07048 0.769476 
64 1 2.78832 2.78789 0.0589791 
41 1 4.32901 4.33104 12.7207 
42 1 3.61272 3.6136 13.4312 
43 1 4.33574 5.61948 11.4116 
44 1 3.61054 6.33898 10.7124 
45 1 5.6205 5.62288 12.7208 
46 1 6.33843 6.33954 13.4309 
47 1 5.61962 4.33298 11.4173 
48 1 6.33825 3.61426 10.7089 
25 1 4.32648 12.7229 4.32744 
26 1 3.60951 13.4339 3.60987 
27 1 5.62347 11.4197 4.32924 
28 1 6.34028 10.7104 3.61239 
29 1 5.6242 12.7233 5.62627 
30 1 6.34248 13.4343 6.34353 
31 1 4.33611 11.4588 5.62591 
32 1 3.63177 10.7005 6.31439 
1 1 0.849832 9.18938 9.18637 
2 1 -0.127577 9.91357 10.0637 
3 1 2.04186 7.89786 9.20759 
4 1 2.77107 7.17293 9.90592 
5 1 0.766739 7.91668 7.87743 
6 1 0.059396 7.18687 7.16336 
7 1 2.12442 9.07775 7.78782 
8 1 2.82455 9.83148 7.10344 
65 2 1.32883 10.2251 8.98441 
33 1 12.7232 4.3328 4.33269 
34 1 13.4322 3.61463 3.61468 
35 1 11.4212 4.33205 5.62405 
36 1 10.7108 3.61383 6.34056 
37 1 12.7278 5.61689 5.62727 
38 1 13.4325 6.34401 6.3387 
39 1 11.421 5.62271 4.33213 
40 1 10.7112 6.3393 3.61437 
9 1 9.14895 0.801683 9.1698 
10 1 9.88 0.0707235 9.86235 
11 1 9.18335 2.0695 7.88121 
12 1 9.89353 2.78751 7.16491 
13 1 7.88479 0.770928 7.88366 
14 1 7.16689 0.0603333 7.16678 
15 1 7.88287 2.06944 9.18622 
16 1 7.16409 2.78831 9.89479 
17 1 9.1506 9.16927 0.800642 
18 1 9.88041 9.86332 0.0708535 
19 1 7.8826 9.18436 2.06994 
20 1 7.16479 9.8946 2.78782 
21 1 7.88216 7.88056 0.767783 
22 1 7.1645 7.16417 0.0579648 
23 1 9.18437 7.88069 2.07044 
24 1 9.89407 7.16422 2.78809 
49 1 12.7977 12.7001 12.6986 
50 1 13.4905 13.4305 13.4301 
51 1 12.5527 11.5776 11.5785 
52 1 13.3823 10.662 10.7457 
53 1 11.4427 11.3461 12.6986 
54 1 10.7107 10.6523 13.4306 
55 1 11.4438 12.6972 11.3419 
56 1 10.7111 13.4298 10.6495 
ITEM: TIMESTEP
110
ITEM: NUMBER OF ATOMS
65
ITEM: BOX BOUNDS pp pp pp
0.0000000000000000e+00 1.4190000000000000e+01
0.0000000000000000e+00 1.4190000000000000e+01
0.0000000000000000e+00 1.4190000000000000e+01
ITEM: ATOMS id type x y z 
57 1 2.0693 0.7712 2.06839 
58 1 2.78614 0.0603477 2.78582 
59 1 0.781751 0.800967 0.802563 
60 1 0.0887546 0.0709291 0.0715776 
61 1 0.766677 2.07064 2.071 
62 1 0.0574424 2.78897 2.78918 
63 1 2.07205 2.07048 0.769476 
64 1 2.78832 2.78789 0.0589787 
41 1 4.32901 4.33104 12.7207 
42 1 3.61272 3.6136 13.4312 
43 1 4.33574 5.61948 11.4116 
44 1 3.61054 6.33898 10.7124 
45 1 5.6205 5.62288 12.7208 
46 1 6.33843 6.33954 13.4309 
47 1 5.61962 4.33298 11.4173 
48 1 6.33825 3.61426 10.7089 
25 1 4.32648 12.7229 4.32744 
26 1 3.60951 13.4339 3.60987 
27 1 5.62347 11.4197 4.32924 
28 1 6.34028 10.7104 3.61239 
29 1 5.6242 12.7233 5.62627 
30 1 6.34248 13.4343 6.34353 
31 1 4.33611 11.4588 5.62591 
32 1 3.63177 10.7005 6.31439 
1 1 0.849832 9.18938 9.18637 
65 2 1.32883 10.2251 8.98441 
3 1 2.04185 7.89786 9.20759 
4 1 2.77107 7.17293 9.90592 
5 1 0.766739 7.91668 7.87743 
6 1 0.0593959 7.18687 7.16336 
7 1 2.12442 9.07775 7.78781 
8 1 2.82455 9.83148 7.10345 
33 1 12.7232 4.3328 4.33269 
34 1 13.4322 3.61463 3.61468 
35 1 11.4212 4.33205 5.62405 
36 1 10.7108 3.61383 6.34056 
37 1 12.7278 5.61689 5.62727 
38 1 13.4325 6.34401 6.3387 
39 1 11.421 5.62271 4.33213 
40 1 10.7112 6.3393 3.61437 
9 1 9.14895 0.801684 9.1698 
10 1 9.88 0.0707231 9.86235 
11 1 9.18335 2.0695 7.88121 
12 1 9.89353 2.78751 7.16491 
13 1 7.88479 0.770928 7.88366 
14 1 7.16689 0.0603329 7.16678 
15 1 7.88287 2.06944 9.18622 
16 1 7.16409 2.78831 9.89479 
17 1 9.1506 9.16927 0.800643 
18 1 9.88041 9.86332 0.0708532 
19 1 7.8826 9.18436 2.06994 
20 1 7.16479 9.8946 2.78782 
21 1 7.88216 7.88056 0.767783 
22 1 7.1645 7.16417 0.0579648 
23 1 9.18437 7.8807 2.07044 
24 1 9.89407 7.16422 2.78809 
49 1 12.7977 12.7001 12.6986 
50 1 13.4905 13.4305 13.4301 
51 1 12.5527 11.5776 11.5785 
52 1 13.3823 10.662 10.7457 
53 1 11.4427 11.3461 12.6986 
54 1 10.7107 10.6523 13.4306 
55 1 11.4438 12.6972 11.3419 
56 1 10.7111 13.4298 10.6495 
2 1 14.0624 9.91357 10.0637 
ITEM: TIMESTEP
120
ITEM: NUMBER OF ATOMS
65
ITEM: BOX BOUNDS pp pp pp
6.6925763299610971e-03 1.4183307423670037e+01
7.0950000000000006e-03 1.4182905000000007e+01
6.5689966486185102e-03 1.4183431003351384e+01
ITEM: ATOMS id type x y z 
57 1 2.07403 0.777534 2.07303 
58 1 2.79022 0.0673651 2.78983 
59 1 0.787716 0.807275 0.808405 
60 1 0.0953469 0.0779351 0.0780621 
61 1 0.772655 2.07566 2.07564 
62 1 0.0640621 2.7933 2.79318 
63 1 2.07678 2.07549 0.775342 
64 1 2.7924 2.79221 0.0654755 
41 1 4.33164 4.33382 12.7155 
42 1 3.61599 3.61707 13.4254 
43 1 4.33835 5.62094 11.4076 
44 1 3.6138 6.33976 10.7091 
45 1 5.62188 5.62434 12.7156 
46 1 6.33916 6.34031 13.4251 
47 1 5.621 4.33575 11.4133 
48 1 6.33898 3.61772 10.7055 
25 1 4.3291 12.7172 4.33001 
26 1 3.61278 13.4275 3.61308 
27 1 5.62485 11.4153 4.33182 
28 1 6.34101 10.7068 3.61559 
29 1 5.62558 12.7177 5.62761 
30 1 6.34321 13.428 6.34424 
31 1 4.33872 11.4544 5.62726 
32 1 3.63502 10.6969 6.31513 
1 1 0.855716 9.18729 9.18445 
65 2 1.33427 10.222 8.98265 
3 1 2.0466 7.89707 9.20563 
4 1 2.77516 7.17284 9.90334 
5 1 0.772717 7.91588 7.87672 
6 1 0.0660123 7.18676 7.16329 
7 1 2.1291 9.07575 7.78718 
8 1 2.82859 9.82876 7.10342 
33 1 12.7178 4.33557 4.33526 
34 1 13.4263 3.6181 3.61788 
35 1 11.4171 4.33483 5.6254 
36 1 10.7074 3.61729 6.34127 
37 1 12.7224 5.61836 5.62862 
38 1 13.4265 6.34478 6.33941 
39 1 11.4169 5.62417 4.3347 
40 1 10.7078 6.34007 3.61757 
9 1 9.14699 0.807995 9.16787 
10 1 9.87739 0.0777253 9.85979 
11 1 9.18138 2.07452 7.88049 
12 1 9.8909 2.79184 7.16483 
13 1 7.88405 0.777263 7.88294 
14 1 7.16681 0.0673479 7.1667 
15 1 7.88214 2.07446 9.18428 
16 1 7.16401 2.79264 9.89222 
17 1 9.14865 9.16719 0.806488 
18 1 9.8778 9.86056 0.0773347 
19 1 7.88187 9.18226 2.07459 
20 1 7.1647 9.89182 2.79182 
21 1 7.88143 7.87979 0.77365 
22 1 7.16442 7.16408 0.0644629 