 # File generated with Atomsk by ana on 2024-09-05 17:52:00
  
          34  atoms
           3  atom types
 
      0.000000000000       7.097000000000  xlo xhi
      0.000000000000       7.097000000000  ylo yhi
      0.000000000000      24.588000000000  zlo zhi
 
Masses
 
            1   12.01100000             # C
            2   15.99900000             # O
            3   1.00800000              # H
 
Atoms # charge
 
         1    1   0.000000        4.647000000000       5.232000000000       6.454000000000
         2    1   0.000000        3.339000000000       1.632000000000      13.319000000000
         3    1   0.000000        3.388000000000       5.211000000000       8.606000000000
         4    1   0.000000        2.163000000000       5.232000000000       6.454000000000
         5    1   0.000000        4.651000000000       1.581000000000      18.133000000000
         6    1   0.000000        3.338000000000       5.182000000000      11.269000000000
         7    1   0.000000        3.391000000000       1.602000000000      15.981000000000
         8    1   0.000000        2.166000000000       1.581000000000      18.134000000000
         9    1   0.000000        3.338000000000       3.939000000000      11.986000000000
        10    1   0.000000        6.954000000000       5.232000000000       5.122000000000
        11    1   0.000000        3.365000000000       5.194000000000       9.834000000000
        12    1   0.000000        3.338000000000       6.423000000000      11.987000000000
        13    1   0.000000       -0.074000000000       3.938000000000       0.307000000000
        14    1   0.000000        3.404000000000       5.232000000000       7.171000000000
        15    1   0.000000       -0.103000000000       5.194000000000       2.459000000000
        16    1   0.000000       -0.074000000000       6.423000000000       0.307000000000
        17    1   0.000000       -0.074000000000       2.875000000000      24.280000000000
        18    1   0.000000        3.408000000000       1.581000000000      17.416000000000
        19    1   0.000000       -0.100000000000       1.619000000000      22.129000000000
        20    1   0.000000       -0.074000000000       0.390000000000      24.281000000000
        21    1   0.000000        3.338000000000       2.875000000000      12.602000000000
        22    1   0.000000       -0.140000000000       1.581000000000      19.466000000000
        23    1   0.000000        3.367000000000       1.619000000000      14.753000000000
        24    1   0.000000        3.338000000000       0.390000000000      12.601000000000
        25    1   0.000000        5.714000000000       1.581000000000      18.748000000000
        26    1   0.000000       -0.075000000000       5.181000000000       1.025000000000
        27    1   0.000000       -0.123000000000       1.602000000000      20.900000000000
        28    1   0.000000        1.102000000000       1.581000000000      18.748000000000
        29    1   0.000000        5.711000000000       5.232000000000       5.839000000000
        30    1   0.000000       -0.073000000000       1.631000000000      23.563000000000
        31    1   0.000000       -0.127000000000       5.211000000000       3.688000000000
        32    1   0.000000        1.098000000000       5.232000000000       5.840000000000
        33    2   0.000000        3.365000000000       6.544000000000       9.834000000000
        34    3   0.000000        3.365000000000       7.529000000000       9.834000000000
