LAMMPS (3 Mar 2020)
Reading data file ...
  orthogonal box = (0 0 0) to (16.525 16.526 16.526)
  2 by 2 by 2 MPI processor grid
  reading atoms ...
  99 atoms
  read_data CPU = 0.00330721 secs
WARNING: Changed valency_val to valency_boc for X (../reaxc_ffield.cpp:315)
WARNING: Using 'neigh_modify every 1 delay 0 check yes' setting during minimization (../min.cpp:190)
Neighbor list info ...
  update every 1 steps, delay 0 steps, check yes
  max neighbors/atom: 2000, page size: 100000
  master list distance cutoff = 12
  ghost atom cutoff = 12
  binsize = 6, bins = 3 3 3
  2 neighbor lists, perpetual/occasional/extra = 2 0 0
  (1) pair reax/c, perpetual
      attributes: half, newton off, ghost
      pair build: half/bin/newtoff/ghost
      stencil: half/ghost/bin/3d/newtoff
      bin: standard
  (2) fix qeq/reax, perpetual, copy from (1)
      attributes: half, newton off, ghost
      pair build: copy
      stencil: none
      bin: none
Setting up cg style minimization ...
  Unit style    : real
  Current step  : 0
Per MPI rank memory allocation (min/avg/max) = 21.16 | 21.26 | 21.42 Mbytes
Step Temp E_pair E_mol TotEng Press 
       0            0   -17295.007            0   -17295.007   -30025.903 
      21            0   -17340.868            0   -17340.868   -2573.2449 
Loop time of 0.375165 on 8 procs for 21 steps with 99 atoms

99.3% CPU use with 8 MPI tasks x no OpenMP threads

Minimization stats:
  Stopping criterion = energy tolerance
  Energy initial, next-to-last, final = 
        -17295.0068257     -17340.8673981     -17340.8675275
  Force two-norm initial, final = 1197.93 398.705
  Force max component initial, final = 344.874 101.122
  Final line search alpha, max atom move = 7.26617e-07 7.34768e-05
  Iterations, force evaluations = 21 109

MPI task timing breakdown:
Section |  min time  |  avg time  |  max time  |%varavg| %total
---------------------------------------------------------------
Pair    | 0.29491    | 0.29658    | 0.29892    |   0.3 | 79.05
Neigh   | 0          | 0          | 0          |   0.0 |  0.00
Comm    | 0.0044381  | 0.006763   | 0.0084448  |   1.8 |  1.80
Output  | 5.0635e-05 | 6.684e-05  | 0.00012117 |   0.0 |  0.02
Modify  | 0.070711   | 0.070736   | 0.070769   |   0.0 | 18.85
Other   |            | 0.001016   |            |       |  0.27

Nlocal:    12.375 ave 15 max 12 min
Histogram: 7 0 0 0 0 0 0 0 0 1
Nghost:    733.375 ave 743 max 725 min
Histogram: 1 2 0 0 0 1 3 0 0 1
Neighs:    1677.62 ave 2049 max 1606 min
Histogram: 7 0 0 0 0 0 0 0 0 1

Total # of neighbors = 13421
Ave neighs/atom = 135.566
Neighbor list builds = 0
Dangerous builds = 0
WARNING: Using 'neigh_modify every 1 delay 0 check yes' setting during minimization (../min.cpp:190)
Setting up cg style minimization ...
  Unit style    : real
  Current step  : 21
Per MPI rank memory allocation (min/avg/max) = 21.16 | 21.26 | 21.42 Mbytes
Step Temp E_pair E_mol TotEng Press 
      21            0   -17340.868            0   -17340.868    -2573.245 
      29            0   -17342.626            0   -17342.626    1721.1906 
Loop time of 0.212875 on 8 procs for 8 steps with 99 atoms

99.4% CPU use with 8 MPI tasks x no OpenMP threads

Minimization stats:
  Stopping criterion = energy tolerance
  Energy initial, next-to-last, final = 
        -17340.8675276     -17342.6263082      -17342.626405
  Force two-norm initial, final = 398.706 272.912
  Force max component initial, final = 101.122 82.7723
  Final line search alpha, max atom move = 1.38514e-06 0.000114651
  Iterations, force evaluations = 8 65

MPI task timing breakdown:
Section |  min time  |  avg time  |  max time  |%varavg| %total
---------------------------------------------------------------
Pair    | 0.16949    | 0.17086    | 0.17268    |   0.2 | 80.26
Neigh   | 0          | 0          | 0          |   0.0 |  0.00
Comm    | 0.0020717  | 0.0038822  | 0.0052571  |   1.7 |  1.82
Output  | 0          | 0          | 0          |   0.0 |  0.00
Modify  | 0.037552   | 0.037575   | 0.0376     |   0.0 | 17.65
Other   |            | 0.0005608  |            |       |  0.26

Nlocal:    12.375 ave 15 max 12 min
Histogram: 7 0 0 0 0 0 0 0 0 1
Nghost:    731.875 ave 743 max 723 min
Histogram: 1 0 2 0 2 1 1 0 0 1
Neighs:    1677.12 ave 2047 max 1606 min
Histogram: 7 0 0 0 0 0 0 0 0 1

Total # of neighbors = 13417
Ave neighs/atom = 135.525
Neighbor list builds = 0
Dangerous builds = 0
WARNING: Using 'neigh_modify every 1 delay 0 check yes' setting during minimization (../min.cpp:190)
Setting up cg style minimization ...
  Unit style    : real
  Current step  : 29
WARNING: Energy due to 3 extra global DOFs will be included in minimizer energies
Per MPI rank memory allocation (min/avg/max) = 21.16 | 21.26 | 21.42 Mbytes
Step Temp E_pair E_mol TotEng Press Volume 
      29            0   -17342.626            0   -17342.626    1721.1874    4513.1209 
      35            0   -17342.973            0   -17342.973   -946.34884    4514.9461 
Loop time of 0.168138 on 8 procs for 6 steps with 99 atoms

99.4% CPU use with 8 MPI tasks x no OpenMP threads

Minimization stats:
  Stopping criterion = energy tolerance
  Energy initial, next-to-last, final = 
         -17342.626407     -17342.9725673     -17342.9726677
  Force two-norm initial, final = 337.857 280.355
  Force max component initial, final = 133.809 77.792
  Final line search alpha, max atom move = 1.25078e-09 9.73008e-08
  Iterations, force evaluations = 6 57

MPI task timing breakdown:
Section |  min time  |  avg time  |  max time  |%varavg| %total
---------------------------------------------------------------
Pair    | 0.14659    | 0.14788    | 0.14951    |   0.3 | 87.95
Neigh   | 0          | 0          | 0          |   0.0 |  0.00
Comm    | 0.0017703  | 0.0034008  | 0.0046603  |   1.7 |  2.02
Output  | 2.155e-05  | 2.809e-05  | 4.6968e-05 |   0.0 |  0.02
Modify  | 0.015716   | 0.015739   | 0.015761   |   0.0 |  9.36
Other   |            | 0.001093   |            |       |  0.65

Nlocal:    12.375 ave 15 max 12 min
Histogram: 7 0 0 0 0 0 0 0 0 1
Nghost:    731.875 ave 743 max 723 min
Histogram: 1 0 2 0 2 1 1 0 0 1
Neighs:    1677.12 ave 2047 max 1606 min
Histogram: 7 0 0 0 0 0 0 0 0 1

Total # of neighbors = 13417
Ave neighs/atom = 135.525
Neighbor list builds = 0
Dangerous builds = 0
WARNING: Using 'neigh_modify every 1 delay 0 check yes' setting during minimization (../min.cpp:190)
Setting up cg style minimization ...
  Unit style    : real
  Current step  : 35
Per MPI rank memory allocation (min/avg/max) = 21.16 | 21.26 | 21.42 Mbytes
Step Temp E_pair E_mol TotEng Press 
      35            0   -17342.973            0   -17342.973   -946.34565 
      37            0   -17342.979            0   -17342.979   -844.70237 
Loop time of 0.213185 on 8 procs for 2 steps with 99 atoms

99.4% CPU use with 8 MPI tasks x no OpenMP threads

Minimization stats:
  Stopping criterion = energy tolerance
  Energy initial, next-to-last, final = 
        -17342.9726645     -17342.9787936     -17342.9787932
  Force two-norm initial, final = 257.291 254.26
  Force max component initial, final = 69.1083 68.3647
  Final line search alpha, max atom move = 3.40572e-13 2.32831e-11
  Iterations, force evaluations = 2 69

MPI task timing breakdown:
Section |  min time  |  avg time  |  max time  |%varavg| %total
---------------------------------------------------------------
Pair    | 0.17774    | 0.1794     | 0.18139    |   0.3 | 84.15
Neigh   | 0          | 0          | 0          |   0.0 |  0.00
Comm    | 0.0035666  | 0.0055439  | 0.0071955  |   1.7 |  2.60
Output  | 0          | 0          | 0          |   0.0 |  0.00
Modify  | 0.027615   | 0.027634   | 0.027654   |   0.0 | 12.96
Other   |            | 0.0006042  |            |       |  0.28

Nlocal:    12.375 ave 15 max 12 min
Histogram: 7 0 0 0 0 0 0 0 0 1
Nghost:    731.875 ave 743 max 723 min
Histogram: 1 0 2 0 2 1 1 0 0 1
Neighs:    1677.12 ave 2047 max 1606 min
Histogram: 7 0 0 0 0 0 0 0 0 1

Total # of neighbors = 13417
Ave neighs/atom = 135.525
Neighbor list builds = 0
Dangerous builds = 0
WARNING: Using 'neigh_modify every 1 delay 0 check yes' setting during minimization (../min.cpp:190)
Setting up cg style minimization ...
  Unit style    : real
  Current step  : 37
WARNING: Energy due to 3 extra global DOFs will be included in minimizer energies
Per MPI rank memory allocation (min/avg/max) = 21.16 | 21.26 | 21.42 Mbytes
Step Temp E_pair E_mol TotEng Press Volume 
      37            0   -17342.979            0   -17342.979    -844.7028    4514.9461 
      38            0   -17342.979            0   -17342.979   -844.68732    4514.9461 
Loop time of 0.110086 on 8 procs for 1 steps with 99 atoms

99.4% CPU use with 8 MPI tasks x no OpenMP threads

Minimization stats:
  Stopping criterion = energy tolerance
  Energy initial, next-to-last, final = 
        -17342.9787933     -17342.9787933     -17342.9787975
  Force two-norm initial, final = 273.378 273.377
  Force max component initial, final = 70.7211 70.72
  Final line search alpha, max atom move = 5.394e-12 3.81464e-10
  Iterations, force evaluations = 1 37

MPI task timing breakdown:
Section |  min time  |  avg time  |  max time  |%varavg| %total
---------------------------------------------------------------
Pair    | 0.096011   | 0.09684    | 0.097927   |   0.2 | 87.97
Neigh   | 0          | 0          | 0          |   0.0 |  0.00
Comm    | 0.001136   | 0.00222    | 0.0030282  |   1.4 |  2.02
Output  | 0          | 0          | 0          |   0.0 |  0.00
Modify  | 0.010327   | 0.01034    | 0.010358   |   0.0 |  9.39
Other   |            | 0.0006867  |            |       |  0.62

Nlocal:    12.375 ave 15 max 12 min
Histogram: 7 0 0 0 0 0 0 0 0 1
Nghost:    731.875 ave 743 max 723 min
Histogram: 1 0 2 0 2 1 1 0 0 1
Neighs:    1677.12 ave 2047 max 1606 min
Histogram: 7 0 0 0 0 0 0 0 0 1

Total # of neighbors = 13417
Ave neighs/atom = 135.525
Neighbor list builds = 0
Dangerous builds = 0
WARNING: Using 'neigh_modify every 1 delay 0 check yes' setting during minimization (../min.cpp:190)
Setting up cg style minimization ...
  Unit style    : real
  Current step  : 38
Per MPI rank memory allocation (min/avg/max) = 21.16 | 21.26 | 21.42 Mbytes
Step Temp E_pair E_mol TotEng Press 
      38            0   -17342.979            0   -17342.979    -844.6847 
      39            0   -17342.979            0   -17342.979   -844.68254 
Loop time of 0.183932 on 8 procs for 1 steps with 99 atoms

99.3% CPU use with 8 MPI tasks x no OpenMP threads

Minimization stats:
  Stopping criterion = linesearch alpha is zero
  Energy initial, next-to-last, final = 
        -17342.9787948     -17342.9787948     -17342.9787934
  Force two-norm initial, final = 254.259 254.259
  Force max component initial, final = 68.3646 68.3646
  Final line search alpha, max atom move = 1.70286e-13 1.16415e-11
  Iterations, force evaluations = 1 61

MPI task timing breakdown:
Section |  min time  |  avg time  |  max time  |%varavg| %total
---------------------------------------------------------------
Pair    | 0.15685    | 0.15799    | 0.15934    |   0.2 | 85.90
Neigh   | 0          | 0          | 0          |   0.0 |  0.00
Comm    | 0.0023866  | 0.0037073  | 0.0048671  |   1.4 |  2.02
Output  | 0          | 0          | 0          |   0.0 |  0.00
Modify  | 0.021736   | 0.02176    | 0.021793   |   0.0 | 11.83
Other   |            | 0.0004706  |            |       |  0.26

Nlocal:    12.375 ave 15 max 12 min
Histogram: 7 0 0 0 0 0 0 0 0 1
Nghost:    731.875 ave 743 max 723 min
Histogram: 1 0 2 0 2 1 1 0 0 1
Neighs:    1677.12 ave 2047 max 1606 min
Histogram: 7 0 0 0 0 0 0 0 0 1

Total # of neighbors = 13417
Ave neighs/atom = 135.525
Neighbor list builds = 0
Dangerous builds = 0
Setting up Verlet run ...
  Unit style    : real
  Current step  : 0
  Time step     : 0.25
Per MPI rank memory allocation (min/avg/max) = 20.04 | 20.14 | 20.3 Mbytes
Step Temp TotEng KinEng PotEng Press 
       0          300   -17255.343    87.635815   -17342.979    42.599153 
     200    268.87397   -17222.956    78.543298   -17301.499    11477.035 
     400    341.26901   -17190.063    99.691294   -17289.754    9081.4711 
     600    256.92598   -17213.349    75.053059   -17288.402     4740.894 
     800    318.58596   -17198.978    93.065135   -17292.043    2462.9083 
    1000    279.61442   -17221.462    81.680791   -17303.143    1464.9273 
    1200    303.36136   -17214.726    88.617735   -17303.344    4544.9073 
    1400    356.75319   -17199.638    104.21452   -17303.853   -5389.3984 
    1600     305.0339   -17226.751    89.106314   -17315.858    -6444.033 
    1800    274.98663   -17252.233    80.328925   -17332.562    3016.4938 
    2000    315.37901   -17243.066    92.128323   -17335.194    3335.2141 
    2200    311.26734    -17230.35    90.927223   -17321.277    8868.4654 
    2400    273.32932   -17237.801    79.844794   -17317.646   -6851.5668 
    2600    292.13524   -17236.541    85.338368   -17321.879    13363.935 
    2800    314.19382   -17238.912    91.782106   -17330.694     242.2817 
    3000    298.49895   -17251.078    87.197329   -17338.275    8551.3614 
    3200    313.31361   -17226.822    91.524979   -17318.347   -4456.2993 
    3400    318.56134   -17239.047    93.057943   -17332.105    430.61769 
    3600    271.17409   -17244.827    79.215207   -17324.042    26.286813 
    3800    310.52924   -17229.699     90.71161   -17320.411   -14101.145 
    4000    324.91163   -17209.682    94.912985   -17304.595   -5874.2445 
    4200    315.77698   -17238.302    92.244577   -17330.546   -9048.4768 
    4400    306.67422   -17239.733    89.585483   -17329.319    5066.5491 
    4600    321.58661   -17217.228    93.941684    -17311.17    7852.4664 
    4800    295.89488   -17231.153    86.436631    -17317.59    3118.3418 
    5000    282.09698   -17239.169    82.405997   -17321.575    2064.1145 
    5200    293.28396    -17243.12    85.673929   -17328.794   -4339.2764 
    5400    269.66807   -17251.328    78.775271   -17330.103    876.13326 
    5600     336.8289   -17231.546    98.394251    -17329.94    4253.8265 
    5800    265.15542    -17246.54    77.457039   -17323.997   -3535.5534 
    6000    284.89359   -17249.227     83.22294    -17332.45    2821.4201 
    6200     304.5755   -17236.056    88.972408   -17325.029    2714.5268 
    6400    284.75011   -17237.763    83.181027   -17320.944   -10191.303 
    6600    320.39597     -17228.2    93.593873   -17321.794   -3515.1627 
    6800     341.1278   -17220.521    99.650044   -17320.171   -8497.0144 
    7000     308.7058   -17245.379    90.178948   -17335.558    -12224.89 
    7200    279.29038   -17251.603    81.586133   -17333.189    8812.7946 
    7400    323.59472   -17223.351    94.528291   -17317.879    3908.3196 
    7600    314.56323    -17239.42    91.890019    -17331.31    -8061.467 
    7800    310.93015   -17244.529    90.828725   -17335.358    4803.1238 
    8000    268.99373    -17256.83    78.578283   -17335.408    335.11783 
    8200    316.03219   -17231.328    92.319129   -17323.647   -796.72897 
    8400    292.58703   -17234.568    85.470344   -17320.038    4549.6752 
    8600      257.576   -17253.662    75.242944   -17328.905     10974.82 
    8800    308.40727   -17238.521    90.091741   -17328.612   -6252.0004 
    9000    343.21681   -17232.258    100.26028   -17332.518    9943.4386 
    9200    259.38767   -17247.545    75.772167   -17323.317   -3586.0043 
    9400    362.50237   -17217.492    105.89397   -17323.386    5993.4981 
    9600    323.73556   -17240.148    94.569434   -17334.718   -6557.3848 
    9800    278.64595   -17240.841    81.397883   -17322.239    1059.9888 
   10000    329.48484   -17224.542    96.248909   -17320.791   -124.40947 
   10200    284.20312   -17243.586    83.021241   -17326.607    2053.9549 
   10400    279.14569   -17246.238    81.543867   -17327.781    8037.9923 
   10600     318.4936   -17220.269    93.038154   -17313.308   -17686.725 
   10800    285.58076   -17251.163    83.423675   -17334.586    4242.1759 
   11000    313.41278   -17236.242    91.553948   -17327.796   -771.05123 
   11200    310.51054   -17233.438    90.706149   -17324.144   -4177.7178 
   11400    300.07676   -17251.043     87.65824   -17338.701   -1628.4932 
   11600    294.83188   -17235.866    86.126108   -17321.992    10729.276 
   11800    275.07339   -17231.485    80.354269   -17311.839   -15489.594 
   12000    264.85678   -17238.107      77.3698   -17315.477    3428.7924 
   12200    269.14108   -17248.389    78.621326    -17327.01    -18792.05 
   12400    311.80907   -17233.489    91.085473   -17324.575     -4669.31 
   12600    324.80142   -17230.559    94.880792    -17325.44   -1347.9783 
   12800    268.61563   -17250.891    78.467833   -17329.359    16184.677 
   13000    289.11047   -17248.333    84.454772   -17332.787   -7224.6062 
   13200    301.68692   -17236.356    88.128597   -17324.485   -533.88287 
   13400     294.8974   -17249.766    86.145247   -17335.912    3992.8553 
   13600    277.10115   -17252.516    80.946617   -17333.463   -3878.2742 
   13800    304.33963   -17238.157    88.903506   -17327.061    4848.1379 
   14000    319.71096   -17243.243    93.393769   -17336.637    8384.7818 
   14200    300.86519   -17250.484    87.888555   -17338.373    3337.2785 
   14400    347.50757   -17233.403     101.5137   -17334.917   -3407.8513 
   14600    299.99836   -17242.589    87.635337   -17330.224     5616.861 
   14800    295.87462   -17246.849    86.430712   -17333.279    469.81715 
   15000    275.97234   -17254.448    80.616869   -17335.065    2559.6512 
   15200     331.5345   -17232.342    96.847653   -17329.189    6723.4955 
   15400    249.70137   -17248.289     72.94261   -17321.231     3366.069 
   15600    308.13587   -17242.356    90.012462   -17332.369    2289.7945 
   15800       265.54   -17249.195    77.569381   -17326.764   -2070.0687 
   16000      320.451   -17229.146    93.609949   -17322.755    7394.6255 
   16200    278.66736   -17254.461    81.404139   -17335.865   -1718.4958 
   16400      299.756   -17241.711    87.564539   -17329.276   -2660.6333 
   16600    325.31431   -17232.624    95.030616   -17327.654    6078.3565 
   16800    265.43426   -17254.414    77.538491   -17331.952    2946.0046 
   17000     261.7239   -17242.084    76.454625   -17318.539     2570.814 
   17200    303.88887   -17230.399    88.771831   -17319.171   -11572.066 
   17400    258.03579   -17252.987    75.377257   -17328.364    -2453.018 
   17600    278.27762   -17248.047    81.290286   -17329.337    5591.5646 
   17800    313.76466   -17233.662     91.65674   -17325.319    5057.7973 
   18000    280.38148   -17231.901    81.904866   -17313.806   -6555.8544 
   18200    281.78078   -17240.923    82.313628   -17323.237    8121.5046 
   18400    268.41518   -17243.444    78.409278   -17321.854    403.62573 
   18600    343.37084    -17225.72    100.30528   -17326.025   -6141.1583 
   18800     307.6189   -17245.759    89.861445    -17335.62   -8415.9566 
   19000    316.37936   -17241.529    92.420545    -17333.95    9361.4604 
   19200    308.89396   -17228.737    90.233913   -17318.971    14797.014 
   19400    315.36721    -17231.51    92.124877   -17323.635   -2949.5929 
   19600    274.67614   -17241.273    80.238226   -17321.511   -9574.3287 
   19800    314.66585   -17232.073    91.919994   -17323.993    2463.8403 
   20000    301.33702   -17231.169    88.026386   -17319.196   -15269.949 
   20200    302.40464   -17235.958    88.338259   -17324.296    7386.3564 
   20400    248.52655   -17252.548    72.599423   -17325.147    9626.4013 
   20600    299.90207    -17244.46    87.607207   -17332.067   -9495.7921 
   20800     333.4996   -17231.829    97.421699    -17329.25    3626.4187 
   21000    297.05391   -17251.247    86.775205   -17338.022   -4004.7343 
   21200    275.38471   -17254.686    80.445213   -17335.131    1016.6436 
   21400    312.76886   -17232.454    91.365846    -17323.82   -8611.1822 
   21600    288.49655   -17239.381    84.275434   -17323.657   -4698.1645 
   21800    292.73274   -17249.267    85.512908    -17334.78   -10851.271 
   22000    353.93767   -17225.751    103.39206   -17329.143   -6275.6648 
   22200    274.15257   -17243.053    80.085279   -17323.138   -2467.9533 
   22400    316.34544   -17241.711    92.410637   -17334.122    13525.524 
   22600    306.04132   -17225.975    89.400602   -17315.376   -90.027421 
   22800    304.50086   -17235.961    88.950605   -17324.911   -13815.261 
   23000    291.91633   -17252.493    85.274419   -17337.767    -3499.318 
   23200    328.84385   -17227.014    96.061664   -17323.076    1943.1791 
   23400    329.90159   -17238.706     96.37065   -17335.076   -5535.8823 
   23600    259.48159   -17249.919    75.799602   -17325.718    10285.477 
   23800    313.75564   -17215.578    91.654105   -17307.232   -7052.8354 
   24000     319.3795   -17222.557    93.296944   -17315.854    4487.1852 
   24200    277.47105   -17245.588    81.054672   -17326.643   -296.82451 
   24400     265.0829   -17247.461    77.435855   -17324.897    4927.1992 
   24600    279.63771   -17225.969    81.687595   -17307.657   -6228.7376 
   24800    298.95624    -17247.07    87.330913   -17334.401   -4007.7734 
   25000    279.85471   -17239.141    81.750986   -17320.892   -1591.6727 
   25200    305.02046   -17233.336    89.102389   -17322.439    -2030.349 
   25400    262.97115    -17264.41     76.81897   -17341.229    3114.2199 
   25600     268.7211   -17250.381    78.498641    -17328.88    5984.8702 
   25800     304.2481   -17234.302    88.876767   -17323.178   -9486.5599 
   26000    298.16076   -17227.225    87.098537   -17314.324    8861.6875 
   26200    273.80688   -17249.979    79.984298   -17329.963    -1802.127 
   26400    302.35132   -17236.833    88.322683   -17325.156   -578.96683 
   26600    259.96339   -17227.103    75.940345   -17303.044    4270.4531 
   26800    324.51203   -17238.561    94.796254   -17333.357    5656.1611 
   27000    236.14719   -17270.403    68.983173   -17339.386   -2824.4078 
   27200    292.72474   -17248.452    85.510572   -17333.962    1453.6774 
   27400    332.24397   -17231.323    97.054904   -17328.378   -1142.3822 
   27600    313.39933   -17239.983    91.550019   -17331.533   -7838.1628 
   27800    290.48394   -17249.984     84.85599    -17334.84   -3615.5607 
   28000    316.44931   -17222.194    92.440979   -17314.635   -6256.4187 
   28200    296.64198   -17235.108    86.654872   -17321.763   -12670.866 
   28400    280.08509   -17239.958    81.818285   -17321.776    5271.1932 
   28600    356.84419   -17213.014    104.24111   -17317.255    6663.4025 
   28800    302.86519   -17233.519    88.472792   -17321.992    2898.7221 
   29000    272.07163   -17239.681    79.477398   -17319.158     573.3552 
   29200     304.4237   -17244.648    88.928064   -17333.576    11459.318 
   29400    290.33466   -17231.684    84.812381   -17316.496   -6357.7304 
   29600    281.61806   -17237.841    82.266095   -17320.107    13314.524 
   29800    257.69777   -17247.378    75.278513   -17322.657   -4037.6242 
   30000    311.45282    -17224.47    90.981405   -17315.451      -1786.2 
   30200    286.59607   -17245.371    83.720269   -17329.091    3945.7163 
   30400    336.42685   -17229.448    98.276803   -17327.724   -7530.6165 
   30600    334.42493   -17203.774    97.692003   -17301.466    -6215.038 
   30800    285.15985   -17232.297     83.30072   -17315.598    7325.8675 
   31000    300.08176   -17246.282      87.6597   -17333.941   -500.03054 
   31200    331.98181   -17219.379    96.978321   -17316.357   -7316.6858 
   31400    307.37402   -17236.144     89.78991   -17325.934    2591.4576 
   31600    294.92113   -17238.855     86.15218   -17325.007    857.31691 
   31800    353.52475    -17222.38    103.27143   -17325.651    3328.6765 
   32000     317.1368   -17237.511    92.641806   -17330.153    8328.6218 
   32200    301.26283   -17244.549    88.004712   -17332.554   -14.166049 
   32400    281.61841   -17247.092    82.266197   -17329.358    11311.021 
   32600    309.99097    -17224.27    90.554371   -17314.824   -1250.2204 
   32800    316.27037   -17242.803    92.388706   -17335.192    4332.9438 
   33000    315.51196   -17240.984    92.167158   -17333.151   -4091.8635 
   33200    323.57336   -17224.141    94.522052   -17318.663   -8085.7543 
   33400    275.36742   -17240.541     80.44016   -17320.981   -736.86958 
   33600    290.00608   -17249.342    84.716397   -17334.058    5710.8839 
   33800    328.37405   -17224.565    95.924425   -17320.489   -8657.4679 
   34000    325.15297   -17233.935    94.983484   -17328.918    1120.1772 
   34200    310.51397   -17246.535    90.707151   -17337.243   -5558.5983 
   34400    323.00861   -17230.788    94.357076   -17325.146   -2616.7179 
   34600    360.81555   -17213.788    105.40122   -17319.189   -1296.5559 
   34800    289.76971   -17242.539     84.64735   -17327.186    4416.8506 
   35000    313.21957   -17249.062    91.497508    -17340.56   -6098.9698 
   35200    334.97674   -17223.213    97.853199   -17321.066   -8591.5332 
   35400    277.95651   -17238.485    81.196486   -17319.681    6411.5317 
   35600    303.61725    -17236.64    88.692484   -17325.332    410.61156 
   35800    318.71315   -17233.954    93.102289   -17327.057   -4256.2127 
   36000    287.22925   -17248.563    83.905232   -17332.468    -9534.193 
   36200    318.36733   -17229.203    93.001269   -17322.204    -8648.327 
   36400    303.38491   -17236.452    88.624613   -17325.077    5858.8263 
   36600     323.5458   -17242.487       94.514   -17337.001    -18512.69 
   36800     296.0552   -17235.135    86.483462   -17321.618   -5312.2472 
   37000    347.48759   -17224.288    101.50786   -17325.796   -14383.906 
   37200    284.94435   -17240.292    83.237767    -17323.53    5672.3483 
   37400    314.58321   -17245.728    91.895853   -17337.624   -3117.1635 
   37600    293.22146   -17241.247    85.655674   -17326.903    11511.758 
   37800    314.49087   -17226.358     91.86888   -17318.227   -3848.1963 
   38000    330.46123   -17237.916     96.53413    -17334.45    10210.707 
   38200    323.36937   -17240.218     94.46246   -17334.681     4935.831 
   38400    301.23025   -17241.326    87.995195   -17329.321   -3331.1221 
   38600    335.96017   -17216.955     98.14048   -17315.096   -9143.6846 
   38800    298.41015   -17242.148    87.171388   -17329.319    1954.1424 
   39000    273.29113   -17234.459    79.833637   -17314.293   -17633.494 
   39200    307.59657    -17235.44     89.85492   -17325.295   -779.01914 
   39400    278.90466   -17242.195    81.473458   -17323.669    13114.429 
   39600    270.06681   -17238.047    78.891751   -17316.938    555.10713 
   39800    317.47207   -17223.347    92.739746   -17316.087    1902.4025 
   40000    291.25576    -17247.19    85.081454   -17332.271    8477.4581 
   40200    300.74868   -17242.771    87.854518   -17330.626    3040.5873 
   40400    312.51455   -17232.189    91.291558   -17323.481    9312.7736 
   40600    274.84044   -17229.115    80.286219   -17309.401    2449.9591 
   40800    315.05185   -17240.716    92.032752   -17332.748    6506.2356 
   41000    289.41611   -17243.946    84.544055    -17328.49    8064.6066 
   41200    313.31976   -17219.896    91.526777   -17311.423    2294.2352 
   41400    290.47276   -17240.685    84.852724   -17325.538    6961.1259 
   41600    290.28361   -17244.411    84.797469   -17329.209   -8022.7169 
   41800    346.50247   -17220.087    101.22009   -17321.307    2609.8044 
   42000     276.4284   -17236.377    80.750094   -17317.127   -10789.855 
   42200    286.02465   -17253.267    83.553346    -17336.82    -2819.437 
   42400    311.30583   -17245.438    90.938469   -17336.376   -5841.8717 
   42600    321.72175   -17233.531    93.981159   -17327.512   -7715.6322 
   42800    293.27869   -17249.783    85.672392   -17335.456   -6706.8381 
   43000    292.64053   -17242.152    85.485972   -17327.638   -18312.831 
   43200    340.67815   -17226.287    99.518692   -17325.806   -2643.4767 
   43400    293.73526   -17252.725    85.805763   -17338.531   -431.42138 
   43600    278.14406   -17246.786    81.251272   -17328.037    10696.275 
   43800    305.05619   -17233.083    89.112828   -17322.195    573.33581 
   44000    302.48398   -17240.607    88.361436   -17328.968   -4555.2249 
   44200    310.18228   -17246.735    90.610256   -17337.345    3018.6114 
   44400    338.48188   -17233.741    98.877117   -17332.618     1300.806 
   44600     282.3585   -17234.745     82.48239   -17317.227   -7680.3048 
   44800    297.04813   -17250.493    86.773517   -17337.267   -568.78257 
   45000    314.63744    -17231.72    91.911694   -17323.632   -13501.162 
   45200     306.4349   -17236.333    89.515574   -17325.848   -5361.8662 
   45400    296.49022   -17249.494     86.61054   -17336.105    -12913.01 
   45600    304.40151   -17232.534    88.921581   -17321.456   -7579.7497 
   45800    284.74442   -17249.191    83.179364    -17332.37   -3187.3349 
   46000    277.68535   -17261.278    81.117274   -17342.396   -1031.5493 
   46200    284.66832   -17242.516    83.157135   -17325.673   -9178.5679 
   46400    305.02057   -17230.855    89.102421   -17319.958    3557.1654 
   46600    286.77201   -17247.455    83.771664   -17331.227   -3003.6038 
   46800    302.32447   -17234.444    88.314838   -17322.759    7819.4273 
   47000    310.79512   -17241.007     90.78928   -17331.796     2361.991 
   47200    288.80652   -17249.578    84.365984   -17333.944    3437.0372 
   47400    273.04867   -17244.429    79.762809   -17324.192   -5203.8796 
   47600    310.38763   -17221.665    90.670244   -17312.335    6918.2616 
   47800    331.30571   -17235.266    96.780821   -17332.047    8553.6304 
   48000    266.12126   -17245.256    77.739177   -17322.996    88.732058 
   48200    346.40184   -17218.186    101.19069   -17319.377   -2423.4319 
   48400    336.24055   -17221.011    98.222382   -17319.234    10223.374 
   48600    293.23309   -17244.905    85.659071   -17330.564    63.160883 
   48800    249.09092   -17254.048    72.764285   -17326.812   -3387.8934 
   49000     305.5808   -17225.458    89.266075   -17314.724   -3083.3886 
   49200    286.03418   -17246.053     83.55613    -17329.61   -5161.7565 
   49400    282.61279   -17247.536    82.556676   -17330.092    4282.4384 
   49600    335.59672   -17232.713    98.034308   -17330.747    997.30383 
   49800    293.00712   -17246.147     85.59306    -17331.74     482.4388 
   50000    338.55804   -17220.705    98.899367   -17319.605   -5661.7557 
   50200    293.68207   -17233.235    85.790226   -17319.025   -301.75956 
   50400    271.57593   -17247.164    79.332595   -17326.497    -3219.803 
   50600    268.15787   -17259.442    78.334111   -17337.776    2406.4817 
   50800    307.34551   -17235.695    89.781581   -17325.476    6507.6441 
   51000    337.80596   -17231.018     98.67967   -17329.698   -3348.4576 
   51200    267.10226   -17241.049    78.025747   -17319.075    181.64876 
   51400    329.41041   -17233.208    96.227166   -17329.435    2294.1567 
   51600    310.52126   -17230.724     90.70928   -17321.434   -3629.3387 
   51800    276.32712   -17246.843    80.720507   -17327.563   -3943.2461 
   52000    294.85638   -17232.789    86.133265   -17318.923    114.58229 
   52200    311.81864   -17223.309    91.088268   -17314.397    284.13646 
   52400    307.32861    -17254.26    89.776645   -17344.037    3266.2146 
   52600    305.18647   -17233.296    89.150885   -17322.447    5279.1683 
   52800    273.47234    -17235.23    79.886571   -17315.116    1581.8615 
   53000    262.55127   -17258.316    76.696314   -17335.012    -10950.16 
   53200    298.64321   -17242.299    87.239471   -17329.538    -297.0639 
   53400    287.37908   -17235.344    83.948999   -17319.293    7359.8856 
   53600    338.40885   -17218.173    98.855786   -17317.029   -5243.7427 
   53800     322.2533   -17235.793    94.136436   -17329.929   -7260.1486 
   54000    308.20162   -17244.505    90.031668   -17334.537    7408.6856 
   54200    332.67396   -17224.574    97.180512   -17321.755   -7194.8722 
   54400     307.2417   -17237.202    89.751257   -17326.953    4815.9708 
   54600     313.4096   -17244.202    91.553019   -17335.755    1221.1518 
   54800    348.52903   -17227.821    101.81208   -17329.633    4702.0946 
   55000    287.31484   -17242.578    83.930234   -17326.508   -1358.9999 
   55200    286.28683   -17247.854    83.629933   -17331.484   -4551.9202 
   55400    294.65256   -17226.042    86.073725   -17312.116   -2009.6227 
   55600    281.41359   -17256.897    82.206366   -17339.104    12283.615 
   55800    285.71649   -17244.193    83.463324   -17327.656   -12874.653 
   56000    298.40929    -17234.96    87.171139   -17322.131    7100.6821 
   56200    268.35188   -17255.879    78.390787    -17334.27    258.27164 
   56400    273.55342    -17232.86    79.910255    -17312.77    2246.3567 
   56600    321.75989   -17235.184      93.9923   -17329.176   -8908.7194 
   56800    276.21456   -17253.089    80.687628   -17333.776   -437.07687 
   57000    315.48186   -17227.505    92.158368   -17319.663   -15475.933 
   57200    278.64293   -17246.684    81.397002   -17328.081    3989.9014 
   57400     325.0596   -17237.347    94.956211   -17332.304   -18132.943 
   57600    307.03953   -17239.447      89.6922   -17329.139   -9000.5597 
   57800    285.16576   -17237.565    83.302445   -17320.867      485.764 
   58000    330.71095    -17232.54     96.60708   -17329.147    3278.0259 
   58200    264.75465   -17255.359    77.339967   -17332.699    6613.3302 
   58400    317.14679    -17236.78    92.644724   -17329.425    8315.9651 
   58600    315.76687   -17237.766    92.241624   -17330.008   -4732.5576 
   58800    364.22239   -17210.415    106.39642   -17316.812    8184.2005 
   59000    305.25563   -17235.821    89.171086   -17324.992   -24053.423 
   59200    290.36274   -17235.688    84.820584   -17320.509    1106.7682 
   59400    346.91264   -17223.043    101.33991   -17324.383    907.30324 
   59600    262.83661   -17246.447    76.779669   -17323.227   -9595.5952 
   59800     308.0135   -17232.722    89.976715   -17322.699    15542.013 
   60000    292.93125   -17242.771    85.570895   -17328.342    649.89654 
   60200    252.50479   -17262.556    73.761544   -17336.318   -2102.8687 
   60400    294.25392   -17236.249    85.957275   -17322.206    2282.8273 
   60600    281.54323   -17236.859    82.244234   -17319.104    -9176.832 
   60800    242.51421   -17260.724    70.843101   -17331.567   -4260.0161 
   61000    294.62258    -17246.17    86.064967   -17332.235    2495.9274 
   61200    296.02415   -17232.954    86.474392   -17319.429    8408.0175 
   61400    373.39194   -17223.232    109.07502   -17332.307    1619.6904 
   61600    291.52123   -17251.323    85.159004   -17336.482   -1673.7084 
   61800    289.92115   -17238.182    84.691587   -17322.873   -5770.2907 
   62000    286.15213    -17233.27    83.590583   -17316.861    -1628.219 
   62200    287.18103   -17256.326    83.891146   -17340.217    709.47694 
   62400    327.10929   -17236.144    95.554965   -17331.698    -3707.083 
   62600    295.68032   -17242.258    86.373952   -17328.632   -151.18294 
   62800    271.09845   -17236.958    79.193114   -17316.151    518.16788 
   63000    292.35486   -17236.463    85.402521   -17321.865    5031.2583 
   63200    278.75703   -17244.094    81.430333   -17325.524    11801.906 
   63400    275.83983   -17241.137    80.578162   -17321.715    12748.284 
   63600    329.08924   -17225.026    96.133348   -17321.159    1519.7246 
   63800    263.69942   -17247.408    77.031713    -17324.44   -8922.4708 
   64000    269.26898   -17238.952    78.658689    -17317.61   -376.53599 
   64200    308.41582   -17225.113    90.094238   -17315.208    8070.6545 
   64400    293.72449   -17254.242    85.802616   -17340.045   -3564.8048 
   64600    271.86986   -17241.243    79.418456   -17320.661   -9390.0322 
   64800    318.65967   -17227.652    93.086667   -17320.739    4584.2199 
   65000    269.28094   -17254.742    78.662182   -17333.404   -623.24593 
   65200     265.9527   -17244.034     77.68994   -17321.724   -8353.6015 
   65400     318.8231   -17229.325    93.134407   -17322.459   -4375.0746 
   65600     272.8211    -17237.93    79.696333   -17317.626   -666.25853 
   65800    297.24811   -17237.908    86.831934   -17324.739    3294.9913 
   66000    304.25273   -17239.863     88.87812   -17328.741     7879.035 
   66200    258.27776   -17257.097     75.44794   -17332.545    6409.8402 
   66400    295.31744   -17238.631    86.267949   -17324.899    484.59171 
   66600    258.77761   -17250.059    75.593956   -17325.653    14419.464 
   66800    314.48223   -17225.021    91.866357   -17316.887   -2024.7864 
   67000    319.61725   -17245.294    93.366395    -17338.66   -1090.4002 
   67200    264.83192   -17247.547    77.362538    -17324.91    6749.1069 
   67400    316.98399   -17239.193    92.597167    -17331.79   -2082.8217 
   67600     286.6375    -17237.06    83.732369   -17320.793   -5310.4341 
   67800    306.03518     -17239.8    89.398808   -17329.199   -4970.7851 
   68000    286.68117   -17252.737    83.745128   -17336.482    8501.6224 
   68200    334.73985    -17233.36       97.784   -17331.144    2399.9833 
   68400    268.49187   -17249.188    78.431679    -17327.62   -13354.848 
   68600    286.77715   -17245.307    83.773166    -17329.08    -696.5777 
   68800    309.93925   -17235.612    90.539263   -17326.151    829.92421 
   69000    246.07386   -17244.992    71.882944   -17316.875    512.06451 
   69200    283.57341   -17247.121     82.83729   -17329.958   -6015.0525 
   69400     323.0704   -17233.943    94.375127   -17328.319    6433.6019 
   69600    323.20013   -17228.056    94.413025   -17322.469   -6091.8823 
   69800     284.0271   -17242.722    82.969822   -17325.692    2585.8321 
   70000    290.10575   -17226.792    84.745512   -17311.537   -5710.4805 
   70200    338.75591   -17220.225    98.957168   -17319.182    8968.6779 
   70400    283.91807    -17238.02    82.937971   -17320.958   -344.59412 
   70600    315.44051   -17231.555    92.146287   -17323.701    5662.5854 
   70800    291.43002   -17241.253    85.132358   -17326.385    556.46148 
   71000    327.42993   -17224.562     95.64863   -17320.211    5998.2466 
   71200    268.73255   -17245.426    78.501987   -17323.928   -7988.6368 
   71400    327.60327   -17236.165    95.699266   -17331.864    11715.242 
   71600    323.81538   -17247.061    94.592749   -17341.653    -7800.306 
   71800    311.79233   -17227.178    91.080584   -17318.259   -5768.6192 
   72000    291.20068   -17233.355    85.065362   -17318.421    13817.984 
   72200    283.64861   -17248.058    82.859256   -17330.917    1632.2256 
   72400    353.79784     -17227.3    103.35121   -17330.651    9568.2107 
   72600    295.62311   -17233.804    86.357242   -17320.162    3592.4632 
   72800    323.91664   -17246.402    94.622328   -17341.024    1994.0639 
   73000    277.62701   -17243.844    81.100232   -17324.944   -11378.504 
   73200    286.38561   -17240.226    83.658789   -17323.885   -17082.244 
   73400    320.02861    -17236.16    93.486562   -17329.646   -13889.735 
   73600    265.49463   -17254.344    77.556127     -17331.9    704.38731 
   73800    327.52682   -17235.298    95.676934   -17330.975    1914.4883 
   74000     295.2043   -17242.791    86.234899   -17329.026   -8719.5228 
   74200    285.99389   -17239.915    83.544358   -17323.459    -4403.484 
   74400    282.02991   -17240.659    82.386404   -17323.045    7449.5387 
   74600    300.22799   -17233.856    87.702415   -17321.559   -110.73484 
   74800    295.87484   -17230.817    86.430777   -17317.248     2657.494 
   75000    276.30693   -17247.942     80.71461   -17328.656   -5668.2678 
   75200    329.95575    -17236.57    96.386472   -17332.956    5292.4516 
   75400    248.63127   -17248.774    72.630014   -17321.404    8482.8786 
   75600    281.41256    -17234.07    82.206063   -17316.276    670.78817 
   75800    318.72352    -17237.31     93.10532   -17330.415   -2682.6522 
   76000    319.90965    -17239.32    93.451811   -17332.772   -3671.7599 
   76200    287.22883   -17244.999    83.905109   -17328.904   -2220.1152 
   76400     299.9812   -17252.133    87.630323   -17339.763   -791.68607 
   76600    284.13066   -17229.467    83.000073   -17312.467    8824.2228 
   76800    287.89838   -17250.868    84.100698   -17334.969    2788.5935 
   77000    308.98201   -17245.742    90.259635   -17336.002   -5482.3704 
   77200    276.60333   -17231.241    80.801194   -17312.042    186.88182 
   77400    291.93177   -17248.103    85.278929   -17333.382     6135.143 
   77600    292.18276   -17245.201    85.352248   -17330.553   -1226.7365 
   77800    263.39768   -17236.474    76.943568   -17313.417   -350.85617 
   78000    321.01742   -17240.637    93.775411   -17334.413    4681.7834 
   78200    279.63888   -17242.419    81.687937   -17324.107   -7761.2548 
   78400    328.73356   -17235.989    96.029445   -17332.019   -1.7737555 
   78600    284.86492    -17237.11    83.214566   -17320.325   -1956.9517 
   78800    275.86278   -17248.434    80.584866   -17329.019    2386.0225 
   79000    280.47597    -17246.41    81.932467   -17328.343   -1553.5886 
   79200    252.97379   -17233.203    73.898549   -17307.102    1436.0429 
   79400    300.85836   -17238.869    87.886559   -17326.755    13037.665 
   79600    291.47363   -17245.498    85.145097   -17330.643   -4462.3062 
   79800    328.11173   -17223.021    95.847796   -17318.869   -94.527589 
   80000    296.54893   -17237.282    86.627692    -17323.91    10187.268 
   80200    331.72548   -17226.721    96.903444   -17323.624    10962.173 
   80400    298.05855   -17210.739    87.068681   -17297.807    1715.7044 
   80600    304.62543   -17238.874    88.986993   -17327.861    576.83807 
   80800    291.34884   -17249.097    85.108644   -17334.206    833.47577 
   81000    335.43818   -17229.886    97.987995   -17327.874   -2011.4393 
   81200    298.01795   -17236.943    87.056819       -17324   -995.32907 
   81400    286.55498   -17249.797    83.708263   -17333.505    11143.889 
   81600     307.6745   -17226.129    89.877686   -17316.007    4822.8408 
   81800    289.80429    -17237.47    84.657452   -17322.127    1961.6103 
   82000    348.38933   -17232.199    101.77128   -17333.971   -9804.2729 
   82200    260.13379   -17247.096    75.990122   -17323.086     4199.641 
   82400    318.94231   -17224.395    93.169232   -17317.564   -4919.7657 
   82600    272.48539   -17249.904    79.598264   -17329.502   -7336.2121 
   82800    330.14422   -17239.368    96.441526   -17335.809   -2880.5304 
   83000    248.76816   -17257.145    72.670001   -17329.815   -13970.321 
   83200    309.87699   -17240.545    90.521076   -17331.066    -4577.245 
   83400    250.02929   -17245.624    73.038404   -17318.662    1106.1514 
   83600    337.71485    -17220.18    98.653055   -17318.833    2685.5529 
   83800    273.81744    -17240.04    79.987383   -17320.027   -8675.9365 
   84000    281.62115   -17240.205    82.266998   -17322.472    3732.1572 
   84200    317.50393   -17233.552    92.749053   -17326.301   -694.12082 
   84400    253.85872   -17251.916    74.157054   -17326.073   -7302.8141 
   84600     323.2818   -17226.474     94.43688   -17320.911    1490.2982 
   84800    293.71487   -17235.324    85.799809   -17321.124    3221.8108 
   85000    246.09271   -17262.645    71.888452   -17334.533    101.29785 
   85200    266.39856    -17246.84    77.820184    -17324.66    3019.4745 
   85400    275.65606    -17234.86    80.524478   -17315.385    1082.3757 
   85600    323.96056   -17232.993     94.63516   -17327.628    4620.2086 
   85800    281.63339   -17248.022    82.270573   -17330.293   -2879.5002 
   86000    307.51407    -17225.34     89.83082   -17315.171     3722.252 
   86200    318.68804   -17216.919    93.094953   -17310.014    961.99128 
   86400    282.40553   -17243.869    82.496128   -17326.365   -2435.5974 
   86600    301.07998   -17240.378    87.951298   -17328.329   -8614.8165 
   86800    310.03603   -17235.392    90.567534    -17325.96    7762.4664 
   87000    280.87041     -17255.5     82.04769   -17337.548    1285.6702 
   87200    282.68751   -17236.932    82.578501   -17319.511     8112.581 
   87400    294.72787   -17230.543    86.095725   -17316.639    2194.3271 
   87600    288.63269   -17258.179    84.315204   -17342.495    14908.666 
   87800    279.69667   -17242.947    81.704819   -17324.652    3597.6563 
   88000    288.16117   -17244.137    84.177464   -17328.314    12235.585 
   88200    273.06263   -17259.963    79.766886    -17339.73   -3178.2967 
   88400    325.58777   -17233.777    95.110498   -17328.888   -2421.4998 
   88600     275.3025   -17253.189    80.421198    -17333.61    5637.7355 
   88800    285.96587   -17233.136    83.536174   -17316.672    4650.2089 
   89000    301.87995   -17236.936    88.184985   -17325.121    2497.5731 
   89200     299.2283   -17232.798    87.410386   -17320.208    6316.0704 
   89400    258.70784   -17258.518    75.573575   -17334.092    2710.3246 
   89600    331.90861   -17242.329    96.956939   -17339.286   -150.18119 
   89800    292.56696   -17238.152    85.464481   -17323.617   -6428.7825 
   90000    274.55346   -17223.619    80.202387   -17303.821     1235.432 
   90200    298.33667   -17244.675    87.149925   -17331.825    6938.6621 
   90400    268.62357   -17248.789    78.470151   -17327.259   -4624.9698 
   90600    339.30473   -17225.667     99.11749   -17324.785   -12.767428 
   90800     305.9407   -17239.282    89.371209   -17328.653    2960.4492 
   91000    268.46119    -17243.55    78.422717   -17321.973   -12371.847 
   91200    348.35482   -17222.422     101.7612   -17324.183   -11234.517 
   91400    272.66754   -17248.196    79.651473   -17327.847   -2641.5945 
   91600    327.92424   -17232.798    95.793027   -17328.591   -8456.4106 
   91800    293.44855   -17230.353    85.722011   -17316.075    2967.2094 
   92000    303.66271   -17225.477    88.705765   -17314.183   -2302.4872 
   92200    282.43965   -17252.425    82.506097   -17334.931   -1091.9269 
   92400    308.26612   -17242.169     90.05051   -17332.219    15467.261 
   92600    310.18532   -17228.243    90.611145   -17318.854    -13780.23 
   92800     315.1749   -17233.906    92.068699   -17325.975    2500.0106 
   93000    298.09636   -17235.352    87.079725   -17322.432     514.7228 
   93200    305.62029   -17242.901     89.27761   -17332.178   -3159.1096 
   93400    262.46387   -17251.864    76.670783   -17328.535   -4910.9698 
   93600     293.4799   -17226.564    85.731168   -17312.295    5550.2977 
   93800    257.44783   -17245.343    75.205502   -17320.548    14286.438 
   94000    300.44995   -17245.461    87.767255   -17333.229    5297.7879 
   94200    308.01329   -17222.175    89.976651   -17312.151   -817.23412 
   94400    277.08398   -17242.391    80.941601   -17323.332   -3966.4164 
   94600    245.82286   -17247.706    71.809622   -17319.515   -4136.1194 
   94800    299.80299   -17232.686    87.578266   -17320.264   -2594.8115 
   95000    302.40739   -17228.623    88.339061   -17316.962   -4294.2041 
   95200    269.11337   -17253.264    78.613232   -17331.877   -1327.5876 
   95400    293.54025   -17233.952    85.748798     -17319.7    -2772.257 
   95600    272.19845   -17239.541    79.514443   -17319.056   -1334.8098 
   95800    311.86852   -17249.134    91.102841   -17340.237    -1533.247 
   96000    269.42281   -17255.838    78.703625   -17334.541    -3910.608 
   96200    289.97108   -17240.117    84.706174   -17324.823   -2454.3314 
   96400    293.54389    -17221.44    85.749861    -17307.19   -12623.162 
   96600    280.89235   -17236.543    82.054099   -17318.597   -2164.4028 
   96800    299.27721   -17248.076    87.424673     -17335.5     7116.017 
   97000    263.21299   -17260.079    76.889616   -17336.969    5724.6733 
   97200    315.30598   -17233.773     92.10699    -17325.88   -9539.1736 
   97400    305.05985   -17228.957    89.113895   -17318.071   -9073.4466 
   97600    260.72962    -17252.57    76.164175   -17328.734    7569.3986 
   97800    304.52772   -17233.826    88.958449   -17322.785    8800.8577 
   98000     289.3783   -17237.556     84.53301   -17322.089    13283.199 
   98200    308.74611    -17240.69    90.190724   -17330.881   -3900.3671 
   98400      292.904    -17238.01    85.562937   -17323.573    2366.3853 
   98600     341.8578   -17225.051     99.86329   -17324.914    3835.1327 
   98800    320.00646   -17248.482    93.480091   -17341.962    10180.387 
   99000     281.0884   -17238.059    82.111371   -17320.171   -1405.2332 
   99200    296.56796   -17233.505     86.63325   -17320.138    4129.2096 
   99400    258.90331   -17257.854    75.630675   -17333.484   -12469.595 
   99600    292.43441   -17245.153     85.42576   -17330.579    1120.4004 
   99800    331.00465   -17237.517    96.692874    -17334.21   -16544.189 
  100000     291.6106   -17257.163     85.18511   -17342.348    835.47981 
  100200    303.82617   -17251.366    88.753514    -17340.12   -3781.8168 
  100400    334.49373   -17231.497    97.712102    -17329.21    -1081.274 
  100600    354.76918   -17221.207    103.63495   -17324.842    -441.7236 
  100800     309.2661   -17249.237    90.342624    -17339.58    5537.3065 
  101000    272.12851   -17246.369    79.494012   -17325.863   -4859.0773 
  101200    316.27339   -17231.488    92.389587   -17323.878     2040.518 
  101400    259.49377   -17249.856     75.80316    -17325.66    -11651.97 
  101600    307.41126   -17230.467    89.800789   -17320.268    4288.4808 
  101800    313.50561   -17230.988    91.581065   -17322.569   -6072.5328 
  102000    280.79266   -17245.672    82.024978   -17327.697    3881.9414 
  102200    264.04272   -17267.007    77.131996   -17344.139    6890.7924 
  102400    284.99552   -17243.384    83.252717   -17326.637    3149.2827 
  102600    251.10392   -17238.408    73.352323    -17311.76    9595.6626 
  102800    325.06863   -17229.888    94.958847   -17324.847    11671.865 
  103000    331.56617   -17230.798    96.856905   -17327.655   -6375.0526 
  103200    257.10822   -17254.781    75.106296   -17329.887    -11498.91 
  103400    351.12428   -17234.508    102.57021   -17337.079   -6619.9059 
  103600    283.08047   -17231.416    82.693294    -17314.11    1410.4203 
  103800    258.85135   -17251.122    75.615498   -17326.738    6187.7584 
  104000     314.5646   -17252.731    91.890417   -17344.622   -7049.8376 
  104200    346.33225   -17232.249    101.17036   -17333.419    4615.4904 
  104400    285.94586   -17248.366    83.530329   -17331.897    -841.0837 
  104600    281.60605   -17263.299    82.262585   -17345.561    1186.2321 
  104800    289.54729   -17231.842    84.582375   -17316.425   -18959.746 
  105000    318.05314   -17231.639    92.909489   -17324.548    8463.1133 
  105200    275.95126    -17249.14    80.610712   -17329.751   -12155.845 
  105400    324.36578    -17227.29    94.753531   -17322.043   -2863.4933 
  105600    303.60143   -17231.954    88.687862   -17320.642   -5316.3536 
  105800    265.75064   -17244.344    77.630914   -17321.975    4827.0183 
  106000    320.00149   -17225.935    93.478639   -17319.414    2048.9778 
  106200    313.26017   -17235.743    91.509368   -17327.253   -3250.8144 
  106400    270.86636    -17246.25    79.125315   -17325.375    15241.652 
  106600    314.47363    -17225.37    91.863845   -17317.234    10869.298 
  106800    264.79139   -17234.883    77.350698   -17312.234    7740.6657 
  107000    292.80475   -17242.745    85.533944   -17328.279   -1194.0276 
  107200    288.61136   -17233.509    84.308974   -17317.818   -7145.4221 
  107400    314.38306    -17220.29    91.837385   -17312.128   -5556.4477 
  107600    290.02828   -17248.743    84.722884   -17333.466    6800.8917 
  107800    281.54017   -17244.458    82.243341   -17326.702   -1352.7344 
  108000    309.91773   -17229.418    90.532976    -17319.95    8476.9343 
  108200    314.71378   -17233.586    91.933996    -17325.52   -6517.0788 
  108400    281.85476   -17253.306     82.33524   -17335.641    424.86932 
  108600    337.42711   -17233.375       98.569   -17331.944    16606.003 
  108800     293.7013     -17251.6    85.795842   -17337.396    9706.5634 
  109000    282.98809     -17245.7    82.666307   -17328.366    5937.3732 
  109200    344.35127   -17228.695    100.59168   -17329.287    4354.5835 
  109400    291.59483   -17245.656    85.180503   -17330.837   -2815.8468 
  109600    288.83729    -17245.98    84.374971   -17330.355   -5800.0427 
  109800    338.92147    -17229.95    99.005532   -17328.956    3777.6181 
  110000    261.62658   -17253.048    76.426197   -17329.474    4845.4022 
  110200    326.31264   -17240.597    95.322249   -17335.919   -5246.8749 
  110400    327.66561   -17225.889    95.717476   -17321.607   -7710.3939 
  110600    271.95025   -17252.263    79.441941   -17331.705   -8292.1528 
  110800    294.94707   -17244.059    86.159757   -17330.218   -9988.9653 
  111000     334.4085   -17219.352    97.687206   -17317.039   -3387.4051 
  111200    295.87814    -17232.24    86.431741   -17318.672    12178.584 
  111400    302.38799   -17243.143    88.333394   -17331.477    -8790.181 
  111600    370.49759   -17221.388    108.22953   -17329.617    163.77551 
  111800    265.24277   -17240.576    77.482554   -17318.059    510.28767 
  112000    333.90208    -17229.75    97.539271   -17327.289    -4219.391 
  112200    283.96454   -17244.485    82.951548   -17327.436    8310.2822 
  112400    304.62233   -17240.591    88.986088   -17329.577    700.08791 
  112600    329.44245   -17231.258    96.236526   -17327.495   -918.52667 
  112800    245.78559   -17257.877    71.798735   -17329.676    11331.818 
  113000    305.49675   -17244.326    89.241522   -17333.567   -4828.2191 
  113200    318.18861   -17232.929     92.94906   -17325.878    5531.1646 
  113400    274.80009   -17259.449    80.274432   -17339.723    2309.7189 
  113600    304.63014   -17245.321     88.98837   -17334.309    2544.5576 
  113800    303.30226   -17234.468     88.60047   -17323.068   -183.29649 
  114000    290.17511    -17245.05    84.765775   -17329.816    -3072.557 
  114200    289.90147   -17250.012    84.685838   -17334.697   -5468.2527 
  114400    318.80027   -17230.086    93.127739   -17323.214    5299.2828 
  114600     284.3939   -17242.933    83.076972    -17326.01    8175.9013 
  114800    334.14638   -17248.895    97.610635   -17346.506   -1959.1276 
  115000    287.22047   -17240.979    83.902668   -17324.882     2309.867 
  115200    274.53997   -17240.233    80.198448   -17320.431    2150.8663 
  115400    293.46142   -17250.609    85.725769   -17336.334      4195.44 
  115600    275.36809    -17250.64    80.440356    -17331.08   -7155.9676 
  115800     313.2517   -17234.778    91.506895   -17326.285   -1462.1261 
  116000    251.90204   -17250.815     73.58547     -17324.4    1230.3673 
  116200    311.45041    -17236.65    90.980701   -17327.631   -12461.837 
  116400    306.73009   -17218.013    89.601804   -17307.615    2559.1971 
  116600    303.13116   -17239.096    88.550487   -17327.646   -3930.6153 
  116800     267.6551   -17248.824    78.187244   -17327.011   -9378.4042 
  117000    277.06673   -17236.182    80.936562   -17317.118    4753.7588 
  117200    310.34097   -17246.023    90.656614   -17336.679     427.5868 
  117400    307.30462   -17233.427    89.769637   -17323.197    7601.5228 
  117600    313.24611    -17231.21    91.505262   -17322.715    1306.2876 
  117800    292.98811   -17240.844    85.587507   -17326.431    13996.395 
  118000    362.36508   -17213.768    105.85386   -17319.622   -820.75386 
  118200    306.46149   -17236.831    89.523341   -17326.355    12059.683 
  118400    307.97528   -17235.157    89.965549   -17325.122    2582.9944 
  118600    307.68144   -17250.387    89.879713   -17340.267    12226.505 
  118800    306.95518   -17238.518    89.667557   -17328.185   -6376.7876 
  119000    315.58538   -17229.855    92.188607   -17322.044   -81.465612 
  119200    252.22648   -17248.681    73.680244   -17322.361   -358.06795 
  119400    245.76869   -17270.253      71.7938   -17342.047    1857.8716 
  119600     295.1102    -17243.02    86.207409   -17329.228    8425.6168 
  119800    350.87489   -17225.681    102.49736   -17328.179    815.94239 
  120000    272.73632    -17249.99    79.671566   -17329.661    -11941.13 
  120200     307.2276   -17240.116    89.747137   -17329.863    5525.1493 
  120400     311.3902   -17234.088    90.963113   -17325.051   -12301.312 
  120600    282.10063   -17257.991    82.407062   -17340.398   -7057.6793 
  120800    301.24003   -17238.859    87.998053   -17326.857   -2951.5373 
  121000    283.29474   -17247.842    82.755886   -17330.598   -1958.2159 
  121200    288.42055   -17251.995    84.253233   -17336.248   -4056.6811 
  121400    329.94002   -17233.341    96.381875   -17329.722    2691.4119 
  121600    281.76849   -17252.577    82.310037   -17334.887   -493.97876 
  121800    313.94579   -17227.268     91.70965   -17318.977    12004.005 
  122000    308.13755   -17223.327    90.012951    -17313.34   -8765.0399 
  122200    287.85617   -17245.802    84.088367   -17329.891     11981.24 
  122400    306.25664   -17241.056    89.463503    -17330.52   -3787.7154 
  122600    310.39466   -17224.934    90.672296   -17315.607   -8944.8371 
  122800    273.10566   -17243.711    79.779459    -17323.49    3810.8819 
  123000    307.90897   -17235.531    89.946178   -17325.477   -1979.9272 
  123200    344.24881   -17224.798    100.56175   -17325.359    9853.9372 
  123400    278.59659   -17248.703    81.383463   -17330.086   -3866.5419 
  123600    303.80807   -17230.705    88.748226   -17319.454   -5299.0371 
  123800     342.2146   -17230.568     99.96752   -17330.536    5625.6353 
  124000    251.48422   -17250.904    73.463417   -17324.367    2638.4511 
  124200    260.71938   -17265.064    76.161186   -17341.225    10309.303 
  124400    305.99288   -17244.277    89.386451   -17333.663   -8014.0168 
  124600    284.82475   -17228.742    83.202831   -17311.945   -805.00071 
  124800    319.71417   -17229.075    93.394706   -17322.469     1325.973 
  125000    297.32735   -17248.308    86.855083   -17335.163    5630.0437 
  125200    322.95381   -17236.645    94.341069   -17330.986    6870.4518 
  125400    314.23366   -17227.788    91.793745   -17319.581    -6910.368 
  125600    280.24527   -17248.989    81.865077   -17330.854    -9401.152 
  125800    292.83659   -17239.187    85.543246   -17324.731    6872.9473 
  126000    303.40773   -17239.509     88.63128   -17328.141    7225.0075 
  126200    283.17085   -17244.079    82.719695   -17326.798    8230.8907 
  126400    286.46067   -17237.216    83.680715   -17320.897   -554.05352 
  126600    321.06247   -17228.034     93.78857   -17321.823    2458.8547 
  126800    299.59319   -17249.808    87.516978   -17337.325   -6950.3551 
  127000    317.84047   -17244.567    92.847364   -17337.414   -857.84926 
  127200    287.55862   -17240.025    84.001446   -17324.027   -3747.0671 
  127400    307.10671   -17215.255    89.711824   -17304.967   -363.11004 
  127600    328.81024   -17221.628    96.051844   -17317.679     8667.064 
  127800    282.48577    -17241.27     82.51957    -17323.79   -257.65239 
  128000    291.20323   -17245.899    85.066107   -17330.965   -56.267014 
  128200    304.18378    -17225.63    88.857977   -17314.488    1723.6083 
  128400    293.80076   -17242.928    85.824898   -17328.753   -389.80593 
  128600    291.82276   -17243.417    85.247086   -17328.664    663.70471 
  128800    260.72392   -17239.821    76.162512   -17315.983    3902.9006 
  129000    315.18279   -17214.337    92.071004   -17306.408    6363.2173 
  129200    299.24177   -17241.133    87.414323   -17328.548   -2247.0354 
  129400    320.24051   -17233.239    93.548461   -17326.788    1357.4502 
  129600    296.13985   -17242.284    86.508192   -17328.792     6231.109 
  129800    267.55837   -17264.574    78.158987   -17342.733    -1728.721 
  130000    279.32411    -17246.89    81.595987   -17328.486   -15628.645 
  130200     339.1524   -17227.989    99.072991   -17327.062   -5620.9683 
  130400    272.26675   -17247.859    79.534395   -17327.393    10962.159 
  130600    261.49046    -17262.29    76.386433   -17338.677   -11085.088 
  130800     313.6914   -17233.669    91.635339   -17325.304   -1438.0925 
  131000    261.03694   -17236.347    76.253949   -17312.601   -13343.482 
  131200    286.89443   -17260.085    83.807426   -17343.893    13370.699 
  131400    270.58131   -17247.437    79.042045   -17326.479   -4297.6085 
  131600    304.83998   -17239.023    89.049668   -17328.073   -5984.5978 
  131800     277.3247   -17243.268    81.011921    -17324.28    15204.249 
  132000    323.46183     -17222.9    94.489471   -17317.389   -6873.7293 
  132200    289.20358   -17242.783    84.481972   -17327.265    -10872.59 
  132400    331.14107   -17242.135    96.732725   -17338.868    6612.1797 
  132600    340.42433   -17235.517    99.444547   -17334.962    3828.0847 
  132800    323.61877   -17230.047    94.535317   -17324.583   -5467.7342 
  133000     289.9196   -17249.634    84.691135   -17334.325    482.37646 
  133200     273.0671   -17265.766    79.768192   -17345.534   -1997.6499 
  133400    330.35992   -17240.134    96.504536   -17336.639   -785.58565 
  133600    293.40489   -17228.682    85.709256   -17314.392    9464.5444 
  133800    263.50456   -17252.105    76.974789    -17329.08    -4220.529 
  134000    327.71835    -17238.89    95.732882   -17334.623    -3475.815 
  134200    311.89957   -17239.701    91.111911   -17330.813    4645.5531 
  134400     271.0062   -17255.512    79.166164   -17334.678   -2208.7104 
  134600    332.41908   -17232.892    97.106056   -17329.999    9156.2733 
  134800    330.94971   -17233.956    96.676827   -17330.632    2320.6462 
  135000     282.9855   -17237.658     82.66555   -17320.324   -871.73221 
  135200    276.46759   -17238.117    80.761541   -17318.878    8703.6755 
  135400     256.9093   -17253.813    75.048187   -17328.861   -1839.4786 
  135600     277.8758   -17245.956    81.172908   -17327.129    8326.7438 
  135800    317.92072   -17225.364    92.870805   -17318.234   -4013.6137 
  136000    344.70521   -17231.083    100.69507   -17331.778    7960.1054 
  136200    265.21801   -17245.735    77.475323    -17323.21    1367.1726 
  136400    333.37052   -17225.606     97.38399    -17322.99   -8316.6298 
  136600    319.29943    -17234.55    93.273552   -17327.823    4088.3684 
  136800    346.17655    -17237.29    101.12488   -17338.415   -14188.653 
  137000    267.77356    -17251.98    78.221849   -17330.202    2310.7302 
  137200    306.91674   -17236.946     89.65633   -17326.603    1635.3848 
  137400    268.85654   -17242.915    78.538207   -17321.453   -1.6409017 
  137600    263.79428   -17258.324    77.059424   -17335.383   -11676.154 
  137800    322.35158   -17236.879    94.165144   -17331.044    3748.1426 
  138000    299.47293    -17241.37    87.481847   -17328.852    1491.7779 
  138200    315.85791   -17234.001    92.268218    -17326.27   -5746.6995 
  138400    313.02149   -17224.862    91.439646   -17316.302     4439.486 
  138600    294.03364   -17251.129    85.892926   -17337.022   -4917.2711 
  138800    318.58759   -17240.784     93.06561    -17333.85    1439.2891 
  139000    301.84249   -17239.091    88.174041   -17327.265   -6293.5722 
  139200    314.71856   -17224.925    91.935391   -17316.861   -7741.6017 
  139400    311.86989   -17240.103    91.103241   -17331.207   -16036.192 
  139600    316.94256   -17241.498    92.585066   -17334.083    7249.1737 
  139800    265.24837   -17251.025    77.484191   -17328.509   -4945.0944 
  140000    282.32502   -17230.853    82.472611   -17313.325    8663.1503 
  140200    337.25486   -17211.055    98.518682   -17309.574    3728.3912 
  140400    277.74417   -17237.754    81.134456   -17318.889    1883.3157 
  140600      284.129   -17250.542     82.99959   -17333.541   -3424.5748 
  140800    319.20046   -17226.062    93.244642   -17319.306    -1462.004 
  141000    284.96903   -17233.497    83.244977   -17316.742   -11595.602 
  141200    307.92816   -17240.659    89.951786    -17330.61    10992.417 
  141400    297.76977   -17244.148    86.984323   -17331.133    13090.866 
  141600    340.90384   -17238.115     99.58462   -17337.699    -9929.169 
  141800     257.1551   -17264.473    75.119988   -17339.593   -9631.6358 
  142000    261.34968   -17249.762    76.345308   -17326.107    3978.1516 
  142200     313.3041   -17231.455      91.5222   -17322.977   -2213.7763 
  142400    273.22919   -17248.737    79.815542   -17328.553    5505.1102 
  142600    277.73132   -17246.092    81.130701   -17327.223    3046.9367 
  142800     337.8529   -17222.397    98.693381   -17321.091   -6488.1579 
  143000    259.46089   -17245.159    75.793555   -17320.952    8290.6061 
  143200    327.15878   -17242.908    95.569423   -17338.478    -4492.058 
  143400     331.5175   -17216.815    96.842688   -17313.657    2004.6367 
  143600    285.58577   -17241.845    83.425138    -17325.27    704.79876 
  143800    296.89951   -17239.574    86.730103   -17326.304    7407.8214 
  144000    277.34231   -17250.666    81.017064   -17331.683   -12439.026 
  144200    295.14867   -17239.263    86.218649   -17325.482    9107.6752 
  144400    329.12973   -17217.384    96.145175   -17313.529   -4579.3021 
  144600    272.49456   -17237.837    79.600943   -17317.438   -7315.3081 
  144800    282.52577   -17249.877    82.531254   -17332.409     5763.119 
  145000    317.77871   -17230.847    92.829323   -17323.676    3188.1686 
  145200    313.56969   -17230.495    91.599784   -17322.094     8946.931 
  145400    284.62391   -17244.934     83.14416   -17328.079   -5458.6718 
  145600    286.05298   -17237.944    83.561622   -17321.505   -3863.9433 
  145800    334.68591   -17230.738    97.768244   -17328.506   -14379.525 
  146000    290.07411   -17248.979    84.736271   -17333.715    -5784.783 
  146200    303.49077   -17244.242    88.655537   -17332.898   -7655.2836 
  146400    323.83978   -17225.355    94.599877   -17319.955    5788.5671 
  146600    304.38092   -17246.466    88.915567   -17335.381   -5847.5181 
  146800    318.46234   -17236.592    93.029023   -17329.621   -2824.1325 
  147000    384.08508   -17214.731     112.1987   -17326.929    1281.3022 
  147200    280.19132   -17236.815    81.849315   -17318.664    300.76137 
  147400    337.22676   -17238.844    98.510474   -17337.355    9076.9246 
  147600    262.80315   -17248.139    76.769895   -17324.909    5994.2258 
  147800    296.34238   -17241.143    86.567355   -17327.711   -7360.9634 
  148000    304.85005   -17232.654    89.052609   -17321.706     708.3659 
  148200    279.48028   -17233.199    81.641609    -17314.84   -1713.7576 
  148400    316.44104   -17237.905    92.438561   -17330.343   -3571.1716 
  148600    258.00355   -17267.259    75.367839   -17342.626   -8923.5165 
  148800    279.43019   -17250.126    81.626975   -17331.753     2852.799 
  149000    306.64949   -17225.077    89.578262   -17314.655   -131.63801 
  149200    308.82096   -17239.472    90.212589   -17329.684    4684.4653 
  149400    263.65424   -17247.373    77.018514   -17324.391   -8067.6884 
  149600    307.32889   -17234.071    89.776727   -17323.848   -3113.4897 
  149800    273.31935    -17242.82     79.84188   -17322.662   -10509.604 
  150000    333.08734   -17237.067    97.301268   -17334.368   -3315.7979 
  150200    316.87268   -17235.094    92.564652   -17327.658     9489.314 
  150400    275.28018   -17247.152    80.414678   -17327.567   -3982.6399 
  150600    323.30969   -17226.348    94.445028   -17320.793    7662.9299 
  150800    268.58337   -17235.221     78.45841    -17313.68   -6380.5157 
  151000    294.70424    -17228.41    86.088821   -17314.499    712.51513 
  151200    311.43743   -17234.717    90.976909   -17325.694   -19404.793 
  151400    240.51996   -17251.781    70.260544   -17322.041    11529.333 
  151600    313.03769   -17228.865    91.444379    -17320.31    3420.2931 
  151800    284.26294   -17235.775    83.038715   -17318.814    9191.6054 
  152000    280.49896   -17242.227    81.939184   -17324.166    759.39014 
  152200    307.27591   -17233.608    89.761249   -17323.369      -6505.5 
  152400     301.3072   -17237.265    88.017673   -17325.283   -2301.4118 
  152600    258.48284   -17241.543    75.507847   -17317.051   -1544.5024 
  152800    347.03848   -17223.215    101.37667   -17324.591    2796.6568 
  153000    314.65014   -17241.934    91.915405   -17333.849    3207.3989 
  153200    285.53715   -17243.546    83.410937   -17326.957    3050.8013 
  153400     329.1369   -17225.051    96.147268   -17321.198    712.14709 
  153600    298.12769    -17228.51    87.088878   -17315.599   -4085.0222 
  153800    280.28605    -17246.38    81.876989   -17328.257    1244.4515 
  154000    323.68643   -17237.403     94.55508   -17331.958    1936.8369 
  154200    264.95701   -17261.865    77.399078   -17339.264    3122.9063 
  154400    261.81151   -17254.509    76.480217    -17330.99   -9931.6666 
  154600    296.52886   -17233.211    86.621829   -17319.833   -8150.4324 
  154800    258.58548   -17235.643    75.537833   -17311.181    4737.9958 
  155000    268.93707   -17259.423    78.561733   -17337.985   -5266.3608 
  155200    299.85309   -17244.772    87.592901   -17332.365   -1286.3728 
  155400    298.49497    -17234.27    87.196168   -17321.466    7220.1799 
  155600     334.1268   -17210.455    97.604915    -17308.06    5398.4436 
  155800    305.69372   -17236.367    89.299062   -17325.666    5748.1609 
  156000    299.00799   -17243.278    87.346031   -17330.624   -4105.7628 
  156200    250.85419   -17252.214    73.279373   -17325.494   -987.87113 
  156400    301.60966   -17230.419    88.106028   -17318.525      283.483 
  156600    319.72595   -17231.981    93.398148   -17325.379   -2085.1416 
  156800    305.51677   -17242.938    89.247372   -17332.186    7562.2895 
  157000    331.22617   -17230.942    96.757585     -17327.7   -9416.4487 
  157200    281.20841   -17243.785    82.146427   -17325.931   -587.27416 
  157400    281.60822   -17242.944    82.263221   -17325.207   -1617.9901 
  157600    307.51215   -17231.482    89.830259   -17321.312    9408.5677 
  157800    333.86149   -17233.686    97.527412   -17331.214   -1897.6324 
  158000    281.63337    -17251.99    82.270567   -17334.261   -2083.1129 
  158200    356.15857    -17221.32    104.04082    -17325.36    -2212.757 
  158400    300.97954   -17242.542    87.921957   -17330.464   -12893.793 
  158600    249.70186   -17249.786    72.942754   -17322.729   -3001.7234 
  158800    337.65355   -17225.411    98.635146   -17324.046   -2507.5151 
  159000    250.41154   -17244.599    73.150064   -17317.749   -2732.9367 
  159200    299.54287   -17241.403    87.502278   -17328.906   -1550.0288 
  159400    282.33224   -17232.412    82.474721   -17314.887    6537.5841 
  159600    288.53203   -17247.193      84.2858   -17331.478   -5165.8869 
  159800    313.75214   -17221.848    91.653081   -17313.501    8108.2004 
  160000    287.49904   -17240.228    83.984043   -17324.212   -9698.4406 
  160200      284.841   -17247.116    83.207577   -17330.324    1735.1596 
  160400    289.90745   -17220.635    84.687585   -17305.323    528.55075 
  160600    281.87531   -17236.308    82.341243   -17318.649    3912.2912 
  160800    298.80369   -17235.622    87.286351   -17322.909   -6658.9596 
  161000    362.96189   -17218.975    106.02821   -17325.004   -7317.2551 
  161200    263.32988   -17241.402    76.923761   -17318.326     13427.29 
  161400    294.27661   -17252.208    85.963901   -17338.172    216.94605 
  161600    332.96621   -17220.122    97.265884   -17317.388    3285.1277 
  161800    297.21016   -17234.143    86.820848   -17320.964    15274.754 
  162000    284.12809   -17250.692    82.999323   -17333.692    1199.7767 
  162200    253.23082   -17265.862     73.97363   -17339.836    1867.2276 
  162400    304.30142   -17237.849    88.892345   -17326.741    3835.7009 
  162600    285.46792   -17234.252    83.390714   -17317.643    4738.7173 
  162800    264.31855   -17256.448    77.212573    -17333.66   -1735.7055 
  163000    304.95595    -17241.17    89.083545   -17330.254   -3635.7667 
  163200    318.32565   -17229.526    92.989093   -17322.515   -6162.1355 
  163400    289.59749    -17252.12     84.59704   -17336.717    4602.0589 
  163600    301.48675   -17249.199    88.070125   -17337.269    16570.244 
  163800    312.57319   -17240.223    91.308689   -17331.531    5390.4486 
  164000     314.0847    -17225.58    91.750229    -17317.33    5104.1418 
  164200    268.44116   -17249.096    78.416868   -17327.513   -4081.3775 
  164400    276.64872   -17246.413    80.814455   -17327.227    -2850.521 
  164600    296.01275   -17228.384    86.471062   -17314.855    130.59436 
  164800    292.27661   -17237.522    85.379663   -17322.902    3014.7249 
  165000    272.31448   -17250.119    79.548339   -17329.668   -7854.2693 
  165200    288.20636   -17236.848    84.190665   -17321.039    4650.4623 
  165400    283.75337   -17224.739     82.88986   -17307.629    12034.237 
  165600    315.89939   -17237.661    92.280335   -17329.941    -6787.048 
  165800    287.54169   -17246.128    83.996502   -17330.125    7794.2641 
  166000     303.7575   -17239.077    88.733454    -17327.81    -833.2068 
  166200    325.49988   -17225.942    95.084824   -17321.027   -6825.2708 
  166400    308.83533   -17244.661    90.216786   -17334.878   -9682.0212 
  166600    359.55036   -17236.934    105.03163   -17341.966    1057.6578 
  166800     317.7266   -17208.647    92.814099   -17301.461    12602.444 
  167000    273.09697   -17238.554     79.77692   -17318.331    8758.2906 
  167200     256.6135    -17245.58    74.961777   -17320.541    -10411.83 
  167400     345.5566    -17220.09    100.94378   -17321.034    4599.7404 
  167600    302.28971   -17230.933    88.304684   -17319.238    3978.1989 
  167800     268.7941   -17246.283    78.519968   -17324.803   -6804.0851 
  168000    261.61821    -17259.05    76.423752   -17335.473    19783.439 
  168200    283.63131   -17236.568    82.854205   -17319.422   -1948.3698 
  168400    295.58903   -17240.344    86.347285   -17326.691   -4289.4555 
  168600     246.6043   -17258.757    72.037897   -17330.795   -2265.0527 
  168800    284.74686    -17235.79    83.180078   -17318.971    2853.5946 
  169000     280.7483   -17238.247    82.012022   -17320.259   -610.92762 
  169200    307.59467   -17258.823    89.854367   -17348.677   -1689.3931 
  169400    266.76522   -17257.581    77.927291   -17335.508    7770.6835 
  169600    311.62207   -17234.276    91.030848   -17325.307   -3073.2152 
  169800    389.43438   -17221.481    113.76133   -17335.242   -3268.4384 
  170000    298.30831   -17245.317    87.141641   -17332.459    5966.1449 
  170200    287.41996   -17238.239    83.960942     -17322.2   -4853.9359 
  170400    273.15303   -17229.061    79.793296   -17308.854    5342.3713 
  170600    256.37035   -17249.579    74.890749    -17324.47    -1042.921 
  170800    300.96224   -17227.359    87.916903   -17315.276   -7066.4856 
  171000    331.85735   -17235.066    96.941964   -17332.008   -3238.1501 
  171200    285.83107   -17244.172    83.496796   -17327.669   -2662.6551 
  171400    329.40216   -17216.434    96.224757   -17312.659   -2521.1008 
  171600    296.26095   -17226.249    86.543568   -17312.792   -9935.7877 
  171800    318.81893   -17239.996    93.133188   -17333.129    5106.7162 
  172000    287.71729   -17243.064    84.047799   -17327.112    3790.9678 
  172200    343.88896   -17217.597    100.45663   -17318.054    2063.7796 
  172400    292.77772   -17240.164    85.526047    -17325.69    4568.4115 
  172600    313.89255   -17237.924    91.694099   -17329.618   -3850.8639 
  172800    292.83342   -17248.484     85.54232   -17334.026    5264.6987 
  173000      336.638   -17238.898    98.338485   -17337.237   -12567.388 
  173200    297.76474   -17229.598    86.982852   -17316.581   -9012.4967 
  173400    267.16224   -17259.171    78.043269   -17337.214    -6005.842 
  173600    318.73746   -17238.571    93.109392    -17331.68   -16409.401 
  173800    303.87132   -17232.848    88.766703   -17321.615    3775.5997 
  174000    278.97316    -17252.94    81.493468   -17334.433   -52.170679 
  174200    343.25335   -17238.877    100.27096   -17339.148   -5958.4047 
  174400     290.5163   -17236.212    84.865442   -17321.078    3140.1057 
  174600    320.24638   -17235.824    93.550176   -17329.374    14688.476 
  174800    256.14188   -17246.481    74.824008   -17321.305   -1474.9743 
  175000    305.51383   -17235.058    89.246512   -17324.304    14844.148 
  175200    318.83365   -17229.169    93.137488   -17322.307    10398.979 
  175400    268.31002   -17243.361    78.378559    -17321.74    4199.8598 
  175600    348.48243   -17225.065    101.79847   -17326.864    -2375.117 
  175800    280.48308   -17227.729    81.934545   -17309.664   -7502.5696 
  176000    283.77261   -17236.741    82.895481   -17319.637    2311.4276 
  176200    303.46407   -17259.785    88.647737   -17348.433   -4855.5164 
  176400    297.83951   -17231.095    87.004693     -17318.1    15425.848 
  176600    275.50472   -17247.926    80.480269   -17328.406    6805.3731 
  176800    285.68379   -17234.844    83.453774   -17318.298    104.80896 
  177000    289.99249   -17237.742    84.712429   -17322.455    7630.2791 
  177200    285.95803   -17245.106    83.533883    -17328.64   -4303.4493 
  177400    328.44778   -17235.315    95.945962   -17331.261     9422.823 
  177600     264.1248   -17260.609    77.155975   -17337.765    9319.5119 
  177800    321.00175   -17232.422    93.770835   -17326.193   -1154.9656 
  178000    258.81667   -17239.673    75.605365   -17315.278   -378.62344 
  178200    288.21507    -17246.64    84.193209   -17330.834    6719.2463 
  178400    285.07936   -17252.052    83.277208   -17335.329    2246.5457 
  178600    310.06967    -17230.54     90.57736   -17321.117    6920.5044 
  178800    292.61113   -17246.654    85.477383   -17332.131   -1997.6453 
  179000    321.46569   -17235.222    93.906358   -17329.129    11344.308 
  179200    314.16167   -17243.188    91.772713   -17334.961    -5158.618 
  179400    271.24514   -17235.121    79.235962   -17314.357   -2447.6031 
  179600    324.45626   -17224.887    94.779964   -17319.667   -828.95115 
  179800    262.36597   -17241.182    76.642186   -17317.825   -4696.4807 
  180000    243.09893   -17252.347    71.013911   -17323.361    10257.222 
  180200    282.29346   -17260.024    82.463392   -17342.487   -10.252769 
  180400    288.90217   -17235.615    84.393925   -17320.009    9216.5667 
  180600    316.09549   -17225.275     92.33762   -17317.612    626.95353 
  180800    303.35574   -17247.139    88.616093   -17335.755   -4945.7827 
  181000     314.0047   -17239.162    91.726859   -17330.889    12828.167 
  181200    337.81073   -17230.853    98.681062   -17329.534     11740.95 
[...]
  950000    304.11959   -17238.177    88.839226   -17327.016   -2790.1748 
  950200    306.34944   -17249.249    89.490609    -17338.74   -195.07802 
  950400     300.1276   -17237.795    87.673091   -17325.468    8395.3768 
  950600    286.10388   -17223.829    83.576489   -17307.406    2398.6468 
  950800     268.9524   -17243.229     78.56621   -17321.795    3625.8476 
  951000    314.53106   -17243.948    91.880619   -17335.829    11561.221 
  951200      294.112   -17224.736    85.915816   -17310.652   -3977.5441 
  951400     333.8725   -17233.981    97.530628   -17331.512    9171.9839 
  951600    296.19499   -17246.782    86.524298   -17333.307   -9043.4669 
  951800     307.6489   -17230.006    89.870209   -17319.876    3483.2167 
  952000    326.92713   -17222.759    95.501752   -17318.261    4275.4941 
  952200    275.60424   -17242.049    80.509342   -17322.559   -8271.7145 
  952400    306.49177   -17238.637    89.532188   -17328.169    2290.9009 
  952600    316.34139    -17217.06    92.409453    -17309.47   -595.91067 
  952800    285.61622   -17243.545    83.434034   -17326.979    9942.7837 
  953000    301.07538   -17239.433    87.949954   -17327.383    3954.8059 
  953200    339.76006   -17221.381    99.250499   -17320.632   -1005.9161 
  953400    302.96824   -17243.375    88.502895   -17331.877   -1089.2396 
  953600     306.1388   -17238.961    89.429077    -17328.39    741.52278 
  953800    330.10872   -17230.531    96.431156   -17326.962   -1684.3824 
  954000    272.59183   -17246.636    79.629359   -17326.265    9125.6136 
  954200    330.80734   -17225.924    96.635238   -17322.559   -2289.3704 
  954400    274.31621   -17229.217    80.133082    -17309.35    6858.2876 
  954600      275.335   -17250.379    80.430691    -17330.81     2224.108 
  954800    349.18559   -17230.474    102.00388   -17332.478    4955.4407 
  955000    366.73032   -17206.555    107.12903   -17313.684    1134.4614 
  955200    315.17727   -17236.369     92.06939   -17328.438   -10331.313 
  955400    291.84697   -17246.615    85.254158   -17331.869   -9506.8793 
  955600    279.76482   -17235.391    81.724726   -17317.116     6800.353 
  955800    276.69852   -17228.975    80.829002   -17309.804     6012.917 
  956000    280.34604    -17249.81    81.894514   -17331.704    6811.0668 
  956200    298.85873   -17236.674    87.302429   -17323.977    267.42351 
  956400    301.04288   -17237.783    87.940462   -17325.723    -1887.258 
  956600    272.11538   -17255.313    79.490177   -17334.803    1121.9688 
  956800    310.98727    -17233.85    90.845411   -17324.696   -7991.3474 
  957000    285.89861    -17233.54    83.516526   -17317.056   -4731.3428 
  957200    298.98087   -17255.046    87.338109   -17342.384   -5617.5066 
  957400     324.0523   -17233.459     94.66196   -17328.121    377.13805 
  957600    282.96928   -17239.861    82.660811   -17322.522   -18027.356 
  957800    249.60458   -17261.459    72.914335   -17334.374     1848.358 
  958000     310.1004   -17244.146    90.586338   -17334.732    146.38234 
  958200    295.48556   -17237.871    86.317061   -17324.188    192.53876 
  958400    309.27904    -17215.45    90.346402   -17305.796   -1351.2131 
  958600    326.40989   -17221.036    95.350656   -17316.387    3554.3686 
  958800    306.90626   -17242.956    89.653267   -17332.609    775.52872 
  959000    283.62351   -17250.497    82.851924   -17333.349   -7389.3587 
  959200    297.74108   -17226.801    86.975942   -17313.777    8797.2104 
  959400    317.59717   -17240.134    92.776291    -17332.91    1576.3716 
  959600    303.77207   -17247.941    88.737711   -17336.678    9521.0722 
  959800     285.5334   -17218.201    83.409841   -17301.611   -4877.1913 
  960000    274.21344   -17238.106    80.103062   -17318.209    -1326.425 
  960200    311.09292   -17249.644    90.876272    -17340.52   -3624.3765 
  960400     308.3909   -17228.341    90.086961   -17318.428    7717.5583 
  960600    277.39029    -17234.37    81.031082   -17315.401    1989.2722 
  960800    286.30376   -17255.721    83.634879   -17339.356    -706.8234 
  961000    275.93648   -17246.691    80.606396   -17327.298    6479.2996 
  961200     307.8205   -17228.985    89.920336   -17318.905     737.4936 
  961400    279.40985   -17247.526    81.621034   -17329.147    10654.268 
  961600    274.13577   -17249.986    80.080373   -17330.067   -10012.772 
  961800    317.96324   -17232.991    92.883225   -17325.875   -2651.0361 
  962000    264.28926   -17244.858    77.204017   -17322.062     -2050.91 
  962200    311.18217   -17216.701    90.902344   -17307.603   -512.77853 
  962400    321.17002   -17229.121     93.81999   -17322.941   -2049.5509 
  962600    289.90094    -17243.85    84.685683   -17328.536   -4763.0367 
  962800    325.94336   -17224.983    95.214373   -17320.198    4166.3274 
  963000    306.95611   -17240.418    89.667831   -17330.086   -14842.577 
  963200    286.46599   -17249.404    83.682269   -17333.086    7791.5174 
  963400    342.53361   -17224.128    100.06071   -17324.189   -4579.0819 
  963600    297.60383   -17240.478    86.935847   -17327.414   -642.96422 
  963800    319.96555   -17246.444    93.468139   -17339.912   -3578.0195 
  964000    346.28281   -17225.299    101.15592   -17326.455    372.62673 
  964200    290.97299    -17242.79    84.998851   -17327.789    9484.4392 
  964400    302.12775   -17235.525    88.257372   -17323.782    7756.7753 
  964600    292.83014   -17224.487    85.541362   -17310.028   -2957.4768 
  964800    298.85753   -17246.196    87.302079   -17333.498   -117.90369 
  965000    322.92685   -17240.205    94.333192   -17334.538   -5033.0417 
  965200    293.73832   -17235.368    85.806659   -17321.174    6036.8153 
  965400    329.36913   -17236.041    96.215108   -17332.256   -8312.1965 
  965600    285.85234   -17251.346    83.503011   -17334.849   -2702.6131 
  965800       262.44   -17249.496    76.663811    -17326.16   -911.28609 
  966000    331.46026   -17225.285    96.825968   -17322.111    7619.2698 
  966200    298.97154   -17244.957    87.335382   -17332.292    7561.0944 
  966400     305.0951    -17245.44    89.124194   -17334.564    453.93903 
  966600    326.94956   -17219.472    95.508304    -17314.98   -13888.712 
  966800    320.52209   -17239.281    93.630717   -17332.912    1775.8067 
  967000    312.90156   -17239.675    91.404612    -17331.08    -1446.327 
  967200    352.35269   -17223.355    102.92905   -17326.284   -7576.2196 
  967400    280.41015   -17244.601    81.913241   -17326.514    -5613.689 
  967600    310.92788   -17245.112    90.828061    -17335.94     5365.733 
  967800    295.43916    -17221.98    86.303507   -17308.284    5370.6682 
  968000    275.78622   -17231.265    80.562502   -17311.827   -19466.359 
  968200    281.34008   -17249.152     82.18489   -17331.337    89.915617 
  968400    295.59911    -17231.64    86.350231   -17317.991   -239.29932 
  968600     291.6541   -17226.995    85.197817   -17312.193    2189.3256 
  968800    278.23381   -17246.778    81.277489   -17328.056    10706.123 
  969000    281.94582   -17246.224     82.36184   -17328.586     8113.702 
  969200    320.00864   -17221.202    93.480727   -17314.683    17067.678 
  969400    304.46865     -17243.6    88.941196   -17332.542   -10293.572 
  969600    279.40226   -17236.547    81.618815   -17318.165    5733.4777 
  969800    308.10547   -17230.008     90.00358   -17320.011   -726.92912 
  970000    307.31568    -17245.77    89.772866   -17335.543   -4458.1593 
  970200     301.8149   -17245.172    88.165984   -17333.338   -1398.5459 
  970400    298.08807   -17240.588    87.077305   -17327.665   -1208.6507 
  970600    333.27587   -17230.846    97.356343   -17328.202   -12868.121 
  970800    289.33087   -17245.665    84.519157   -17330.185    10085.589 
  971000    276.86251   -17250.411    80.876906   -17331.288    -2566.344 
  971200    299.89604   -17237.401    87.605446   -17325.007   -5467.4683 
  971400    298.45279   -17235.693    87.183847   -17322.877    10532.517 
  971600    278.59546   -17253.108    81.383135   -17334.491    2899.7691 
  971800    291.82748   -17229.828    85.248465   -17315.077     854.5024 
  972000    296.80641   -17237.097    86.702906     -17323.8   -1559.1275 
  972200    241.44235   -17255.856    70.529989   -17326.386    9724.5005 
  972400    308.77779   -17228.956    90.199977   -17319.156    4975.6768 
  972600    275.87037   -17242.203    80.587081    -17322.79    14161.246 
  972800    303.59266    -17251.98      88.6853   -17340.665    -337.0305 
  973000     291.3272   -17231.059    85.102323   -17316.162   -3547.0988 
  973200    261.27804   -17245.614     76.32438   -17321.939   -5927.3202 
  973400    295.35315   -17237.896     86.27838   -17324.174    5366.1386 
  973600    306.73653   -17232.244    89.603685   -17321.848    7767.9987 
  973800    327.04192   -17242.712    95.535284   -17338.248    1820.2014 
  974000    313.87043   -17238.944    91.687637   -17330.631    9074.9664 
  974200    299.56721   -17217.525    87.509389   -17305.034   -10078.078 
  974400    295.40605    -17241.72    86.293833   -17328.014   -2423.7891 
  974600       297.36   -17242.277     86.86462   -17329.141    8339.1649 
  974800    288.52337   -17244.841    84.283268   -17329.124   -1666.3118 
  975000    316.34305   -17233.851    92.409937   -17326.261     468.4051 
  975200    299.01112   -17240.573    87.346944    -17327.92    1575.0948 
  975400    262.95983   -17254.502    76.815664   -17331.318   -8454.8578 
  975600    322.75715   -17229.412    94.283621   -17323.696    886.71019 
  975800    305.43957   -17239.584     89.22482   -17328.809    9005.1684 
  976000    313.04271    -17222.45    91.445845   -17313.896   -17576.559 
  976200     276.1376   -17246.443    80.665146   -17327.108   -10905.092 
  976400    337.06296   -17229.743    98.462626   -17328.206   -1615.2277 
  976600    323.79621    -17237.68    94.587151   -17332.267    10561.828 
  976800    275.84725   -17262.019     80.58033   -17342.599    -12784.91 
  977000    281.70407   -17241.669    82.291219    -17323.96    8725.0925 
  977200    326.19962   -17228.201    95.289232    -17323.49    2086.1479 
  977400    282.26008   -17247.788    82.453641   -17330.242   -11810.588 
  977600    286.76011   -17244.042    83.768188    -17327.81    4564.1046 
  977800    356.04168   -17222.811    104.00668   -17326.817   -9728.9025 
  978000    318.18342    -17233.59    92.947544   -17326.537   -6029.0837 
  978200    292.21024   -17237.455    85.360276   -17322.815    9897.3983 
  978400    265.82163   -17246.778     77.65165    -17324.43   -2682.1637 
  978600    302.21142   -17235.647    88.281814   -17323.929   -698.87713 
  978800    295.96091   -17231.404    86.455918    -17317.86   -1964.5223 
  979000    303.23739   -17233.525    88.581521   -17322.107   -1956.5152 
  979200    338.28013   -17221.737    98.818183   -17320.556   -2058.3293 
  979400    290.51169   -17241.384    84.864097   -17326.248    736.79549 
  979600    295.83742   -17248.532    86.419844   -17334.952    1891.8539 
  979800    342.21491   -17220.757    99.967608   -17320.724   -2687.2039 
  980000    258.41519   -17243.284    75.488085   -17318.772    -7397.367 
  980200     294.5642   -17239.861    86.047913   -17325.909    5542.7688 
  980400    311.20104   -17230.378    90.907857   -17321.286     2776.594 
  980600     301.8622   -17218.046    88.179801   -17306.225    1943.5345 
  980800     294.7101   -17242.216    86.090532   -17328.307   -1866.0722 
  981000    304.63097   -17234.307    88.988612   -17323.296    5054.1738 
  981200    335.78017    -17227.13    98.087895   -17325.218    5273.0423 
  981400    293.28101   -17239.524    85.673067   -17325.197   -335.51249 
  981600    303.11034   -17229.384    88.544408   -17317.928     2752.851 
  981800    296.89385   -17252.369    86.728447   -17339.097    -12258.22 
  982000    295.39449   -17239.506    86.290458   -17325.796    4668.8746 
  982200    304.14735   -17231.085    88.847336   -17319.932    2655.3712 
  982400    304.14799   -17250.999    88.847525   -17339.847    2972.2143 
  982600    249.05149   -17271.962    72.752768   -17344.715    11961.937 
  982800    261.37988   -17243.331    76.354129   -17319.685   -3010.5321 
  983000    294.67093   -17231.415    86.079092   -17317.495    13202.998 
  983200    282.78435   -17250.262    82.606792   -17332.868    211.58512 
  983400    332.27647   -17220.096    97.064398    -17317.16   -10852.719 
  983600    281.44788   -17230.865    82.216383   -17313.081    4377.7805 
  983800    316.24181   -17235.186    92.380362   -17327.566    2664.8026 
  984000    271.04437   -17254.564    79.177314   -17333.741    9414.4508 
  984200    330.49265   -17240.076     96.54331   -17336.619    519.62221 
  984400    298.86493   -17234.784    87.304239   -17322.088   -4277.3927 
  984600    278.51691   -17254.301     81.36019   -17335.661    1206.0529 
  984800    302.11072   -17237.416    88.252397   -17325.668   -2468.9945 
  985000    323.84197   -17230.208    94.600516   -17324.809   -569.89363 
  985200    261.33391    -17254.08    76.340702    -17330.42   -11101.519 
  985400    279.74559   -17248.629     81.71911   -17330.348   -8533.3748 
  985600    284.02802   -17234.469    82.970091   -17317.439    9476.0456 
  985800    354.48931   -17227.569     103.5532   -17331.123   -7572.5365 
  986000     306.8537   -17245.894    89.637915   -17335.532    802.34779 
  986200    333.15322    -17234.97    97.320515    -17332.29   -1408.0955 
  986400    315.25731   -17231.576     92.09277   -17323.669    482.88013 
  986600    293.26817   -17243.165    85.669319   -17328.835   -12122.656 
  986800    293.81406   -17245.631    85.828784    -17331.46    4424.5831 
  987000    328.88182   -17222.626    96.072756   -17318.698    351.85121 
  987200    312.25281   -17234.251    91.215099   -17325.466   -5183.0417 
  987400    335.03968   -17236.805    97.871585   -17334.677    9406.0359 
  987600    242.63649   -17255.026    70.878822   -17325.905     2325.613 
  987800    282.00319   -17239.428    82.378599   -17321.806   -2464.3121 
  988000    283.04088   -17238.752    82.681727   -17321.434   -468.58652 
  988200     323.7044   -17234.699    94.560332    -17329.26   -11198.512 
  988400    294.60564   -17220.769    86.060018   -17306.829    5586.7113 
  988600    317.00482   -17242.125    92.603254   -17334.728    13891.539 
  988800    286.14409   -17247.958    83.588234   -17331.546     4296.687 
  989000    302.23956   -17232.175    88.290035   -17320.465     -7380.04 
  989200    335.49758   -17221.298    98.005346   -17319.303   -1222.3243 
  989400     290.4801   -17248.627    84.854868   -17333.482   -1533.9747 
  989600    277.19494   -17241.432    80.974015   -17322.406    4046.4944 
  989800    308.46005   -17238.321    90.107159   -17328.428    2211.8394 
  990000    229.10835   -17259.377     66.92699   -17326.304    1926.7223 
  990200    283.24708   -17247.311    82.741962   -17330.053    2962.5955 
  990400    281.87802   -17233.228    82.342032    -17315.57   -14132.782 
  990600    371.72218   -17226.504    108.58726   -17335.091   -2174.0438 
  990800    307.94656   -17245.068     89.95716   -17335.025    927.32916 
  991000    323.83552   -17231.646    94.598632   -17326.245    8279.2131 
  991200    313.45496   -17236.728    91.566271   -17328.294    5398.3847 
  991400    312.26483   -17242.668    91.218609   -17333.886    6705.4953 
  991600     295.2933    -17226.71    86.260897    -17312.97   -3936.6451 
  991800    316.00194   -17236.354    92.310294   -17328.664   -5060.7275 
  992000    297.97359   -17242.107    87.043861   -17329.151   -4343.3032 
  992200    319.36083   -17233.353    93.291489   -17326.645    1008.2137 
  992400     290.6829   -17237.326     84.91411    -17322.24    4763.4635 
  992600    249.98777   -17255.482    73.026273   -17328.508    6800.9359 
  992800    300.28138    -17228.16    87.718013   -17315.878   -10808.406 
  993000    300.39458   -17237.937    87.751079   -17325.689     13392.73 
  993200    301.96481    -17246.21    88.209774    -17334.42    3136.7362 
  993400    311.23367   -17235.271    90.917388   -17326.188    5612.0179 
  993600    265.73175   -17235.487    77.625394   -17313.112   -1900.3471 
  993800    292.94458   -17250.902    85.574791   -17336.477    1669.2372 
  994000    327.33766   -17222.825    95.621677   -17318.447   -2709.0198 
  994200    302.72618   -17241.187    88.432185   -17329.619    2067.1687 
  994400    320.43113   -17244.772    93.604143   -17338.376   -397.10119 
  994600    296.96599   -17240.111    86.749522   -17326.861   -1814.3264 
  994800    326.90901     -17224.8    95.496459   -17320.296    10855.608 
  995000    269.30457   -17246.932    78.669087   -17325.602     8942.525 
  995200     288.8376   -17231.345    84.375062    -17315.72   -6115.8699 
  995400    328.30845   -17217.638    95.905263   -17313.543    12548.383 
  995600    279.67441   -17235.386    81.698316   -17317.085    2016.8714 
  995800    266.25216   -17248.373    77.777418   -17326.151    2116.6768 
  996000    380.58371   -17225.095    111.17588   -17336.271    482.86731 
  996200    303.89723   -17235.456    88.774272    -17324.23    5630.8701 
  996400     321.3103   -17235.655    93.860968   -17329.516    16096.635 
  996600    288.01046   -17254.593    84.133439   -17338.726   -9008.2801 
  996800    288.89325   -17242.997    84.391319   -17327.388   -1981.6768 
  997000    261.30058    -17239.05    76.330966   -17315.381    7844.2335 
  997200    337.60674   -17225.257    98.621473   -17323.879   -6464.7803 
  997400    288.93997   -17251.347    84.404966   -17335.752   -1531.7802 
  997600    300.10587   -17236.637    87.666743   -17324.304   -1727.5573 
  997800    306.15294   -17232.529    89.433208   -17321.963    4200.4797 
  998000    295.44163   -17245.695    86.304226   -17331.999   -1889.8478 
  998200    270.69211   -17253.244    79.074413   -17332.319   -10534.134 
  998400    339.29425   -17227.874    99.114428   -17326.989    3134.0458 
  998600     282.0022   -17236.119    82.378308   -17318.497   -18.742132 
  998800     254.8755   -17247.785    74.454074   -17322.239   -802.49451 
  999000    314.61059   -17224.859    91.903853   -17316.763    5434.4718 
  999200    272.16186   -17238.274    79.503754   -17317.778   -12661.439 
  999400    290.97453    -17251.95    84.999302   -17336.949    6839.3884 
  999600     293.4616   -17238.074    85.725823     -17323.8   -6314.4841 
  999800    289.65533   -17232.127    84.613938   -17316.741   -6484.7847 
 1000000     313.9175    -17233.53    91.701387   -17325.232   -907.83228 
Loop time of 3058.55 on 8 procs for 1000000 steps with 99 atoms

Performance: 7.062 ns/day, 3.398 hours/ns, 326.953 timesteps/s
99.3% CPU use with 8 MPI tasks x no OpenMP threads

MPI task timing breakdown:
Section |  min time  |  avg time  |  max time  |%varavg| %total
---------------------------------------------------------------
Pair    | 2688.2     | 2713.7     | 2725.6     |  21.9 | 88.72
Neigh   | 1.3281     | 1.3324     | 1.3385     |   0.3 |  0.04
Comm    | 47.289     | 59.322     | 84.76      | 148.1 |  1.94
Output  | 0.088418   | 0.099026   | 0.16174    |   7.5 |  0.00
Modify  | 280.92     | 281.19     | 281.52     |   1.1 |  9.19
Other   |            | 2.924      |            |       |  0.10

Nlocal:    12.375 ave 14 max 11 min
Histogram: 1 0 0 4 0 0 2 0 0 1
Nghost:    752.125 ave 759 max 745 min
Histogram: 2 0 2 0 0 0 0 2 0 2
Neighs:    1801.25 ave 2049 max 1604 min
Histogram: 1 0 2 2 0 0 2 0 0 1

Total # of neighbors = 14410
Ave neighs/atom = 145.556
Neighbor list builds = 1224
Dangerous builds = 0

Please see the log.cite file for references relevant to this simulation

Total wall time: 0:50:59
