ITEM: TIMESTEP
0
ITEM: NUMBER OF ATOMS
33
ITEM: BOX BOUNDS pp pp pp
0.0000000000000000e+00 7.0970000000000004e+00
0.0000000000000000e+00 7.0970000000000004e+00
0.0000000000000000e+00 2.4588000000000001e+01
ITEM: ATOMS id type x y z 
2 1 3.339 1.632 13.319 
5 1 4.651 1.581 18.133 
7 1 3.391 1.602 15.981 
8 1 2.166 1.581 18.134 
18 1 3.408 1.581 17.416 
21 1 3.338 2.875 12.602 
23 1 3.367 1.619 14.753 
24 1 3.338 0.39 12.601 
17 1 7.023 2.875 24.28 
19 1 6.997 1.619 22.129 
20 1 7.023 0.39 24.281 
22 1 6.957 1.581 19.466 
25 1 5.714 1.581 18.748 
27 1 6.974 1.602 20.9 
28 1 1.102 1.581 18.748 
30 1 7.024 1.631 23.563 
10 1 6.954 5.232 5.122 
13 1 7.023 3.938 0.307 
15 1 6.994 5.194 2.459 
16 1 7.023 6.423 0.307 
26 1 7.022 5.181 1.025 
29 1 5.711 5.232 5.839 
31 1 6.97 5.211 3.688 
32 1 1.098 5.232 5.84 
1 1 4.647 5.232 6.454 
3 1 3.388 5.211 8.606 
4 1 2.163 5.232 6.454 
6 1 3.338 5.182 11.269 
9 1 3.338 3.939 11.986 
11 1 3.365 5.194 9.834 
12 1 3.338 6.423 11.987 
14 1 3.404 5.232 7.171 
33 2 3.539 5.636 13.064 
ITEM: TIMESTEP
10
ITEM: NUMBER OF ATOMS
33
ITEM: BOX BOUNDS pp pp pp
0.0000000000000000e+00 7.0970000000000004e+00
0.0000000000000000e+00 7.0970000000000004e+00
0.0000000000000000e+00 2.4588000000000001e+01
ITEM: ATOMS id type x y z 
2 1 3.33679 1.65239 13.3199 
5 1 4.66606 1.58152 18.1412 
7 1 3.39468 1.60024 16.0205 
8 1 2.15296 1.58302 18.1434 
18 1 3.40887 1.58093 17.4196 
21 1 3.33381 2.92329 12.5605 
23 1 3.3646 1.61835 14.749 
24 1 3.3544 0.339495 12.6758 
17 1 7.02575 2.88132 24.2777 
19 1 6.99725 1.61956 22.1235 
20 1 7.02735 0.388031 24.2868 
22 1 6.95733 1.58267 19.4665 
25 1 5.71064 1.58027 18.7478 
27 1 6.9731 1.60156 20.9044 
28 1 1.10289 1.57791 18.7446 
30 1 7.02139 1.63088 23.5629 
10 1 6.95365 5.23117 5.11321 
13 1 7.02093 3.93103 0.309516 
15 1 6.99212 5.19359 2.4607 
16 1 7.01949 6.42511 0.300809 
26 1 7.02429 5.18187 1.02431 
29 1 5.71153 5.23264 5.83576 
31 1 6.97051 5.21034 3.68057 
32 1 1.09324 5.23282 5.84611 
1 1 4.65666 5.23255 6.44966 
3 1 3.39042 5.21324 8.57962 
4 1 2.15727 5.23289 6.4413 
6 1 3.31918 5.09407 11.1696 
9 1 3.32693 3.84622 11.8909 
11 1 3.35766 5.18788 9.8099 
12 1 3.34174 6.39969 11.9457 
14 1 3.40597 5.23198 7.16079 
33 2 3.55751 5.82646 13.3035 
ITEM: TIMESTEP
20
ITEM: NUMBER OF ATOMS
33
ITEM: BOX BOUNDS pp pp pp
0.0000000000000000e+00 7.0970000000000004e+00
0.0000000000000000e+00 7.0970000000000004e+00
0.0000000000000000e+00 2.4588000000000001e+01
ITEM: ATOMS id type x y z 
2 1 3.33634 1.63834 13.3053 
5 1 4.65394 1.58124 18.1313 
7 1 3.39296 1.60131 15.9784 
8 1 2.16285 1.58003 18.1397 
18 1 3.40688 1.58114 17.4088 
21 1 3.33025 2.88571 12.5569 
23 1 3.36721 1.62151 14.7597 
24 1 3.38104 0.292029 12.8189 
17 1 7.02532 2.88374 24.2732 
19 1 6.99608 1.61998 22.1284 
20 1 7.02371 0.391141 24.2904 
22 1 6.9585 1.58021 19.475 
25 1 5.71282 1.58221 18.7534 
27 1 6.97304 1.60214 20.9085 
28 1 1.10425 1.58028 18.7399 
30 1 7.02347 1.63087 23.5627 
10 1 6.95363 5.23245 5.10971 
13 1 7.02153 3.92807 0.313322 
15 1 6.99394 5.19175 2.4557 
16 1 7.02343 6.42303 0.296294 
26 1 7.02235 5.18194 1.02108 
29 1 5.71299 5.23321 5.8297 
31 1 6.96921 5.21062 3.67629 
32 1 1.08956 5.22992 5.84736 
1 1 4.66001 5.23495 6.44763 
3 1 3.3896 5.2096 8.5741 
4 1 2.15693 5.23346 6.43423 
6 1 3.31661 5.09131 11.1916 
9 1 3.32471 3.8363 11.8754 
11 1 3.35563 5.18431 9.7986 
12 1 3.34285 6.33595 11.9108 
14 1 3.40641 5.23575 7.14901 
33 2 3.53896 6.00049 13.3048 
ITEM: TIMESTEP
30
ITEM: NUMBER OF ATOMS
33
ITEM: BOX BOUNDS pp pp pp
0.0000000000000000e+00 7.0970000000000004e+00
0.0000000000000000e+00 7.0970000000000004e+00
0.0000000000000000e+00 2.4588000000000001e+01
ITEM: ATOMS id type x y z 
2 1 3.33702 1.60679 13.3184 
5 1 4.65659 1.58067 18.1325 
7 1 3.39331 1.60753 15.9773 
8 1 2.16359 1.57968 18.1378 
18 1 3.40951 1.57944 17.4212 
21 1 3.32765 2.84572 12.5557 
23 1 3.36803 1.63142 14.7593 
24 1 3.38904 0.253242 12.851 
17 1 7.02332 2.87993 24.2752 
19 1 6.99633 1.61957 22.1243 
20 1 7.0241 0.391221 24.2875 
22 1 6.95693 1.58144 19.4645 
25 1 5.70899 1.58035 18.7519 
27 1 6.97275 1.60197 20.9047 
28 1 1.10355 1.58055 18.7425 
30 1 7.02414 1.63344 23.5635 
10 1 6.9539 5.23047 5.10803 
13 1 7.02346 3.93021 0.309761 
15 1 6.99373 5.19243 2.452 
16 1 7.02339 6.42445 0.297755 
26 1 7.02233 5.17938 1.01684 
29 1 5.71488 5.2341 5.82668 
31 1 6.9695 5.21013 3.6722 
32 1 1.08819 5.23228 5.8416 
1 1 4.66181 5.2349 6.44393 
3 1 3.38735 5.20751 8.56898 
4 1 2.15548 5.23488 6.43384 
6 1 3.31351 5.13145 11.2059 
9 1 3.32281 3.84559 11.8553 
11 1 3.35273 5.17969 9.79042 
12 1 3.34772 6.34726 11.8691 
14 1 3.40665 5.23791 7.13417 
33 2 3.53472 6.0394 13.3721 
ITEM: TIMESTEP
40
ITEM: NUMBER OF ATOMS
33
ITEM: BOX BOUNDS pp pp pp
0.0000000000000000e+00 7.0970000000000004e+00
0.0000000000000000e+00 7.0970000000000004e+00
0.0000000000000000e+00 2.4588000000000001e+01
ITEM: ATOMS id type x y z 
2 1 3.33788 1.62752 13.3226 
5 1 4.65553 1.5795 18.1331 
7 1 3.39265 1.61423 15.9805 
8 1 2.16555 1.57997 18.1375 
18 1 3.40916 1.57836 17.4142 
21 1 3.32744 2.82239 12.5301 
23 1 3.3677 1.64533 14.7561 
24 1 3.39508 0.251 12.8759 
17 1 7.0238 2.87669 24.2761 
19 1 6.99617 1.61956 22.1217 
20 1 7.02419 0.392285 24.2844 
22 1 6.95734 1.58158 19.4648 
25 1 5.70829 1.5806 18.7499 
27 1 6.97242 1.60201 20.9014 
28 1 1.10424 1.5798 18.7418 
30 1 7.0243 1.6321 23.5583 
10 1 6.95442 5.22996 5.10257 
13 1 7.02335 3.92996 0.304845 
15 1 6.99384 5.19239 2.44692 
16 1 7.02372 6.42675 0.296971 
26 1 7.02288 5.18059 1.01187 
29 1 5.71324 5.23307 5.82115 
31 1 6.9694 5.20988 3.66723 
32 1 1.08975 5.23364 5.83722 
1 1 4.66188 5.23683 6.44048 
3 1 3.38388 5.2054 8.56762 
4 1 2.15579 5.23621 6.43103 
6 1 3.31311 5.12214 11.2094 
9 1 3.31905 3.84793 11.8624 
11 1 3.35084 5.17518 9.78961 
12 1 3.35942 6.34734 11.8977 
14 1 3.40635 5.23976 7.13527 
33 2 3.52435 6.03505 13.395 
ITEM: TIMESTEP
50
ITEM: NUMBER OF ATOMS
33
ITEM: BOX BOUNDS pp pp pp
0.0000000000000000e+00 7.0970000000000004e+00
0.0000000000000000e+00 7.0970000000000004e+00
0.0000000000000000e+00 2.4588000000000001e+01
ITEM: ATOMS id type x y z 
2 1 3.34369 1.63091 13.3221 
5 1 4.65525 1.58083 18.1319 
7 1 3.38837 1.63454 15.9783 
8 1 2.16765 1.57963 18.1392 
18 1 3.40928 1.5741 17.4149 
21 1 3.32394 2.80108 12.4901 
23 1 3.36839 1.67929 14.7584 
24 1 3.40623 0.235022 12.9217 
17 1 7.02434 2.87377 24.2747 
19 1 6.99567 1.62018 22.1166 
20 1 7.02446 0.392799 24.2789 
22 1 6.95787 1.5833 19.4599 
25 1 5.7086 1.57737 18.7484 
27 1 6.97183 1.60168 20.8964 
28 1 1.10426 1.57764 18.738 
30 1 7.02489 1.63206 23.5528 
10 1 6.95445 5.22862 5.09601 
13 1 7.02412 3.93054 0.297457 
15 1 6.99463 5.19181 2.44025 
16 1 7.02457 6.4283 0.293478 
26 1 7.02375 5.1805 1.00506 
29 1 5.71495 5.23254 5.82076 
31 1 6.96752 5.20949 3.66051 
32 1 1.09156 5.23561 5.82807 
1 1 4.65691 5.23971 6.42909 
3 1 3.3777 5.20322 8.565 
4 1 2.15797 5.23967 6.42194 
6 1 3.31553 5.13366 11.2144 
9 1 3.31616 3.84304 11.8545 
11 1 3.35131 5.17011 9.78687 
12 1 3.36923 6.33352 11.9491 
14 1 3.40484 5.2428 7.13273 
33 2 3.50707 6.02765 13.4481 
ITEM: TIMESTEP
60
ITEM: NUMBER OF ATOMS
33
ITEM: BOX BOUNDS pp pp pp
0.0000000000000000e+00 7.0970000000000004e+00
0.0000000000000000e+00 7.0970000000000004e+00
0.0000000000000000e+00 2.4588000000000001e+01
ITEM: ATOMS id type x y z 
2 1 3.35682 1.62801 13.3272 
5 1 4.65244 1.57766 18.1285 
7 1 3.37778 1.66785 15.9775 
8 1 2.16663 1.57579 18.1309 
18 1 3.41421 1.57586 17.4045 
21 1 3.32802 2.77928 12.4546 
23 1 3.36955 1.74662 14.7593 
24 1 3.41207 0.217312 12.9936 
17 1 7.02643 2.87396 24.2702 
19 1 6.9955 1.62108 22.1082 
20 1 7.02665 0.391642 24.2723 
22 1 6.95395 1.5801 19.4502 
25 1 5.70909 1.57947 18.7409 
27 1 6.97199 1.60258 20.8884 
28 1 1.11022 1.57674 18.7405 
30 1 7.02428 1.63274 23.5483 
10 1 6.9481 5.23187 5.09689 
13 1 7.02592 3.9332 0.2892 
15 1 6.99352 5.19063 2.43742 
16 1 7.02541 6.4253 0.283771 
26 1 7.02479 5.18067 1.00021 
29 1 5.71141 5.23675 5.81066 
31 1 6.96647 5.20786 3.65701 
32 1 1.09803 5.23303 5.80585 
1 1 4.65441 5.24053 6.4238 
3 1 3.37931 5.2158 8.55974 
4 1 2.15562 5.2376 6.41563 
6 1 3.32447 5.13777 11.219 
9 1 3.31465 3.82277 11.8254 
11 1 3.34439 5.1785 9.77848 
12 1 3.3736 6.29584 12.0242 
14 1 3.40571 5.24766 7.11618 
33 2 3.48558 6.00251 13.5273 
ITEM: TIMESTEP
70
ITEM: NUMBER OF ATOMS
33
ITEM: BOX BOUNDS pp pp pp
0.0000000000000000e+00 7.0970000000000004e+00
0.0000000000000000e+00 7.0970000000000004e+00
0.0000000000000000e+00 2.4588000000000001e+01
ITEM: ATOMS id type x y z 
2 1 3.3576 1.63172 13.3251 
5 1 4.65318 1.57737 18.1277 
7 1 3.38496 1.6708 15.9741 
8 1 2.16703 1.57676 18.1317 
18 1 3.40758 1.57672 17.408 
21 1 3.32759 2.776 12.453 
23 1 3.36609 1.75046 14.7563 
24 1 3.41191 0.212955 12.9937 
17 1 7.0254 2.8736 24.2693 
19 1 6.99609 1.62141 22.1093 
20 1 7.0259 0.392177 24.2713 
22 1 6.95798 1.57945 19.4523 
25 1 5.70864 1.57805 18.7403 
27 1 6.97123 1.60233 20.8891 
28 1 1.10866 1.57789 18.7399 
30 1 7.02537 1.63242 23.546 
10 1 6.95152 5.22922 5.09163 
13 1 7.02558 3.93228 0.288839 
15 1 6.99332 5.19043 2.43521 
16 1 7.02595 6.42598 0.282804 
26 1 7.02597 5.18071 0.999457 
29 1 5.70924 5.23595 5.80983 
31 1 6.96531 5.20828 3.6553 
32 1 1.09944 5.23562 5.80378 
1 1 4.65405 5.24162 6.42361 
3 1 3.37784 5.2127 8.56087 
4 1 2.15556 5.24074 6.41624 
6 1 3.32035 5.13474 11.2171 
9 1 3.3172 3.82304 11.8274 
11 1 3.35078 5.18395 9.78073 
12 1 3.37352 6.29348 12.0284 
14 1 3.40223 5.24702 7.12499 
33 2 3.48394 5.99912 13.5326 
ITEM: TIMESTEP
71
ITEM: NUMBER OF ATOMS
33
ITEM: BOX BOUNDS pp pp pp
0.0000000000000000e+00 7.0970000000000004e+00
0.0000000000000000e+00 7.0970000000000004e+00
0.0000000000000000e+00 2.4588000000000001e+01
ITEM: ATOMS id type x y z 
2 1 3.3576 1.63172 13.3251 
5 1 4.65318 1.57737 18.1277 
7 1 3.38496 1.6708 15.9741 
8 1 2.16703 1.57676 18.1317 
18 1 3.40758 1.57672 17.408 
21 1 3.32759 2.776 12.453 
23 1 3.36609 1.75046 14.7563 
24 1 3.41191 0.212955 12.9937 
17 1 7.0254 2.8736 24.2693 
19 1 6.99609 1.62141 22.1093 
20 1 7.0259 0.392177 24.2713 
22 1 6.95798 1.57945 19.4523 
25 1 5.70864 1.57805 18.7403 
27 1 6.97123 1.60233 20.8891 
28 1 1.10866 1.57789 18.7399 
30 1 7.02537 1.63242 23.546 
10 1 6.95152 5.22922 5.09163 
13 1 7.02558 3.93228 0.288839 
15 1 6.99332 5.19043 2.43521 
16 1 7.02595 6.42598 0.282804 
26 1 7.02597 5.18071 0.999457 
29 1 5.70924 5.23595 5.80983 
31 1 6.96531 5.20828 3.6553 
32 1 1.09944 5.23562 5.80378 
1 1 4.65405 5.24162 6.42361 
3 1 3.37784 5.2127 8.56087 
4 1 2.15556 5.24074 6.41624 
6 1 3.32035 5.13474 11.2171 
9 1 3.3172 3.82304 11.8274 
11 1 3.35078 5.18395 9.78073 
12 1 3.37352 6.29348 12.0284 
14 1 3.40223 5.24702 7.12499 
33 2 3.48394 5.99912 13.5326 
ITEM: TIMESTEP
80
ITEM: NUMBER OF ATOMS
33
ITEM: BOX BOUNDS pp pp pp
-1.7120040905758008e-03 7.0987120040905767e+00
-1.4171759833920081e-03 7.0984171759833927e+00
-1.1064600000000003e-02 2.4599064599999998e+01
ITEM: ATOMS id type x y z 
2 1 3.3575 1.63095 13.326 
5 1 4.65372 1.57658 18.1329 
7 1 3.38488 1.67004 15.9774 
8 1 2.16636 1.57598 18.137 
18 1 3.40751 1.57594 17.4126 
21 1 3.32749 2.7757 12.4531 
23 1 3.36601 1.74974 14.7585 
24 1 3.41184 0.211621 12.9944 
17 1 7.02708 2.87334 24.2801 
19 1 6.99775 1.62064 22.1181 
20 1 7.02758 0.390909 24.2821 
22 1 6.95963 1.57866 19.4588 
25 1 5.70968 1.57726 18.7461 
27 1 6.97288 1.60155 20.8969 
28 1 1.10749 1.5771 18.7457 
30 1 7.02705 1.63166 23.5562 
10 1 6.95316 5.22989 5.08514 
13 1 7.02726 3.93243 0.278031 
15 1 6.99498 5.19109 2.42635 
16 1 7.02762 6.42713 0.27199 
26 1 7.02765 5.18137 0.989291 
29 1 5.71028 5.23662 5.804 
31 1 6.96696 5.20894 3.64751 
32 1 1.09827 5.23629 5.79795 
1 1 4.65459 5.24229 6.41833 
3 1 3.37776 5.21337 8.55752 
4 1 2.15488 5.24142 6.41095 
6 1 3.32024 5.13537 11.2161 
9 1 3.31709 3.82315 11.827 
11 1 3.35068 5.18461 9.77845 
12 1 3.37343 6.29457 12.0282 
14 1 3.40216 5.2477 7.12035 
33 2 3.48391 6.0001 13.5337 
ITEM: TIMESTEP
90
ITEM: NUMBER OF ATOMS
33
ITEM: BOX BOUNDS pp pp pp
-3.8902566902298875e-03 7.1008902566902306e+00
-3.3482148414534811e-03 7.1003482148414534e+00
-2.3358600000000018e-02 2.4611358599999996e+01
ITEM: ATOMS id type x y z 
2 1 3.35739 1.62991 13.327 
5 1 4.65443 1.57551 18.1388 
7 1 3.38479 1.66902 15.981 
8 1 2.16547 1.57491 18.1428 
18 1 3.40742 1.57487 17.4177 
21 1 3.32735 2.7753 12.4533 
23 1 3.36589 1.74877 14.761 
24 1 3.41176 0.2098 12.9951 
17 1 7.02921 2.87301 24.2921 
19 1 6.99987 1.61959 22.1278 
20 1 7.02971 0.389153 24.2941 
22 1 6.96172 1.57759 19.4659 
25 1 5.71096 1.57619 18.7525 
27 1 6.97498 1.6005 20.9055 
28 1 1.10603 1.57603 18.7522 
30 1 7.02918 1.63062 23.5674 
10 1 6.95525 5.23081 5.07793 
13 1 7.02939 3.9326 0.266004 
15 1 6.99709 5.19199 2.41656 
16 1 7.02976 6.42874 0.259959 
26 1 7.02978 5.18225 0.978001 
29 1 5.71156 5.23754 5.79754 
31 1 6.96906 5.20984 3.63879 
32 1 1.0968 5.2372 5.79148 
1 1 4.65531 5.24321 6.41243 
3 1 3.37765 5.21428 8.55387 
4 1 2.15399 5.24235 6.40504 
6 1 3.3201 5.13623 11.215 
9 1 3.31695 3.82325 11.8266 
11 1 3.35057 5.18551 9.77586 
12 1 3.37333 6.29605 12.0279 
14 1 3.40207 5.24862 7.11519 
33 2 3.48386 6.00144 13.535 
ITEM: TIMESTEP
100
ITEM: NUMBER OF ATOMS
33
ITEM: BOX BOUNDS pp pp pp
-7.0429055078438897e-03 7.1040429055078436e+00
-5.5179388894249061e-03 7.1025179388894237e+00
-3.3401496302339670e-02 2.4621401496302330e+01
ITEM: ATOMS id type x y z 
2 1 3.35721 1.62877 13.3279 
5 1 4.65557 1.57431 18.1436 
7 1 3.38467 1.66789 15.9837 
8 1 2.16409 1.5737 18.1477 
18 1 3.40729 1.57369 17.4219 
21 1 3.32716 2.77513 12.4532 
23 1 3.36573 1.74767 14.7633 
24 1 3.41164 0.207731 12.9957 
17 1 7.03231 2.87274 24.302 
19 1 7.00292 1.61841 22.1356 
20 1 7.0328 0.387077 24.304 
22 1 6.96474 1.57638 19.4718 
25 1 5.71273 1.57498 18.7577 
27 1 6.97803 1.59931 20.9128 
28 1 1.10401 1.57483 18.7573 
30 1 7.03226 1.62945 23.5766 
10 1 6.95827 5.23184 5.07201 
13 1 7.03249 3.93269 0.256113 
15 1 7.00014 5.193 2.40879 
16 1 7.03285 6.43064 0.250069 
26 1 7.03287 5.18325 0.96879 
29 1 5.71331 5.23858 5.79235 
31 1 6.97211 5.21085 3.63145 
32 1 1.09479 5.23823 5.78628 
1 1 4.65646 5.24424 6.40752 
3 1 3.37748 5.2153 8.55121 
4 1 2.15259 5.24339 6.40013 
6 1 3.3199 5.13716 11.2141 
9 1 3.31675 3.82312 11.8264 
11 1 3.35041 5.18654 9.77342 
12 1 3.37317 6.29767 12.0277 
14 1 3.40194 5.24966 7.111 
33 2 3.48379 6.00298 13.536 
ITEM: TIMESTEP
110
ITEM: NUMBER OF ATOMS
33
ITEM: BOX BOUNDS pp pp pp
-8.4245331453538241e-03 7.1054245331453529e+00
-6.5977661636444224e-03 7.1035977661636434e+00
-3.6814096833735446e-02 2.4624814096833727e+01
ITEM: ATOMS id type x y z 
2 1 3.35714 1.62822 13.3282 
5 1 4.65615 1.57371 18.1453 
7 1 3.38463 1.66733 15.9845 
8 1 2.16337 1.57311 18.1494 
18 1 3.40723 1.57311 17.4233 
21 1 3.32708 2.77517 12.4531 
23 1 3.36566 1.74712 14.7643 
24 1 3.41159 0.206683 12.9959 
17 1 7.03367 2.87267 24.3053 
19 1 7.00426 1.61782 22.138 
20 1 7.03415 0.385984 24.3074 
22 1 6.96607 1.57578 19.4738 
25 1 5.71342 1.57438 18.7594 
27 1 6.97937 1.59872 20.9155 
28 1 1.10322 1.57423 18.759 
30 1 7.03361 1.62886 23.5797 
10 1 6.9596 5.23236 5.06999 
13 1 7.03384 3.93267 0.252704 
15 1 7.00147 5.1935 2.40628 
16 1 7.03421 6.43165 0.246665 
26 1 7.03422 5.18375 0.965668 
29 1 5.71398 5.23909 5.79065 
31 1 6.97345 5.21135 3.62882 
32 1 1.094 5.23873 5.78458 
1 1 4.65705 5.24475 6.40579 
3 1 3.3774 5.21582 8.55048 
4 1 2.15189 5.24391 6.39839 
6 1 3.31982 5.1376 11.2138 
9 1 3.31667 3.82292 11.8265 
11 1 3.35034 5.18706 9.77242 
12 1 3.37309 6.29844 12.0277 
14 1 3.40189 5.25017 7.10959 
33 2 3.48375 6.00377 13.5363 
ITEM: TIMESTEP
120
ITEM: NUMBER OF ATOMS
33
ITEM: BOX BOUNDS pp pp pp
-1.0901480928588406e-02 7.1079014809285876e+00
-9.2350342907308400e-03 7.1062350342907292e+00
-4.6345247249530513e-02 2.4634345247249520e+01
ITEM: ATOMS id type x y z 
2 1 3.357 1.62692 13.3292 
5 1 4.65748 1.57227 18.1502 
7 1 3.3846 1.66597 15.9865 
8 1 2.16178 1.57166 18.1543 
18 1 3.40711 1.57172 17.4272 
21 1 3.32695 2.77535 12.4527 
23 1 3.36553 1.74577 14.767 
24 1 3.41149 0.204089 12.9964 
17 1 7.03611 2.87269 24.3149 
19 1 7.00664 1.61637 22.1448 
20 1 7.03658 0.383117 24.3169 
22 1 6.96846 1.5743 19.4794 
25 1 5.71437 1.57292 18.764 
27 1 6.98178 1.59728 20.9229 
28 1 1.10209 1.57276 18.7637 
30 1 7.03602 1.62744 23.5884 
10 1 6.96196 5.23362 5.06433 
13 1 7.03628 3.93244 0.2431 
15 1 7.00383 5.19475 2.39941 
16 1 7.03665 6.4343 0.237077 
26 1 7.03663 5.18496 0.956951 
29 1 5.71487 5.24035 5.78598 
31 1 6.97586 5.21256 3.62132 
32 1 1.09288 5.23997 5.77992 
1 1 4.65842 5.24599 6.40085 
3 1 3.37724 5.21709 8.54826 
4 1 2.15035 5.24519 6.39345 
6 1 3.3197 5.13868 11.2129 
9 1 3.31652 3.8223 11.8267 
11 1 3.35024 5.18836 9.76967 
12 1 3.37296 6.30022 12.0277 
14 1 3.40179 5.25142 7.10566 
33 2 3.48365 6.0058 13.5371 
ITEM: TIMESTEP
130
ITEM: NUMBER OF ATOMS
33
ITEM: BOX BOUNDS pp pp pp
-1.3254999601090592e-02 7.1102549996010893e+00
-1.2150131811238547e-02 7.1091501318112380e+00
-5.8615867380587196e-02 2.4646615867380575e+01
ITEM: ATOMS id type x y z 
2 1 3.35686 1.62563 13.3309 
5 1 4.65925 1.57071 18.1565 
7 1 3.38457 1.66469 15.9888 
8 1 2.15989 1.57009 18.1607 
18 1 3.40704 1.57027 17.4323 
21 1 3.32688 2.77554 12.4524 
23 1 3.36549 1.74418 14.7708 
24 1 3.4114 0.201313 12.9974 
17 1 7.03845 2.87318 24.3273 
19 1 7.00887 1.61476 22.1532 
20 1 7.03889 0.379458 24.3293 
22 1 6.97067 1.57264 19.4866 
25 1 5.71476 1.57129 18.7698 
27 1 6.9841 1.59568 20.9328 
28 1 1.10137 1.57114 18.7695 
30 1 7.03826 1.62586 23.5995 
10 1 6.96421 5.23503 5.05689 
13 1 7.03861 3.93173 0.23053 
15 1 7.00603 5.19616 2.39097 
16 1 7.03899 6.4377 0.22455 
26 1 7.03888 5.18629 0.945766 
29 1 5.71525 5.24174 5.78014 
31 1 6.97819 5.21387 3.61124 
32 1 1.09228 5.24133 5.77412 
1 1 4.66015 5.24733 6.39429 
3 1 3.37704 5.21857 8.54566 
4 1 2.14843 5.24661 6.38682 
6 1 3.31965 5.13971 11.2117 
9 1 3.31642 3.8213 11.8271 
11 1 3.35019 5.18994 9.7655 
12 1 3.37281 6.30154 12.0278 
14 1 3.40169 5.25276 7.10074 
33 2 3.48343 6.00852 13.5379 
ITEM: TIMESTEP
140
ITEM: NUMBER OF ATOMS
33
ITEM: BOX BOUNDS pp pp pp
-1.3875522872931178e-02 7.1108755228729290e+00
-1.2753273308611427e-02 7.1097532733086108e+00
-6.3742164901484377e-02 2.4651742164901474e+01
ITEM: ATOMS id type x y z 
2 1 3.35683 1.62548 13.3318 
5 1 4.65976 1.57044 18.1591 
7 1 3.38456 1.66443 15.99 
8 1 2.15932 1.56979 18.1633 
18 1 3.40705 1.57013 17.4343 
21 1 3.32691 2.77549 12.4525 
23 1 3.36555 1.74386 14.7723 
24 1 3.41135 0.200891 12.9978 
17 1 7.03909 2.8734 24.3324 
19 1 7.00945 1.61442 22.1568 
20 1 7.0395 0.37856 24.3344 
22 1 6.97123 1.57227 19.4897 
25 1 5.71483 1.57094 18.7723 
27 1 6.98473 1.59534 20.9369 
28 1 1.10122 1.57081 18.772 
30 1 7.03882 1.62553 23.6041 
10 1 6.96481 5.23534 5.05368 
13 1 7.03923 3.93148 0.225339 
15 1 7.00659 5.19648 2.38733 
16 1 7.03961 6.43852 0.219392 
26 1 7.03944 5.18657 0.941134 
29 1 5.71534 5.24202 5.77761 
31 1 6.97883 5.21414 3.60711 
32 1 1.09211 5.24162 5.77163 
1 1 4.66059 5.24759 6.39159 
3 1 3.37696 5.21895 8.54436 
4 1 2.14794 5.24691 6.38408 
6 1 3.31971 5.13975 11.2111 
9 1 3.31642 3.8209 11.8274 
11 1 3.3502 5.19041 9.76368 
12 1 3.37275 6.3012 12.028 
14 1 3.40166 5.25301 7.09877 
33 2 3.48328 6.00951 13.5381 
ITEM: TIMESTEP
150
ITEM: NUMBER OF ATOMS
33
ITEM: BOX BOUNDS pp pp pp
-1.3552170498776550e-02 7.1105521704987753e+00
-1.2512180835499433e-02 7.1095121808354991e+00
-6.9942922579831882e-02 2.4657942922579821e+01
ITEM: ATOMS id type x y z 
2 1 3.35688 1.62588 13.3337 
5 1 4.65984 1.57077 18.1619 
7 1 3.38469 1.66481 15.9916 
8 1 2.15924 1.57006 18.1664 
18 1 3.40709 1.57072 17.4366 
21 1 3.32711 2.77524 12.4529 
23 1 3.36577 1.7439 14.7742 
24 1 3.41128 0.201714 12.9984 
17 1 7.03882 2.87366 24.3384 
19 1 7.00909 1.61453 22.1612 
20 1 7.03921 0.378502 24.3402 
22 1 6.97083 1.57229 19.4936 
25 1 5.71449 1.57106 18.7754 
27 1 6.98448 1.59543 20.9417 
28 1 1.10147 1.57096 18.7751 
30 1 7.03839 1.62564 23.6095 
10 1 6.9645 5.23526 5.04948 
13 1 7.03894 3.93128 0.219183 
15 1 7.0062 5.19645 2.38275 
16 1 7.03932 6.43853 0.213329 
26 1 7.03902 5.18646 0.935692 
29 1 5.71503 5.24187 5.7744 
31 1 6.97858 5.214 3.60218 
32 1 1.09238 5.24152 5.76854 
1 1 4.66053 5.2474 6.38833 
3 1 3.37685 5.2191 8.54231 
4 1 2.14806 5.24679 6.38073 
6 1 3.31999 5.13899 11.21 
9 1 3.31655 3.82024 11.8279 
11 1 3.35029 5.1908 9.76124 
12 1 3.3727 6.299 12.0286 
14 1 3.40166 5.25281 7.09655 
33 2 3.48294 6.01065 13.5383 
ITEM: TIMESTEP
160
ITEM: NUMBER OF ATOMS
33
ITEM: BOX BOUNDS pp pp pp
-1.2818462076536660e-02 7.1098184620765359e+00
-1.2512791855186670e-02 7.1095127918551864e+00
-7.3597985363603624e-02 2.4661597985363596e+01
ITEM: ATOMS id type x y z 
2 1 3.35694 1.62635 13.3353 
5 1 4.65963 1.57099 18.1634 
7 1 3.38488 1.66497 15.9929 
8 1 2.1595 1.57023 18.1681 
18 1 3.40711 1.57124 17.4378 
21 1 3.32732 2.77484 12.4534 
23 1 3.36601 1.7439 14.7754 
24 1 3.41118 0.202437 12.9985 
17 1 7.03811 2.87376 24.3417 
19 1 7.00834 1.61451 22.1639 
20 1 7.0385 0.378347 24.3435 
22 1 6.97004 1.57213 19.4961 
25 1 5.71412 1.57108 18.7773 
27 1 6.98383 1.59537 20.9444 
28 1 1.1018 1.57099 18.777 
30 1 7.03759 1.62561 23.6125 
10 1 6.96379 5.23529 5.04672 
13 1 7.03822 3.93124 0.215591 
15 1 7.00544 5.19651 2.37987 
16 1 7.03859 6.43862 0.209837 
26 1 7.03821 5.18647 0.932617 
29 1 5.71467 5.24183 5.77239 
31 1 6.97792 5.21401 3.59933 
32 1 1.09271 5.24154 5.76664 
1 1 4.66019 5.24732 6.38639 
3 1 3.37677 5.21938 8.54073 
4 1 2.1485 5.24677 6.37869 
6 1 3.32033 5.13822 11.209 
9 1 3.31676 3.81975 11.8285 
11 1 3.35039 5.19134 9.75969 
12 1 3.37266 6.29721 12.0294 
14 1 3.40168 5.25275 7.09531 
33 2 3.48263 6.01136 13.5385 
ITEM: TIMESTEP
170
ITEM: NUMBER OF ATOMS
33
ITEM: BOX BOUNDS pp pp pp
-1.1755002442036389e-02 7.1087550024420363e+00
-1.1645893508232336e-02 7.1086458935082319e+00
-7.8637822025629120e-02 2.4666637822025617e+01
ITEM: ATOMS id type x y z 
2 1 3.35706 1.6276 13.3377 
5 1 4.65942 1.57189 18.1655 
7 1 3.38509 1.66602 15.995 
8 1 2.1598 1.57107 18.1705 
18 1 3.40716 1.57252 17.4394 
21 1 3.32765 2.77441 12.4543 
23 1 3.3665 1.74425 14.7773 
24 1 3.41091 0.20422 12.9982 
17 1 7.03704 2.87406 24.3462 
19 1 7.00728 1.61497 22.1677 
20 1 7.03745 0.37888 24.3478 
22 1 6.96887 1.57229 19.4998 
25 1 5.71356 1.57162 18.7799 
27 1 6.98289 1.59571 20.9482 
28 1 1.10225 1.57154 18.7796 
30 1 7.03644 1.62604 23.6165 
10 1 6.96277 5.23493 5.04266 
13 1 7.03713 3.9311 0.210661 
15 1 7.00437 5.19621 2.37578 
16 1 7.03752 6.43801 0.205083 
26 1 7.03705 5.18607 0.928462 
29 1 5.71417 5.24135 5.76951 
31 1 6.97696 5.21366 3.59526 
32 1 1.09314 5.24112 5.76397 
1 1 4.65975 5.24676 6.38359 
3 1 3.37659 5.21948 8.53849 
4 1 2.14909 5.24631 6.37573 
6 1 3.32092 5.1363 11.2074 
9 1 3.31718 3.81907 11.8293 
11 1 3.35052 5.19191 9.75749 
12 1 3.37262 6.29393 12.0312 
14 1 3.40172 5.25224 7.09348 
33 2 3.48208 6.01139 13.5392 
ITEM: TIMESTEP
176
ITEM: NUMBER OF ATOMS
33
ITEM: BOX BOUNDS pp pp pp
-1.1477477354064694e-02 7.1084774773540653e+00
-1.1191599668857405e-02 7.1081915996688574e+00
-8.0268134213089995e-02 2.4668268134213079e+01
ITEM: ATOMS id type x y z 
2 1 3.3571 1.62801 13.3384 
5 1 4.65938 1.57227 18.1661 
7 1 3.38518 1.66626 15.9957 
8 1 2.15985 1.57144 18.1713 
18 1 3.40716 1.57312 17.44 
21 1 3.32775 2.77437 12.4546 
23 1 3.36665 1.74458 14.778 
24 1 3.41082 0.204865 12.998 
17 1 7.03675 2.87418 24.3476 
19 1 7.00701 1.61521 22.169 
20 1 7.03717 0.379214 24.3492 
22 1 6.96856 1.57243 19.501 
25 1 5.71343 1.57191 18.7808 
27 1 6.98264 1.59591 20.9494 
28 1 1.10235 1.57183 18.7805 
30 1 7.03615 1.62628 23.6178 
10 1 6.9625 5.23469 5.04138 
13 1 7.03684 3.93104 0.209072 
15 1 7.00409 5.19602 2.37444 
16 1 7.03723 6.43767 0.203546 
26 1 7.03675 5.18587 0.92711 
29 1 5.71403 5.24121 5.76852 
31 1 6.97671 5.21347 3.59395 
32 1 1.09324 5.2409 5.76308 
1 1 4.65966 5.24645 6.38271 
3 1 3.37653 5.21943 8.53781 
4 1 2.14924 5.24608 6.37479 
6 1 3.3211 5.13564 11.2069 
9 1 3.31732 3.81887 11.8295 
11 1 3.35056 5.192 9.75683 
12 1 3.3726 6.29285 12.0317 
14 1 3.40172 5.252 7.09284 
33 2 3.48191 6.01119 13.5395 
ITEM: TIMESTEP
178
ITEM: NUMBER OF ATOMS
33
ITEM: BOX BOUNDS pp pp pp
-1.1477477354064694e-02 7.1084774773540653e+00
-1.1191599668857405e-02 7.1081915996688574e+00
-8.0268134213089995e-02 2.4668268134213079e+01
ITEM: ATOMS id type x y z 
2 1 3.3571 1.62801 13.3384 
5 1 4.65938 1.57227 18.1661 
7 1 3.38518 1.66625 15.9957 
8 1 2.15985 1.57144 18.1713 
18 1 3.40716 1.57312 17.44 
21 1 3.32775 2.77437 12.4546 
23 1 3.36665 1.74459 14.778 
24 1 3.41082 0.204865 12.998 
17 1 7.03675 2.87418 24.3476 
19 1 7.00701 1.61521 22.169 
20 1 7.03717 0.379214 24.3492 
22 1 6.96856 1.57243 19.501 
25 1 5.71343 1.57191 18.7808 
27 1 6.98264 1.59591 20.9494 
28 1 1.10235 1.57183 18.7805 
30 1 7.03615 1.62628 23.6178 
10 1 6.9625 5.23469 5.04138 
13 1 7.03684 3.93104 0.209072 
15 1 7.00409 5.19602 2.37444 
16 1 7.03723 6.43767 0.203546 
26 1 7.03675 5.18587 0.92711 
29 1 5.71403 5.24121 5.76852 
31 1 6.97671 5.21347 3.59395 
32 1 1.09324 5.2409 5.76308 
1 1 4.65966 5.24645 6.38271 
3 1 3.37653 5.21943 8.53781 
4 1 2.14924 5.24608 6.37479 
6 1 3.3211 5.13564 11.2069 
9 1 3.31732 3.81887 11.8295 
11 1 3.35056 5.192 9.75682 
12 1 3.3726 6.29285 12.0317 
14 1 3.40172 5.252 7.09284 
33 2 3.48191 6.01119 13.5395 
ITEM: TIMESTEP
179
ITEM: NUMBER OF ATOMS
33
ITEM: BOX BOUNDS pp pp pp
-1.1477477354064694e-02 7.1084774773540653e+00
-1.1191599668857405e-02 7.1081915996688574e+00
-8.0268134213089995e-02 2.4668268134213079e+01
ITEM: ATOMS id type x y z 
2 1 3.3571 1.62801 13.3384 
5 1 4.65938 1.57227 18.1661 
7 1 3.38518 1.66625 15.9957 
8 1 2.15985 1.57144 18.1713 
18 1 3.40716 1.57312 17.44 
21 1 3.32775 2.77437 12.4546 
23 1 3.36665 1.74459 14.778 
24 1 3.41082 0.204865 12.998 
17 1 7.03675 2.87418 24.3476 
19 1 7.00701 1.61521 22.169 
20 1 7.03717 0.379214 24.3492 
22 1 6.96856 1.57243 19.501 
25 1 5.71343 1.57191 18.7808 
27 1 6.98264 1.59591 20.9494 
28 1 1.10235 1.57183 18.7805 
30 1 7.03615 1.62628 23.6178 
10 1 6.9625 5.23469 5.04138 
13 1 7.03684 3.93104 0.209072 
15 1 7.00409 5.19602 2.37444 
16 1 7.03723 6.43767 0.203546 
26 1 7.03675 5.18587 0.92711 
29 1 5.71403 5.24121 5.76852 
31 1 6.97671 5.21347 3.59395 
32 1 1.09324 5.2409 5.76308 
1 1 4.65966 5.24645 6.38271 
3 1 3.37653 5.21943 8.53781 
4 1 2.14924 5.24608 6.37479 
6 1 3.3211 5.13564 11.2069 
9 1 3.31732 3.81887 11.8295 
11 1 3.35056 5.192 9.75682 
12 1 3.3726 6.29285 12.0317 
14 1 3.40172 5.252 7.09284 
33 2 3.48191 6.01119 13.5395 
ITEM: TIMESTEP
180
ITEM: NUMBER OF ATOMS
33
ITEM: BOX BOUNDS pp pp pp
-1.1477477354064694e-02 7.1084774773540653e+00
-1.1191599668857405e-02 7.1081915996688574e+00
-8.0268134213089995e-02 2.4668268134213079e+01
ITEM: ATOMS id type x y z 
2 1 3.3571 1.62801 13.3384 
5 1 4.65938 1.57227 18.1661 
7 1 3.38518 1.66625 15.9957 
8 1 2.15985 1.57144 18.1713 
18 1 3.40716 1.57312 17.44 
21 1 3.32775 2.77437 12.4546 
23 1 3.36665 1.74459 14.778 
24 1 3.41082 0.204865 12.998 
17 1 7.03675 2.87418 24.3476 
19 1 7.00701 1.61521 22.169 
20 1 7.03717 0.379214 24.3492 
22 1 6.96856 1.57243 19.501 
25 1 5.71343 1.57191 18.7808 
27 1 6.98264 1.59591 20.9494 
28 1 1.10235 1.57183 18.7805 
30 1 7.03615 1.62628 23.6178 
10 1 6.9625 5.23469 5.04138 
13 1 7.03684 3.93104 0.209072 
15 1 7.00409 5.19602 2.37444 
16 1 7.03723 6.43767 0.203546 
26 1 7.03675 5.18587 0.92711 
29 1 5.71403 5.24121 5.76852 
31 1 6.97671 5.21347 3.59395 
32 1 1.09324 5.2409 5.76308 
1 1 4.65966 5.24645 6.38271 
3 1 3.37653 5.21943 8.53781 
4 1 2.14924 5.24608 6.37479 
6 1 3.3211 5.13564 11.2069 
9 1 3.31732 3.81887 11.8295 
11 1 3.35056 5.192 9.75682 
12 1 3.3726 6.29285 12.0317 
14 1 3.40172 5.252 7.09284 
33 2 3.48191 6.01119 13.5395 
