ITEM: TIMESTEP
0
ITEM: NUMBER OF ATOMS
99
ITEM: BOX BOUNDS pp pp pp
0.0000000000000000e+00 1.6524999999999999e+01
0.0000000000000000e+00 1.6526000000000000e+01
0.0000000000000000e+00 1.6526000000000000e+01
ITEM: ATOMS id type x y z 
1 1 1.813 1.813 1.813 
10 1 5.821 5.821 5.821 
17 1 3.388 3.388 3.388 
26 1 4.246 4.246 4.246 
33 1 0.284 2 2 
41 1 2 0.284 2 
49 1 2 2 0.283 
58 1 7.351 5.634 5.634 
66 1 5.634 7.351 5.634 
74 1 5.634 5.634 7.351 
81 1 2.689 2.689 2.689 
90 1 4.945 4.945 4.945 
4 1 1.813 1.813 14.084 
11 1 5.821 5.821 10.076 
20 1 3.388 3.388 12.509 
27 1 4.246 4.246 11.651 
36 1 0.284 2 13.897 
46 1 2 0.284 13.897 
56 1 2 2 15.614 
59 1 7.351 5.634 10.263 
69 1 5.634 7.351 10.263 
79 1 5.634 5.634 8.546 
84 1 2.689 2.689 13.208 
91 1 4.945 4.945 10.952 
97 2 2.832 3.021 15.937 
98 2 4.261 3.042 16.441 
99 3 4.358 3.979 16.152 
6 1 1.813 14.084 1.813 
13 1 5.821 10.076 5.821 
22 1 3.388 12.509 3.388 
29 1 4.246 11.651 4.246 
38 1 0.284 13.897 2 
48 1 2 15.614 2 
52 1 2 13.897 0.283 
61 1 7.351 10.263 5.634 
71 1 5.634 8.546 5.634 
75 1 5.634 10.263 7.351 
86 1 2.689 13.208 2.689 
93 1 4.945 10.952 4.945 
7 1 1.813 14.084 14.084 
16 1 5.821 10.076 10.076 
23 1 3.388 12.509 12.509 
32 1 4.246 11.651 11.651 
39 1 0.284 13.897 13.897 
43 1 2 15.614 13.897 
53 1 2 13.897 15.614 
64 1 7.351 10.263 10.263 
68 1 5.634 8.547 10.263 
78 1 5.634 10.263 8.546 
87 1 2.689 13.208 13.208 
96 1 4.945 10.952 10.952 
8 1 14.084 1.813 1.813 
15 1 10.076 5.821 5.821 
24 1 12.509 3.388 3.388 
31 1 11.651 4.246 4.246 
40 1 15.613 2 2 
44 1 13.897 0.284 2 
54 1 13.897 2 0.283 
63 1 8.547 5.634 5.634 
67 1 10.263 7.351 5.634 
77 1 10.263 5.634 7.351 
88 1 13.208 2.689 2.689 
95 1 10.952 4.945 4.945 
5 1 14.084 1.813 14.084 
14 1 10.076 5.821 10.076 
21 1 12.509 3.388 12.509 
30 1 11.651 4.246 11.651 
37 1 15.613 2 13.897 
47 1 13.897 0.284 13.897 
51 1 13.897 2 15.614 
62 1 8.546 5.634 10.263 
72 1 10.263 7.351 10.263 
76 1 10.263 5.634 8.546 
85 1 13.208 2.689 13.208 
94 1 10.952 4.945 10.952 
3 1 14.084 14.084 1.813 
12 1 10.076 10.076 5.821 
19 1 12.509 12.509 3.388 
28 1 11.651 11.651 4.246 
35 1 15.613 13.897 2 
45 1 13.897 15.614 2 
55 1 13.897 13.897 0.283 
60 1 8.547 10.263 5.634 
70 1 10.263 8.547 5.634 
80 1 10.263 10.263 7.351 
83 1 13.208 13.208 2.689 
92 1 10.952 10.952 4.945 
2 1 14.084 14.084 14.084 
9 1 10.076 10.076 10.076 
18 1 12.509 12.509 12.509 
25 1 11.651 11.651 11.651 
34 1 15.613 13.897 13.897 
42 1 13.897 15.614 13.897 
50 1 13.897 13.897 15.614 
57 1 8.546 10.263 10.263 
65 1 10.263 8.546 10.263 
73 1 10.263 10.263 8.547 
82 1 13.208 13.208 13.208 
89 1 10.952 10.952 10.952 
ITEM: TIMESTEP
10
ITEM: NUMBER OF ATOMS
99
ITEM: BOX BOUNDS pp pp pp
0.0000000000000000e+00 1.6524999999999999e+01
0.0000000000000000e+00 1.6526000000000000e+01
0.0000000000000000e+00 1.6526000000000000e+01
ITEM: ATOMS id type x y z 
1 1 1.80334 1.80077 1.81822 
10 1 5.82049 5.82003 5.82003 
17 1 3.39107 3.39115 3.39068 
26 1 4.245 4.24499 4.24501 
33 1 0.272777 2.00175 2.00484 
41 1 2.00182 0.2728 2.00482 
49 1 1.98495 1.98472 0.320389 
58 1 7.35196 5.63154 5.63155 
66 1 5.63152 7.35195 5.63155 
74 1 5.63152 5.63153 7.35227 
81 1 2.69679 2.6965 2.69827 
90 1 4.94117 4.94129 4.94111 
4 1 1.80028 1.79749 14.0525 
11 1 5.82003 5.82035 10.0769 
20 1 3.39165 3.39169 12.5062 
27 1 4.24402 4.24408 11.653 
36 1 0.280826 2.002 13.8928 
46 1 2.00198 0.280656 13.8929 
56 1 2.02218 2.02933 15.6238 
59 1 7.3521 5.63157 10.2654 
69 1 5.63158 7.35182 10.2654 
79 1 5.63157 5.63158 8.54508 
84 1 2.69319 2.69307 13.2016 
91 1 4.94052 4.94044 10.9565 
97 2 2.83885 3.03984 15.9031 
98 2 4.2739 3.06214 16.4389 
99 3 4.36643 3.96835 16.1597 
6 1 1.81401 14.0818 1.81385 
13 1 5.8203 10.0772 5.81991 
22 1 3.39065 12.5067 3.39059 
29 1 4.24353 11.6535 4.24353 
38 1 0.283187 13.8945 2.00242 
48 1 2.00268 15.6175 2.00278 
52 1 2.00242 13.8945 0.282641 
61 1 7.35177 10.2655 5.63154 
71 1 5.63151 8.5451 5.63154 
75 1 5.63152 10.2655 7.35141 
86 1 2.69337 13.203 2.69348 
93 1 4.94031 10.9566 4.94029 
7 1 1.81417 14.0826 14.0828 
16 1 5.81974 10.0773 10.0773 
23 1 3.3906 12.5063 12.5065 
32 1 4.2434 11.6535 11.6536 
39 1 0.283075 13.8944 13.8945 
43 1 2.00315 15.6126 13.8951 
53 1 2.00255 13.8945 15.615 
64 1 7.35408 10.2656 10.2655 
68 1 5.63143 8.54508 10.2656 
78 1 5.63145 10.2656 8.54509 
87 1 2.69366 13.2035 13.2032 
96 1 4.94045 10.9568 10.9565 
8 1 14.0815 1.81391 1.81385 
15 1 10.0773 5.82001 5.81973 
24 1 12.5067 3.39062 3.39064 
31 1 11.6535 4.2435 4.24343 
40 1 15.6181 2.00275 2.0028 
44 1 13.8945 0.28299 2.00241 
54 1 13.8945 2.00242 0.282591 
63 1 8.54529 5.63146 5.63146 
67 1 10.2655 7.35433 5.63149 
77 1 10.2655 5.63148 7.3521 
88 1 13.203 2.69342 2.69338 
95 1 10.9567 4.94031 4.94041 
5 1 14.0824 1.81408 14.0827 
14 1 10.077 5.82011 10.0769 
21 1 12.5064 3.3906 12.5063 
30 1 11.6535 4.24361 11.6534 
37 1 15.6121 2.00323 13.8951 
47 1 13.8944 0.282848 13.8945 
51 1 13.8944 2.00256 15.6151 
62 1 8.5448 5.63153 10.2655 
72 1 10.2655 7.35142 10.2655 
76 1 10.2655 5.63155 8.5454 
85 1 13.2032 2.69376 13.2034 
94 1 10.9565 4.94028 10.9567 
3 1 14.0827 14.0829 1.81416 
12 1 10.0775 10.0766 5.82069 
19 1 12.5065 12.5064 3.39049 
28 1 11.6536 11.6536 4.24346 
35 1 15.6144 13.8945 2.00255 
45 1 13.8945 15.6153 2.00253 
55 1 13.8945 13.8945 0.282709 
60 1 8.54552 10.2655 5.63153 
70 1 10.2654 8.54417 5.63155 
80 1 10.2654 10.2654 7.356 
83 1 13.2034 13.2036 2.69373 
92 1 10.9566 10.9566 4.94034 
2 1 14.0826 14.0829 14.0828 
9 1 10.0765 10.0775 10.0765 
18 1 12.5064 12.5064 12.5065 
25 1 11.6536 11.6536 11.6535 
34 1 15.6138 13.8944 13.8944 
42 1 13.8945 15.6147 13.8945 
50 1 13.8945 13.8945 15.6144 
57 1 8.54379 10.2654 10.2655 
65 1 10.2655 8.54503 10.2655 
73 1 10.2655 10.2654 8.54163 
82 1 13.2035 13.2034 13.2033 
89 1 10.9565 10.9566 10.9568 
ITEM: TIMESTEP
20
ITEM: NUMBER OF ATOMS
99
ITEM: BOX BOUNDS pp pp pp
0.0000000000000000e+00 1.6524999999999999e+01
0.0000000000000000e+00 1.6526000000000000e+01
0.0000000000000000e+00 1.6526000000000000e+01
ITEM: ATOMS id type x y z 
1 1 1.80281 1.79463 1.82558 
10 1 5.81941 5.81982 5.81928 
17 1 3.39298 3.39344 3.39172 
26 1 4.24499 4.24508 4.2449 
33 1 0.267417 2.00578 2.0134 
41 1 2.00641 0.265812 2.01318 
49 1 1.93224 1.93469 0.35858 
58 1 7.35359 5.62778 5.62781 
66 1 5.62775 7.35218 5.62776 
74 1 5.62785 5.62775 7.35422 
81 1 2.69787 2.6969 2.70142 
90 1 4.94388 4.94381 4.94355 
4 1 1.78885 1.78457 14.0219 
11 1 5.81843 5.81765 10.0786 
20 1 3.39157 3.39171 12.5084 
27 1 4.24215 4.24208 11.6552 
36 1 0.28151 2.00205 13.8858 
46 1 2.00254 0.279895 13.8861 
56 1 2.06509 2.08251 15.6583 
59 1 7.3537 5.62778 10.2693 
69 1 5.62774 7.35439 10.2693 
79 1 5.62766 5.62778 8.54376 
84 1 2.68878 2.68819 13.1987 
91 1 4.93872 4.93885 10.9584 
97 2 2.87424 3.08409 15.8297 
98 2 4.28516 3.07988 16.4372 
99 3 4.37508 3.96268 16.1664 
6 1 1.81614 14.0769 1.81585 
13 1 5.81911 10.0784 5.81879 
22 1 3.39255 12.5049 3.39263 
29 1 4.2422 11.6547 4.24225 
38 1 0.279892 13.8902 2.00623 
48 1 2.00749 15.6046 2.00743 
52 1 2.00624 13.8903 0.279665 
61 1 7.35232 10.2689 5.62808 
71 1 5.62801 8.54646 5.628 
75 1 5.62813 10.269 7.35198 
86 1 2.69437 13.2015 2.69424 
93 1 4.93991 10.9574 4.93977 
7 1 1.81534 14.083 14.0813 
16 1 5.81814 10.0779 10.0786 
23 1 3.39227 12.5051 12.5049 
32 1 4.24231 11.6551 11.6548 
39 1 0.280123 13.8908 13.8908 
43 1 2.0084 15.6094 13.8941 
53 1 2.00604 13.8912 15.615 
64 1 7.35374 10.2691 10.2691 
68 1 5.62792 8.54546 10.2691 
78 1 5.62791 10.2692 8.54424 
87 1 2.69424 13.202 13.2024 
96 1 4.93956 10.9568 10.9573 
8 1 14.0764 1.81577 1.81571 
15 1 10.0791 5.8181 5.81916 
24 1 12.505 3.39253 3.39257 
31 1 11.6549 4.24197 4.24204 
40 1 15.6067 2.00772 2.00731 
44 1 13.8903 0.279938 2.0061 
54 1 13.8903 2.00612 0.27955 
63 1 8.54497 5.62782 5.62777 
67 1 10.269 7.35358 5.6277 
77 1 10.2692 5.6279 7.35207 
88 1 13.2014 2.69426 2.6942 
95 1 10.9575 4.93988 4.93977 
5 1 14.0814 1.81593 14.0818 
14 1 10.078 5.81807 10.0791 
21 1 12.5049 3.39254 12.5047 
30 1 11.6545 4.24215 11.6548 
37 1 15.6116 2.00872 13.8938 
47 1 13.8907 0.279169 13.8907 
51 1 13.8908 2.00618 15.616 
62 1 8.54434 5.62786 10.2692 
72 1 10.2692 7.35323 10.2691 
76 1 10.2692 5.62792 8.54428 
85 1 13.2019 2.69424 13.2024 
94 1 10.9576 4.94008 10.957 
3 1 14.0825 14.0829 1.81477 
12 1 10.0797 10.0781 5.81895 
19 1 12.5055 12.5055 3.39153 
28 1 11.6548 11.6551 4.2419 
35 1 15.6117 13.8917 2.00566 
45 1 13.8917 15.6128 2.00562 
55 1 13.8913 13.8914 0.280743 
60 1 8.54373 10.269 5.62798 
70 1 10.269 8.54546 5.62784 
80 1 10.2691 10.2691 7.35323 
83 1 13.2027 13.2028 2.69423 
92 1 10.9577 10.9571 4.93993 
2 1 14.0831 14.084 14.0832 
9 1 10.0775 10.0775 10.0778 
18 1 12.506 12.5058 12.506 
25 1 11.6549 11.6546 11.655 
34 1 15.6117 13.8919 13.8915 
42 1 13.892 15.6111 13.8918 
50 1 13.8915 13.8918 15.614 
57 1 8.54591 10.2686 10.2687 
65 1 10.2686 8.54598 10.2686 
73 1 10.2687 10.2688 8.54609 
82 1 13.2028 13.2032 13.2028 
89 1 10.9572 10.9578 10.957 
ITEM: TIMESTEP
30
ITEM: NUMBER OF ATOMS
99
ITEM: BOX BOUNDS pp pp pp
0.0000000000000000e+00 1.6524999999999999e+01
0.0000000000000000e+00 1.6526000000000000e+01
0.0000000000000000e+00 1.6526000000000000e+01
ITEM: ATOMS id type x y z 
1 1 1.79306 1.7919 1.83728 
10 1 5.82047 5.81958 5.82012 
17 1 3.40227 3.40285 3.39999 
26 1 4.24904 4.24881 4.24844 
33 1 0.257105 2.00952 2.02471 
41 1 2.0114 0.251695 2.02463 
49 1 1.91368 1.91272 0.332993 
58 1 7.3538 5.62442 5.62417 
66 1 5.62427 7.35361 5.6242 
74 1 5.62421 5.62438 7.35536 
81 1 2.70343 2.70183 2.70859 
90 1 4.94672 4.94749 4.94671 
4 1 1.78656 1.78161 14.007 
11 1 5.81868 5.81996 10.0797 
20 1 3.3877 3.38786 12.5143 
27 1 4.23926 4.23969 11.6587 
36 1 0.282798 2.00007 13.8802 
46 1 2.00104 0.282374 13.881 
56 1 2.11508 2.15267 15.6573 
59 1 7.35038 5.62485 10.2721 
69 1 5.62503 7.3502 10.272 
79 1 5.62474 5.62466 8.54742 
84 1 2.68146 2.68025 13.1946 
91 1 4.93651 4.93577 10.9611 
97 2 2.88943 3.07707 15.8091 
98 2 4.28707 3.08218 16.4376 
99 3 4.36347 3.9607 16.164 
6 1 1.81538 14.0648 1.81589 
13 1 5.81664 10.0807 5.81705 
22 1 3.39345 12.5049 3.39314 
29 1 4.24283 11.6545 4.24264 
38 1 0.280166 13.8858 2.00988 
48 1 2.0131 15.5966 2.01359 
52 1 2.00994 13.8855 0.277953 
61 1 7.35441 10.2727 5.62423 
71 1 5.62418 8.54511 5.62412 
75 1 5.6244 10.2728 7.35351 
86 1 2.69359 13.1997 2.69419 
93 1 4.94034 10.9564 4.94064 
7 1 1.81483 14.0852 14.0799 
16 1 5.81799 10.0808 10.0797 
23 1 3.3917 12.5047 12.5055 
32 1 4.24246 11.654 11.6544 
39 1 0.281804 13.8878 13.8877 
43 1 2.01287 15.6118 13.8936 
53 1 2.00922 13.8881 15.6132 
64 1 7.35263 10.2725 10.2727 
68 1 5.62417 8.5416 10.2728 
78 1 5.62426 10.2726 8.54433 
87 1 2.6945 13.2036 13.2018 
96 1 4.9408 10.9572 10.9566 
8 1 14.0655 1.81529 1.81598 
15 1 10.0805 5.81824 5.8162 
24 1 12.5053 3.39326 3.39299 
31 1 11.6545 4.24281 4.24243 
40 1 15.6003 2.01314 2.01323 
44 1 13.886 0.280314 2.00967 
54 1 13.8857 2.00967 0.277038 
63 1 8.5457 5.62401 5.62428 
67 1 10.2726 7.35288 5.62426 
77 1 10.2729 5.62423 7.35419 
88 1 13.1996 2.69323 2.69377 
95 1 10.9569 4.9402 4.94087 
5 1 14.0862 1.81435 14.0812 
14 1 10.081 5.81896 10.0786 
21 1 12.5049 3.39133 12.5055 
30 1 11.6546 4.24287 11.6542 
37 1 15.6121 2.01274 13.8937 
47 1 13.888 0.282408 13.8881 
51 1 13.888 2.00894 15.613 
62 1 8.5423 5.62441 10.2727 
72 1 10.2723 7.35202 10.2725 
76 1 10.2723 5.62446 8.54536 
85 1 13.2034 2.6947 13.2024 
94 1 10.9564 4.94006 10.957 
3 1 14.0786 14.0796 1.81541 
12 1 10.0792 10.0802 5.81894 
19 1 12.5053 12.505 3.39166 
28 1 11.6548 11.6543 4.24227 
35 1 15.6135 13.888 2.00969 
45 1 13.888 15.6146 2.00959 
55 1 13.8876 13.8877 0.280537 
60 1 8.54608 10.2722 5.62468 
70 1 10.2725 8.54489 5.62444 
80 1 10.2726 10.2723 7.35193 
83 1 13.2025 13.2033 2.69435 
92 1 10.9569 10.9574 4.94039 
2 1 14.0795 14.08 14.0806 
9 1 10.0801 10.0804 10.0801 
18 1 12.5056 12.5055 12.5054 
25 1 11.6548 11.6552 11.6546 
34 1 15.6156 13.8878 13.888 
42 1 13.8879 15.6168 13.8881 
50 1 13.8879 13.8881 15.6156 
57 1 8.54358 10.2725 10.2725 
65 1 10.2725 8.54294 10.2724 
73 1 10.2724 10.2726 8.54334 
82 1 13.203 13.2032 13.2034 
89 1 10.9573 10.9566 10.9575 
ITEM: TIMESTEP
40
ITEM: NUMBER OF ATOMS
99
ITEM: BOX BOUNDS pp pp pp
0.0000000000000000e+00 1.6524999999999999e+01
0.0000000000000000e+00 1.6526000000000000e+01
0.0000000000000000e+00 1.6526000000000000e+01
ITEM: ATOMS id type x y z 
1 1 1.79189 1.7893 1.83619 
10 1 5.82045 5.81976 5.82054 
17 1 3.40184 3.40229 3.3994 
26 1 4.2494 4.24943 4.24884 
33 1 0.258143 2.00936 2.02556 
41 1 2.01112 0.253621 2.02545 
49 1 1.91304 1.91329 0.331418 
58 1 7.35439 5.62401 5.62382 
66 1 5.62391 7.35413 5.62382 
74 1 5.62388 5.624 7.35518 
81 1 2.70282 2.70133 2.70844 
90 1 4.94725 4.94763 4.94711 
4 1 1.78694 1.78243 14.0093 
11 1 5.81803 5.81902 10.0803 
20 1 3.38782 3.38798 12.5142 
27 1 4.23882 4.23909 11.6593 
36 1 0.283025 2.0001 13.8798 
46 1 2.00117 0.281579 13.8806 
56 1 2.11786 2.1566 15.656 
59 1 7.3508 5.62443 10.2725 
69 1 5.62457 7.35076 10.2724 
79 1 5.62428 5.62424 8.54732 
84 1 2.68115 2.67987 13.1936 
91 1 4.9362 4.93571 10.9614 
97 2 2.88884 3.07562 15.8081 
98 2 4.28847 3.08216 16.4383 
99 3 4.36337 3.96151 16.1638 
6 1 1.8154 14.064 1.81562 
13 1 5.81716 10.0805 5.81713 
22 1 3.39375 12.5047 3.39352 
29 1 4.2427 11.6545 4.24261 
38 1 0.280119 13.8852 2.01026 
48 1 2.01369 15.5973 2.01432 
52 1 2.01025 13.8849 0.277965 
61 1 7.35388 10.273 5.62394 
71 1 5.62383 8.54542 5.6238 
75 1 5.62405 10.2731 7.35311 
86 1 2.69371 13.1992 2.69421 
93 1 4.94052 10.9566 4.94062 
7 1 1.81511 14.0856 14.0799 
16 1 5.81795 10.08 10.0797 
23 1 3.39182 12.5045 12.5054 
32 1 4.24248 11.6542 11.6544 
39 1 0.281709 13.8875 13.8874 
43 1 2.01317 15.6119 13.8934 
53 1 2.0096 13.8878 15.613 
64 1 7.3525 10.2729 10.273 
68 1 5.62393 8.54268 10.273 
78 1 5.62398 10.273 8.54473 
87 1 2.69459 13.2036 13.2016 
96 1 4.94064 10.9571 10.9567 
8 1 14.0651 1.81541 1.81567 
15 1 10.0805 5.81816 5.81688 
24 1 12.5051 3.39355 3.39334 
31 1 11.6546 4.24265 4.24245 
40 1 15.6007 2.0136 2.01394 
44 1 13.8854 0.280213 2.01005 
54 1 13.885 2.00997 0.277899 
63 1 8.54577 5.62371 5.62388 
67 1 10.2729 7.35283 5.6239 
77 1 10.2732 5.62393 7.35363 
88 1 13.1991 2.69334 2.69378 
95 1 10.9569 4.94036 4.94069 
5 1 14.0862 1.81488 14.0809 
14 1 10.0802 5.81863 10.079 
21 1 12.5047 3.39151 12.5055 
30 1 11.6545 4.24272 11.6543 
37 1 15.6121 2.0131 13.8935 
47 1 13.8876 0.28204 13.8877 
51 1 13.8877 2.00939 15.6125 
62 1 8.54308 5.62411 10.273 
72 1 10.2727 7.35201 10.2729 
76 1 10.2728 5.62411 8.54508 
85 1 13.2035 2.69466 13.2022 
94 1 10.9566 4.94017 10.9569 
3 1 14.0787 14.0798 1.81572 
12 1 10.0795 10.0803 5.81848 
19 1 12.5051 12.5049 3.39192 
28 1 11.6548 11.6545 4.24216 
35 1 15.6131 13.8876 2.0101 
45 1 13.8877 15.6142 2.00999 
55 1 13.8872 13.8873 0.28082 
60 1 8.54548 10.2727 5.62428 
70 1 10.2729 8.54463 5.62406 
80 1 10.273 10.2728 7.35261 
83 1 13.2024 13.2031 2.69423 
92 1 10.9571 10.9573 4.94032 
2 1 14.0795 14.0802 14.0806 
9 1 10.08 10.08 10.0796 
18 1 12.5054 12.5053 12.5052 
25 1 11.6549 11.6552 11.6548 
34 1 15.6155 13.8874 13.8876 
42 1 13.8875 15.6164 13.8878 
50 1 13.8875 13.8877 15.615 
57 1 8.54398 10.2728 10.2728 
65 1 10.2727 8.54374 10.2727 
73 1 10.2727 10.2729 8.544 
82 1 13.2028 13.2031 13.2033 
89 1 10.9573 10.9568 10.9575 
ITEM: TIMESTEP
50
ITEM: NUMBER OF ATOMS
99
ITEM: BOX BOUNDS pp pp pp
0.0000000000000000e+00 1.6524999999999999e+01
0.0000000000000000e+00 1.6526000000000000e+01
0.0000000000000000e+00 1.6526000000000000e+01
ITEM: ATOMS id type x y z 
1 1 1.78153 1.77399 1.81997 
10 1 5.82287 5.82494 5.82682 
17 1 3.39702 3.39677 3.39316 
26 1 4.25211 4.25392 4.25089 
33 1 0.26263 2.00858 2.03719 
41 1 2.01069 0.258491 2.03725 
49 1 1.90448 1.91641 0.306736 
58 1 7.35783 5.61918 5.61936 
66 1 5.61932 7.35499 5.6192 
74 1 5.61962 5.61934 7.35831 
81 1 2.69744 2.69617 2.70793 
90 1 4.94992 4.94753 4.94983 
4 1 1.79206 1.79053 14.0355 
11 1 5.81465 5.81405 10.0858 
20 1 3.38642 3.38627 12.5149 
27 1 4.23635 4.23553 11.6637 
36 1 0.284283 2.00077 13.8761 
46 1 2.00266 0.281535 13.8777 
56 1 2.1468 2.20244 15.6421 
59 1 7.35096 5.61979 10.2775 
69 1 5.61967 7.35215 10.2774 
79 1 5.61917 5.61927 8.54884 
84 1 2.67434 2.67257 13.1839 
91 1 4.93298 4.93438 10.9658 
97 2 2.89384 3.06803 15.7921 
98 2 4.30649 3.0845 16.4462 
99 3 4.36179 3.97027 16.1629 
6 1 1.81494 14.0613 1.81314 
13 1 5.8192 10.0819 5.81881 
22 1 3.39577 12.5035 3.39646 
29 1 4.24258 11.6537 4.24306 
38 1 0.277815 13.877 2.01483 
48 1 2.01964 15.5979 2.02368 
52 1 2.01432 13.8763 0.27755 
61 1 7.35308 10.2778 5.61913 
71 1 5.6187 8.54682 5.61835 
75 1 5.61918 10.2781 7.35415 
86 1 2.69435 13.1937 2.6934 
93 1 4.94256 10.9575 4.94142 
7 1 1.81733 14.0883 14.0783 
16 1 5.81852 10.0751 10.0788 
23 1 3.39218 12.5036 12.5045 
32 1 4.24313 11.655 11.654 
39 1 0.280327 13.8834 13.8826 
43 1 2.01681 15.6131 13.8891 
53 1 2.01493 13.8839 15.6127 
64 1 7.35253 10.2773 10.2773 
68 1 5.61997 8.54422 10.2768 
78 1 5.61967 10.2773 8.54499 
87 1 2.69588 13.2041 13.2008 
96 1 4.9397 10.955 10.9575 
8 1 14.0631 1.81593 1.8131 
15 1 10.081 5.81764 5.81957 
24 1 12.5037 3.39507 3.39585 
31 1 11.6547 4.24214 4.24347 
40 1 15.602 2.01892 2.02349 
44 1 13.8777 0.278417 2.01498 
54 1 13.8768 2.01427 0.277519 
63 1 8.54688 5.61884 5.61849 
67 1 10.278 7.35337 5.61915 
77 1 10.278 5.61942 7.35344 
88 1 13.1946 2.69422 2.69301 
95 1 10.957 4.94257 4.93998 
5 1 14.0876 1.81778 14.0792 
14 1 10.0751 5.81771 10.0794 
21 1 12.5036 3.3923 12.5053 
30 1 11.6536 4.242 11.6549 
37 1 15.6158 2.01642 13.8887 
47 1 13.8838 0.28116 13.8828 
51 1 13.8838 2.01478 15.6135 
62 1 8.54368 5.61984 10.2769 
72 1 10.2773 7.35303 10.2774 
76 1 10.2774 5.61962 8.54492 
85 1 13.2046 2.69524 13.2003 
94 1 10.958 4.94115 10.9565 
3 1 14.0786 14.0803 1.81601 
12 1 10.0798 10.079 5.81805 
19 1 12.5042 12.5046 3.39381 
28 1 11.6549 11.6551 4.24243 
35 1 15.6128 13.883 2.01579 
45 1 13.8828 15.6129 2.01549 
55 1 13.882 13.8822 0.280635 
60 1 8.54469 10.2776 5.61949 
70 1 10.2776 8.54606 5.61942 
80 1 10.2776 10.2779 7.35339 
83 1 13.201 13.201 2.69326 
92 1 10.9573 10.9564 4.93993 
2 1 14.0794 14.08 14.0796 
9 1 10.0795 10.0773 10.0796 
18 1 12.5044 12.5042 12.5047 
25 1 11.6552 11.6546 11.6558 
34 1 15.6162 13.8816 13.8827 
42 1 13.8816 15.6161 13.8828 
50 1 13.8821 13.8823 15.6156 
57 1 8.5443 10.2774 10.2773 
65 1 10.2772 8.54546 10.2773 
73 1 10.2774 10.2774 8.54549 
82 1 13.2023 13.203 13.2019 
89 1 10.9574 10.9584 10.9562 
ITEM: TIMESTEP
60
ITEM: NUMBER OF ATOMS
99
ITEM: BOX BOUNDS pp pp pp
0.0000000000000000e+00 1.6524999999999999e+01
0.0000000000000000e+00 1.6526000000000000e+01
0.0000000000000000e+00 1.6526000000000000e+01
ITEM: ATOMS id type x y z 
1 1 1.7819 1.77503 1.81917 
10 1 5.82322 5.8247 5.82672 
17 1 3.39698 3.39681 3.3932 
26 1 4.25189 4.25351 4.25057 
33 1 0.261914 2.00869 2.03748 
41 1 2.01094 0.257848 2.03754 
49 1 1.90427 1.91622 0.30623 
58 1 7.35658 5.61905 5.61923 
66 1 5.61911 7.35564 5.61905 
74 1 5.61943 5.61921 7.3587 
81 1 2.69739 2.69599 2.70778 
90 1 4.94944 4.94732 4.94942 
4 1 1.79213 1.79036 14.0355 
11 1 5.81489 5.81461 10.0856 
20 1 3.38593 3.38574 12.5149 
27 1 4.23631 4.23562 11.6638 
36 1 0.284906 2.00087 13.8764 
46 1 2.00274 0.282375 13.878 
56 1 2.14646 2.20281 15.6418 
59 1 7.3512 5.61971 10.2776 
69 1 5.61962 7.35169 10.2775 
79 1 5.6191 5.61915 8.54985 
84 1 2.67398 2.67219 13.1842 
91 1 4.9331 4.9343 10.9658 
97 2 2.89573 3.06949 15.7913 
98 2 4.30724 3.08502 16.4464 
99 3 4.36179 3.97033 16.163 
6 1 1.815 14.0614 1.81321 
13 1 5.81907 10.0815 5.81887 
22 1 3.39558 12.5035 3.39622 
29 1 4.2428 11.6537 4.24319 
38 1 0.278948 13.8768 2.01502 
48 1 2.01966 15.5971 2.02414 
52 1 2.01452 13.8761 0.277423 
61 1 7.35333 10.278 5.61899 
71 1 5.61858 8.54698 5.61819 
75 1 5.61908 10.2783 7.35381 
86 1 2.69428 13.1939 2.69339 
93 1 4.94255 10.9573 4.94157 
7 1 1.8173 14.0882 14.0785 
16 1 5.81842 10.0755 10.079 
23 1 3.39212 12.5037 12.5047 
32 1 4.24315 11.6548 11.654 
39 1 0.281292 13.8833 13.8824 
43 1 2.01681 15.6133 13.8888 
53 1 2.01507 13.8837 15.6125 
64 1 7.35281 10.2775 10.2775 
68 1 5.61974 8.543 10.277 
78 1 5.61942 10.2775 8.54504 
87 1 2.69583 13.2042 13.2007 
96 1 4.93983 10.955 10.9574 
8 1 14.0632 1.81576 1.81309 
15 1 10.0813 5.81797 5.81943 
24 1 12.5037 3.39488 3.39564 
31 1 11.6546 4.24237 4.24354 
40 1 15.6017 2.01891 2.02392 
44 1 13.8776 0.278815 2.01514 
54 1 13.8766 2.01446 0.278035 
63 1 8.54793 5.61861 5.6183 
67 1 10.2782 7.354 5.61901 
77 1 10.2782 5.61924 7.35374 
88 1 13.1948 2.69414 2.69297 
95 1 10.957 4.94253 4.9402 
5 1 14.0879 1.81752 14.079 
14 1 10.0754 5.81807 10.0792 
21 1 12.5037 3.39217 12.5053 
30 1 11.6536 4.24215 11.6548 
37 1 15.6155 2.01636 13.8884 
47 1 13.8836 0.281181 13.8827 
51 1 13.8836 2.01492 15.613 
62 1 8.54246 5.61969 10.277 
72 1 10.2773 7.35317 10.2775 
76 1 10.2775 5.61946 8.54504 
85 1 13.2046 2.69529 13.2004 
94 1 10.9578 4.94113 10.9565 
3 1 14.0784 14.0801 1.81601 
12 1 10.0797 10.0789 5.81824 
19 1 12.5043 12.5046 3.39365 
28 1 11.6548 11.655 4.24251 
35 1 15.612 13.8827 2.01599 
45 1 13.8825 15.6131 2.0157 
55 1 13.8818 13.882 0.280509 
60 1 8.54488 10.2777 5.61934 
70 1 10.2777 8.54538 5.61925 
80 1 10.2777 10.278 7.35374 
83 1 13.201 13.2011 2.69334 
92 1 10.9572 10.9564 4.9401 
2 1 14.0793 14.0801 14.0798 
9 1 10.0793 10.0776 10.0795 
18 1 12.5045 12.5044 12.5048 
25 1 11.6551 11.6545 11.6556 
34 1 15.6153 13.8814 13.8825 
42 1 13.8814 15.6164 13.8827 
50 1 13.882 13.8821 15.6153 
57 1 8.5444 10.2775 10.2775 
65 1 10.2774 8.54477 10.2775 
73 1 10.2776 10.2776 8.54496 
82 1 13.2023 13.203 13.2021 
89 1 10.9574 10.9581 10.9562 
ITEM: TIMESTEP
61
ITEM: NUMBER OF ATOMS
99
ITEM: BOX BOUNDS pp pp pp
0.0000000000000000e+00 1.6524999999999999e+01
0.0000000000000000e+00 1.6526000000000000e+01
0.0000000000000000e+00 1.6526000000000000e+01
ITEM: ATOMS id type x y z 
1 1 1.7819 1.77503 1.81917 
10 1 5.82322 5.8247 5.82672 
17 1 3.39698 3.39681 3.3932 
26 1 4.25189 4.25351 4.25057 
33 1 0.261914 2.00869 2.03748 
41 1 2.01094 0.257848 2.03754 
49 1 1.90427 1.91622 0.30623 
58 1 7.35658 5.61905 5.61923 
66 1 5.61911 7.35564 5.61905 
74 1 5.61943 5.61921 7.3587 
81 1 2.69739 2.69599 2.70778 
90 1 4.94944 4.94732 4.94942 
4 1 1.79213 1.79036 14.0355 
11 1 5.81489 5.81461 10.0856 
20 1 3.38593 3.38574 12.5149 
27 1 4.23631 4.23562 11.6638 
36 1 0.284906 2.00087 13.8764 
46 1 2.00274 0.282375 13.878 
56 1 2.14646 2.20281 15.6418 
59 1 7.3512 5.61971 10.2776 
69 1 5.61962 7.35169 10.2775 
79 1 5.6191 5.61915 8.54985 
84 1 2.67398 2.67219 13.1842 
91 1 4.9331 4.9343 10.9658 
97 2 2.89573 3.06949 15.7913 
98 2 4.30724 3.08502 16.4464 
99 3 4.36179 3.97033 16.163 
6 1 1.815 14.0614 1.81321 
13 1 5.81907 10.0815 5.81887 
22 1 3.39558 12.5035 3.39622 
29 1 4.2428 11.6537 4.24319 
38 1 0.278948 13.8768 2.01502 
48 1 2.01966 15.5971 2.02414 
52 1 2.01452 13.8761 0.277423 
61 1 7.35333 10.278 5.61899 
71 1 5.61858 8.54698 5.61819 
75 1 5.61908 10.2783 7.35381 
86 1 2.69428 13.1939 2.69339 
93 1 4.94255 10.9573 4.94157 
7 1 1.8173 14.0882 14.0785 
16 1 5.81842 10.0755 10.079 
23 1 3.39212 12.5037 12.5047 
32 1 4.24315 11.6548 11.654 
39 1 0.281292 13.8833 13.8824 
43 1 2.01681 15.6133 13.8888 
53 1 2.01507 13.8837 15.6125 
64 1 7.35281 10.2775 10.2775 
68 1 5.61974 8.543 10.277 
78 1 5.61942 10.2775 8.54504 
87 1 2.69583 13.2042 13.2007 
96 1 4.93983 10.955 10.9574 
8 1 14.0632 1.81576 1.81309 
15 1 10.0813 5.81797 5.81943 
24 1 12.5037 3.39488 3.39564 
31 1 11.6546 4.24237 4.24354 
40 1 15.6017 2.01891 2.02392 
44 1 13.8776 0.278815 2.01514 
54 1 13.8766 2.01446 0.278035 
63 1 8.54793 5.61861 5.6183 
67 1 10.2782 7.354 5.61901 
77 1 10.2782 5.61924 7.35374 
88 1 13.1948 2.69414 2.69297 
95 1 10.957 4.94253 4.9402 
5 1 14.0879 1.81752 14.079 
14 1 10.0754 5.81807 10.0792 
21 1 12.5037 3.39217 12.5053 
30 1 11.6536 4.24215 11.6548 
37 1 15.6155 2.01636 13.8884 
47 1 13.8836 0.281181 13.8827 
51 1 13.8836 2.01492 15.613 
62 1 8.54246 5.61969 10.277 
72 1 10.2773 7.35317 10.2775 
76 1 10.2775 5.61946 8.54504 
85 1 13.2046 2.69529 13.2004 
94 1 10.9578 4.94113 10.9565 
3 1 14.0784 14.0801 1.81601 
12 1 10.0797 10.0789 5.81824 
19 1 12.5043 12.5046 3.39365 
28 1 11.6548 11.655 4.24251 
35 1 15.612 13.8827 2.01599 
45 1 13.8825 15.6131 2.0157 
55 1 13.8818 13.882 0.280509 
60 1 8.54488 10.2777 5.61934 
70 1 10.2777 8.54538 5.61925 
80 1 10.2777 10.278 7.35374 
83 1 13.201 13.2011 2.69334 
92 1 10.9572 10.9564 4.9401 
2 1 14.0793 14.0801 14.0798 
9 1 10.0793 10.0776 10.0795 
18 1 12.5045 12.5044 12.5048 
25 1 11.6551 11.6545 11.6556 
34 1 15.6153 13.8814 13.8825 
42 1 13.8814 15.6164 13.8827 
50 1 13.882 13.8821 15.6153 
57 1 8.5444 10.2775 10.2775 
65 1 10.2774 8.54477 10.2775 
73 1 10.2776 10.2776 8.54496 
82 1 13.2023 13.203 13.2021 
89 1 10.9574 10.9581 10.9562 
ITEM: TIMESTEP
62
ITEM: NUMBER OF ATOMS
99
ITEM: BOX BOUNDS pp pp pp
0.0000000000000000e+00 1.6524999999999999e+01
0.0000000000000000e+00 1.6526000000000000e+01
0.0000000000000000e+00 1.6526000000000000e+01
ITEM: ATOMS id type x y z 
1 1 1.7819 1.77503 1.81917 
10 1 5.82322 5.8247 5.82672 
17 1 3.39698 3.39681 3.3932 
26 1 4.25189 4.25351 4.25057 
33 1 0.261914 2.00869 2.03748 
41 1 2.01094 0.257848 2.03754 
49 1 1.90427 1.91622 0.30623 
58 1 7.35658 5.61905 5.61923 
66 1 5.61911 7.35564 5.61905 
74 1 5.61943 5.61921 7.3587 
81 1 2.69739 2.69599 2.70778 
90 1 4.94944 4.94732 4.94942 
4 1 1.79213 1.79036 14.0355 
11 1 5.81489 5.81461 10.0856 
20 1 3.38593 3.38574 12.5149 
27 1 4.23631 4.23562 11.6638 
36 1 0.284906 2.00087 13.8764 
46 1 2.00274 0.282375 13.878 
56 1 2.14646 2.20281 15.6418 
59 1 7.3512 5.61971 10.2776 
69 1 5.61962 7.35169 10.2775 
79 1 5.6191 5.61915 8.54985 
84 1 2.67398 2.67219 13.1842 
91 1 4.9331 4.9343 10.9658 
97 2 2.89573 3.06949 15.7913 
98 2 4.30724 3.08502 16.4464 
99 3 4.36179 3.97033 16.163 
6 1 1.815 14.0614 1.81321 
13 1 5.81907 10.0815 5.81887 
22 1 3.39558 12.5035 3.39622 
29 1 4.2428 11.6537 4.24319 
38 1 0.278948 13.8768 2.01502 
48 1 2.01966 15.5971 2.02414 
52 1 2.01452 13.8761 0.277423 
61 1 7.35333 10.278 5.61899 
71 1 5.61858 8.54698 5.61819 
75 1 5.61908 10.2783 7.35381 
86 1 2.69428 13.1939 2.69339 
93 1 4.94255 10.9573 4.94157 
7 1 1.8173 14.0882 14.0785 
16 1 5.81842 10.0755 10.079 
23 1 3.39212 12.5037 12.5047 
32 1 4.24315 11.6548 11.654 
39 1 0.281292 13.8833 13.8824 
43 1 2.01681 15.6133 13.8888 
53 1 2.01507 13.8837 15.6125 
64 1 7.35281 10.2775 10.2775 
68 1 5.61974 8.543 10.277 
78 1 5.61942 10.2775 8.54504 
87 1 2.69583 13.2042 13.2007 
96 1 4.93983 10.955 10.9574 
8 1 14.0632 1.81576 1.81309 
15 1 10.0813 5.81797 5.81943 
24 1 12.5037 3.39488 3.39564 
31 1 11.6546 4.24237 4.24354 
40 1 15.6017 2.01891 2.02392 
44 1 13.8776 0.278815 2.01514 
54 1 13.8766 2.01446 0.278035 
63 1 8.54793 5.61861 5.6183 
67 1 10.2782 7.354 5.61901 
77 1 10.2782 5.61924 7.35374 
88 1 13.1948 2.69414 2.69297 
95 1 10.957 4.94253 4.9402 
5 1 14.0879 1.81752 14.079 
14 1 10.0754 5.81807 10.0792 
21 1 12.5037 3.39217 12.5053 
30 1 11.6536 4.24215 11.6548 
37 1 15.6155 2.01636 13.8884 
47 1 13.8836 0.281181 13.8827 
51 1 13.8836 2.01492 15.613 
62 1 8.54246 5.61969 10.277 
72 1 10.2773 7.35317 10.2775 
76 1 10.2775 5.61946 8.54504 
85 1 13.2046 2.69529 13.2004 
94 1 10.9578 4.94113 10.9565 
3 1 14.0784 14.0801 1.81601 
12 1 10.0797 10.0789 5.81824 
19 1 12.5043 12.5046 3.39365 
28 1 11.6548 11.655 4.24251 
35 1 15.612 13.8827 2.01599 
45 1 13.8825 15.6131 2.0157 
55 1 13.8818 13.882 0.280509 
60 1 8.54488 10.2777 5.61934 
70 1 10.2777 8.54538 5.61925 
80 1 10.2777 10.278 7.35374 
83 1 13.201 13.2011 2.69334 
92 1 10.9572 10.9564 4.9401 
2 1 14.0793 14.0801 14.0798 
9 1 10.0793 10.0776 10.0795 
18 1 12.5045 12.5044 12.5048 
25 1 11.6551 11.6545 11.6556 
34 1 15.6153 13.8814 13.8825 
42 1 13.8814 15.6164 13.8827 
50 1 13.882 13.8821 15.6153 
57 1 8.5444 10.2775 10.2775 
65 1 10.2774 8.54477 10.2775 
73 1 10.2776 10.2776 8.54496 
82 1 13.2023 13.203 13.2021 
89 1 10.9574 10.9581 10.9562 
ITEM: TIMESTEP
65
ITEM: NUMBER OF ATOMS
99
ITEM: BOX BOUNDS pp pp pp
-1.6845298311828755e-04 1.6525168452983117e+01
-3.9131560868447402e-04 1.6526391315608684e+01
1.1558171493645898e-04 1.6525884418285063e+01
ITEM: ATOMS id type x y z 
1 1 1.78177 1.77472 1.81925 
10 1 5.82317 5.82458 5.82675 
17 1 3.39688 3.39658 3.39327 
26 1 4.25181 4.25332 4.25063 
33 1 0.261746 2.00839 2.03757 
41 1 2.01081 0.257461 2.03763 
49 1 1.90414 1.91592 0.306338 
58 1 7.35656 5.61893 5.61926 
66 1 5.61906 7.3556 5.61909 
74 1 5.61938 5.61908 7.35871 
81 1 2.69727 2.69572 2.70785 
90 1 4.94937 4.94716 4.94946 
4 1 1.792 1.79005 14.0354 
11 1 5.81484 5.8145 10.0856 
20 1 3.38583 3.38551 12.5149 
27 1 4.23623 4.23543 11.6638 
36 1 0.284738 2.00058 13.8763 
46 1 2.00261 0.281994 13.8779 
56 1 2.14633 2.20252 15.6417 
59 1 7.35116 5.61958 10.2775 
69 1 5.61956 7.35164 10.2775 
79 1 5.61905 5.61902 8.54986 
84 1 2.67386 2.67192 13.1842 
91 1 4.93303 4.93414 10.9658 
97 2 2.89564 3.06926 15.7912 
98 2 4.30717 3.08478 16.4463 
99 3 4.36171 3.97013 16.1629 
6 1 1.81487 14.0617 1.8133 
13 1 5.81902 10.0816 5.8189 
22 1 3.39548 12.5037 3.39629 
29 1 4.24272 11.6539 4.24325 
38 1 0.278771 13.8771 2.01511 
48 1 2.01953 15.5974 2.02423 
52 1 2.0144 13.8763 0.27754 
61 1 7.35332 10.2781 5.61903 
71 1 5.61852 8.547 5.61822 
75 1 5.61902 10.2784 7.35382 
86 1 2.69416 13.1941 2.69347 
93 1 4.94248 10.9574 4.94162 
7 1 1.81717 14.0885 14.0784 
16 1 5.81837 10.0756 10.079 
23 1 3.39202 12.5039 12.5046 
32 1 4.24307 11.655 11.6539 
39 1 0.281124 13.8836 13.8823 
43 1 2.01668 15.6136 13.8887 
53 1 2.01494 13.884 15.6124 
64 1 7.3528 10.2776 10.2775 
68 1 5.61969 8.543 10.277 
78 1 5.61937 10.2776 8.54505 
87 1 2.69572 13.2044 13.2007 
96 1 4.93977 10.9552 10.9574 
8 1 14.0634 1.81545 1.81318 
15 1 10.0813 5.81787 5.81946 
24 1 12.5038 3.39465 3.3957 
31 1 11.6546 4.24218 4.2436 
40 1 15.6018 2.01862 2.02401 
44 1 13.8777 0.278434 2.01523 
54 1 13.8767 2.01417 0.278139 
63 1 8.54795 5.61848 5.61833 