 # File generated with Atomsk by ana on 2024-09-05 17:49:09
  
          99  atoms
           3  atom types
 
      0.000000000000      16.525000000000  xlo xhi
      0.000000000000      16.526000000000  ylo yhi
      0.000000000000      16.526000000000  zlo zhi
 
Masses
 
            1   12.01100000             # C
            2   15.99900000             # O
            3   1.00800000              # H
 
Atoms # charge
 
         1    1   0.000000        1.813000000000       1.813000000000       1.813000000000
         2    1   0.000000       14.084000000000      14.084000000000      14.084000000000
         3    1   0.000000       14.084000000000      14.084000000000       1.813000000000
         4    1   0.000000        1.813000000000       1.813000000000      14.084000000000
         5    1   0.000000       14.084000000000       1.813000000000      14.084000000000
         6    1   0.000000        1.813000000000      14.084000000000       1.813000000000
         7    1   0.000000        1.813000000000      14.084000000000      14.084000000000
         8    1   0.000000       14.084000000000       1.813000000000       1.813000000000
         9    1   0.000000       10.076000000000      10.076000000000      10.076000000000
        10    1   0.000000        5.821000000000       5.821000000000       5.821000000000
        11    1   0.000000        5.821000000000       5.821000000000      10.076000000000
        12    1   0.000000       10.076000000000      10.076000000000       5.821000000000
        13    1   0.000000        5.821000000000      10.076000000000       5.821000000000
        14    1   0.000000       10.076000000000       5.821000000000      10.076000000000
        15    1   0.000000       10.076000000000       5.821000000000       5.821000000000
        16    1   0.000000        5.821000000000      10.076000000000      10.076000000000
        17    1   0.000000        3.388000000000       3.388000000000       3.388000000000
        18    1   0.000000       12.509000000000      12.509000000000      12.509000000000
        19    1   0.000000       12.509000000000      12.509000000000       3.388000000000
        20    1   0.000000        3.388000000000       3.388000000000      12.509000000000
        21    1   0.000000       12.509000000000       3.388000000000      12.509000000000
        22    1   0.000000        3.388000000000      12.509000000000       3.388000000000
        23    1   0.000000        3.388000000000      12.509000000000      12.509000000000
        24    1   0.000000       12.509000000000       3.388000000000       3.388000000000
        25    1   0.000000       11.651000000000      11.651000000000      11.651000000000
        26    1   0.000000        4.246000000000       4.246000000000       4.246000000000
        27    1   0.000000        4.246000000000       4.246000000000      11.651000000000
        28    1   0.000000       11.651000000000      11.651000000000       4.246000000000
        29    1   0.000000        4.246000000000      11.651000000000       4.246000000000
        30    1   0.000000       11.651000000000       4.246000000000      11.651000000000
        31    1   0.000000       11.651000000000       4.246000000000       4.246000000000
        32    1   0.000000        4.246000000000      11.651000000000      11.651000000000
        33    1   0.000000        0.284000000000       2.000000000000       2.000000000000
        34    1   0.000000       15.613000000000      13.897000000000      13.897000000000
        35    1   0.000000       15.613000000000      13.897000000000       2.000000000000
        36    1   0.000000        0.284000000000       2.000000000000      13.897000000000
        37    1   0.000000       15.613000000000       2.000000000000      13.897000000000
        38    1   0.000000        0.284000000000      13.897000000000       2.000000000000
        39    1   0.000000        0.284000000000      13.897000000000      13.897000000000
        40    1   0.000000       15.613000000000       2.000000000000       2.000000000000
        41    1   0.000000        2.000000000000       0.284000000000       2.000000000000
        42    1   0.000000       13.897000000000      15.614000000000      13.897000000000
        43    1   0.000000        2.000000000000      15.614000000000      13.897000000000
        44    1   0.000000       13.897000000000       0.284000000000       2.000000000000
        45    1   0.000000       13.897000000000      15.614000000000       2.000000000000
        46    1   0.000000        2.000000000000       0.284000000000      13.897000000000
        47    1   0.000000       13.897000000000       0.284000000000      13.897000000000
        48    1   0.000000        2.000000000000      15.614000000000       2.000000000000
        49    1   0.000000        2.000000000000       2.000000000000       0.283000000000
        50    1   0.000000       13.897000000000      13.897000000000      15.614000000000
        51    1   0.000000       13.897000000000       2.000000000000      15.614000000000
        52    1   0.000000        2.000000000000      13.897000000000       0.283000000000
        53    1   0.000000        2.000000000000      13.897000000000      15.614000000000
        54    1   0.000000       13.897000000000       2.000000000000       0.283000000000
        55    1   0.000000       13.897000000000      13.897000000000       0.283000000000
        56    1   0.000000        2.000000000000       2.000000000000      15.614000000000
        57    1   0.000000        8.546000000000      10.263000000000      10.263000000000
        58    1   0.000000        7.351000000000       5.634000000000       5.634000000000
        59    1   0.000000        7.351000000000       5.634000000000      10.263000000000
        60    1   0.000000        8.547000000000      10.263000000000       5.634000000000
        61    1   0.000000        7.351000000000      10.263000000000       5.634000000000
        62    1   0.000000        8.546000000000       5.634000000000      10.263000000000
        63    1   0.000000        8.547000000000       5.634000000000       5.634000000000
        64    1   0.000000        7.351000000000      10.263000000000      10.263000000000
        65    1   0.000000       10.263000000000       8.546000000000      10.263000000000
        66    1   0.000000        5.634000000000       7.351000000000       5.634000000000
        67    1   0.000000       10.263000000000       7.351000000000       5.634000000000
        68    1   0.000000        5.634000000000       8.547000000000      10.263000000000
        69    1   0.000000        5.634000000000       7.351000000000      10.263000000000
        70    1   0.000000       10.263000000000       8.547000000000       5.634000000000
        71    1   0.000000        5.634000000000       8.546000000000       5.634000000000
        72    1   0.000000       10.263000000000       7.351000000000      10.263000000000
        73    1   0.000000       10.263000000000      10.263000000000       8.547000000000
        74    1   0.000000        5.634000000000       5.634000000000       7.351000000000
        75    1   0.000000        5.634000000000      10.263000000000       7.351000000000
        76    1   0.000000       10.263000000000       5.634000000000       8.546000000000
        77    1   0.000000       10.263000000000       5.634000000000       7.351000000000
        78    1   0.000000        5.634000000000      10.263000000000       8.546000000000
        79    1   0.000000        5.634000000000       5.634000000000       8.546000000000
        80    1   0.000000       10.263000000000      10.263000000000       7.351000000000
        81    1   0.000000        2.689000000000       2.689000000000       2.689000000000
        82    1   0.000000       13.208000000000      13.208000000000      13.208000000000
        83    1   0.000000       13.208000000000      13.208000000000       2.689000000000
        84    1   0.000000        2.689000000000       2.689000000000      13.208000000000
        85    1   0.000000       13.208000000000       2.689000000000      13.208000000000
        86    1   0.000000        2.689000000000      13.208000000000       2.689000000000
        87    1   0.000000        2.689000000000      13.208000000000      13.208000000000
        88    1   0.000000       13.208000000000       2.689000000000       2.689000000000
        89    1   0.000000       10.952000000000      10.952000000000      10.952000000000
        90    1   0.000000        4.945000000000       4.945000000000       4.945000000000
        91    1   0.000000        4.945000000000       4.945000000000      10.952000000000
        92    1   0.000000       10.952000000000      10.952000000000       4.945000000000
        93    1   0.000000        4.945000000000      10.952000000000       4.945000000000
        94    1   0.000000       10.952000000000       4.945000000000      10.952000000000
        95    1   0.000000       10.952000000000       4.945000000000       4.945000000000
        96    1   0.000000        4.945000000000      10.952000000000      10.952000000000
        97    2   0.000000        2.832000000000       3.021000000000      15.937000000000
        98    2   0.000000        4.261000000000       3.042000000000      16.441000000000
        99    3   0.000000        4.358000000000       3.979000000000      16.152000000000
