ITEM: TIMESTEP
0
ITEM: NUMBER OF ATOMS
322
ITEM: BOX BOUNDS pp pp pp
0.0000000000000000e+00 1.9018000000000001e+01
0.0000000000000000e+00 1.9018000000000001e+01
0.0000000000000000e+00 1.9018000000000001e+01
ITEM: ATOMS id type x y z 
90 1 1.962 4.752 0.945 
98 1 4.752 3.716 2.699 
106 1 3.716 2.699 4.752 
122 1 4.752 0.945 1.962 
127 1 0.422 4.239 4.239 
130 1 4.239 0.422 4.239 
133 1 0.422 0.422 0.422 
136 1 4.239 4.239 0.422 
158 1 0.945 1.962 4.752 
166 1 2.699 4.752 3.716 
277 1 4.752 1.962 0.945 
284 1 3.716 4.752 2.699 
297 1 2.699 3.716 4.752 
306 1 0.945 4.752 1.962 
315 1 1.962 0.945 4.752 
319 1 4.752 2.699 3.716 
97 1 4.982 3.299 1.363 
121 1 4.982 1.362 3.299 
89 1 3.299 4.982 1.363 
165 1 1.363 4.982 3.299 
10 1 6.117 6.117 0.228 
125 1 8.053 8.053 0.228 
105 1 3.299 1.362 4.982 
157 1 1.363 3.299 4.982 
34 1 6.117 0.228 6.117 
207 1 8.053 0.228 8.053 
22 1 0.228 6.117 6.117 
189 1 0.228 8.053 8.053 
95 1 9.187 3.299 12.807 
96 1 9.418 3.716 11.47 
119 1 9.187 1.362 10.871 
120 1 9.418 0.945 12.208 
279 1 9.418 1.962 13.224 
317 1 9.418 2.699 10.454 
85 1 3.299 9.187 12.807 
86 1 1.962 9.418 13.224 
161 1 1.363 9.187 10.871 
162 1 2.699 9.418 10.454 
281 1 3.716 9.418 11.47 
307 1 0.945 9.418 12.208 
179 1 6.117 8.053 13.942 
180 1 7.454 8.47 14.173 
215 1 8.053 6.117 13.942 
216 1 6.716 5.7 14.173 
264 1 8.47 7.454 14.173 
288 1 5.7 6.716 14.173 
43 1 1.363 1.362 18.696 
44 1 0.945 2.699 18.927 
79 1 3.299 3.299 18.696 
80 1 3.716 1.962 18.927 
227 1 2.699 0.945 18.927 
274 1 1.962 3.716 18.927 
25 1 6.117 4.433 17.562 
26 1 5.7 4.664 16.225 
201 1 8.053 4.433 15.626 
202 1 8.47 4.664 16.963 
242 1 7.454 4.664 17.979 
266 1 6.716 4.664 15.209 
16 1 4.433 6.117 17.562 
17 1 4.664 7.454 17.979 
185 1 4.433 8.053 15.626 
186 1 4.664 6.716 15.209 
245 1 4.664 5.7 16.225 
293 1 4.664 8.47 16.963 
11 1 7.454 5.7 19.015 
39 1 8.994 8.994 18.502 
42 1 5.176 5.176 18.502 
45 1 5.176 8.994 14.685 
48 1 8.994 5.176 14.685 
126 1 6.716 8.47 19.015 
144 1 9.506 6.716 17.979 
148 1 8.47 9.506 16.225 
200 1 5.7 9.506 16.963 
220 1 9.506 7.454 15.209 
240 1 5.7 7.454 19.015 
252 1 8.47 6.716 19.015 
254 1 6.716 9.506 17.979 
257 1 9.506 8.47 16.225 
269 1 9.506 5.7 16.963 
290 1 7.454 9.506 15.209 
93 1 9.187 10.871 1.363 
94 1 9.418 10.454 2.699 
117 1 9.187 12.807 3.299 
118 1 9.418 13.224 1.962 
280 1 9.418 12.208 0.945 
318 1 9.418 11.47 3.716 
55 1 1.363 18.696 1.363 
56 1 2.699 18.927 0.945 
113 1 3.299 18.696 3.299 
114 1 1.962 18.927 3.716 
235 1 0.945 18.927 2.699 
311 1 3.716 18.927 1.962 
4 1 6.117 17.562 4.433 
5 1 7.454 17.979 4.664 
131 1 8.053 15.626 4.433 
132 1 6.716 15.209 4.664 
237 1 5.7 16.225 4.664 
249 1 8.47 16.963 4.664 
103 1 3.299 12.807 9.187 
104 1 3.716 11.47 9.418 
155 1 1.363 10.871 9.187 
156 1 0.945 12.208 9.418 
299 1 2.699 10.454 9.418 
313 1 1.962 13.224 9.418 
149 1 8.053 13.942 6.117 
150 1 8.47 14.173 7.454 
193 1 6.117 13.942 8.053 
194 1 5.7 14.173 6.716 
256 1 6.716 14.173 5.7 
292 1 7.454 14.173 8.47 
13 1 4.433 17.562 6.117 
14 1 4.664 16.225 5.7 
187 1 4.433 15.626 8.053 
188 1 4.664 16.963 8.47 
246 1 4.664 17.979 7.454 
294 1 4.664 15.209 6.716 
35 1 5.7 19.015 7.454 
51 1 8.994 18.502 8.994 
54 1 5.176 18.502 5.176 
57 1 8.994 14.685 5.176 
60 1 5.176 14.685 8.994 
142 1 9.506 16.963 5.7 
184 1 7.454 15.209 9.506 
208 1 8.47 19.015 6.716 
212 1 6.716 17.979 9.506 
218 1 9.506 16.225 8.47 
244 1 7.454 19.015 5.7 
258 1 9.506 15.209 7.454 
261 1 8.47 16.225 9.506 
268 1 6.716 19.015 8.47 
270 1 9.506 17.979 6.716 
285 1 5.7 16.963 9.506 
15 1 0.422 9.931 9.931 
18 1 0.422 13.748 13.748 
21 1 4.239 9.931 13.748 
24 1 4.239 13.748 9.931 
41 1 0.945 11.47 14.26 
50 1 2.699 14.26 13.224 
77 1 3.716 12.208 14.26 
100 1 4.752 10.454 11.47 
110 1 1.962 14.26 10.454 
124 1 4.752 13.224 12.208 
225 1 2.699 13.224 14.26 
234 1 0.945 14.26 11.47 
276 1 1.962 10.454 14.26 
278 1 4.752 12.208 13.224 
310 1 3.716 14.26 12.208 
320 1 4.752 11.47 10.454 
99 1 4.982 10.871 12.807 
123 1 4.982 12.807 10.871 
49 1 1.363 14.491 12.807 
109 1 3.299 14.491 10.871 
183 1 6.117 15.626 9.737 
211 1 8.053 17.562 9.737 
40 1 1.363 12.807 14.491 
76 1 3.299 10.871 14.491 
147 1 8.053 9.737 17.562 
199 1 6.117 9.737 15.626 
19 1 0.228 17.562 17.562 
191 1 0.228 15.626 15.626 
67 1 18.696 1.362 1.363 
68 1 18.927 0.945 2.699 
173 1 18.696 3.299 3.299 
174 1 18.927 3.716 1.962 
231 1 18.927 2.699 0.945 
304 1 18.927 1.962 3.716 
87 1 10.871 9.187 1.363 
88 1 12.208 9.418 0.945 
163 1 12.807 9.187 3.299 
164 1 11.47 9.418 3.716 
282 1 10.454 9.418 2.699 
308 1 13.224 9.418 1.962 
1 1 17.562 6.117 4.433 
2 1 16.225 5.7 4.664 
134 1 15.626 8.053 4.433 
135 1 16.963 8.47 4.664 
238 1 17.979 7.454 4.664 
250 1 15.209 6.716 4.664 
321 2 16.225 5.7 3.314 
322 3 16.225 5.7 2.338 
101 1 10.871 1.362 9.187 
102 1 10.454 2.699 9.418 
153 1 12.807 3.299 9.187 
154 1 13.224 1.962 9.418 
300 1 11.47 3.716 9.418 
314 1 12.208 0.945 9.418 
28 1 17.562 4.433 6.117 
29 1 17.979 4.664 7.454 
203 1 15.626 4.433 8.053 
204 1 15.209 4.664 6.716 
241 1 16.225 4.664 5.7 
265 1 16.963 4.664 8.47 
139 1 13.942 8.053 6.117 
140 1 14.173 6.716 5.7 
223 1 13.942 6.117 8.053 
224 1 14.173 7.454 8.47 
260 1 14.173 8.47 7.454 
272 1 14.173 5.7 6.716 
23 1 19.015 7.454 5.7 
63 1 18.502 8.994 8.994 
66 1 18.502 5.176 5.176 
69 1 14.685 5.176 8.994 
72 1 14.685 8.994 5.176 
146 1 15.209 9.506 7.454 
182 1 16.225 8.47 9.506 
190 1 19.015 6.716 8.47 
198 1 17.979 9.506 6.716 
210 1 16.963 5.7 9.506 
248 1 19.015 5.7 7.454 
253 1 16.963 9.506 5.7 
262 1 15.209 7.454 9.506 
286 1 17.979 6.716 9.506 
289 1 16.225 9.506 8.47 
296 1 19.015 8.47 6.716 
27 1 9.931 0.422 9.931 
30 1 13.748 0.422 13.748 
33 1 13.748 4.239 9.931 
36 1 9.931 4.239 13.748 
38 1 13.224 2.699 14.26 
65 1 14.26 0.945 11.47 
74 1 10.454 1.962 14.26 
92 1 12.208 4.752 13.224 
168 1 11.47 4.752 10.454 
172 1 14.26 3.716 12.208 
226 1 11.47 0.945 14.26 
229 1 14.26 2.699 13.224 
275 1 12.208 3.716 14.26 
283 1 10.454 4.752 11.47 
302 1 14.26 1.962 10.454 
305 1 13.224 4.752 12.208 
64 1 14.491 1.362 12.807 
171 1 14.491 3.299 10.871 
91 1 10.871 4.982 12.807 
167 1 12.807 4.982 10.871 
181 1 17.562 8.053 9.737 
209 1 15.626 6.117 9.737 
37 1 12.807 1.362 14.491 
73 1 10.871 3.299 14.491 
31 1 17.562 0.228 17.562 
205 1 15.626 0.228 15.626 
143 1 9.737 8.053 17.562 
219 1 9.737 6.117 15.626 
3 1 9.931 9.931 0.422 
6 1 13.748 13.748 0.422 
9 1 9.931 13.748 4.239 
12 1 13.748 9.931 4.239 
53 1 11.47 14.26 0.945 
62 1 14.26 13.224 2.699 
108 1 10.454 11.47 4.752 
112 1 12.208 14.26 3.716 
160 1 13.224 12.208 4.752 
170 1 14.26 10.454 1.962 
230 1 14.26 11.47 0.945 
233 1 13.224 14.26 2.699 
298 1 11.47 10.454 4.752 
301 1 14.26 12.208 3.716 
309 1 10.454 14.26 1.962 
316 1 12.208 13.224 4.752 
61 1 14.491 12.807 1.363 
169 1 14.491 10.871 3.299 
52 1 12.807 14.491 1.363 
111 1 10.871 14.491 3.299 
7 1 17.562 17.562 0.228 
128 1 15.626 15.626 0.228 
107 1 10.871 12.807 4.982 
159 1 12.807 10.871 4.982 
145 1 15.626 9.737 6.117 
197 1 17.562 9.737 8.053 
141 1 9.737 15.626 6.117 
217 1 9.737 17.562 8.053 
70 1 18.696 12.807 12.807 
71 1 18.927 13.224 11.47 
175 1 18.696 10.871 10.871 
176 1 18.927 10.454 12.208 
232 1 18.927 11.47 13.224 
303 1 18.927 12.208 10.454 
58 1 12.807 18.696 12.807 
59 1 11.47 18.927 13.224 
115 1 10.871 18.696 10.871 
116 1 12.208 18.927 10.454 
236 1 13.224 18.927 11.47 
312 1 10.454 18.927 12.208 
177 1 17.562 15.626 13.942 
178 1 16.225 15.209 14.173 
213 1 15.626 17.562 13.942 
214 1 16.963 17.979 14.173 
263 1 15.209 16.225 14.173 
287 1 17.979 16.963 14.173 
46 1 12.807 12.807 18.696 
47 1 13.224 11.47 18.927 
82 1 10.871 10.871 18.696 
83 1 10.454 12.208 18.927 
228 1 11.47 13.224 18.927 
273 1 12.208 10.454 18.927 
151 1 15.626 13.942 17.562 
152 1 15.209 14.173 16.225 
195 1 17.562 13.942 15.626 
196 1 17.979 14.173 16.963 
255 1 16.963 14.173 17.979 
291 1 16.225 14.173 15.209 
137 1 13.942 15.626 17.562 
138 1 14.173 16.963 17.979 
221 1 13.942 17.562 15.626 
222 1 14.173 16.225 15.209 
259 1 14.173 15.209 16.225 
271 1 14.173 17.979 16.963 
8 1 16.225 17.979 19.015 
20 1 19.015 16.225 17.979 
32 1 17.979 19.015 16.225 
75 1 14.685 14.685 18.502 
78 1 18.502 18.502 18.502 
81 1 18.502 14.685 14.685 
84 1 14.685 18.502 14.685 
129 1 16.963 15.209 19.015 
192 1 19.015 16.963 15.209 
206 1 15.209 19.015 16.963 
239 1 17.979 16.225 19.015 
243 1 16.225 19.015 17.979 
247 1 19.015 17.979 16.225 
251 1 15.209 16.963 19.015 
267 1 16.963 19.015 15.209 
295 1 19.015 15.209 16.963 
ITEM: TIMESTEP
10
ITEM: NUMBER OF ATOMS
322
ITEM: BOX BOUNDS pp pp pp
0.0000000000000000e+00 1.9018000000000001e+01
0.0000000000000000e+00 1.9018000000000001e+01
0.0000000000000000e+00 1.9018000000000001e+01
ITEM: ATOMS id type x y z 
90 1 1.96191 4.75145 0.94533 
98 1 4.75169 3.7155 2.69949 
106 1 3.71587 2.69903 4.75171 
122 1 4.75143 0.945543 1.96174 
127 1 0.426965 4.23379 4.23456 
130 1 4.23927 0.42144 4.23924 
133 1 0.421905 0.421619 0.421862 
136 1 4.23924 4.23922 0.421714 
158 1 0.945397 1.96106 4.75172 
166 1 2.70002 4.75197 3.71577 
277 1 4.7514 1.96178 0.945624 
284 1 3.71597 4.75168 2.69932 
297 1 2.70026 3.71576 4.75188 
306 1 0.945329 4.75181 1.96126 
315 1 1.96192 0.945198 4.75157 
319 1 4.75173 2.69914 3.71546 
97 1 4.98254 3.29856 1.36252 
121 1 4.98264 1.36231 3.29854 
89 1 3.29869 4.98251 1.36238 
165 1 1.36405 4.98389 3.29696 
10 1 6.11671 6.11671 0.228077 
125 1 8.05328 8.05328 0.228071 
105 1 3.29873 1.36218 4.98262 
157 1 1.36427 3.29684 4.98422 
34 1 6.11673 0.228096 6.11673 
207 1 8.05326 0.228088 8.05326 
22 1 0.238768 6.12083 6.12717 
189 1 0.229478 8.05341 8.05746 
95 1 9.18687 3.29887 12.8071 
96 1 9.4181 3.71559 11.4701 
119 1 9.18679 1.36219 10.8711 
120 1 9.41817 0.945389 12.2079 
279 1 9.41826 1.96195 13.2238 
317 1 9.41825 2.69903 10.4542 
85 1 3.29889 9.18687 12.8071 
86 1 1.96195 9.41822 13.2238 
161 1 1.36238 9.18685 10.8711 
162 1 2.69935 9.4182 10.4541 
281 1 3.7157 9.41804 11.4702 
307 1 0.945441 9.41819 12.2079 
179 1 6.1168 8.0532 13.9418 
180 1 7.45373 8.46999 14.173 
215 1 8.0532 6.1168 13.9418 
216 1 6.71627 5.70001 14.173 
264 1 8.46999 7.45373 14.173 
288 1 5.70001 6.71627 14.173 
43 1 1.36243 1.36219 18.6963 
44 1 0.945698 2.69906 18.9275 
79 1 3.29868 3.29867 18.696 
80 1 3.71542 1.96178 18.9275 
227 1 2.69946 0.945498 18.9276 
274 1 1.96178 3.71531 18.9274 
25 1 6.11687 4.43267 17.5621 
26 1 5.7 4.66404 16.2252 
201 1 8.05321 4.43278 15.6258 
202 1 8.47 4.66406 16.9627 
242 1 7.45374 4.66406 17.979 
266 1 6.71629 4.66404 15.209 
16 1 4.43267 6.11687 17.5621 
17 1 4.66406 7.45374 17.979 
185 1 4.43278 8.05321 15.6258 
186 1 4.66404 6.71629 15.209 
245 1 4.66404 5.7 16.2252 
293 1 4.66406 8.47 16.9627 
11 1 7.45374 5.70001 19.0149 
39 1 8.99395 8.99395 18.5026 
42 1 5.17606 5.17606 18.5026 
45 1 5.17607 8.99392 14.6851 
48 1 8.99393 5.17607 14.6851 
126 1 6.71626 8.46999 19.0149 
144 1 9.50594 6.71626 17.979 
148 1 8.47 9.50596 16.2252 
200 1 5.7 9.50594 16.9627 
220 1 9.50596 7.45371 15.209 
240 1 5.70001 7.45374 19.0149 
252 1 8.46999 6.71626 19.0149 
254 1 6.71626 9.50594 17.979 
257 1 9.50596 8.46999 16.2252 
269 1 9.50594 5.7 16.9627 
290 1 7.45371 9.50596 15.209 
93 1 9.18688 10.8711 1.36235 
94 1 9.4182 10.4541 2.69933 
117 1 9.18686 12.8071 3.29888 
118 1 9.41823 13.2238 1.96194 
280 1 9.41819 12.2079 0.945446 
318 1 9.41803 11.4702 3.7157 
55 1 1.36245 18.6963 1.36239 
56 1 2.69942 18.9275 0.945537 
113 1 3.2987 18.6959 3.29863 
114 1 1.96184 18.9272 3.71539 
235 1 0.94558 18.9274 2.69936 
311 1 3.71546 18.9274 1.96177 
4 1 6.11689 17.5621 4.43265 
5 1 7.45374 17.979 4.66405 
131 1 8.05321 15.6258 4.43278 
132 1 6.71629 15.209 4.66404 
237 1 5.7 16.2252 4.66403 
249 1 8.47001 16.9627 4.66405 
103 1 3.29888 12.8071 9.18687 
104 1 3.7157 11.4702 9.41804 
155 1 1.36238 10.8711 9.18685 
156 1 0.945443 12.2079 9.41819 
299 1 2.69934 10.4541 9.4182 
313 1 1.96195 13.2238 9.41823 
149 1 8.0532 13.9418 6.1168 
150 1 8.47 14.173 7.45373 
193 1 6.1168 13.9418 8.0532 
194 1 5.7 14.173 6.71627 
256 1 6.71627 14.173 5.7 
292 1 7.45373 14.173 8.47 
13 1 4.43265 17.5621 6.11689 
14 1 4.66403 16.2252 5.7 
187 1 4.43278 15.6258 8.05321 
188 1 4.66405 16.9627 8.47001 
246 1 4.66405 17.979 7.45374 
294 1 4.66404 15.209 6.71629 
35 1 5.70001 19.0149 7.45374 
51 1 8.99391 18.5026 8.99391 
54 1 5.1761 18.5026 5.1761 
57 1 8.99392 14.6851 5.17607 
60 1 5.17607 14.6851 8.99392 
142 1 9.50595 16.9627 5.7 
184 1 7.45371 15.209 9.50596 
208 1 8.46999 19.0149 6.71626 
212 1 6.71626 17.979 9.50595 
218 1 9.50597 16.2252 8.47 
244 1 7.45374 19.0149 5.70001 
258 1 9.50596 15.209 7.45371 
261 1 8.47 16.2252 9.50597 
268 1 6.71626 19.0149 8.46999 
270 1 9.50595 17.979 6.71626 
285 1 5.7 16.9627 9.50595 
15 1 0.421969 9.93069 9.9307 
18 1 0.421729 13.7479 13.7479 
21 1 4.23925 9.93042 13.7479 
24 1 4.23925 13.7479 9.93042 
41 1 0.94544 11.4702 14.2598 
50 1 2.69928 14.2598 13.2239 
77 1 3.71568 12.2079 14.26 
100 1 4.75178 10.4539 11.4702 
110 1 1.96192 14.2598 10.4542 
124 1 4.75181 13.2241 12.2078 
225 1 2.69928 13.2239 14.2598 
234 1 0.94544 14.2598 11.4702 
276 1 1.96193 10.4542 14.2598 
278 1 4.75181 12.2078 13.2241 
310 1 3.71568 14.26 12.2079 
320 1 4.75178 11.4702 10.4539 
99 1 4.98268 10.871 12.8071 
123 1 4.98268 12.8071 10.871 
49 1 1.36226 14.4911 12.8071 
109 1 3.2987 14.4914 10.8711 
183 1 6.11678 15.6258 9.73722 
211 1 8.05311 17.5621 9.73734 
40 1 1.36226 12.8071 14.4911 
76 1 3.2987 10.8711 14.4914 
147 1 8.05313 9.73732 17.5621 
199 1 6.11678 9.73722 15.6258 
19 1 0.228258 17.5621 17.5621 
191 1 0.228035 15.6257 15.6257 
67 1 18.6963 1.36212 1.36226 
68 1 18.9274 0.945192 2.69926 
173 1 18.6944 3.29718 3.29701 
174 1 18.9269 3.71558 1.96119 
231 1 18.9274 2.69899 0.94538 
304 1 18.927 1.96128 3.71553 
87 1 10.8711 9.18687 1.36235 
88 1 12.2078 9.41819 0.945426 
163 1 12.8068 9.18668 3.29855 
164 1 11.4702 9.41795 3.71564 
282 1 10.4541 9.4182 2.69931 
308 1 13.2238 9.4181 1.96203 
1 1 17.6498 6.14183 4.45659 
2 1 16.2093 5.66608 4.56949 
134 1 15.623 8.05294 4.42807 
135 1 16.9606 8.4823 4.66457 
238 1 17.9888 7.47097 4.65705 
250 1 15.1703 6.75726 4.6774 
321 2 16.1751 5.65517 3.29783 
322 3 16.2242 5.69839 2.32166 
101 1 10.8711 1.36218 9.18679 
102 1 10.4542 2.69903 9.41825 
153 1 12.807 3.29886 9.18683 
154 1 13.2238 1.96193 9.41825 
300 1 11.4701 3.7156 9.41811 
314 1 12.2079 0.945384 9.41817 
28 1 17.5417 4.42756 6.12383 
29 1 17.9796 4.6635 7.45609 
203 1 15.6256 4.43172 8.06179 
204 1 15.2118 4.65942 6.70988 
241 1 16.2312 4.63036 5.73737 
265 1 16.9636 4.6622 8.47061 
139 1 13.9354 8.06591 6.12102 
140 1 14.1643 6.71519 5.70057 
223 1 13.9389 6.1164 8.05065 
224 1 14.1736 7.45363 8.47213 
260 1 14.1704 8.47115 7.45675 
272 1 14.1692 5.69893 6.72391 
23 1 19.0314 7.4563 5.71037 
63 1 18.5029 8.99425 8.99514 
66 1 18.5136 5.17509 5.17267 
69 1 14.6867 5.17375 8.99546 
72 1 14.678 9.00247 5.18182 
146 1 15.2098 9.50814 7.45535 
182 1 16.2255 8.47016 9.50629 
190 1 19.0158 6.71684 8.47218 
198 1 17.9789 9.50767 6.71876 
210 1 16.9622 5.70129 9.50781 
248 1 19.0158 5.69751 7.45672 
253 1 16.9652 9.50809 5.69717 
262 1 15.2083 7.45395 9.50604 
286 1 17.9788 6.71598 9.50716 
289 1 16.225 9.50628 8.47093 
296 1 19.0189 8.47512 6.71825 
27 1 9.93057 0.421609 9.93057 
30 1 13.7479 0.421459 13.7479 
33 1 13.7477 4.23908 9.93067 
36 1 9.93044 4.23926 13.7479 
38 1 13.2238 2.69897 14.2598 
65 1 14.2598 0.945369 11.4702 
74 1 10.4542 1.96192 14.2597 
92 1 12.2078 4.75177 13.2241 
168 1 11.4702 4.75171 10.4539 
172 1 14.2599 3.71559 12.208 
226 1 11.4702 0.945377 14.2598 
229 1 14.2598 2.69897 13.2238 
275 1 12.2079 3.71557 14.2599 
283 1 10.4539 4.75172 11.4702 
302 1 14.2597 1.96189 10.4542 
305 1 13.2241 4.75176 12.2079 
64 1 14.4912 1.36209 12.8071 
171 1 14.4915 3.29865 10.8712 
91 1 10.871 4.98263 12.8071 
167 1 12.807 4.9827 10.871 
181 1 17.5615 8.05378 9.73802 
209 1 15.6263 6.11691 9.73806 
37 1 12.807 1.36209 14.4912 
73 1 10.8712 3.29868 14.4914 
31 1 17.5621 0.228254 17.5621 
205 1 15.6257 0.228049 15.6257 
143 1 9.73732 8.05313 17.5621 
219 1 9.73722 6.11678 15.6258 
3 1 9.93058 9.93059 0.421871 
6 1 13.7479 13.7479 0.421722 
9 1 9.93042 13.7479 4.23925 
12 1 13.7478 9.93058 4.23923 
53 1 11.4702 14.2598 0.945436 
62 1 14.2598 13.224 2.69926 
108 1 10.4539 11.4702 4.75178 
112 1 12.2079 14.26 3.71568 
160 1 13.2241 12.2078 4.75188 
170 1 14.2599 10.4542 1.96198 
230 1 14.2598 11.4702 0.945408 
233 1 13.2239 14.2598 2.69928 
298 1 11.4702 10.4539 4.75183 
301 1 14.2601 12.2078 3.71565 
309 1 10.4542 14.2598 1.96192 
316 1 12.2078 13.2241 4.75182 
61 1 14.4911 12.8071 1.36225 
169 1 14.4916 10.8715 3.29833 
52 1 12.8071 14.4911 1.36226 
111 1 10.8711 14.4914 3.29869 
7 1 17.5621 17.5621 0.228257 
128 1 15.6257 15.6257 0.228035 
107 1 10.871 12.8071 4.98269 
159 1 12.8067 10.8714 4.98288 
145 1 15.6232 9.74094 6.1176 
197 1 17.5624 9.73861 8.05242 
141 1 9.73722 15.6258 6.11678 
217 1 9.73734 17.5621 8.05311 
70 1 18.6962 12.8073 12.8073 
71 1 18.9272 13.224 11.4703 
175 1 18.6958 10.871 10.871 
176 1 18.9272 10.454 12.2078 
232 1 18.9272 11.4703 13.224 
303 1 18.9272 12.2078 10.454 
58 1 12.8073 18.6961 12.8073 
59 1 11.4703 18.9272 13.224 
115 1 10.871 18.6958 10.871 
116 1 12.2078 18.9272 10.454 
236 1 13.224 18.9272 11.4703 
312 1 10.454 18.9272 12.2078 
177 1 17.5621 15.6258 13.9417 
178 1 16.2253 15.209 14.173 
213 1 15.6259 17.5621 13.9417 
214 1 16.9627 17.979 14.173 
263 1 15.209 16.2253 14.173 
287 1 17.979 16.9627 14.173 
46 1 12.8073 12.8073 18.6962 
47 1 13.224 11.4703 18.9272 
82 1 10.871 10.871 18.6959 
83 1 10.454 12.2078 18.9272 
228 1 11.4703 13.224 18.9272 
273 1 12.2078 10.454 18.9272 
151 1 15.6258 13.9417 17.5621 
152 1 15.209 14.173 16.2253 
195 1 17.5621 13.9417 15.6258 
196 1 17.979 14.173 16.9627 
255 1 16.9627 14.173 17.979 
291 1 16.2253 14.173 15.209 
137 1 13.9417 15.6258 17.5621 
138 1 14.173 16.9627 17.979 
221 1 13.9417 17.5621 15.6259 
222 1 14.173 16.2253 15.209 
259 1 14.173 15.209 16.2253 
271 1 14.173 17.979 16.9627 
8 1 16.2252 17.979 19.0149 
20 1 19.0149 16.2252 17.979 
32 1 17.979 19.015 16.2252 
75 1 14.685 14.685 18.5027 
78 1 18.5027 18.5027 18.5027 
81 1 18.5027 14.685 14.685 
84 1 14.685 18.5027 14.685 
129 1 16.9627 15.209 19.0149 
192 1 19.0149 16.9627 15.209 
206 1 15.209 19.0149 16.9627 
239 1 17.979 16.2252 19.0149 
243 1 16.2252 19.015 17.979 
247 1 19.0149 17.979 16.2252 
251 1 15.209 16.9627 19.0149 
267 1 16.9627 19.0149 15.209 
295 1 19.0149 15.209 16.9627 
ITEM: TIMESTEP
20
ITEM: NUMBER OF ATOMS
322
ITEM: BOX BOUNDS pp pp pp
0.0000000000000000e+00 1.9018000000000001e+01
0.0000000000000000e+00 1.9018000000000001e+01
0.0000000000000000e+00 1.9018000000000001e+01
ITEM: ATOMS id type x y z 
90 1 1.962 4.75133 0.945301 
98 1 4.7517 3.71536 2.69919 
106 1 3.71603 2.69889 4.75162 
122 1 4.75136 0.945585 1.96189 
127 1 0.426071 4.23437 4.23582 
130 1 4.23944 0.421368 4.23939 
133 1 0.421686 0.42148 0.421632 
136 1 4.23939 4.23934 0.421564 
158 1 0.94546 1.96097 4.75152 
166 1 2.70001 4.75175 3.71559 
277 1 4.75132 1.96191 0.945693 
284 1 3.71601 4.75159 2.69909 
297 1 2.70015 3.71553 4.75179 
306 1 0.94521 4.75164 1.96124 
315 1 1.96211 0.944975 4.75147 
319 1 4.75176 2.69896 3.71535 
97 1 4.98297 3.29877 1.36218 
121 1 4.98306 1.36206 3.29874 
89 1 3.2988 4.98274 1.36219 
165 1 1.36393 4.98312 3.29709 
10 1 6.11662 6.11662 0.228367 
125 1 8.05335 8.05335 0.228377 
105 1 3.29889 1.36205 4.98283 
157 1 1.36416 3.29674 4.98423 
34 1 6.11663 0.228369 6.11663 
207 1 8.05334 0.228377 8.05334 
22 1 0.242128 6.12126 6.12851 
189 1 0.230398 8.05322 8.06106 
95 1 9.18667 3.29895 12.8073 
96 1 9.41818 3.71545 11.4704 
119 1 9.18662 1.36209 10.8709 
120 1 9.41832 0.945448 12.2077 
279 1 9.41835 1.96203 13.2238 
317 1 9.41832 2.69893 10.4543 
85 1 3.299 9.18667 12.8073 
86 1 1.96208 9.41832 13.2238 
161 1 1.36231 9.18666 10.8709 
162 1 2.69923 9.4183 10.4542 
281 1 3.71558 9.41814 11.4704 
307 1 0.945512 9.41833 12.2077 
179 1 6.11668 8.05332 13.9415 
180 1 7.45359 8.46983 14.1732 
215 1 8.05332 6.11668 13.9415 
216 1 6.71641 5.70017 14.1732 
264 1 8.46983 7.45359 14.1732 
288 1 5.70017 6.71641 14.1732 
43 1 1.36219 1.36197 18.696 
44 1 0.945714 2.69894 18.9276 
79 1 3.2989 3.29879 18.6959 
80 1 3.71533 1.96185 18.9275 
227 1 2.69928 0.945609 18.9276 
274 1 1.96193 3.71523 18.9275 
25 1 6.1167 4.43247 17.5622 
26 1 5.70012 4.6642 16.2254 
201 1 8.05337 4.43254 15.6256 
202 1 8.46985 4.66417 16.9626 
242 1 7.45357 4.66417 17.9788 
266 1 6.71644 4.66417 15.2091 
16 1 4.43247 6.1167 17.5622 
17 1 4.66417 7.45357 17.9788 
185 1 4.43254 8.05337 15.6256 
186 1 4.66418 6.71643 15.2091 
245 1 4.6642 5.70011 16.2254 
293 1 4.66417 8.46985 16.9626 
11 1 7.45356 5.70011 19.0148 
39 1 8.99393 8.99393 18.5028 
42 1 5.17602 5.17602 18.5029 
45 1 5.17604 8.99395 14.685 
48 1 8.99396 5.17603 14.685 
126 1 6.71643 8.46988 19.0148 
144 1 9.50583 6.71642 17.9788 
148 1 8.46988 9.5058 16.2254 
200 1 5.70015 9.50584 16.9626 
220 1 9.50583 7.45356 15.2091 
240 1 5.70011 7.45356 19.0148 
252 1 8.46988 6.71643 19.0148 
254 1 6.71642 9.50583 17.9788 
257 1 9.5058 8.46988 16.2254 
269 1 9.50584 5.70015 16.9626 
290 1 7.45356 9.50583 15.2091 
93 1 9.18667 10.8709 1.36221 
94 1 9.4183 10.4542 2.69915 
117 1 9.18662 12.8073 3.29896 
118 1 9.41833 13.2238 1.96205 
280 1 9.41835 12.2077 0.945524 
318 1 9.41805 11.4704 3.7155 
55 1 1.36221 18.696 1.36208 
56 1 2.69923 18.9276 0.94563 
113 1 3.29892 18.6957 3.29874 
114 1 1.962 18.9272 3.71529 
235 1 0.945678 18.9274 2.6991 
311 1 3.71541 18.9274 1.96188 
4 1 6.11672 17.5622 4.43246 
5 1 7.45358 17.9788 4.66417 
131 1 8.05336 15.6256 4.43253 
132 1 6.71643 15.2091 4.66417 
237 1 5.70011 16.2254 4.6642 
249 1 8.46985 16.9626 4.66416 
103 1 3.29899 12.8073 9.18666 
104 1 3.71558 11.4704 9.41814 
155 1 1.36228 10.8709 9.18666 
156 1 0.945521 12.2077 9.41833 
299 1 2.69922 10.4542 9.41829 
313 1 1.96208 13.2238 9.41833 
149 1 8.05332 13.9415 6.11668 
150 1 8.46983 14.1732 7.45359 
193 1 6.11668 13.9415 8.05332 
194 1 5.70017 14.1732 6.71641 
256 1 6.71641 14.1732 5.70017 
292 1 7.45359 14.1732 8.46983 
13 1 4.43246 17.5622 6.11672 
14 1 4.6642 16.2254 5.70011 
187 1 4.43254 15.6256 8.05337 
188 1 4.66416 16.9626 8.46985 
246 1 4.66417 17.9788 7.45358 
294 1 4.66417 15.2091 6.71644 
35 1 5.7001 19.0148 7.45356 
51 1 8.9939 18.5028 8.9939 
54 1 5.17607 18.5028 5.17606 
57 1 8.99394 14.685 5.17604 
60 1 5.17603 14.685 8.99395 
142 1 9.50584 16.9626 5.70015 
184 1 7.45355 15.2091 9.50583 
208 1 8.46989 19.0148 6.71642 
212 1 6.71641 17.9788 9.50583 
218 1 9.5058 16.2254 8.46989 
244 1 7.45356 19.0148 5.7001 
258 1 9.50583 15.2091 7.45356 
261 1 8.46988 16.2254 9.5058 
268 1 6.71642 19.0148 8.46989 
270 1 9.50583 17.9788 6.71641 
285 1 5.70015 16.9626 9.50584 
15 1 0.421891 9.93074 9.93076 
18 1 0.421486 13.748 13.748 
21 1 4.23946 9.93023 13.7479 
24 1 4.23946 13.7479 9.93023 
41 1 0.945649 11.4704 14.2598 
50 1 2.69915 14.2598 13.2238 
77 1 3.71552 12.2077 14.2599 
100 1 4.7516 10.4542 11.4704 
110 1 1.96201 14.2597 10.4544 
124 1 4.75155 13.224 12.2077 
225 1 2.69915 13.2238 14.2598 
234 1 0.945649 14.2598 11.4704 
276 1 1.96201 10.4544 14.2597 
278 1 4.75155 12.2077 13.224 
310 1 3.71551 14.2599 12.2077 
320 1 4.7516 11.4704 10.4542 
99 1 4.98307 10.8708 12.8073 
123 1 4.98306 12.8073 10.8708 
49 1 1.36209 14.4914 12.8073 
109 1 3.29882 14.4916 10.8709 
183 1 6.11662 15.6256 9.73746 
211 1 8.05326 17.5622 9.73755 
40 1 1.36209 12.8073 14.4914 
76 1 3.29883 10.8709 14.4916 
147 1 8.05327 9.73754 17.5622 
199 1 6.11662 9.73746 15.6256 
19 1 0.228474 17.5622 17.5622 
191 1 0.228324 15.6255 15.6255 
67 1 18.6961 1.36205 1.36207 
68 1 18.9275 0.945197 2.69906 
173 1 18.6948 3.2975 3.29738 
174 1 18.9268 3.7156 1.96127 
231 1 18.9274 2.69901 0.945368 
304 1 18.9271 1.96136 3.71532 
87 1 10.8708 9.18667 1.36215 
88 1 12.2077 9.41833 0.945539 
163 1 12.8071 9.18685 3.29876 
164 1 11.4704 9.41796 3.71547 
282 1 10.4542 9.41826 2.69911 
308 1 13.2238 9.41819 1.96212 
1 1 17.6315 6.14325 4.46955 
2 1 16.1959 5.6445 4.49445 
134 1 15.6219 8.05573 4.43099 
135 1 16.9613 8.47727 4.66679 
238 1 17.9951 7.47083 4.6665 
250 1 15.1882 6.7589 4.69271 
321 2 16.1594 5.62113 3.32482 
322 3 16.2206 5.69215 2.3209 
101 1 10.8709 1.36208 9.18664 
102 1 10.4543 2.69893 9.41832 
153 1 12.8073 3.29893 9.18663 
154 1 13.2238 1.96194 9.41833 
300 1 11.4703 3.7155 9.41821 
314 1 12.2077 0.945427 9.41831 
28 1 17.5357 4.43902 6.12157 
29 1 17.977 4.66453 7.45735 
203 1 15.6266 4.43328 8.06029 
204 1 15.223 4.66059 6.70509 
241 1 16.2342 4.65661 5.72356 
265 1 16.963 4.66126 8.4731 
139 1 13.9316 8.0678 6.12273 
140 1 14.1666 6.7183 5.70147 
223 1 13.942 6.11506 8.04735 
224 1 14.1738 7.45203 8.47012 
260 1 14.1707 8.47303 7.45868 
272 1 14.1782 5.6991 6.72079 
23 1 19.0386 7.45946 5.71435 
63 1 18.5026 8.99464 8.99608 
66 1 18.5181 5.18297 5.17591 
69 1 14.6875 5.17293 8.99321 
72 1 14.6747 9.00551 5.18845 
146 1 15.2106 9.5094 7.45543 
182 1 16.2252 8.47023 9.5061 
190 1 19.0149 6.71682 8.47274 
198 1 17.9781 9.50697 6.71869 
210 1 16.9616 5.70219 9.50938 
248 1 19.0137 5.69518 7.45903 
253 1 16.964 9.50599 5.69699 
262 1 15.2075 7.45364 9.50538 
286 1 17.9788 6.71667 9.50839 
289 1 16.2256 9.50683 8.4715 
296 1 19.0219 8.47757 6.72206 
27 1 9.93035 0.421471 9.93034 
30 1 13.748 0.421292 13.748 
33 1 13.7475 4.23897 9.93079 
36 1 9.93025 4.23944 13.7479 
38 1 13.2237 2.69891 14.2598 
65 1 14.2598 0.9455 11.4704 
74 1 10.4544 1.96197 14.2597 
92 1 12.2077 4.75151 13.224 
168 1 11.4703 4.75153 10.4541 
172 1 14.2598 3.71547 12.2079 
226 1 11.4704 0.945546 14.2598 
229 1 14.2597 2.6989 13.2238 
275 1 12.2077 3.7154 14.2598 
283 1 10.4541 4.75154 11.4704 
302 1 14.2597 1.96184 10.4543 
305 1 13.224 4.75151 12.2077 
64 1 14.4914 1.36194 12.8073 
171 1 14.4916 3.29869 10.8711 
91 1 10.8708 4.98301 12.8073 
167 1 12.8073 4.98317 10.8708 
181 1 17.5612 8.05446 9.73897 
209 1 15.6257 6.117 9.73838 
37 1 12.8073 1.36195 14.4914 
73 1 10.8709 3.29879 14.4916 
31 1 17.5622 0.228464 17.5622 
205 1 15.6255 0.228323 15.6255 
143 1 9.73754 8.05328 17.5622 
219 1 9.73746 6.11662 15.6256 
3 1 9.93034 9.93038 0.421637 
6 1 13.748 13.748 0.42146 
9 1 9.93021 13.748 4.23946 
12 1 13.7477 9.93083 4.23981 
53 1 11.4704 14.2598 0.945623 
62 1 14.2598 13.2239 2.69908 
108 1 10.4539 11.4705 4.75168 
112 1 12.2077 14.26 3.71545 
160 1 13.2241 12.2081 4.75157 
170 1 14.2598 10.4543 1.96198 
230 1 14.2598 11.4704 0.945609 
233 1 13.2238 14.2598 2.69912 
298 1 11.47 10.454 4.75157 
301 1 14.2601 12.2078 3.71544 
309 1 10.4543 14.2597 1.96199 
316 1 12.2076 13.2242 4.75165 
61 1 14.4914 12.8074 1.36201 
169 1 14.4915 10.8712 3.29849 
52 1 12.8073 14.4914 1.36208 
111 1 10.8709 14.4916 3.2988 
7 1 17.5622 17.5622 0.228471 
128 1 15.6255 15.6255 0.228324 
107 1 10.8707 12.8073 4.98304 
159 1 12.8064 10.8717 4.983 
145 1 15.6236 9.74127 6.1184 
197 1 17.5629 9.73925 8.05177 
141 1 9.73746 15.6256 6.11662 
217 1 9.73755 17.5622 8.05326 
70 1 18.6959 12.8075 12.8075 
71 1 18.9274 13.2239 11.4704 
175 1 18.6956 10.871 10.871 
176 1 18.9274 10.4542 12.2078 
232 1 18.9274 11.4704 13.2239 
303 1 18.9275 12.2078 10.4541 
58 1 12.8074 18.6958 12.8074 
59 1 11.4705 18.9273 13.2239 
115 1 10.8709 18.6956 10.8709 
116 1 12.2077 18.9274 10.4542 
236 1 13.2239 18.9273 11.4705 
312 1 10.4541 18.9274 12.2077 
177 1 17.5623 15.6257 13.9415 
178 1 16.2254 15.2091 14.1732 
213 1 15.6257 17.5623 13.9415 
214 1 16.9626 17.9788 14.1731 
263 1 15.2091 16.2254 14.1732 
287 1 17.9788 16.9626 14.1731 
46 1 12.8075 12.8075 18.6959 
47 1 13.2239 11.4704 18.9274 
82 1 10.8709 10.8709 18.6958 
83 1 10.4542 12.2077 18.9275 
228 1 11.4704 13.2239 18.9274 
273 1 12.2077 10.4542 18.9275 
151 1 15.6257 13.9415 17.5623 
152 1 15.2091 14.1732 16.2254 
195 1 17.5623 13.9415 15.6257 
196 1 17.9788 14.1731 16.9626 
255 1 16.9626 14.1731 17.9788 
291 1 16.2254 14.1732 15.2091 
137 1 13.9415 15.6257 17.5623 
138 1 14.1731 16.9626 17.9788 
221 1 13.9415 17.5623 15.6257 
222 1 14.1732 16.2254 15.2091 
259 1 14.1732 15.2091 16.2254 
271 1 14.1731 17.9788 16.9626 
8 1 16.2254 17.9789 19.0148 
20 1 19.0148 16.2254 17.9789 
32 1 17.9789 19.0148 16.2254 
75 1 14.6849 14.6849 18.503 
78 1 18.5029 18.5029 18.5029 
81 1 18.503 14.6849 14.6849 
84 1 14.6849 18.5029 14.6849 
129 1 16.9625 15.2091 19.0148 
192 1 19.0148 16.9625 15.2091 
206 1 15.2091 19.0148 16.9625 
239 1 17.9789 16.2254 19.0148 
243 1 16.2254 19.0148 17.9789 
247 1 19.0148 17.9789 16.2254 
251 1 15.2091 16.9625 19.0148 
267 1 16.9625 19.0148 15.2091 
295 1 19.0148 15.2091 16.9625 
ITEM: TIMESTEP
30
ITEM: NUMBER OF ATOMS
322
ITEM: BOX BOUNDS pp pp pp
0.0000000000000000e+00 1.9018000000000001e+01
0.0000000000000000e+00 1.9018000000000001e+01
0.0000000000000000e+00 1.9018000000000001e+01
ITEM: ATOMS id type x y z 
90 1 1.96201 4.75118 0.945304 
98 1 4.75165 3.7153 2.69904 
106 1 3.71607 2.69877 4.75146 
122 1 4.7513 0.945635 1.96194 
127 1 0.424896 4.23567 4.23709 
130 1 4.23953 0.42133 4.2394 
133 1 0.421662 0.421498 0.421587 
136 1 4.23943 4.23937 0.421507 
158 1 0.945632 1.96117 4.75129 
166 1 2.69983 4.75132 3.71545 
277 1 4.75126 1.96194 0.945725 
284 1 3.71604 4.7514 2.69895 
297 1 2.69986 3.71525 4.75167 
306 1 0.945237 4.75136 1.96142 
315 1 1.9622 0.944932 4.75128 
319 1 4.75171 2.69885 3.71529 
97 1 4.98315 3.2988 1.36204 
121 1 4.98324 1.36198 3.29875 
89 1 3.29876 4.98279 1.36218 
165 1 1.36374 4.98272 3.29724 
10 1 6.11658 6.11658 0.228509 
125 1 8.05336 8.05336 0.228523 
105 1 3.2989 1.36203 4.98288 
157 1 1.36378 3.29698 4.98407 
34 1 6.11657 0.228496 6.11657 
207 1 8.05337 0.228509 8.05337 
22 1 0.245533 6.1221 6.13043 
189 1 0.231026 8.05329 8.06321 
95 1 9.18656 3.29896 12.8074 
96 1 9.41827 3.71537 11.4705 
119 1 9.18653 1.36205 10.8708 
120 1 9.41839 0.945529 12.2076 
279 1 9.41839 1.96206 13.2238 
317 1 9.41835 2.69891 10.4543 
85 1 3.29904 9.18656 12.8074 
86 1 1.96214 9.41834 13.2238 
161 1 1.36227 9.1866 10.8709 
162 1 2.69922 9.41837 10.4543 
281 1 3.71551 9.41821 11.4705 