ITEM: TIMESTEP
0
ITEM: NUMBER OF ATOMS
50
ITEM: BOX BOUNDS pp pp pp
0.0000000000000000e+00 1.1000000000000000e+01
0.0000000000000000e+00 1.1002000000000001e+01
0.0000000000000000e+00 1.1000000000000000e+01
ITEM: ATOMS id type x y z 
10 1 4.603 4.603 4.603 
11 1 3.085 3.085 3.085 
12 1 3.796 3.796 3.796 
46 1 0.726 0.725 0.725 
47 1 2.26 2.259 2.26 
48 1 1.551 1.55 1.55 
49 2 2.685 2.783 4.347 
50 3 2.685 2.783 5.323 
19 1 4.546 4.545 6.226 
20 1 3.013 3.013 7.764 
21 1 3.721 3.721 7.053 
31 1 0.668 0.667 10.103 
32 1 2.187 2.187 8.589 
33 1 1.476 1.475 9.298 
16 1 4.546 6.225 4.546 
17 1 3.013 7.765 3.013 
18 1 3.721 7.053 3.722 
25 1 0.668 10.103 0.668 
26 1 2.188 8.589 2.188 
27 1 1.476 9.298 1.476 
4 1 4.608 6.169 6.169 
5 1 3.086 7.684 7.684 
6 1 3.799 6.974 6.974 
37 1 0.729 10.046 10.046 
38 1 2.259 8.509 8.508 
39 1 1.552 9.219 9.219 
13 1 6.225 4.546 4.546 
14 1 7.764 3.013 3.013 
15 1 7.053 3.721 3.722 
28 1 10.102 0.667 0.668 
29 1 8.589 2.187 2.188 
30 1 9.298 1.475 1.476 
1 1 6.168 4.608 6.169 
2 1 7.684 3.086 7.684 
3 1 6.974 3.799 6.974 
40 1 10.045 0.728 10.046 
41 1 8.508 2.259 8.508 
42 1 9.218 1.551 9.218 
7 1 6.169 6.169 4.608 
8 1 7.684 7.684 3.086 
9 1 6.974 6.974 3.799 
43 1 10.046 10.047 0.729 
44 1 8.508 8.509 2.259 
45 1 9.219 9.219 1.552 
22 1 6.229 6.229 6.229 
23 1 7.764 7.765 7.765 
24 1 7.055 7.056 7.055 
34 1 10.108 10.108 10.107 
35 1 8.59 8.59 8.59 
36 1 9.301 9.301 9.3 
ITEM: TIMESTEP
10
ITEM: NUMBER OF ATOMS
50
ITEM: BOX BOUNDS pp pp pp
0.0000000000000000e+00 1.1000000000000000e+01
0.0000000000000000e+00 1.1002000000000001e+01
0.0000000000000000e+00 1.1000000000000000e+01
ITEM: ATOMS id type x y z 
10 1 4.60072 4.59962 4.59479 
11 1 3.07145 3.07291 3.06302 
12 1 3.85257 3.84672 3.73769 
46 1 0.733175 0.731862 0.73461 
47 1 2.27131 2.27037 2.25301 
48 1 1.55785 1.55683 1.55225 
49 2 2.63872 2.73723 4.39376 
50 3 2.64699 2.7516 5.34185 
19 1 4.54874 4.54849 6.24429 
20 1 3.00253 3.00196 7.7852 
21 1 3.71191 3.71118 7.07804 
31 1 0.675256 0.674853 10.0909 
32 1 2.19066 2.19068 8.5859 
33 1 1.48023 1.47948 9.29222 
16 1 4.54163 6.25672 4.53805 
17 1 3.00231 7.77242 3.00304 
18 1 3.71207 7.06832 3.71156 
25 1 0.675747 10.091 0.675666 
26 1 2.19177 8.58501 2.19183 
27 1 1.4823 9.29179 1.48238 
4 1 4.59884 6.17189 6.17556 
5 1 3.08236 7.68814 7.68745 
6 1 3.7922 6.97954 6.98093 
37 1 0.737912 10.0368 10.0368 
38 1 2.26883 8.49948 8.4987 
39 1 1.56329 9.20724 9.20694 
13 1 6.25714 4.54175 4.53768 
14 1 7.77275 3.0013 3.00219 
15 1 7.06766 3.71218 3.71158 
28 1 10.0904 0.674643 0.67526 
29 1 8.58524 2.19106 2.19221 
30 1 9.29093 1.48118 1.48186 
1 1 6.17126 4.59909 6.17635 
2 1 7.68808 3.08265 7.6874 
3 1 6.97939 3.79176 6.981 
40 1 10.0359 0.736374 10.0367 
41 1 8.49898 2.26787 8.49869 
42 1 9.20659 1.56301 9.20693 
7 1 6.1751 6.17585 4.5981 
8 1 7.68796 7.68814 3.08223 
9 1 6.98041 6.9802 3.79202 
43 1 10.0367 10.0375 0.738002 
44 1 8.49871 8.49915 2.26883 
45 1 9.20682 9.20778 1.56339 
22 1 6.23914 6.23946 6.23824 
23 1 7.77436 7.77558 7.77503 
24 1 7.06667 7.06707 7.06723 
34 1 10.0993 10.0999 10.0983 
35 1 8.5861 8.58611 8.58594 
36 1 9.29512 9.29532 9.29444 
ITEM: TIMESTEP
20
ITEM: NUMBER OF ATOMS
50
ITEM: BOX BOUNDS pp pp pp
0.0000000000000000e+00 1.1000000000000000e+01
0.0000000000000000e+00 1.1002000000000001e+01
0.0000000000000000e+00 1.1000000000000000e+01
ITEM: ATOMS id type x y z 
10 1 4.62835 4.61307 4.55327 
11 1 3.13217 3.12821 2.85891 
12 1 3.91536 3.90152 3.56715 
46 1 0.714499 0.710019 0.735405 
47 1 2.29453 2.29067 2.1428 
48 1 1.56104 1.55946 1.50551 
49 2 2.63151 2.71927 4.67192 
50 3 2.40767 2.55363 5.5235 
19 1 4.56246 4.56374 6.26219 
20 1 3.02633 3.02438 7.82664 
21 1 3.74449 3.74409 7.14129 
31 1 0.660558 0.659428 10.0821 
32 1 2.18191 2.17926 8.59176 
33 1 1.47608 1.47773 9.30544 
16 1 4.56732 6.30081 4.55098 
17 1 2.9899 7.76455 2.99302 
18 1 3.7268 7.10318 3.71809 
25 1 0.663723 10.0737 0.671186 
26 1 2.18596 8.58214 2.18666 
27 1 1.48241 9.29844 1.48519 
4 1 4.6037 6.1551 6.16868 
5 1 3.083 7.68598 7.67768 
6 1 3.79757 6.96955 6.99079 
37 1 0.732677 10.0249 10.029 
38 1 2.26299 8.49055 8.4934 
39 1 1.58608 9.21628 9.20635 
13 1 6.29898 4.56957 4.55185 
14 1 7.76125 2.99241 2.99635 
15 1 7.10312 3.72653 3.71766 
28 1 10.0715 0.664704 0.671674 
29 1 8.57994 2.18675 2.18831 
30 1 9.2972 1.48347 1.486 
1 1 6.15222 4.60481 6.17373 
2 1 7.68006 3.08781 7.69007 
3 1 6.98581 3.78905 6.9695 
40 1 10.0317 0.744097 10.0333 
41 1 8.49942 2.28134 8.50324 
42 1 9.19613 1.5478 9.1896 
7 1 6.1729 6.17526 4.60251 
8 1 7.6829 7.69198 3.08179 
9 1 6.9901 6.97348 3.78893 
43 1 10.0246 10.0321 0.730859 
44 1 8.48974 8.50397 2.2636 
45 1 9.22306 9.1994 1.57723 
22 1 6.24762 6.24528 6.24992 
23 1 7.7733 7.7666 7.78013 
24 1 7.07087 7.08338 7.05266 
34 1 10.1087 10.104 10.0919 
35 1 8.6003 8.5898 8.56744 
36 1 9.26154 9.28377 9.32874 
ITEM: TIMESTEP
30
ITEM: NUMBER OF ATOMS
50
ITEM: BOX BOUNDS pp pp pp
0.0000000000000000e+00 1.1000000000000000e+01
0.0000000000000000e+00 1.1002000000000001e+01
0.0000000000000000e+00 1.1000000000000000e+01
ITEM: ATOMS id type x y z 
10 1 4.62639 4.62044 4.5459 
11 1 3.1484 3.14138 2.86775 
12 1 3.91469 3.90283 3.59874 
46 1 0.718546 0.714995 0.736208 
47 1 2.30809 2.30563 2.15811 
48 1 1.57086 1.56843 1.50636 
49 2 2.63013 2.71765 4.65143 
50 3 2.39104 2.53913 5.53354 
19 1 4.54915 4.54871 6.23368 
20 1 3.03443 3.03247 7.82713 
21 1 3.74987 3.74834 7.13651 
31 1 0.662122 0.660742 10.0876 
32 1 2.19073 2.18954 8.59522 
33 1 1.4768 1.47598 9.28879 
16 1 4.55681 6.27062 4.54423 
17 1 2.99771 7.76811 2.99864 
18 1 3.72411 7.09333 3.71696 
25 1 0.666533 10.0804 0.669664 
26 1 2.1881 8.58591 2.19194 
27 1 1.47799 9.28483 1.47818 
4 1 4.60338 6.15666 6.17839 
5 1 3.08572 7.68288 7.68155 
6 1 3.79287 6.96915 6.98172 
37 1 0.735949 10.0314 10.0306 
38 1 2.26986 8.49444 8.49337 
39 1 1.57691 9.20962 9.20375 
13 1 6.27171 4.55611 4.54398 
14 1 7.76832 2.99602 2.99783 
15 1 7.09445 3.72352 3.71613 
28 1 10.0801 0.668564 0.670965 
29 1 8.58623 2.18861 2.19272 
30 1 9.28208 1.47645 1.4775 
1 1 6.15744 4.60186 6.17953 
2 1 7.68548 3.08763 7.68341 
3 1 6.97342 3.79384 6.98033 
40 1 10.0318 0.735674 10.0303 
41 1 8.49606 2.27654 8.4988 
42 1 9.19891 1.557 9.19517 
7 1 6.18377 6.18429 4.60455 
8 1 7.68754 7.68642 3.07834 
9 1 6.98107 6.98568 3.79339 
43 1 10.0288 10.0299 0.732973 
44 1 8.49306 8.50033 2.26999 
45 1 9.21299 9.20078 1.57102 
22 1 6.24512 6.24679 6.2464 
23 1 7.77872 7.77573 7.77562 
24 1 7.07051 7.07513 7.06238 
34 1 10.0988 10.1006 10.0975 
35 1 8.59077 8.58615 8.57961 
36 1 9.2776 9.28979 9.31154 
ITEM: TIMESTEP
40
ITEM: NUMBER OF ATOMS
50
ITEM: BOX BOUNDS pp pp pp
0.0000000000000000e+00 1.1000000000000000e+01
0.0000000000000000e+00 1.1002000000000001e+01
0.0000000000000000e+00 1.1000000000000000e+01
ITEM: ATOMS id type x y z 
10 1 4.62695 4.62315 4.54653 
11 1 3.17402 3.1661 2.89244 
12 1 3.88834 3.87824 3.59469 
46 1 0.722617 0.721825 0.734717 
47 1 2.31242 2.30864 2.16126 
48 1 1.58027 1.57803 1.50749 
49 2 2.62117 2.71001 4.64725 
50 3 2.37444 2.52385 5.52608 
19 1 4.5438 4.54143 6.21639 
20 1 3.03955 3.03744 7.83344 
21 1 3.75057 3.7477 7.13376 
31 1 0.666127 0.663566 10.089 
32 1 2.19316 2.19249 8.594 
33 1 1.48118 1.47965 9.29077 
16 1 4.55188 6.25757 4.54024 
17 1 3.00159 7.77649 3.00166 
18 1 3.71841 7.08406 3.71284 
25 1 0.671197 10.0875 0.667788 
26 1 2.18611 8.58398 2.1897 
27 1 1.47759 9.28682 1.47796 
4 1 4.601 6.15656 6.1815 
5 1 3.08472 7.68226 7.68223 
6 1 3.79299 6.96883 6.98188 
37 1 0.739135 10.0364 10.0319 
38 1 2.27413 8.49814 8.49528 
39 1 1.56778 9.20566 9.20188 
13 1 6.26058 4.55168 4.54085 
14 1 7.77644 3.00045 3.00109 
15 1 7.0851 3.71786 3.71264 
28 1 10.0884 0.669687 0.6678 
29 1 8.58422 2.18511 2.18919 
30 1 9.28658 1.47635 1.47708 
1 1 6.15722 4.6018 6.18108 
2 1 7.68597 3.0873 7.682 
3 1 6.96961 3.79525 6.98448 
40 1 10.0325 0.732763 10.0299 
41 1 8.49557 2.27156 8.4956 
42 1 9.20272 1.56391 9.201 
7 1 6.18558 6.18839 4.60943 
8 1 7.68594 7.6875 3.07835 
9 1 6.98289 6.98495 3.79586 
43 1 10.0325 10.0307 0.736385 
44 1 8.49807 8.49808 2.27223 
45 1 9.20542 9.20412 1.56438 
22 1 6.24301 6.24434 6.24607 
23 1 7.77963 7.77871 7.77241 
24 1 7.07047 7.0709 7.06754 
34 1 10.0956 10.0993 10.1008 
35 1 8.58435 8.58552 8.59022 
36 1 9.29248 9.29441 9.29693 
ITEM: TIMESTEP
50
ITEM: NUMBER OF ATOMS
50
ITEM: BOX BOUNDS pp pp pp
0.0000000000000000e+00 1.1000000000000000e+01
0.0000000000000000e+00 1.1002000000000001e+01
0.0000000000000000e+00 1.1000000000000000e+01
ITEM: ATOMS id type x y z 
10 1 4.62778 4.62333 4.55163 
11 1 3.18253 3.17342 2.89424 
12 1 3.89046 3.88058 3.60488 
46 1 0.726695 0.726626 0.73075 
47 1 2.31811 2.31406 2.16437 
48 1 1.58769 1.58561 1.50748 
49 2 2.60817 2.69912 4.65361 
50 3 2.35346 2.5045 5.51861 
19 1 4.53601 4.53484 6.20404 
20 1 3.04378 3.04075 7.84068 
21 1 3.74884 3.74519 7.12962 
31 1 0.669668 0.667723 10.0908 
32 1 2.19587 2.19531 8.59605 
33 1 1.48397 1.48271 9.29334 
16 1 4.54639 6.24713 4.53582 
17 1 3.00374 7.78333 3.0037 
18 1 3.71289 7.07605 3.70789 
25 1 0.673161 10.0949 0.668253 
26 1 2.18407 8.58409 2.1871 
27 1 1.47706 9.29028 1.47729 
4 1 4.60056 6.15687 6.18192 
5 1 3.08381 7.68191 7.68403 
6 1 3.79267 6.97 6.98219 
37 1 0.738304 10.0361 10.0302 
38 1 2.27365 8.49861 8.49557 
39 1 1.5669 9.20598 9.20159 
13 1 6.24989 4.54761 4.5363 
14 1 7.78325 3.00225 3.00311 
15 1 7.07778 3.7128 3.70748 
28 1 10.095 0.670508 0.667978 
29 1 8.58384 2.18289 2.18607 
30 1 9.29106 1.47605 1.47724 
1 1 6.1577 4.60207 6.18288 
2 1 7.68344 3.08616 7.68547 
3 1 6.97327 3.79444 6.98127 
40 1 10.0336 0.734624 10.0297 
41 1 8.49642 2.27096 8.4958 
42 1 9.20412 1.56387 9.20143 
7 1 6.18745 6.18833 4.61407 
8 1 7.68666 7.6883 3.07853 
9 1 6.98414 6.98609 3.79725 
43 1 10.0331 10.0325 0.734277 
44 1 8.49926 8.49882 2.27017 
45 1 9.20604 9.20568 1.56267 
22 1 6.23934 6.24096 6.24815 
23 1 7.77966 7.77892 7.77307 
24 1 7.0702 7.07071 7.06985 
34 1 10.1004 10.1009 10.0994 
35 1 8.58571 8.58713 8.59108 
36 1 9.29446 9.29545 9.29714 
ITEM: TIMESTEP
60
ITEM: NUMBER OF ATOMS
50
ITEM: BOX BOUNDS pp pp pp
0.0000000000000000e+00 1.1000000000000000e+01
0.0000000000000000e+00 1.1002000000000001e+01
0.0000000000000000e+00 1.1000000000000000e+01
ITEM: ATOMS id type x y z 
10 1 4.6272 4.62318 4.55276 
11 1 3.18243 3.17326 2.893 
12 1 3.88984 3.87977 3.6053 
46 1 0.728689 0.728356 0.731027 
47 1 2.31867 2.31462 2.16389 
48 1 1.58861 1.58635 1.5069 
49 2 2.60547 2.69678 4.65319 
50 3 2.34796 2.49953 5.51882 
19 1 4.5363 4.53483 6.20613 
20 1 3.04457 3.0413 7.842 
21 1 3.74821 3.7445 7.12848 
31 1 0.669833 0.668296 10.0909 
32 1 2.19668 2.19607 8.59692 
33 1 1.48453 1.4834 9.29383 
16 1 4.54653 6.24873 4.5356 
17 1 3.00339 7.7826 3.00324 
18 1 3.71328 7.07742 3.70854 
25 1 0.672835 10.0961 0.668464 
26 1 2.18369 8.58425 2.18718 
27 1 1.47771 9.29086 1.47683 
4 1 4.5999 6.15677 6.18078 
5 1 3.08426 7.68151 7.68407 
6 1 3.79252 6.96965 6.98173 
37 1 0.738582 10.0366 10.0304 
38 1 2.27348 8.49842 8.4954 
39 1 1.56726 9.20609 9.20154 
13 1 6.252 4.54768 4.5361 
14 1 7.78281 3.00207 3.00273 
15 1 7.0787 3.71298 3.70803 
28 1 10.0961 0.670712 0.668194 
29 1 8.58443 2.18275 2.18612 
30 1 9.29101 1.47596 1.47658 
1 1 6.15824 4.60151 6.18128 
2 1 7.68374 3.08642 7.68476 
3 1 6.97156 3.79427 6.98228 
40 1 10.0347 0.735062 10.0298 
41 1 8.49655 2.27098 8.49545 
42 1 9.20389 1.5641 9.20185 
7 1 6.18649 6.1878 4.61412 
8 1 7.68653 7.68834 3.07911 
9 1 6.98422 6.98577 3.79756 
43 1 10.0339 10.0333 0.734293 
44 1 8.49922 8.49892 2.26984 
45 1 9.20623 9.20576 1.56246 
22 1 6.23849 6.24011 6.24783 
23 1 7.77944 7.77891 7.773 
24 1 7.0698 7.07009 7.07033 
34 1 10.1007 10.1011 10.0993 
35 1 8.58596 8.58723 8.59123 
36 1 9.29479 9.2959 9.29684 
ITEM: TIMESTEP
70
ITEM: NUMBER OF ATOMS
50
ITEM: BOX BOUNDS pp pp pp
0.0000000000000000e+00 1.1000000000000000e+01
0.0000000000000000e+00 1.1002000000000001e+01
0.0000000000000000e+00 1.1000000000000000e+01
ITEM: ATOMS id type x y z 
10 1 4.62711 4.62313 4.55306 
11 1 3.1826 3.17339 2.89277 
12 1 3.88972 3.8796 3.60566 
46 1 0.729267 0.728869 0.731029 
47 1 2.31899 2.31493 2.16378 
48 1 1.58896 1.58664 1.50661 
49 2 2.60432 2.69578 4.65315 
50 3 2.34576 2.49753 5.51874 
19 1 4.53638 4.5348 6.20656 
20 1 3.04478 3.04144 7.84259 
21 1 3.74803 3.74428 7.12802 
31 1 0.669963 0.668505 10.091 
32 1 2.19701 2.19637 8.5973 
33 1 1.4847 1.48364 9.29406 
16 1 4.54667 6.24926 4.53578 
17 1 3.00328 7.78276 3.00331 
18 1 3.71326 7.07726 3.70822 
25 1 0.672959 10.0965 0.668351 
26 1 2.18372 8.58429 2.18695 
27 1 1.47758 9.29119 1.47706 
4 1 4.59967 6.15686 6.18035 
5 1 3.08441 7.68147 7.68411 
6 1 3.79238 6.9694 6.98164 
37 1 0.738699 10.0368 10.0305 
38 1 2.27345 8.49834 8.4953 
39 1 1.56732 9.20618 9.20161 
13 1 6.25243 4.54778 4.53614 
14 1 7.78281 3.00198 3.00264 
15 1 7.07888 3.713 3.70802 
28 1 10.0965 0.67081 0.668181 
29 1 8.58453 2.18269 2.18603 
30 1 9.29121 1.47596 1.47657 
1 1 6.1584 4.60127 6.18088 
2 1 7.68369 3.08654 7.68475 
3 1 6.97126 3.79411 6.98226 
40 1 10.0349 0.735214 10.03 
41 1 8.49639 2.27086 8.49562 
42 1 9.20428 1.56434 9.20152 
7 1 6.18625 6.18758 4.61405 
8 1 7.68653 7.68833 3.07931 
9 1 6.98423 6.98576 3.79768 
43 1 10.0342 10.0335 0.734293 
44 1 8.49924 8.49897 2.26965 
45 1 9.20627 9.20581 1.56246 
22 1 6.23833 6.23986 6.24785 
23 1 7.77935 7.77878 7.77295 
24 1 7.06961 7.07004 7.07054 
34 1 10.1008 10.1013 10.0993 
35 1 8.58601 8.5873 8.59123 
36 1 9.29494 9.29593 9.29673 
ITEM: TIMESTEP
80
ITEM: NUMBER OF ATOMS
50
ITEM: BOX BOUNDS pp pp pp
0.0000000000000000e+00 1.1000000000000000e+01
0.0000000000000000e+00 1.1002000000000001e+01
0.0000000000000000e+00 1.1000000000000000e+01
ITEM: ATOMS id type x y z 
10 1 4.62568 4.62173 4.56048 
11 1 3.18932 3.1788 2.88967 
12 1 3.88822 3.87712 3.61947 
46 1 0.743876 0.741927 0.729272 
47 1 2.33033 2.32545 2.15936 
48 1 1.59984 1.59642 1.5018 
49 2 2.56823 2.66462 4.65468 
50 3 2.28066 2.43834 5.51292 
19 1 4.53664 4.53288 6.21363 
20 1 3.05266 3.04732 7.85709 
21 1 3.74213 3.73681 7.11626 
31 1 0.674048 0.674584 10.0903 
32 1 2.20625 2.20542 8.60964 
33 1 1.49104 1.49007 9.30083 
16 1 4.54864 6.25301 4.53374 
17 1 2.99928 7.78028 2.99785 
18 1 3.71326 7.08779 3.7112 
25 1 0.675043 10.1078 0.66872 
26 1 2.18186 8.58747 2.18408 
27 1 1.47775 9.29783 1.47597 
4 1 4.59499 6.15834 6.17125 
5 1 3.08625 7.67837 7.68625 
6 1 3.79043 6.96812 6.97866 
37 1 0.742204 10.0418 10.0319 
38 1 2.27202 8.49766 8.49473 
39 1 1.56861 9.20754 9.2015 
13 1 6.25992 4.5497 4.53618 
14 1 7.784 2.99926 2.99997 
15 1 7.08345 3.71219 3.70644 
28 1 10.106 0.67323 0.668185 
29 1 8.58737 2.1809 2.18382 
30 1 9.29695 1.47614 1.47543 
1 1 6.16107 4.5963 6.17275 
2 1 7.67962 3.08684 7.6868 
3 1 6.9702 3.79208 6.97947 
40 1 10.0438 0.740871 10.0302 
41 1 8.49894 2.27129 8.49333 
42 1 9.20136 1.56556 9.20484 
7 1 6.18296 6.18401 4.61465 
8 1 7.68787 7.68951 3.08443 
9 1 6.98477 6.98583 3.79979 
43 1 10.0421 10.0429 0.736348 
44 1 8.50037 8.50311 2.26825 
45 1 9.20697 9.20234 1.55486 
22 1 6.2329 6.2342 6.25008 
23 1 7.77527 7.77559 7.77349 
24 1 7.06544 7.06617 7.07245 
34 1 10.1065 10.1058 10.0984 
35 1 8.58792 8.58859 8.58971 
36 1 9.297 9.29713 9.29484 
ITEM: TIMESTEP
90
ITEM: NUMBER OF ATOMS
50
ITEM: BOX BOUNDS pp pp pp
0.0000000000000000e+00 1.1000000000000000e+01
0.0000000000000000e+00 1.1002000000000001e+01
0.0000000000000000e+00 1.1000000000000000e+01
ITEM: ATOMS id type x y z 
10 1 4.6276 4.6231 4.56044 
11 1 3.19076 3.18006 2.89173 
12 1 3.88836 3.87751 3.62277 
46 1 0.742176 0.740796 0.728529 
47 1 2.33184 2.32664 2.15818 
48 1 1.60105 1.59764 1.50155 
49 2 2.56316 2.66025 4.65693 
50 3 2.27467 2.43279 5.50961 
19 1 4.53542 4.53218 6.21026 
20 1 3.05345 3.04797 7.85632 
21 1 3.74265 3.73726 7.11512 
31 1 0.674621 0.67419 10.0905 
32 1 2.20766 2.20659 8.61118 
33 1 1.49194 1.4911 9.3019 
16 1 4.54817 6.25277 4.53439 
17 1 2.99999 7.78264 2.99981 
18 1 3.71266 7.08355 3.70804 
25 1 0.675812 10.1086 0.668786 
26 1 2.18166 8.58754 2.18386 
27 1 1.47795 9.29838 1.47582 
4 1 4.59573 6.15889 6.17233 
5 1 3.08505 7.67852 7.68652 
6 1 3.79054 6.96896 6.9793 
37 1 0.741764 10.0411 10.031 
38 1 2.27212 8.49777 8.49521 
39 1 1.56831 9.20771 9.20154 
13 1 6.25771 4.54902 4.53492 
14 1 7.78453 2.99958 3.00028 
15 1 7.08249 3.71195 3.70583 
28 1 10.1072 0.67368 0.66838 
29 1 8.58761 2.18065 2.18368 
30 1 9.29776 1.47646 1.47533 
1 1 6.16171 4.59739 6.17373 
2 1 7.68014 3.08573 7.68714 
3 1 6.97078 3.79162 6.98004 
40 1 10.0402 0.739609 10.0311 
41 1 8.49662 2.27068 8.49571 
42 1 9.20638 1.56651 9.20203 
7 1 6.1847 6.18562 4.61495 
8 1 7.68874 7.69067 3.08377 
9 1 6.98572 6.98702 3.79964 
43 1 10.0405 10.0402 0.73337 
44 1 8.50052 8.50099 2.26565 
45 1 9.20802 9.20663 1.55883 
22 1 6.23323 6.23499 6.25018 
23 1 7.77544 7.77572 7.77462 
24 1 7.06579 7.06682 7.07279 
34 1 10.1062 10.1053 10.0984 
35 1 8.58791 8.58859 8.58946 
36 1 9.29708 9.29703 9.29442 
ITEM: TIMESTEP
100
ITEM: NUMBER OF ATOMS
50
ITEM: BOX BOUNDS pp pp pp
0.0000000000000000e+00 1.1000000000000000e+01
0.0000000000000000e+00 1.1002000000000001e+01
0.0000000000000000e+00 1.1000000000000000e+01
ITEM: ATOMS id type x y z 
10 1 4.62797 4.62349 4.56042 
11 1 3.19096 3.18023 2.89205 
12 1 3.88819 3.87736 3.6236 
46 1 0.741971 0.7407 0.728579 
47 1 2.33211 2.32683 2.15787 
48 1 1.60151 1.59805 1.50103 
49 2 2.56169 2.65897 4.65716 
50 3 2.27255 2.43085 5.50908 
19 1 4.53541 4.53214 6.20984 
20 1 3.05362 3.04809 7.85616 
21 1 3.74268 3.73728 7.11475 
31 1 0.674619 0.674119 10.0905 
32 1 2.20804 2.20692 8.6117 
33 1 1.49226 1.49141 9.30232 
16 1 4.54828 6.25326 4.53454 
17 1 3.00029 7.78326 3.0003 
18 1 3.71237 7.08228 3.7072 
25 1 0.675886 10.1087 0.668697 
26 1 2.18165 8.58751 2.18382 
27 1 1.47805 9.29864 1.47597 
4 1 4.59585 6.15907 6.17262 
5 1 3.08493 7.67848 7.68663 
6 1 3.79042 6.96909 6.97921 
37 1 0.741771 10.0413 10.0309 
38 1 2.27215 8.49778 8.49528 
39 1 1.56825 9.20773 9.20159 
13 1 6.2576 4.54908 4.5348 
14 1 7.78459 2.9996 3.00028 
15 1 7.08238 3.71196 3.70575 
28 1 10.1074 0.673794 0.668339 
29 1 8.58769 2.18071 2.18359 
30 1 9.29796 1.47638 1.47549 
1 1 6.1618 4.59743 6.17384 
2 1 7.68005 3.08542 7.68712 
3 1 6.97099 3.79184 6.98023 
40 1 10.0402 0.73962 10.031 
41 1 8.49664 2.27063 8.49592 
42 1 9.20659 1.56645 9.20199 
7 1 6.18502 6.18593 4.61498 
8 1 7.68901 7.69086 3.08366 
9 1 6.98586 6.98735 3.7996 
43 1 10.0403 10.0396 0.732882 
44 1 8.50053 8.50053 2.26487 
45 1 9.20838 9.20786 1.55993 
22 1 6.23335 6.23511 6.24999 
23 1 7.77546 7.77578 7.77475 
24 1 7.06577 7.06677 7.0731 
34 1 10.106 10.1051 10.0982 
35 1 8.58802 8.5886 8.58929 
36 1 9.29695 9.29704 9.29452 
ITEM: TIMESTEP
110
ITEM: NUMBER OF ATOMS
50
ITEM: BOX BOUNDS pp pp pp
0.0000000000000000e+00 1.1000000000000000e+01
0.0000000000000000e+00 1.1002000000000001e+01
0.0000000000000000e+00 1.1000000000000000e+01
ITEM: ATOMS id type x y z 
10 1 4.62916 4.62468 4.56025 
11 1 3.19151 3.18071 2.89309 
12 1 3.8875 3.87678 3.62653 
46 1 0.741805 0.740816 0.728398 
47 1 2.33358 2.32796 2.15609 
48 1 1.60241 1.59892 1.50059 
49 2 2.55648 2.65442 4.65774 
50 3 2.26487 2.42385 5.50745 
19 1 4.53548 4.53213 6.20873 
20 1 3.0542 3.04853 7.85562 
21 1 3.74264 3.73721 7.1134 
31 1 0.674819 0.674155 10.0906 
32 1 2.20956 2.20829 8.6139 
33 1 1.49315 1.49218 9.30316 
16 1 4.54844 6.25388 4.53427 
17 1 3.00066 7.78402 3.00096 
18 1 3.71226 7.08056 3.70596 
25 1 0.676209 10.109 0.668519 
26 1 2.18185 8.58781 2.18396 
27 1 1.47821 9.29892 1.47608 
4 1 4.59603 6.15983 6.17307 
5 1 3.08432 7.67859 7.6866 
6 1 3.79032 6.96909 6.97971 
37 1 0.741772 10.0417 10.0306 
38 1 2.27215 8.49777 8.49564 
39 1 1.56819 9.20794 9.20167 
13 1 6.25739 4.5494 4.53442 
14 1 7.78461 2.9996 3.0002 
15 1 7.08238 3.7122 3.70565 
28 1 10.108 0.67391 0.66835 
29 1 8.58812 2.18074 2.18361 
30 1 9.29844 1.47653 1.47549 
1 1 6.16236 4.59788 6.17416 
2 1 7.68005 3.08492 7.68728 
3 1 6.9711 3.79154 6.98044 
40 1 10.0405 0.739584 10.0306 
41 1 8.49681 2.27064 8.49631 
42 1 9.20691 1.56624 9.20217 
7 1 6.18589 6.18696 4.61496 
8 1 7.6898 7.69157 3.08323 
9 1 6.98667 6.98815 3.79946 
43 1 10.0401 10.0395 0.732751 
44 1 8.5008 8.50059 2.26411 
45 1 9.20903 9.20904 1.56045 
22 1 6.23372 6.23534 6.24977 
23 1 7.77532 7.77575 7.77554 
24 1 7.06592 7.06694 7.07344 
34 1 10.1054 10.1046 10.0979 
35 1 8.58799 8.58857 8.58907 
36 1 9.29716 9.2971 9.29409 
ITEM: TIMESTEP
120
ITEM: NUMBER OF ATOMS
50
ITEM: BOX BOUNDS pp pp pp
0.0000000000000000e+00 1.1000000000000000e+01
0.0000000000000000e+00 1.1002000000000001e+01
0.0000000000000000e+00 1.1000000000000000e+01
ITEM: ATOMS id type x y z 
10 1 4.62922 4.62476 4.56021 
11 1 3.19154 3.18073 2.89318 
12 1 3.88737 3.87667 3.6269 
46 1 0.741838 0.740846 0.728445 
47 1 2.33375 2.32809 2.15589 
48 1 1.6025 1.59901 1.50037 
49 2 2.55579 2.65382 4.65776 
50 3 2.26382 2.42289 5.50729 
19 1 4.53553 4.5322 6.20873 
20 1 3.05425 3.04857 7.85558 
21 1 3.74264 3.7372 7.11317 
31 1 0.674887 0.674215 10.0906 
32 1 2.20976 2.20848 8.61415 
33 1 1.49332 1.4923 9.30333 
16 1 4.54851 6.25396 4.53426 
17 1 3.00064 7.78401 3.00095 
18 1 3.71229 7.08056 3.70591 
25 1 0.67626 10.1092 0.668605 
26 1 2.18186 8.58794 2.18409 
27 1 1.4783 9.29882 1.47591 
4 1 4.59604 6.15983 6.17309 
5 1 3.08423 7.67853 7.68663 
6 1 3.79037 6.96917 6.97969 
37 1 0.741757 10.0417 10.0306 
38 1 2.27217 8.49774 8.49565 
39 1 1.56819 9.20798 9.2017 
13 1 6.2575 4.54947 4.53441 
14 1 7.78456 2.99962 3.00022 
15 1 7.08247 3.7122 3.70559 
28 1 10.1081 0.673962 0.668383 
29 1 8.58817 2.18075 2.18364 
30 1 9.29849 1.47657 1.47548 
1 1 6.1624 4.59788 6.17416 
2 1 7.68003 3.08483 7.68727 
3 1 6.97113 3.79158 6.98048 
40 1 10.0405 0.739541 10.0306 
41 1 8.49681 2.27062 8.49636 
42 1 9.20693 1.5663 9.20214 
7 1 6.18598 6.18709 4.61497 
8 1 7.68988 7.69164 3.08324 
9 1 6.98674 6.9882 3.7994 
43 1 10.0402 10.0397 0.732979 
44 1 8.5009 8.50086 2.26438 
45 1 9.20894 9.20866 1.55992 
22 1 6.23373 6.23537 6.24974 
23 1 7.7753 7.77575 7.77564 
24 1 7.06591 7.0669 7.07344 
34 1 10.1054 10.1046 10.0978 
35 1 8.58801 8.58859 8.589 
36 1 9.29715 9.29707 9.29413 
ITEM: TIMESTEP
124
ITEM: NUMBER OF ATOMS
50
ITEM: BOX BOUNDS pp pp pp
0.0000000000000000e+00 1.1000000000000000e+01
0.0000000000000000e+00 1.1002000000000001e+01
0.0000000000000000e+00 1.1000000000000000e+01
ITEM: ATOMS id type x y z 
10 1 4.62922 4.62476 4.56021 
11 1 3.19155 3.18073 2.89319 
12 1 3.88737 3.87666 3.62691 
46 1 0.741839 0.740846 0.728447 
47 1 2.33375 2.32809 2.15589 
48 1 1.60251 1.59901 1.50037 
49 2 2.55578 2.65381 4.65776 
50 3 2.2638 2.42287 5.50729 
19 1 4.53553 4.5322 6.20873 
20 1 3.05425 3.04857 7.85558 
21 1 3.74264 3.7372 7.11316 
31 1 0.674893 0.674213 10.0906 
32 1 2.20977 2.20848 8.61416 
33 1 1.49331 1.49231 9.30333 
16 1 4.54851 6.25396 4.53426 
17 1 3.00064 7.78401 3.00095 
18 1 3.71229 7.08056 3.7059 
25 1 0.676261 10.1092 0.668607 
26 1 2.18186 8.58794 2.18409 
27 1 1.4783 9.29881 1.47591 
4 1 4.59604 6.15983 6.17309 
5 1 3.08423 7.67853 7.68663 
6 1 3.79037 6.96918 6.97969 
37 1 0.741758 10.0417 10.0306 
38 1 2.27217 8.49774 8.49565 
39 1 1.56819 9.20798 9.2017 
13 1 6.2575 4.54948 4.53441 
14 1 7.78456 2.99962 3.00022 
15 1 7.08247 3.7122 3.70559 
28 1 10.1081 0.673965 0.668379 
29 1 8.58817 2.18075 2.18363 
30 1 9.29849 1.47656 1.47549 
1 1 6.1624 4.59788 6.17416 
2 1 7.68003 3.08483 7.68727 
3 1 6.97113 3.79158 6.98049 
40 1 10.0405 0.739539 10.0306 
41 1 8.49681 2.27062 8.49636 
42 1 9.20693 1.5663 9.20214 
7 1 6.18598 6.18709 4.61497 
8 1 7.68988 7.69164 3.08324 
9 1 6.98674 6.9882 3.79939 
43 1 10.0402 10.0397 0.732973 
44 1 8.5009 8.50086 2.26437 
45 1 9.20894 9.20867 1.55993 
22 1 6.23373 6.23537 6.24974 
23 1 7.7753 7.77575 7.77564 
24 1 7.0659 7.0669 7.07344 
34 1 10.1054 10.1046 10.0978 
35 1 8.58802 8.58858 8.589 
36 1 9.29714 9.29708 9.29413 
ITEM: TIMESTEP
126
ITEM: NUMBER OF ATOMS
50
ITEM: BOX BOUNDS pp pp pp
0.0000000000000000e+00 1.1000000000000000e+01
0.0000000000000000e+00 1.1002000000000001e+01
0.0000000000000000e+00 1.1000000000000000e+01
ITEM: ATOMS id type x y z 
10 1 4.62922 4.62476 4.56021 
11 1 3.19155 3.18073 2.89319 
12 1 3.88737 3.87666 3.62691 
46 1 0.741839 0.740846 0.728447 
47 1 2.33375 2.32809 2.15589 
48 1 1.60251 1.59901 1.50037 
49 2 2.55578 2.65381 4.65776 
19 1 4.53553 4.5322 6.20873 
20 1 3.05425 3.04857 7.85558 
21 1 3.74264 3.7372 7.11316 
31 1 0.674893 0.674214 10.0906 
32 1 2.20977 2.20848 8.61416 
33 1 1.49331 1.49231 9.30333 
50 3 2.2638 2.42287 5.50729 
16 1 4.54851 6.25396 4.53426 
17 1 3.00064 7.78401 3.00095 
18 1 3.71229 7.08056 3.7059 
25 1 0.676261 10.1092 0.668607 
26 1 2.18186 8.58794 2.18409 
27 1 1.4783 9.29882 1.47591 
4 1 4.59604 6.15983 6.17309 
5 1 3.08423 7.67853 7.68663 
6 1 3.79037 6.96918 6.97969 
37 1 0.741758 10.0417 10.0306 
38 1 2.27217 8.49774 8.49565 
39 1 1.56819 9.20798 9.2017 
13 1 6.2575 4.54948 4.53441 
14 1 7.78456 2.99962 3.00022 
15 1 7.08247 3.7122 3.70559 
28 1 10.1081 0.673965 0.66838 
29 1 8.58817 2.18075 2.18363 
30 1 9.29849 1.47656 1.47549 
1 1 6.1624 4.59788 6.17416 
2 1 7.68003 3.08483 7.68727 
3 1 6.97113 3.79158 6.98049 
40 1 10.0405 0.73954 10.0306 
41 1 8.49681 2.27062 8.49636 
42 1 9.20693 1.5663 9.20214 
7 1 6.18598 6.18709 4.61497 
8 1 7.68988 7.69164 3.08324 
9 1 6.98674 6.9882 3.79939 
43 1 10.0402 10.0397 0.732973 
44 1 8.5009 8.50086 2.26437 
45 1 9.20895 9.20867 1.55993 
22 1 6.23373 6.23537 6.24974 
23 1 7.7753 7.77575 7.77564 
24 1 7.0659 7.0669 7.07344 
34 1 10.1054 10.1046 10.0978 
35 1 8.58802 8.58858 8.589 
36 1 9.29714 9.29709 9.29413 
ITEM: TIMESTEP
130
ITEM: NUMBER OF ATOMS
50
ITEM: BOX BOUNDS pp pp pp
-2.2000000000000001e-03 1.1002200000000002e+01
-2.1724849303294764e-03 1.1004172484930329e+01
-2.0626704587780576e-03 1.1002062670458779e+01
ITEM: ATOMS id type x y z 
10 1 4.62888 4.62443 4.55986 
11 1 3.19062 3.17981 2.89221 
12 1 3.88672 3.87602 3.62621 
46 1 0.73993 0.738961 0.726653 
47 1 2.33248 2.32684 2.15463 
48 1 1.60095 1.59747 1.49886 
49 2 2.5546 2.65268 4.65745 
19 1 4.53516 4.53182 6.20899 
20 1 3.05327 3.0476 7.85646 
21 1 3.74194 3.73651 7.11376 
31 1 0.672954 0.672302 10.0923 
32 1 2.20845 2.20718 8.61533 
33 1 1.49172 1.49072 9.30476 
50 3 2.26249 2.42165 5.50729 
16 1 4.54814 6.25425 4.5339 
17 1 2.99964 7.78491 3.00002 
18 1 3.71158 7.08118 3.70524 
25 1 0.674324 10.111 0.666788 
26 1 2.18053 8.58916 2.18284 
27 1 1.47669 9.30031 1.4744 
4 1 4.59569 6.16008 6.17333 
5 1 3.08327 7.67939 7.68744 
6 1 3.78968 6.96976 6.98024 
37 1 0.739849 10.0435 10.0323 
38 1 2.27088 8.49893 8.49677 
39 1 1.56661 9.20944 9.20309 
13 1 6.2578 4.54911 4.53405 
14 1 7.78547 2.99864 2.99928 
15 1 7.08309 3.71149 3.70492 
28 1 10.1099 0.672051 0.666562 
29 1 8.58941 2.17944 2.18239 
30 1 9.30001 1.47498 1.47398 
1 1 6.16266 4.59753 6.17441 
2 1 7.68089 3.08388 7.68809 
3 1 6.97173 3.79091 6.98104 
40 1 10.0423 0.737654 10.0323 
41 1 8.49801 2.26934 8.49749 
42 1 9.20842 1.56474 9.20353 
7 1 6.18625 6.18736 4.61464 
8 1 7.69076 7.69251 3.08234 
9 1 6.98734 6.98879 3.79876 
43 1 10.042 10.0415 0.731177 
44 1 8.5021 8.50204 2.26315 
45 1 9.21044 9.21015 1.55845 
22 1 6.23402 6.23565 6.25001 
23 1 7.77621 7.77665 7.77649 
24 1 7.06652 7.06751 7.07403 
34 1 10.1072 10.1064 10.0995 
35 1 8.58926 8.5898 8.59016 
36 1 9.29865 9.29858 9.29555 
ITEM: TIMESTEP
140
ITEM: NUMBER OF ATOMS
50
ITEM: BOX BOUNDS pp pp pp
-6.8034684819173186e-03 1.1006803468481923e+01
-5.7692433116176330e-03 1.1007769243311618e+01
-2.2618592588884859e-03 1.1002261859258889e+01
ITEM: ATOMS id type x y z 
10 1 4.62887 4.62457 4.56042 
11 1 3.18887 3.17847 2.89238 
12 1 3.88511 3.8747 3.62602 
46 1 0.735431 0.735333 0.725922 
47 1 2.32954 2.32446 2.15416 
48 1 1.59741 1.59463 1.49833 
49 2 2.55192 2.65063 4.65742 
19 1 4.535 4.53183 6.20864 
20 1 3.05156 3.04633 7.85615 
21 1 3.74073 3.73562 7.11342 
31 1 0.668282 0.668493 10.0931 
32 1 2.2056 2.2049 8.61573 
33 1 1.48859 1.48838 9.30471 
50 3 2.25946 2.41934 5.50723 
16 1 4.54789 6.25417 4.53438 
17 1 2.9979 7.78606 3.00027 
18 1 3.71039 7.08189 3.70547 
25 1 0.669649 10.1147 0.665957 
26 1 2.17759 8.59137 2.18255 
27 1 1.47356 9.30261 1.47448 
4 1 4.5956 6.15987 6.1727 
5 1 3.08142 7.68062 7.68735 
6 1 3.78802 6.97095 6.9805 
37 1 0.73531 10.0471 10.0329 
38 1 2.26783 8.50123 8.49724 
39 1 1.56302 9.21219 9.20354 
13 1 6.25785 4.54903 4.53453 
14 1 7.78704 2.99735 2.99953 
15 1 7.08409 3.71066 3.70517 
28 1 10.1145 0.668267 0.66572 
29 1 8.59218 2.1771 2.18208 
30 1 9.303 1.47256 1.47408 
1 1 6.16259 4.5976 6.17375 
2 1 7.68255 3.08247 7.68798 
3 1 6.97314 3.78955 6.98134 
40 1 10.0467 0.733982 10.033 
41 1 8.50086 2.26689 8.49794 
42 1 9.21184 1.56186 9.20399 
7 1 6.18617 6.18717 4.61525 
8 1 7.69243 7.69379 3.08244 
9 1 6.98882 6.98997 3.79845 
43 1 10.0464 10.045 0.730451 
44 1 8.50496 8.50435 2.26269 
45 1 9.21387 9.21291 1.558 
22 1 6.23412 6.23562 6.24946 
23 1 7.77776 7.77778 7.77626 
24 1 7.06753 7.06823 7.07379 
34 1 10.1117 10.1101 10.1004 
35 1 8.59202 8.59202 8.59044 
36 1 9.30164 9.30083 9.29546 
ITEM: TIMESTEP
150
ITEM: NUMBER OF ATOMS
50
ITEM: BOX BOUNDS pp pp pp
-9.8488696269602351e-03 1.1009848869626968e+01
-7.9021999503712734e-03 1.1009902199950373e+01
-1.2674515740368345e-03 1.1001267451574034e+01
ITEM: ATOMS id type x y z 
10 1 4.62907 4.6249 4.56111 
11 1 3.18773 3.17771 2.89311 
12 1 3.88397 3.87383 3.62629 
46 1 0.732286 0.73298 0.726242 
47 1 2.32733 2.32276 2.15424 
48 1 1.59518 1.59303 1.49883 
49 2 2.55005 2.64932 4.65757 
19 1 4.53511 4.53211 6.20814 
20 1 3.05066 3.04583 7.85517 
21 1 3.73986 3.73503 7.11289 
31 1 0.664987 0.66601 10.0929 
32 1 2.20367 2.20352 8.6154 
33 1 1.48668 1.48709 9.30393 
50 3 2.25729 2.41781 5.50718 
16 1 4.54791 6.2539 4.53505 
17 1 2.99701 7.78647 3.00121 
18 1 3.70955 7.08234 3.7059 
25 1 0.66638 10.1171 0.666216 
26 1 2.17561 8.59274 2.183 
27 1 1.47155 9.30391 1.47544 
4 1 4.59571 6.15952 6.17197 
5 1 3.08021 7.68129 7.6868 
6 1 3.78688 6.97175 6.98045 
37 1 0.732128 10.0494 10.0326 
38 1 2.26556 8.50288 8.4972 
39 1 1.56071 9.21377 9.203 
13 1 6.2577 4.54921 4.5352 