ITEM: TIMESTEP
0
ITEM: NUMBER OF ATOMS
161
ITEM: BOX BOUNDS xy xz yz pp pp pp
-6.7755000000000001e+00 1.3552000000000000e+01 -6.7755000000000001e+00
0.0000000000000000e+00 1.1735510246683001e+01 0.0000000000000000e+00
0.0000000000000000e+00 2.2149999999999999e+01 0.0000000000000000e+00
ITEM: ATOMS id type x y z 
8 1 -2.486 5.297 9.849 
87 1 3.001 4.231 10.696 
90 1 2.733 5.481 9.824 
109 1 -2.486 5.297 0.765 
158 1 2.733 5.481 0.79 
11 1 4.24 4.139 20.131 
14 1 3.031 4.094 19.728 
18 1 1.299 5.827 18.554 
33 1 2.266 4.151 20.924 
43 1 4.343 3.96 21.647 
47 1 3.32 5.732 17.88 
52 1 4.24 4.139 12.633 
76 1 2.552 4.924 14.209 
85 1 4.343 3.96 11.117 
89 1 3.32 5.732 14.883 
91 1 1.036 5.037 11.84 
102 1 3.031 4.094 13.035 
105 1 1.299 5.827 14.209 
114 1 2.266 4.151 11.84 
150 1 2.552 4.924 18.554 
156 1 3.001 4.231 22.068 
159 1 1.036 5.037 20.924 
5 1 -5.049 10.63 8.653 
9 1 -3.317 8.897 7.479 
19 1 -1.707 7.414 10.572 
21 1 -2.66 8.795 10.993 
23 1 -3.31 7.532 6.805 
25 1 -4.284 10.573 9.849 
32 1 1.503 6.367 0.79 
36 1 -1.869 7.426 9.056 
38 1 -2.209 6.086 8.653 
54 1 0.3 8.576 10.696 
57 1 1.291 8.001 9.824 
60 1 -1.707 7.414 0.042 
65 1 -3.31 7.532 3.808 
78 1 -1.869 7.426 1.558 
80 1 -2.566 8.842 1.961 
84 1 -4.57 9.799 3.135 
99 1 -3.054 9.687 0.765 
100 1 -2.96 6.142 3.135 
107 1 -5.049 10.63 1.961 
110 1 -3.317 8.897 3.135 
111 1 0.642 5.929 10.696 
113 1 1.503 6.367 9.824 
119 1 -4.284 10.573 0.765 
127 1 -2.209 6.086 1.961 
131 1 -2.318 6.148 10.993 
138 1 1.291 8.001 0.79 
142 1 -2.566 8.842 8.653 
145 1 -4.57 9.799 7.479 
151 1 -5.019 10.493 10.993 
154 1 -3.054 9.687 9.849 
155 1 -2.96 6.142 7.479 
161 2 -2.21 7.532 6.805 
12 1 2.53 7.1 17.202 
17 1 0.468 9.427 20.924 
24 1 -3.52 8.357 11.865 
27 1 -0.31 7.31 21.647 
29 1 0.642 5.929 22.068 
31 1 1.292 7.192 17.88 
44 1 -0.148 7.298 20.131 
46 1 0.191 8.638 19.728 
51 1 -0.31 7.31 11.117 
53 1 2.53 7.1 15.561 
56 1 1.292 7.192 14.883 
63 1 -2.318 6.148 21.771 
66 1 -3.309 6.723 20.899 
70 1 -0.148 7.298 12.633 
72 1 0.548 5.882 13.035 
92 1 0.942 8.582 14.209 
95 1 -5.019 10.493 21.771 
98 1 -4.751 9.243 20.899 
104 1 0.468 9.427 11.84 
116 1 -2.66 8.795 21.771 
118 1 -3.52 8.357 20.899 
122 1 0.191 8.638 13.035 
133 1 -3.309 6.723 11.865 
136 1 0.3 8.576 22.068 
147 1 0.548 5.882 19.728 
153 1 -4.751 9.243 11.865 
160 1 0.942 8.582 18.554 
1 1 7.976 4.694 10.572 
4 1 9.274 4.77 10.993 
20 1 8.034 4.861 9.056 
42 1 9.55 5.41 7.479 
67 1 10.043 4.578 0.765 
77 1 7.976 4.694 0.042 
94 1 8.035 4.861 1.558 
96 1 9.278 4.635 1.961 
121 1 4.688 5.417 10.696 
130 1 9.55 5.41 3.135 
134 1 10.043 4.578 9.849 
152 1 9.278 4.635 8.653 
45 1 4.688 5.417 22.068 
55 1 4.788 5.329 13.035 
106 1 9.274 4.77 21.771 
137 1 4.788 5.329 19.728 
2 1 7.294 10.585 9.056 
3 1 9.004 7.624 6.127 
6 1 8.556 6.347 6.805 
16 1 2.314 8.72 0.79 
22 1 7.166 6.156 8.653 
26 1 7.226 8.565 7.479 
35 1 7.191 10.764 10.572 
37 1 6.846 9.307 10.993 
39 1 8.214 8.992 6.805 
41 1 6.677 7.002 9.849 
48 1 3.775 6.213 0.79 
61 1 7.294 10.585 1.558 
62 1 9.004 7.624 4.487 
64 1 6.747 9.395 1.961 
68 1 7.437 6.931 3.135 
71 1 4.29 8.493 10.696 
74 1 3.567 7.818 9.824 
81 1 8.556 6.347 3.808 
83 1 6.47 8.606 0.765 
93 1 7.191 10.764 0.042 
97 1 8.214 8.992 3.808 
101 1 2.261 9.954 10.696 
103 1 2.314 8.72 9.824 
117 1 7.166 6.156 1.961 
120 1 7.226 8.565 3.135 
123 1 3.775 6.213 9.824 
129 1 6.677 7.002 0.765 
132 1 6.747 9.395 8.653 
135 1 7.437 6.931 7.479 
141 1 7.244 6.231 10.993 
144 1 6.47 8.606 9.849 
148 1 3.567 7.818 0.79 
7 1 9.22 6.004 11.865 
10 1 3.558 10.029 21.647 
13 1 2.261 9.954 22.068 
15 1 2.978 8.376 17.88 
28 1 3.5 9.862 20.131 
30 1 4.369 8.568 19.728 
34 1 4.308 6.159 18.554 
40 1 7.76 8.511 11.865 
49 1 4.857 7.722 20.924 
50 1 1.984 9.314 18.554 
58 1 1.491 10.146 11.84 
59 1 4.097 7.793 14.209 
69 1 3.558 10.029 11.117 
73 1 2.978 8.376 14.883 
75 1 5.064 6.118 11.84 
79 1 7.244 6.231 21.771 
82 1 7.967 6.906 20.899 
86 1 3.5 9.862 12.633 
88 1 2.256 10.089 13.035 
108 1 9.22 6.004 20.899 
112 1 4.369 8.568 13.035 
115 1 4.308 6.159 14.209 
124 1 4.857 7.722 11.84 
125 1 1.984 9.314 14.209 
126 1 6.846 9.307 21.771 
128 1 7.76 8.511 20.899 
139 1 1.491 10.146 20.924 
140 1 4.097 7.793 18.554 
143 1 7.967 6.906 11.865 
146 1 4.29 8.493 22.068 
149 1 5.064 6.118 20.924 
157 1 2.256 10.089 19.728 
ITEM: TIMESTEP
10
ITEM: NUMBER OF ATOMS
161
ITEM: BOX BOUNDS xy xz yz pp pp pp
-6.7755000000000001e+00 1.3552000000000000e+01 -6.7755000000000001e+00
0.0000000000000000e+00 1.1735510246683001e+01 0.0000000000000000e+00
0.0000000000000000e+00 2.2149999999999999e+01 0.0000000000000000e+00
ITEM: ATOMS id type x y z 
8 1 -2.41436 5.38821 9.85828 
87 1 2.99097 4.29524 10.6337 
90 1 2.64828 5.45953 9.75159 
109 1 -2.42358 5.39421 0.791134 
158 1 2.63975 5.45634 0.851361 
11 1 4.29495 4.23298 20.0879 
14 1 2.89444 4.14252 19.6995 
18 1 1.31172 5.89159 18.5853 
33 1 2.13333 4.23028 20.9248 
43 1 4.29488 4.18086 21.583 
47 1 3.25341 5.80863 17.8244 
52 1 4.30404 4.20576 12.6822 
76 1 2.40311 4.93619 14.1865 
85 1 4.30466 4.17139 11.1932 
89 1 3.24563 5.78923 14.9346 
91 1 0.964329 5.04077 11.8755 
102 1 2.87927 4.14065 13.0768 
105 1 1.32791 5.87859 14.1601 
114 1 2.13143 4.23135 11.8387 
150 1 2.41606 4.92238 18.568 
156 1 2.97459 4.29204 22.1177 
159 1 0.969301 5.0481 20.9157 
5 1 -4.92096 10.5705 8.6183 
9 1 -3.29084 8.93803 7.54601 
19 1 -1.7562 7.5527 10.5438 
21 1 -2.58911 8.77042 10.9502 
23 1 -3.17673 7.66391 6.79916 
25 1 -4.10595 10.4545 9.78039 
32 1 1.59436 6.36494 0.74905 
36 1 -1.89579 7.53502 9.06348 
38 1 -2.16487 6.20645 8.62946 
54 1 0.324065 8.52175 10.6775 
57 1 1.3611 7.97385 9.78665 
60 1 -1.74171 7.52786 0.0700215 
65 1 -3.30977 7.54326 3.78333 
78 1 -1.87903 7.51534 1.54138 
80 1 -2.54676 8.7923 1.82974 
84 1 -4.42855 9.79737 3.1129 
99 1 -2.97656 9.66683 0.761389 
100 1 -2.93241 6.26203 3.17446 
107 1 -4.92736 10.5758 1.99828 
110 1 -3.34791 8.86252 3.10884 
111 1 0.592084 5.95259 10.8117 
113 1 1.60982 6.37017 9.85289 
119 1 -4.14631 10.4883 0.770466 
127 1 -2.14942 6.22511 1.97707 
131 1 -2.34207 6.23869 11.0464 
138 1 1.36733 7.9566 0.830523 
142 1 -2.53488 8.79144 8.72337 
145 1 -4.46724 9.77664 7.46687 
151 1 -5.03388 10.4181 11.0857 
154 1 -2.97836 9.65187 9.85503 
155 1 -2.96478 6.1991 7.47235 
161 2 -2.05982 7.52912 6.67984 
12 1 2.57923 7.0385 17.126 
17 1 0.412389 9.32692 20.9105 
24 1 -3.59021 8.33414 11.882 
27 1 -0.267774 7.22177 21.6282 
29 1 0.60674 5.96254 21.95 
31 1 1.30562 7.17733 17.9151 
44 1 -0.135744 7.20934 20.1479 
46 1 0.13156 8.49825 19.7166 
51 1 -0.286501 7.24108 11.1278 
53 1 2.58052 7.04286 15.6492 
56 1 1.2904 7.16902 14.8455 
63 1 -2.32611 6.1876 21.7338 
66 1 -3.39633 6.7671 20.8465 
70 1 -0.132794 7.18835 12.6194 
72 1 0.529378 5.93392 12.9154 
92 1 0.919086 8.45849 14.2435 
95 1 -4.99992 10.4263 21.7221 
98 1 -4.66845 9.26729 20.8364 
104 1 0.408698 9.32154 11.8438 
116 1 -2.62218 8.76362 21.8942 
118 1 -3.60996 8.36365 20.9318 
122 1 0.131916 8.50769 13.055 
133 1 -3.31434 6.7735 11.8917 
136 1 0.316783 8.52742 22.0906 
147 1 0.514608 5.93262 19.8623 
153 1 -4.6805 9.26153 11.9824 
160 1 0.918364 8.45051 18.5146 
1 1 7.82445 4.9722 10.5256 
4 1 9.17254 4.76497 11.0918 
20 1 7.84984 4.91362 9.01037 
42 1 9.42211 5.45014 7.41589 
67 1 9.97046 4.56949 0.750873 
77 1 7.85793 4.9709 0.0792157 
94 1 7.83815 4.94205 1.57841 
96 1 9.17984 4.66931 2.00895 
121 1 4.64178 5.4552 10.6975 
130 1 9.46527 5.44637 3.16616 
134 1 9.98075 4.56784 9.822 
152 1 9.21081 4.64766 8.64349 
45 1 4.65627 5.46212 22.065 
55 1 4.8364 5.50279 13.0762 
106 1 9.16824 4.78769 21.7434 
137 1 4.81994 5.49229 19.698 
2 1 7.26883 10.4876 9.01852 
3 1 8.92178 7.643 6.14017 
6 1 8.41356 6.37457 6.88208 
16 1 2.34294 8.70637 0.851955 
22 1 7.17617 6.20669 8.68843 
26 1 7.15487 8.46364 7.49131 
35 1 7.15716 10.6015 10.4682 
37 1 6.94289 9.28372 10.964 
39 1 8.23864 8.89013 6.76127 
41 1 6.73313 7.01851 9.79365 
48 1 3.70655 6.35396 0.848577 
61 1 7.24584 10.4852 1.58844 
62 1 8.94999 7.68806 4.57992 
64 1 6.71841 9.23525 1.99757 
68 1 7.3919 6.96472 3.03217 
71 1 4.31646 8.55736 10.7796 
74 1 3.62954 7.79376 9.79782 
81 1 8.5137 6.38035 3.77439 
83 1 6.55302 8.42267 0.772784 
93 1 7.24555 10.5371 0.120553 
97 1 8.29077 8.92191 3.84129 
101 1 2.36563 9.93557 10.6725 
103 1 2.34188 8.70764 9.76355 
117 1 7.12897 6.21045 1.90769 
120 1 7.17767 8.3974 3.06528 
123 1 3.69296 6.36283 9.75595 
129 1 6.72782 6.999 0.793922 
132 1 6.69295 9.24074 8.64122 
135 1 7.31364 6.92497 7.50919 
141 1 7.19878 6.14476 10.9163 
144 1 6.57188 8.44118 9.86283 
148 1 3.62918 7.78974 0.82154 
7 1 9.10802 6.02583 11.9346 
10 1 3.67382 9.76102 21.6078 
13 1 2.36468 9.93692 22.0902 
15 1 3.015 8.33469 17.9355 
28 1 3.69192 9.78118 20.1026 
30 1 4.38847 8.51688 19.7659 
34 1 4.35728 6.33028 18.6233 
40 1 7.82843 8.34463 11.9499 
49 1 4.82256 7.71934 20.8902 
50 1 2.08054 9.2673 18.5205 
58 1 1.56756 10.1451 11.826 
59 1 4.13383 7.76603 14.0979 
69 1 3.67358 9.75859 11.1526 
73 1 3.0221 8.33511 14.8341 
75 1 4.98151 6.30081 11.8382 
79 1 7.21857 6.17518 21.858 
82 1 7.90514 6.9442 20.8776 
86 1 3.69416 9.78384 12.661 
88 1 2.3515 10.0508 13.0791 
108 1 9.17741 6.01892 20.8348 
112 1 4.39645 8.50938 12.9946 
115 1 4.34819 6.35113 14.1449 
124 1 4.81742 7.71492 11.8707 
125 1 2.07002 9.27487 14.2393 
126 1 6.87743 9.26314 21.7742 
128 1 7.83326 8.35845 20.8439 
139 1 1.56877 10.1424 20.9368 
140 1 4.12665 7.77666 18.6592 
143 1 7.91762 6.89141 11.8854 
146 1 4.31363 8.56258 21.9851 
149 1 4.98848 6.28451 20.9113 
157 1 2.3511 10.0502 19.6866 
ITEM: TIMESTEP
20
ITEM: NUMBER OF ATOMS
161
ITEM: BOX BOUNDS xy xz yz pp pp pp
-6.7755000000000001e+00 1.3552000000000000e+01 -6.7755000000000001e+00
0.0000000000000000e+00 1.1735510246683001e+01 0.0000000000000000e+00
0.0000000000000000e+00 2.2149999999999999e+01 0.0000000000000000e+00
ITEM: ATOMS id type x y z 
8 1 -2.43286 5.40683 9.86478 
87 1 2.97608 4.28664 10.637 
90 1 2.64449 5.46755 9.75653 
109 1 -2.42772 5.40398 0.767588 
158 1 2.64184 5.46165 0.853833 
11 1 4.27383 4.23584 20.1079 
14 1 2.89212 4.15418 19.69 
18 1 1.31744 5.87289 18.5877 
33 1 2.12974 4.22115 20.9129 
43 1 4.29934 4.20023 21.5708 
47 1 3.25302 5.80119 17.8285 
52 1 4.27914 4.23002 12.6659 
76 1 2.41776 4.93545 14.1856 
85 1 4.29664 4.19853 11.2092 
89 1 3.25393 5.7981 14.9323 
91 1 0.960302 5.03464 11.8478 
102 1 2.88829 4.1515 13.0705 
105 1 1.31625 5.87599 14.1627 
114 1 2.13106 4.22764 11.847 
150 1 2.41632 4.93484 18.5743 
156 1 2.96422 4.28291 22.1246 
159 1 0.96035 5.02821 20.9309 
5 1 -4.89538 10.5536 8.61878 
9 1 -3.28054 8.94572 7.55438 
19 1 -1.76157 7.55599 10.5386 
21 1 -2.6097 8.77993 10.9527 
23 1 -3.15071 7.63757 6.79516 
25 1 -4.13286 10.4382 9.82153 
32 1 1.59884 6.37465 0.747505 
36 1 -1.89358 7.5441 9.06484 
38 1 -2.17441 6.21227 8.63618 
54 1 0.320928 8.50839 10.671 
57 1 1.37913 7.96288 9.78545 
60 1 -1.74495 7.4976 0.0587081 
65 1 -3.31643 7.55417 3.79 
78 1 -1.86283 7.52993 1.54387 
80 1 -2.54579 8.79036 1.83098 
84 1 -4.43334 9.78964 3.10913 
99 1 -2.97625 9.68372 0.769296 
100 1 -2.93271 6.27598 3.18253 
107 1 -4.9093 10.5664 1.99764 
110 1 -3.32505 8.85687 3.09407 
111 1 0.60684 5.96019 10.8172 
113 1 1.59683 6.37573 9.86935 
119 1 -4.14194 10.4929 0.779328 
127 1 -2.14602 6.22556 1.98482 
131 1 -2.33847 6.23919 11.0227 
138 1 1.37726 7.96037 0.824679 
142 1 -2.53038 8.80169 8.73045 
145 1 -4.46311 9.7704 7.47706 
151 1 -5.00372 10.4119 11.0411 
154 1 -2.97398 9.6358 9.86461 
155 1 -2.96972 6.22374 7.47876 
161 2 -2.0547 7.53565 6.66182 
12 1 2.57744 7.05142 17.1341 
17 1 0.413632 9.32544 20.9208 
24 1 -3.59256 8.34831 11.8744 
27 1 -0.271119 7.22708 21.6404 
29 1 0.606683 5.96769 21.9405 
31 1 1.29451 7.16939 17.9022 
44 1 -0.163946 7.19962 20.1527 
46 1 0.125166 8.50416 19.706 
51 1 -0.284059 7.23307 11.1268 
53 1 2.5763 7.05235 15.6237 
56 1 1.29252 7.17055 14.8556 
63 1 -2.34118 6.21788 21.7466 
66 1 -3.39195 6.76457 20.861 
70 1 -0.156572 7.19049 12.6116 
72 1 0.516957 5.92776 12.9066 
92 1 0.912785 8.44397 14.2492 
95 1 -4.98578 10.4357 21.7191 
98 1 -4.66208 9.26005 20.8346 
104 1 0.41026 9.3225 11.8489 
116 1 -2.62265 8.76524 21.8848 
118 1 -3.61664 8.35213 20.9335 
122 1 0.12843 8.50215 13.0576 
133 1 -3.32136 6.77988 11.9012 
136 1 0.322478 8.51123 22.0948 
147 1 0.506197 5.92868 19.8657 
153 1 -4.68947 9.26098 11.9576 
160 1 0.911628 8.44759 18.508 
1 1 7.84376 4.94863 10.5123 
4 1 9.13945 4.81056 11.0493 
20 1 7.85035 4.92519 9.0385 
42 1 9.41109 5.466 7.42563 
67 1 9.96856 4.57721 0.764113 
77 1 7.84663 4.95086 0.0971152 
94 1 7.83367 4.94593 1.56233 
96 1 9.16384 4.66932 2.00296 
121 1 4.64392 5.48222 10.692 
130 1 9.45457 5.4574 3.17795 
134 1 9.96829 4.58947 9.85926 
152 1 9.18358 4.66083 8.634 
45 1 4.65372 5.48771 22.0693 
55 1 4.82942 5.51819 13.0725 
106 1 9.15515 4.78746 21.7396 
137 1 4.82793 5.51257 19.692 
2 1 7.2652 10.4937 9.02635 
3 1 8.92226 7.6288 6.12907 
6 1 8.43287 6.38283 6.86132 
16 1 2.36249 8.69244 0.855425 
22 1 7.15302 6.19126 8.70279 
26 1 7.15 8.4548 7.5054 
35 1 7.21141 10.5722 10.48 
37 1 6.93014 9.25282 10.9877 
39 1 8.22912 8.89397 6.76422 
41 1 6.73392 6.99805 9.81609 
48 1 3.69854 6.36459 0.843234 
61 1 7.25188 10.4932 1.5818 
62 1 8.95704 7.66712 4.55492 
64 1 6.70766 9.20524 1.99672 
68 1 7.39202 6.95846 3.05764 
71 1 4.32317 8.52732 10.7541 
74 1 3.60991 7.79917 9.80329 
81 1 8.51534 6.39586 3.79538 
83 1 6.55164 8.42752 0.778709 
93 1 7.24862 10.5102 0.127261 
97 1 8.28537 8.91812 3.85185 
101 1 2.38683 9.92387 10.6723 
103 1 2.36205 8.69304 9.75542 
117 1 7.11251 6.18425 1.9052 
120 1 7.18496 8.41394 3.07473 
123 1 3.69429 6.36939 9.76474 
129 1 6.71294 6.99843 0.782538 
132 1 6.69947 9.21209 8.62131 
135 1 7.30323 6.93374 7.50463 
141 1 7.19104 6.17379 10.9175 
144 1 6.57206 8.42903 9.83978 
148 1 3.60849 7.79824 0.812246 
7 1 9.09494 5.99291 11.92 
10 1 3.67776 9.77702 21.5931 
13 1 2.3856 9.92029 22.093 
15 1 3.02177 8.33388 17.905 
28 1 3.69969 9.78223 20.1238 
30 1 4.41335 8.53673 19.7861 
34 1 4.34937 6.3117 18.6137 
40 1 7.85585 8.34657 11.9385 
49 1 4.82959 7.72395 20.9026 
50 1 2.08008 9.26654 18.5102 
58 1 1.57168 10.1472 11.831 
59 1 4.13779 7.76752 14.1232 
69 1 3.6801 9.77489 11.1707 
73 1 3.01893 8.32764 14.8588 
75 1 4.98104 6.29687 11.8522 
79 1 7.21049 6.1997 21.8293 
82 1 7.92455 6.92808 20.8777 
86 1 3.70404 9.77879 12.6356 
88 1 2.37227 10.0559 13.0762 
108 1 9.16897 6.04272 20.8235 
112 1 4.41713 8.53332 12.978 
115 1 4.34101 6.31492 14.1473 
124 1 4.82404 7.7242 11.8594 
125 1 2.07641 9.26759 14.254 
126 1 6.87576 9.23822 21.7677 
128 1 7.83674 8.36036 20.8475 
139 1 1.57102 10.1432 20.9338 
140 1 4.14035 7.77182 18.6374 
143 1 7.91892 6.89398 11.8906 
146 1 4.32111 8.52919 22.0123 
149 1 4.99036 6.29428 20.9122 
157 1 2.3693 10.0539 19.6884 
ITEM: TIMESTEP
30
ITEM: NUMBER OF ATOMS
161
ITEM: BOX BOUNDS xy xz yz pp pp pp
-6.7755000000000001e+00 1.3552000000000000e+01 -6.7755000000000001e+00
0.0000000000000000e+00 1.1735510246683001e+01 0.0000000000000000e+00
0.0000000000000000e+00 2.2149999999999999e+01 0.0000000000000000e+00
ITEM: ATOMS id type x y z 
8 1 -2.44993 5.42554 9.86074 
87 1 2.95597 4.28953 10.6331 
90 1 2.63361 5.46102 9.77033 
109 1 -2.44886 5.41867 0.779853 
158 1 2.63539 5.45761 0.843961 
11 1 4.26976 4.25123 20.1149 
14 1 2.88103 4.16358 19.7011 
18 1 1.30743 5.86963 18.6017 
33 1 2.09871 4.2255 20.9079 
43 1 4.27464 4.24592 21.5521 
47 1 3.23782 5.80101 17.8298 
52 1 4.27152 4.24771 12.658 
76 1 2.41663 4.93916 14.1814 
85 1 4.27176 4.25079 11.2177 
89 1 3.24205 5.79975 14.9359 
91 1 0.948013 5.0437 11.8407 
102 1 2.88258 4.16269 13.0628 
105 1 1.30253 5.87041 14.158 
114 1 2.10549 4.2276 11.8518 
150 1 2.4155 4.93619 18.5813 
156 1 2.95587 4.29071 22.1295 
159 1 0.948547 5.04316 20.9227 
5 1 -4.89506 10.5274 8.61868 
9 1 -3.25968 8.94394 7.5639 
19 1 -1.75962 7.57049 10.5373 
21 1 -2.60131 8.79018 10.9675 
23 1 -3.10719 7.6186 6.79273 
25 1 -4.12347 10.4374 9.82756 
32 1 1.60176 6.39391 0.753731 
36 1 -1.87423 7.56428 9.0614 
38 1 -2.18243 6.23048 8.64073 
54 1 0.334144 8.48846 10.6689 
57 1 1.38527 7.95114 9.79844 
60 1 -1.74611 7.50413 0.0607369 
65 1 -3.3005 7.55474 3.78658 
78 1 -1.84001 7.54566 1.54812 
80 1 -2.52926 8.79222 1.82866 
84 1 -4.43136 9.77853 3.10812 
99 1 -2.96389 9.6852 0.764977 
100 1 -2.93869 6.28858 3.17439 
107 1 -4.90161 10.5581 1.99021 
110 1 -3.3168 8.85518 3.09083 
111 1 0.591899 5.95964 10.8078 
113 1 1.60196 6.39589 9.86296 
119 1 -4.12348 10.4991 0.781499 
127 1 -2.1532 6.23442 1.98274 
131 1 -2.34266 6.26856 11.0237 
138 1 1.38446 7.95135 0.813832 
142 1 -2.51896 8.8189 8.72069 
145 1 -4.45182 9.74756 7.48246 
151 1 -4.9635 10.4273 11.0431 
154 1 -2.94887 9.61777 9.87489 
155 1 -2.98709 6.26453 7.48541 
161 2 -2.03421 7.5474 6.62119 
12 1 2.57213 7.07442 17.1496 
17 1 0.429146 9.30671 20.9104 
24 1 -3.59551 8.33838 11.8856 
27 1 -0.270373 7.22157 21.6304 
29 1 0.598369 5.95261 21.9567 
31 1 1.27757 7.17146 17.9051 
44 1 -0.179699 7.17949 20.1465 
46 1 0.132111 8.48653 19.7099 
51 1 -0.282334 7.21759 11.131 
53 1 2.5697 7.06736 15.6092 
56 1 1.2797 7.16813 14.8564 
63 1 -2.35452 6.23318 21.7413 
66 1 -3.4014 6.77381 20.8729 
70 1 -0.181179 7.17836 12.6137 
72 1 0.504068 5.92327 12.9065 
92 1 0.919534 8.43652 14.2454 
95 1 -4.97171 10.432 21.7111 
98 1 -4.64859 9.26729 20.8412 
104 1 0.430763 9.30599 11.8553 
116 1 -2.61635 8.76813 21.8828 
118 1 -3.61944 8.32949 20.9334 
122 1 0.132659 8.48647 13.0521 
133 1 -3.33399 6.79255 11.9126 
136 1 0.33446 8.4943 22.0977 
147 1 0.501927 5.92298 19.8567 
153 1 -4.66998 9.25699 11.9339 
160 1 0.919851 8.43543 18.5152 
1 1 7.80482 4.95023 10.5055 
4 1 9.10988 4.82323 11.0381 
20 1 7.81518 4.92147 9.05314 
42 1 9.39789 5.48432 7.44008 
67 1 9.94614 4.59919 0.779463 
77 1 7.82664 4.94703 0.0987242 
94 1 7.80778 4.94179 1.54803 
96 1 9.15226 4.69556 1.99802 
121 1 4.6445 5.52158 10.6784 
130 1 9.44873 5.4702 3.16887 
134 1 9.94945 4.61132 9.84954 
152 1 9.16368 4.68899 8.6303 
45 1 4.64391 5.52354 22.0854 
55 1 4.82257 5.53897 13.0711 
106 1 9.12766 4.82974 21.7528 
137 1 4.8224 5.54198 19.6936 
2 1 7.27563 10.4822 9.03927 
3 1 8.92138 7.63144 6.12194 
6 1 8.43695 6.40835 6.84088 
16 1 2.37458 8.69203 0.865213 
22 1 7.10481 6.17872 8.69631 
26 1 7.15007 8.43008 7.49843 
35 1 7.25899 10.4934 10.4832 
37 1 6.89908 9.20205 11.004 
39 1 8.23153 8.8798 6.76363 
41 1 6.71504 6.97777 9.83031 
48 1 3.69625 6.35317 0.843974 
61 1 7.26322 10.4727 1.5838 
62 1 8.95702 7.65225 4.53564 
64 1 6.71048 9.18345 1.99405 
68 1 7.37668 6.95572 3.06937 
71 1 4.33907 8.52247 10.7342 
74 1 3.59739 7.81003 9.78833 
81 1 8.5071 6.39927 3.81043 
83 1 6.54679 8.40435 0.793274 
93 1 7.25977 10.4728 0.141848 
97 1 8.29212 8.92072 3.86339 
101 1 2.40682 9.89864 10.6789 
103 1 2.37385 8.69423 9.74753 
117 1 7.07947 6.17767 1.91589 
120 1 7.19586 8.40642 3.08583 
123 1 3.69422 6.35606 9.76727 
129 1 6.69724 6.97889 0.778098 
132 1 6.70611 9.19711 8.61802 
135 1 7.29173 6.9176 7.5043 
141 1 7.18862 6.17961 10.9358 
144 1 6.5711 8.41432 9.81852 
148 1 3.59961 7.81131 0.822697 
7 1 9.08341 5.99355 11.9262 
10 1 3.70699 9.77309 21.588 
13 1 2.4066 9.89756 22.086 
15 1 3.02851 8.32423 17.8855 
28 1 3.7277 9.78607 20.1386 
30 1 4.44982 8.54704 19.7775 
34 1 4.33646 6.31835 18.6063 
40 1 7.856 8.35371 11.9184 
49 1 4.84097 7.74523 20.915 
50 1 2.08466 9.25467 18.5209 
58 1 1.58999 10.1254 11.8533 
59 1 4.15303 7.76907 14.1403 
69 1 3.70519 9.77341 11.1766 
73 1 3.02632 8.32635 14.8765 
75 1 4.98549 6.31705 11.8672 
79 1 7.20326 6.20101 21.8124 
82 1 7.93439 6.91366 20.8636 
86 1 3.72999 9.78518 12.6247 
88 1 2.38429 10.03 13.073 
108 1 9.16078 6.03182 20.8241 
112 1 4.45238 8.54675 12.9858 
115 1 4.33554 6.31682 14.1581 
124 1 4.84031 7.7456 11.8501 
125 1 2.08464 9.25533 14.2425 
126 1 6.89192 9.19959 21.752 
128 1 7.83901 8.36905 20.8449 
139 1 1.59056 10.1248 20.9108 
140 1 4.15727 7.76752 18.6228 
143 1 7.92032 6.8851 11.9082 
146 1 4.33323 8.52144 22.0259 
149 1 4.99252 6.31913 20.893 
157 1 2.38199 10.0295 19.691 
ITEM: TIMESTEP
40
ITEM: NUMBER OF ATOMS
161
ITEM: BOX BOUNDS xy xz yz pp pp pp
-6.7755000000000001e+00 1.3552000000000000e+01 -6.7755000000000001e+00
0.0000000000000000e+00 1.1735510246683001e+01 0.0000000000000000e+00
0.0000000000000000e+00 2.2149999999999999e+01 0.0000000000000000e+00
ITEM: ATOMS id type x y z 
8 1 -2.47103 5.45577 9.86426 
87 1 2.94829 4.30548 10.6376 
90 1 2.61958 5.46365 9.75863 
109 1 -2.46149 5.44004 0.778781 
158 1 2.61898 5.46502 0.85787 
11 1 4.26165 4.27807 20.0985 
14 1 2.87409 4.16821 19.7057 
18 1 1.29535 5.87297 18.6076 
33 1 2.08696 4.21784 20.9162 
43 1 4.26666 4.27765 21.5407 
47 1 3.23085 5.79981 17.8323 
52 1 4.26222 4.27799 12.6676 
76 1 2.40122 4.94075 14.1779 
85 1 4.26392 4.28035 11.2239 
89 1 3.23028 5.79819 14.9332 
91 1 0.927759 5.03798 11.8373 
102 1 2.87042 4.16985 13.0561 
105 1 1.29237 5.87288 14.1547 
114 1 2.08806 4.22323 11.8477 
150 1 2.39735 4.93995 18.5858 
156 1 2.95091 4.30352 22.1278 
159 1 0.927228 5.02723 20.9231 
5 1 -4.8813 10.5035 8.6264 
9 1 -3.23764 8.93474 7.54851 
19 1 -1.75782 7.59712 10.5386 
21 1 -2.58625 8.79064 10.9872 
23 1 -3.0837 7.63502 6.77638 
25 1 -4.09396 10.4356 9.82458 
32 1 1.58669 6.3965 0.75571 
36 1 -1.84451 7.58325 9.05746 
38 1 -2.18077 6.25597 8.65132 
54 1 0.343761 8.47347 10.6739 
57 1 1.39789 7.94756 9.79692 
60 1 -1.74135 7.51628 0.0654619 
65 1 -3.30808 7.551 3.78532 
78 1 -1.81412 7.55773 1.55597 
80 1 -2.5115 8.80335 1.8289 
84 1 -4.41791 9.77942 3.10515 
99 1 -2.94447 9.69373 0.766688 
100 1 -2.93245 6.28654 3.16876 
107 1 -4.88726 10.5507 1.98475 
110 1 -3.30971 8.85099 3.08522 
111 1 0.577039 5.95201 10.8041 
113 1 1.58841 6.39766 9.85901 
119 1 -4.11075 10.5056 0.774377 
127 1 -2.14195 6.25281 1.97897 
131 1 -2.35861 6.28845 11.027 
138 1 1.39562 7.94766 0.81504 
142 1 -2.48461 8.835 8.72148 
145 1 -4.44171 9.7223 7.48643 
151 1 -4.95176 10.4123 11.0531 
154 1 -2.93005 9.62564 9.88404 
155 1 -2.99377 6.28304 7.49579 
161 2 -1.99436 7.56661 6.561 
12 1 2.57069 7.05734 17.1449 
17 1 0.444747 9.28702 20.9121 
24 1 -3.58551 8.33452 11.8993 
27 1 -0.279162 7.21223 21.6221 
29 1 0.586016 5.94672 21.9538 
31 1 1.28152 7.17285 17.9115 
44 1 -0.206229 7.16615 20.138 
46 1 0.121768 8.47095 19.7117 
51 1 -0.290123 7.20545 11.1391 
53 1 2.57028 7.05561 15.6136 
56 1 1.28106 7.1729 14.8487 
63 1 -2.363 6.24377 21.7467 
66 1 -3.41371 6.77678 20.873 
70 1 -0.209203 7.16404 12.6207 
72 1 0.486555 5.91581 12.9036 
92 1 0.914724 8.43547 14.2404 
95 1 -4.96507 10.4178 21.714 
98 1 -4.63707 9.2592 20.8317 
104 1 0.446032 9.28374 11.8544 
116 1 -2.60171 8.77292 21.8836 
118 1 -3.6042 8.32936 20.9305 
122 1 0.123675 8.46995 13.0509 
133 1 -3.34346 6.78997 11.9248 
136 1 0.344272 8.48332 22.0937 
147 1 0.487801 5.91765 19.862 
153 1 -4.65138 9.26335 11.9416 
160 1 0.914292 8.43808 18.5212 
1 1 7.75755 4.93326 10.515 
4 1 9.08237 4.83579 11.0293 
20 1 7.77503 4.92375 9.04891 
42 1 9.37373 5.51151 7.44394 
67 1 9.9222 4.62338 0.778028 
77 1 7.78694 4.9436 0.0922776 
94 1 7.77293 4.94642 1.56105 
96 1 9.11065 4.71307 1.999 
121 1 4.62415 5.55335 10.6811 
130 1 9.43732 5.47774 3.16739 
134 1 9.9242 4.63987 9.84424 
152 1 9.12045 4.71609 8.63346 
45 1 4.62487 5.55063 22.0832 
55 1 4.81753 5.56327 13.073 
106 1 9.106 4.83964 21.7614 
137 1 4.81653 5.5641 19.6867 
2 1 7.28337 10.4543 9.02728 
3 1 8.94009 7.64251 6.12308 
6 1 8.42269 6.41131 6.83517 
16 1 2.3839 8.69479 0.875325 
22 1 7.04324 6.15263 8.68509 
26 1 7.14391 8.4031 7.48996 
35 1 7.28351 10.4414 10.4702 
37 1 6.91665 9.16352 11.0123 
39 1 8.23635 8.86659 6.76408 
41 1 6.6865 6.96559 9.83154 
48 1 3.68213 6.36798 0.866422 
61 1 7.27134 10.4447 1.59357 
62 1 8.95762 7.66546 4.53947 
64 1 6.71561 9.15939 2.00056 
68 1 7.36436 6.94403 3.07945 
71 1 4.36341 8.52514 10.7162 
74 1 3.60733 7.81836 9.7694 
81 1 8.502 6.39912 3.80726 
83 1 6.5461 8.38048 0.79181 
93 1 7.27088 10.4436 0.149344 
97 1 8.30105 8.92402 3.86276 
101 1 2.4297 9.88723 10.6848 
103 1 2.38427 8.69655 9.73617 
117 1 7.04245 6.16353 1.93394 
120 1 7.19829 8.39214 3.09826 
123 1 3.67856 6.36841 9.74746 
129 1 6.67524 6.95746 0.780497 
132 1 6.70615 9.17699 8.61731 
135 1 7.27951 6.90769 7.49817 
141 1 7.1716 6.18201 10.951 
144 1 6.56367 8.38709 9.81539 
148 1 3.60906 7.81662 0.844583 
7 1 9.07296 5.99039 11.9372 
10 1 3.74429 9.77722 21.593 
13 1 2.4287 9.88501 22.079 
15 1 3.03328 8.32444 17.8881 
28 1 3.7606 9.78077 20.1303 
30 1 4.49215 8.55884 19.7551 
34 1 4.33383 6.3358 18.5958 
40 1 7.87049 8.34274 11.9206 
49 1 4.86277 7.76455 20.9075 
50 1 2.09646 9.24417 18.5219 
58 1 1.61347 10.1004 11.8543 
59 1 4.16625 7.77889 14.1471 
69 1 3.73856 9.76981 11.1731 
73 1 3.03148 8.32283 14.8757 
75 1 4.98946 6.34356 11.8669 
79 1 7.18173 6.20251 21.7983 
82 1 7.92561 6.90725 20.8453 
86 1 3.76378 9.78074 12.6325 
88 1 2.42352 10.013 13.073 
108 1 9.15174 6.03154 20.8131 
112 1 4.49247 8.55645 13.008 
115 1 4.33431 6.33399 14.1702 
124 1 4.86132 7.76457 11.8585 
125 1 2.09562 9.24489 14.2403 
126 1 6.90836 9.17005 21.7567 
128 1 7.85379 8.35705 20.822 
139 1 1.61151 10.1001 20.9106 
140 1 4.16699 7.7744 18.6124 
143 1 7.90917 6.87541 11.9289 
146 1 4.35547 8.52363 22.0415 
149 1 4.99211 6.34449 20.8986 
157 1 2.42355 10.0135 19.6905 
ITEM: TIMESTEP
50
ITEM: NUMBER OF ATOMS
161
ITEM: BOX BOUNDS xy xz yz pp pp pp
-6.7755000000000001e+00 1.3552000000000000e+01 -6.7755000000000001e+00
0.0000000000000000e+00 1.1735510246683001e+01 0.0000000000000000e+00
0.0000000000000000e+00 2.2149999999999999e+01 0.0000000000000000e+00
ITEM: ATOMS id type x y z 
8 1 -2.54474 5.53316 9.85376 
87 1 2.91664 4.35398 10.6307 
90 1 2.58609 5.48446 9.7301 
109 1 -2.51968 5.49489 0.800742 
158 1 2.58867 5.47957 0.884301 
11 1 4.2272 4.35575 20.0899 
14 1 2.81739 4.19167 19.7126 
18 1 1.25442 5.86102 18.6162 
33 1 2.05239 4.2264 20.9237 
43 1 4.22809 4.36603 21.5152 
47 1 3.21471 5.78615 17.8411 
52 1 4.22536 4.35648 12.6735 
76 1 2.35569 4.95074 14.1741 
85 1 4.22521 4.37055 11.2406 
89 1 3.20349 5.79981 14.9168 
91 1 0.870055 5.00319 11.8206 
102 1 2.82968 4.1882 13.0424 
105 1 1.26055 5.87265 14.1375 
114 1 2.04702 4.22607 11.8348 
150 1 2.37155 4.96965 18.5931 
156 1 2.91315 4.35109 22.1318 
159 1 0.873461 5.01039 20.9392 
5 1 -4.82174 10.4354 8.6327 
9 1 -3.14688 8.92188 7.53984 
19 1 -1.75587 7.62986 10.5465 
21 1 -2.55487 8.83212 11.004 
23 1 -2.99122 7.62948 6.76086 
25 1 -4.06471 10.4084 9.85521 
32 1 1.55811 6.40546 0.774111 
36 1 -1.7668 7.65183 9.05793 
38 1 -2.19055 6.33914 8.67733 
54 1 0.394827 8.42386 10.6766 
57 1 1.42446 7.93378 9.79082 
60 1 -1.73054 7.54276 0.0922183 
65 1 -3.29861 7.54445 3.76785 
78 1 -1.75423 7.59687 1.56359 
80 1 -2.44162 8.83342 1.8348 
84 1 -4.38058 9.76874 3.10609 
99 1 -2.89311 9.72109 0.751081 
100 1 -2.93691 6.2854 3.15961 
107 1 -4.84783 10.5328 1.96945 
110 1 -3.28342 8.84251 3.07332 
111 1 0.531063 5.93225 10.8085 
113 1 1.54853 6.40277 9.84167 
119 1 -4.06725 10.5013 0.765475 
127 1 -2.12591 6.28266 1.97739 
131 1 -2.40455 6.3403 11.04 
138 1 1.41942 7.93945 0.819397 
142 1 -2.40025 8.88354 8.70296 
145 1 -4.3915 9.65062 7.49916 
151 1 -4.90409 10.3523 11.0365 
154 1 -2.85341 9.62192 9.89827 
155 1 -3.00617 6.33558 7.51168 
161 2 -1.93402 7.66526 6.35573 
12 1 2.5604 7.06052 17.1678 
17 1 0.500802 9.2269 20.891 
24 1 -3.53285 8.33007 11.9615 
27 1 -0.282254 7.16866 21.6071 
29 1 0.539152 5.92772 21.9616 
31 1 1.27673 7.1744 17.9155 
44 1 -0.260601 7.1251 20.1196 
46 1 0.104773 8.44281 19.7156 
51 1 -0.303745 7.17262 11.1602 
53 1 2.55759 7.05575 15.6048 
56 1 1.28198 7.17424 14.8468 
63 1 -2.40526 6.29174 21.745 
66 1 -3.43555 6.7881 20.871 
70 1 -0.274916 7.13089 12.6368 
72 1 0.420039 5.89042 12.8997 
92 1 0.91781 8.44123 14.2287 
95 1 -4.93533 10.3771 21.7097 
98 1 -4.60446 9.24766 20.8051 
104 1 0.503995 9.21959 11.8696 
116 1 -2.57025 8.79947 21.8878 
118 1 -3.57384 8.31545 20.924 
122 1 0.102384 8.44006 13.0468 
133 1 -3.3716 6.81041 11.9521 
136 1 0.388938 8.43722 22.092 
147 1 0.411503 5.88423 19.8623 
153 1 -4.61831 9.22174 12.0085 
160 1 0.921451 8.43999 18.5326 
1 1 7.61472 4.86074 10.5323 
4 1 8.98328 4.87587 11.0027 
20 1 7.6402 4.94039 9.07445 
42 1 9.33251 5.58692 7.49165 
67 1 9.85685 4.70061 0.812166 
77 1 7.6694 4.91697 0.0992855 
94 1 7.65889 4.94448 1.5445 
96 1 9.04022 4.76342 1.99581 
121 1 4.57549 5.63713 10.6788 
130 1 9.41 5.50877 3.14829 
134 1 9.83335 4.73883 9.82558 
152 1 9.01181 4.79644 8.62597 
45 1 4.57291 5.63626 22.0923 
55 1 4.81309 5.63244 13.0819 
106 1 9.01388 4.8905 21.7715 
137 1 4.81782 5.62701 19.6844 
2 1 7.33145 10.3572 8.99006 
3 1 8.98603 7.63727 6.13277 
6 1 8.38596 6.44914 6.80453 
16 1 2.41803 8.69839 0.89576 
22 1 6.87481 6.10529 8.63466 
26 1 7.12275 8.35231 7.45879 
35 1 7.32474 10.3643 10.4355 
37 1 6.97989 9.08985 10.9935 
39 1 8.25824 8.8174 6.78429 
41 1 6.6121 6.88288 9.82594 
48 1 3.65304 6.39089 0.90588 
61 1 7.3094 10.3714 1.60445 
62 1 8.95031 7.6627 4.53047 
64 1 6.72456 9.09055 2.00947 
68 1 7.31006 6.91011 3.1029 
71 1 4.42776 8.53437 10.6932 
74 1 3.62478 7.8531 9.72695 
81 1 8.48064 6.41873 3.83264 
83 1 6.55519 8.32751 0.811385 
93 1 7.30977 10.3545 0.168742 
97 1 8.32355 8.92745 3.85388 
101 1 2.51447 9.84601 10.6853 
103 1 2.4233 8.7042 9.71492 
117 1 6.93453 6.13148 1.97591 
120 1 7.20587 8.35158 3.13556 
123 1 3.64353 6.39637 9.70544 
129 1 6.60503 6.89454 0.78595 
132 1 6.6899 9.09461 8.60654 
135 1 7.22116 6.86638 7.48922 
141 1 7.12155 6.17284 10.9677 
144 1 6.56747 8.33316 9.81901 
148 1 3.63646 7.85241 0.880817 
7 1 9.03581 5.97619 11.9717 
10 1 3.8487 9.78963 21.591 
13 1 2.52027 9.84211 22.063 
15 1 3.05502 8.2964 17.8587 
28 1 3.87998 9.77875 20.1387 
30 1 4.6 8.59682 19.7055 
34 1 4.31809 6.37256 18.554 
40 1 7.92385 8.30821 11.9789 
49 1 4.93047 7.82995 20.9097 
50 1 2.12275 9.21635 18.5455 
58 1 1.68246 10.0245 11.8769 
59 1 4.22021 7.81327 14.1768 
69 1 3.81962 9.76118 11.188 
73 1 3.055 8.30029 14.8954 
75 1 4.99521 6.3977 11.8782 
79 1 7.1355 6.19008 21.7794 
82 1 7.89587 6.86952 20.8071 
86 1 3.88434 9.78207 12.6332 