ITEM: TIMESTEP
0
ITEM: NUMBER OF ATOMS
129
ITEM: BOX BOUNDS xy xz yz pp pp pp
0.0000000000000000e+00 2.3654499999999999e+01 7.8845000000000001e+00
0.0000000000000000e+00 1.3658086643083999e+01 0.0000000000000000e+00
0.0000000000000000e+00 2.5747000000000000e+01 0.0000000000000000e+00
ITEM: ATOMS id type x y z 
18 1 10.522 6.683 2.644 
28 1 5.247 4.273 12.803 
31 1 9.65 6.514 0.446 
62 1 9.171 5.15 12.405 
91 1 9.65 6.514 11.889 
92 1 10.81 6.18 11.007 
106 1 10.522 6.683 9.691 
127 1 10.81 6.18 1.328 
4 1 4.402 5.735 13.319 
5 1 3.307 5.568 14.201 
43 1 4.549 6.796 15.517 
52 1 9.172 5.15 25.677 
66 1 4.402 5.735 24.762 
67 1 5.003 6.76 23.881 
88 1 5.247 4.273 25.278 
107 1 3.307 5.568 23.881 
116 1 4.549 6.796 22.565 
117 1 5.003 6.76 14.201 
11 1 11.272 7.494 3.321 
12 1 10.477 8.871 4.018 
14 1 9.018 11.397 0.446 
15 1 10.114 11.565 1.328 
16 1 8.412 9.024 0.654 
19 1 10.477 8.871 5.569 
29 1 10.927 10.156 3.321 
32 1 8.77 7.648 1.328 
35 1 12.036 9.594 2.644 
45 1 9.231 8.963 3.321 
47 1 12.762 8.702 0.446 
49 1 11.224 11 0.654 
51 1 8.872 10.337 2.644 
53 1 11.272 7.494 9.014 
54 1 10.477 8.871 8.317 
56 1 9.018 11.397 11.889 
57 1 8.418 10.372 11.007 
58 1 11.224 11 11.681 
60 1 12.255 7.901 9.691 
61 1 10.477 8.871 6.766 
73 1 9.231 8.963 9.014 
75 1 12.762 8.702 11.889 
76 1 12.202 10.061 11.007 
79 1 9.224 7.617 9.691 
80 1 8.174 12.859 12.405 
89 1 10.927 10.156 9.014 
93 1 8.412 9.024 11.681 
95 1 9.951 11.095 9.691 
105 1 10.114 11.565 11.007 
109 1 8.77 7.648 11.007 
110 1 12.036 9.594 9.691 
114 1 8.872 10.337 9.691 
119 1 8.418 10.372 1.328 
120 1 12.255 7.901 2.644 
123 1 12.202 10.061 1.328 
124 1 9.224 7.617 2.644 
128 1 9.951 11.095 2.644 
6 1 5.009 8.108 13.527 
13 1 9.663 10.28 25.128 
17 1 9.204 8.965 25.162 
30 1 10.016 7.556 25.128 
34 1 11.289 7.464 25.162 
36 1 8.174 12.859 25.677 
46 1 11.752 8.777 25.128 
50 1 10.937 10.184 25.162 
55 1 9.663 10.28 12.954 
59 1 10.937 10.184 12.919 
74 1 11.752 8.777 12.954 
78 1 11.289 7.464 12.919 
90 1 10.016 7.556 12.954 
94 1 9.204 8.965 12.919 
101 1 5.009 8.108 24.555 
33 1 11.795 6.589 0.654 
77 1 11.795 6.589 11.681 
41 1 17.967 6.132 13.527 
68 1 17.967 6.132 24.554 
103 1 19.24 6.037 22.565 
126 1 19.24 6.037 15.517 
3 1 19.528 6.852 12.254 
7 1 19.987 8.167 12.289 
10 1 15.106 8.528 12.804 
22 1 19.175 9.576 12.254 
26 1 17.902 9.668 12.289 
38 1 17.439 8.356 12.254 
42 1 18.254 6.949 12.289 
44 1 20.019 11.982 12.804 
48 1 12.546 7.4 1.328 
65 1 19.528 6.852 0.081 
69 1 18.254 6.949 0.046 
82 1 17.439 8.356 0.081 
86 1 17.902 9.668 0.046 
96 1 14.084 8.604 12.405 
98 1 19.175 9.576 0.081 
102 1 19.987 8.167 0.046 
113 1 12.546 7.4 11.007 
1 1 17.919 9.638 16.194 
2 1 18.714 8.261 16.892 
8 1 18.669 10.449 15.517 
9 1 18.714 8.261 18.442 
20 1 14.084 8.604 25.677 
21 1 18.264 6.977 16.194 
23 1 19.541 10.618 13.32 
24 1 20.421 9.484 14.201 
25 1 17.396 10.544 13.527 
27 1 17.155 7.538 15.517 
37 1 19.96 8.169 16.194 
39 1 16.429 8.43 13.319 
40 1 16.644 9.732 14.201 
63 1 17.919 9.638 21.888 
64 1 18.714 8.261 21.19 
70 1 16.936 9.231 22.565 
71 1 18.714 8.261 19.64 
72 1 20.019 11.982 25.278 
81 1 19.96 8.169 21.888 
83 1 16.429 8.43 24.762 
84 1 16.989 7.071 23.881 
85 1 17.396 10.544 24.555 
87 1 19.967 9.515 22.565 
97 1 18.263 6.977 21.888 
99 1 19.541 10.618 24.762 
100 1 18.38 10.953 23.881 
104 1 15.106 8.528 25.278 
108 1 18.669 10.449 22.565 
111 1 20.421 9.484 23.881 
112 1 17.155 7.538 22.565 
115 1 16.644 9.732 23.881 
118 1 16.936 9.231 15.517 
121 1 16.989 7.071 14.201 
122 1 19.967 9.515 15.517 
125 1 18.38 10.953 14.201 
129 2 15.729 10.67 14.55 
ITEM: TIMESTEP
10
ITEM: NUMBER OF ATOMS
129
ITEM: BOX BOUNDS xy xz yz pp pp pp
0.0000000000000000e+00 2.3654499999999999e+01 7.8845000000000001e+00
0.0000000000000000e+00 1.3658086643083999e+01 0.0000000000000000e+00
0.0000000000000000e+00 2.5747000000000000e+01 0.0000000000000000e+00
ITEM: ATOMS id type x y z 
18 1 10.3889 6.74082 2.63614 
28 1 5.09768 4.58676 12.8945 
31 1 9.41104 6.51485 0.408442 
62 1 9.11424 5.27372 12.3792 
91 1 9.4032 6.50216 11.9223 
92 1 10.818 6.17677 10.9725 
106 1 10.3717 6.74632 9.70978 
127 1 10.8284 6.185 1.34384 
4 1 4.44899 5.77906 13.2625 
5 1 3.11788 5.6456 14.2072 
43 1 4.5743 6.9569 15.485 
52 1 9.11628 5.2763 25.7029 
66 1 4.46895 5.77306 24.8464 
67 1 5.08073 6.96285 23.9028 
88 1 5.10241 4.57969 25.1901 
107 1 3.12413 5.65282 23.8454 
116 1 4.56471 6.95795 22.604 
117 1 5.10577 6.94408 14.1648 
11 1 11.1689 7.58011 3.37597 
12 1 10.51 8.80437 4.08005 
14 1 8.95783 11.3396 0.379693 
15 1 10.2728 11.5056 1.34969 
16 1 8.4145 8.92452 0.712727 
19 1 10.4737 8.8697 5.56383 
29 1 10.9642 10.1595 3.3347 
32 1 8.72485 7.67531 1.31192 
35 1 12.0436 9.56179 2.63843 
45 1 9.22252 8.93385 3.28446 
47 1 12.7349 8.81076 0.536617 
49 1 11.3063 10.9223 0.659564 
51 1 8.82721 10.1842 2.59149 
53 1 11.1961 7.5653 8.93579 
54 1 10.4968 8.80551 8.24945 
56 1 8.95535 11.3251 11.9409 
57 1 8.34878 10.1779 11.0651 
58 1 11.3562 10.9086 11.6394 
60 1 12.3038 8.07931 9.63533 
61 1 10.4731 8.86859 6.7682 
73 1 9.22194 8.93686 9.06405 
75 1 12.7406 8.85847 11.8191 
76 1 12.2744 10.0895 11.0543 
79 1 9.22214 7.68508 9.74562 
80 1 8.32723 12.5373 12.3075 
89 1 10.9575 10.173 9.00622 
93 1 8.38732 8.92229 11.6077 
95 1 10.0489 11.0306 9.69782 
105 1 10.2939 11.5019 11.0082 
109 1 8.71529 7.67779 11.0231 
110 1 12.0562 9.5896 9.71754 
114 1 8.82763 10.1804 9.74605 
119 1 8.3405 10.1727 1.28158 
120 1 12.2889 8.08789 2.69672 
123 1 12.3046 10.098 1.30789 
124 1 9.22756 7.6852 2.58837 
128 1 10.0668 11.0387 2.6295 
6 1 5.03502 8.20182 13.569 
13 1 9.54778 10.3635 25.0769 
17 1 9.21412 8.99149 25.1612 
30 1 9.93574 7.71259 25.0726 
34 1 11.2688 7.47899 25.1381 
36 1 8.32122 12.5477 25.772 
46 1 11.6993 8.80022 25.0539 
50 1 10.9005 10.0967 25.1575 
55 1 9.57119 10.3305 13.0111 
59 1 10.931 10.1113 12.9151 
74 1 11.6929 8.80944 13.0143 
78 1 11.2555 7.50909 12.9358 
90 1 9.943 7.71731 13.034 
94 1 9.19472 8.97698 12.9097 
101 1 5.01095 8.19809 24.516 
33 1 11.7316 6.60337 0.706935 
77 1 11.7351 6.60947 11.6589 
41 1 17.8901 6.21608 13.5526 
68 1 17.8851 6.21986 24.5373 
103 1 19.1432 6.08551 22.5925 
126 1 19.1466 6.07923 15.4919 
3 1 19.6354 6.78462 12.216 
7 1 20.0015 8.14865 12.2686 
10 1 15.133 8.42926 12.8532 
22 1 19.2697 9.39786 12.2293 
26 1 17.9185 9.66528 12.2853 
38 1 17.5197 8.30712 12.2265 
42 1 18.2411 7.04101 12.278 
44 1 20.0844 11.8758 12.8214 
48 1 12.5939 7.54864 1.41297 
65 1 19.6331 6.78824 0.101769 
69 1 18.2559 7.03199 0.0540266 
82 1 17.5233 8.34316 0.119826 
86 1 17.9151 9.63425 0.0606496 
96 1 14.0415 8.71418 12.3637 
98 1 19.2337 9.42032 0.137472 
102 1 19.987 8.1393 0.0535177 
113 1 12.6062 7.53068 10.9072 
1 1 17.8552 9.57755 16.264 
2 1 18.7382 8.26101 16.9949 
8 1 18.8005 10.3549 15.5139 
9 1 18.7263 8.25368 18.4503 
20 1 14.0608 8.67674 25.7345 
21 1 18.251 6.98109 16.2348 
23 1 19.8216 10.6478 13.2563 
24 1 20.486 9.44014 14.1315 
25 1 17.5364 10.5315 13.3809 
27 1 17.1404 7.51284 15.5106 
37 1 19.96 8.20823 16.1413 
39 1 16.463 8.22272 13.313 
40 1 16.4415 9.73305 14.3251 
63 1 17.8649 9.54743 21.8615 
64 1 18.7129 8.29761 21.1023 
70 1 16.9194 9.09924 22.4772 
71 1 18.7145 8.26911 19.6402 
72 1 20.0722 11.8539 25.2525 
81 1 19.9481 8.19974 21.9279 
83 1 16.4986 8.34265 24.6531 
84 1 16.9234 7.05236 23.8979 
85 1 17.4345 10.5264 24.5066 
87 1 20.0075 9.45089 22.6283 
97 1 18.2485 6.98334 21.8645 
99 1 19.781 10.6209 24.8117 
100 1 18.3812 10.9329 23.8463 
104 1 15.1278 8.47557 25.2125 
108 1 18.7849 10.3667 22.5823 
111 1 20.4932 9.45739 23.9381 
112 1 17.1477 7.51894 22.602 
115 1 16.6274 9.56333 23.8253 
118 1 16.9833 9.00486 15.7033 
121 1 16.9054 7.0173 14.1712 
122 1 19.9864 9.46628 15.4219 
125 1 18.4402 10.9912 14.3063 
129 2 15.5825 10.711 14.5448 
ITEM: TIMESTEP
20
ITEM: NUMBER OF ATOMS
129
ITEM: BOX BOUNDS xy xz yz pp pp pp
0.0000000000000000e+00 2.3654499999999999e+01 7.8845000000000001e+00
0.0000000000000000e+00 1.3658086643083999e+01 0.0000000000000000e+00
0.0000000000000000e+00 2.5747000000000000e+01 0.0000000000000000e+00
ITEM: ATOMS id type x y z 
18 1 10.3659 6.7419 2.64126 
28 1 5.10054 4.58957 12.8941 
31 1 9.41602 6.53751 0.410149 
62 1 9.09623 5.28274 12.3777 
91 1 9.41523 6.52635 11.9214 
92 1 10.8131 6.19551 10.9852 
106 1 10.3702 6.75699 9.69694 
127 1 10.8069 6.18925 1.35003 
4 1 4.44034 5.81018 13.2725 
5 1 3.14061 5.64282 14.2059 
43 1 4.57559 6.96156 15.4666 
52 1 9.09838 5.28131 25.7026 
66 1 4.45241 5.80125 24.8226 
67 1 5.07651 6.96178 23.8976 
88 1 5.10406 4.5861 25.1899 
107 1 3.13913 5.64666 23.8703 
116 1 4.57168 6.96225 22.6046 
117 1 5.08803 6.9547 14.1821 
11 1 11.1962 7.56074 3.3945 
12 1 10.5093 8.82 4.08415 
14 1 8.98306 11.3191 0.392191 
15 1 10.2671 11.484 1.32658 
16 1 8.40031 8.90548 0.705768 
19 1 10.4733 8.86775 5.56123 
29 1 10.9537 10.1259 3.33006 
32 1 8.71022 7.66915 1.30176 
35 1 12.0582 9.59701 2.6068 
45 1 9.21756 8.95856 3.26938 
47 1 12.7056 8.82612 0.541643 
49 1 11.3353 10.8998 0.666082 
51 1 8.84123 10.1784 2.59091 
53 1 11.2107 7.55903 8.9293 
54 1 10.5158 8.80771 8.25223 
56 1 8.989 11.3106 11.9401 
57 1 8.33919 10.1717 11.0405 
58 1 11.353 10.914 11.6609 
60 1 12.306 8.09604 9.65198 
61 1 10.4739 8.8672 6.77247 
73 1 9.22351 8.96096 9.06861 
75 1 12.7212 8.84235 11.8184 
76 1 12.2894 10.0832 11.0123 
79 1 9.20463 7.67432 9.76359 
80 1 8.32336 12.5368 12.3086 
89 1 10.9476 10.1213 9.01346 
93 1 8.37561 8.89804 11.6241 
95 1 10.0443 11.0389 9.70331 
105 1 10.2786 11.4821 11.0111 
109 1 8.70079 7.66522 11.037 
110 1 12.0578 9.59736 9.72747 
114 1 8.83553 10.1841 9.74087 
119 1 8.34171 10.1695 1.30251 
120 1 12.3084 8.09361 2.68045 
123 1 12.2789 10.0904 1.32601 
124 1 9.20876 7.67815 2.57351 
128 1 10.0529 11.0356 2.63825 
6 1 5.04994 8.21062 13.5674 
13 1 9.56801 10.3361 25.0703 
17 1 9.18755 8.97899 25.1486 
30 1 9.92833 7.7088 25.0747 
34 1 11.2688 7.50442 25.1396 
36 1 8.31827 12.5453 25.7722 
46 1 11.6773 8.81942 25.0793 
50 1 10.9365 10.0961 25.1592 
55 1 9.58171 10.3184 13.0091 
59 1 10.9491 10.1009 12.9216 
74 1 11.6829 8.82968 12.9911 
78 1 11.2606 7.51865 12.9387 
90 1 9.92631 7.71059 13.0255 
94 1 9.18292 8.97002 12.9265 
101 1 5.02835 8.22205 24.5144 
33 1 11.7438 6.62314 0.701801 
77 1 11.7291 6.62082 11.633 
41 1 17.8532 6.22384 13.5365 
68 1 17.8541 6.22777 24.5486 
103 1 19.1515 6.09123 22.5696 
126 1 19.1562 6.09133 15.5132 
3 1 19.62 6.80152 12.2101 
7 1 20.008 8.15687 12.2569 
10 1 15.1353 8.43039 12.8474 
22 1 19.2787 9.40976 12.2359 
26 1 17.9259 9.67103 12.2947 
38 1 17.5166 8.30266 12.234 
42 1 18.2539 7.02575 12.274 
44 1 20.0977 11.8645 12.8243 
48 1 12.5765 7.57077 1.41466 
65 1 19.6197 6.79664 0.124482 
69 1 18.2435 7.03187 0.0551272 
82 1 17.5185 8.31433 0.107079 
86 1 17.9183 9.63812 0.0689845 
96 1 14.0488 8.71109 12.3732 
98 1 19.257 9.42534 0.137564 
102 1 20.0026 8.1568 0.066531 
113 1 12.5821 7.56623 10.9172 
1 1 17.8538 9.56546 16.2715 
2 1 18.7314 8.25746 16.9859 
8 1 18.8125 10.3615 15.5016 
9 1 18.7288 8.25522 18.433 
20 1 14.0621 8.68182 25.725 
21 1 18.2524 6.99195 16.2282 
23 1 19.8001 10.6081 13.2612 
24 1 20.4959 9.45827 14.1323 
25 1 17.5348 10.4927 13.4248 
27 1 17.1314 7.50755 15.4956 
37 1 19.9673 8.19418 16.1344 
39 1 16.4778 8.21042 13.3257 
40 1 16.467 9.76593 14.3172 
63 1 17.8643 9.55083 21.8528 
64 1 18.6977 8.29472 21.1062 
70 1 16.9164 9.08775 22.4704 
71 1 18.7162 8.26907 19.654 
72 1 20.0906 11.8529 25.2545 
81 1 19.9589 8.19683 21.9406 
83 1 16.4982 8.32077 24.6697 
84 1 16.9181 7.05197 23.8795 
85 1 17.4493 10.5223 24.5071 
87 1 19.9979 9.4713 22.6521 
97 1 18.2441 7.00283 21.8638 
99 1 19.7861 10.5926 24.8066 
100 1 18.3925 10.9279 23.8455 
104 1 15.1408 8.46455 25.2195 
108 1 18.8099 10.3408 22.5804 
111 1 20.4977 9.4641 23.932 
112 1 17.1428 7.5057 22.6031 
115 1 16.6291 9.56288 23.8088 
118 1 16.9691 9.00084 15.6826 
121 1 16.8981 7.04532 14.1859 
122 1 19.9866 9.47385 15.4145 
125 1 18.4692 10.9556 14.2767 
129 2 15.5743 10.6855 14.5426 
ITEM: TIMESTEP
30
ITEM: NUMBER OF ATOMS
129
ITEM: BOX BOUNDS xy xz yz pp pp pp
0.0000000000000000e+00 2.3654499999999999e+01 7.8845000000000001e+00
0.0000000000000000e+00 1.3658086643083999e+01 0.0000000000000000e+00
0.0000000000000000e+00 2.5747000000000000e+01 0.0000000000000000e+00
ITEM: ATOMS id type x y z 
18 1 10.358 6.75915 2.65039 
28 1 5.10094 4.5986 12.8965 
31 1 9.40769 6.55255 0.4102 
62 1 9.07222 5.28589 12.3789 
91 1 9.40916 6.54844 11.9211 
92 1 10.7957 6.2096 10.9771 
106 1 10.3616 6.7698 9.68482 
127 1 10.7965 6.206 1.35572 
4 1 4.42695 5.82969 13.286 
5 1 3.15034 5.66733 14.1999 
43 1 4.57147 6.96421 15.4672 
52 1 9.07468 5.2848 25.7013 
66 1 4.43035 5.82995 24.8015 
67 1 5.07229 6.97313 23.8981 
88 1 5.10298 4.59861 25.1869 
107 1 3.15412 5.67144 23.8821 
116 1 4.56371 6.96873 22.6071 
117 1 5.08529 6.9715 14.1802 
11 1 11.2101 7.56196 3.40319 
12 1 10.509 8.81495 4.07143 
14 1 8.99702 11.2957 0.401595 
15 1 10.2645 11.4619 1.3209 
16 1 8.3824 8.89697 0.696052 
19 1 10.4727 8.86667 5.56695 
29 1 10.9495 10.1195 3.32971 
32 1 8.687 7.66057 1.29075 
35 1 12.0761 9.6046 2.61512 
45 1 9.20997 8.95011 3.26737 
47 1 12.6984 8.83811 0.533777 
49 1 11.3496 10.9006 0.660525 
51 1 8.84868 10.1774 2.59481 
53 1 11.2177 7.56443 8.9256 
54 1 10.5097 8.81008 8.26826 
56 1 9.0024 11.291 11.9294 
57 1 8.34145 10.1542 11.0311 
58 1 11.3628 10.9064 11.6719 
60 1 12.3067 8.09906 9.64957 
61 1 10.4735 8.86515 6.77379 
73 1 9.20978 8.94787 9.07258 
75 1 12.7151 8.84436 11.8133 
76 1 12.3016 10.0907 11.0122 
79 1 9.18997 7.67015 9.77057 
80 1 8.32204 12.5297 12.3076 
89 1 10.9484 10.1181 9.01091 
93 1 8.36585 8.89141 11.6366 
95 1 10.0499 11.0326 9.69365 
105 1 10.273 11.4599 11.0159 
109 1 8.68109 7.6585 11.0472 
110 1 12.0767 9.60505 9.7224 
114 1 8.84632 10.1745 9.7401 
119 1 8.34218 10.1582 1.30468 
120 1 12.3052 8.09987 2.68922 
123 1 12.2925 10.0909 1.32462 
124 1 9.19263 7.66838 2.56795 
128 1 10.052 11.0345 2.64478 
6 1 5.06157 8.22207 13.5539 
13 1 9.57489 10.3171 25.0629 
17 1 9.17757 8.97075 25.1371 
30 1 9.9227 7.70706 25.0692 
34 1 11.264 7.50982 25.138 
36 1 8.31704 12.5378 25.7733 
46 1 11.6845 8.82653 25.1038 
50 1 10.9432 10.1016 25.1498 
55 1 9.579 10.314 13.0183 
59 1 10.9444 10.1031 12.9253 
74 1 11.6885 8.8297 12.9758 
78 1 11.2599 7.51266 12.9414 
90 1 9.92248 7.70761 13.0232 
94 1 9.18357 8.96846 12.9359 
101 1 5.0437 8.2309 24.5212 
33 1 11.7331 6.63925 0.705155 
77 1 11.7314 6.64443 11.6288 
41 1 17.8432 6.22236 13.53 
68 1 17.842 6.22676 24.554 
103 1 19.1514 6.09448 22.5641 
126 1 19.1558 6.09184 15.5191 
3 1 19.6245 6.80789 12.1905 
7 1 20.0125 8.15649 12.258 
10 1 15.1356 8.43273 12.84 
22 1 19.2846 9.42487 12.2287 
26 1 17.9296 9.66459 12.298 
38 1 17.5236 8.30615 12.2337 
42 1 18.2587 7.01923 12.2759 
44 1 20.116 11.8471 12.8242 
48 1 12.5721 7.59398 1.40289 
65 1 19.6141 6.81176 0.140408 
69 1 18.2458 7.02783 0.0541816 
82 1 17.5066 8.30909 0.0946456 
86 1 17.9274 9.63026 0.070956 
96 1 14.0419 8.70919 12.3768 
98 1 19.2679 9.42957 0.144425 
102 1 20.0065 8.15945 0.0720701 
113 1 12.5724 7.59985 10.9363 
1 1 17.858 9.5567 16.2692 
2 1 18.7273 8.25884 16.9808 
8 1 18.8139 10.3599 15.5076 
9 1 18.7311 8.25607 18.4374 
20 1 14.0563 8.68565 25.7168 
21 1 18.2552 6.99735 16.2246 
23 1 19.7826 10.5783 13.2747 
24 1 20.5171 9.47622 14.1297 
25 1 17.5345 10.4803 13.4391 
27 1 17.1171 7.50737 15.4999 
37 1 19.9734 8.19938 16.1297 
39 1 16.4843 8.19926 13.3242 
40 1 16.4681 9.78026 14.3272 
63 1 17.8618 9.5449 21.8456 
64 1 18.7002 8.29159 21.1142 
70 1 16.9162 9.07822 22.4651 
71 1 18.7187 8.26962 19.6558 
72 1 20.1148 11.8511 25.2566 
81 1 19.9667 8.20071 21.9428 
83 1 16.5021 8.30872 24.6674 
84 1 16.9057 7.05101 23.8771 
85 1 17.4621 10.5056 24.5091 
87 1 20.0014 9.47683 22.6559 
97 1 18.2418 7.00498 21.8649 
99 1 19.7957 10.5761 24.8061 
100 1 18.403 10.9149 23.847 
104 1 15.1416 8.45911 25.2304 
108 1 18.8175 10.3351 22.5735 
111 1 20.5203 9.47048 23.9371 
112 1 17.1264 7.49827 22.5934 
115 1 16.6376 9.54424 23.8089 
118 1 16.9656 8.99337 15.6855 
121 1 16.8914 7.04238 14.1898 
122 1 19.9906 9.4752 15.4151 
125 1 18.5307 10.9113 14.2473 
129 2 15.5413 10.681 14.5457 
ITEM: TIMESTEP
40
ITEM: NUMBER OF ATOMS
129
ITEM: BOX BOUNDS xy xz yz pp pp pp
0.0000000000000000e+00 2.3654499999999999e+01 7.8845000000000001e+00
0.0000000000000000e+00 1.3658086643083999e+01 0.0000000000000000e+00
0.0000000000000000e+00 2.5747000000000000e+01 0.0000000000000000e+00
ITEM: ATOMS id type x y z 
18 1 10.3437 6.80021 2.66875 
28 1 5.09972 4.63215 12.9074 
31 1 9.37158 6.57187 0.406516 
62 1 8.99937 5.30198 12.381 
91 1 9.37451 6.57687 11.9294 
92 1 10.7613 6.25818 10.9668 
106 1 10.3437 6.8001 9.66334 
127 1 10.7604 6.25532 1.36929 
4 1 4.42299 5.88048 13.2822 
5 1 3.14247 5.70822 14.1981 
43 1 4.57206 6.97235 15.4643 
52 1 9.00189 5.30147 25.6991 
66 1 4.41487 5.88956 24.7985 
67 1 5.08077 7.01857 23.9038 
88 1 5.09807 4.64038 25.1748 
107 1 3.14225 5.70745 23.8899 
116 1 4.56067 6.97583 22.6088 
117 1 5.08668 7.01516 14.1749 
11 1 11.2291 7.57301 3.42078 
12 1 10.5037 8.78584 4.06853 
14 1 9.00318 11.2487 0.41082 
15 1 10.2809 11.4177 1.31626 
16 1 8.34256 8.87653 0.666624 
19 1 10.4713 8.86072 5.56529 
29 1 10.9485 10.0996 3.32638 
32 1 8.62192 7.64533 1.26978 
35 1 12.1149 9.63183 2.63863 
45 1 9.20082 8.92933 3.25748 
47 1 12.6945 8.87821 0.5306 
49 1 11.3738 10.8845 0.642134 
51 1 8.85602 10.1634 2.60064 
53 1 11.2325 7.57265 8.92319 
54 1 10.5029 8.78824 8.26979 
56 1 9.00757 11.246 11.9209 
57 1 8.34144 10.1142 11.0297 
58 1 11.3804 10.8843 11.6918 
60 1 12.3071 8.13229 9.64501 
61 1 10.471 8.86022 6.76974 
73 1 9.20118 8.92992 9.07974 
75 1 12.7188 8.88289 11.8147 
76 1 12.3411 10.1096 11.0067 
79 1 9.14559 7.65657 9.78673 
80 1 8.32571 12.4921 12.2984 
89 1 10.9467 10.095 9.01386 
93 1 8.33996 8.87379 11.6711 
95 1 10.0551 11.0201 9.68698 
105 1 10.2855 11.416 11.0174 
109 1 8.61987 7.64229 11.0647 
110 1 12.119 9.63563 9.70274 
114 1 8.85547 10.1619 9.73804 
119 1 8.3453 10.1209 1.30259 
120 1 12.3034 8.12963 2.69556 
123 1 12.3393 10.1032 1.32731 
124 1 9.14414 7.65654 2.55325 
128 1 10.0517 11.0198 2.64824 
6 1 5.09522 8.25491 13.5324 
13 1 9.56789 10.3046 25.0346 
17 1 9.18086 8.96372 25.1245 
30 1 9.92286 7.70463 25.049 
34 1 11.254 7.49829 25.1332 
36 1 8.32475 12.4917 25.7847 
46 1 11.6916 8.82444 25.1253 
50 1 10.9309 10.1082 25.1467 
55 1 9.56792 10.3077 13.0408 
59 1 10.9369 10.1025 12.9356 
74 1 11.6841 8.82206 12.9611 
78 1 11.2598 7.50028 12.9517 
90 1 9.92349 7.70335 13.0287 
94 1 9.1793 8.96485 12.9557 
101 1 5.08284 8.25778 24.5427 
33 1 11.6993 6.68485 0.716382 
77 1 11.7014 6.68985 11.6155 
41 1 17.8287 6.23334 13.5201 
68 1 17.8187 6.24566 24.5595 
103 1 19.1517 6.10872 22.5593 
126 1 19.1572 6.10676 15.5264 
3 1 19.6437 6.81338 12.1627 
7 1 20.0149 8.16546 12.2417 
10 1 15.1488 8.43948 12.8326 
22 1 19.2871 9.42023 12.1953 
26 1 17.9273 9.66945 12.3052 
38 1 17.5325 8.29981 12.2392 
42 1 18.2755 7.00769 12.2707 
44 1 20.1869 11.8532 12.7962 
48 1 12.5586 7.64977 1.40031 
65 1 19.6207 6.82587 0.170435 
69 1 18.2505 7.02959 0.0583808 
82 1 17.5086 8.31156 0.0827734 
86 1 17.9397 9.62626 0.0874816 
96 1 14.0441 8.71663 12.3953 
98 1 19.2761 9.42836 0.162064 
102 1 20.0088 8.16624 0.0872279 
113 1 12.5639 7.65043 10.9371 
1 1 17.8565 9.53419 16.2604 
2 1 18.7262 8.26954 16.9829 
8 1 18.8446 10.3278 15.5294 
9 1 18.7376 8.25902 18.4379 
20 1 14.0488 8.70336 25.7025 
21 1 18.2484 7.01252 16.2168 
23 1 19.81 10.5091 13.262 
24 1 20.5927 9.47826 14.1482 
25 1 17.5301 10.4308 13.4668 
27 1 17.0901 7.5039 15.51 
37 1 19.9752 8.20347 16.1331 
39 1 16.4952 8.17153 13.3093 
40 1 16.4494 9.82369 14.364 
63 1 17.8607 9.53212 21.8344 
64 1 18.6991 8.30969 21.1126 
70 1 16.9178 9.04597 22.449 
71 1 18.7273 8.27191 19.6562 
72 1 20.1877 11.8329 25.2584 
81 1 19.9628 8.21156 21.9504 
83 1 16.4956 8.27732 24.6611 
84 1 16.8698 7.0233 23.8581 
85 1 17.4938 10.4594 24.5015 
87 1 20.0245 9.48155 22.6692 
97 1 18.2382 7.01547 21.8695 
99 1 19.8335 10.5518 24.8129 
100 1 18.4392 10.8736 23.8474 
104 1 15.1394 8.44419 25.2467 
108 1 18.8296 10.3147 22.5632 
111 1 20.576 9.48889 23.9418 
112 1 17.0938 7.47859 22.573 
115 1 16.6607 9.5037 23.8053 
118 1 16.9516 8.98007 15.6823 
121 1 16.8644 7.0372 14.1911 
122 1 20.0153 9.48289 15.4198 
125 1 18.6082 10.8412 14.2229 
129 2 15.4636 10.6506 14.5507 
ITEM: TIMESTEP
49
ITEM: NUMBER OF ATOMS
129
ITEM: BOX BOUNDS xy xz yz pp pp pp
0.0000000000000000e+00 2.3654499999999999e+01 7.8845000000000001e+00
0.0000000000000000e+00 1.3658086643083999e+01 0.0000000000000000e+00
0.0000000000000000e+00 2.5747000000000000e+01 0.0000000000000000e+00
ITEM: ATOMS id type x y z 
18 1 10.3347 6.80573 2.66837 
28 1 5.0998 4.64367 12.9114 
31 1 9.36291 6.57457 0.403213 
62 1 8.9771 5.30673 12.3823 
91 1 9.36417 6.57658 11.9325 
92 1 10.7513 6.27165 10.967 
106 1 10.3376 6.80577 9.66798 
127 1 10.7487 6.26659 1.36643 
4 1 4.42817 5.88333 13.2819 
5 1 3.14237 5.71296 14.1979 
43 1 4.5769 6.97494 15.46 
52 1 8.97938 5.30758 25.6986 
66 1 4.41863 5.89483 24.8 
67 1 5.07726 7.02472 23.9025 
88 1 5.09748 4.65306 25.171 
107 1 3.13846 5.71847 23.8878 
116 1 4.56674 6.98202 22.6182 
117 1 5.09028 7.01992 14.1724 
11 1 11.2287 7.57233 3.41733 
12 1 10.5024 8.78302 4.07154 
14 1 9.00531 11.2406 0.404701 
15 1 10.2861 11.4115 1.31644 
16 1 8.33775 8.87122 0.661042 
19 1 10.47 8.85842 5.56732 
29 1 10.9463 10.0936 3.32365 
32 1 8.61149 7.6416 1.27174 
35 1 12.1199 9.64378 2.63905 
45 1 9.20103 8.92727 3.25292 
47 1 12.6951 8.88279 0.530718 
49 1 11.378 10.8807 0.646411 
51 1 8.85012 10.1571 2.59372 
53 1 11.2296 7.57734 8.9247 
54 1 10.5016 8.78187 8.26894 
56 1 9.00636 11.24 11.9256 
57 1 8.33826 10.1089 11.0309 
58 1 11.3842 10.881 11.6879 
60 1 12.3099 8.13842 9.64135 
61 1 10.47 8.8581 6.77113 
73 1 9.20529 8.92821 9.08538 
75 1 12.7254 8.88623 11.8166 
76 1 12.347 10.1176 11.0042 
79 1 9.13799 7.66063 9.78528 
80 1 8.32506 12.4823 12.2952 
89 1 10.9462 10.0898 9.01605 
93 1 8.33366 8.86754 11.6754 
95 1 10.055 11.0115 9.68926 
105 1 10.29 11.4114 11.0185 
109 1 8.60883 7.64007 11.0641 
110 1 12.1223 9.64631 9.70111 
114 1 8.85179 10.1538 9.73997 
119 1 8.34045 10.1103 1.30501 
120 1 12.3077 8.13751 2.70115 
123 1 12.3428 10.1165 1.33361 
124 1 9.13635 7.65872 2.54892 
128 1 10.0544 11.0143 2.64556 
6 1 5.09833 8.2551 13.5254 
13 1 9.56829 10.3029 25.0363 
17 1 9.17544 8.96025 25.1206 
30 1 9.91946 7.70154 25.0476 
34 1 11.2576 7.50384 25.1315 
36 1 8.32266 12.4844 25.787 
46 1 11.6781 8.82486 25.1185 
50 1 10.9342 10.0968 25.1423 
55 1 9.5702 10.3023 13.0426 
59 1 10.9364 10.0956 12.9395 
74 1 11.6828 8.82605 12.9673 
78 1 11.2576 7.50613 12.9498 
90 1 9.91769 7.70014 13.0325 
94 1 9.17694 8.95842 12.9598 
101 1 5.08817 8.26108 24.5485 
33 1 11.6948 6.69524 0.721276 
77 1 11.6982 6.70115 11.6125 
41 1 17.8314 6.23762 13.5201 
68 1 17.822 6.24739 24.5575 
103 1 19.1521 6.11153 22.5702 
126 1 19.1554 6.11211 15.5198 
3 1 19.6468 6.81936 12.1587 
7 1 20.021 8.16733 12.2443 
10 1 15.1502 8.44326 12.8374 
22 1 19.2902 9.43199 12.2018 
26 1 17.9275 9.66301 12.3051 
38 1 17.5354 8.29891 12.2287 
42 1 18.2804 7.00971 12.2677 
44 1 20.2029 11.8195 12.7965 
48 1 12.5521 7.65037 1.40273 
65 1 19.6207 6.82662 0.171189 
69 1 18.2524 7.03508 0.0592275 
82 1 17.5122 8.31055 0.0856431 
86 1 17.9366 9.62915 0.0853911 
96 1 14.046 8.7237 12.3973 
98 1 19.2773 9.4305 0.166663 
102 1 20.0151 8.16819 0.0878978 
113 1 12.557 7.65393 10.9362 
1 1 17.8551 9.53534 16.2542 
2 1 18.7217 8.27164 16.9837 
8 1 18.8493 10.3172 15.5179 
9 1 18.7395 8.25996 18.4376 
20 1 14.0536 8.70981 25.703 
21 1 18.2467 7.0175 16.2157 
23 1 19.8373 10.5145 13.2474 
24 1 20.5947 9.49431 14.1375 
25 1 17.5415 10.4234 13.4766 
27 1 17.0866 7.50182 15.5068 
37 1 19.9793 8.20235 16.135 
39 1 16.4942 8.16252 13.3058 
40 1 16.4438 9.83105 14.377 
63 1 17.8597 9.53087 21.8337 
64 1 18.6976 8.31113 21.1125 
70 1 16.9189 9.04095 22.4462 
71 1 18.7295 8.27374 19.6574 
72 1 20.2109 11.8284 25.2597 
81 1 19.9666 8.21082 21.9526 
83 1 16.4974 8.26689 24.6607 
84 1 16.8595 7.02051 23.8567 
85 1 17.502 10.4501 24.503 
87 1 20.0325 9.48217 22.6702 
97 1 18.2362 7.01811 21.8666 
99 1 19.8423 10.5515 24.8169 
100 1 18.4489 10.8636 23.8505 
104 1 15.1388 8.44102 25.2417 
108 1 18.8361 10.3094 22.5648 
111 1 20.5868 9.49234 23.9425 
112 1 17.0879 7.47071 22.5696 
115 1 16.663 9.49454 23.8018 
118 1 16.9466 8.98383 15.6777 
121 1 16.8593 7.03124 14.1955 
122 1 20.0373 9.4773 15.4228 
125 1 18.6002 10.8266 14.2296 
129 2 15.4456 10.6436 14.5523 
ITEM: TIMESTEP
50
ITEM: NUMBER OF ATOMS
129
ITEM: BOX BOUNDS xy xz yz pp pp pp
0.0000000000000000e+00 2.3654499999999999e+01 7.8845000000000001e+00
0.0000000000000000e+00 1.3658086643083999e+01 0.0000000000000000e+00
0.0000000000000000e+00 2.5747000000000000e+01 0.0000000000000000e+00
ITEM: ATOMS id type x y z 
18 1 10.3347 6.8057 2.6684 
77 1 11.6982 6.70112 11.6125 
31 1 9.36291 6.57457 0.403209 
62 1 8.97709 5.30673 12.3823 
91 1 9.36416 6.57658 11.9325 
92 1 10.7513 6.27163 10.967 
106 1 10.3376 6.80568 9.66794 
127 1 10.7487 6.26658 1.3664 
33 1 11.6948 6.69519 0.721265 
4 1 4.42819 5.88331 13.2819 
88 1 5.09748 4.65306 25.171 
66 1 4.41866 5.89479 24.8 
52 1 8.97937 5.30758 25.6986 
28 1 5.0998 4.64367 12.9114 
11 1 11.2287 7.57237 3.41733 
12 1 10.5024 8.78301 4.07152 
14 1 9.00531 11.2406 0.404712 
15 1 10.2861 11.4115 1.31645 
16 1 8.33774 8.87122 0.661036 
19 1 10.47 8.85842 5.56731 
29 1 10.9463 10.0936 3.32364 
32 1 8.61147 7.6416 1.27174 
35 1 12.1198 9.64377 2.63908 
45 1 9.20105 8.92728 3.25291 
47 1 12.6952 8.88282 0.530727 
49 1 11.378 10.8808 0.646425 
51 1 8.85013 10.1571 2.59372 
53 1 11.2297 7.57737 8.92464 
54 1 10.5017 8.78186 8.26886 
56 1 9.00637 11.24 11.9256 
57 1 8.33828 10.1089 11.0309 
58 1 11.3841 10.8811 11.6878 
60 1 12.3099 8.13846 9.64132 
61 1 10.47 8.85809 6.77114 
73 1 9.20517 8.9282 9.0853 
75 1 12.7254 8.88626 11.8166 
76 1 12.347 10.1176 11.0041 
79 1 9.13791 7.66056 9.78535 
80 1 8.32506 12.4823 12.2951 
89 1 10.9462 10.0898 9.01603 
93 1 8.33366 8.86755 11.6754 
95 1 10.055 11.0116 9.68929 
105 1 10.29 11.4113 11.0185 
109 1 8.60881 7.64007 11.0641 
110 1 12.1223 9.6463 9.70111 
114 1 8.85174 10.1539 9.74005 
119 1 8.34044 10.1103 1.30501 
120 1 12.3077 8.13753 2.70121 
123 1 12.3428 10.1165 1.33363 
124 1 9.13632 7.65875 2.54893 
128 1 10.0544 11.0143 2.64555 
36 1 8.32266 12.4844 0.0400032 
6 1 5.09834 8.25513 13.5254 
13 1 9.56825 10.3029 25.0363 
17 1 9.17543 8.96024 25.1206 
30 1 9.91943 7.70153 25.0476 
34 1 11.2576 7.50376 25.1315 
67 1 5.07737 7.02471 23.9025 
46 1 11.6782 8.82486 25.1185 
50 1 10.9342 10.0969 25.1423 
55 1 9.57019 10.3023 13.0426 
59 1 10.9364 10.0956 12.9395 
74 1 11.6828 8.82604 12.9673 
78 1 11.2576 7.50613 12.9498 
90 1 9.9177 7.70014 13.0325 
94 1 9.17694 8.95843 12.9598 
101 1 5.08818 8.26117 24.5485 
117 1 5.09031 7.01992 14.1724 
116 1 4.56672 6.98205 22.6181 
43 1 4.57689 6.97496 15.46 
3 1 19.6468 6.81934 12.1587 
65 1 19.6207 6.82664 0.171215 
41 1 17.8314 6.23763 13.5201 
68 1 17.8219 6.24741 24.5575 
103 1 19.1521 6.11154 22.5701 
126 1 19.1554 6.11213 15.5199 
5 1 18.9124 5.71293 14.1979 
107 1 18.9084 5.71837 23.8878 
113 1 12.5571 7.65392 10.9362 
7 1 20.021 8.16735 12.2443 
10 1 15.1502 8.44327 12.8374 
22 1 19.2902 9.43197 12.2018 
26 1 17.9275 9.66299 12.3051 
38 1 17.5354 8.29891 12.2287 
42 1 18.2804 7.00973 12.2677 
44 1 20.2029 11.8196 12.7965 
48 1 12.5522 7.65035 1.40276 
102 1 20.0151 8.16819 0.0879052 
69 1 18.2524 7.03508 0.0592541 
82 1 17.5122 8.31056 0.0856492 
86 1 17.9366 9.62916 0.0853906 
96 1 14.046 8.72371 12.3973 
98 1 19.2773 9.4305 0.166664 
1 1 17.855 9.53528 16.2543 
2 1 18.7217 8.27162 16.9837 
8 1 18.8493 10.3173 15.518 
9 1 18.7396 8.25996 18.4376 
20 1 14.0536 8.70982 25.703 
21 1 18.2467 7.01752 16.2157 
23 1 19.8373 10.5145 13.2473 
24 1 20.5947 9.49429 14.1375 
25 1 17.5415 10.4234 13.4766 
27 1 17.0866 7.50182 15.5068 
37 1 19.9793 8.20234 16.135 
39 1 16.4942 8.16252 13.3058 
40 1 16.4437 9.83106 14.377 
63 1 17.8597 9.53086 21.8337 
64 1 18.6976 8.31111 21.1125 
70 1 16.9189 9.04095 22.4463 
71 1 18.7295 8.27374 19.6574 
72 1 20.2109 11.8284 25.2597 
81 1 19.9666 8.21082 21.9526 
83 1 16.4974 8.26692 24.6606 
84 1 16.8595 7.02052 23.8567 
85 1 17.502 10.45 24.503 
87 1 20.0325 9.48214 22.6702 
97 1 18.2362 7.01815 21.8666 
99 1 19.8423 10.5515 24.8169 
100 1 18.4489 10.8636 23.8505 
104 1 15.1388 8.44103 25.2417 
108 1 18.8361 10.3094 22.5648 
111 1 20.5868 9.49235 23.9425 
112 1 17.088 7.47071 22.5696 
115 1 16.6631 9.49451 23.8018 
118 1 16.9465 8.98382 15.6777 
121 1 16.8593 7.03125 14.1955 
122 1 20.0374 9.47723 15.4228 
125 1 18.6001 10.8267 14.2296 
129 2 15.4456 10.6436 14.5523 
ITEM: TIMESTEP
60
ITEM: NUMBER OF ATOMS
129
ITEM: BOX BOUNDS xy xz yz pp pp pp
0.0000000000000000e+00 2.3654499999999999e+01 7.8845000000000001e+00
0.0000000000000000e+00 1.3658086643083999e+01 0.0000000000000000e+00
0.0000000000000000e+00 2.5747000000000000e+01 0.0000000000000000e+00
ITEM: ATOMS id type x y z 
18 1 10.3322 6.80814 2.66933 
77 1 11.6939 6.70727 11.6106 
31 1 9.35469 6.57728 0.400756 
62 1 8.95766 5.31071 12.3837 
91 1 9.35596 6.57813 11.9348 
92 1 10.7437 6.2786 10.973 
106 1 10.3334 6.80823 9.666 
127 1 10.7402 6.27448 1.36345 
33 1 11.689 6.70104 0.722631 
4 1 4.43059 5.88867 13.2807 
88 1 5.10012 4.65876 25.1694 
66 1 4.41998 5.89948 24.8031 
52 1 8.95907 5.31001 25.6969 
28 1 5.10319 4.64803 12.9132 
11 1 11.2285 7.57648 3.41487 
12 1 10.5014 8.78131 4.06993 
14 1 9.00492 11.2354 0.406203 
15 1 10.2867 11.4064 1.31499 
16 1 8.33152 8.86714 0.656878 
19 1 10.4689 8.8563 5.56611 
29 1 10.9456 10.0902 3.32269 
32 1 8.60103 7.63866 1.26894 
35 1 12.1239 9.64725 2.64289 
45 1 9.20019 8.92744 3.25294 
47 1 12.6986 8.88936 0.531003 
49 1 11.3796 10.8794 0.645455 
51 1 8.8485 10.1541 2.59194 
53 1 11.2327 7.57877 8.92589 
54 1 10.5033 8.78121 8.26778 
56 1 9.0073 11.2342 11.9255 
57 1 8.33637 10.1034 11.0348 
58 1 11.3853 10.8791 11.6881 
60 1 12.3099 8.14483 9.64053 