ITEM: TIMESTEP
0
ITEM: NUMBER OF ATOMS
67
ITEM: BOX BOUNDS pp pp pp
0.0000000000000000e+00 1.4190000000000000e+01
0.0000000000000000e+00 1.4190000000000000e+01
0.0000000000000000e+00 1.4190000000000000e+01
ITEM: ATOMS id type x y z 
57 1 2.098 0.759 2.098 
58 1 2.801 0.056 2.801 
59 1 0.759 0.759 0.759 
60 1 0.056 0.056 0.056 
61 1 0.759 2.098 2.098 
62 1 0.056 2.801 2.801 
63 1 2.098 2.098 0.759 
64 1 2.801 2.801 0.056 
41 1 4.307 4.307 12.741 
42 1 3.604 3.604 13.443 
43 1 4.307 5.646 11.401 
44 1 3.604 6.348 10.699 
45 1 5.646 5.646 12.741 
46 1 6.348 6.348 13.443 
47 1 5.646 4.307 11.401 
48 1 6.348 3.604 10.699 
25 1 4.307 12.741 4.307 
26 1 3.604 13.443 3.604 
27 1 5.646 11.401 4.307 
28 1 6.348 10.699 3.604 
29 1 5.646 12.741 5.646 
30 1 6.348 13.443 6.348 
31 1 4.307 11.401 5.646 
32 1 3.604 10.699 6.348 
65 2 3.6 13.226 5.363 
66 2 3.119 13.132 6.782 
67 3 2.264 13.602 6.712 
1 1 0.759 9.193 9.193 
2 1 0.056 9.896 9.896 
3 1 2.098 7.854 9.193 
4 1 2.801 7.151 9.896 
5 1 0.759 7.854 7.854 
6 1 0.056 7.151 7.151 
7 1 2.098 9.193 7.854 
8 1 2.801 9.896 7.151 
33 1 12.741 4.307 4.307 
34 1 13.443 3.604 3.604 
35 1 11.401 4.307 5.646 
36 1 10.699 3.604 6.348 
37 1 12.741 5.646 5.646 
38 1 13.443 6.348 6.348 
39 1 11.401 5.646 4.307 
40 1 10.699 6.348 3.604 
9 1 9.193 0.759 9.193 
10 1 9.896 0.056 9.896 
11 1 9.193 2.098 7.854 
12 1 9.896 2.801 7.151 
13 1 7.854 0.759 7.854 
14 1 7.151 0.056 7.151 
15 1 7.854 2.098 9.193 
16 1 7.151 2.801 9.896 
17 1 9.193 9.193 0.759 
18 1 9.896 9.896 0.056 
19 1 7.854 9.193 2.098 
20 1 7.151 9.896 2.801 
21 1 7.854 7.854 0.759 
22 1 7.151 7.151 0.056 
23 1 9.193 7.854 2.098 
24 1 9.896 7.151 2.801 
49 1 12.741 12.741 12.741 
50 1 13.443 13.443 13.443 
51 1 12.74 11.401 11.401 
52 1 13.443 10.699 10.699 
53 1 11.401 11.401 12.741 
54 1 10.699 10.699 13.443 
55 1 11.401 12.74 11.401 
56 1 10.699 13.443 10.699 
ITEM: TIMESTEP
10
ITEM: NUMBER OF ATOMS
67
ITEM: BOX BOUNDS pp pp pp
0.0000000000000000e+00 1.4190000000000000e+01
0.0000000000000000e+00 1.4190000000000000e+01
0.0000000000000000e+00 1.4190000000000000e+01
ITEM: ATOMS id type x y z 
57 1 2.04896 0.805549 2.05621 
58 1 2.80125 0.0584465 2.78019 
59 1 0.787581 0.782336 0.78769 
60 1 0.0694131 0.0680145 0.0684177 
61 1 0.788976 2.06935 2.07407 
62 1 0.0676913 2.78798 2.78932 
63 1 2.07395 2.06946 0.78873 
64 1 2.78899 2.78776 0.0678005 
41 1 4.33032 4.33149 12.7173 
42 1 3.61579 3.61468 13.432 
43 1 4.33236 5.62032 11.4227 
44 1 3.61412 6.33825 10.7139 
45 1 5.62235 5.62266 12.7145 
46 1 6.33529 6.33502 13.4339 
47 1 5.61988 4.33272 11.423 
48 1 6.33861 3.61355 10.7134 
25 1 4.29658 12.7472 4.34068 
26 1 3.55735 13.5001 3.51704 
27 1 5.63568 11.4063 4.34648 
28 1 6.34449 10.7077 3.61968 
29 1 5.6453 12.6984 5.64209 
30 1 6.34364 13.4338 6.34358 
31 1 4.3472 11.3999 5.63932 
32 1 3.61593 10.7034 6.34943 
65 2 3.61621 13.1983 5.38934 
66 2 3.09977 13.1422 6.78292 
67 3 2.29063 13.5916 6.7075 
1 1 0.779641 9.16801 9.16947 
2 1 0.0683926 9.88472 9.88532 
3 1 2.07406 7.87614 9.16894 
4 1 2.78999 7.1633 9.8854 
5 1 0.7792 7.87729 7.87889 
6 1 0.0689134 7.16122 7.16168 
7 1 2.07116 9.16737 7.87697 
8 1 2.788 9.88387 7.16549 
33 1 12.7173 4.33153 4.33045 
34 1 13.432 3.61477 3.61577 
35 1 11.4231 4.33276 5.61984 
36 1 10.7134 3.6135 6.33865 
37 1 12.7149 5.62287 5.62284 
38 1 13.4334 6.33475 6.3346 
39 1 11.4229 5.62013 4.33256 
40 1 10.7137 6.33846 3.61392 
9 1 9.16966 0.781516 9.16964 
10 1 9.88517 0.0683198 9.88516 
11 1 9.16876 2.07562 7.87793 
12 1 9.88575 2.79061 7.1634 
13 1 7.88094 0.782853 7.88097 
14 1 7.16074 0.0720564 7.16103 
15 1 7.87792 2.07563 9.16878 
16 1 7.16342 2.79059 9.88573 
17 1 9.16989 9.16792 0.77947 
18 1 9.88546 9.88534 0.0690661 
19 1 7.87661 9.16787 2.07167 
20 1 7.1644 9.88499 2.78926 
21 1 7.87921 7.87738 0.779408 
22 1 7.16129 7.16099 0.0686168 
23 1 9.169 7.87601 2.07391 
24 1 9.88549 7.16318 2.79005 
49 1 12.717 12.7169 12.7164 
50 1 13.4311 13.4319 13.4321 
51 1 12.7137 11.4241 11.4242 
52 1 13.4337 10.7124 10.7123 
53 1 11.4248 11.425 12.7154 
54 1 10.7113 10.7111 13.4321 
55 1 11.4244 12.7134 11.4245 
56 1 10.712 13.434 10.712 
ITEM: TIMESTEP
20
ITEM: NUMBER OF ATOMS
67
ITEM: BOX BOUNDS pp pp pp
0.0000000000000000e+00 1.4190000000000000e+01
0.0000000000000000e+00 1.4190000000000000e+01
0.0000000000000000e+00 1.4190000000000000e+01
ITEM: ATOMS id type x y z 
57 1 2.00673 0.848263 2.00852 
58 1 2.77775 0.0833135 2.75498 
59 1 0.78907 0.771457 0.790882 
60 1 0.0701657 0.0580871 0.0673276 
61 1 0.790017 2.06683 2.08623 
62 1 0.0688603 2.78881 2.79938 
63 1 2.08444 2.06693 0.789092 
64 1 2.80055 2.78824 0.0698062 
41 1 4.3262 4.33107 12.7165 
42 1 3.6143 3.61208 13.4352 
43 1 4.32773 5.62374 11.4265 
44 1 3.61466 6.33717 10.707 
45 1 5.61917 5.62087 12.722 
46 1 6.34046 6.33833 13.4307 
47 1 5.62259 4.32704 11.4266 
48 1 6.3381 3.61515 10.7075 
25 1 4.28743 12.7538 4.39642 
26 1 3.5431 13.5138 3.49733 
27 1 5.63971 11.4067 4.35396 
28 1 6.34581 10.7004 3.63124 
29 1 5.64736 12.6956 5.64008 
30 1 6.35352 13.4215 6.35005 
31 1 4.35544 11.3965 5.64204 
32 1 3.62622 10.688 6.35244 
65 2 3.63984 13.1774 5.35735 
66 2 3.09629 13.1419 6.79237 
67 3 2.29775 13.5913 6.70234 
1 1 0.781861 9.17213 9.17439 
2 1 0.0603604 9.88379 9.88521 
3 1 2.07484 7.87585 9.17624 
4 1 2.79161 7.15874 9.8835 
5 1 0.781662 7.87284 7.87419 
6 1 0.0618116 7.16069 7.1633 
7 1 2.0653 9.17218 7.87676 
8 1 2.79065 9.88075 7.16752 
33 1 12.717 4.33127 4.32674 
34 1 13.4348 3.61186 3.61461 
35 1 11.4268 4.32692 5.6227 
36 1 10.7076 3.61515 6.33808 
37 1 12.7224 5.62036 5.61937 
38 1 13.4305 6.33907 6.33991 
39 1 11.4268 5.62366 4.32798 
40 1 10.7067 6.33727 3.61434 
9 1 9.17515 0.784684 9.17509 
10 1 9.88431 0.0607998 9.88431 
11 1 9.1765 2.07705 7.87817 
12 1 9.88319 2.79396 7.15963 
13 1 7.87569 0.790406 7.87742 
14 1 7.16498 0.0663491 7.16452 
15 1 7.87827 2.07692 9.17636 
16 1 7.15952 2.79413 9.88332 
17 1 9.17346 9.17005 0.778282 
18 1 9.88648 9.88392 0.0622066 
19 1 7.87356 9.17446 2.06909 
20 1 7.16357 9.88335 2.79388 
21 1 7.87475 7.8717 0.78061 
22 1 7.16315 7.16164 0.0624525 
23 1 9.17696 7.87499 2.07477 
24 1 9.88332 7.15896 2.79098 
49 1 12.7149 12.7206 12.7159 
50 1 13.4364 13.4328 13.4356 
51 1 12.7205 11.4263 11.4255 
52 1 13.4322 10.7082 10.7089 
53 1 11.4244 11.4241 12.7169 
54 1 10.7104 10.7118 13.4379 
55 1 11.4261 12.7204 11.4261 
56 1 10.7084 13.4326 10.7084 
ITEM: TIMESTEP
30
ITEM: NUMBER OF ATOMS
67
ITEM: BOX BOUNDS pp pp pp
0.0000000000000000e+00 1.4190000000000000e+01
0.0000000000000000e+00 1.4190000000000000e+01
0.0000000000000000e+00 1.4190000000000000e+01
ITEM: ATOMS id type x y z 
57 1 1.98866 0.866416 1.98899 
58 1 2.77581 0.0855692 2.75135 
59 1 0.790896 0.765312 0.790887 
60 1 0.0667849 0.0534601 0.0663553 
61 1 0.790599 2.0665 2.09181 
62 1 0.0667731 2.79015 2.80451 
63 1 2.09093 2.06641 0.790286 
64 1 2.80429 2.79 0.0670086 
41 1 4.32648 4.33179 12.7162 
42 1 3.61648 3.61363 13.4335 
43 1 4.32844 5.62158 11.4248 
44 1 3.61329 6.3373 10.7098 
45 1 5.62043 5.62119 12.7201 
46 1 6.33736 6.33666 13.433 
47 1 5.62109 4.32809 11.425 
48 1 6.33723 3.61396 10.7101 
25 1 4.27954 12.7612 4.40883 
26 1 3.54384 13.5137 3.49641 
27 1 5.64069 11.4045 4.35818 
28 1 6.34653 10.7005 3.63335 
29 1 5.64934 12.694 5.6399 
30 1 6.35499 13.4211 6.34976 
31 1 4.35783 11.3928 5.64191 
32 1 3.62759 10.687 6.35332 
65 2 3.64828 13.1698 5.34843 
66 2 3.09576 13.1412 6.79684 
67 3 2.29878 13.592 6.70075 
1 1 0.778707 9.17013 9.17251 
2 1 0.0647044 9.88616 9.88752 
3 1 2.07544 7.87466 9.17287 
4 1 2.79058 7.16045 9.88701 
5 1 0.778822 7.87442 7.87672 
6 1 0.0649092 7.15956 7.16086 
7 1 2.06311 9.17249 7.87797 
8 1 2.7916 9.8781 7.16771 
33 1 12.7161 4.332 4.32653 
34 1 13.4337 3.61364 3.61703 
35 1 11.4252 4.328 5.62128 
36 1 10.7102 3.61369 6.33722 
37 1 12.72 5.62101 5.62077 
38 1 13.4333 6.33659 6.33729 
39 1 11.4248 5.62189 4.32867 
40 1 10.7099 6.33724 3.61304 
9 1 9.17266 0.780779 9.17239 
10 1 9.88695 0.0662661 9.88733 
11 1 9.17281 2.07823 7.87722 
12 1 9.88738 2.79249 7.16133 
13 1 7.87514 0.792099 7.87779 
14 1 7.1672 0.0652544 7.16623 
15 1 7.87722 2.07826 9.17268 
16 1 7.16122 2.79239 9.88756 
17 1 9.17308 9.16896 0.777537 
18 1 9.88773 9.88572 0.0648239 
19 1 7.8726 9.17483 2.06847 
20 1 7.16378 9.88356 2.79513 
21 1 7.87741 7.8736 0.778318 
22 1 7.16158 7.15924 0.06443 
23 1 9.17357 7.87412 2.07491 
24 1 9.88714 7.15983 2.78991 
49 1 12.7156 12.7206 12.7154 
50 1 13.4335 13.4308 13.433 
51 1 12.719 11.4261 11.4253 
52 1 13.4329 10.7096 10.7104 
53 1 11.4256 11.4262 12.7195 
54 1 10.7105 10.71 13.4335 
55 1 11.4255 12.7184 11.4254 
56 1 10.7102 13.4338 10.71 
ITEM: TIMESTEP
40
ITEM: NUMBER OF ATOMS
67
ITEM: BOX BOUNDS pp pp pp
0.0000000000000000e+00 1.4190000000000000e+01
0.0000000000000000e+00 1.4190000000000000e+01
0.0000000000000000e+00 1.4190000000000000e+01
ITEM: ATOMS id type x y z 
57 1 1.92808 0.927292 1.9203 
58 1 2.75091 0.11264 2.71465 
59 1 0.7847 0.73617 0.785031 
60 1 0.0629815 0.023245 0.0614141 
61 1 0.786865 2.0698 2.12809 
62 1 0.0606104 2.79729 2.82658 
63 1 2.12483 2.07019 0.786143 
64 1 2.82848 2.79669 0.0607738 
41 1 4.33222 4.34223 12.7053 
42 1 3.62589 3.6177 13.4288 
43 1 4.32635 5.61941 11.4257 
44 1 3.60548 6.33298 10.7121 
45 1 5.61487 5.61694 12.7277 
46 1 6.33817 6.33553 13.433 
47 1 5.61804 4.3243 11.4286 
48 1 6.33713 3.61362 10.7113 
25 1 4.25034 12.7943 4.45173 
26 1 3.5398 13.5217 3.48622 
27 1 5.64719 11.395 4.38377 
28 1 6.34925 10.6978 3.64811 
29 1 5.659 12.6845 5.63414 
30 1 6.35758 13.4172 6.35271 
31 1 4.37131 11.376 5.63963 
32 1 3.63523 10.6788 6.35373 
65 2 3.68136 13.1363 5.32757 
66 2 3.09313 13.1376 6.82023 
67 3 2.30283 13.5958 6.69354 
1 1 0.778978 9.17186 9.17209 
2 1 0.0635419 9.8833 9.89023 
3 1 2.07578 7.874 9.17019 
4 1 2.78956 7.16292 9.88986 
5 1 0.777824 7.87458 7.87777 
6 1 0.0652457 7.15893 7.16014 
7 1 2.05898 9.17007 7.88273 
8 1 2.79037 9.87397 7.17091 
33 1 12.7067 4.34183 4.33384 
34 1 13.4285 3.61819 3.62575 
35 1 11.4279 4.32497 5.6187 
36 1 10.7129 3.60995 6.33584 
37 1 12.7239 5.61764 5.61776 
38 1 13.4367 6.33394 6.33651 
39 1 11.4266 5.61971 4.32487 
40 1 10.7118 6.33588 3.60847 
9 1 9.17302 0.782135 9.17101 
10 1 9.88636 0.0673514 9.88691 
11 1 9.17076 2.07994 7.87815 
12 1 9.88976 2.79025 7.16109 
13 1 7.87339 0.794701 7.88523 
14 1 7.1778 0.0654853 7.16279 
15 1 7.88025 2.08162 9.17148 
16 1 7.15593 2.78648 9.88929 
17 1 9.17499 9.16668 0.777283 
18 1 9.88818 9.88307 0.0628778 
19 1 7.86803 9.17813 2.06799 
20 1 7.16411 9.88502 2.79847 
21 1 7.87843 7.8714 0.780283 
22 1 7.16604 7.15952 0.0595354 
23 1 9.17376 7.87396 2.07148 
24 1 9.88803 7.15852 2.78652 
49 1 12.7033 12.7187 12.7024 
50 1 13.4308 13.4183 13.4308 
51 1 12.7244 11.4296 11.4298 
52 1 13.4344 10.7126 10.7098 
53 1 11.4296 11.4302 12.7259 
54 1 10.7117 10.7101 13.4342 
55 1 11.4309 12.725 11.4269 
56 1 10.7083 13.4355 10.7123 
ITEM: TIMESTEP
50
ITEM: NUMBER OF ATOMS
67
ITEM: BOX BOUNDS pp pp pp
0.0000000000000000e+00 1.4190000000000000e+01
0.0000000000000000e+00 1.4190000000000000e+01
0.0000000000000000e+00 1.4190000000000000e+01
ITEM: ATOMS id type x y z 
57 1 1.92707 0.928304 1.9174 
58 1 2.75055 0.113257 2.71327 
59 1 0.783812 0.727792 0.783766 
60 1 0.060154 0.0240949 0.0594178 
61 1 0.783699 2.07296 2.13058 
62 1 0.0602955 2.797 2.83238 
63 1 2.12927 2.07284 0.783578 
64 1 2.83205 2.79726 0.0594627 
41 1 4.33311 4.34408 12.7031 
42 1 3.62886 3.61901 13.4282 
43 1 4.32262 5.61871 11.4269 
44 1 3.60846 6.33588 10.7107 
45 1 5.61696 5.6182 12.7263 
46 1 6.33682 6.33467 13.4363 
47 1 5.61843 4.32347 11.4282 
48 1 6.33504 3.60999 10.7119 
25 1 4.25061 12.797 4.44658 
26 1 3.54038 13.522 3.48774 
27 1 5.64737 11.3961 4.38635 
28 1 6.34883 10.6967 3.65191 
29 1 5.65703 12.6857 5.63264 
30 1 6.36151 13.4155 6.34665 
31 1 4.37114 11.378 5.63799 
32 1 3.63636 10.6771 6.3514 
65 2 3.68132 13.1339 5.33462 
66 2 3.0926 13.1371 6.82364 
67 3 2.3033 13.5963 6.69277 
1 1 0.777509 9.16982 9.17238 
2 1 0.0650037 9.88682 9.88871 
3 1 2.07522 7.87534 9.17202 
4 1 2.78802 7.15961 9.88758 
5 1 0.777524 7.87448 7.87782 
6 1 0.06571 7.15856 7.16051 
7 1 2.05843 9.17191 7.88333 
8 1 2.79227 9.87187 7.17093 
33 1 12.7038 4.34434 4.33344 
34 1 13.4288 3.61883 3.62958 
35 1 11.4286 4.32264 5.61905 
36 1 10.7121 3.61 6.33625 
37 1 12.7252 5.61764 5.61851 
38 1 13.4374 6.33445 6.3361 
39 1 11.4265 5.6202 4.32332 
40 1 10.7108 6.33604 3.60784 
9 1 9.17188 0.781442 9.17082 
10 1 9.88644 0.067995 9.88733 
11 1 9.17218 2.07898 7.87822 
12 1 9.88818 2.7913 7.16117 
13 1 7.87588 0.794197 7.88232 
14 1 7.1719 0.0649958 7.16901 
15 1 7.87793 2.07949 9.17195 
16 1 7.16005 2.79101 9.88834 
17 1 9.17405 9.16508 0.775512 
18 1 9.88936 9.88354 0.0646004 
19 1 7.86742 9.18061 2.06666 
20 1 7.16376 9.8832 2.80113 
21 1 7.88117 7.87228 0.776956 
22 1 7.16435 7.15836 0.0629977 
23 1 9.174 7.87351 2.07084 
24 1 9.88815 7.15897 2.78516 
49 1 12.7029 12.7148 12.7021 
50 1 13.4286 13.4178 13.4279 
51 1 12.7241 11.4293 11.4285 
52 1 13.4365 10.7114 10.7122 
53 1 11.4285 11.4293 12.7255 
54 1 10.7126 10.7103 13.4367 
55 1 11.4287 12.7251 11.4273 
56 1 10.711 13.4385 10.7108 
ITEM: TIMESTEP
60
ITEM: NUMBER OF ATOMS
67
ITEM: BOX BOUNDS pp pp pp
0.0000000000000000e+00 1.4190000000000000e+01
0.0000000000000000e+00 1.4190000000000000e+01
0.0000000000000000e+00 1.4190000000000000e+01
ITEM: ATOMS id type x y z 
57 1 1.92727 0.92812 1.91708 
58 1 2.75055 0.113355 2.71305 
59 1 0.783837 0.726213 0.783604 
60 1 0.0595599 0.0240149 0.0590933 
61 1 0.78342 2.0733 2.13152 
62 1 0.0601869 2.79701 2.8331 
63 1 2.13026 2.07325 0.783264 
64 1 2.83268 2.79743 0.0592671 
41 1 4.33343 4.34468 12.7025 
42 1 3.62967 3.61914 13.4279 
43 1 4.3222 5.6189 11.4269 
44 1 3.60819 6.33594 10.7105 
45 1 5.61756 5.61864 12.7259 
46 1 6.33674 6.33465 13.4369 
47 1 5.61814 4.32267 11.4281 
48 1 6.33563 3.61025 10.7117 
25 1 4.25096 12.7975 4.44461 
26 1 3.54025 13.5224 3.488 
27 1 5.64729 11.3965 4.38669 
28 1 6.34896 10.6961 3.65322 
29 1 5.65676 12.686 5.6319 
30 1 6.36121 13.4154 6.34634 
31 1 4.3711 11.378 5.63743 
32 1 3.63644 10.6772 6.35097 
65 2 3.68098 13.1335 5.33706 
66 2 3.09244 13.137 6.82453 
67 3 2.30343 13.5964 6.69261 
1 1 0.777413 9.16965 9.17238 
2 1 0.0651796 9.887 9.88875 
3 1 2.0751 7.87544 9.17207 
4 1 2.78795 7.15954 9.88748 
5 1 0.777506 7.87464 7.87778 
6 1 0.0658216 7.1583 7.16069 
7 1 2.05884 9.17197 7.88334 
8 1 2.79237 9.87193 7.17079 
33 1 12.7033 4.34479 4.33383 
34 1 13.4285 3.61911 3.63018 
35 1 11.4284 4.32222 5.61918 
36 1 10.7119 3.60994 6.33654 
37 1 12.7255 5.61781 5.61867 
38 1 13.4376 6.33459 6.33622 
39 1 11.4262 5.62039 4.32294 
40 1 10.7107 6.33624 3.60749 
9 1 9.17111 0.7811 9.17106 
10 1 9.88734 0.0686178 9.88696 
11 1 9.17213 2.07904 7.87822 
12 1 9.88828 2.79105 7.16117 
13 1 7.87577 0.793738 7.88243 
14 1 7.17188 0.0649133 7.1686 
15 1 7.8776 2.07906 9.172 
16 1 7.16029 2.79134 9.88825 
17 1 9.17401 9.16482 0.775488 
18 1 9.88942 9.88347 0.0646917 
19 1 7.8671 9.18117 2.06643 
20 1 7.16373 9.88309 2.80162 
21 1 7.88205 7.87275 0.775828 
22 1 7.16364 7.15771 0.06452 
23 1 9.17399 7.87348 2.07055 
24 1 9.88812 7.15902 2.78489 
49 1 12.7028 12.7139 12.7017 
50 1 13.4281 13.4176 13.4274 
51 1 12.7244 11.4291 11.4285 
52 1 13.4367 10.7115 10.712 
53 1 11.4283 11.4292 12.7258 
54 1 10.7125 10.7102 13.437 
55 1 11.4281 12.7253 11.4273 
56 1 10.7112 13.4388 10.7105 
ITEM: TIMESTEP
70
ITEM: NUMBER OF ATOMS
67
ITEM: BOX BOUNDS pp pp pp
0.0000000000000000e+00 1.4190000000000000e+01
0.0000000000000000e+00 1.4190000000000000e+01
0.0000000000000000e+00 1.4190000000000000e+01
ITEM: ATOMS id type x y z 
57 1 1.92727 0.928117 1.91707 
58 1 2.75055 0.113361 2.71305 
59 1 0.78382 0.726201 0.783588 
60 1 0.0595576 0.0239842 0.0591033 
61 1 0.783411 2.07332 2.13152 
62 1 0.0601767 2.79698 2.83314 
63 1 2.13029 2.07325 0.783244 
64 1 2.83271 2.79744 0.0592865 
41 1 4.33343 4.34469 12.7025 
42 1 3.62969 3.61913 13.4279 
43 1 4.32218 5.61892 11.4269 
44 1 3.60818 6.33591 10.7105 
45 1 5.61757 5.61866 12.7259 
46 1 6.33675 6.33463 13.4369 
47 1 5.61816 4.32267 11.4281 
48 1 6.33561 3.61023 10.7117 
25 1 4.25097 12.7975 4.44456 
26 1 3.54025 13.5224 3.48801 
27 1 5.64728 11.3964 4.38673 
28 1 6.34899 10.6961 3.65323 
29 1 5.65675 12.686 5.63189 
30 1 6.36119 13.4154 6.34633 
31 1 4.37108 11.378 5.63741 
32 1 3.63646 10.6772 6.35096 
65 2 3.68097 13.1335 5.33712 
66 2 3.09243 13.137 6.82456 
67 3 2.30343 13.5964 6.6926 
1 1 0.777397 9.16963 9.17239 
2 1 0.0652076 9.88703 9.88874 
3 1 2.07508 7.87544 9.17209 
4 1 2.78799 7.15956 9.88746 
5 1 0.77749 7.87465 7.87779 
6 1 0.0658418 7.15828 7.1607 
7 1 2.05883 9.172 7.88333 
8 1 2.79241 9.87191 7.17079 
33 1 12.7033 4.3448 4.33382 
34 1 13.4285 3.61913 3.63022 
35 1 11.4284 4.32224 5.61918 
36 1 10.7119 3.6099 6.33654 
37 1 12.7255 5.61781 5.61869 
38 1 13.4376 6.33461 6.3362 
39 1 11.4262 5.62041 4.32295 
40 1 10.7107 6.33621 3.60746 
9 1 9.17113 0.781126 9.17106 
10 1 9.88732 0.0685953 9.88695 
11 1 9.17212 2.07904 7.87822 
12 1 9.88829 2.79105 7.16118 
13 1 7.87575 0.793727 7.88244 
14 1 7.17191 0.0649027 7.16857 
15 1 7.87761 2.07906 9.172 
16 1 7.16029 2.79134 9.88826 
17 1 9.17399 9.16483 0.775485 
18 1 9.88945 9.88344 0.0646902 
19 1 7.86709 9.18117 2.06643 
20 1 7.16372 9.88309 2.80163 
21 1 7.88207 7.87277 0.775795 
22 1 7.16361 7.1577 0.0645617 
23 1 9.17397 7.87347 2.07055 
24 1 9.88815 7.15904 2.78486 
49 1 12.7027 12.7139 12.7017 
50 1 13.4281 13.4175 13.4274 
51 1 12.7244 11.429 11.4285 
52 1 13.4367 10.7115 10.712 
53 1 11.4283 11.4292 12.7258 
54 1 10.7125 10.7102 13.437 
55 1 11.4281 12.7253 11.4273 
56 1 10.7111 13.4388 10.7105 
ITEM: TIMESTEP
80
ITEM: NUMBER OF ATOMS
67
ITEM: BOX BOUNDS pp pp pp
0.0000000000000000e+00 1.4190000000000000e+01
0.0000000000000000e+00 1.4190000000000000e+01
0.0000000000000000e+00 1.4190000000000000e+01
ITEM: ATOMS id type x y z 
57 1 1.92728 0.928112 1.91703 
58 1 2.75054 0.113377 2.71302 
59 1 0.783768 0.726162 0.783555 
60 1 0.0595653 0.0239092 0.0591053 
61 1 0.783391 2.07334 2.13159 
62 1 0.0601746 2.79698 2.83319 
63 1 2.13037 2.07327 0.783226 
64 1 2.83276 2.79746 0.0592831 
41 1 4.33347 4.34473 12.7025 
42 1 3.62973 3.61915 13.4278 
43 1 4.32215 5.61893 11.4269 
44 1 3.60816 6.33591 10.7104 
45 1 5.61761 5.61873 12.7258 
46 1 6.33674 6.33458 13.437 
47 1 5.61817 4.32264 11.4281 
48 1 6.33562 3.61022 10.7117 
25 1 4.25099 12.7976 4.44442 
26 1 3.54024 13.5224 3.48803 
27 1 5.64727 11.3964 4.38679 
28 1 6.34899 10.6961 3.65329 
29 1 5.65673 12.686 5.63183 
30 1 6.36118 13.4154 6.34629 
31 1 4.37107 11.3781 5.63737 
32 1 3.63646 10.6772 6.35092 
65 2 3.68095 13.1335 5.3373 
66 2 3.09242 13.137 6.82463 
67 3 2.30344 13.5964 6.69259 
1 1 0.777396 9.16963 9.17239 
2 1 0.0652128 9.88703 9.88873 
3 1 2.07507 7.87545 9.1721 
4 1 2.78797 7.15955 9.88745 
5 1 0.777491 7.87465 7.87779 
6 1 0.0658513 7.15828 7.1607 
7 1 2.05885 9.17201 7.88333 
8 1 2.79244 9.8719 7.17078 
33 1 12.7033 4.34484 4.33384 
34 1 13.4285 3.61915 3.63028 
35 1 11.4284 4.32221 5.6192 
36 1 10.7119 3.60988 6.33656 
37 1 12.7255 5.61782 5.6187 
38 1 13.4376 6.33462 6.33622 
39 1 11.4262 5.62045 4.32295 
40 1 10.7107 6.3362 3.60739 
9 1 9.17115 0.781151 9.17106 
10 1 9.88729 0.068574 9.88694 
11 1 9.17211 2.07904 7.87822 
12 1 9.88829 2.79104 7.16118 
13 1 7.87575 0.793689 7.88244 
14 1 7.17189 0.0648942 7.16856 
15 1 7.8776 2.07906 9.17199 
16 1 7.1603 2.79133 9.88826 
17 1 9.174 9.1648 0.775493 
18 1 9.88943 9.88344 0.0646853 
19 1 7.86707 9.18119 2.06644 
20 1 7.16372 9.8831 2.80165 
21 1 7.88213 7.87281 0.775706 
22 1 7.16358 7.15766 0.064659 
23 1 9.17395 7.87349 2.07056 
24 1 9.88817 7.15903 2.78481 
49 1 12.7026 12.7139 12.7017 
50 1 13.4281 13.4174 13.4274 
51 1 12.7244 11.429 11.4285 
52 1 13.4368 10.7115 10.712 
53 1 11.4283 11.4292 12.7258 
54 1 10.7125 10.7102 13.437 
55 1 11.4281 12.7253 11.4273 
56 1 10.7111 13.4388 10.7105 
ITEM: TIMESTEP
90
ITEM: NUMBER OF ATOMS
67
ITEM: BOX BOUNDS pp pp pp
0.0000000000000000e+00 1.4190000000000000e+01
0.0000000000000000e+00 1.4190000000000000e+01
0.0000000000000000e+00 1.4190000000000000e+01
ITEM: ATOMS id type x y z 
57 1 1.92728 0.928111 1.91703 
58 1 2.75054 0.11338 2.71302 
59 1 0.783771 0.726137 0.783555 
60 1 0.059561 0.023907 0.0590998 
61 1 0.783389 2.07334 2.13161 
62 1 0.0601742 2.79699 2.8332 
63 1 2.13038 2.07327 0.783229 
64 1 2.83277 2.79746 0.0592726 
41 1 4.33348 4.34474 12.7025 
42 1 3.62974 3.61916 13.4278 
43 1 4.32214 5.61894 11.4269 
44 1 3.60816 6.33592 10.7104 
45 1 5.61762 5.61874 12.7258 
46 1 6.33674 6.33458 13.437 
47 1 5.61817 4.32263 11.4281 
48 1 6.33562 3.61022 10.7117 
25 1 4.251 12.7976 4.44439 
26 1 3.54023 13.5224 3.48803 
27 1 5.64727 11.3964 4.38681 
28 1 6.349 10.6961 3.65329 
29 1 5.65674 12.686 5.63182 
30 1 6.36117 13.4154 6.34629 
31 1 4.37107 11.3781 5.63736 
32 1 3.63646 10.6772 6.35092 
65 2 3.68094 13.1335 5.33734 
66 2 3.09242 13.137 6.82465 
67 3 2.30344 13.5964 6.69259 
1 1 0.777396 9.16963 9.17239 
2 1 0.0652135 9.88703 9.88874 
3 1 2.07507 7.87545 9.1721 
4 1 2.78797 7.15955 9.88745 
5 1 0.777497 7.87465 7.87779 
6 1 0.0658433 7.15828 7.16071 
7 1 2.05886 9.17201 7.88333 
8 1 2.79243 9.8719 7.17077 
33 1 12.7033 4.34484 4.33385 
34 1 13.4285 3.61915 3.63028 
35 1 11.4284 4.3222 5.6192 
36 1 10.7119 3.60988 6.33656 
37 1 12.7255 5.61782 5.6187 
38 1 13.4376 6.33462 6.33622 
39 1 11.4262 5.62045 4.32294 
40 1 10.7107 6.33621 3.60739 
9 1 9.17115 0.781156 9.17105 
10 1 9.88728 0.0685731 9.88695 
11 1 9.17211 2.07904 7.87822 
12 1 9.88829 2.79105 7.16118 
13 1 7.87575 0.793683 7.88244 
14 1 7.17189 0.0648903 7.16856 
15 1 7.8776 2.07906 9.172 
16 1 7.16029 2.79133 9.88826 
17 1 9.17399 9.1648 0.775488 
18 1 9.88944 9.88344 0.0646923 
19 1 7.86706 9.1812 2.06644 
20 1 7.16372 9.88309 2.80166 
21 1 7.88214 7.87282 0.77569 
22 1 7.16357 7.15764 0.0646802 
23 1 9.17395 7.87349 2.07055 
24 1 9.88816 7.15903 2.78481 
49 1 12.7026 12.7139 12.7016 
50 1 13.4281 13.4174 13.4274 
51 1 12.7244 11.429 11.4285 
52 1 13.4368 10.7115 10.712 
53 1 11.4283 11.4292 12.7258 
54 1 10.7125 10.7102 13.437 
55 1 11.4281 12.7254 11.4273 
56 1 10.7111 13.4388 10.7105 
ITEM: TIMESTEP
100
ITEM: NUMBER OF ATOMS
67
ITEM: BOX BOUNDS pp pp pp
0.0000000000000000e+00 1.4190000000000000e+01
0.0000000000000000e+00 1.4190000000000000e+01
0.0000000000000000e+00 1.4190000000000000e+01
ITEM: ATOMS id type x y z 
57 1 1.92744 0.927983 1.91403 
58 1 2.74982 0.114733 2.71102 
59 1 0.782465 0.720009 0.782384 
60 1 0.0589807 0.0198761 0.058406 
61 1 0.782867 2.0742 2.13793 
62 1 0.0596075 2.79729 2.83639 
63 1 2.13649 2.07451 0.782077 
64 1 2.83669 2.79822 0.058668 
41 1 4.33621 4.34744 12.6996 
42 1 3.63314 3.62102 13.4258 
43 1 4.31994 5.61972 11.4259 
44 1 3.60634 6.33659 10.7096 
45 1 5.61998 5.62182 12.7243 
46 1 6.33691 6.33411 13.4403 
47 1 5.61899 4.32077 11.4274 
48 1 6.33629 3.60874 10.7111 
25 1 4.25236 12.8011 4.43414 
26 1 3.53904 13.5254 3.48908 
27 1 5.64779 11.3955 4.39228 
28 1 6.34893 10.6957 3.65673 
29 1 5.65464 12.6881 5.62774 
30 1 6.36054 13.4154 6.34351 
31 1 4.37054 11.3782 5.634 
32 1 3.63699 10.6776 6.34853 
65 2 3.67961 13.1309 5.35069 
66 2 3.09135 13.1364 6.83026 
67 3 2.30426 13.5971 6.69155 
1 1 0.777465 9.16953 9.17228 
2 1 0.0655448 9.88702 9.88882 
3 1 2.07449 7.87571 9.1718 
4 1 2.78734 7.15963 9.8873 
5 1 0.777431 7.8747 7.87839 
6 1 0.0664693 7.15831 7.1607 
7 1 2.06109 9.17248 7.88322 
8 1 2.79364 9.87226 7.1699 
33 1 12.7012 4.3473 4.33696 
34 1 13.4266 3.62074 3.63309 
35 1 11.4274 4.32028 5.62025 
36 1 10.7115 3.60838 6.33774 
37 1 12.7272 5.61852 5.61998 
38 1 13.4391 6.33522 6.33697 
39 1 11.4248 5.62185 4.32066 
40 1 10.7097 6.33718 3.60537 
9 1 9.17047 0.781397 9.17079 
10 1 9.88725 0.0692109 9.88661 
11 1 9.17178 2.07886 7.87835 
12 1 9.88827 2.79058 7.16151 
13 1 7.87477 0.791274 7.88246 
14 1 7.1716 0.0635901 7.16732 
15 1 7.87772 2.07895 9.17181 
16 1 7.16019 2.79091 9.88818 
17 1 9.17396 9.16316 0.775602 
18 1 9.88947 9.88307 0.0649838 
19 1 7.86581 9.18284 2.06747 
20 1 7.16299 9.88346 2.8033 
21 1 7.88556 7.87632 0.770108 
22 1 7.16173 7.15297 0.0724177 
23 1 9.17386 7.87358 2.06864 
24 1 9.8879 7.15919 2.78324 
49 1 12.6998 12.711 12.6985 
50 1 13.4261 13.414 13.4255 
51 1 12.7261 11.4285 11.428 
52 1 13.438 10.711 10.7115 
53 1 11.4276 11.4282 12.7277 
54 1 10.7119 10.7093 13.4383 
55 1 11.427 12.7274 11.4265 
56 1 10.711 13.4409 10.7094 
ITEM: TIMESTEP
110
ITEM: NUMBER OF ATOMS
67
ITEM: BOX BOUNDS pp pp pp
0.0000000000000000e+00 1.4190000000000000e+01
0.0000000000000000e+00 1.4190000000000000e+01
0.0000000000000000e+00 1.4190000000000000e+01
ITEM: ATOMS id type x y z 
57 1 1.9272 0.92821 1.91352 
58 1 2.7497 0.114921 2.7108 
59 1 0.782489 0.719541 0.782444 
60 1 0.0589322 0.0195959 0.0584455 
61 1 0.782576 2.07419 2.13791 
62 1 0.0600069 2.79717 2.83712 
63 1 2.13691 2.07454 0.782133 
64 1 2.83704 2.79813 0.0586412 
41 1 4.33639 4.34766 12.6993 
42 1 3.63342 3.62115 13.4257 
43 1 4.31977 5.61977 11.4258 
44 1 3.60629 6.33666 10.7096 
45 1 5.6198 5.62162 12.7249 
46 1 6.33726 6.33428 13.44 
47 1 5.61903 4.32063 11.4274 
48 1 6.33633 3.60868 10.711 
25 1 4.25222 12.8016 4.43387 
26 1 3.53883 13.5257 3.48903 
27 1 5.64767 11.3953 4.39251 
28 1 6.34914 10.6956 3.65713 
29 1 5.655 12.688 5.62732 
30 1 6.35997 13.4159 6.34339 
31 1 4.3705 11.3781 5.63378 
32 1 3.63697 10.6775 6.34836 
65 2 3.67975 13.1305 5.35131 
66 2 3.09124 13.1364 6.83079 
67 3 2.30435 13.5972 6.69146 
1 1 0.777494 9.1695 9.17229 
2 1 0.0655826 9.88702 9.88874 
3 1 2.07444 7.87576 9.17175 
4 1 2.7872 7.15964 9.88729 
5 1 0.777712 7.87476 7.87817 
6 1 0.0662576 7.15828 7.16104 
7 1 2.06129 9.1726 7.88326 
8 1 2.79379 9.87221 7.16973 
33 1 12.7006 4.34751 4.33673 
34 1 13.4268 3.62083 3.63374 
35 1 11.4276 4.32014 5.62053 
36 1 10.7112 3.60834 6.33757 
37 1 12.7276 5.6186 5.61983 
38 1 13.439 6.33523 6.33722 
39 1 11.4246 5.62198 4.32054 
40 1 10.7097 6.33722 3.60521 
9 1 9.17068 0.781586 9.17056 
10 1 9.88708 0.0692346 9.8867 
11 1 9.17188 2.07877 7.87853 
12 1 9.88815 2.79054 7.16145 
13 1 7.87509 0.790758 7.8823 
14 1 7.1712 0.063706 7.16737 
15 1 7.87767 2.07888 9.17176 
16 1 7.1603 2.79088 9.88815 
17 1 9.17384 9.16331 0.775665 
18 1 9.88961 9.88266 0.0649309 
19 1 7.86545 9.18292 2.06736 
20 1 7.16321 9.88358 2.8037 
21 1 7.88548 7.87593 0.770766 
22 1 7.16196 7.15351 0.0717394 
23 1 9.1738 7.87362 2.06851 
24 1 9.88792 7.15923 2.78303 
49 1 12.6995 12.7108 12.6983 
50 1 13.4261 13.4137 13.4252 
51 1 12.7262 11.4284 11.4279 
52 1 13.4381 10.7109 10.7115 
53 1 11.4275 11.4283 12.7279 
54 1 10.712 10.7092 13.4384 
55 1 11.4273 12.7278 11.4263 
56 1 10.7104 13.4407 10.7096 
ITEM: TIMESTEP
120
ITEM: NUMBER OF ATOMS
67
ITEM: BOX BOUNDS pp pp pp
0.0000000000000000e+00 1.4190000000000000e+01
0.0000000000000000e+00 1.4190000000000000e+01
0.0000000000000000e+00 1.4190000000000000e+01
ITEM: ATOMS id type x y z 
57 1 1.92718 0.928225 1.91349 
58 1 2.74969 0.114932 2.71078 
59 1 0.782514 0.719518 0.782419 
60 1 0.0589087 0.0195693 0.0584732 
61 1 0.782561 2.07419 2.13791 
62 1 0.0600265 2.79716 2.83715 
63 1 2.13693 2.07454 0.782135 
64 1 2.83707 2.79813 0.0586434 
41 1 4.3364 4.34768 12.6993 
42 1 3.63343 3.62116 13.4257 
43 1 4.31976 5.61978 11.4258 
44 1 3.60628 6.33666 10.7096 
45 1 5.6198 5.6216 12.725 
46 1 6.33728 6.33431 13.4399 
47 1 5.61903 4.32062 11.4274 
48 1 6.33634 3.60868 10.711 
25 1 4.2522 12.8016 4.43385 
26 1 3.53882 13.5258 3.48903 
27 1 5.6477 11.3953 4.39254 
28 1 6.34912 10.6956 3.65715 
29 1 5.655 12.688 5.62731 
30 1 6.35996 13.4159 6.34336 
31 1 4.3705 11.3781 5.63377 
32 1 3.63697 10.6775 6.34834 
65 2 3.67976 13.1305 5.35135 
66 2 3.09124 13.1364 6.83082 
67 3 2.30436 13.5972 6.69145 
1 1 0.777493 9.16951 9.17228 
2 1 0.0655897 9.88701 9.88876 
3 1 2.07444 7.87577 9.17175 
4 1 2.7872 7.15963 9.88727 
5 1 0.777686 7.87477 7.87819 
6 1 0.0662829 7.15828 7.16103 
7 1 2.06131 9.1726 7.88326 
8 1 2.79379 9.87221 7.16971 
33 1 12.7006 4.34753 4.33671 
34 1 13.4269 3.62082 3.63379 
35 1 11.4275 4.32013 5.62051 
36 1 10.7112 3.60833 6.3376 
37 1 12.7275 5.6186 5.61987 
38 1 13.4391 6.33523 6.33719 
39 1 11.4246 5.62199 4.32054 
40 1 10.7097 6.3372 3.60519 
9 1 9.17066 0.781579 9.17056 
10 1 9.88709 0.0692483 9.88669 
11 1 9.17186 2.07877 7.87852 
12 1 9.88817 2.79054 7.16147 
13 1 7.87509 0.790715 7.88231 
14 1 7.17119 0.0637237 7.16734 
15 1 7.87767 2.07888 9.17176 
16 1 7.1603 2.79087 9.88816 
17 1 9.17384 9.1633 0.775663 
18 1 9.88961 9.88266 0.0649366 
19 1 7.86548 9.18296 2.06738 
20 1 7.16316 9.88356 2.8037 
21 1 7.88547 7.8759 0.770813 
22 1 7.16199 7.15354 0.0716931 
23 1 9.17379 7.87363 2.06851 
24 1 9.88793 7.15924 2.78302 
49 1 12.6995 12.7108 12.6983 
50 1 13.4261 13.4137 13.4253 
51 1 12.7262 11.4284 11.4279 
52 1 13.4381 10.7109 10.7115 
53 1 11.4275 11.4283 12.7279 
54 1 10.712 10.7092 13.4384 
55 1 11.4273 12.7278 11.4263 
56 1 10.7104 13.4407 10.7096 
ITEM: TIMESTEP
130
ITEM: NUMBER OF ATOMS
67
ITEM: BOX BOUNDS pp pp pp
0.0000000000000000e+00 1.4190000000000000e+01
0.0000000000000000e+00 1.4190000000000000e+01
0.0000000000000000e+00 1.4190000000000000e+01
ITEM: ATOMS id type x y z 
57 1 1.92717 0.928231 1.91347 
58 1 2.74969 0.114937 2.71078 
59 1 0.782512 0.719504 0.782425 
60 1 0.0589107 0.0195639 0.0584683 
61 1 0.782559 2.07419 2.13791 
62 1 0.0600306 2.79715 2.83716 
63 1 2.13695 2.07454 0.782135 
64 1 2.83708 2.79813 0.058644 
41 1 4.3364 4.34768 12.6993 
42 1 3.63344 3.62116 13.4257 
43 1 4.31976 5.61978 11.4258 
44 1 3.60627 6.33666 10.7096 
45 1 5.61979 5.62159 12.725 
46 1 6.33729 6.33432 13.4399 
47 1 5.61903 4.32062 11.4274 
48 1 6.33634 3.60868 10.711 
25 1 4.2522 12.8016 4.43385 
26 1 3.53881 13.5258 3.48903 
27 1 5.6477 11.3953 4.39255 
28 1 6.34913 10.6956 3.65716 
29 1 5.655 12.688 5.62731 
30 1 6.35995 13.4159 6.34335 
31 1 4.3705 11.3781 5.63377 
32 1 3.63697 10.6775 6.34834 
65 2 3.67977 13.1305 5.35136 
66 2 3.09123 13.1364 6.83084 
67 3 2.30436 13.5972 6.69145 
1 1 0.777495 9.16951 9.17228 
2 1 0.065589 9.88702 9.88876 
3 1 2.07444 7.87577 9.17175 