LAMMPS (3 Mar 2020)
Reading data file ...
  orthogonal box = (0 0 0) to (13.416 13.416 13.415)
  2 by 2 by 2 MPI processor grid
  reading atoms ...
  81 atoms
  read_data CPU = 0.00458597 secs
WARNING: Using 'neigh_modify every 1 delay 0 check yes' setting during minimization (../min.cpp:190)
WARNING: Total cutoff < 2*bond cutoff. May need to use an increased neighbor list skin. (../pair_reaxc.cpp:413)
Neighbor list info ...
  update every 1 steps, delay 0 steps, check yes
  max neighbors/atom: 2000, page size: 100000
  master list distance cutoff = 9.5
  ghost atom cutoff = 9.5
  binsize = 4.75, bins = 3 3 3
  2 neighbor lists, perpetual/occasional/extra = 2 0 0
  (1) pair reax/c, perpetual
      attributes: half, newton off, ghost
      pair build: half/bin/newtoff/ghost
      stencil: half/ghost/bin/3d/newtoff
      bin: standard
  (2) fix qeq/reax, perpetual, copy from (1)
      attributes: half, newton off, ghost
      pair build: copy
      stencil: none
      bin: none
Setting up cg style minimization ...
  Unit style    : real
  Current step  : 0
Per MPI rank memory allocation (min/avg/max) = 18.29 | 18.29 | 18.29 Mbytes
Step Temp E_pair E_mol TotEng Press 
       0            0     -14575.6            0     -14575.6    20343.912 
     105            0   -14684.151            0   -14684.151    7.1555338 
Loop time of 2.13602 on 8 procs for 105 steps with 81 atoms

99.5% CPU use with 8 MPI tasks x no OpenMP threads

Minimization stats:
  Stopping criterion = energy tolerance
  Energy initial, next-to-last, final = 
        -14575.6001872     -14684.1507382     -14684.1507545
  Force two-norm initial, final = 1716.25 83.5462
  Force max component initial, final = 1191.61 54.8865
  Final line search alpha, max atom move = 0.00407281 0.223542
  Iterations, force evaluations = 105 719

MPI task timing breakdown:
Section |  min time  |  avg time  |  max time  |%varavg| %total
---------------------------------------------------------------
Pair    | 1.387      | 1.3943     | 1.4066     |   0.5 | 65.27
Neigh   | 0          | 0          | 0          |   0.0 |  0.00
Comm    | 0.022215   | 0.034757   | 0.042336   |   3.1 |  1.63
Output  | 0.00019124 | 0.00023943 | 0.0003047  |   0.0 |  0.01
Modify  | 0.70213    | 0.70222    | 0.70237    |   0.0 | 32.88
Other   |            | 0.00452    |            |       |  0.21

Nlocal:    10.125 ave 11 max 10 min
Histogram: 7 0 0 0 0 0 0 0 0 1
Nghost:    563.875 ave 564 max 563 min
Histogram: 1 0 0 0 0 0 0 0 0 7
Neighs:    1083.25 ave 1163 max 1068 min
Histogram: 7 0 0 0 0 0 0 0 0 1

Total # of neighbors = 8666
Ave neighs/atom = 106.988
Neighbor list builds = 0
Dangerous builds = 0
WARNING: Using 'neigh_modify every 1 delay 0 check yes' setting during minimization (../min.cpp:190)
WARNING: Total cutoff < 2*bond cutoff. May need to use an increased neighbor list skin. (../pair_reaxc.cpp:413)
Setting up cg style minimization ...
  Unit style    : real
  Current step  : 105
Per MPI rank memory allocation (min/avg/max) = 18.29 | 18.3 | 18.3 Mbytes
Step Temp E_pair E_mol TotEng Press 
     105            0   -14684.151            0   -14684.151    7.1555338 
     258            0   -14685.574            0   -14685.574    562.50292 
Loop time of 3.94888 on 8 procs for 153 steps with 81 atoms

99.5% CPU use with 8 MPI tasks x no OpenMP threads

Minimization stats:
  Stopping criterion = energy tolerance
  Energy initial, next-to-last, final = 
        -14684.1507545     -14685.5737935     -14685.5738287
  Force two-norm initial, final = 83.5462 141.607
  Force max component initial, final = 54.8865 72.1206
  Final line search alpha, max atom move = 0.000617452 0.0445311
  Iterations, force evaluations = 153 1335

MPI task timing breakdown:
Section |  min time  |  avg time  |  max time  |%varavg| %total
---------------------------------------------------------------
Pair    | 2.6021     | 2.6277     | 2.652      |   1.1 | 66.54
Neigh   | 0          | 0          | 0          |   0.0 |  0.00
Comm    | 0.046423   | 0.070919   | 0.096816   |   6.9 |  1.80
Output  | 0.00030498 | 0.00041904 | 0.00058153 |   0.0 |  0.01
Modify  | 1.2413     | 1.2415     | 1.2416     |   0.0 | 31.44
Other   |            | 0.008365   |            |       |  0.21

Nlocal:    10.125 ave 11 max 10 min
Histogram: 7 0 0 0 0 0 0 0 0 1
Nghost:    572.5 ave 576 max 570 min
Histogram: 2 1 0 2 0 0 1 0 1 1
Neighs:    1086 ave 1168 max 1070 min
Histogram: 6 1 0 0 0 0 0 0 0 1

Total # of neighbors = 8688
Ave neighs/atom = 107.259
Neighbor list builds = 0
Dangerous builds = 0
WARNING: Using 'neigh_modify every 1 delay 0 check yes' setting during minimization (../min.cpp:190)
WARNING: Total cutoff < 2*bond cutoff. May need to use an increased neighbor list skin. (../pair_reaxc.cpp:413)
Setting up cg style minimization ...
  Unit style    : real
  Current step  : 258
WARNING: Energy due to 3 extra global DOFs will be included in minimizer energies
Per MPI rank memory allocation (min/avg/max) = 18.3 | 18.3 | 18.3 Mbytes
Step Temp E_pair E_mol TotEng Press Volume 
     258            0   -14685.574            0   -14685.574    562.50292    2414.5532 
     681            0   -14697.301            0   -14697.301    108.64212    2419.1322 
Loop time of 1.41457 on 8 procs for 423 steps with 81 atoms

99.5% CPU use with 8 MPI tasks x no OpenMP threads

Minimization stats:
  Stopping criterion = energy tolerance
  Energy initial, next-to-last, final = 
        -14685.5738287     -14697.3006601      -14697.300771
  Force two-norm initial, final = 199.717 27.9104
  Force max component initial, final = 90.5599 13.276
  Final line search alpha, max atom move = 1.3977e-07 1.85559e-06
  Iterations, force evaluations = 423 530

MPI task timing breakdown:
Section |  min time  |  avg time  |  max time  |%varavg| %total
---------------------------------------------------------------
Pair    | 1.0336     | 1.0442     | 1.06       |   0.8 | 73.82
Neigh   | 0          | 0          | 0          |   0.0 |  0.00
Comm    | 0.016065   | 0.03169    | 0.042721   |   4.4 |  2.24
Output  | 0.00077236 | 0.0009532  | 0.0011931  |   0.0 |  0.07
Modify  | 0.32538    | 0.32554    | 0.32572    |   0.0 | 23.01
Other   |            | 0.01217    |            |       |  0.86

Nlocal:    10.125 ave 11 max 10 min
Histogram: 7 0 0 0 0 0 0 0 0 1
Nghost:    572.875 ave 580 max 569 min
Histogram: 3 0 0 3 0 1 0 0 0 1
Neighs:    1088.75 ave 1173 max 1075 min
Histogram: 7 0 0 0 0 0 0 0 0 1

Total # of neighbors = 8710
Ave neighs/atom = 107.531
Neighbor list builds = 0
Dangerous builds = 0
WARNING: Using 'neigh_modify every 1 delay 0 check yes' setting during minimization (../min.cpp:190)
WARNING: Total cutoff < 2*bond cutoff. May need to use an increased neighbor list skin. (../pair_reaxc.cpp:413)
Setting up cg style minimization ...
  Unit style    : real
  Current step  : 681
Per MPI rank memory allocation (min/avg/max) = 18.3 | 18.3 | 18.3 Mbytes
Step Temp E_pair E_mol TotEng Press 
     681            0   -14697.301            0   -14697.301    108.64212 
     701            0   -14699.114            0   -14699.114    780.91032 
Loop time of 0.271351 on 8 procs for 20 steps with 81 atoms

99.5% CPU use with 8 MPI tasks x no OpenMP threads

Minimization stats:
  Stopping criterion = energy tolerance
  Energy initial, next-to-last, final = 
         -14697.300771     -14699.1139198     -14699.1140118
  Force two-norm initial, final = 23.8762 117.675
  Force max component initial, final = 13.276 55.9324
  Final line search alpha, max atom move = 0.00031884 0.0178335
  Iterations, force evaluations = 20 83

MPI task timing breakdown:
Section |  min time  |  avg time  |  max time  |%varavg| %total
---------------------------------------------------------------
Pair    | 0.16394    | 0.16638    | 0.16864    |   0.4 | 61.32
Neigh   | 0          | 0          | 0          |   0.0 |  0.00
Comm    | 0.0021633  | 0.0043741  | 0.0068689  |   2.6 |  1.61
Output  | 3.9805e-05 | 4.932e-05  | 6.2728e-05 |   0.0 |  0.02
Modify  | 0.099871   | 0.099885   | 0.099899   |   0.0 | 36.81
Other   |            | 0.0006612  |            |       |  0.24

Nlocal:    10.125 ave 11 max 10 min
Histogram: 7 0 0 0 0 0 0 0 0 1
Nghost:    573.5 ave 581 max 569 min
Histogram: 2 0 2 2 0 0 0 0 1 1
Neighs:    1084 ave 1165 max 1068 min
Histogram: 7 0 0 0 0 0 0 0 0 1

Total # of neighbors = 8672
Ave neighs/atom = 107.062
Neighbor list builds = 0
Dangerous builds = 0
WARNING: Using 'neigh_modify every 1 delay 0 check yes' setting during minimization (../min.cpp:190)
WARNING: Total cutoff < 2*bond cutoff. May need to use an increased neighbor list skin. (../pair_reaxc.cpp:413)
Setting up cg style minimization ...
  Unit style    : real
  Current step  : 701
WARNING: Energy due to 3 extra global DOFs will be included in minimizer energies
Per MPI rank memory allocation (min/avg/max) = 18.3 | 18.3 | 18.3 Mbytes
Step Temp E_pair E_mol TotEng Press Volume 
     701            0   -14699.114            0   -14699.114    780.91032    2419.1322 
    1451            0   -14704.841            0   -14704.841   -514.56109     2416.156 
Loop time of 2.87775 on 8 procs for 750 steps with 81 atoms

99.5% CPU use with 8 MPI tasks x no OpenMP threads

Minimization stats:
  Stopping criterion = linesearch alpha is zero
  Energy initial, next-to-last, final = 
        -14699.1140118     -14704.8409821     -14704.8409821
  Force two-norm initial, final = 188.921 38.8796
  Force max component initial, final = 141.366 22.4917
  Final line search alpha, max atom move = 4.73412e-12 1.06478e-10
  Iterations, force evaluations = 750 1081

MPI task timing breakdown:
Section |  min time  |  avg time  |  max time  |%varavg| %total
---------------------------------------------------------------
Pair    | 2.093      | 2.1226     | 2.1528     |   1.5 | 73.76
Neigh   | 0          | 0          | 0          |   0.0 |  0.00
Comm    | 0.02598    | 0.055536   | 0.085665   |   9.1 |  1.93
Output  | 0.0013633  | 0.0016832  | 0.0020961  |   0.5 |  0.06
Modify  | 0.67416    | 0.67433    | 0.67453    |   0.0 | 23.43
Other   |            | 0.0236     |            |       |  0.82

Nlocal:    10.125 ave 11 max 10 min
Histogram: 7 0 0 0 0 0 0 0 0 1
Nghost:    573.5 ave 581 max 569 min
Histogram: 2 0 2 2 0 0 0 0 1 1
Neighs:    1085.75 ave 1167 max 1069 min
Histogram: 6 1 0 0 0 0 0 0 0 1

Total # of neighbors = 8686
Ave neighs/atom = 107.235
Neighbor list builds = 0
Dangerous builds = 0
WARNING: Using 'neigh_modify every 1 delay 0 check yes' setting during minimization (../min.cpp:190)
WARNING: Total cutoff < 2*bond cutoff. May need to use an increased neighbor list skin. (../pair_reaxc.cpp:413)
Setting up cg style minimization ...
  Unit style    : real
  Current step  : 1451
Per MPI rank memory allocation (min/avg/max) = 18.3 | 18.3 | 18.3 Mbytes
Step Temp E_pair E_mol TotEng Press 
    1451            0   -14704.841            0   -14704.841   -514.56109 
    1458            0   -14704.923            0   -14704.923   -864.40948 
Loop time of 0.313457 on 8 procs for 7 steps with 81 atoms

99.5% CPU use with 8 MPI tasks x no OpenMP threads

Minimization stats:
  Stopping criterion = linesearch alpha is zero
  Energy initial, next-to-last, final = 
        -14704.8409821     -14704.9232304     -14704.9232304
  Force two-norm initial, final = 22.2163 32.7054
  Force max component initial, final = 9.12862 15.251
  Final line search alpha, max atom move = 2.41229e-11 3.67898e-10
  Iterations, force evaluations = 7 108

MPI task timing breakdown:
Section |  min time  |  avg time  |  max time  |%varavg| %total
---------------------------------------------------------------
Pair    | 0.20552    | 0.21072    | 0.21554    |   0.9 | 67.22
Neigh   | 0          | 0          | 0          |   0.0 |  0.00
Comm    | 0.0032991  | 0.0080698  | 0.013357   |   4.7 |  2.57
Output  | 0          | 0          | 0          |   0.0 |  0.00
Modify  | 0.09397    | 0.094001   | 0.094022   |   0.0 | 29.99
Other   |            | 0.0006687  |            |       |  0.21

Nlocal:    10.125 ave 11 max 10 min
Histogram: 7 0 0 0 0 0 0 0 0 1
Nghost:    569.5 ave 577 max 562 min
Histogram: 4 0 0 0 0 0 0 0 1 3
Neighs:    1091.5 ave 1178 max 1074 min
Histogram: 6 1 0 0 0 0 0 0 0 1

Total # of neighbors = 8732
Ave neighs/atom = 107.802
Neighbor list builds = 0
Dangerous builds = 0
WARNING: Total cutoff < 2*bond cutoff. May need to use an increased neighbor list skin. (../pair_reaxc.cpp:413)
Setting up Verlet run ...
  Unit style    : real
  Current step  : 0
  Time step     : 0.25
Per MPI rank memory allocation (min/avg/max) = 17.17 | 17.17 | 17.17 Mbytes
Step Temp TotEng KinEng PotEng Press 
       0          300   -14633.384    71.539441   -14704.923    489.07543 
     200    259.07811   -14605.642    61.781011   -14667.423   -11755.085 
     400    307.61529   -14564.615    73.355419   -14637.971    3103.1072 
     600    338.51149   -14540.472    80.723075   -14621.195   -2409.1617 
     800    277.86462   -14570.307    66.260931   -14636.568    12047.918 
    1000    345.49585   -14561.403    82.388601   -14643.791    16295.314 
    1200    306.52375   -14552.414    73.095125   -14625.509    4097.1342 
    1400      261.198   -14574.879    62.286531   -14637.166   -372.43734 
    1600    297.98994   -14559.748    71.060112   -14630.808    -19297.08 
    1800    316.98254   -14558.498    75.589179   -14634.087    8282.1809 
    2000     227.4877   -14580.673    54.247811   -14634.921    12133.899 
    2200     288.6543   -14571.292    68.833891   -14640.126     24388.49 
    2400    291.77545   -14562.685    69.578177   -14632.263   -2660.3816 
    2600    268.09767   -14551.858    63.931859    -14615.79    2283.3957 
    2800    343.31264   -14549.843    81.867981   -14631.711   -4995.1581 
    3000    286.26677   -14572.294    68.264549   -14640.559    11059.763 
    3200    268.47103   -14557.969    64.020891    -14621.99     7888.434 
    3400    318.25509   -14550.032    75.892638   -14625.924    2111.9256 
    3600    285.18533   -14563.461    68.006665   -14631.468   -24923.805 
    3800    303.55572   -14563.859    72.387356   -14636.246   -15114.893 
    4000    254.13523   -14582.596    60.602309   -14643.198   -13875.019 
    4200    315.80015   -14559.625     75.30722   -14634.933    13718.995 
    4400    314.51095   -14552.991    74.999792   -14627.991    6960.2687 
    4600    280.03022   -14576.422    66.777351     -14643.2    -13764.42 
    4800    313.54474    -14571.34    74.769384   -14646.109    -8719.449 
    5000    285.06659   -14550.351    67.978348   -14618.329   -17460.721 
    5200    315.04489   -14558.088    75.127117   -14633.215    5325.5226 
    5400    266.26714   -14576.312    63.495341   -14639.808    3194.6983 
    5600    259.77049   -14560.216     61.94612   -14622.162   -10620.538 
    5800    296.90994   -14557.191    70.802571   -14627.994   -114.20438 
    6000    260.25234   -14573.623    62.061024   -14635.685    1561.8125 
    6200    303.83062   -14571.417    72.452909    -14643.87   -3041.2288 
    6400     335.8044   -14548.942    80.077531   -14629.019   -1241.2857 
    6600    308.19306   -14555.134    73.493198   -14628.628   -3169.1727 
    6800    300.46349   -14558.846    71.649968   -14630.496   -2974.5009 
    7000    314.87372   -14572.989    75.086299   -14648.075    18182.815 
    7200    294.05026   -14566.224    70.120637   -14636.345    3503.6086 
    7400    360.02442   -14548.197    85.853153    -14634.05   -14900.959 
    7600    292.36496    -14558.29    69.718752   -14628.009   -5094.6097 
    7800    284.96254   -14561.807    67.953536    -14629.76   -3407.4271 
    8000    287.70818   -14558.252    68.608275    -14626.86    14738.539 
    8200    285.80161   -14562.332    68.153625   -14630.485    926.83954 
    8400    275.35284   -14577.043    65.661962   -14642.705    7639.0441 
    8600    307.75933   -14558.677    73.389769   -14632.067    -2439.434 
    8800    302.24459    -14557.42    72.074698   -14629.494    1208.9912 
    9000    285.37202    -14575.32    68.051183   -14643.371    8081.3247 
    9200     299.2881   -14567.538    71.369677   -14638.908   -4801.8575 
    9400    281.57912   -14553.523     67.14671   -14620.669   -5032.9774 
    9600    270.54257   -14564.056    64.514882   -14628.571    398.61274 
    9800    298.74456   -14571.436    71.240064   -14642.676   -461.92163 
   10000    342.29167   -14548.422    81.624516   -14630.046    4576.5121 
   10200     273.4048    -14564.62    65.197422   -14629.817   -5926.1565 
   10400    271.08035   -14580.561    64.643123   -14645.205   -7459.5672 
   10600    255.26927   -14578.495    60.872737   -14639.368   -14634.132 
   10800     344.9843   -14557.313    82.266612    -14639.58     7156.864 
   11000     331.4761    -14556.66    79.045382   -14635.705   -9399.6242 
   11200    247.96205   -14576.413    59.130222   -14635.543    -4373.683 
   11400    336.28032   -14558.399     80.19102    -14638.59    10562.642 
   11600    314.53794   -14558.399    75.006227   -14633.405    9242.8985 
   11800     315.4338    -14569.26    75.219858    -14644.48   -9438.2718 
   12000    312.87848    -14569.05    74.610506    -14643.66     17688.36 
   12200    341.58946    -14549.15    81.457063   -14630.607   -5757.1956 
   12400    293.53158   -14569.059     69.99695   -14639.056    1878.5011 
   12600    266.99203   -14575.167    63.668203   -14638.836    16157.452 
   12800    346.26234   -14558.155    82.571382   -14640.726    7676.4203 
   13000    304.20122   -14559.656    72.541285   -14632.197    5869.3117 
   13200    256.12212   -14581.587    61.076112   -14642.663   -8110.3744 
   13400     302.0892   -14562.938    72.037643   -14634.976   -1121.7281 
   13600    316.22139    -14560.16    75.407671   -14635.568   -9336.2378 
   13800    280.45307    -14566.73    66.878185   -14633.609   -2111.2479 
   14000    322.00342   -14553.372    76.786482   -14630.158    9669.2817 
   14200    284.58058   -14557.119    67.862452   -14624.981    27330.124 
   14400    293.73401   -14568.985    70.045222   -14639.031      2569.73 
   14600    332.85281   -14551.886    79.373679    -14631.26    1709.8565 
   14800    262.21184   -14560.002    62.528295    -14622.53    7972.6954 
   15000    233.09338    -14574.86    55.584568   -14630.445   -9059.8686 
   15200    278.85632   -14567.296    66.497417   -14633.793   -10291.268 
   15400     319.6665   -14560.414     76.22921   -14636.644    571.88556 
   15600    262.14337   -14577.908    62.511968    -14640.42   -7770.2012 
   15800    301.09671   -14556.664    71.800968   -14628.465    13853.624 
   16000    298.96442   -14567.316    71.292492   -14638.608    22004.611 
   16200    256.16348   -14578.468    61.085975   -14639.554   -5595.2061 
   16400    328.39424   -14554.651    78.310468   -14632.961    9865.3583 
   16600     311.9399    -14563.69    74.386686   -14638.077   -13088.359 
   16800    276.61687    -14560.59    65.963388   -14626.554   -12364.866 
   17000    344.52791   -14544.215     82.15778   -14626.373   -11603.293 
   17200    268.34543   -14566.087     63.99094   -14630.078    3641.0424 
   17400    311.69244   -14554.154    74.327677   -14628.482   -2559.7031 
   17600    244.17686    -14572.25    58.227588   -14630.478   -9488.3341 
   17800    267.94247   -14561.354    63.894849   -14625.249     546.4904 
   18000    336.08051   -14553.889    80.143372   -14634.032      7938.57 
   18200    259.32968   -14571.051    61.841002   -14632.892   -7814.8863 
   18400    331.89695   -14553.406     79.14574   -14632.551   -18022.913 
   18600    297.47357   -14562.763    70.936976     -14633.7   -9358.7047 
   18800    291.68115   -14562.192    69.555689   -14631.748     13261.11 
   19000    330.99969   -14544.281    78.931776   -14623.213    18910.887 
   19200    307.60732   -14566.562    73.353519   -14639.916   -1868.8839 
   19400     317.6552   -14557.571    75.749584   -14633.321   -19762.307 
   19600    318.02817   -14555.265    75.838525   -14631.103    1248.9284 
   19800     283.5415   -14571.093    67.614669   -14638.708    1705.9395 
   20000    314.33198   -14554.398    74.957114   -14629.355   -4953.2151 
   20200    310.05297   -14559.726     73.93672   -14633.663   -17329.103 
   20400    297.82183   -14562.675    71.020024   -14633.695    9649.7691 
   20600    308.99392   -14554.656    73.684174   -14628.341   -13155.296 
   20800    286.96656   -14576.845    68.431425   -14645.276   -4387.2179 
   21000    300.30781    -14557.44    71.612843   -14629.053    6724.7121 
   21200    318.39998   -14558.498     75.92719   -14634.425    7586.7762 
   21400    292.39596   -14567.627    69.726146   -14637.353    3826.8952 
   21600    336.56592   -14539.658    80.259127   -14619.917   -5952.0477 
   21800    293.88424   -14560.931    70.081047   -14631.012    11274.531 
   22000    276.10364   -14560.468    65.841001   -14626.309   -7075.2588 
   22200    301.18834   -14557.957    71.822818    -14629.78   -20520.447 
   22400    273.30557   -14571.004    65.173759   -14636.178    8415.9277 
   22600    341.30013   -14547.745    81.388068   -14629.133   -9074.4328 
   22800    318.07868   -14559.192     75.85057   -14635.043   -6300.8526 
   23000    292.09461   -14567.002    69.654283   -14636.656    74.477468 
   23200    331.97217   -14541.917    79.163678   -14621.081    9359.0628 
   23400    330.17821   -14552.545    78.735883   -14631.281   -13806.467 
   23600    307.84081   -14563.117    73.409198   -14636.526   -453.00212 
   23800     292.1748   -14566.053    69.673407   -14635.727     513.4962 
   24000    296.15032   -14547.901    70.621428   -14618.522    11434.809 
   24200    297.44986   -14563.926    70.931322   -14634.857   -15816.151 
   24400    292.29374   -14571.447    69.701769   -14641.149   -15309.058 
   24600    325.97302   -14550.228    77.733092   -14627.961    12068.381 
   24800    296.64248   -14559.857    70.738791   -14630.596    3392.6694 
   25000    251.29132   -14569.881    59.924135   -14629.805   -7531.0081 
   25200    302.61504   -14544.402    72.163036   -14616.565   -5955.9402 
   25400    342.41172   -14552.124    81.653143   -14633.777   -2802.3974 
   25600    272.62938   -14566.374    65.012512   -14631.387   -11963.232 
   25800    359.19492   -14548.755    85.655346   -14634.411    7814.8091 
   26000    300.59618   -14556.943    71.681608   -14628.625    10546.259 
   26200    317.50112   -14570.219    75.712842   -14645.932   -7615.4433 
   26400    334.55118   -14554.016    79.778683   -14633.795    5185.9588 
   26600    300.91887   -14562.774    71.758559   -14634.532    -1992.361 
   26800     314.5355   -14570.495    75.005645   -14645.501   -484.30251 
   27000    305.89397   -14554.428    72.944945   -14627.372   -1677.6301 
   27200     277.2789   -14561.024    66.121259   -14627.145   -1186.2132 
   27400    318.13494   -14556.985    75.863985   -14632.849    7776.5648 
   27600     306.3782   -14556.014    73.060417   -14629.075    4266.8464 
   27800    275.21043   -14571.804    65.628001   -14637.432    -7154.263 
   28000    335.18826   -14549.394    79.930603   -14629.325    1125.2447 
   28200    318.91481   -14552.948    76.049958   -14628.998   -1596.8962 
   28400    306.19617   -14563.686     73.01701   -14636.703   -3465.3342 
   28600    341.51792   -14556.709    81.440003   -14638.149   -19067.854 
   28800     318.0574   -14557.669    75.845496   -14633.514   -12358.228 
   29000    287.27328   -14577.288    68.504566   -14645.793   -2683.5777 
   29200    322.34945   -14561.976    76.868999   -14638.845    8246.4863 
   29400    290.71296   -14560.521    69.324809   -14629.846   -3894.6922 
   29600    300.46208   -14562.044    71.649631   -14633.694   -8764.6721 
   29800    266.18026   -14569.944    63.474624   -14633.419   -3203.3783 
   30000    300.52407    -14554.73    71.664413   -14626.395   -2283.3271 
   30200    314.02792   -14545.472    74.884607   -14620.356    11701.466 
   30400    279.70937   -14572.366     66.70084   -14639.067    756.93271 
   30600    298.02475   -14557.988    71.068415   -14629.057    1787.9808 
   30800    345.86593   -14557.425    82.476851   -14639.901   -419.60891 
   31000    280.50966   -14572.892     66.89168   -14639.784    11639.826 
   31200    325.22459   -14554.812    77.554618   -14632.366    12103.106 
   31400    262.79789   -14566.715    62.668047   -14629.383    2429.2287 
   31600     276.0856   -14576.172    65.836699   -14642.009   -2069.0046 
   31800    306.06365   -14556.472    72.985407   -14629.458    -8657.391 
   32000    271.16215   -14559.572     64.66263   -14624.234    13934.427 
   32200    238.98822   -14573.947    56.990279   -14630.938    7757.3886 
   32400    266.64177   -14561.471    63.584678   -14625.056   -3895.4847 
   32600    310.14232   -14554.693    73.958028   -14628.651   -4826.4463 
   32800    265.39278   -14575.368    63.286837   -14638.654    -843.4729 
   33000    331.98029   -14561.083    79.165615   -14640.249   -5064.5007 
   33200    334.11073   -14563.014     79.67365   -14642.687   -7969.0916 
   33400    285.88898   -14562.356    68.174461    -14630.53   -29999.115 
   33600    289.04601   -14552.255      68.9273   -14621.183   -11859.754 
   33800     298.7683   -14558.923    71.245725   -14630.169   -15303.934 
   34000    286.94715   -14571.007    68.426797   -14639.434   -5398.5266 
   34200    267.24517   -14559.144    63.728566   -14622.873    7844.3227 
   34400     283.9651   -14557.776    67.715681   -14625.492   -12439.906 
   34600    264.23574   -14566.057    63.010924   -14629.068   -3834.6095 
   34800    264.92771   -14584.059    63.175934   -14647.235    15230.067 
   35000     298.5705   -14563.604    71.198556   -14634.803    1341.6011 
   35200    319.56321   -14554.862    76.204578   -14631.066   -4855.4173 
   35400    289.09856   -14578.327    68.939832   -14647.267    2465.3563 
   35600    295.35321   -14571.854    70.431345   -14642.285    6026.3778 
   35800    278.14516   -14560.177    66.327831   -14626.505   -3849.3687 
   36000    332.78851   -14540.598    79.358348   -14619.956   -12759.108 
   36200    327.15505   -14555.337    78.014964   -14633.352    4403.5018 
   36400    323.13623   -14564.804    77.056619    -14641.86   -10544.413 
   36600    303.39159   -14551.073    72.348215   -14623.421    865.80559 
   36800    324.40878   -14551.958    77.360075   -14629.318    4823.7199 
   37000    310.51669   -14561.306    74.047302   -14635.353    2273.2983 
   37200    328.33933   -14565.694    78.297374   -14643.992    3416.7507 
   37400    306.72887   -14547.634     73.14404   -14620.778    2309.2921 
   37600    287.81014   -14568.794    68.632589   -14637.427    5949.3561 
   37800     304.6904   -14565.689    72.657937   -14638.347    6986.0709 
   38000    342.61483   -14549.733    81.701578   -14631.434    8475.3126 
   38200    313.93024   -14565.344    74.861314   -14640.205    8579.4878 
   38400    274.78931   -14570.703     65.52758   -14636.231     18136.59 
   38600    311.39744   -14553.179     74.25733   -14627.436    2114.2881 
   38800    269.17203   -14566.487    64.188056   -14630.675    12716.103 
   39000    260.53553    -14579.14    62.128555   -14641.268    4576.4746 
   39200    305.49433   -14564.041    72.849646   -14636.891     7137.748 
   39400    328.52599   -14550.343    78.341885   -14628.685    410.94431 
   39600    281.03423   -14574.367    67.016773   -14641.383     3508.613 
   39800     314.0026   -14562.806    74.878568   -14637.684    2717.4368 
   40000    321.80877   -14554.913    76.740065   -14631.653    1108.4762 
   40200    308.70092   -14562.236    73.614304   -14635.851   -6943.9663 
   40400    283.93064   -14562.723    67.707464   -14630.431   -6868.6147 
   40600    314.07014   -14540.125    74.894675   -14615.019   -2140.3041 
   40800    322.14144   -14561.737    76.819396   -14638.556   -13276.554 
   41000    276.01618   -14559.209    65.820145   -14625.029    10891.548 
   41200    306.75108   -14548.898    73.149337   -14622.048   -10480.359 
   41400     266.2863   -14570.001    63.499911     -14633.5    11554.797 
   41600    338.49673   -14562.755    80.719557   -14643.475    7403.2604 
   41800    326.36258   -14561.297    77.825989   -14639.123   -9418.6226 
   42000    309.45224   -14561.921    73.793468   -14635.714    5668.8666 
   42200    330.88134   -14541.424    78.903553   -14620.328   -3083.8127 
   42400    311.57903   -14564.731    74.300631   -14639.032    4503.1592 
   42600    294.90182   -14560.586    70.323705   -14630.909    13264.143 
   42800    338.83222   -14544.677    80.799558   -14625.476    5252.1881 
   43000    270.48764   -14571.735    64.501781   -14636.236     940.6392 
   43200    289.02331   -14558.188    68.921886    -14627.11   -10508.827 
   43400    316.39457   -14558.942    75.448969   -14634.391   -20870.973 
   43600    275.78509   -14568.093    65.765039   -14633.858    17460.434 
   43800    349.91867    -14545.83    83.443286   -14629.274   -6092.8783 
   44000    267.41785   -14569.955    63.769745   -14633.724    4667.6227 
   44200    305.76191   -14563.957    72.913454    -14636.87    13066.182 
   44400    342.83112   -14553.702    81.753156   -14635.455   -1378.8464 
   44600    294.90863   -14562.723    70.325328   -14633.048   -15851.527 
   44800    313.17116   -14559.287      74.6803   -14633.967   -1048.2525 
   45000    320.01893   -14541.396    76.313252   -14617.709   -2468.8376 
   45200    290.66846   -14569.239    69.314198   -14638.554    11570.749 
   45400    262.44598    -14560.09    62.584129   -14622.674    20197.616 
   45600    325.32239   -14543.727     77.57794   -14621.305    8397.4032 
   45800     348.7119   -14557.417    83.155515   -14640.573    13920.317 
   46000    288.51878    -14571.33    68.801574   -14640.132    13987.496 
   46200    324.43344   -14551.172    77.365956   -14628.538   -2668.0955 
   46400    292.13215   -14557.377    69.663236    -14627.04    17666.255 
   46600    291.72033   -14576.756    69.565032   -14646.321     9782.095 
   46800    336.26931   -14555.881    80.188394   -14636.069   -16590.371 
   47000    299.08609   -14556.172    71.321506   -14627.494   -6984.1481 
   47200    265.41234   -14572.189    63.291501    -14635.48    13091.133 
   47400    282.86898   -14568.379    67.454295   -14635.834    4900.2056 
   47600    334.62373   -14550.314    79.795983    -14630.11   -11.853612 
   47800    283.84542   -14564.869    67.687142   -14632.556   -10314.402 
   48000    298.05068   -14569.022    71.074598   -14640.097    13359.039 
   48200    291.30402   -14552.533    69.465756   -14621.999   -15330.643 
   48400    244.01417   -14564.749    58.188791   -14622.938    6194.1736 
   48600    335.30929   -14565.682    79.959464   -14645.642    10697.341 
   48800    293.89942   -14560.736    70.084667   -14630.821   -8127.0022 
   49000    330.99419   -14565.829    78.930464    -14644.76     15266.96 
   49200    292.52322   -14562.833    69.756491   -14632.589   -379.95917 
   49400    349.07904   -14556.972    83.243065   -14640.216    7023.9248 
   49600    299.95062   -14573.582    71.527666    -14645.11    20483.615 
   49800    303.24657    -14566.39    72.313635   -14638.703    4629.2991 
   50000    301.28262   -14556.685      71.8453   -14628.531    22759.798 
   50200    288.09988   -14573.257    68.701682   -14641.959   -1869.0526 
   50400     364.4746   -14552.044    86.914364   -14638.958   -9940.8961 
   50600    284.78568   -14558.622    67.911362   -14626.533   -4348.2669 
   50800    288.55622   -14574.414    68.810503   -14643.224    10313.495 
   51000    279.93379   -14567.387    66.754357   -14634.141    9775.4453 
   51200    322.91541    -14552.06     77.00396   -14629.064    15711.282 
   51400    296.88375   -14560.864    70.796324    -14631.66     17180.76 
   51600    291.91267   -14573.472    69.610898   -14643.083     7853.191 
   51800     299.4114   -14551.888    71.399082   -14623.287   -25427.328 
   52000    295.10549   -14559.449    70.372272   -14629.821   -997.63358 
   52200    246.22843   -14584.231    58.716814   -14642.948    1837.7544 
   52400    278.72814   -14575.813     66.46685    -14642.28    8620.1282 
   52600    303.99634   -14559.522    72.492429   -14632.014    6351.7203 
   52800    299.15915   -14557.185    71.338927   -14628.524    4771.7567 
   53000     285.1018   -14578.942    67.986745   -14646.929    4196.7247 
   53200    287.34816   -14563.172    68.522424   -14631.695   -14761.851 
   53400    309.70785   -14560.899    73.854421   -14634.753    12512.929 
   53600    305.24108   -14555.816    72.789254   -14628.605   -1548.7118 
   53800    292.81358   -14546.087    69.825732   -14615.913   -934.04961 
   54000    259.46747   -14568.635     61.87386   -14630.509    5952.0961 
   54200    347.67647   -14553.842      82.9086   -14636.751   -18516.589 
   54400    282.15703   -14563.139    67.284522   -14630.423   -3651.8068 
   54600    298.24697   -14575.255    71.121404   -14646.377   -4869.4511 
   54800    347.13938   -14553.186    82.780525   -14635.967   -8589.3602 
   55000    277.88477   -14569.185    66.265738   -14635.451   -6651.7898 
   55200    326.86976   -14566.568    77.946932   -14644.515   -10173.873 
   55400    310.50779   -14556.913    74.045179   -14630.958     11494.41 
   55600    343.75114   -14542.612    81.972548   -14624.584    12217.088 
   55800    349.13572   -14557.813    83.256581    -14641.07   -2538.9446 
   56000    277.52309   -14571.729    66.179489   -14637.908    233.83193 
   56200    292.03711   -14559.354    69.640573   -14628.994    1959.7415 
   56400    326.78858   -14553.098    77.927574   -14631.026      23026.4 
   56600    263.38178   -14571.569    62.807285   -14634.376     608.5484 
   56800    293.99613   -14568.217     70.10773   -14638.325    -1784.136 
   57000    267.56042   -14557.425    63.803744   -14621.228   -3889.4998 
   57200    294.47752   -14562.286    70.222523   -14632.509   -13959.887 
   57400    287.00073   -14562.521    68.439573   -14630.961    18808.072 
   57600    289.07771   -14571.308    68.934859   -14640.243    15700.692 
   57800    249.28067   -14571.662    59.444666   -14631.106    3647.2945 
   58000     296.9097   -14555.077    70.802513    -14625.88   -3117.0608 
   58200    265.43471   -14571.206    63.296836   -14634.503   -3799.0566 
   58400    238.96515   -14589.068    56.984778   -14646.052     7529.472 
   58600    293.47178   -14564.471    69.982691   -14634.453    12490.321 
   58800    303.42561   -14550.295    72.356329   -14622.651    7205.9518 
   59000    299.42724   -14571.054    71.402858   -14642.457    1153.5828 
   59200    296.32109   -14563.905    70.662151   -14634.567   -1512.9893 
   59400    341.80701   -14547.312    81.508941   -14628.821    13670.281 
   59600    315.03412   -14558.319    75.124551   -14633.444    63.485325 
   59800    314.34886   -14567.272    74.961138   -14642.233    2448.1042 
   60000     322.8598    -14560.55    76.990699   -14637.541   -4792.5972 
   60200    279.18358   -14553.574    66.575458    -14620.15    25412.639 
   60400    294.44231   -14572.173    70.214129   -14642.387    7082.5913 
   60600    349.88986   -14554.654    83.436416    -14638.09    -5327.889 
   60800    271.54383   -14560.381    64.753647   -14625.134   -8851.0626 
   61000    354.61583   -14553.578    84.563395   -14638.142   -7038.5371 
   61200    340.42155   -14548.177    81.178559   -14629.355   -6129.8776 
   61400    290.81743   -14569.815    69.349722   -14639.165    1599.7404 
   61600    348.49766   -14553.621    83.104427   -14636.725    917.06151 
   61800    282.81991   -14573.208    67.442594   -14640.651     -1060.65 
   62000    284.71504   -14568.522    67.894516   -14636.417    20690.355 
   62200    288.63879   -14556.045    68.830191   -14624.875   -2695.0662 
   62400      297.448   -14567.942    70.930879   -14638.872    16504.251 
   62600    343.17972   -14549.874    81.836285   -14631.711   -6561.2954 
   62800    301.00705   -14565.748    71.779587   -14637.528   -12397.027 
   63000    258.75855    -14569.46    61.704807   -14631.165   -11254.297 
   63200    298.92966    -14558.11    71.284203   -14629.394      12046.6 
   63400    260.15084   -14574.307    62.036819   -14636.343   -8625.7351 
   63600    270.71538   -14576.565    64.556091   -14641.121    5029.8635 
   63800    326.11665   -14554.384    77.767342   -14632.151    12000.249 
   64000    277.03371    -14565.09    66.062789   -14631.152   -12992.807 
   64200    259.90335    -14576.66    61.977803   -14638.638   -5238.7617 
   64400    293.58481   -14554.542    70.009644   -14624.552   -5590.1547 
   64600     282.1894   -14558.756    67.292241   -14626.048    4702.4024 
   64800    244.88529   -14579.449    58.396524   -14637.845   -14184.561 
   65000     269.5208   -14569.033    64.271225   -14633.304    18376.292 
   65200     334.2876   -14556.108    79.715827   -14635.824    15774.657 
   65400    331.61154   -14550.855    79.077682   -14629.932   -21396.046 
   65600    263.64719   -14573.692    62.870574   -14636.562    11107.716 
   65800    310.47497   -14559.523    74.037354   -14633.561    7490.6896 
   66000    311.04837   -14549.233    74.174087   -14623.407    18312.086 
   66200    311.84224   -14565.275    74.363399   -14639.639     5864.485 
   66400    330.94061   -14553.136    78.917689   -14632.053   -7080.9485 
   66600    311.05785   -14550.517    74.176349   -14624.694   -3003.1982 
   66800    271.22502   -14562.605    64.677621   -14627.283   -6009.3795 
   67000    331.35673    -14547.09    79.016917   -14626.107   -154.99568 
   67200    268.40039   -14566.974    64.004045   -14630.978   -22036.794 
   67400    255.07556   -14563.937    60.826543   -14624.763   -7283.0747 
   67600    292.90685   -14553.635    69.847975   -14623.483    6068.0793 
   67800    237.07672   -14577.802    56.534454   -14634.337   -7384.4413 
   68000    289.32953   -14568.507    68.994911   -14637.502    1698.4736 
   68200    325.25223   -14559.171    77.561208   -14636.732   -10520.257 
   68400    353.34269   -14536.135    84.259795   -14620.395   -22613.559 
   68600    278.91536   -14558.173    66.511497   -14624.684   -2332.8279 
   68800    273.77638   -14567.623    65.286031   -14632.909    23069.875 
   69000    321.11245    -14548.12    76.574018   -14624.694    5671.2066 
   69200    306.72062   -14555.642    73.142072   -14628.784    10608.703 
   69400    286.47761   -14566.559    68.314827   -14634.873   -16351.891 
   69600    308.72979   -14544.986    73.621189   -14618.607    4626.3695 
   69800    304.05138   -14566.571    72.505553   -14639.077   -5459.7094 
   70000    326.02817   -14555.656    77.746243   -14633.402    8992.1063 
   70200    304.91996   -14556.228    72.712679   -14628.941   -1855.9482 
   70400    296.69407   -14567.277    70.751094   -14638.029    -1835.983 
   70600    244.49881   -14579.704    58.304362   -14638.008    1959.5486 
   70800    335.31623   -14554.263    79.961118   -14634.224    14064.576 
   71000    279.28781   -14556.839    66.600313   -14623.439    12396.921 
   71200    287.43241   -14572.317    68.542514    -14640.86     3629.656 
   71400    321.82318   -14558.156    76.743502     -14634.9    -8612.534 
   71600     294.8995   -14559.106    70.323151    -14629.43   -22092.368 
   71800    321.14711   -14552.155    76.582283   -14628.738   -6754.9046 
   72000    319.65985   -14557.349    76.227624   -14633.577    405.90551 
   72200     312.9222   -14571.611    74.620932   -14646.232    23943.394 
   72400    335.92908   -14545.939    80.107261   -14626.046   -9418.2686 
   72600    316.59291   -14555.615    75.496265   -14631.111    -2729.629 
   72800    269.58205   -14572.437    64.285831   -14636.723   -13827.569 
   73000    343.60708   -14546.965    81.938194   -14628.903     705.4498 
   73200    291.81827   -14558.752    69.588388   -14628.341    4983.6747 
   73400    289.42334   -14564.974     69.01728   -14633.992    2543.2308 
   73600    326.86433   -14537.896    77.945639   -14615.841   -3103.6658 
   73800    315.21389   -14554.003    75.167418    -14629.17   -18965.067 
   74000    315.54912   -14557.983    75.247358    -14633.23   -7899.6874 
   74200    297.78529   -14573.013    71.011311   -14644.024    5354.8524 
   74400    281.20736    -14567.72    67.058057   -14634.778   -13206.399 
   74600    331.42073   -14556.743    79.032179   -14635.775    4409.4858 
   74800    280.34248   -14567.806    66.851814   -14634.658   -17758.611 
   75000    288.50973   -14574.813    68.799417   -14643.612    7597.1299 
   75200    283.43958    -14553.67    67.590365    -14621.26   -4232.3352 
   75400    278.99415   -14564.991    66.530284   -14631.522    5833.1893 
   75600    277.51089    -14572.19    66.176581   -14638.367   -17043.566 
   75800    258.92042   -14561.464    61.743408   -14623.207    1064.3333 
   76000    313.16464   -14553.472    74.678745    -14628.15   -133.93931 
   76200    286.30985   -14550.342    68.274823   -14618.617    5273.7464 
   76400    287.37769   -14571.774    68.529466   -14640.303   -5458.2827 
   76600    303.87267   -14547.588    72.462937   -14620.051   -21558.944 
   76800    314.09844   -14557.567    74.901422   -14632.468    1424.9831 
   77000    300.31521   -14566.013    71.614608   -14637.627    -18094.58 
   77200    319.96286   -14557.591     76.29988   -14633.891   -11211.802 
   77400    312.55406   -14556.566    74.533143   -14631.099   -14102.319 
   77600    274.48793   -14566.085    65.455711    -14631.54   -8605.3479 
   77800    329.38674   -14540.402    78.547144   -14618.949    6771.1588 
   78000    289.91727   -14555.802    69.135065   -14624.937    7827.1254 
   78200    328.36071   -14564.055    78.302472   -14642.358   -980.87945 
   78400    293.94394   -14568.273    70.095283   -14638.369    89.614265 
   78600    305.02709   -14553.695    72.738226   -14626.433    2909.7034 
   78800    270.36827    -14560.42    64.473317   -14624.894    20555.812 
   79000    255.57952   -14574.896    60.946719   -14635.843   -14901.222 
   79200    307.07196   -14559.239    73.225855   -14632.465   -11517.998 
   79400    359.04419   -14557.474    85.619402   -14643.093   -10466.074 
   79600    262.13221   -14577.884    62.509306   -14640.394   -20433.592 
   79800    281.86997   -14560.769    67.216067   -14627.985    8268.4192 
   80000    317.61939   -14560.662    75.741046   -14636.403   -6026.7721 
   80200    261.80064   -14580.393    62.430237   -14642.823   -12474.779 
   80400    312.64364   -14567.283    74.554504   -14641.837   -15796.219 
   80600    314.69372   -14556.423    75.043377   -14631.467    11578.968 
   80800    298.39915   -14569.217    71.157695   -14640.375    3147.5194 
   81000    294.16488   -14571.164    70.147971   -14641.312   -7537.2787 
   81200     312.1893   -14554.426    74.446159   -14628.872   -15392.307 
   81400    269.63674   -14565.322    64.298872   -14629.621   -1898.3315 
   81600    285.93768   -14579.579    68.186074   -14647.765   -2018.2933 
   81800    268.17646   -14566.515    63.950646   -14630.465    7315.3093 
   82000    287.66272   -14558.027    68.597433   -14626.624   -11420.693 
   82200    265.42602   -14577.707    63.294765   -14641.001    4418.8617 
   82400     296.1859   -14560.274    70.629911   -14630.904    2580.9608 
   82600    333.45109   -14565.183    79.516349   -14644.699    246.11533 
   82800    298.52629   -14564.282    71.188012    -14635.47    1959.8916 
   83000    339.56668   -14552.594    80.974701   -14633.568   -3775.8207 
   83200    317.35076   -14565.895    75.676987   -14641.572    4993.7078 
   83400    258.67642   -14562.981    61.685222   -14624.666    6172.4201 
   83600     275.8848   -14553.272    65.788814    -14619.06    2277.4476 
   83800    285.33788   -14572.862    68.043042   -14640.905    7256.2955 
   84000    296.33614   -14570.814    70.665739    -14641.48   -5404.7989 
   84200    298.46046   -14555.906    71.172315   -14627.078   -17507.997 
   84400    306.07962   -14564.105    72.989217   -14637.094   -3659.8902 
   84600    258.99524   -14576.778     61.76125   -14638.539   -10087.688 
   84800    280.43946   -14560.531     66.87494   -14627.406    6796.5482 
   85000    313.08895   -14552.564    74.660695   -14627.224    7935.6704 
   85200    300.43223   -14564.655    71.642512   -14636.297   -6788.4849 
   85400    272.62414   -14572.918    65.011262   -14637.929   -9307.0126 
   85600    342.75659   -14553.616    81.735384   -14635.351   -5228.8134 
   85800    321.59815   -14567.908    76.689839   -14644.598   -1736.9282 
   86000    290.59264   -14571.265    69.296118   -14640.561    3543.7552 
   86200     291.0848   -14551.901    69.413479   -14621.315   -4079.3483 
   86400    305.86314   -14562.655    72.937593   -14635.592    2643.9336 
   86600    302.91675    -14567.91    72.234984   -14640.145   -144.14444 
   86800    302.54249   -14559.207    72.145736   -14631.353   -14827.286 
   87000    313.91723   -14532.887    74.858211   -14607.745    15686.125 
   87200    273.56732   -14558.978    65.236177   -14624.214    25883.852 
   87400    295.28769   -14568.694    70.415722    -14639.11     4053.072 
   87600    267.80802    -14576.68    63.862787   -14640.543   -24400.108 
   87800    315.61248   -14553.537    75.262468   -14628.799   -13329.983 
   88000    307.21663    -14566.01    73.260354    -14639.27    -19863.82 
   88200    267.80931   -14574.414    63.863094   -14638.277    9213.4327 
   88400    317.63032   -14562.266    75.743653   -14638.009    5900.1755 
   88600    341.19443   -14560.573    81.362864   -14641.936    1413.2604 
   88800    229.73497   -14580.116    54.783705     -14634.9   -128.85252 
   89000    309.86538   -14559.685    73.891988   -14633.577   -3461.8739 
   89200    323.85407   -14555.576    77.227797   -14632.804    6068.8684 
   89400    286.88739   -14577.895    68.412546   -14646.308    11096.494 
   89600    280.10466   -14563.277    66.795104   -14630.072    1759.7276 
   89800    259.17021   -14562.839    61.802974   -14624.642   -8996.4151 
   90000    252.01705    -14572.62    60.097197   -14632.718   -11620.773 
   90200     296.3605   -14564.003     70.67155   -14634.675   -2211.5459 
   90400    323.27677   -14553.175    77.090132   -14630.265    18.755827 
   90600    273.03153   -14577.893     65.10841   -14643.001   -4252.8996 
   90800    288.03965   -14568.537    68.687318   -14637.224    443.38108 
   91000    297.46328   -14558.965    70.934523     -14629.9    6084.5577 
   91200    276.52121   -14566.167    65.940577   -14632.107   -5483.6172 
   91400     263.5137   -14571.248    62.838743   -14634.087    18892.775 
   91600    319.42769   -14549.063    76.172261   -14625.236   -3846.7568 
   91800    280.38773   -14570.853    66.862606   -14637.716    545.16855 
   92000    313.80349   -14564.624    74.831088   -14639.455    4931.1012 
   92200    340.71892   -14556.968    81.249471   -14638.218    4739.7444 
   92400    261.87754   -14576.265    62.448577   -14638.713   -7334.9581 
   92600    310.26159   -14556.126    73.986469   -14630.113   -5318.9541 
   92800    332.32185   -14561.281    79.247065   -14640.528   -9676.6252 
   93000    297.06367   -14565.782    70.839229   -14636.621    1637.4939 
   93200    295.81294   -14565.479    70.540974    -14636.02   -2021.1887 
   93400    371.52548   -14543.858    88.595752   -14632.454    7547.2924 
   93600    273.66606   -14562.096    65.259724   -14627.356    2803.4597 
   93800    286.11529   -14567.039    68.228426   -14635.268    10828.075 
   94000    311.11106   -14545.003    74.189038   -14619.192   -11380.581 
   94200     253.0338   -14564.427    60.339655   -14624.767    2485.2599 
   94400    293.59588   -14566.487    70.012285   -14636.499   -12488.341 
   94600    301.06954   -14555.685    71.794489   -14627.479   -6976.7267 
   94800    277.58218   -14552.734     66.19358   -14618.927    13780.427 
   95000    306.97988   -14573.255    73.203897   -14646.459   -7419.5856 
   95200    301.99723   -14556.249    72.015711   -14628.265   -4834.5509 
   95400    313.19385   -14557.675    74.685711   -14632.361    -16265.59 
   95600    272.57252   -14572.576    64.998952   -14637.575   -2509.2951 
   95800    268.72824   -14575.907    64.082227   -14639.989    4359.8581 
   96000    272.71348   -14562.462    65.032567   -14627.494   -7014.8072 
   96200    314.77503   -14553.414    75.062766   -14628.477    7326.4988 
   96400    239.07394   -14574.614     57.01072   -14631.625    6943.9264 
   96600    303.43429   -14559.241    72.358398     -14631.6    689.97533 
   96800    304.31389    -14556.13    72.568152   -14628.698     5432.971 
   97000    291.01918   -14571.213    69.397832   -14640.611    789.09449 
   97200    294.27665   -14554.705    70.174623    -14624.88   -17801.788 
   97400    256.66619   -14569.098    61.205853   -14630.303    9600.0183 
   97600    300.50052   -14568.828    71.658798   -14640.487   -5939.8652 
   97800    361.68614   -14557.464    86.249414   -14643.714    3927.6818 
   98000    271.34697   -14570.638    64.706701   -14635.345   -8968.6235 
   98200    263.34151   -14575.615    62.797681   -14638.412    15891.102 
   98400    295.21255   -14553.363    70.397803   -14623.761    -102.4131 
   98600    269.23507   -14570.127    64.203089    -14634.33   -8142.6794 
   98800    292.04741   -14567.159    69.643028   -14636.802    3847.5479 
   99000    289.16081   -14556.941    68.954676   -14625.895   -7538.5515 
   99200    295.96143   -14564.958    70.576385   -14635.534   -3204.4501 
   99400    289.76173    -14566.42    69.097975   -14635.518    2080.3252 
   99600    316.75202   -14562.182    75.534209   -14637.717    1793.6735 
   99800    332.33776   -14561.077    79.250858   -14640.328    19932.607 
  100000    264.45244   -14578.282    63.062599   -14641.345    19823.284 
  100200    294.96258   -14553.172    70.338193    -14623.51    7870.2805 
  100400    344.88792   -14559.343     82.24363   -14641.587    16445.404 
  100600    280.61201   -14570.742    66.916089   -14637.658    11818.541 
  100800    344.50933   -14545.417     82.15335    -14627.57    9674.5612 
  101000    321.60382    -14561.54    76.691191   -14638.231    1515.7614 
  101200    317.72122   -14567.011    75.765328   -14642.777    9779.0129 
  101400      300.499   -14563.445    71.658434   -14635.104    3121.3964 
  101600    301.72079   -14556.673    71.949789   -14628.622     -235.602 
  101800    266.76464   -14561.693    63.613977   -14625.307   -4303.9701 
  102000     276.8885   -14578.559    66.028162   -14644.587   -5233.0451 
  102200    284.16648   -14564.278    67.763704   -14632.042    -18397.31 
  102400    309.83581   -14555.754    73.884935   -14629.639    6877.9572 
  102600    273.96536   -14568.146    65.331095   -14633.477   -4026.7391 
  102800    298.22079   -14568.124    71.115162   -14639.239   -5082.0003 
  103000    300.61639   -14552.391    71.686428   -14624.077   0.14011159 
  103200    321.44403   -14561.021    76.653089   -14637.674   -13756.033 
  103400    277.12576   -14570.467     66.08474   -14636.552   -13656.373 
  103600     327.2712   -14546.203    78.042663   -14624.245   -14306.267 
  103800    309.00986   -14564.243    73.687976   -14637.931    3214.7236 
  104000    279.07405   -14566.366    66.549339   -14632.916   -109.40559 
  104200    294.01929   -14564.009    70.113252   -14634.122    11284.326 
  104400    325.06837   -14555.537    77.517365   -14633.055   -11395.546 
  104600    277.96079   -14575.734    66.283865   -14642.018   -15824.601 
  104800    317.70133   -14558.701    75.760584   -14634.462    17081.778 
  105000    345.80363    -14552.74    82.461995   -14635.202   -2515.8591 
  105200    302.34462   -14562.646     72.09855   -14634.745    1470.3323 
  105400    311.04577   -14562.622    74.173468   -14636.795   -5662.6255 
  105600    289.48887   -14574.752    69.032906   -14643.785     -7033.66 
  105800     321.5517   -14552.847    76.678764   -14629.526   -17296.713 
  106000    308.16678   -14560.334     73.48693   -14633.821   -23965.185 
  106200    334.64919   -14562.494    79.802053   -14642.296    4639.4903 
  106400    252.57765   -14578.757    60.230879   -14638.988   -16568.989 
  106600    278.98573   -14557.101    66.528276   -14623.629   -14360.107 
  106800    331.55489   -14553.626    79.064172   -14632.691   -8591.5933 
  107000    273.62847   -14574.181     65.25076   -14639.431   -500.78977 
  107200    307.40481   -14560.718    73.305228   -14634.023   -4445.0409 
  107400    324.91584   -14553.718    77.480991   -14631.199   -11648.982 
  107600    282.15894   -14562.374    67.284975   -14629.659   -9836.7632 
  107800    295.04011   -14560.397    70.356683   -14630.754   -1154.1355 
  108000    285.58254   -14574.662    68.101384   -14642.763    10583.842 
  108200    228.40234   -14583.989     54.46592   -14638.455   -10943.339 
  108400    301.65441    -14560.47    71.933959   -14632.404   -9919.9507 
  108600    332.75096   -14551.573    79.349393   -14630.922   -30192.892 
  108800    257.67868   -14571.319    61.447296   -14632.767   -7247.2483 
  109000    317.75954   -14560.632    75.774467   -14636.407   -7467.4378 
  109200    306.33693   -14533.691    73.050576   -14606.742   -1944.9302 
  109400    289.75346   -14555.867    69.096003   -14624.963   -8089.1063 
  109600    325.48786   -14568.777    77.617398   -14646.394   -14446.897 
  109800    289.38869   -14576.189    69.009017   -14645.198   -11689.362 
  110000    289.30586   -14554.759    68.989265   -14623.749    2204.8195 
  110200    287.06404   -14564.707     68.45467   -14633.161    17960.118 
  110400    275.36269   -14577.591    65.664309   -14643.255    17486.566 
  110600    297.20711   -14566.357    70.873436    -14637.23    11833.645 
  110800    327.12311   -14546.847    78.007348   -14624.854    14594.017 
  111000    273.98895   -14561.529    65.336722   -14626.866   -3774.5198 
  111200    269.68561   -14569.225    64.310526   -14633.535   -12253.649 
  111400     302.7997   -14563.299    72.207071   -14635.506     781.3011 
  111600    326.49144   -14550.549    77.856718   -14628.406    8487.9782 
  111800    305.12707   -14577.271    72.762068   -14650.033    614.87804 
  112000    274.52187   -14570.204    65.463804   -14635.668    1348.9644 
  112200    293.60597   -14559.597    70.014691   -14629.611    8727.8138 
  112400    345.32502   -14547.919    82.347864   -14630.267    15205.726 
  112600    294.83076    -14562.46    70.306758   -14632.767    6591.8319 
  112800    272.56674   -14570.093    64.997575    -14635.09     1060.224 
  113000    324.17202   -14545.746    77.303618    -14623.05   -5983.1633 
  113200    297.66101   -14560.927    70.981674   -14631.909   -2698.1025 
  113400    283.15458   -14565.455    67.522402   -14632.977    5530.4814 
  113600    297.76889   -14553.372      71.0074   -14624.379    3398.9354 
  113800    348.78653   -14547.903    83.173313   -14631.076   -6377.7423 
  114000    340.77281   -14566.614    81.262321   -14647.876   -10130.155 
  114200    309.84747   -14566.921    73.887715   -14640.808   -7729.5665 
  114400    312.38249   -14543.114     74.49223   -14617.607    13534.066 
  114600    293.92511   -14563.812    70.090793   -14633.902    6140.8971 
  114800    254.63411   -14574.097    60.721272   -14634.818    8197.1658 
  115000    323.84221   -14552.775    77.224969       -14630     14675.29 
  115200    292.00855   -14561.103    69.633761   -14630.737   -3077.2514 
  115400     232.4215   -14577.807    55.424348   -14633.231     16114.44 
  115600    261.17439   -14567.113      62.2809   -14629.394    4711.2387 
  115800    271.03431   -14557.876    64.632143   -14622.509   -14091.503 
  116000     287.7855   -14569.174    68.626713     -14637.8   -7761.8242 
  116200    310.49286   -14564.809    74.041618    -14638.85    1777.3203 
  116400    336.16097   -14547.911    80.162559   -14628.074   -3119.4105 
  116600    274.43748   -14563.958    65.443679   -14629.401    1072.2446 
  116800    313.44576   -14564.621    74.745781   -14639.367    5643.8422 
  117000    222.42228   -14580.655    53.039886   -14633.695   -3562.1878 
  117200    292.94347   -14566.172    69.856708   -14636.028   -5266.2201 
  117400    334.49506   -14556.372    79.765299   -14636.137   -18555.142 
  117600    248.79986   -14575.595    59.330009   -14634.925    7177.5166 
  117800    310.61695   -14566.755    74.071211   -14640.826   -769.63644 
  118000    286.52325   -14557.103    68.325711   -14625.429    9723.5017 
  118200    290.38568   -14570.068    69.246763   -14639.315    2827.4962 
  118400    299.01177   -14566.314    71.303783   -14637.617    1430.8548 
  118600    339.69434   -14548.092    81.005144   -14629.097    8525.9027 
  118800    297.05149   -14565.482    70.836327   -14636.318    -929.0783 
  119000    304.76094    -14564.44    72.674757   -14637.115    -345.1106 
  119200     313.9267   -14562.861     74.86047   -14637.722    771.74291 
  119400     313.9727   -14549.791    74.871438   -14624.663    2270.9528 
  119600    287.07685   -14571.519    68.457725   -14639.976   -18231.279 
  119800    245.58561   -14568.014    58.563524   -14626.578    -16730.11 
  120000    313.68661   -14558.492    74.803215   -14633.295   -8651.5859 
  120200    309.52066   -14565.302    73.809783   -14639.112   -11896.712 
  120400    317.84123   -14572.773    75.793948   -14648.567   -18188.378 
  120600    321.05711   -14551.235    76.560822   -14627.795   -28741.026 
  120800    307.44131   -14559.064    73.313933   -14632.378   -13222.127 
  121000    310.01493    -14568.01    73.927651   -14641.938    12925.937 
  121200    288.08911   -14565.162    68.699114   -14633.861   -1796.9232 
  121400    310.00915   -14548.291    73.926271   -14622.218    -971.1422 
  121600    318.01129   -14558.638    75.834499   -14634.473   -6016.1848 
  121800    284.31359   -14570.437    67.798785   -14638.236   -4757.2874 
  122000    362.24573   -14548.716    86.382856   -14635.099    15692.131 
  122200     296.9274   -14560.569    70.806734   -14631.376    5366.4277 
  122400    262.79763   -14576.845    62.667985   -14639.513   -5522.1631 
  122600    341.69443   -14562.808    81.482096    -14644.29    13570.898 
  122800    279.56067    -14563.42    66.665381   -14630.085    463.36741 
  123000    325.23518    -14560.31    77.557143   -14637.867    1333.3603 
  123200    332.55853    -14548.06    79.303505   -14627.363    7987.3116 
  123400    264.49213    -14571.97    63.072064   -14635.042    348.26785 
  123600    304.79428   -14560.447    72.682708    -14633.13   -5779.0421 
  123800    362.74861   -14535.475    86.502775   -14621.977   -14198.803 
  124000    298.81593   -14556.356    71.257081   -14627.613    8810.3665 
  124200    294.66585   -14567.505    70.267434   -14637.772    -12304.95 
  124400    307.18368   -14557.372    73.252497   -14630.624   -1645.5779 
  124600    256.39852   -14557.501    61.142023   -14618.643    8012.3117 
  124800    286.83668   -14576.795    68.400452   -14645.196     10590.75 
  125000     271.3438   -14561.344    64.705946    -14626.05    18730.386 
  125200    319.55124   -14558.096    76.201724   -14634.297    13257.773 
  125400    291.62068   -14567.414    69.541268   -14636.955     1387.279 
  125600    289.78674    -14564.99    69.103938   -14634.094    10311.787 
  125800    330.14801   -14549.224    78.728681   -14627.952   -6855.2107 
  126000    292.75504    -14568.59    69.811774   -14638.401   -11793.374 
  126200    327.97786   -14562.369    78.211175    -14640.58   -2455.5523 
  126400    330.71204   -14538.105    78.863183   -14616.968   -16543.066 
  126600       292.48   -14563.454    69.746185     -14633.2     11942.34 
  126800    309.85213   -14562.707    73.888826   -14636.596    8559.9596 
  127000    278.27918   -14561.468    66.359791   -14627.828   -16224.389 
  127200    310.11972   -14560.319    73.952638   -14634.272   -3304.3597 
  127400    297.10314    -14575.94    70.848643   -14646.789    11365.027 
  127600    346.49478   -14554.135     82.62681   -14636.762   -6919.7671 
  127800    302.34705   -14564.703     72.09913   -14636.802    4523.5559 
  128000    309.74515   -14565.142    73.863315   -14639.005     -8238.67 
  128200    307.30898   -14536.888    73.282375   -14610.171   -2620.0357 
  128400    279.66337   -14560.617     66.68987   -14627.306    -4424.428 
  128600    301.95907   -14558.137     72.00661   -14630.144   -13290.073 
  128800    332.27299   -14543.572    79.235415   -14622.807   -22991.604 
  129000    264.54639   -14567.925    63.085002    -14631.01   -6790.8938 
  129200    289.91267   -14560.877    69.133969   -14630.011   -1518.1571 
  129400    324.94503   -14555.772    77.487953    -14633.26   -27627.967 
  129600    265.01902   -14564.764    63.197708   -14627.961    452.21126 
  129800    317.49889   -14562.562    75.712311   -14638.275    5238.0627 
  130000    278.33626   -14562.544    66.373401   -14628.918    10289.492 
  130200    286.76758   -14564.037    68.383975   -14632.421   -14361.727 
  130400    293.02229   -14556.897    69.875503   -14626.773   -2278.8057 
  130600    287.27844   -14544.084    68.505798    -14612.59    2782.4025 
  130800    298.06924   -14565.287    71.079024   -14636.366    3160.5631 
  131000    308.75904   -14562.915    73.628163   -14636.543   -537.95846 
  131200    336.84317   -14539.349    80.325241   -14619.674   -3329.8815 
  131400    384.92508   -14548.098    91.791084   -14639.889    5732.5781 
  131600    286.03119   -14567.054    68.208373   -14635.263    5021.5248 
  131800    298.14197   -14572.959    71.096366   -14644.055    569.76219 
  132000    318.24482   -14551.563     75.89019   -14627.453    603.78565 
  132200    296.65895   -14562.049    70.742719   -14632.792   -5251.8523 
  132400    309.50317   -14569.195    73.805612   -14643.001     6052.885 
  132600    307.42932   -14558.761    73.311073   -14632.072     2344.717 
  132800    286.77027   -14546.036    68.384617    -14614.42    720.78307 
  133000    315.72422   -14550.896    75.289114   -14626.185   -6861.9611 
  133200    305.62453   -14564.009    72.880694    -14636.89    -7136.288 
  133400    317.28099   -14569.901    75.660348   -14645.561    946.50727 
  133600    317.36739   -14557.218    75.680952   -14632.899   -562.12667 
  133800    349.68128   -14552.912    83.386678   -14636.298   -2983.2296 
  134000    275.98443    -14575.96    65.812574   -14641.773   -2685.2232 
  134200    297.01814   -14560.863    70.828373   -14631.692   -18386.518 
  134400     280.6384   -14546.852    66.922382   -14613.775     22014.23 
  134600    289.85977   -14564.543    69.121353   -14633.664    782.63727 
  134800     290.9018   -14565.309     69.36984   -14634.679    6897.1019 
  135000    355.19753   -14541.785    84.702109   -14626.487   -4180.9601 
  135200    295.90588   -14554.922    70.563138   -14625.485    -2520.807 
  135400    306.53959   -14563.585    73.098903   -14636.684   -997.21711 
  135600    290.75781   -14569.918    69.335504   -14639.254    5381.0228 
  135800    293.89403   -14560.261    70.083382   -14630.345   -3853.8499 
  136000    340.93424   -14551.608    81.300816   -14632.909    7444.4415 
  136200    271.86597   -14573.356    64.830465   -14638.186   -12657.735 
  136400    294.82789   -14566.174    70.306074    -14636.48   -10005.405 
  136600    304.59365    -14553.99    72.634865   -14626.625     12374.97 
  136800    321.11386   -14558.347    76.574353   -14634.921    -2184.302 
  137000    305.42275   -14570.359    72.832577   -14643.191    5385.2334 
  137200    328.49128   -14555.384    78.333609   -14633.717     10970.47 
  137400    340.82192    -14549.76    81.274032   -14631.034    4487.7005 
  137600    298.56404   -14572.683    71.197015    -14643.88   -15982.091 
  137800     300.3194   -14561.979    71.615608   -14633.594   -9712.9932 
  138000    331.35035   -14537.265    79.015396   -14616.281   -8908.8571 
  138200    307.53291   -14549.231    73.335775   -14622.567    9801.1616 
  138400       314.84   -14567.459     75.07826   -14642.537    21355.408 
  138600    299.35342    -14566.73    71.385255   -14638.116    3419.8879 
  138800    324.82826   -14547.691    77.460107   -14625.151    20791.306 
  139000    352.82898   -14556.545    84.137294   -14640.682    2816.2303 
  139200    350.84396    -14564.68    83.663935   -14648.344   -10271.322 
  139400    340.68778   -14547.224    81.242046   -14628.466    2838.0123 
  139600    322.53587   -14552.919    76.913454   -14629.832   -193.99576 
  139800    299.36827   -14563.701    71.388797    -14635.09    1443.5305 
  140000    324.04333   -14558.211     77.27293   -14635.484    6077.7257 
  140200    346.96655   -14564.022     82.73931   -14646.761   -4611.9112 
  140400    292.25187   -14572.284    69.691785   -14641.975   -15725.208 
  140600    304.30126   -14557.907     72.56514   -14630.473   -1432.1149 
  140800    281.78302    -14569.36    67.195333   -14636.555    1757.0519 
  141000    280.60419   -14574.093    66.914222   -14641.007    16962.998 
  141200    306.69697   -14552.054    73.136432    -14625.19    11758.017 
  141400    308.59027   -14564.728    73.587919   -14638.315    10124.189 
  141600    253.60706   -14577.545    60.476358   -14638.021   -6377.0022 
  141800    315.63802   -14563.052    75.268559    -14638.32    8598.5554 
  142000    311.21532   -14557.099      74.2139   -14631.313   -954.66763 
  142200    299.08451   -14560.931     71.32113   -14632.252     6527.288 
  142400    297.49246   -14572.382    70.941482   -14643.323   -10476.601 
  142600    320.95089   -14557.411    76.535491   -14633.947    -15586.63 
  142800    341.19181   -14528.362    81.362237   -14609.724   -9010.8152 
  143000    304.23358   -14558.852       72.549   -14631.401    10255.946 
  143200      276.128   -14572.308     65.84681   -14638.155    18650.673 
  143400    291.33097   -14548.983    69.472183   -14618.455    4560.5252 
  143600    318.45584   -14553.768     75.94051   -14629.709    3600.6444 
  143800    265.19666   -14565.555    63.240069   -14628.795    3392.1474 
  144000    296.43596   -14556.616    70.689543   -14627.305   -9161.2435 
  144200     337.6802   -14553.396    80.524842   -14633.921    397.13479 
  144400    305.24033   -14570.024    72.789074   -14642.813   -3247.2616 
  144600    324.09963   -14549.767    77.286355   -14627.054   -15510.335 
  144800    296.62786   -14559.231    70.735303   -14629.967    10326.746 
  145000    282.19407   -14571.938    67.293353   -14639.232    4198.1617 
  145200    348.83189   -14552.925    83.184129   -14636.109   -9736.1382 
  145400    286.70837   -14562.136    68.369855   -14630.506   -1380.3609 
  145600    293.97344   -14562.885    70.102319   -14632.987   -9394.4592 
  145800    265.89204   -14560.749    63.405893   -14624.155    6681.4546 
  146000    299.88447   -14563.285    71.511891   -14634.797    11439.211 
  146200    274.78114   -14563.207    65.525632   -14628.733   -8767.1958 
  146400    310.46663   -14561.253    74.035364   -14635.288    1701.8228 
  146600    304.49371    -14550.63    72.611034   -14623.241    2638.8071 
  146800    257.50684   -14575.634    61.406319    -14637.04   -2027.9583 
  147000    308.25321   -14558.698    73.507541   -14632.205   -8651.5525 
  147200    352.70212   -14559.573    84.107041    -14643.68   -1662.9671 
  147400    224.64554   -14585.212    53.570054   -14638.782   -9678.4034 
  147600    296.20359   -14571.842    70.634131   -14642.476    -5756.274 
  147800    303.74695    -14553.14    72.432958   -14625.573    9327.7867 
  148000    319.85775   -14566.931    76.274816   -14643.206    12252.142 
  148200    318.62998   -14573.128    75.982035    -14649.11    3106.8818 
  148400    313.36455   -14556.817    74.726415   -14631.544     -2504.16 
  148600    267.88029   -14566.909    63.880021   -14630.789   -6799.7249 
  148800     287.2249   -14576.887    68.493029    -14645.38   -4227.4071 
  149000    312.76404   -14559.796    74.583216   -14634.379   -1940.2711 
  149200    305.04641   -14561.742    72.742832   -14634.485   -11707.514 
  149400    245.31122   -14582.004    58.498092   -14640.502    3563.9766 
  149600    307.66726   -14562.467    73.367812   -14635.835   -3349.6751 
  149800    347.87123   -14560.145    82.955044     -14643.1    1369.7828 
  150000    254.65146   -14573.191    60.725411   -14633.917   -6842.0728 
  150200    315.50578    -14558.49    75.237023   -14633.727   -9038.8104 
  150400    299.59981   -14553.947    71.444011   -14625.391    12952.555 
  150600    263.57054    -14575.22    62.852298   -14638.072   -3338.4495 
  150800    290.90967   -14565.732    69.371718   -14635.103   -2411.8935 
  151000    343.03291   -14552.172    81.801275   -14633.973   -2740.3743 
  151200    345.05699   -14562.805    82.283947   -14645.089    9179.7585 
  151400    301.32368   -14569.227    71.855092   -14641.082   -12179.125 
  151600     328.2811   -14545.898    78.283489   -14624.181   -6799.2601 
  151800    321.81822   -14556.521    76.742319   -14633.263    6388.5338 
  152000    271.39837   -14570.469    64.718959   -14635.188   -149.44917 
  152200    281.99683   -14569.779     67.24632   -14637.025    3808.5626 
  152400    350.74827   -14549.162    83.641116   -14632.803   -2520.0026 
  152600    340.31585   -14566.531    81.153352   -14647.685    4115.1288 
  152800    273.84665    -14578.65    65.302787   -14643.953   -6158.2585 
  153000     289.4665   -14555.073    69.027571   -14624.101   -31206.508 
  153200    270.73867   -14560.693    64.561643   -14625.255    -17683.32 
  153400    273.37948   -14576.206    65.191383   -14641.397    4269.8848 
  153600    326.22864   -14561.057    77.794048   -14638.851   -3913.2078 
  153800    288.75406   -14561.487    68.857681   -14630.345   -3438.3799 
  154000    285.78566   -14562.516    68.149822   -14630.666   -18252.641 
  154200    319.27185   -14553.356      76.1351   -14629.491    9352.8942 
  154400    278.74429   -14569.279    66.470702    -14635.75    6214.0124 
  154600    287.78709   -14554.292    68.627092    -14622.92    5402.2893 
  154800    355.77696   -14554.692    84.840283   -14639.532    7010.2377 
  155000    284.29108     -14571.3    67.793417   -14639.093    16910.253 
  155200    301.94981   -14552.336    72.004401    -14624.34   -2143.6804 
  155400    289.65947   -14555.437    69.073589    -14624.51   -1791.4021 
  155600    298.41398   -14572.301    71.161231   -14643.462   -2467.9572 
  155800    329.80598   -14553.174    78.647118   -14631.821   -6678.5699 
  156000    354.64182   -14554.965    84.569593   -14639.535   -4960.8104 
  156200    271.29439   -14573.424    64.694164   -14638.118   -9892.4441 
  156400    308.69593   -14557.595    73.613115   -14631.208     6721.027 
  156600    307.48557   -14548.172    73.324486   -14621.496    5233.2395 
  156800     293.0227    -14567.74    69.875601   -14637.616    7148.0836 
  157000    279.84479   -14566.189    66.733134   -14632.922   -20293.801 
  157200    326.96743   -14547.037    77.970223   -14625.007   -4340.5661 
  157400    348.78295   -14543.825    83.172459   -14626.997    9803.8537 
  157600    298.96155   -14566.558    71.291808    -14637.85    2644.7177 
  157800    291.09824   -14567.313    69.416686    -14636.73     1130.478 
  158000    270.99957   -14562.363     64.62386   -14626.987    1260.7462 
  158200     311.1151   -14542.221        74.19   -14616.411    7516.0823 
  158400    354.63787   -14565.652     84.56865   -14650.221   -1611.3542 
  158600    273.76587   -14567.444    65.283525   -14632.727    -12684.05 
  158800    334.99503   -14546.218    79.884525   -14626.103   -18608.188 
  159000     319.5888   -14555.965    76.210681   -14632.176   -16892.522 
  159200    281.06811   -14568.147    67.024853   -14635.172   -18500.924 
  159400    319.19685   -14550.082    76.117213     -14626.2    7505.1923 
  159600    314.06189   -14546.785    74.892707   -14621.677    19923.587 
  159800     299.7012   -14564.243    71.468189   -14635.712    10093.712 
  160000    290.15862   -14567.172    69.192618   -14636.364    7798.1537 
  160200    298.41587   -14543.524    71.161681   -14614.686    21713.148 
  160400    272.37048    -14563.83    64.950774    -14628.78    3471.4171 
  160600     256.3626   -14569.461    61.133457   -14630.594   -2912.8599 
  160800    302.84059   -14558.757    72.216822   -14630.974   -16103.174 
  161000    325.48197   -14551.931    77.615995   -14629.547    3135.8717 
  161200     269.6949   -14572.884     64.31274   -14637.196    8323.8092 
  161400    287.02399    -14554.54    68.445119   -14622.985    13399.584 
  161600    299.52793   -14559.364    71.426869   -14630.791    11662.231 
  161800    257.42164   -14573.927       61.386   -14635.313    13095.026 
  162000    334.89663   -14555.583    79.861059   -14635.445    9152.5463 
  162200    302.75695   -14560.988    72.196878   -14633.185    12118.842 
  162400    288.21482   -14562.472    68.729091   -14631.201    938.68531 
  162600    255.96839   -14569.918    61.039453   -14630.958   -10663.114 
  162800    267.54013   -14572.165    63.798904   -14635.964   -9033.9505 
  163000     315.0711   -14550.532    75.133368   -14625.665   -3454.5517 
  163200    280.43625   -14570.709    66.874175   -14637.584    6516.4539 
  163400    271.73954    -14568.19    64.800316   -14632.991   -6190.2333 
  163600    307.00974   -14554.623    73.211017   -14627.834   -1417.7575 
  163800    274.87771   -14572.123    65.548659   -14637.672    13009.913 
  164000    303.60216   -14565.915    72.398431   -14638.313    2719.4307 
  164200     317.5972   -14542.325    75.735754   -14618.061    2996.5444 
  164400    314.20479   -14561.849    74.926784   -14636.776    2370.1938 
  164600    307.73134   -14564.229    73.383093   -14637.612   -13304.186 
  164800    261.27952   -14572.298     62.30597   -14634.604    3008.0616 
  165000    313.04059   -14551.824    74.649162   -14626.473    11800.205 
  165200    315.56187   -14566.029    75.250399   -14641.279   -6520.5053 
  165400    309.90774   -14568.843    73.902088   -14642.746   -16032.666 
  165600    321.01389   -14555.959    76.550515   -14632.509   -601.10316 
  165800    274.65405   -14572.934    65.495325   -14638.429     4348.121 
  166000    338.26212   -14564.386    80.663611    -14645.05   -9704.6248 
  166200    312.28131   -14555.511    74.468102   -14629.979    967.73244 
  166400    269.83279   -14563.718    64.345624   -14628.064    -1037.375 
  166600     295.0764    -14561.58    70.365336   -14631.945    3242.3909 
  166800    283.33701   -14563.997    67.565904   -14631.563   -8515.5507 
  167000     293.3249   -14569.976    69.947664   -14639.923   -6734.3896 
  167200     295.2552   -14549.765    70.407974   -14620.173   -6596.6361 
  167400    256.64849    -14564.43    61.201632   -14625.632    8203.8009 
  167600    269.89768   -14569.959    64.361098    -14634.32   -4220.9633 
  167800    290.70419   -14554.352    69.322717   -14623.675    -5022.373 
  168000    379.59988   -14527.053    90.521212   -14617.574   -10722.023 
  168200    347.44402   -14555.128    82.853171   -14637.982   -6171.7077 
  168400    290.91068    -14567.12    69.371958   -14636.492   -1299.8819 
  168600    303.53061   -14549.542    72.381367   -14621.924    5379.1431 
  168800    258.88985    -14571.21    61.736118   -14632.946    8427.2213 
  169000    334.67358   -14564.702     79.80787    -14644.51   -6125.5047 
  169200    342.33608   -14554.225    81.635106    -14635.86   -813.96045 
  169400    297.14244   -14576.319    70.858014   -14647.177    18586.995 
  169600    291.47571   -14560.492    69.506699   -14629.999    6196.0888 
  169800    285.08391    -14561.51    67.982478   -14629.492    438.64588 
  170000    313.84692   -14559.384    74.841444   -14634.226    16527.025 
  170200    326.49069   -14548.754    77.856538    -14626.61    297.79772 
  170400    296.74882   -14569.236     70.76415       -14640   -7008.1136 
  170600     304.7578   -14558.511    72.674009   -14631.185   -2463.9201 
  170800    315.55279   -14538.903    75.248235   -14614.151   -10.608494 
  171000    318.33773   -14561.743    75.912344   -14637.656   -10694.763 
  171200     321.0656   -14566.545    76.562845   -14643.108    7672.3756 
  171400    328.92761   -14553.428    78.437658   -14631.866    13111.557 
  171600    320.46554    -14553.26    76.419753    -14629.68   -12746.584 
  171800    265.12664    -14569.48    63.223372   -14632.704    8120.3176 
  172000    319.87665   -14551.708    76.279324   -14627.987    791.81505 
  172200    297.18637   -14556.855    70.868491   -14627.723    8593.6284 
  172400    273.84272   -14567.288    65.301851    -14632.59    12519.156 
  172600    303.39642   -14550.988    72.349368   -14623.338    905.66249 
  172800    311.46451   -14566.005    74.273324   -14640.278   -2038.6746 
  173000    329.00666   -14566.843     78.45651     -14645.3   -3701.0176 
  173200    272.70547    -14551.23    65.030657   -14616.261     6225.699 
  173400    300.04257   -14564.654    71.549593   -14636.204   -12286.442 
  173600    271.25488   -14583.633    64.684741   -14648.318   -15245.182 
  173800    308.40315   -14562.619    73.543297   -14636.162   -15678.623 
  174000    355.18464   -14550.729    84.699035   -14635.428   -7021.8961 
  174200    287.64184   -14570.425    68.592454   -14639.018   -616.39598 
  174400    304.30229   -14556.249    72.565386   -14628.814    5403.3903 
  174600    320.47904   -14550.223    76.422972   -14626.646    3411.2734 
  174800    282.74386   -14565.571    67.424458   -14632.995    3946.4703 
  175000      326.752    -14551.83    77.918851   -14629.748   -8225.4278 
  175200    310.94064   -14546.806    74.148399   -14620.955   -4492.2797 
  175400    304.46111   -14562.409    72.603259   -14635.013    1264.2491 
  175600    272.01676   -14559.082    64.866424   -14623.948   -12682.376 
  175800    331.57804   -14561.437    79.069692   -14640.506   -8124.1054 
  176000    257.64565   -14576.359    61.439419   -14637.799    2084.1617 
  176200    331.96722   -14555.206    79.162499   -14634.368   -2569.5243 
  176400    278.41927   -14566.813    66.393196   -14633.206    6122.2775 
  176600    249.86537   -14577.825    59.584097   -14637.409   -607.03329 
  176800    341.72099     -14551.3    81.488429   -14632.788    15675.102 
  177000    309.45294   -14563.036    73.793635    -14636.83    10226.026 
  177200    270.66074   -14577.301    64.543059   -14641.844    -15137.28 
  177400    306.31844   -14563.403    73.046167   -14636.449   -6106.9012 
  177600    276.90071   -14552.952    66.031073   -14618.983   -2776.0528 
  177800    317.36529   -14564.443    75.680452   -14640.123    1631.2162 
  178000    298.63992   -14568.266    71.215109   -14639.481    16499.627 
  178200    388.83892   -14544.064    92.724397   -14636.789   -13989.609 
  178400    321.18972   -14560.466    76.592444   -14637.059   -2323.1198 
  178600    309.37803   -14564.369     73.77577   -14638.144   -4542.5685 
  178800    279.75198   -14545.013    66.711001   -14611.724    1502.8946 
  179000    304.20494   -14559.305    72.542172   -14631.847   -262.45406 
  179200    337.30912   -14563.032    80.436354   -14643.468   -13771.413 
  179400    314.32757   -14553.774    74.956063    -14628.73   -10450.128 
[...]
  950000    307.06014   -14570.779    73.223037   -14644.002    2461.2413 
  950200    330.62079   -14548.264    78.841421   -14627.106    14014.042 
  950400    295.96588   -14569.048    70.577446   -14639.626   -7836.4912 
  950600     259.3505    -14564.45    61.845967   -14626.296    -6405.399 
  950800    349.40827   -14544.766    83.321575   -14628.088   -16506.665 
  951000    317.68388   -14563.775    75.756424   -14639.531    3086.3911 
  951200    274.14451   -14565.837    65.373818   -14631.211    2701.9298 
  951400    290.08746   -14562.101    69.175649   -14631.277   -652.73823 
  951600    346.17484   -14559.342    82.550516   -14641.893     1345.888 
  951800    317.01908   -14546.071    75.597893   -14621.669    -4089.657 
  952000    314.36236    -14565.84    74.964359   -14640.805   -972.41171 
  952200    303.19636   -14566.544    72.301662   -14638.845    2641.9735 
  952400    323.98684   -14545.605    77.259459   -14622.864    4898.0387 
  952600      299.285   -14573.393     71.36894   -14644.762     2758.768 
  952800    313.72664   -14552.965    74.812762   -14627.778   -1004.8901 
  953000    278.22536   -14560.007    66.346956   -14626.353   -8421.9986 
  953200    268.99126   -14569.767    64.144947   -14633.912   -11665.394 
  953400    316.30737   -14561.214    75.428175   -14636.642    14495.971 
  953600    309.97949   -14558.865    73.919198   -14632.784    3524.0684 
  953800    292.85854   -14558.166    69.836454   -14628.003     7930.302 
  954000    286.06479   -14570.676    68.216383   -14638.892   -1207.5513 
  954200    281.82419    -14577.14    67.205151   -14644.345    -7528.808 
  954400    357.01165   -14552.877    85.134714   -14638.012    1920.3055 
  954600    335.00846   -14565.972    79.887727    -14645.86    6499.4427 
  954800    266.15089   -14582.795     63.46762   -14646.263    18368.353 
  955000    281.72817   -14563.084    67.182252   -14630.266    655.18115 
  955200     330.2804   -14554.488    78.760252   -14633.248   -8728.8077 
  955400    274.56403   -14571.419    65.473858   -14636.893   -916.32731 
  955600    258.99359   -14573.563    61.760856   -14635.324    1637.2563 
  955800    305.89729   -14550.938    72.945737   -14623.884   -4664.7223 
  956000    282.54924    -14570.62    67.378048   -14637.998   -3529.0272 
  956200    311.87496   -14567.164      74.3712   -14641.535   -3381.8078 
  956400    376.04117   -14544.443    89.672584   -14634.115    6966.6315 
  956600    300.34399   -14565.752    71.621471   -14637.373   -773.42478 
  956800    300.97081   -14564.561    71.770945   -14636.332    11223.196 
  957000    300.64893   -14547.362    71.694187   -14619.056   -5399.9096 
  957200    286.00359   -14565.393     68.20179   -14633.595   -15329.806 
  957400    310.60082   -14556.167    74.067364   -14630.234    2812.0214 
  957600    316.86982   -14562.968    75.562299   -14638.531    251.84312 
  957800    308.73766   -14572.369    73.623066   -14645.992   -906.88896 
  958000    320.04937   -14551.981     76.32051   -14628.302   -5239.0032 
  958200    310.46464   -14565.096     74.03489   -14639.131    12227.308 
  958400     299.6326   -14569.057     71.45183   -14640.508   -1324.6938 
  958600    325.55172   -14551.847    77.632628   -14629.479   -6087.1313 
  958800    338.04861   -14551.482    80.612696   -14632.095   -8394.3802 
  959000    334.68963   -14561.757    79.811697   -14641.569   -14922.164 
  959200    257.92589   -14573.655    61.506248   -14635.161     -12405.2 
  959400    288.03232   -14561.505     68.68557   -14630.191   -5158.3988 
  959600    307.17876   -14553.691    73.251323   -14626.942    19720.755 
  959800    255.54212   -14576.966    60.937801   -14637.904   -13183.682 
  960000    299.11207   -14568.436    71.327701   -14639.764   -1257.4194 
  960200    316.95735   -14561.313    75.583173   -14636.896   -2875.9743 
  960400    278.20643    -14567.99    66.342442   -14634.333   -8564.8755 
  960600    273.46105   -14573.552    65.210835   -14638.763   -880.40204 
  960800    295.33697   -14552.603    70.427473    -14623.03   -13709.906 
  961000    286.68353   -14567.442    68.363933   -14635.806     3247.657 
  961200    311.14532   -14565.407    74.197208   -14639.604   -7179.3611 
  961400    297.44247   -14557.345     70.92956   -14628.274   -1805.8292 
  961600    281.70259   -14542.095    67.176154   -14609.271   -4294.0673 
  961800    267.08873   -14568.508    63.691261     -14632.2     12126.98 
  962000    275.37457   -14560.443    65.667142    -14626.11   -5889.2161 
  962200    350.97235   -14548.341    83.694552   -14632.035    3066.4597 
  962400    283.39639   -14564.375    67.580065   -14631.955   -4225.6045 
  962600    356.16334   -14562.166    84.932422   -14647.098    9792.0118 
  962800    275.67855   -14576.499    65.739631   -14642.239    8423.7694 
  963000    302.44046   -14558.769    72.121404    -14630.89    219.64101 
  963200    292.73384   -14558.117    69.806717   -14627.924   -4476.8587 
  963400    291.58435   -14566.032    69.532604   -14635.564    6071.8298 
  963600    282.69558   -14563.235    67.412945   -14630.647   -13463.106 
  963800    298.31548   -14554.329    71.137741   -14625.466    -11879.16 
  964000    280.86027    -14568.35    66.975289   -14635.325    9865.6231 
  964200    294.40355   -14575.313    70.204884   -14645.518   -5198.0062 
  964400    349.06536   -14554.714    83.239804   -14637.954   -6964.8958 
  964600     277.1508    -14565.37    66.090711   -14631.461    3719.2065 
  964800    287.02791   -14572.376    68.446054   -14640.822    6262.6105 
  965000    276.87774    -14571.62    66.025596   -14637.646   -1561.1688 
  965200    305.17273   -14556.081    72.772956   -14628.854    5885.6342 
  965400    256.23487   -14572.487    61.102998    -14633.59   -4594.4052 
  965600    296.23199   -14571.793    70.640903   -14642.434    6724.4664 
  965800    300.47075   -14555.433    71.651698   -14627.085   -366.28997 
  966000    270.60747    -14559.91    64.530358    -14624.44   -15076.726 
  966200    286.48203   -14574.914     68.31588    -14643.23   -8781.1034 
  966400    278.04278   -14553.245    66.303418   -14619.549    7025.3885 
  966600    292.40344   -14563.651    69.727928   -14633.379     7790.313 
  966800    287.51926   -14570.288    68.563224   -14638.851    4918.7742 
  967000     355.4782    -14544.99    84.769039   -14629.759   -17087.549 
  967200    328.69003   -14562.724    78.381003   -14641.105    -9242.903 
  967400    305.99611   -14564.702    72.969304   -14637.672    10669.972 
  967600    306.46202   -14555.108    73.080405   -14628.189     9728.441 
  967800    348.20746   -14538.517    83.035223   -14621.552   -14084.958 
  968000    340.05307   -14561.221    81.090689   -14642.311   -7651.3746 
  968200    321.78668    -14556.62    76.734797   -14633.355    14317.731 
  968400    288.55923   -14561.424     68.81122   -14630.235    11234.069 
  968600    312.91916   -14569.662    74.620207   -14644.282    4855.5946 
  968800    368.92398   -14547.204    87.975385   -14635.179    1286.1432 
  969000    347.90395   -14563.394    82.962848   -14646.357   -10261.756 
  969200    295.84119   -14562.708    70.547711   -14633.256   -25578.706 
  969400    302.20314   -14556.627    72.064813   -14628.691   -22512.013 
  969600    270.31652   -14573.859    64.460977    -14638.32   -4502.5411 
  969800     319.6567   -14553.828    76.226873   -14630.055    19293.886 
  970000    321.61331    -14555.04    76.693454   -14631.734    18290.667 
  970200    299.55962   -14571.679    71.434426   -14643.113    9741.2696 
  970400    249.38091   -14572.088    59.468569   -14631.557    3754.0456 
  970600    300.79609    -14557.88    71.729281    -14629.61   -4.0124891 
  970800     287.4784   -14566.532     68.55348   -14635.086   -688.02977 
  971000    271.38877   -14582.854    64.716669   -14647.571    8095.4308 
  971200    303.26274   -14563.637     72.31749   -14635.954   -13578.129 
  971400    290.24586   -14559.959    69.213423   -14629.173   -3001.9545 
  971600    256.07909   -14574.716    61.065849   -14635.782    8208.0728 
  971800    322.40803   -14562.742    76.882968   -14639.625    1105.3395 
  972000    349.83534   -14548.947    83.423415    -14632.37    6846.4897 
  972200    300.81874   -14566.862    71.734682   -14638.597    3526.9499 
  972400    331.65223   -14550.475    79.087383   -14629.563    30747.859 
  972600    356.22873   -14548.898    84.948014   -14633.846    6641.5206 
  972800    285.48384    -14569.03    68.077849   -14637.108   -2255.6576 
  973000    322.01213   -14564.946    76.788558   -14641.734    7924.3506 
  973200    354.32599   -14535.713    84.494278   -14620.208    9587.4905 
  973400    307.25576   -14560.145    73.269685   -14633.415    4811.4142 
  973600    296.51016   -14570.409    70.707237   -14641.117    12842.365 
  973800    303.49898   -14556.122    72.373825   -14628.496    4087.5362 
  974000    299.99353    -14553.28    71.537899   -14624.818    15534.639 
  974200    301.94981    -14563.76    72.004402   -14635.765   -7129.0826 
  974400    290.98474    -14563.81     69.38962     -14633.2    826.82152 
  974600    306.02477   -14558.617    72.976136   -14631.593    3549.6273 
  974800    308.24386   -14546.619    73.505313   -14620.124    19272.751 
  975000    271.81638   -14573.563    64.818639   -14638.382    10287.483 
  975200    296.12076   -14561.958    70.614378   -14632.572   -9183.4672 
  975400    302.53316   -14562.889     72.14351   -14635.033   -4919.6596 
  975600    314.00701   -14576.103    74.879621   -14650.983    8611.1916 
  975800    356.14316   -14552.656     84.92761   -14637.583   -5042.3838 
  976000    319.30693   -14559.813    76.143464   -14635.957   -9019.7751 
  976200    313.05872   -14556.308    74.653486   -14630.962   -8262.0219 
  976400    303.77923   -14550.714    72.440655   -14623.155   -3458.4054 
  976600    273.45527   -14561.496    65.209457   -14626.705    -7686.648 
  976800    304.57796   -14559.463    72.631124   -14632.095    5949.3668 
  977000     361.3286    -14550.72    86.164155   -14636.884    4123.4189 
  977200    295.20023   -14570.116    70.394864   -14640.511   -12325.455 
  977400    289.03981   -14559.787    68.925821   -14628.713   -3923.9664 
  977600    360.74157   -14547.786    86.024169   -14633.811    10084.079 
  977800    352.64618   -14562.088    84.093701   -14646.182    552.04928 
  978000    273.36564   -14575.713    65.188084   -14640.901   -7286.0701 
  978200    313.33152   -14552.658    74.718539   -14627.377     3846.612 
  978400    324.12925   -14560.218    77.293417   -14637.512     12925.68 
  978600     271.2342   -14575.709    64.679811   -14640.389   -6856.4684 
  978800    316.84969   -14556.017      75.5575   -14631.575   -15843.856 
  979000     294.5994    -14563.82    70.251589   -14634.071   -2785.1416 
  979200    245.64548   -14577.511    58.577802   -14636.088   -5381.5108 
  979400    281.40994    -14554.58    67.106366   -14621.687    3709.2566 
  979600    326.05966   -14562.574    77.753754   -14640.328    5153.4406 
  979800    241.75983   -14588.093    57.651212   -14645.744    5148.4054 
  980000    296.33304   -14568.263    70.664999   -14638.928    -11144.02 
  980200    338.20687   -14552.714    80.650435   -14633.364   -1097.4521 
  980400    317.26957   -14555.149    75.657626   -14630.807   -9663.0867 
  980600    299.64458     -14571.5    71.454685   -14642.954    17146.758 
  980800     303.3194   -14552.866       72.331   -14625.197    11839.288 
  981000    288.45086   -14558.489    68.785377   -14627.274    12674.066 
  981200    271.37045   -14573.395    64.712302   -14638.107    12074.718 
  981400    259.23227   -14579.893    61.817773   -14641.711   -7621.8289 
  981600     287.4057   -14556.319    68.536144   -14624.855   -10852.796 
  981800    264.01955   -14566.493    62.959371   -14629.452   -17939.061 
  982000    259.28563   -14590.137    61.830498   -14651.968   -8910.3804 
  982200    230.11731   -14579.397     54.87488   -14634.272    15604.958 
  982400    309.00968   -14559.471    73.687933   -14633.159    -5881.688 
  982600    289.00487   -14550.439     68.91749   -14619.356    550.84831 
  982800    262.28703   -14573.604    62.546226    -14636.15   -4625.2286 
  983000    295.10626   -14565.158    70.372457    -14635.53    4773.2318 
  983200    288.50807   -14556.077     68.79902   -14624.876   -798.25793 
  983400     358.9124   -14551.278    85.587974   -14636.866   -3470.1531 
  983600    271.40455   -14573.416    64.720433   -14638.137    338.14588 
  983800     308.1293   -14564.897    73.477992   -14638.375      1314.89 
  984000    324.22143   -14555.987      77.3154   -14633.303    12549.282 
  984200    293.00283   -14567.015    69.870863   -14636.885    16546.365 
  984400    307.95535    -14561.92    73.436513   -14635.356    11464.807 
  984600    304.68926   -14559.749    72.657665   -14632.406    696.83762 
  984800    307.40314    -14573.42     73.30483   -14646.725    11214.297 
  985000    304.65853   -14553.089    72.650336   -14625.739    24059.899 
  985200    285.18788   -14560.714    68.007272   -14628.722    2674.1479 
  985400    304.56891   -14563.571    72.628966     -14636.2    9148.5144 
  985600    305.30316   -14561.085    72.804059   -14633.889     3504.931 
  985800    284.67908   -14570.658    67.885942   -14638.544    8703.4409 
  986000    284.73263   -14570.988     67.89871   -14638.886    -5102.033 
  986200    306.16896   -14557.202    73.010521   -14630.213   -12988.828 
  986400    279.80854   -14565.838    66.724489   -14632.562   -4830.1066 
  986600    331.87645   -14570.416    79.140853   -14649.557   -11850.328 
  986800    314.08949   -14552.324    74.899289   -14627.223   -3393.5471 
  987000    277.67125   -14561.732     66.21482   -14627.947   -25003.247 
  987200    290.70456   -14573.849    69.322807   -14643.172    -10198.06 
  987400    320.20543   -14560.698    76.357725   -14637.056   -8994.4938 
  987600    275.03793   -14560.752    65.586867   -14626.339    17379.783 
  987800    265.80948   -14579.827    63.386205   -14643.213    8735.8941 
  988000     293.5937   -14561.182    70.011764   -14631.193     10958.11 
  988200     318.8193   -14563.819    76.027182   -14639.847    5348.0454 
  988400    260.84019   -14585.342    62.201206   -14647.544    9119.7507 
  988600    285.03889   -14565.171    67.971743   -14633.143   -19292.947 
  988800    282.80498   -14558.457    67.439034   -14625.896   -2890.3639 
  989000    289.13455   -14570.825    68.948413   -14639.773    3413.0565 
  989200    347.47686   -14555.136    82.861001   -14637.997   -15722.976 
  989400     303.0629   -14561.803    72.269834   -14634.073   -5745.7581 
  989600    277.57688   -14571.377    66.192316    -14637.57     5208.918 
  989800     302.8836   -14560.003    72.227079    -14632.23    3685.5284 
  990000      268.836   -14573.636    64.107925   -14637.744   -3086.3283 
  990200    268.88023   -14577.611    64.118472   -14641.729    11632.026 
  990400    285.99345   -14561.826    68.199372   -14630.026    987.51535 
  990600    279.82012   -14561.394     66.72725   -14628.121   -2685.4393 
  990800    249.34441   -14573.418    59.459866   -14632.877    5209.7098 
  991000    327.24337    -14557.42    78.036026   -14635.456    -5579.357 
  991200    301.57166   -14549.288    71.914226   -14621.202   -4097.8047 
  991400    274.18202   -14561.698    65.382763   -14627.081   -4939.6363 
  991600    298.08707    -14566.69    71.083276   -14637.773    5784.9282 
  991800    319.66827   -14560.136    76.229632   -14636.366    14476.656 
  992000    325.55389   -14555.461    77.633145   -14633.094   -5937.5913 
  992200    299.93277   -14567.161     71.52341   -14638.684   -9222.0455 
  992400    287.80611   -14561.476    68.631626   -14630.107   -397.57865 
  992600    327.39174   -14560.688    78.071408   -14638.759   -10865.868 
  992800    308.18923   -14564.493    73.492285   -14637.985   -2807.7365 
  993000     293.6426   -14560.364    70.023425   -14630.387   -9844.8932 
  993200    332.81286   -14550.371    79.364153   -14629.735    7183.7243 
  993400    261.35395   -14568.988    62.323717   -14631.311    -18565.03 
  993600    340.57615   -14554.585    81.215424   -14635.801   -5293.5018 
  993800    296.78414    -14558.71    70.772572   -14629.483   -12719.129 
  994000    246.21738   -14577.759    58.714178   -14636.473   -4126.1035 
  994200      255.553   -14558.893    60.940396   -14619.833    5574.1134 
  994400    294.39059   -14562.457    70.201794   -14632.659    15728.242 
  994600    269.05689   -14580.781    64.160599   -14644.942   -12035.467 
  994800    291.23864    -14562.83    69.450165   -14632.281   -7515.1091 
  995000    328.99399   -14557.715    78.453487   -14636.168   -12012.165 
  995200    267.35559   -14583.389    63.754897   -14647.144   -3912.8057 
  995400    258.16189   -14580.036    61.562525   -14641.599   -361.61301 
  995600    293.25423   -14560.699    69.930813    -14630.63   -9873.0186 
  995800    328.64902   -14554.317    78.371224   -14632.688    13525.932 
  996000    271.85786   -14576.784    64.828532   -14641.612   -9961.6671 
  996200    283.92069   -14563.022    67.705092   -14630.727   -534.50759 
  996400    311.07363   -14563.561    74.180111   -14637.741   -6010.5839 
  996600    313.63433   -14556.848     74.79075   -14631.639   -7570.5716 
  996800     354.5261   -14537.895    84.541996   -14622.437    5227.2171 
  997000    304.54965   -14558.172    72.624372   -14630.796    8124.8129 
  997200    289.03421   -14567.941    68.924487   -14636.866   -12799.822 
  997400    334.44647   -14556.496    79.753712    -14636.25    896.05369 
  997600    286.85865   -14553.194    68.405692     -14621.6   -14171.687 
  997800     261.8897   -14571.622    62.451476   -14634.074   -7467.9214 
  998000    283.26913   -14565.741    67.549718   -14633.291    7920.9843 
  998200    338.31121   -14557.894    80.675315   -14638.569   -784.15608 
  998400    257.98852   -14574.765    61.521182   -14636.286    6520.7129 
  998600    275.60568   -14572.605    65.722254   -14638.327   -9108.7607 
  998800    321.27783   -14552.308    76.613455   -14628.921    14334.099 
  999000    273.40153   -14570.744    65.196641    -14635.94    -534.7082 
  999200    299.29259   -14567.199    71.370748    -14638.57    5717.5989 
  999400    302.59666   -14561.643    72.158653   -14633.802     4618.621 
  999600    309.61865   -14568.187     73.83315    -14642.02    316.47994 
  999800    257.02991   -14577.713    61.292588   -14639.005   -6555.9801 
 1000000     307.6019   -14556.091    73.352227   -14629.443    -737.7305 
Loop time of 12725.5 on 8 procs for 1000000 steps with 81 atoms

Performance: 1.697 ns/day, 14.139 hours/ns, 78.582 timesteps/s
89.7% CPU use with 8 MPI tasks x no OpenMP threads

MPI task timing breakdown:
Section |  min time  |  avg time  |  max time  |%varavg| %total
---------------------------------------------------------------
Pair    | 1998.2     | 2068.6     | 2159.4     | 125.2 | 16.26
Neigh   | 0.023983   | 0.024384   | 0.02489    |   0.2 |  0.00
Comm    | 169.13     | 303.72     | 425.58     | 429.5 |  2.39
Output  | 2.6865     | 2.7162     | 2.7516     |   1.3 |  0.02
Modify  | 10219      | 10236      | 10255      |  16.5 | 80.43
Other   |            | 114.7      |            |       |  0.90

Nlocal:    10.125 ave 11 max 10 min
Histogram: 7 0 0 0 0 0 0 0 0 1
Nghost:    575.5 ave 587 max 564 min
Histogram: 3 1 0 0 0 0 0 1 0 3
Neighs:    1127.5 ave 1224 max 1096 min
Histogram: 2 4 1 0 0 0 0 0 0 1

Total # of neighbors = 9020
Ave neighs/atom = 111.358
Neighbor list builds = 36
Dangerous builds = 0

Please see the log.cite file for references relevant to this simulation

Total wall time: 3:32:16
