ITEM: TIMESTEP
0
ITEM: NUMBER OF ATOMS
51
ITEM: BOX BOUNDS pp pp pp
0.0000000000000000e+00 1.1000000000000000e+01
0.0000000000000000e+00 1.1002000000000001e+01
0.0000000000000000e+00 1.1000000000000000e+01
ITEM: ATOMS id type x y z 
10 1 4.603 4.603 4.603 
11 1 3.085 3.085 3.085 
12 1 3.796 3.796 3.796 
46 1 0.726 0.725 0.725 
47 1 2.26 2.259 2.26 
48 1 1.551 1.55 1.55 
49 2 1.845 2.088 3.54 
50 2 0.735 1.771 4.498 
51 3 1.382 1.32 5.106 
19 1 4.546 4.545 6.226 
20 1 3.013 3.013 7.764 
21 1 3.721 3.721 7.053 
31 1 0.668 0.667 10.103 
32 1 2.187 2.187 8.589 
33 1 1.476 1.475 9.298 
16 1 4.546 6.225 4.546 
17 1 3.013 7.765 3.013 
18 1 3.721 7.053 3.722 
25 1 0.668 10.103 0.668 
26 1 2.188 8.589 2.188 
27 1 1.476 9.298 1.476 
4 1 4.608 6.169 6.169 
5 1 3.086 7.684 7.684 
6 1 3.799 6.974 6.974 
37 1 0.729 10.046 10.046 
38 1 2.259 8.509 8.508 
39 1 1.552 9.219 9.219 
13 1 6.225 4.546 4.546 
14 1 7.764 3.013 3.013 
15 1 7.053 3.721 3.722 
28 1 10.102 0.667 0.668 
29 1 8.589 2.187 2.188 
30 1 9.298 1.475 1.476 
1 1 6.168 4.608 6.169 
2 1 7.684 3.086 7.684 
3 1 6.974 3.799 6.974 
40 1 10.045 0.728 10.046 
41 1 8.508 2.259 8.508 
42 1 9.218 1.551 9.218 
7 1 6.169 6.169 4.608 
8 1 7.684 7.684 3.086 
9 1 6.974 6.974 3.799 
43 1 10.046 10.047 0.729 
44 1 8.508 8.509 2.259 
45 1 9.219 9.219 1.552 
22 1 6.229 6.229 6.229 
23 1 7.764 7.765 7.765 
24 1 7.055 7.056 7.055 
34 1 10.108 10.108 10.107 
35 1 8.59 8.59 8.59 
36 1 9.301 9.301 9.3 
ITEM: TIMESTEP
10
ITEM: NUMBER OF ATOMS
51
ITEM: BOX BOUNDS pp pp pp
0.0000000000000000e+00 1.1000000000000000e+01
0.0000000000000000e+00 1.1002000000000001e+01
0.0000000000000000e+00 1.1000000000000000e+01
ITEM: ATOMS id type x y z 
10 1 4.62018 4.62109 4.63431 
11 1 3.148 3.13949 3.0289 
12 1 3.83177 3.82746 3.78301 
46 1 0.749378 0.747583 0.736395 
47 1 2.24216 2.25878 2.36764 
48 1 1.53699 1.53245 1.50924 
49 2 1.79564 2.02102 3.53927 
50 2 0.749151 1.7522 4.52723 
51 3 1.35761 1.3444 5.07891 
19 1 4.53581 4.53547 6.25183 
20 1 3.00053 3.00044 7.77445 
21 1 3.70588 3.70578 7.0727 
31 1 0.670976 0.669937 10.057 
32 1 2.1933 2.19599 8.59074 
33 1 1.4789 1.47291 9.27762 
16 1 4.53761 6.24788 4.53812 
17 1 3.00153 7.77344 3.00225 
18 1 3.71046 7.06987 3.70992 
25 1 0.670437 10.0597 0.670441 
26 1 2.19511 8.59112 2.19597 
27 1 1.4777 9.27746 1.47656 
4 1 4.60106 6.18048 6.17483 
5 1 3.08245 7.68652 7.68639 
6 1 3.79387 6.98116 6.98081 
37 1 0.737518 10.0423 10.043 
38 1 2.26651 8.50104 8.50015 
39 1 1.56726 9.20468 9.20463 
13 1 6.24845 4.53785 4.53806 
14 1 7.77319 3.0015 3.00226 
15 1 7.06948 3.70973 3.70954 
28 1 10.0569 0.66896 0.671851 
29 1 8.58906 2.19427 2.19527 
30 1 9.28027 1.47758 1.47874 
1 1 6.18088 4.60129 6.1748 
2 1 7.68686 3.08311 7.68573 
3 1 6.97985 3.79315 6.98161 
40 1 10.0405 0.73701 10.0415 
41 1 8.49801 2.26846 8.49787 
42 1 9.20397 1.56616 9.20422 
7 1 6.17546 6.17565 4.60006 
8 1 7.68619 7.68649 3.08261 
9 1 6.98099 6.98073 3.79376 
43 1 10.043 10.0432 0.737789 
44 1 8.49932 8.49992 2.26712 
45 1 9.20489 9.20537 1.56754 
22 1 6.23756 6.23783 6.23688 
23 1 7.77109 7.77226 7.77138 
24 1 7.0692 7.06953 7.07015 
34 1 10.0992 10.0986 10.0979 
35 1 8.58602 8.58781 8.58632 
36 1 9.29588 9.2929 9.29458 
ITEM: TIMESTEP
20
ITEM: NUMBER OF ATOMS
51
ITEM: BOX BOUNDS pp pp pp
0.0000000000000000e+00 1.1000000000000000e+01
0.0000000000000000e+00 1.1002000000000001e+01
0.0000000000000000e+00 1.1000000000000000e+01
ITEM: ATOMS id type x y z 
10 1 4.62055 4.62158 4.63516 
11 1 3.17148 3.15761 3.01748 
12 1 3.84683 3.84064 3.77138 
46 1 0.739587 0.735839 0.712968 
47 1 2.19673 2.23318 2.42137 
48 1 1.54152 1.53773 1.50168 
49 2 1.81352 2.0114 3.51973 
50 2 0.734227 1.74984 4.53748 
51 3 1.35801 1.34932 5.07834 
19 1 4.53963 4.53952 6.25711 
20 1 2.9979 2.99781 7.77542 
21 1 3.70827 3.70818 7.07573 
31 1 0.66764 0.66625 10.054 
32 1 2.19419 2.19418 8.58889 
33 1 1.47682 1.47609 9.27736 
16 1 4.5415 6.25226 4.54214 
17 1 3.00129 7.77378 3.00073 
18 1 3.70915 7.07336 3.71088 
25 1 0.667957 10.0585 0.668393 
26 1 2.19504 8.58856 2.1953 
27 1 1.47811 9.27876 1.47848 
4 1 4.60268 6.18175 6.17735 
5 1 3.0832 7.68549 7.68718 
6 1 3.79383 6.9824 6.97777 
37 1 0.743139 10.0369 10.0391 
38 1 2.26981 8.49672 8.49598 
39 1 1.56897 9.2046 9.20479 
13 1 6.25253 4.54147 4.54237 
14 1 7.77354 3.00031 3.00079 
15 1 7.07308 3.70968 3.71017 
28 1 10.0573 0.666076 0.668631 
29 1 8.58813 2.19365 2.19606 
30 1 9.27906 1.47898 1.4775 
1 1 6.18176 4.60228 6.17693 
2 1 7.68564 3.08277 7.68674 
3 1 6.98192 3.79459 6.97911 
40 1 10.0358 0.741858 10.0394 
41 1 8.49609 2.26972 8.49548 
42 1 9.20378 1.56744 9.20498 
7 1 6.1778 6.17748 4.60116 
8 1 7.68646 7.68641 3.08394 
9 1 6.97899 6.97954 3.79245 
43 1 10.0398 10.0409 0.744156 
44 1 8.49632 8.49672 2.26953 
45 1 9.20495 9.20565 1.569 
22 1 6.23915 6.23924 6.23942 
23 1 7.77478 7.77563 7.7756 
24 1 7.06831 7.0691 7.06817 
34 1 10.0973 10.0973 10.0965 
35 1 8.58629 8.58576 8.58593 
36 1 9.29367 9.29522 9.29375 
ITEM: TIMESTEP
30
ITEM: NUMBER OF ATOMS
51
ITEM: BOX BOUNDS pp pp pp
0.0000000000000000e+00 1.1000000000000000e+01
0.0000000000000000e+00 1.1002000000000001e+01
0.0000000000000000e+00 1.1000000000000000e+01
ITEM: ATOMS id type x y z 
10 1 4.62194 4.62225 4.62954 
11 1 3.178 3.1613 2.99272 
12 1 3.84938 3.83958 3.75242 
46 1 0.743271 0.736115 0.701077 
47 1 2.16443 2.21887 2.4628 
48 1 1.54931 1.5489 1.49309 
49 2 1.8355 2.00185 3.5262 
50 2 0.711653 1.74659 4.55272 
51 3 1.35707 1.35234 5.08724 
19 1 4.54225 4.54225 6.25537 
20 1 3.00047 3.00029 7.77465 
21 1 3.71052 3.71049 7.07438 
31 1 0.66566 0.664356 10.0526 
32 1 2.19313 2.19345 8.5879 
33 1 1.47576 1.4744 9.27493 
16 1 4.54198 6.25234 4.54361 
17 1 3.00063 7.77564 3.00039 
18 1 3.71069 7.07342 3.71185 
25 1 0.666631 10.0637 0.667572 
26 1 2.19273 8.58884 2.19336 
27 1 1.47605 9.27978 1.47624 
4 1 4.60506 6.18213 6.18134 
5 1 3.08309 7.68562 7.68569 
6 1 3.79613 6.98165 6.97887 
37 1 0.73953 10.0298 10.0355 
38 1 2.27304 8.49539 8.49395 
39 1 1.56756 9.20147 9.20388 
13 1 6.25268 4.54224 4.54396 
14 1 7.77542 3.0004 3.00071 
15 1 7.07327 3.71006 3.71107 
28 1 10.0633 0.664883 0.66759 
29 1 8.58796 2.19182 2.19321 
30 1 9.2808 1.47623 1.47694 
1 1 6.18248 4.60486 6.18082 
2 1 7.68574 3.08263 7.68565 
3 1 6.9816 3.79649 6.97976 
40 1 10.0293 0.738569 10.0362 
41 1 8.49506 2.27243 8.49396 
42 1 9.2006 1.56642 9.20392 
7 1 6.18114 6.18076 4.60364 
8 1 7.68578 7.68603 3.08297 
9 1 6.97983 6.98005 3.79453 
43 1 10.0375 10.0389 0.743131 
44 1 8.49536 8.4958 2.27128 
45 1 9.20411 9.20459 1.56887 
22 1 6.24329 6.24343 6.24326 
23 1 7.777 7.77764 7.77754 
24 1 7.07024 7.07067 7.07024 
34 1 10.0977 10.0988 10.0984 
35 1 8.58737 8.58752 8.58711 
36 1 9.29502 9.29593 9.29538 
ITEM: TIMESTEP
40
ITEM: NUMBER OF ATOMS
51
ITEM: BOX BOUNDS pp pp pp
0.0000000000000000e+00 1.1000000000000000e+01
0.0000000000000000e+00 1.1002000000000001e+01
0.0000000000000000e+00 1.1000000000000000e+01
ITEM: ATOMS id type x y z 
10 1 4.62235 4.62232 4.62832 
11 1 3.17863 3.16141 2.99082 
12 1 3.84904 3.83979 3.75109 
46 1 0.743701 0.73644 0.700214 
47 1 2.16354 2.21881 2.46348 
48 1 1.5493 1.54939 1.4926 
49 2 1.83611 2.0002 3.52939 
50 2 0.710145 1.74604 4.55437 
51 3 1.35656 1.35284 5.0879 
19 1 4.5422 4.54222 6.25468 
20 1 3.00038 3.00021 7.77479 
21 1 3.71082 3.71075 7.07435 
31 1 0.665274 0.663775 10.0523 
32 1 2.19318 2.19312 8.58732 
33 1 1.47564 1.47501 9.27531 
16 1 4.54213 6.25191 4.54382 
17 1 3.00115 7.77512 3.00114 
18 1 3.71056 7.07389 3.71133 
25 1 0.666665 10.0639 0.667169 
26 1 2.19237 8.5883 2.19288 
27 1 1.47645 9.28067 1.47693 
4 1 4.6051 6.18243 6.1806 
5 1 3.08304 7.68586 7.68511 
6 1 3.79654 6.98109 6.97975 
37 1 0.739448 10.0297 10.0356 
38 1 2.27303 8.49544 8.49423 
39 1 1.56746 9.20132 9.20341 
13 1 6.25212 4.54229 4.54393 
14 1 7.77495 3.00058 3.00095 
15 1 7.07397 3.71024 3.71119 
28 1 10.0642 0.66532 0.667228 
29 1 8.58814 2.19186 2.19288 
30 1 9.28061 1.47568 1.47711 
1 1 6.18269 4.60511 6.18057 
2 1 7.68583 3.08285 7.68541 
3 1 6.98125 3.79643 6.97995 
40 1 10.0291 0.738355 10.0364 
41 1 8.49512 2.2721 8.4943 
42 1 9.20079 1.56656 9.20371 
7 1 6.18057 6.18039 4.60353 
8 1 7.68547 7.68579 3.08263 
9 1 6.98021 6.9803 3.7954 
43 1 10.0375 10.0389 0.743287 
44 1 8.4953 8.49557 2.27125 
45 1 9.20407 9.20487 1.56907 
22 1 6.24349 6.24365 6.24322 
23 1 7.77725 7.7779 7.77772 
24 1 7.07031 7.0707 7.0704 
34 1 10.0975 10.0988 10.0982 
35 1 8.58744 8.58767 8.58729 
36 1 9.29528 9.29608 9.2955 
ITEM: TIMESTEP
50
ITEM: NUMBER OF ATOMS
51
ITEM: BOX BOUNDS pp pp pp
0.0000000000000000e+00 1.1000000000000000e+01
0.0000000000000000e+00 1.1002000000000001e+01
0.0000000000000000e+00 1.1000000000000000e+01
ITEM: ATOMS id type x y z 
10 1 4.62244 4.62208 4.62731 
11 1 3.17908 3.16163 2.98886 
12 1 3.84872 3.8396 3.75015 
46 1 0.744163 0.736771 0.699537 
47 1 2.16271 2.21877 2.46427 
48 1 1.54942 1.55001 1.49229 
49 2 1.8369 1.99875 3.53219 
50 2 0.708632 1.74553 4.55597 
51 3 1.35609 1.3533 5.08859 
19 1 4.54227 4.54215 6.25408 
20 1 3.00068 3.00039 7.77468 
21 1 3.71091 3.71106 7.07425 
31 1 0.665123 0.663813 10.0521 
32 1 2.19312 2.19327 8.58726 
33 1 1.4757 1.47465 9.27478 
16 1 4.54204 6.25172 4.54381 
17 1 3.00099 7.77528 3.00111 
18 1 3.71068 7.07406 3.71123 
25 1 0.666594 10.0641 0.667098 
26 1 2.19216 8.58802 2.19269 
27 1 1.47657 9.28112 1.47703 
4 1 4.60523 6.18233 6.18058 
5 1 3.08304 7.68595 7.68478 
6 1 3.79686 6.98076 6.98015 
37 1 0.739232 10.0295 10.0355 
38 1 2.27301 8.49535 8.49401 
39 1 1.56761 9.20119 9.20361 
13 1 6.25212 4.54231 4.544 
14 1 7.77524 3.0006 3.00104 
15 1 7.07377 3.71018 3.711 
28 1 10.0647 0.665532 0.667067 
29 1 8.58816 2.19187 2.19251 
30 1 9.28076 1.47516 1.47737 
1 1 6.18253 4.60511 6.18043 
2 1 7.68585 3.08271 7.68498 
3 1 6.98104 3.79703 6.98049 
40 1 10.0289 0.738208 10.0365 
41 1 8.49502 2.27202 8.49423 
42 1 9.20083 1.5667 9.20378 
7 1 6.18039 6.18018 4.60318 
8 1 7.68504 7.68537 3.082 
9 1 6.98084 6.98089 3.79679 
43 1 10.0376 10.0391 0.743431 
44 1 8.49533 8.49556 2.27108 
45 1 9.20413 9.20502 1.56925 
22 1 6.24379 6.24378 6.24328 
23 1 7.77747 7.77795 7.77775 
24 1 7.07025 7.07093 7.07066 
34 1 10.0973 10.0986 10.0983 
35 1 8.58753 8.58771 8.58756 
36 1 9.29547 9.29638 9.2954 
ITEM: TIMESTEP
60
ITEM: NUMBER OF ATOMS
51
ITEM: BOX BOUNDS pp pp pp
0.0000000000000000e+00 1.1000000000000000e+01
0.0000000000000000e+00 1.1002000000000001e+01
0.0000000000000000e+00 1.1000000000000000e+01
ITEM: ATOMS id type x y z 
10 1 4.6201 4.61724 4.60076 
11 1 3.18292 3.16505 2.94237 
12 1 3.85145 3.8369 3.70925 
46 1 0.758331 0.74711 0.681056 
47 1 2.13997 2.21684 2.49486 
48 1 1.55146 1.56792 1.48573 
49 2 1.86677 1.95975 3.60152 
50 2 0.659247 1.72987 4.60593 
51 3 1.34268 1.36634 5.1129 
19 1 4.54146 4.54073 6.23604 
20 1 3.0072 3.00657 7.77472 
21 1 3.71409 3.71431 7.06842 
31 1 0.661543 0.660192 10.0435 
32 1 2.19335 2.19475 8.58155 
33 1 1.47537 1.47221 9.26396 
16 1 4.54226 6.24599 4.5417 
17 1 3.00265 7.77897 3.00253 
18 1 3.70983 7.07349 3.71148 
25 1 0.667422 10.0743 0.666207 
26 1 2.18644 8.58503 2.18956 
27 1 1.47826 9.28623 1.4749 
4 1 4.61135 6.1777 6.18192 
5 1 3.08627 7.68446 7.68317 
6 1 3.7995 6.9799 6.97746 
37 1 0.735892 10.0239 10.0353 
38 1 2.27441 8.4936 8.49354 
39 1 1.56573 9.19808 9.20105 
13 1 6.24712 4.54147 4.54161 
14 1 7.77873 3.00067 3.00106 
15 1 7.07676 3.70955 3.71109 
28 1 10.0781 0.66729 0.665729 
29 1 8.586 2.18623 2.18694 
30 1 9.28854 1.47417 1.47772 
1 1 6.17878 4.61027 6.18111 
2 1 7.6856 3.08431 7.68137 
3 1 6.97864 3.80158 6.9823 
40 1 10.025 0.736684 10.0381 
41 1 8.49438 2.27265 8.49383 
42 1 9.19708 1.56528 9.20303 
7 1 6.17745 6.17855 4.60833 
8 1 7.68218 7.68234 3.07737 
9 1 6.98646 6.98629 3.8081 
43 1 10.0411 10.0435 0.748775 
44 1 8.49421 8.49452 2.2686 
45 1 9.20549 9.20711 1.57253 
22 1 6.24832 6.24781 6.24507 
23 1 7.78127 7.78143 7.78089 
24 1 7.07372 7.07461 7.07444 
34 1 10.0967 10.0984 10.1012 
35 1 8.58991 8.59049 8.58915 
36 1 9.29656 9.29746 9.30018 
ITEM: TIMESTEP
70
ITEM: NUMBER OF ATOMS
51
ITEM: BOX BOUNDS pp pp pp
0.0000000000000000e+00 1.1000000000000000e+01
0.0000000000000000e+00 1.1002000000000001e+01
0.0000000000000000e+00 1.1000000000000000e+01
ITEM: ATOMS id type x y z 
10 1 4.621 4.6163 4.59644 
11 1 3.18237 3.16542 2.94022 
12 1 3.85114 3.83843 3.7059 
46 1 0.759462 0.748962 0.680238 
47 1 2.13876 2.21432 2.50108 
48 1 1.54892 1.56824 1.48952 
49 2 1.87468 1.95691 3.59909 
50 2 0.649107 1.72673 4.61621 
51 3 1.34065 1.36816 5.11963 
19 1 4.5406 4.53983 6.23276 
20 1 3.00839 3.00833 7.77552 
21 1 3.7138 3.71343 7.06528 
31 1 0.662303 0.659397 10.0401 
32 1 2.19398 2.19414 8.57871 
33 1 1.47563 1.47453 9.26384 
16 1 4.54162 6.24485 4.54084 
17 1 3.00233 7.77919 3.00317 
18 1 3.71018 7.07338 3.7106 
25 1 0.669893 10.0771 0.666255 
26 1 2.18789 8.58553 2.18952 
27 1 1.47667 9.28463 1.47569 
4 1 4.60941 6.17691 6.17917 
5 1 3.08683 7.68488 7.68255 
6 1 3.79975 6.97873 6.97828 
37 1 0.735855 10.0246 10.035 
38 1 2.27379 8.49315 8.49274 
39 1 1.56676 9.19738 9.20183 
13 1 6.24746 4.54124 4.54123 
14 1 7.77977 3.00109 3.00209 
15 1 7.07505 3.70928 3.70975 
28 1 10.0814 0.668303 0.667145 
29 1 8.58666 2.18611 2.1884 
30 1 9.28724 1.47509 1.47603 
1 1 6.17738 4.60959 6.18008 
2 1 7.68516 3.086 7.68298 
3 1 6.97911 3.7995 6.97912 
40 1 10.0253 0.736711 10.0377 
41 1 8.49336 2.27212 8.49334 
42 1 9.19762 1.56621 9.20333 
7 1 6.18054 6.18091 4.61081 
8 1 7.68473 7.68477 3.08344 
9 1 6.98072 6.98077 3.79845 
43 1 10.0432 10.0453 0.751021 
44 1 8.4947 8.49533 2.26824 
45 1 9.20585 9.20709 1.57148 
22 1 6.24714 6.24689 6.24558 
23 1 7.78086 7.78144 7.78103 
24 1 7.0742 7.07434 7.07364 
34 1 10.0974 10.0993 10.104 
35 1 8.59048 8.59096 8.59007 
36 1 9.29692 9.29811 9.30078 
ITEM: TIMESTEP
80
ITEM: NUMBER OF ATOMS
51
ITEM: BOX BOUNDS pp pp pp
0.0000000000000000e+00 1.1000000000000000e+01
0.0000000000000000e+00 1.1002000000000001e+01
0.0000000000000000e+00 1.1000000000000000e+01
ITEM: ATOMS id type x y z 
10 1 4.62164 4.61617 4.59382 
11 1 3.18278 3.16634 2.93728 
12 1 3.85007 3.83876 3.70474 
46 1 0.760192 0.750195 0.67936 
47 1 2.13861 2.2131 2.50318 
48 1 1.54713 1.56791 1.49189 
49 2 1.87768 1.95362 3.60074 
50 2 0.643307 1.72449 4.62303 
51 3 1.33905 1.36971 5.12333 
19 1 4.53997 4.53908 6.23057 
20 1 3.00902 3.00899 7.77545 
21 1 3.71396 3.71358 7.06383 
31 1 0.662633 0.659642 10.0386 
32 1 2.19419 2.1942 8.57782 
33 1 1.47565 1.47471 9.2628 
16 1 4.54175 6.24475 4.54003 
17 1 3.00217 7.77936 3.00333 
18 1 3.71025 7.07347 3.7102 
25 1 0.670627 10.078 0.666452 
26 1 2.18766 8.58561 2.18947 
27 1 1.47693 9.28506 1.47554 
4 1 4.60911 6.17636 6.17844 
5 1 3.08722 7.68459 7.68228 
6 1 3.80006 6.97836 6.97807 
37 1 0.736179 10.025 10.0352 
38 1 2.27351 8.49307 8.4927 
39 1 1.56676 9.19732 9.20209 
13 1 6.24768 4.54133 4.54038 
14 1 7.78003 3.00076 3.00191 
15 1 7.07562 3.70913 3.70951 
28 1 10.0824 0.669092 0.667566 
29 1 8.58702 2.1859 2.18856 
30 1 9.28751 1.47532 1.47556 
1 1 6.17706 4.60926 6.17964 
2 1 7.68495 3.08637 7.68285 
3 1 6.97881 3.79953 6.97891 
40 1 10.0259 0.736968 10.0379 
41 1 8.4931 2.27198 8.49341 
42 1 9.19771 1.56629 9.20331 
7 1 6.18078 6.18114 4.61019 
8 1 7.68481 7.68481 3.08343 
9 1 6.98056 6.9808 3.79829 
43 1 10.0446 10.0463 0.751827 
44 1 8.49483 8.4955 2.26802 
45 1 9.20635 9.20753 1.57193 
22 1 6.24647 6.24622 6.24534 
23 1 7.78059 7.78107 7.78064 
24 1 7.07384 7.0741 7.07337 
34 1 10.0975 10.0996 10.1056 
35 1 8.59067 8.59121 8.59059 
36 1 9.2971 9.29835 9.3011 
ITEM: TIMESTEP
90
ITEM: NUMBER OF ATOMS
51
ITEM: BOX BOUNDS pp pp pp
0.0000000000000000e+00 1.1000000000000000e+01
0.0000000000000000e+00 1.1002000000000001e+01
0.0000000000000000e+00 1.1000000000000000e+01
ITEM: ATOMS id type x y z 
10 1 4.62164 4.61559 4.58775 
11 1 3.18125 3.16891 2.93032 
12 1 3.85119 3.83949 3.69714 
46 1 0.76224 0.753924 0.677004 
47 1 2.13896 2.20981 2.50944 
48 1 1.54253 1.56695 1.49895 
49 2 1.8853 1.94338 3.60701 
50 2 0.626253 1.71786 4.64324 
51 3 1.33458 1.37439 5.134 
19 1 4.53842 4.53707 6.22383 
20 1 3.01031 3.01048 7.77505 
21 1 3.71417 3.71358 7.06068 
31 1 0.663004 0.659893 10.035 
32 1 2.19503 2.19504 8.5747 
33 1 1.47657 1.4752 9.25951 
16 1 4.54219 6.24468 4.53753 
17 1 3.0015 7.78011 3.00341 
18 1 3.7102 7.07379 3.70906 
25 1 0.673087 10.0808 0.666263 
26 1 2.18726 8.58568 2.18933 
27 1 1.47762 9.2864 1.47561 
4 1 4.60872 6.17507 6.17664 
5 1 3.08815 7.68408 7.68216 
6 1 3.80004 6.97759 6.97729 
37 1 0.736771 10.0259 10.0357 
38 1 2.27311 8.49232 8.49266 
39 1 1.56699 9.1972 9.20185 
13 1 6.2487 4.54164 4.53827 
14 1 7.78108 2.99994 3.00182 
15 1 7.0763 3.70902 3.70849 
28 1 10.0852 0.67134 0.667468 
29 1 8.58747 2.18545 2.18835 
30 1 9.28939 1.47592 1.47571 
1 1 6.17618 4.60879 6.17784 
2 1 7.68447 3.08704 7.68292 
3 1 6.9783 3.7995 6.97827 
40 1 10.0272 0.737563 10.0377 
41 1 8.49235 2.27172 8.49348 
42 1 9.19779 1.56659 9.20324 
7 1 6.18107 6.18109 4.60946 
8 1 7.68518 7.68535 3.0829 
9 1 6.98105 6.98115 3.79754 
43 1 10.0477 10.0486 0.754577 
44 1 8.49539 8.4963 2.26736 
45 1 9.20791 9.20878 1.57302 
22 1 6.24474 6.24457 6.24471 
23 1 7.78021 7.78064 7.77993 
24 1 7.07335 7.07353 7.07315 
34 1 10.0979 10.1002 10.109 
35 1 8.59091 8.59161 8.59138 
36 1 9.297 9.29845 9.3024 
ITEM: TIMESTEP
100
ITEM: NUMBER OF ATOMS
51
ITEM: BOX BOUNDS pp pp pp
0.0000000000000000e+00 1.1000000000000000e+01
0.0000000000000000e+00 1.1002000000000001e+01
0.0000000000000000e+00 1.1000000000000000e+01
ITEM: ATOMS id type x y z 
10 1 4.62197 4.61559 4.58687 
11 1 3.18175 3.16907 2.92912 
12 1 3.85043 3.84032 3.69645 
46 1 0.762471 0.75443 0.676833 
47 1 2.13886 2.20911 2.5104 
48 1 1.54212 1.56673 1.49966 
49 2 1.88584 1.94192 3.60824 
50 2 0.624108 1.71699 4.64588 
51 3 1.33408 1.37503 5.13526 
19 1 4.53824 4.53688 6.2231 
20 1 3.01056 3.01071 7.77484 
21 1 3.71423 3.71368 7.0602 
31 1 0.663009 0.659998 10.0345 
32 1 2.19501 2.19507 8.57445 
33 1 1.47658 1.47509 9.25914 
16 1 4.54234 6.24459 4.53735 
17 1 3.00156 7.78005 3.00353 
18 1 3.71025 7.07378 3.70901 
25 1 0.673447 10.0812 0.666187 
26 1 2.18719 8.58578 2.18933 
27 1 1.47771 9.28659 1.47551 
4 1 4.60867 6.175 6.17626 
5 1 3.08824 7.68396 7.68216 
6 1 3.80004 6.97754 6.97716 
37 1 0.736788 10.026 10.0356 
38 1 2.27311 8.49225 8.49271 
39 1 1.56692 9.19717 9.20178 
13 1 6.24881 4.54164 4.53797 
14 1 7.78129 2.9997 3.00167 
15 1 7.07653 3.70899 3.70833 
28 1 10.0856 0.671607 0.667333 
29 1 8.5877 2.18535 2.18842 
30 1 9.28948 1.47601 1.47545 
1 1 6.17615 4.60868 6.17777 
2 1 7.68437 3.08703 7.68283 
3 1 6.97824 3.79964 6.97835 
40 1 10.0273 0.7375 10.0376 
41 1 8.49238 2.27166 8.49359 
42 1 9.19774 1.56653 9.20322 
7 1 6.18107 6.18139 4.60953 
8 1 7.68531 7.68542 3.08289 
9 1 6.98094 6.9812 3.79732 
43 1 10.048 10.0488 0.754799 
44 1 8.49552 8.49641 2.26735 
45 1 9.20811 9.20898 1.57307 
22 1 6.24461 6.24457 6.24476 
23 1 7.78019 7.78067 7.7799 
24 1 7.07335 7.07342 7.07316 
34 1 10.0979 10.1002 10.1091 
35 1 8.59092 8.59162 8.59149 
36 1 9.29698 9.29848 9.30253 
ITEM: TIMESTEP
110
ITEM: NUMBER OF ATOMS
51
ITEM: BOX BOUNDS pp pp pp
0.0000000000000000e+00 1.1000000000000000e+01
0.0000000000000000e+00 1.1002000000000001e+01
0.0000000000000000e+00 1.1000000000000000e+01
ITEM: ATOMS id type x y z 
10 1 4.62205 4.61018 4.51907 
11 1 3.16502 3.19012 2.84812 
12 1 3.85047 3.86023 3.60343 
46 1 0.782054 0.792757 0.661709 
47 1 2.14775 2.15138 2.601 
48 1 1.51935 1.54606 1.56802 
49 2 1.92811 1.82651 3.70148 
50 2 0.443515 1.63706 4.88705 
51 3 1.28238 1.43064 5.24636 
19 1 4.53065 4.52645 6.15795 
20 1 3.02415 3.02451 7.75908 
21 1 3.71737 3.71498 7.02202 
31 1 0.667378 0.663257 10.0098 
32 1 2.20153 2.20001 8.54176 
33 1 1.48272 1.48064 9.22846 
16 1 4.55434 6.24502 4.51748 
17 1 2.99623 7.78474 3.0025 
18 1 3.71057 7.08183 3.70199 
25 1 0.697292 10.1194 0.657588 
26 1 2.17838 8.59377 2.18561 
27 1 1.48895 9.30818 1.46892 
4 1 4.60517 6.16593 6.15532 
5 1 3.09344 7.67455 7.68006 
6 1 3.80034 6.9699 6.96893 
37 1 0.737723 10.0332 10.029 
38 1 2.27257 8.48401 8.49328 
39 1 1.56828 9.19338 9.19744 
13 1 6.25642 4.55139 4.51817 
14 1 7.79193 2.99137 2.99949 
15 1 7.0843 3.70852 3.69923 
28 1 10.1185 0.690829 0.655504 
29 1 8.60098 2.17949 2.18616 
30 1 9.31269 1.48217 1.47026 
1 1 6.17155 4.60582 6.15928 
2 1 7.67572 3.09059 7.68316 
3 1 6.97236 3.79996 6.97349 
40 1 10.036 0.732987 10.024 
41 1 8.48616 2.272 8.49731 
42 1 9.19533 1.56585 9.19818 
7 1 6.19026 6.18963 4.6128 
8 1 7.69059 7.69445 3.07224 
9 1 6.99119 6.99012 3.79163 
43 1 10.0742 10.0684 0.767763 
44 1 8.50735 8.50962 2.26489 
45 1 9.22792 9.2245 1.57851 
22 1 6.23324 6.24029 6.24478 
23 1 7.77615 7.77897 7.77777 
24 1 7.07206 7.06928 7.07441 
34 1 10.0987 10.1001 10.1247 
35 1 8.5892 8.59229 8.59748 
36 1 9.29351 9.29275 9.31549 
ITEM: TIMESTEP
120
ITEM: NUMBER OF ATOMS
51
ITEM: BOX BOUNDS pp pp pp
0.0000000000000000e+00 1.1000000000000000e+01
0.0000000000000000e+00 1.1002000000000001e+01
0.0000000000000000e+00 1.1000000000000000e+01
ITEM: ATOMS id type x y z 
10 1 4.62344 4.61131 4.51681 
11 1 3.16284 3.18978 2.84746 
12 1 3.85131 3.86231 3.59556 
46 1 0.782096 0.793716 0.661297 
47 1 2.14852 2.146 2.60561 
48 1 1.52186 1.544 1.5725 
49 2 1.92695 1.82221 3.70523 
50 2 0.436308 1.63179 4.90245 
51 3 1.2771 1.43319 5.25286 
19 1 4.53048 4.52478 6.15509 
20 1 3.02511 3.02523 7.75636 
21 1 3.71779 3.71565 7.01921 
31 1 0.668796 0.664232 10.0095 
32 1 2.20052 2.19922 8.54061 
33 1 1.48343 1.48067 9.22824 
16 1 4.55416 6.24528 4.51613 
17 1 2.99511 7.78703 3.00297 
18 1 3.71139 7.07965 3.69931 
25 1 0.699347 10.1219 0.655337 
26 1 2.18026 8.59446 2.18537 
27 1 1.48706 9.30889 1.4698 
4 1 4.60456 6.16543 6.15452 
5 1 3.09375 7.67389 7.68034 
6 1 3.79915 6.96943 6.96783 
37 1 0.738023 10.0347 10.0289 
38 1 2.27207 8.48327 8.49362 
39 1 1.56846 9.19465 9.19776 
13 1 6.25494 4.55152 4.51745 
14 1 7.79146 2.99192 3.00073 
15 1 7.08523 3.70872 3.69781 
28 1 10.1199 0.691791 0.654891 
29 1 8.60248 2.17936 2.18645 
30 1 9.31275 1.4832 1.46965 
1 1 6.17054 4.60611 6.15767 
2 1 7.67454 3.09156 7.68394 
3 1 6.97204 3.79893 6.97102 
40 1 10.037 0.732653 10.0239 
41 1 8.48447 2.2723 8.49719 
42 1 9.19692 1.56584 9.19771 
7 1 6.19202 6.18962 4.61122 
8 1 7.69121 7.6943 3.07218 
9 1 6.99103 6.99162 3.79162 
43 1 10.0764 10.0697 0.767292 
44 1 8.50989 8.51143 2.26437 
45 1 9.22783 9.22559 1.57834 
22 1 6.23439 6.23863 6.24475 
23 1 7.77687 7.77849 7.77834 
24 1 7.0701 7.06993 7.07416 
34 1 10.0993 10.0983 10.1259 
35 1 8.58869 8.59074 8.59976 
36 1 9.29398 9.29502 9.31307 
ITEM: TIMESTEP
130
ITEM: NUMBER OF ATOMS
51
ITEM: BOX BOUNDS pp pp pp
0.0000000000000000e+00 1.1000000000000000e+01
0.0000000000000000e+00 1.1002000000000001e+01
0.0000000000000000e+00 1.1000000000000000e+01
ITEM: ATOMS id type x y z 
10 1 4.6247 4.6141 4.51688 
11 1 3.16174 3.18877 2.84895 
12 1 3.85147 3.86217 3.59446 
46 1 0.781359 0.792622 0.661876 
47 1 2.14939 2.14347 2.60593 
48 1 1.52473 1.54251 1.57309 
49 2 1.92298 1.82311 3.70509 
50 2 0.436766 1.63051 4.90621 
51 3 1.27507 1.43268 5.2548 
19 1 4.53054 4.5246 6.1554 
20 1 3.02438 3.02466 7.75503 
21 1 3.71773 3.71513 7.01863 
31 1 0.669733 0.66543 10.011 
32 1 2.20036 2.19899 8.54046 
33 1 1.48364 1.48093 9.22886 
16 1 4.5535 6.24521 4.51489 
17 1 2.99479 7.78782 3.00283 
18 1 3.71103 7.07916 3.69792 
25 1 0.699441 10.1218 0.655252 
26 1 2.18073 8.59501 2.18574 
27 1 1.48772 9.30929 1.46975 
4 1 4.60472 6.16549 6.15468 
5 1 3.09325 7.67362 7.68038 
6 1 3.79885 6.96933 6.96772 
37 1 0.738977 10.0357 10.0289 
38 1 2.27189 8.48308 8.49381 
39 1 1.56885 9.19504 9.19777 
13 1 6.25421 4.55096 4.51663 
14 1 7.79197 2.992 3.00065 
15 1 7.08518 3.70856 3.69745 
28 1 10.1195 0.69217 0.654331 
29 1 8.60279 2.17978 2.18675 
30 1 9.3126 1.48357 1.46959 
1 1 6.1704 4.60635 6.15749 
2 1 7.67405 3.09151 7.68367 
3 1 6.97172 3.79903 6.97086 
40 1 10.0378 0.733138 10.024 
41 1 8.48428 2.27218 8.49716 
42 1 9.19698 1.56611 9.19763 
7 1 6.19283 6.19064 4.61082 
8 1 7.6917 7.69475 3.07248 
9 1 6.99115 6.99175 3.7914 
43 1 10.0766 10.0701 0.766241 
44 1 8.51055 8.51205 2.26452 
45 1 9.22838 9.22611 1.57782 
22 1 6.23521 6.23725 6.2443 
23 1 7.77712 7.77767 7.7786 
24 1 7.06875 7.07084 7.0741 
34 1 10.0995 10.0981 10.1246 
35 1 8.58803 8.59024 8.60021 
36 1 9.29434 9.2948 9.31234 
ITEM: TIMESTEP
140
ITEM: NUMBER OF ATOMS
51
ITEM: BOX BOUNDS pp pp pp
0.0000000000000000e+00 1.1000000000000000e+01
0.0000000000000000e+00 1.1002000000000001e+01
0.0000000000000000e+00 1.1000000000000000e+01
ITEM: ATOMS id type x y z 
10 1 4.62472 4.61418 4.51686 
11 1 3.16174 3.18874 2.84903 
12 1 3.85149 3.86223 3.59444 
46 1 0.781373 0.7926 0.661938 
47 1 2.14942 2.14332 2.60597 
48 1 1.52483 1.54242 1.57307 
49 2 1.92278 1.82314 3.7051 
50 2 0.436746 1.63046 4.90639 
51 3 1.27501 1.43265 5.25491 
19 1 4.53055 4.52461 6.15539 
20 1 3.02435 3.02461 7.75496 
21 1 3.71774 3.71514 7.01859 
31 1 0.669743 0.665452 10.0111 
32 1 2.20033 2.19897 8.5404 
33 1 1.4837 1.48098 9.22897 
16 1 4.55348 6.24523 4.51489 
17 1 2.99476 7.78788 3.00284 
18 1 3.71106 7.07907 3.69782 
25 1 0.699463 10.1218 0.655238 
26 1 2.18074 8.59506 2.18575 
27 1 1.48774 9.3093 1.46973 
4 1 4.60463 6.16547 6.15461 
5 1 3.09315 7.6736 7.68031 
6 1 3.79898 6.96934 6.96784 
37 1 0.738994 10.0358 10.0289 
38 1 2.27187 8.48304 8.49381 
39 1 1.56889 9.19512 9.1978 
13 1 6.25418 4.55096 4.51659 
14 1 7.79201 2.992 3.00064 
15 1 7.08514 3.70858 3.69745 
28 1 10.1195 0.692199 0.6543 
29 1 8.60281 2.17979 2.18676 
30 1 9.31261 1.48359 1.46958 
1 1 6.17037 4.60632 6.15748 
2 1 7.67403 3.0915 7.68367 
3 1 6.97172 3.79902 6.97084 
40 1 10.0378 0.733156 10.024 
41 1 8.48427 2.27217 8.49716 
42 1 9.197 1.56612 9.19763 
7 1 6.19284 6.19065 4.61077 
8 1 7.69173 7.69478 3.07246 
9 1 6.99119 6.9918 3.79143 
43 1 10.0766 10.0701 0.766192 
44 1 8.51062 8.51209 2.26451 
45 1 9.22834 9.22611 1.57782 
22 1 6.23517 6.2373 6.24427 
23 1 7.77701 7.7777 7.77857 
24 1 7.0689 7.07075 7.07417 
34 1 10.0995 10.0982 10.1245 
35 1 8.58805 8.59022 8.60018 
36 1 9.29427 9.29479 9.3124 
ITEM: TIMESTEP
150
ITEM: NUMBER OF ATOMS
51
ITEM: BOX BOUNDS pp pp pp
0.0000000000000000e+00 1.1000000000000000e+01
0.0000000000000000e+00 1.1002000000000001e+01
0.0000000000000000e+00 1.1000000000000000e+01
ITEM: ATOMS id type x y z 
10 1 4.62973 4.63323 4.50813 
11 1 3.15817 3.17628 2.87302 
12 1 3.85467 3.87375 3.58582 
46 1 0.783337 0.784064 0.676572 
47 1 2.16404 2.10624 2.61821 
48 1 1.55358 1.52041 1.57502 
49 2 1.86353 1.83197 3.70847 
50 2 0.427156 1.61474 4.95724 
51 3 1.26025 1.42275 5.2883 
19 1 4.53279 4.52928 6.15843 
20 1 3.01574 3.01515 7.73424 
21 1 3.71531 3.71093 7.00828 
31 1 0.679058 0.679382 10.03 
32 1 2.2005 2.19868 8.53662 
33 1 1.48812 1.48607 9.2347 
16 1 4.55253 6.24551 4.50196 
17 1 2.99329 7.7903 2.99804 
18 1 3.70771 7.08031 3.69037 
25 1 0.701502 10.1174 0.651927 
26 1 2.18769 8.6076 2.18704 
27 1 1.48947 9.3151 1.469 
4 1 4.60361 6.1645 6.15352 
5 1 3.08801 7.6704 7.67775 
6 1 3.79378 6.96242 6.96863 
37 1 0.74988 10.047 10.0251 
38 1 2.27141 8.47981 8.49593 
39 1 1.57314 9.2002 9.19679 
13 1 6.24761 4.55067 4.50498 
14 1 7.79602 2.99406 3.00011 
15 1 7.08599 3.70945 3.69568 
28 1 10.1088 0.694667 0.646003 
29 1 8.60828 2.1835 2.18964 
30 1 9.31368 1.4894 1.46674 
1 1 6.16598 4.60358 6.15441 
2 1 7.66919 3.08919 7.68241 
3 1 6.96744 3.79703 6.9687 
40 1 10.0463 0.739541 10.021 
41 1 8.48336 2.27151 8.49627 
42 1 9.19629 1.56747 9.19834 
7 1 6.19723 6.19677 4.60434 
8 1 7.70106 7.70333 3.07301 
9 1 6.99826 6.99865 3.7883 
43 1 10.0755 10.0711 0.749531 
44 1 8.52043 8.52027 2.26776 
45 1 9.23329 9.23295 1.57095 
22 1 6.23243 6.237 6.23644 
23 1 7.76603 7.77976 7.78352 
24 1 7.0769 7.05826 7.07213 
34 1 10.1087 10.1011 10.1081 
35 1 8.58288 8.58332 8.60505 
36 1 9.29434 9.29388 9.30741 
ITEM: TIMESTEP
151
ITEM: NUMBER OF ATOMS
51
ITEM: BOX BOUNDS pp pp pp
0.0000000000000000e+00 1.1000000000000000e+01
0.0000000000000000e+00 1.1002000000000001e+01
0.0000000000000000e+00 1.1000000000000000e+01
ITEM: ATOMS id type x y z 
10 1 4.63016 4.63528 4.50696 
11 1 3.15664 3.17337 2.87603 
12 1 3.85476 3.87468 3.58415 
46 1 0.783272 0.782468 0.67789 
47 1 2.16694 2.10202 2.61998 
48 1 1.55756 1.5179 1.57621 
49 2 1.85525 1.83289 3.70921 
50 2 0.425008 1.61262 4.96434 
51 3 1.25879 1.4213 5.29319 
19 1 4.53293 4.53007 6.15912 
20 1 3.01446 3.01402 7.73129 
21 1 3.71517 3.70995 7.00673 
31 1 0.680189 0.681639 10.0328 
32 1 2.20014 2.19902 8.53579 
33 1 1.48959 1.48631 9.23583 
16 1 4.55243 6.24641 4.50073 
17 1 2.99261 7.79076 2.99745 
18 1 3.7079 7.08059 3.68898 
25 1 0.702145 10.1174 0.651081 
26 1 2.18888 8.60937 2.18684 
27 1 1.48931 9.31585 1.46956 
4 1 4.60362 6.1647 6.15336 
5 1 3.08743 7.67023 7.67735 
6 1 3.79264 6.96095 6.96892 
37 1 0.751363 10.0484 10.0244 
38 1 2.27153 8.47916 8.49612 
39 1 1.57398 9.20079 9.19626 
13 1 6.24761 4.55108 4.50403 
14 1 7.7969 2.99434 3.00033 
15 1 7.08568 3.70961 3.6949 
28 1 10.1079 0.695008 0.645045 
29 1 8.6087 2.18399 2.19015 
30 1 9.31427 1.49043 1.4662 
1 1 6.16512 4.60332 6.15409 
2 1 7.66822 3.08892 7.68259 
3 1 6.96752 3.79644 6.96782 
40 1 10.0471 0.740511 10.0206 
41 1 8.48297 2.27146 8.49633 
42 1 9.19613 1.56818 9.19754 
7 1 6.19792 6.19677 4.60295 
8 1 7.70255 7.70396 3.07239 
9 1 6.99914 7.00078 3.78916 
43 1 10.075 10.071 0.747397 
44 1 8.52208 8.52166 2.26796 
45 1 9.23325 9.23334 1.57065 
22 1 6.23258 6.2366 6.23506 
23 1 7.76482 7.77939 7.78403 
24 1 7.07726 7.05733 7.0721 
34 1 10.11 10.1011 10.1056 
35 1 8.58241 8.58233 8.60598 
36 1 9.29413 9.29425 9.30643 
ITEM: TIMESTEP
160
ITEM: NUMBER OF ATOMS
51
ITEM: BOX BOUNDS pp pp pp
0.0000000000000000e+00 1.1000000000000000e+01
0.0000000000000000e+00 1.1002000000000001e+01
0.0000000000000000e+00 1.1000000000000000e+01
ITEM: ATOMS id type x y z 
10 1 4.62842 4.63249 4.50615 
11 1 3.15647 3.17196 2.87525 
12 1 3.85498 3.87394 3.58441 
46 1 0.783898 0.782883 0.677212 
47 1 2.16715 2.10237 2.62257 
48 1 1.55593 1.5185 1.57733 
49 2 1.85463 1.83104 3.71113 
50 2 0.421331 1.61247 4.96587 
51 3 1.26061 1.42107 5.29446 