ITEM: TIMESTEP
0
ITEM: NUMBER OF ATOMS
49
ITEM: BOX BOUNDS pp pp pp
0.0000000000000000e+00 1.1000000000000000e+01
0.0000000000000000e+00 1.1002000000000001e+01
0.0000000000000000e+00 1.1000000000000000e+01
ITEM: ATOMS id type x y z 
10 1 4.603 4.603 4.603 
11 1 3.085 3.085 3.085 
12 1 3.796 3.796 3.796 
46 1 0.726 0.725 0.725 
47 1 2.26 2.259 2.26 
48 1 1.551 1.55 1.55 
19 1 4.546 4.545 6.226 
20 1 3.013 3.013 7.764 
21 1 3.721 3.721 7.053 
31 1 0.668 0.667 10.103 
32 1 2.187 2.187 8.589 
33 1 1.476 1.475 9.298 
16 1 4.546 6.225 4.546 
17 1 3.013 7.765 3.013 
18 1 3.721 7.053 3.722 
25 1 0.668 10.103 0.668 
26 1 2.188 8.589 2.188 
27 1 1.476 9.298 1.476 
4 1 4.608 6.169 6.169 
5 1 3.086 7.684 7.684 
6 1 3.799 6.974 6.974 
37 1 0.729 10.046 10.046 
38 1 2.259 8.509 8.508 
39 1 1.552 9.219 9.219 
13 1 6.225 4.546 4.546 
14 1 7.764 3.013 3.013 
15 1 7.053 3.721 3.722 
28 1 10.102 0.667 0.668 
29 1 8.589 2.187 2.188 
30 1 9.298 1.475 1.476 
1 1 6.168 4.608 6.169 
2 1 7.684 3.086 7.684 
3 1 6.974 3.799 6.974 
40 1 10.045 0.728 10.046 
41 1 8.508 2.259 8.508 
42 1 9.218 1.551 9.218 
49 2 7.258 3.522 8.589 
7 1 6.169 6.169 4.608 
8 1 7.684 7.684 3.086 
9 1 6.974 6.974 3.799 
43 1 10.046 10.047 0.729 
44 1 8.508 8.509 2.259 
45 1 9.219 9.219 1.552 
22 1 6.229 6.229 6.229 
23 1 7.764 7.765 7.765 
24 1 7.055 7.056 7.055 
34 1 10.108 10.108 10.107 
35 1 8.59 8.59 8.59 
36 1 9.301 9.301 9.3 
ITEM: TIMESTEP
10
ITEM: NUMBER OF ATOMS
49
ITEM: BOX BOUNDS pp pp pp
0.0000000000000000e+00 1.1000000000000000e+01
0.0000000000000000e+00 1.1002000000000001e+01
0.0000000000000000e+00 1.1000000000000000e+01
ITEM: ATOMS id type x y z 
10 1 4.59584 4.59606 4.59869 
11 1 3.08213 3.08213 3.08166 
12 1 3.78916 3.78919 3.79011 
46 1 0.735796 0.733699 0.734677 
47 1 2.2693 2.26816 2.26885 
48 1 1.56224 1.56151 1.56204 
19 1 4.52105 4.53863 6.23456 
20 1 3.00476 3.004 7.77241 
21 1 3.71015 3.71161 7.06341 
31 1 0.678716 0.673579 10.0961 
32 1 2.19066 2.19023 8.5856 
33 1 1.48181 1.48168 9.29167 
16 1 4.53683 6.23432 4.53731 
17 1 3.0041 7.77355 3.00431 
18 1 3.70986 7.06477 3.71041 
25 1 0.674657 10.0963 0.674997 
26 1 2.19109 8.586 2.19084 
27 1 1.4822 9.29156 1.48281 
4 1 4.60315 6.17307 6.17599 
5 1 3.08272 7.68727 7.68686 
6 1 3.79242 6.98057 6.98123 
37 1 0.738659 10.0365 10.0371 
38 1 2.26783 8.5001 8.49925 
39 1 1.56336 9.20783 9.20763 
13 1 6.23448 4.53683 4.52027 
14 1 7.77395 3.00281 3.00477 
15 1 7.0637 3.71069 3.70797 
28 1 10.0955 0.673295 0.678761 
29 1 8.58598 2.19015 2.19115 
30 1 9.29143 1.48134 1.4823 
1 1 6.17839 4.59989 6.16568 
2 1 7.70109 3.06093 7.70364 
3 1 6.94457 3.82857 6.89872 
40 1 10.0296 0.742721 10.0321 
41 1 8.53145 2.23829 8.50652 
42 1 9.21346 1.55829 9.20932 
49 2 7.25515 3.52524 8.6712 
7 1 6.17578 6.17587 4.60341 
8 1 7.6873 7.68726 3.08248 
9 1 6.98087 6.9811 3.79239 
43 1 10.0373 10.0372 0.738496 
44 1 8.49957 8.50024 2.26754 
45 1 9.2076 9.20812 1.5633 
22 1 6.23588 6.25423 6.23765 
23 1 7.77243 7.77263 7.77283 
24 1 7.06448 7.06695 7.06543 
34 1 10.1008 10.0971 10.1002 
35 1 8.58662 8.58663 8.58616 
36 1 9.29414 9.29426 9.29419 
ITEM: TIMESTEP
20
ITEM: NUMBER OF ATOMS
49
ITEM: BOX BOUNDS pp pp pp
0.0000000000000000e+00 1.1000000000000000e+01
0.0000000000000000e+00 1.1002000000000001e+01
0.0000000000000000e+00 1.1000000000000000e+01
ITEM: ATOMS id type x y z 
10 1 4.5939 4.5956 4.59996 
11 1 3.08347 3.08355 3.08083 
12 1 3.78861 3.78878 3.79492 
46 1 0.739372 0.733913 0.737204 
47 1 2.27295 2.2717 2.27231 
48 1 1.56433 1.56386 1.56365 
19 1 4.49068 4.54803 6.22616 
20 1 3.00537 2.99581 7.7806 
21 1 3.69659 3.71754 7.0578 
31 1 0.685469 0.673591 10.0958 
32 1 2.18987 2.19138 8.58435 
33 1 1.48607 1.47903 9.29381 
16 1 4.53546 6.23708 4.53412 
17 1 3.00286 7.77434 3.00291 
18 1 3.70896 7.06584 3.71043 
25 1 0.673496 10.0943 0.676848 
26 1 2.18901 8.58545 2.19142 
27 1 1.48503 9.29395 1.4802 
4 1 4.60588 6.17338 6.17924 
5 1 3.08238 7.68802 7.68547 
6 1 3.79399 6.97781 6.98324 
37 1 0.738959 10.0356 10.0359 
38 1 2.26957 8.49804 8.49655 
39 1 1.56548 9.20708 9.20737 
13 1 6.22333 4.54879 4.47726 
14 1 7.78174 2.9949 3.00546 
15 1 7.06071 3.71393 3.69063 
28 1 10.0959 0.671866 0.686228 
29 1 8.58649 2.18971 2.18891 
30 1 9.29474 1.47745 1.48541 
1 1 6.17883 4.60249 6.1398 
2 1 7.65873 3.10216 7.75345 
3 1 6.97568 3.7941 6.88352 
40 1 10.0392 0.734296 10.0469 
41 1 8.55023 2.21998 8.46439 
42 1 9.23496 1.53633 9.20542 
49 2 7.25405 3.52605 8.74264 
7 1 6.17686 6.179 4.60837 
8 1 7.68651 7.68724 3.08294 
9 1 6.98061 6.98049 3.79302 
43 1 10.0364 10.0348 0.739548 
44 1 8.49755 8.49991 2.26888 
45 1 9.2076 9.20452 1.56508 
22 1 6.22536 6.28538 6.22723 
23 1 7.77664 7.76819 7.77697 
24 1 7.05896 7.08094 7.06016 
34 1 10.1 10.0899 10.1017 
35 1 8.58484 8.58673 8.5856 
36 1 9.29633 9.29017 9.29437 
ITEM: TIMESTEP
30
ITEM: NUMBER OF ATOMS
49
ITEM: BOX BOUNDS pp pp pp
0.0000000000000000e+00 1.1000000000000000e+01
0.0000000000000000e+00 1.1002000000000001e+01
0.0000000000000000e+00 1.1000000000000000e+01
ITEM: ATOMS id type x y z 
10 1 4.58568 4.59794 4.6022 
11 1 3.0841 3.08337 3.08391 
12 1 3.78827 3.79243 3.79326 
46 1 0.748509 0.732604 0.744036 
47 1 2.27452 2.27586 2.27395 
48 1 1.57031 1.56337 1.56799 
19 1 4.48157 4.55565 6.21839 
20 1 3.0093 3.00054 7.77634 
21 1 3.68997 3.72079 7.05467 
31 1 0.697665 0.667494 10.105 
32 1 2.19442 2.19228 8.58396 
33 1 1.49024 1.47996 9.29062 
16 1 4.52957 6.24296 4.53177 
17 1 3.0011 7.77572 3.00166 
18 1 3.70725 7.06779 3.70822 
25 1 0.679586 10.0928 0.679058 
26 1 2.19153 8.58536 2.1909 
27 1 1.48214 9.29229 1.48269 
4 1 4.60235 6.171 6.18111 
5 1 3.08244 7.6856 7.68651 
6 1 3.79479 6.98116 6.98091 
37 1 0.745436 10.0295 10.0362 
38 1 2.27174 8.49652 8.49418 
39 1 1.56824 9.20355 9.20533 
13 1 6.21292 4.55927 4.45148 
14 1 7.78233 2.9936 3.00694 
15 1 7.05749 3.71826 3.67537 
28 1 10.1058 0.662947 0.699894 
29 1 8.58699 2.18765 2.19338 
30 1 9.29566 1.47954 1.48643 
1 1 6.16915 4.60853 6.10649 
2 1 7.61128 3.14948 7.8215 
3 1 6.97745 3.79146 6.8561 
40 1 10.0624 0.711218 10.0709 
41 1 8.58244 2.18702 8.41721 
42 1 9.24984 1.52188 9.17777 
49 2 7.23571 3.5439 8.804 
7 1 6.17369 6.18625 4.60439 
8 1 7.6865 7.6862 3.08271 
9 1 6.97887 6.98353 3.79502 
43 1 10.0384 10.0246 0.745802 
44 1 8.4937 8.49618 2.27213 
45 1 9.20676 9.20139 1.56828 
22 1 6.21836 6.29499 6.21987 
23 1 7.7752 7.76765 7.77566 
24 1 7.05431 7.08589 7.05551 
34 1 10.1071 10.0789 10.1056 
35 1 8.58502 8.58328 8.58155 
36 1 9.29198 9.28282 9.29809 
ITEM: TIMESTEP
40
ITEM: NUMBER OF ATOMS
49
ITEM: BOX BOUNDS pp pp pp
0.0000000000000000e+00 1.1000000000000000e+01
0.0000000000000000e+00 1.1002000000000001e+01
0.0000000000000000e+00 1.1000000000000000e+01
ITEM: ATOMS id type x y z 
10 1 4.5824 4.60194 4.60004 
11 1 3.08424 3.08318 3.08268 
12 1 3.78443 3.79326 3.79511 
46 1 0.748772 0.728451 0.744518 
47 1 2.27465 2.27535 2.27423 
48 1 1.57075 1.56213 1.567 
19 1 4.49094 4.5547 6.21783 
20 1 3.00582 3.00252 7.77466 
21 1 3.69395 3.72131 7.05395 
31 1 0.692148 0.668816 10.1062 
32 1 2.19758 2.18746 8.5881 
33 1 1.48275 1.48105 9.29036 
16 1 4.52503 6.24774 4.53128 
17 1 2.99934 7.77765 3.00006 
18 1 3.70328 7.07135 3.70464 
25 1 0.67893 10.0929 0.680645 
26 1 2.19054 8.58599 2.19012 
27 1 1.48189 9.29316 1.48154 
4 1 4.60146 6.16925 6.18229 
5 1 3.08006 7.68297 7.68811 
6 1 3.79798 6.98733 6.97902 
37 1 0.745975 10.0284 10.0385 
38 1 2.27105 8.49706 8.49478 
39 1 1.57034 9.20184 9.20434 
13 1 6.21096 4.56221 4.45019 
14 1 7.78229 2.99456 3.00348 
15 1 7.05565 3.71837 3.67211 
28 1 10.1065 0.663491 0.688277 
29 1 8.59192 2.18394 2.19034 
30 1 9.30066 1.47211 1.48645 
1 1 6.17663 4.60167 6.10055 
2 1 7.6021 3.16008 7.85868 
3 1 6.98999 3.77872 6.85556 
40 1 10.054 0.719319 10.0568 
41 1 8.57952 2.18959 8.40223 
42 1 9.25795 1.51316 9.15629 
49 2 7.23608 3.5431 8.8538 
7 1 6.17043 6.19099 4.6051 
8 1 7.68721 7.6872 3.08294 
9 1 6.97772 6.98601 3.79335 
43 1 10.0424 10.0244 0.745112 
44 1 8.49551 8.49733 2.27034 
45 1 9.20844 9.20123 1.56845 
22 1 6.21951 6.28355 6.21881 
23 1 7.7716 7.76803 7.77183 
24 1 7.05306 7.08393 7.05437 
34 1 10.1067 10.0839 10.1069 
35 1 8.59019 8.57923 8.58562 
36 1 9.28864 9.29107 9.29756 
ITEM: TIMESTEP
50
ITEM: NUMBER OF ATOMS
49
ITEM: BOX BOUNDS pp pp pp
0.0000000000000000e+00 1.1000000000000000e+01
0.0000000000000000e+00 1.1002000000000001e+01
0.0000000000000000e+00 1.1000000000000000e+01
ITEM: ATOMS id type x y z 
10 1 4.58394 4.60629 4.59992 
11 1 3.08277 3.08464 3.07963 
12 1 3.78061 3.79162 3.79761 
46 1 0.744345 0.726897 0.742851 
47 1 2.27472 2.27241 2.27537 
48 1 1.57125 1.56315 1.5658 
19 1 4.50292 4.55207 6.21916 
20 1 3.00495 3.00736 7.76939 
21 1 3.69857 3.72081 7.05471 
31 1 0.688563 0.66832 10.1027 
32 1 2.19906 2.18878 8.58675 
33 1 1.48719 1.48114 9.29094 
16 1 4.5228 6.25138 4.53654 
17 1 2.99651 7.78072 2.99849 
18 1 3.7036 7.07039 3.70464 
25 1 0.677522 10.0973 0.677779 
26 1 2.18784 8.58962 2.19173 
27 1 1.48292 9.29007 1.47317 
4 1 4.6061 6.165 6.18429 
5 1 3.08195 7.6846 7.68718 
6 1 3.79552 6.9841 6.98071 
37 1 0.740303 10.0293 10.0409 
38 1 2.27059 8.49644 8.49623 
39 1 1.56861 9.20548 9.20586 
13 1 6.20977 4.5609 4.44798 
14 1 7.7795 2.99334 2.99817 
15 1 7.05833 3.72274 3.66773 
28 1 10.1055 0.667105 0.676034 
29 1 8.59383 2.18278 2.18836 
30 1 9.30451 1.46693 1.49129 
1 1 6.18978 4.58675 6.09671 
2 1 7.58193 3.18224 7.90265 
3 1 6.99735 3.77099 6.85814 
40 1 10.0497 0.721036 10.042 
41 1 8.58197 2.18644 8.37913 
42 1 9.2566 1.51414 9.13588 
49 2 7.23699 3.54153 8.91283 
7 1 6.16489 6.19028 4.60155 
8 1 7.68392 7.68812 3.07812 
9 1 6.98271 6.99052 3.80202 
43 1 10.0423 10.0275 0.739392 
44 1 8.49649 8.49509 2.27033 
45 1 9.21009 9.2035 1.56825 
22 1 6.22458 6.26972 6.21956 
23 1 7.76912 7.76755 7.7679 
24 1 7.04977 7.08156 7.05183 
34 1 10.1079 10.088 10.1036 
35 1 8.58823 8.57815 8.58671 
36 1 9.29105 9.28812 9.29655 
ITEM: TIMESTEP
60
ITEM: NUMBER OF ATOMS
49
ITEM: BOX BOUNDS pp pp pp
0.0000000000000000e+00 1.1000000000000000e+01
0.0000000000000000e+00 1.1002000000000001e+01
0.0000000000000000e+00 1.1000000000000000e+01
ITEM: ATOMS id type x y z 
10 1 4.58171 4.60576 4.60276 
11 1 3.08232 3.0845 3.08382 
12 1 3.78362 3.79567 3.79369 
46 1 0.744953 0.730687 0.740342 
47 1 2.27408 2.27143 2.27279 
48 1 1.56931 1.56111 1.56676 
19 1 4.50559 4.55064 6.21878 
20 1 3.00539 3.00812 7.76969 
21 1 3.6983 3.72007 7.05334 
31 1 0.683788 0.670087 10.1006 
32 1 2.19715 2.18932 8.58562 
33 1 1.49097 1.48015 9.29314 
16 1 4.52327 6.24969 4.53561 
17 1 2.99744 7.77916 2.99767 
18 1 3.70275 7.07214 3.70818 
25 1 0.678047 10.0955 0.6751 
26 1 2.18926 8.58743 2.18859 
27 1 1.48084 9.29371 1.47914 
4 1 4.60656 6.16731 6.18303 
5 1 3.08349 7.68688 7.68489 
6 1 3.79471 6.97798 6.98375 
37 1 0.742831 10.031 10.0375 
38 1 2.27103 8.49755 8.49645 
39 1 1.56669 9.20433 9.20663 
13 1 6.21008 4.56297 4.44725 
14 1 7.78121 2.99497 2.99635 
15 1 7.05574 3.71971 3.66643 
28 1 10.1059 0.665418 0.675723 
29 1 8.59582 2.17931 2.19271 
30 1 9.30191 1.47143 1.48316 
1 1 6.1913 4.58395 6.09416 
2 1 7.58071 3.18387 7.9116 
3 1 7.00194 3.76658 6.86636 
40 1 10.0538 0.719232 10.0413 
41 1 8.57939 2.18891 8.37527 
42 1 9.25419 1.51627 9.12894 
49 2 7.23764 3.54073 8.92542 
7 1 6.16678 6.19137 4.60482 
8 1 7.68677 7.68912 3.08264 
9 1 6.97631 6.98923 3.79465 
43 1 10.0401 10.0284 0.741016 
44 1 8.49859 8.49686 2.27008 
45 1 9.20932 9.20269 1.56553 
22 1 6.224 6.26887 6.21923 
23 1 7.76788 7.77077 7.76822 
24 1 7.05431 7.07824 7.0532 
34 1 10.1035 10.0912 10.1025 
35 1 8.58525 8.57803 8.58628 
36 1 9.29348 9.28471 9.29422 
ITEM: TIMESTEP
70
ITEM: NUMBER OF ATOMS
49
ITEM: BOX BOUNDS pp pp pp
0.0000000000000000e+00 1.1000000000000000e+01
0.0000000000000000e+00 1.1002000000000001e+01
0.0000000000000000e+00 1.1000000000000000e+01
ITEM: ATOMS id type x y z 
10 1 4.58587 4.60896 4.5992 
11 1 3.08498 3.0858 3.0815 
12 1 3.77451 3.79697 3.80168 
46 1 0.74063 0.733869 0.73083 
47 1 2.2731 2.2693 2.27091 
48 1 1.56771 1.55891 1.5657 
19 1 4.52171 4.54212 6.21715 
20 1 3.00482 3.01018 7.76607 
21 1 3.70385 3.72182 7.05256 
31 1 0.679597 0.671653 10.0934 
32 1 2.19995 2.18862 8.5861 
33 1 1.48888 1.48357 9.29144 
16 1 4.52146 6.24999 4.54117 
17 1 2.9982 7.7787 2.99914 
18 1 3.70181 7.07247 3.70983 
25 1 0.674375 10.0981 0.669738 
26 1 2.18663 8.589 2.18589 
27 1 1.48019 9.2961 1.47696 
4 1 4.61184 6.16288 6.18841 
5 1 3.08536 7.68598 7.68581 
6 1 3.79403 6.97564 6.98334 
37 1 0.740179 10.0373 10.0336 
38 1 2.26868 8.50105 8.49644 
39 1 1.56743 9.20287 9.21051 
13 1 6.2102 4.5663 4.44386 
14 1 7.77932 3.00235 2.98928 
15 1 7.05098 3.7136 3.66507 
28 1 10.1001 0.672534 0.660048 
29 1 8.60163 2.17494 2.19158 
30 1 9.30308 1.46789 1.4781 
1 1 6.21158 4.56137 6.08961 
2 1 7.56321 3.20386 7.97111 
3 1 7.00408 3.76454 6.88619 
40 1 10.0557 0.719472 10.023 
41 1 8.5772 2.18979 8.35494 
42 1 9.25551 1.51537 9.10349 
49 2 7.23987 3.53765 8.99789 
7 1 6.16326 6.19365 4.60023 
8 1 7.68316 7.69248 3.0836 
9 1 6.97923 6.98721 3.7957 
43 1 10.0384 10.0342 0.73352 
44 1 8.50124 8.49856 2.2683 
45 1 9.21231 9.20463 1.56346 
22 1 6.22422 6.26185 6.22323 
23 1 7.75391 7.77964 7.7656 
24 1 7.07079 7.05387 7.04871 
34 1 10.0987 10.0945 10.0937 
35 1 8.58481 8.57558 8.58622 
36 1 9.29171 9.28537 9.29115 
ITEM: TIMESTEP
73
ITEM: NUMBER OF ATOMS
49
ITEM: BOX BOUNDS pp pp pp
0.0000000000000000e+00 1.1000000000000000e+01
0.0000000000000000e+00 1.1002000000000001e+01
0.0000000000000000e+00 1.1000000000000000e+01
ITEM: ATOMS id type x y z 
10 1 4.58587 4.60895 4.5992 
11 1 3.08498 3.0858 3.0815 
12 1 3.77451 3.79697 3.80168 
46 1 0.740629 0.733869 0.73083 
47 1 2.2731 2.2693 2.27091 
48 1 1.56771 1.55891 1.5657 
19 1 4.52171 4.54212 6.21715 
20 1 3.00482 3.01018 7.76607 
21 1 3.70385 3.72182 7.05256 
31 1 0.679597 0.671654 10.0934 
32 1 2.19995 2.18862 8.5861 
33 1 1.48888 1.48357 9.29144 
16 1 4.52146 6.24999 4.54117 
17 1 2.9982 7.7787 2.99914 
18 1 3.70181 7.07247 3.70983 
25 1 0.674374 10.0981 0.669739 
26 1 2.18663 8.589 2.18589 
27 1 1.48019 9.2961 1.47696 
4 1 4.61184 6.16288 6.18841 
5 1 3.08536 7.68598 7.68581 
6 1 3.79403 6.97564 6.98334 
37 1 0.740179 10.0373 10.0336 
38 1 2.26869 8.50105 8.49644 
39 1 1.56743 9.20287 9.21051 
13 1 6.21021 4.5663 4.44386 
14 1 7.77933 3.00235 2.98928 
15 1 7.05099 3.7136 3.66507 
28 1 10.1001 0.672533 0.660048 
29 1 8.60163 2.17494 2.19158 
30 1 9.30308 1.46789 1.4781 
1 1 6.21158 4.56137 6.08961 
2 1 7.56321 3.20386 7.97111 
3 1 7.00408 3.76454 6.88619 
40 1 10.0557 0.719472 10.023 
41 1 8.5772 2.18979 8.35494 
42 1 9.25551 1.51537 9.10349 
49 2 7.23987 3.53765 8.99789 
7 1 6.16326 6.19365 4.60023 
8 1 7.68316 7.69248 3.0836 
9 1 6.97923 6.98721 3.7957 
43 1 10.0384 10.0342 0.73352 
44 1 8.50124 8.49856 2.2683 
45 1 9.21231 9.20463 1.56346 
22 1 6.22422 6.26185 6.22323 
23 1 7.7539 7.77963 7.7656 
24 1 7.07079 7.05387 7.04872 
34 1 10.0987 10.0945 10.0937 
35 1 8.58481 8.57558 8.58622 
36 1 9.29171 9.28537 9.29115 
ITEM: TIMESTEP
74
ITEM: NUMBER OF ATOMS
49
ITEM: BOX BOUNDS pp pp pp
0.0000000000000000e+00 1.1000000000000000e+01
0.0000000000000000e+00 1.1002000000000001e+01
0.0000000000000000e+00 1.1000000000000000e+01
ITEM: ATOMS id type x y z 
10 1 4.58587 4.60895 4.5992 
11 1 3.08498 3.0858 3.0815 
12 1 3.77451 3.79697 3.80168 
46 1 0.740629 0.733869 0.73083 
47 1 2.2731 2.2693 2.27091 
48 1 1.56771 1.55891 1.5657 
19 1 4.52171 4.54212 6.21715 
20 1 3.00482 3.01018 7.76607 
21 1 3.70385 3.72182 7.05256 
31 1 0.679597 0.671654 10.0934 
32 1 2.19995 2.18862 8.5861 
33 1 1.48888 1.48357 9.29144 
16 1 4.52146 6.24999 4.54117 
17 1 2.9982 7.7787 2.99914 
18 1 3.70181 7.07247 3.70983 
25 1 0.674374 10.0981 0.669739 
26 1 2.18663 8.589 2.18589 
27 1 1.48019 9.2961 1.47696 
4 1 4.61184 6.16288 6.18841 
5 1 3.08536 7.68598 7.68581 
6 1 3.79403 6.97564 6.98334 
37 1 0.740179 10.0373 10.0336 
38 1 2.26869 8.50105 8.49644 
39 1 1.56743 9.20287 9.21051 
13 1 6.21021 4.5663 4.44386 
14 1 7.77933 3.00235 2.98928 
15 1 7.05099 3.7136 3.66507 
28 1 10.1001 0.672533 0.660048 
29 1 8.60163 2.17494 2.19158 
30 1 9.30308 1.46789 1.4781 
1 1 6.21158 4.56137 6.08961 
2 1 7.56321 3.20386 7.97111 
3 1 7.00408 3.76454 6.88619 
40 1 10.0557 0.719472 10.023 
41 1 8.5772 2.18979 8.35494 
42 1 9.25551 1.51537 9.10349 
49 2 7.23987 3.53765 8.99789 
7 1 6.16326 6.19365 4.60023 
8 1 7.68316 7.69248 3.0836 
9 1 6.97923 6.98721 3.7957 
43 1 10.0384 10.0342 0.73352 
44 1 8.50124 8.49856 2.2683 
45 1 9.21231 9.20463 1.56346 
22 1 6.22422 6.26185 6.22323 
23 1 7.7539 7.77963 7.7656 
24 1 7.07079 7.05387 7.04872 
34 1 10.0987 10.0945 10.0937 
35 1 8.58481 8.57558 8.58622 
36 1 9.29171 9.28537 9.29115 
ITEM: TIMESTEP
80
ITEM: NUMBER OF ATOMS
49
ITEM: BOX BOUNDS pp pp pp
-3.2685017689860372e-03 1.1003268501768986e+01
-3.1700352504286772e-03 1.1005170035250428e+01
-3.3000000000000000e-03 1.1003300000000003e+01
ITEM: ATOMS id type x y z 
10 1 4.58528 4.60846 4.59875 
11 1 3.08353 3.0844 3.08007 
12 1 3.7735 3.79597 3.80062 
46 1 0.737758 0.731089 0.727956 
47 1 2.27116 2.26741 2.26896 
48 1 1.56533 1.55661 1.56329 
19 1 4.52115 4.54161 6.21756 
20 1 3.00338 3.0088 7.76739 
21 1 3.70281 3.72079 7.05347 
31 1 0.676688 0.668919 10.0962 
32 1 2.19799 2.18673 8.58795 
33 1 1.48653 1.48124 9.29368 
16 1 4.5209 6.2504 4.54061 
17 1 2.99671 7.78002 2.99762 
18 1 3.70075 7.07337 3.70879 
25 1 0.671451 10.1008 0.666874 
26 1 2.18467 8.59079 2.18391 
27 1 1.47778 9.29826 1.47455 
4 1 4.61137 6.16319 6.18879 
5 1 3.08392 7.68722 7.68709 
6 1 3.79301 6.97651 6.98428 
37 1 0.737348 10.0399 10.0363 
38 1 2.2668 8.50274 8.49822 
39 1 1.56509 9.20501 9.21272 
13 1 6.21062 4.56575 4.44325 
14 1 7.78072 3.00085 2.98773 
15 1 7.0519 3.7126 3.66396 
28 1 10.1029 0.669665 0.657103 
29 1 8.60346 2.17302 2.18961 
30 1 9.30533 1.46561 1.47567 
1 1 6.21194 4.56088 6.08998 
2 1 7.56444 3.20253 7.97259 
3 1 7.00499 3.76352 6.88709 
40 1 10.0584 0.716703 10.0258 
41 1 8.57901 2.1879 8.35666 
42 1 9.25776 1.51305 9.10566 
49 2 7.2409 3.53652 9.00002 
7 1 6.16364 6.19406 4.59977 
8 1 7.68449 7.69374 3.08215 
9 1 6.98009 6.9881 3.79465 
43 1 10.0412 10.0369 0.730635 
44 1 8.50306 8.50031 2.26634 
45 1 9.21453 9.2068 1.56106 
22 1 6.22462 6.26223 6.22362 
23 1 7.75521 7.78087 7.7669 
24 1 7.07172 7.05481 7.04967 
34 1 10.1014 10.0972 10.0966 
35 1 8.58661 8.57734 8.58807 
36 1 9.29397 9.28754 9.29339 
ITEM: TIMESTEP
90
ITEM: NUMBER OF ATOMS
49
ITEM: BOX BOUNDS pp pp pp
-5.6952107456520141e-03 1.1005695210745653e+01
-4.2731893419041753e-03 1.1006273189341904e+01
-7.1005908195295245e-03 1.1007100590819537e+01
ITEM: ATOMS id type x y z 
10 1 4.58467 4.60895 4.60003 
11 1 3.08218 3.084 3.07877 
12 1 3.77288 3.79526 3.79855 
46 1 0.734721 0.729324 0.724214 
47 1 2.26912 2.26596 2.26619 
48 1 1.56311 1.5556 1.55983 
19 1 4.52141 4.54247 6.21735 
20 1 3.00316 3.00941 7.76808 
21 1 3.70251 3.72043 7.05404 
31 1 0.673445 0.668164 10.1007 
32 1 2.19635 2.18639 8.59025 
33 1 1.48545 1.48027 9.29556 
16 1 4.52119 6.24994 4.54058 
17 1 2.9958 7.78025 2.99587 
18 1 3.70012 7.07356 3.70822 
25 1 0.668221 10.1032 0.663405 
26 1 2.18336 8.59181 2.18148 
27 1 1.47569 9.29832 1.47198 
4 1 4.61222 6.16184 6.18844 
5 1 3.08285 7.6874 7.68803 
6 1 3.79233 6.97713 6.98633 
37 1 0.734805 10.0409 10.0401 
38 1 2.26564 8.50304 8.50027 
39 1 1.56306 9.20619 9.21518 
13 1 6.2106 4.56576 4.44337 
14 1 7.78208 2.99964 2.98564 
15 1 7.05251 3.7129 3.66249 
28 1 10.1063 0.666958 0.652734 
29 1 8.60478 2.1721 2.18759 
30 1 9.30673 1.4657 1.47269 
1 1 6.21099 4.56194 6.09012 
2 1 7.56562 3.20181 7.9744 
3 1 7.00596 3.76288 6.88946 
40 1 10.0607 0.715208 10.0294 
41 1 8.58029 2.18735 8.35915 
42 1 9.25985 1.51178 9.10824 
49 2 7.24167 3.53612 9.00296 
7 1 6.16346 6.19377 4.60096 
8 1 7.68586 7.69398 3.08056 
9 1 6.98041 6.98928 3.7929 
43 1 10.044 10.0387 0.726631 
44 1 8.50529 8.50164 2.26346 
45 1 9.21628 9.20805 1.55774 
22 1 6.2242 6.26099 6.22292 
23 1 7.75558 7.77991 7.76741 
24 1 7.07196 7.05582 7.05091 
34 1 10.1036 10.0992 10.1012 
35 1 8.58775 8.57792 8.59018 
36 1 9.29531 9.28798 9.29544 
ITEM: TIMESTEP
100
ITEM: NUMBER OF ATOMS
49
ITEM: BOX BOUNDS pp pp pp
-6.1107394867801375e-03 1.1006110739486783e+01
-4.1424149353185150e-03 1.1006142414935319e+01
-9.3003287443720571e-03 1.1009300328744382e+01
ITEM: ATOMS id type x y z 
10 1 4.58462 4.60941 4.60077 
11 1 3.08178 3.08409 3.07807 
12 1 3.77288 3.79506 3.79723 
46 1 0.733835 0.72896 0.722043 
47 1 2.2684 2.26544 2.26448 
48 1 1.56271 1.55578 1.55797 
19 1 4.52182 4.54313 6.21719 
20 1 3.00352 3.01019 7.76844 
21 1 3.70262 3.72036 7.0544 
31 1 0.672411 0.668225 10.1032 
32 1 2.19598 2.18672 8.5916 
33 1 1.48563 1.48021 9.29655 
16 1 4.52162 6.24949 4.54057 
17 1 2.99592 7.77985 2.99502 
18 1 3.69993 7.07362 3.70782 
25 1 0.667271 10.1038 0.661119 
26 1 2.18313 8.5919 2.17998 
27 1 1.47532 9.29797 1.47065 
4 1 4.61288 6.16102 6.18817 
5 1 3.08257 7.68726 7.68858 
6 1 3.79237 6.97721 6.98754 
37 1 0.734093 10.041 10.0424 
38 1 2.2653 8.50304 8.50176 
39 1 1.5626 9.20637 9.21653 
13 1 6.21038 4.56592 4.44363 
14 1 7.78214 2.99953 2.98471 
15 1 7.05273 3.71329 3.66147 
28 1 10.1074 0.666109 0.650198 
29 1 8.60502 2.17198 2.18643 
30 1 9.30681 1.46645 1.47093 
1 1 6.21036 4.56271 6.09002 
2 1 7.56597 3.20168 7.9755 
3 1 7.00622 3.76279 6.89097 
40 1 10.0613 0.714992 10.0314 
41 1 8.58059 2.18738 8.36085 
42 1 9.26024 1.51172 9.10952 
49 2 7.24181 3.53615 9.00472 
7 1 6.16321 6.19328 4.60172 
8 1 7.6863 7.69375 3.07968 
9 1 6.98031 6.98991 3.79179 
43 1 10.0449 10.0391 0.724278 
44 1 8.50615 8.50207 2.26173 
45 1 9.21644 9.20813 1.55594 
22 1 6.22383 6.25998 6.22237 
23 1 7.75552 7.77905 7.76777 
24 1 7.07162 7.05616 7.05153 
34 1 10.1044 10.0997 10.1037 
35 1 8.58797 8.57785 8.59136 
36 1 9.29516 9.28766 9.29669 
ITEM: TIMESTEP
110
ITEM: NUMBER OF ATOMS
49
ITEM: BOX BOUNDS pp pp pp
-7.2418571416086744e-03 1.1007241857141612e+01
-4.8177156042330509e-03 1.1006817715604233e+01
-1.2539555678989185e-02 1.1012539555679004e+01
ITEM: ATOMS id type x y z 
10 1 4.58452 4.60976 4.60121 
11 1 3.08104 3.08383 3.07693 
12 1 3.77268 3.7946 3.79557 
46 1 0.732349 0.72791 0.718957 
47 1 2.26729 2.26447 2.2622 
48 1 1.56181 1.55541 1.55536 
19 1 4.52211 4.54359 6.21718 
20 1 3.0035 3.01055 7.76929 
21 1 3.70248 3.71997 7.05509 
31 1 0.670759 0.667506 10.1065 
32 1 2.19518 2.18658 8.59355 
33 1 1.48528 1.47953 9.29823 
16 1 4.52193 6.24914 4.5404 
17 1 2.99573 7.77976 2.99377 
18 1 3.69955 7.0739 3.70701 
25 1 0.66576 10.105 0.657862 
26 1 2.1824 8.59243 2.17789 
27 1 1.47452 9.29819 1.46847 
4 1 4.61332 6.16043 6.18801 
5 1 3.08197 7.68745 7.68955 
6 1 3.79223 6.97749 6.98907 
37 1 0.732728 10.0417 10.0456 
38 1 2.26444 8.50357 8.50393 
39 1 1.56163 9.2071 9.21855 
13 1 6.21022 4.56596 4.44375 
14 1 7.78237 2.99915 2.98342 
15 1 7.05318 3.71344 3.66008 
28 1 10.1089 0.664661 0.646758 
29 1 8.60567 2.17136 2.18465 
30 1 9.30737 1.46662 1.46836 
1 1 6.20993 4.56325 6.08997 
2 1 7.5666 3.20121 7.9771 
3 1 7.00663 3.76249 6.89278 
40 1 10.0624 0.714069 10.0343 
41 1 8.58131 2.18692 8.36317 
42 1 9.26112 1.5111 9.11142 
49 2 7.24219 3.53588 9.00715 
7 1 6.16305 6.19279 4.60221 
8 1 7.68704 7.69381 3.07835 
9 1 6.98036 6.9908 3.79036 
43 1 10.0463 10.0401 0.721024 
44 1 8.50736 8.50288 2.25943 
45 1 9.21702 9.20873 1.55341 
22 1 6.22361 6.25905 6.22194 
23 1 7.75583 7.77855 7.76862 
24 1 7.07147 7.05676 7.05245 
34 1 10.1058 10.1009 10.107 
35 1 8.58852 8.57826 8.59313 
36 1 9.29559 9.28784 9.29862 
ITEM: TIMESTEP
120
ITEM: NUMBER OF ATOMS
49
ITEM: BOX BOUNDS pp pp pp
-8.5079611195625435e-03 1.1008507961119568e+01
-5.6901523710232221e-03 1.1007690152371024e+01
-1.6125260231719753e-02 1.1016125260231735e+01
ITEM: ATOMS id type x y z 
10 1 4.58444 4.61011 4.60154 
11 1 3.08021 3.08349 3.07567 
12 1 3.77249 3.79407 3.79372 
46 1 0.730724 0.726672 0.715534 
47 1 2.2661 2.26337 2.25973 
48 1 1.56081 1.55493 1.55247 
19 1 4.52241 4.54401 6.2172 
20 1 3.00339 3.01081 7.77032 
21 1 3.7023 3.71946 7.05586 
31 1 0.669027 0.666386 10.11 
32 1 2.19439 2.18616 8.59558 
33 1 1.4847 1.47906 9.30031 
16 1 4.52223 6.24883 4.54028 
17 1 2.99548 7.77976 2.99252 
18 1 3.6992 7.07413 3.70593 
25 1 0.664092 10.1062 0.654208 
26 1 2.18148 8.59296 2.17558 
27 1 1.47385 9.29874 1.46607 
4 1 4.61364 6.15995 6.18784 
5 1 3.08128 7.68772 7.69061 
6 1 3.79209 6.97783 6.99076 
37 1 0.731192 10.0426 10.0491 
38 1 2.26341 8.50429 8.50641 
39 1 1.56054 9.208 9.22077 
13 1 6.21005 4.56596 4.44391 
14 1 7.78254 2.99874 2.98205 
15 1 7.05369 3.7136 3.65853 
28 1 10.1106 0.663084 0.642983 
29 1 8.60642 2.17057 2.18267 
30 1 9.308 1.46671 1.46548 
1 1 6.20961 4.56369 6.08988 
2 1 7.56729 3.20065 7.97891 
3 1 7.00702 3.76219 6.89476 
40 1 10.0637 0.712939 10.0374 
41 1 8.58211 2.18633 8.36578 
42 1 9.26211 1.51029 9.11353 
49 2 7.24264 3.53552 9.00984 
7 1 6.16291 6.19222 4.60259 
8 1 7.68786 7.69392 3.07688 
9 1 6.98038 6.99183 3.7888 
43 1 10.0479 10.0413 0.717433 
44 1 8.50865 8.50378 2.25695 
45 1 9.21767 9.20948 1.55062 
22 1 6.22348 6.25805 6.22151 
23 1 7.75626 7.77812 7.76963 
24 1 7.07128 7.05747 7.05346 
34 1 10.1074 10.1023 10.1106 
35 1 8.58915 8.57877 8.59511 
36 1 9.29608 9.28818 9.30074 
ITEM: TIMESTEP
130
ITEM: NUMBER OF ATOMS
49
ITEM: BOX BOUNDS pp pp pp
-9.5770218268264352e-03 1.1009577021826832e+01
-6.4009152685072018e-03 1.1008400915268510e+01
-2.0150724173503897e-02 1.1020150724173524e+01
ITEM: ATOMS id type x y z 
10 1 4.58445 4.61066 4.602 
11 1 3.07931 3.08323 3.07437 
12 1 3.77251 3.79349 3.79141 
46 1 0.729057 0.725401 0.71157 
47 1 2.26488 2.26214 2.2569 
48 1 1.55986 1.55462 1.54906 
19 1 4.52294 4.5446 6.21712 
20 1 3.00345 3.01133 7.77145 
21 1 3.70229 3.71888 7.05665 
31 1 0.667326 0.665223 10.114 
32 1 2.19379 2.18579 8.59786 
33 1 1.48422 1.47894 9.30256 
16 1 4.52279 6.24835 4.54028 
17 1 2.99548 7.77955 2.99126 
18 1 3.69896 7.07424 3.70471 
25 1 0.662584 10.1075 0.650029 
26 1 2.1807 8.59355 2.173 
27 1 1.47327 9.29893 1.46332 
4 1 4.61401 6.15939 6.18749 
5 1 3.0806 7.68787 7.69169 
6 1 3.79219 6.97817 6.99289 
37 1 0.729653 10.0435 10.0533 
38 1 2.26235 8.50505 8.50939 
39 1 1.55953 9.20892 9.22314 
13 1 6.2097 4.56601 4.44439 
14 1 7.78238 2.99844 2.98066 
15 1 7.05422 3.71406 3.6567 
28 1 10.1123 0.661508 0.638612 
29 1 8.60714 2.16979 2.18049 
30 1 9.30834 1.46717 1.46209 
1 1 6.20928 4.5642 6.08968 
2 1 7.56797 3.2001 7.98107 
3 1 7.00727 3.76205 6.89733 
40 1 10.065 0.711801 10.041 
41 1 8.58283 2.18583 8.369 
42 1 9.26306 1.50949 9.11581 
49 2 7.24307 3.53516 9.01299 
7 1 6.16267 6.19132 4.60311 
8 1 7.68876 7.69385 3.07526 
9 1 6.98015 6.99317 3.78695 
43 1 10.0494 10.0425 0.713268 
44 1 8.51003 8.50469 2.25414 
45 1 9.21807 9.2102 1.5474 
22 1 6.22334 6.25656 6.22079 
23 1 7.75668 7.77732 7.77069 
24 1 7.07076 7.05835 7.0546 
34 1 10.109 10.1039 10.1145 
35 1 8.58959 8.57924 8.59732 
36 1 9.29637 9.28827 9.30304 
ITEM: TIMESTEP
140
ITEM: NUMBER OF ATOMS
49
ITEM: BOX BOUNDS pp pp pp
-1.0203505399716843e-02 1.1010203505399721e+01
-6.8677485261627834e-03 1.1008867748526164e+01
-2.3135583081972270e-02 1.1023135583081995e+01
ITEM: ATOMS id type x y z 
10 1 4.58445 4.61116 4.6024 
11 1 3.07858 3.08305 3.07354 
12 1 3.77274 3.79303 3.78942 
46 1 0.727822 0.724406 0.708516 
47 1 2.26398 2.26111 2.25475 
48 1 1.55922 1.55451 1.54639 
19 1 4.52351 4.54512 6.21695 
20 1 3.0036 3.01186 7.77226 
21 1 3.70245 3.71836 7.05714 
31 1 0.666151 0.664344 10.1169 
32 1 2.19342 2.18554 8.59946 
33 1 1.48409 1.47904 9.30428 
16 1 4.52339 6.24782 4.5404 
17 1 2.99564 7.77924 2.99042 
18 1 3.69888 7.07433 3.70394 
25 1 0.661543 10.1084 0.646829 
26 1 2.18017 8.5939 2.17104 
27 1 1.47309 9.2991 1.46136 
4 1 4.61443 6.15896 6.18732 
5 1 3.08032 7.68789 7.69266 
6 1 3.79204 6.97853 6.99419 
37 1 0.728545 10.0442 10.0566 
38 1 2.26158 8.50564 8.51179 
39 1 1.55883 9.20967 9.22478 
13 1 6.20933 4.56603 4.44505 
14 1 7.782 2.99826 2.97974 
15 1 7.05464 3.71465 3.65524 
28 1 10.1134 0.660583 0.63499 
29 1 8.60757 2.16949 2.17856 
30 1 9.30849 1.46714 1.46008 
1 1 6.20912 4.5645 6.08949 
2 1 7.56843 3.1997 7.98284 
3 1 7.00726 3.76212 6.89963 
40 1 10.0658 0.710934 10.0436 
41 1 8.58324 2.18554 8.37172 
42 1 9.26372 1.50886 9.11736 
49 2 7.2434 3.53484 9.01546 
7 1 6.1625 6.19049 4.60354 
8 1 7.68951 7.69368 3.07411 
9 1 6.9797 6.99442 3.78546 
43 1 10.0505 10.0434 0.710022 
44 1 8.51111 8.50539 2.25202 
45 1 9.21819 9.21081 1.54487 
22 1 6.22331 6.2551 6.22002 
23 1 7.75702 7.77648 7.77141 
24 1 7.07007 7.05919 7.05542 
34 1 10.1102 10.105 10.1175 
35 1 8.58976 8.57957 8.59897 
36 1 9.29642 9.28826 9.30463 
ITEM: TIMESTEP
150
ITEM: NUMBER OF ATOMS
49
ITEM: BOX BOUNDS pp pp pp
-1.1112461337857949e-02 1.1011112461337863e+01
-7.7996284694203432e-03 1.1009799628469422e+01
-2.6444999890869871e-02 1.1026444999890895e+01
ITEM: ATOMS id type x y z 
10 1 4.58433 4.6116 4.60275 
11 1 3.07756 3.08265 3.07268 
12 1 3.77304 3.79241 3.78709 
46 1 0.726247 0.722957 0.705077 
47 1 2.26288 2.2597 2.2524 
48 1 1.55827 1.55412 1.54332 
19 1 4.5241 4.54557 6.21674 
20 1 3.00364 3.01228 7.7732 
21 1 3.70265 3.71758 7.05763 
31 1 0.664792 0.663096 10.1201 
32 1 2.19291 2.18505 8.60121 
33 1 1.48376 1.47886 9.30617 
16 1 4.52403 6.24733 4.5406 
17 1 2.99577 7.77909 2.98957 
18 1 3.69872 7.07444 3.70302 
25 1 0.660301 10.1097 0.64334 
26 1 2.17946 8.59448 2.1689 
27 1 1.47276 9.29959 1.45919 
4 1 4.61483 6.15865 6.18731 
5 1 3.08008 7.68808 7.69396 
6 1 3.7915 6.97902 6.99532 
37 1 0.727143 10.0453 10.0602 
38 1 2.26063 8.50648 8.51448 
39 1 1.55786 9.21084 9.22652 
13 1 6.20893 4.56588 4.44587 
14 1 7.78157 2.99785 2.97871 
15 1 7.05522 3.71534 3.65366 
28 1 10.1147 0.65928 0.631045 
29 1 8.60814 2.16885 2.17642 
30 1 9.30886 1.46689 1.45776 
1 1 6.20919 4.56452 6.08935 
2 1 7.56899 3.19913 7.98494 
3 1 7.00715 3.76224 6.90238 
40 1 10.0669 0.709631 10.0465 
41 1 8.58373 2.18505 8.37488 
42 1 9.26468 1.50777 9.11901 
49 2 7.2439 3.53428 9.01827 
7 1 6.16206 6.18994 4.60378 
8 1 7.69006 7.694 3.07277 
9 1 6.97994 6.99532 3.78391 
43 1 10.0519 10.0448 0.706381 
44 1 8.5125 8.50639 2.24967 
45 1 9.21839 9.21182 1.54201 