ITEM: TIMESTEP
0
ITEM: NUMBER OF ATOMS
75
ITEM: BOX BOUNDS pp pp pp
0.0000000000000000e+00 1.3600000000000000e+01
0.0000000000000000e+00 1.3600000000000000e+01
0.0000000000000000e+00 1.3600000000000000e+01
ITEM: ATOMS id type x y z 
1 1 6.672 0.882 7.682 
2 1 6.673 1.896 8.696 
3 1 6.672 2.763 9.563 
7 1 6.673 5.663 12.463 
8 1 6.672 4.65 11.449 
9 1 6.672 3.783 10.582 
49 1 5.663 6.673 12.463 
50 1 4.65 6.672 11.449 
51 1 3.783 6.672 10.582 
55 1 0.882 6.672 7.682 
56 1 1.896 6.673 8.696 
57 1 2.763 6.672 9.563 
73 2 6.376 1.874 10.546 
75 3 6.297 0.103 11.51 
25 1 0.882 7.682 6.672 
26 1 1.896 8.696 6.673 
27 1 2.763 9.563 6.672 
31 1 5.663 12.463 6.673 
32 1 4.65 11.449 6.672 
33 1 3.783 10.582 6.672 
37 1 6.673 12.463 5.663 
38 1 6.672 11.449 4.65 
39 1 6.672 10.582 3.783 
43 1 6.672 7.682 0.882 
44 1 6.673 8.696 1.896 
45 1 6.672 9.563 2.763 
28 1 5.662 7.683 13.473 
29 1 4.649 8.696 13.472 
30 1 3.781 9.563 13.471 
34 1 0.882 12.462 13.473 
35 1 1.896 11.449 13.472 
36 1 2.763 10.582 13.472 
52 1 5.662 13.473 7.683 
53 1 4.649 13.472 8.696 
54 1 3.781 13.472 9.563 
58 1 0.882 13.472 12.462 
59 1 1.896 13.472 11.449 
60 1 2.763 13.472 10.582 
13 1 7.682 6.672 0.882 
14 1 8.696 6.673 1.896 
15 1 9.563 6.672 2.763 
19 1 12.463 6.673 5.663 
20 1 11.449 6.672 4.65 
21 1 10.582 6.672 3.783 
61 1 12.463 5.663 6.673 
62 1 11.449 4.65 6.672 
63 1 10.582 3.783 6.672 
67 1 7.682 0.882 6.672 
68 1 8.696 1.896 6.673 
69 1 9.563 2.763 6.672 
4 1 13.473 5.662 7.683 
5 1 13.472 4.649 8.696 
6 1 13.471 3.781 9.563 
10 1 13.473 0.883 12.462 
11 1 13.473 1.896 11.449 
12 1 13.472 2.763 10.582 
64 1 7.683 5.662 13.473 
65 1 8.696 4.649 13.472 
66 1 9.563 3.781 13.471 
70 1 12.462 0.883 13.473 
71 1 11.449 1.896 13.473 
72 1 10.582 2.763 13.472 
74 2 7.03 0.76 11.348 
16 1 7.683 13.473 5.662 
17 1 8.696 13.472 4.649 
18 1 9.563 13.471 3.781 
22 1 12.462 13.473 0.882 
23 1 11.449 13.473 1.896 
24 1 10.582 13.472 2.763 
40 1 13.473 7.683 5.662 
41 1 13.472 8.696 4.649 
42 1 13.471 9.563 3.781 
46 1 13.473 12.462 0.882 
47 1 13.473 11.449 1.896 
48 1 13.472 10.582 2.763 
ITEM: TIMESTEP
10
ITEM: NUMBER OF ATOMS
75
ITEM: BOX BOUNDS pp pp pp
0.0000000000000000e+00 1.3600000000000000e+01
0.0000000000000000e+00 1.3600000000000000e+01
0.0000000000000000e+00 1.3600000000000000e+01
ITEM: ATOMS id type x y z 
1 1 6.66782 0.904706 7.68999 
2 1 6.69869 1.85517 8.61969 
3 1 6.62895 2.71162 9.68654 
7 1 6.67149 5.66099 12.4615 
8 1 6.6769 4.66913 11.4641 
9 1 6.68009 3.82323 10.5759 
49 1 5.63873 6.67941 12.4452 
50 1 4.63727 6.67198 11.4363 
51 1 3.77139 6.67191 10.5708 
55 1 0.897582 6.67197 7.69785 
56 1 1.9057 6.67438 8.7039 
57 1 2.77028 6.67133 9.57095 
73 2 6.37897 1.91803 10.5003 
75 3 6.3198 0.130781 11.5039 
25 1 0.897342 7.69738 6.67221 
26 1 1.90508 8.70325 6.6744 
27 1 2.76945 9.57019 6.67132 
31 1 5.64605 12.4442 6.6718 
32 1 4.63719 11.436 6.67138 
33 1 3.77177 10.5709 6.67195 
37 1 6.67231 12.4396 5.64045 
38 1 6.67005 11.4374 4.64003 
39 1 6.67292 10.5731 3.77304 
43 1 6.6724 7.70101 0.901144 
44 1 6.67438 8.70557 1.90742 
45 1 6.67134 9.57233 2.77153 
28 1 5.64464 7.70445 13.477 
29 1 4.63913 8.70975 13.4757 
30 1 3.77111 9.57122 13.4695 
34 1 0.897418 12.4473 13.4723 
35 1 1.90538 11.4412 13.4704 
36 1 2.77009 10.5739 13.4724 
52 1 5.61239 13.4418 7.70382 
53 1 4.63468 13.4689 8.70643 
54 1 3.76855 13.4739 9.57621 
58 1 0.897568 13.4724 12.4462 
59 1 1.90723 13.4684 11.4417 
60 1 2.771 13.4738 10.5726 
13 1 7.69959 6.67665 0.904009 
14 1 8.70578 6.67495 1.90821 
15 1 9.57307 6.67116 2.77213 
19 1 12.4471 6.67301 5.64736 
20 1 11.439 6.67035 4.64121 
21 1 10.5742 6.6728 3.77431 
61 1 12.4465 5.64659 6.67319 
62 1 11.4383 4.64042 6.67039 
63 1 10.5736 3.77349 6.67301 
67 1 7.73271 0.903636 6.64103 
68 1 8.70767 1.90852 6.67229 
69 1 9.57699 2.77691 6.67205 
4 1 13.4721 5.64651 7.69752 
5 1 13.4754 4.64094 8.70765 
6 1 13.4694 3.77317 9.56945 
10 1 13.4726 0.898379 12.4472 
11 1 13.4763 1.9036 11.4379 
12 1 13.4699 2.77181 10.5744 
64 1 7.70581 5.64472 13.479 
65 1 8.71128 4.63839 13.4761 
66 1 9.57212 3.76985 13.469 
70 1 12.4474 0.898916 13.472 
71 1 11.4383 1.90314 13.4763 
72 1 10.5747 2.77146 13.4699 
74 2 7.01451 0.725401 11.3627 
16 1 7.69919 13.4694 5.64245 
17 1 8.71135 13.4755 4.63701 
18 1 9.57275 13.469 3.76971 
22 1 12.4474 13.4722 0.897789 
23 1 11.4394 13.4762 1.90207 
24 1 10.5757 13.4699 2.77055 
40 1 13.4721 7.69769 5.64629 
41 1 13.4754 8.70777 4.64082 
42 1 13.4694 9.56959 3.77306 
46 1 13.4726 12.4468 0.897994 
47 1 13.4762 11.4379 1.90342 
48 1 13.47 10.5746 2.77175 
ITEM: TIMESTEP
20
ITEM: NUMBER OF ATOMS
75
ITEM: BOX BOUNDS pp pp pp
0.0000000000000000e+00 1.3600000000000000e+01
0.0000000000000000e+00 1.3600000000000000e+01
0.0000000000000000e+00 1.3600000000000000e+01
ITEM: ATOMS id type x y z 
1 1 6.66437 0.895711 7.66768 
2 1 6.70817 1.88414 8.62402 
3 1 6.61279 2.66236 9.70227 
7 1 6.67043 5.66915 12.4751 
8 1 6.6817 4.6808 11.451 
9 1 6.68588 3.83967 10.568 
49 1 5.63314 6.68681 12.4475 
50 1 4.63496 6.67289 11.4354 
51 1 3.77005 6.67153 10.5694 
55 1 0.89819 6.67132 7.69945 
56 1 1.90503 6.67404 8.70278 
57 1 2.76912 6.67165 9.56971 
73 2 6.36876 1.91689 10.5158 
75 3 6.31807 0.13406 11.5039 
25 1 0.897571 7.69821 6.67182 
26 1 1.9038 8.70164 6.67415 
27 1 2.76765 9.56858 6.67166 
31 1 5.64399 12.443 6.67285 
32 1 4.63595 11.4313 6.66937 
33 1 3.7687 10.5692 6.67244 
37 1 6.67105 12.4376 5.63945 
38 1 6.66975 11.4366 4.63953 
39 1 6.67268 10.5719 3.77162 
43 1 6.67242 7.70262 0.902737 
44 1 6.6743 8.70627 1.90828 
45 1 6.67172 9.57348 2.77262 
28 1 5.64268 7.70764 13.4776 
29 1 4.63774 8.71114 13.4767 
30 1 3.76956 9.57348 13.4699 
34 1 0.898984 12.4456 13.4729 
35 1 1.90497 11.4413 13.4698 
36 1 2.76939 10.5745 13.4722 
52 1 5.6072 13.4347 7.70279 
53 1 4.63166 13.4667 8.70747 
54 1 3.76783 13.4744 9.5769 
58 1 0.898987 13.4727 12.4448 
59 1 1.90535 13.4691 11.4426 
60 1 2.76954 13.4736 10.575 
13 1 7.70186 6.67802 0.907722 
14 1 8.7073 6.6757 1.9106 
15 1 9.57464 6.67155 2.77378 
19 1 12.4456 6.67307 5.64543 
20 1 11.439 6.67039 4.64195 
21 1 10.5753 6.67245 3.77469 
61 1 12.4456 5.64558 6.6727 
62 1 11.44 4.64323 6.67048 
63 1 10.576 3.77535 6.67302 
67 1 7.73983 0.903042 6.62963 
68 1 8.71301 1.91101 6.66828 
69 1 9.57832 2.7789 6.6734 
4 1 13.4724 5.64431 7.7003 
5 1 13.4747 4.64007 8.70746 
6 1 13.4698 3.77272 9.57115 
10 1 13.4732 0.90065 12.4446 
11 1 13.4752 1.90447 11.4372 
12 1 13.4704 2.77187 10.5736 
64 1 7.71229 5.64799 13.4854 
65 1 8.71024 4.63504 13.4808 
66 1 9.57568 3.7697 13.4669 
70 1 12.4472 0.900179 13.4714 
71 1 11.4395 1.90228 13.475 
72 1 10.5756 2.76957 13.4702 
74 2 7.01972 0.719179 11.3674 
16 1 7.70119 13.4673 5.63846 
17 1 8.71312 13.4732 4.63333 
18 1 9.57654 13.4696 3.76709 
22 1 12.4477 13.4722 0.898231 
23 1 11.441 13.475 1.90049 
24 1 10.5775 13.4704 2.76796 
40 1 13.4716 7.69963 5.64415 
41 1 13.4746 8.70748 4.63999 
42 1 13.4698 9.57117 3.77274 
46 1 13.4735 12.4445 0.899958 
47 1 13.4752 11.4371 1.90432 
48 1 13.4704 10.5737 2.77183 
ITEM: TIMESTEP
30
ITEM: NUMBER OF ATOMS
75
ITEM: BOX BOUNDS pp pp pp
0.0000000000000000e+00 1.3600000000000000e+01
0.0000000000000000e+00 1.3600000000000000e+01
0.0000000000000000e+00 1.3600000000000000e+01
ITEM: ATOMS id type x y z 
1 1 6.66012 0.904684 7.64721 
2 1 6.71488 1.91396 8.61224 
3 1 6.59443 2.61668 9.73897 
7 1 6.67094 5.67283 12.4754 
8 1 6.68608 4.69639 11.4262 
9 1 6.69702 3.85802 10.5438 
49 1 5.6376 6.6831 12.4508 
50 1 4.6342 6.67426 11.4371 
51 1 3.77109 6.67137 10.5701 
55 1 0.898534 6.67066 7.69994 
56 1 1.90476 6.67385 8.70368 
57 1 2.76931 6.67169 9.56857 
73 2 6.33692 1.90051 10.5686 
75 3 6.3131 0.13738 11.5069 
25 1 0.896382 7.69685 6.67143 
26 1 1.90139 8.70047 6.67409 
27 1 2.76579 9.56619 6.6722 
31 1 5.64485 12.4416 6.67286 
32 1 4.63407 11.4287 6.66869 
33 1 3.76718 10.567 6.67162 
37 1 6.66843 12.4383 5.64242 
38 1 6.66936 11.4363 4.6392 
39 1 6.67194 10.5747 3.77462 
43 1 6.67251 7.70384 0.903929 
44 1 6.67374 8.70703 1.90849 
45 1 6.67251 9.57344 2.77285 
28 1 5.6414 7.71036 13.4797 
29 1 4.63626 8.71385 13.4775 
30 1 3.76844 9.57542 13.4714 
34 1 0.899005 12.445 13.4721 
35 1 1.90462 11.4436 13.4706 
36 1 2.76863 10.574 13.4707 
52 1 5.61474 13.4389 7.69855 
53 1 4.63135 13.4636 8.70447 
54 1 3.76922 13.4743 9.57537 
58 1 0.899427 13.4725 12.4448 
59 1 1.90447 13.4707 11.4429 
60 1 2.76965 13.4735 10.5762 
13 1 7.70242 6.67783 0.910342 
14 1 8.70861 6.67887 1.91342 
15 1 9.57639 6.67155 2.7758 
19 1 12.4451 6.67452 5.64487 
20 1 11.4411 6.66933 4.64149 
21 1 10.5751 6.67238 3.77554 
61 1 12.4468 5.64713 6.67362 
62 1 11.4435 4.64432 6.66945 
63 1 10.578 3.77912 6.67449 
67 1 7.73729 0.900869 6.6209 
68 1 8.71689 1.91005 6.65959 
69 1 9.57937 2.77999 6.67506 
4 1 13.4731 5.64224 7.70309 
5 1 13.4733 4.63849 8.70818 
6 1 13.4705 3.77229 9.57272 
10 1 13.474 0.902185 12.4422 
11 1 13.4742 1.90571 11.4367 
12 1 13.471 2.77248 10.5717 
64 1 7.70086 5.64638 13.4887 
65 1 8.72423 4.64803 13.4761 
66 1 9.56983 3.76433 13.4705 
70 1 12.4483 0.900938 13.4704 
71 1 11.4405 1.90204 13.4728 
72 1 10.5746 2.76716 13.4701 
74 2 7.03399 0.702609 11.3797 
16 1 7.70037 13.4599 5.63244 
17 1 8.7147 13.4682 4.6274 
18 1 9.58049 13.4702 3.76447 
22 1 12.4502 13.472 0.896153 
23 1 11.4447 13.4738 1.89808 
24 1 10.58 13.4709 2.76427 
40 1 13.4715 7.70222 5.64152 
41 1 13.4731 8.70795 4.63858 
42 1 13.4706 9.57272 3.77238 
46 1 13.4748 12.4413 0.901831 
47 1 13.4742 11.4367 1.90551 
48 1 13.4709 10.5717 2.7725 
ITEM: TIMESTEP
40
ITEM: NUMBER OF ATOMS
75
ITEM: BOX BOUNDS pp pp pp
0.0000000000000000e+00 1.3600000000000000e+01
0.0000000000000000e+00 1.3600000000000000e+01
0.0000000000000000e+00 1.3600000000000000e+01
ITEM: ATOMS id type x y z 
1 1 6.65273 0.961186 7.64184 
2 1 6.70751 1.9436 8.61808 
3 1 6.57407 2.5676 9.79723 
7 1 6.68432 5.66455 12.4358 
8 1 6.70259 4.68614 11.3938 
9 1 6.70488 3.87078 10.4893 
49 1 5.64693 6.67548 12.4537 
50 1 4.63878 6.67355 11.445 
51 1 3.77658 6.6731 10.5756 
55 1 0.901145 6.67021 7.7031 
56 1 1.90974 6.67389 8.70765 
57 1 2.77474 6.67139 9.57315 
73 2 6.27054 1.89086 10.6563 
75 3 6.30477 0.136762 11.5212 
25 1 0.894873 7.69413 6.6728 
26 1 1.90209 8.70033 6.6757 
27 1 2.76528 9.5663 6.67127 
31 1 5.64326 12.4477 6.68467 
32 1 4.63721 11.4321 6.67161 
33 1 3.77122 10.5688 6.67066 
37 1 6.66393 12.4402 5.64886 
38 1 6.66592 11.4382 4.64402 
39 1 6.6715 10.5743 3.77456 
43 1 6.67471 7.69891 0.899901 
44 1 6.67434 8.70559 1.91008 
45 1 6.6727 9.5747 2.77243 
28 1 5.6443 7.70376 13.4789 
29 1 4.63934 8.71068 13.4791 
30 1 3.77186 9.57383 13.4732 
34 1 0.899429 12.4489 13.4682 
35 1 1.90606 11.4428 13.4677 
36 1 2.76893 10.5744 13.4707 
52 1 5.63128 13.4644 7.69701 
53 1 4.63975 13.4657 8.69407 
54 1 3.77777 13.4709 9.56619 
58 1 0.903869 13.4733 12.4408 
59 1 1.91304 13.4723 11.4344 
60 1 2.77871 13.4741 10.5686 
13 1 7.69671 6.6718 0.902582 
14 1 8.70315 6.67755 1.90957 
15 1 9.57093 6.67457 2.77158 
19 1 12.4468 6.67254 5.64655 
20 1 11.4398 6.67122 4.64037 
21 1 10.5747 6.67022 3.77404 
61 1 12.4482 5.64718 6.67337 
62 1 11.4407 4.64297 6.67146 
63 1 10.5748 3.77706 6.67662 
67 1 7.72481 0.90527 6.61237 
68 1 8.71624 1.903 6.64566 
69 1 9.57729 2.77412 6.67358 
4 1 13.4742 5.64531 7.70154 
5 1 13.4726 4.63916 8.70725 
6 1 13.4709 3.77248 9.57228 
10 1 13.4759 0.897938 12.4442 
11 1 13.4741 1.90513 11.4373 
12 1 13.4713 2.77134 10.5729 
64 1 7.70763 5.66233 13.4569 
65 1 8.68483 4.62353 13.5218 
66 1 9.57915 3.79317 13.4495 
70 1 12.4476 0.904221 13.4679 
71 1 11.4351 1.907 13.4697 
72 1 10.5671 2.77018 13.4679 
74 2 7.06532 0.657451 11.4096 
16 1 7.70148 13.4607 5.63298 
17 1 8.71134 13.4598 4.6225 
18 1 9.5817 13.4689 3.76313 
22 1 12.4546 13.4742 0.88962 
23 1 11.4483 13.4733 1.8957 
24 1 10.5842 13.472 2.76077 
40 1 13.4717 7.70145 5.64339 
41 1 13.4724 8.70716 4.63874 
42 1 13.4711 9.5726 3.77237 
46 1 13.4766 12.4417 0.899364 
47 1 13.4742 11.4371 1.90513 
48 1 13.4711 10.573 2.77148 
ITEM: TIMESTEP
50
ITEM: NUMBER OF ATOMS
75
ITEM: BOX BOUNDS pp pp pp
0.0000000000000000e+00 1.3600000000000000e+01
0.0000000000000000e+00 1.3600000000000000e+01
0.0000000000000000e+00 1.3600000000000000e+01
ITEM: ATOMS id type x y z 
1 1 6.64536 0.988296 7.63306 
2 1 6.70113 1.94783 8.63151 
3 1 6.55485 2.54288 9.836 
7 1 6.69513 5.66573 12.4171 
8 1 6.69839 4.70071 11.3562 
9 1 6.71912 3.86659 10.4702 
49 1 5.65474 6.67003 12.4519 
50 1 4.64153 6.67567 11.4471 
51 1 3.77884 6.67236 10.5796 
55 1 0.901759 6.6705 7.70349 
56 1 1.91191 6.67364 8.70914 
57 1 2.77644 6.67155 9.57471 
73 2 6.22586 1.88985 10.7028 
75 3 6.30284 0.13326 11.5354 
25 1 0.895262 7.6937 6.67482 
26 1 1.90327 8.69999 6.67591 
27 1 2.76602 9.567 6.67099 
31 1 5.64528 12.4526 6.68957 
32 1 4.63738 11.435 6.67588 
33 1 3.77342 10.5695 6.67048 
37 1 6.66251 12.4405 5.65107 
38 1 6.66289 11.4367 4.64643 
39 1 6.67032 10.576 3.77609 
43 1 6.6727 7.69972 0.900569 
44 1 6.67686 8.70598 1.91073 
45 1 6.67214 9.57452 2.7726 
28 1 5.64488 7.69869 13.4771 
29 1 4.6405 8.70805 13.4793 
30 1 3.77406 9.57218 13.4747 
34 1 0.900783 12.4507 13.465 
35 1 1.90731 11.4426 13.4657 
36 1 2.76968 10.5746 13.4707 
52 1 5.63979 13.4831 7.69292 
53 1 4.64427 13.4707 8.69045 
54 1 3.78175 13.469 9.56165 
58 1 0.907125 13.4744 12.4373 
59 1 1.91647 13.4734 11.4307 
60 1 2.78269 13.4737 10.5658 
13 1 7.69604 6.67224 0.898186 
14 1 8.70201 6.67605 1.90726 
15 1 9.5683 6.67485 2.77124 
19 1 12.4464 6.67279 5.64585 
20 1 11.4382 6.66866 4.63941 
21 1 10.5742 6.6717 3.77287 
61 1 12.4486 5.64774 6.67318 
62 1 11.4402 4.64359 6.67286 
63 1 10.5757 3.77682 6.67867 
67 1 7.71446 0.912846 6.60778 
68 1 8.71786 1.90214 6.63524 
69 1 9.57874 2.77299 6.67135 
4 1 13.474 5.64736 7.70061 
5 1 13.4754 4.63956 8.70704 
6 1 13.4695 3.77326 9.57145 
10 1 13.4777 0.896522 12.4443 
11 1 13.475 1.90338 11.4376 
12 1 13.4711 2.77032 10.5742 
64 1 7.69443 5.6557 13.461 
65 1 8.69566 4.63736 13.5093 
66 1 9.56879 3.78243 13.4611 
70 1 12.446 0.906277 13.465 
71 1 11.4346 1.90794 13.4684 
72 1 10.5702 2.77388 13.4621 
74 2 7.08479 0.620466 11.4313 
16 1 7.69943 13.4583 5.63058 
17 1 8.71059 13.4547 4.61917 
18 1 9.58233 13.4667 3.76142 
22 1 12.4567 13.4752 0.886599 
23 1 11.4506 13.4744 1.89333 
24 1 10.5867 13.4722 2.75934 
40 1 13.4716 7.69878 5.64622 
41 1 13.4723 8.70641 4.63959 
42 1 13.4711 9.57124 3.77379 
46 1 13.4783 12.4447 0.894357 
47 1 13.4752 11.4383 1.90286 
48 1 13.471 10.575 2.76977 
ITEM: TIMESTEP
60
ITEM: NUMBER OF ATOMS
75
ITEM: BOX BOUNDS pp pp pp
0.0000000000000000e+00 1.3600000000000000e+01
0.0000000000000000e+00 1.3600000000000000e+01
0.0000000000000000e+00 1.3600000000000000e+01
ITEM: ATOMS id type x y z 
1 1 6.64281 0.98848 7.63099 
2 1 6.69636 1.94137 8.64344 
3 1 6.54933 2.53988 9.84076 
7 1 6.69589 5.66925 12.4165 
8 1 6.70897 4.70548 11.3517 
9 1 6.71665 3.8674 10.4695 
49 1 5.65555 6.67165 12.4499 
50 1 4.6423 6.67665 11.4448 
51 1 3.77777 6.67202 10.5794 
55 1 0.901465 6.67093 7.70258 
56 1 1.91093 6.67333 8.70866 
57 1 2.77559 6.67159 9.57433 
73 2 6.21323 1.89053 10.7082 
75 3 6.303 0.128884 11.5422 
25 1 0.895316 7.69434 6.67445 
26 1 1.90374 8.70089 6.67511 
27 1 2.76731 9.56718 6.67121 
31 1 5.64575 12.4551 6.69079 
32 1 4.63695 11.4366 6.67796 
33 1 3.77431 10.5704 6.67129 
37 1 6.6624 12.4399 5.6518 
38 1 6.66152 11.4367 4.64707 
39 1 6.66979 10.5758 3.77684 
43 1 6.67292 7.69939 0.901007 
44 1 6.67663 8.70685 1.90995 
45 1 6.6725 9.57404 2.77324 
28 1 5.64482 7.69852 13.4783 
29 1 4.64028 8.70703 13.4791 
30 1 3.77429 9.5717 13.4749 
34 1 0.901442 12.4505 13.4645 
35 1 1.90791 11.4421 13.4658 
36 1 2.77062 10.5744 13.4705 
52 1 5.6374 13.485 7.68972 
53 1 4.64504 13.4746 8.68982 
54 1 3.78309 13.4689 9.56104 
58 1 0.907306 13.4745 12.4367 
59 1 1.91769 13.473 11.4314 
60 1 2.78255 13.4734 10.5651 
13 1 7.69568 6.67122 0.898091 
14 1 8.70175 6.67514 1.90642 
15 1 9.56804 6.6745 2.77062 
19 1 12.4471 6.67306 5.64474 
20 1 11.4366 6.66925 4.63986 
21 1 10.5739 6.6718 3.77219 
61 1 12.4488 5.64895 6.67297 
62 1 11.4413 4.64381 6.67385 
63 1 10.577 3.77698 6.67917 
67 1 7.71446 0.916497 6.6046 
68 1 8.71672 1.90488 6.63165 
69 1 9.58063 2.77298 6.66994 
4 1 13.4737 5.64727 7.70009 
5 1 13.4781 4.64117 8.70832 
6 1 13.4683 3.77313 9.5707 
10 1 13.4771 0.8963 12.4441 
11 1 13.478 1.9033 11.4367 
12 1 13.4695 2.77051 10.5736 
64 1 7.68994 5.64942 13.4655 
65 1 8.7072 4.64903 13.4918 
66 1 9.56266 3.77503 13.4706 
70 1 12.4472 0.905023 13.4646 
71 1 11.4353 1.90863 13.4669 
72 1 10.5703 2.77356 13.4618 
74 2 7.09028 0.608306 11.4373 
16 1 7.69908 13.4592 5.62923 
17 1 8.71046 13.4543 4.6187 
18 1 9.58215 13.4654 3.76093 
22 1 12.4574 13.4751 0.885954 
23 1 11.4507 13.4745 1.89332 
24 1 10.5869 13.4721 2.75963 
40 1 13.4718 7.69862 5.64651 
41 1 13.4725 8.70696 4.63932 
42 1 13.4709 9.57148 3.7737 
46 1 13.4792 12.4447 0.893331 
47 1 13.4757 11.4384 1.90224 
48 1 13.4711 10.5753 2.76937 
ITEM: TIMESTEP
65
ITEM: NUMBER OF ATOMS
75
ITEM: BOX BOUNDS pp pp pp
0.0000000000000000e+00 1.3600000000000000e+01
0.0000000000000000e+00 1.3600000000000000e+01
0.0000000000000000e+00 1.3600000000000000e+01
ITEM: ATOMS id type x y z 
1 1 6.64296 0.989635 7.63059 
2 1 6.69305 1.93658 8.64819 
3 1 6.54598 2.53887 9.84527 
7 1 6.69733 5.67084 12.4149 
8 1 6.71107 4.7076 11.3497 
9 1 6.71753 3.86751 10.4687 
49 1 5.65693 6.67257 12.4486 
50 1 4.64262 6.67636 11.4444 
51 1 3.7775 6.67235 10.5789 
55 1 0.901483 6.67115 7.70225 
56 1 1.91082 6.67325 8.70882 
57 1 2.77494 6.67154 9.5741 
73 2 6.20525 1.89097 10.7118 
75 3 6.3033 0.126285 11.5465 
25 1 0.895644 7.69516 6.67402 
26 1 1.90484 8.70217 6.67467 
27 1 2.76746 9.56674 6.67133 
31 1 5.64578 12.4558 6.69068 
32 1 4.63711 11.4379 6.67909 
33 1 3.77412 10.5702 6.67194 
37 1 6.6632 12.4405 5.65162 
38 1 6.66131 11.436 4.64734 
39 1 6.66925 10.5763 3.77764 
43 1 6.67306 7.6995 0.901012 
44 1 6.676 8.70632 1.90955 
45 1 6.67291 9.57456 2.77377 
28 1 5.64494 7.6981 13.4787 
29 1 4.64017 8.70654 13.4789 
30 1 3.77467 9.5712 13.475 
34 1 0.901979 12.4504 13.464 
35 1 1.90814 11.4421 13.4658 
36 1 2.77136 10.574 13.4704 
52 1 5.63682 13.488 7.68844 
53 1 4.64526 13.4768 8.68956 
54 1 3.78358 13.4691 9.56106 
58 1 0.908351 13.4743 12.4365 
59 1 1.91745 13.4728 11.4307 
60 1 2.78303 13.473 10.5651 
13 1 7.69514 6.67063 0.89839 
14 1 8.7016 6.67453 1.90621 
15 1 9.56804 6.67432 2.77028 
19 1 12.4465 6.67328 5.64457 
20 1 11.4372 6.66926 4.63893 
21 1 10.573 6.6721 3.77247 
61 1 12.4489 5.64953 6.67285 
62 1 11.4418 4.64381 6.67435 
63 1 10.5778 3.77708 6.67945 
67 1 7.71269 0.918259 6.60288 
68 1 8.71617 1.90561 6.63062 
69 1 9.58132 2.77328 6.66843 
4 1 13.475 5.64672 7.70007 
5 1 13.4757 4.64295 8.7082 
6 1 13.4696 3.77267 9.57077 
10 1 13.4782 0.896636 12.4437 
11 1 13.4769 1.90322 11.4356 
12 1 13.4701 2.77009 10.5739 
64 1 7.69073 5.64977 13.4648 
65 1 8.70709 4.64786 13.486 
66 1 9.56384 3.77586 13.4723 
70 1 12.4475 0.904901 13.4644 
71 1 11.436 1.9086 13.4659 
72 1 10.5694 2.77272 13.4628 
74 2 7.09349 0.60066 11.441 
16 1 7.69864 13.4603 5.62908 
17 1 8.70963 13.4541 4.61892 
18 1 9.58237 13.4646 3.76039 
22 1 12.4575 13.4751 0.88592 
23 1 11.4503 13.4745 1.89391 
24 1 10.5877 13.4719 2.75912 
40 1 13.4718 7.69883 5.64613 
41 1 13.4726 8.70713 4.63932 
42 1 13.4709 9.57194 3.77331 
46 1 13.4799 12.4448 0.893281 
47 1 13.4755 11.4377 1.90167 
48 1 13.4715 10.5759 2.7692 
ITEM: TIMESTEP
70
ITEM: NUMBER OF ATOMS
75
ITEM: BOX BOUNDS pp pp pp
0.0000000000000000e+00 1.3600000000000000e+01
0.0000000000000000e+00 1.3600000000000000e+01
0.0000000000000000e+00 1.3600000000000000e+01
ITEM: ATOMS id type x y z 
1 1 6.64291 0.989722 7.63063 
2 1 6.69287 1.93639 8.64856 
3 1 6.54576 2.53874 9.84551 
7 1 6.69752 5.67089 12.4149 
8 1 6.71116 4.70752 11.3494 
9 1 6.71761 3.86769 10.4689 
49 1 5.6569 6.67268 12.4485 
50 1 4.64254 6.67641 11.4441 
51 1 3.77761 6.67233 10.5791 
55 1 0.901562 6.6714 7.70206 
56 1 1.91055 6.67326 8.70855 
57 1 2.7751 6.67154 9.57429 
73 2 6.20476 1.89099 10.712 
75 3 6.30332 0.126128 11.5468 
25 1 0.895609 7.69508 6.67407 
26 1 1.90411 8.70144 6.67465 
27 1 2.76813 9.56738 6.67133 
31 1 5.64583 12.4559 6.69062 
32 1 4.6367 11.4376 6.67914 
33 1 3.7746 10.5707 6.67199 
37 1 6.66315 12.4404 5.65167 
38 1 6.66127 11.4364 4.64778 
39 1 6.66924 10.5759 3.77728 
43 1 6.67305 7.69951 0.901036 
44 1 6.67597 8.70686 1.91008 
45 1 6.67292 9.57409 2.77331 
28 1 5.64488 7.69807 13.4787 
29 1 4.6403 8.70639 13.4789 
30 1 3.77456 9.5713 13.475 
34 1 0.901949 12.4504 13.464 
35 1 1.90839 11.4419 13.4658 
36 1 2.77116 10.5742 13.4704 
52 1 5.63672 13.488 7.68834 
53 1 4.64526 13.477 8.68954 
54 1 3.78363 13.4691 9.56104 
58 1 0.908348 13.4744 12.4366 
59 1 1.91735 13.4726 11.4305 
60 1 2.78309 13.4731 10.5652 
13 1 7.69518 6.67048 0.89835 
14 1 8.70158 6.67449 1.90618 
15 1 9.56804 6.67431 2.77027 
19 1 12.4465 6.67327 5.64454 
20 1 11.437 6.66934 4.63889 
21 1 10.5731 6.67207 3.77249 
61 1 12.4488 5.64955 6.67279 
62 1 11.442 4.64394 6.67437 
63 1 10.5777 3.77695 6.67946 
67 1 7.71269 0.918459 6.60282 
68 1 8.71634 1.90592 6.63053 
69 1 9.58117 2.77308 6.66835 
4 1 13.4749 5.64691 7.70014 
5 1 13.4759 4.64209 8.70858 
6 1 13.4695 3.77334 9.57038 
10 1 13.4783 0.896529 12.4437 
11 1 13.477 1.90281 11.4361 
12 1 13.4701 2.77052 10.5734 
64 1 7.69084 5.64983 13.4648 
65 1 8.70676 4.64806 13.4858 
66 1 9.56415 3.77568 13.4724 
70 1 12.4476 0.90481 13.4644 
71 1 11.4359 1.9087 13.4658 
72 1 10.5695 2.77255 13.4629 
74 2 7.09369 0.600194 11.4412 
16 1 7.69858 13.4602 5.62899 
17 1 8.71012 13.4541 4.6184 
18 1 9.58189 13.4645 3.76085 
22 1 12.4576 13.475 0.885912 
23 1 11.4509 13.4745 1.89328 
24 1 10.5871 13.4719 2.75967 
40 1 13.4719 7.69885 5.64625 
41 1 13.4726 8.70724 4.63918 
42 1 13.4709 9.57183 3.77345 
46 1 13.4795 12.4448 0.893071 
47 1 13.4761 11.4384 1.90173 
48 1 13.4712 10.5755 2.76921 
ITEM: TIMESTEP
80
ITEM: NUMBER OF ATOMS
75
ITEM: BOX BOUNDS pp pp pp
0.0000000000000000e+00 1.3600000000000000e+01
0.0000000000000000e+00 1.3600000000000000e+01
0.0000000000000000e+00 1.3600000000000000e+01
ITEM: ATOMS id type x y z 
1 1 6.64347 0.995777 7.63173 
2 1 6.67941 1.91921 8.6701 
3 1 6.52954 2.53082 9.86651 
7 1 6.7049 5.67815 12.4061 
8 1 6.71983 4.71439 11.3368 
9 1 6.72191 3.86789 10.4665 
49 1 5.66136 6.67675 12.4432 
50 1 4.64493 6.67739 11.4401 
51 1 3.77662 6.67275 10.5783 
55 1 0.901756 6.67388 7.69965 
56 1 1.9092 6.67343 8.70793 
57 1 2.77365 6.67128 9.57462 
73 2 6.16739 1.89216 10.7297 
75 3 6.30495 0.114356 11.5666 
25 1 0.896719 7.69764 6.67236 
26 1 1.90457 8.70257 6.67286 
27 1 2.772 9.5689 6.67187 
31 1 5.64621 12.4597 6.68931 
32 1 4.63526 11.4424 6.68353 
33 1 3.77671 10.5721 6.67546 
37 1 6.6656 12.4426 5.65167 
38 1 6.65999 11.4359 4.65041 
39 1 6.66763 10.575 3.77957 
43 1 6.67344 7.69808 0.902074 
44 1 6.67458 8.70792 1.91062 
45 1 6.67361 9.57369 2.77347 
28 1 5.64571 7.69602 13.4794 
29 1 4.64095 8.70383 13.4785 
30 1 3.77555 9.56928 13.4749 
34 1 0.903866 12.45 13.4633 
35 1 1.91059 11.4407 13.4657 
36 1 2.77291 10.5735 13.4704 
52 1 5.63398 13.4995 7.68221 
53 1 4.64604 13.4858 8.68791 
54 1 3.78612 13.4711 9.56066 
58 1 0.910999 13.4738 12.4358 
59 1 1.91788 13.4728 11.4282 
60 1 2.78509 13.4708 10.5646 
13 1 7.69361 6.66731 0.8978 
14 1 8.70077 6.6715 1.90487 
15 1 9.56698 6.67313 2.76895 
19 1 12.4462 6.67431 5.6426 
20 1 11.4362 6.67183 4.63771 
21 1 10.5717 6.6721 3.77207 
61 1 12.4493 5.65215 6.67251 
62 1 11.4449 4.64415 6.6764 
63 1 10.5808 3.77655 6.68016 
67 1 7.70529 0.927292 6.59715 
68 1 8.71469 1.91049 6.62511 
69 1 9.58243 2.7734 6.66201 
4 1 13.4768 5.6473 7.69869 
5 1 13.4726 4.64434 8.7095 
6 1 13.4715 3.7739 9.56872 
10 1 13.4804 0.896145 12.4417 
11 1 13.4762 1.90303 11.4359 
12 1 13.471 2.7702 10.5723 
64 1 7.69581 5.65371 13.4581 
65 1 8.70341 4.64338 13.4702 
66 1 9.56912 3.77752 13.4737 
70 1 12.4493 0.903712 13.4624 
71 1 11.4383 1.90855 13.4632 
72 1 10.5689 2.76917 13.4674 
74 2 7.10818 0.56513 11.4578 
16 1 7.69619 13.4655 5.62789 
17 1 8.70895 13.4538 4.61647 
18 1 9.5806 13.4616 3.76063 
22 1 12.4588 13.4752 0.88542 
23 1 11.4519 13.4743 1.89292 
24 1 10.5876 13.4706 2.76032 
40 1 13.4723 7.6997 5.64545 
41 1 13.4726 8.70844 4.63851 
42 1 13.4709 9.57329 3.77306 
46 1 13.4791 12.4451 0.890277 
47 1 13.481 11.4389 1.90015 
48 1 13.4696 10.5753 2.76807 
ITEM: TIMESTEP
90
ITEM: NUMBER OF ATOMS
75
ITEM: BOX BOUNDS pp pp pp
0.0000000000000000e+00 1.3600000000000000e+01
0.0000000000000000e+00 1.3600000000000000e+01
0.0000000000000000e+00 1.3600000000000000e+01
ITEM: ATOMS id type x y z 
1 1 6.64314 1.00519 7.64076 
2 1 6.6662 1.90756 8.70094 
3 1 6.50346 2.51179 9.89755 
7 1 6.71758 5.6894 12.3881 
8 1 6.73007 4.72543 11.3181 
9 1 6.72836 3.86004 10.4614 
49 1 5.66878 6.68168 12.4351 
50 1 4.64867 6.67906 11.4355 
51 1 3.77666 6.67386 10.5778 
55 1 0.903418 6.67777 7.69748 
56 1 1.90918 6.67487 8.70736 
57 1 2.77194 6.67118 9.57483 
73 2 6.10967 1.88853 10.7581 
75 3 6.3081 0.097229 11.5957 
25 1 0.898434 7.70096 6.66945 
26 1 1.90817 8.70608 6.67058 
27 1 2.77493 9.56919 6.67307 
31 1 5.64527 12.468 6.68604 
32 1 4.63367 11.4503 6.68893 
33 1 3.77988 10.5747 6.6807 
37 1 6.66822 12.4462 5.65013 
38 1 6.65947 11.4357 4.65225 
39 1 6.6665 10.5731 3.78395 
43 1 6.67376 7.6938 0.904708 
44 1 6.67403 8.70613 1.91194 
45 1 6.67317 9.57395 2.77429 
28 1 5.64995 7.69343 13.4782 
29 1 4.64279 8.70096 13.478 
30 1 3.77656 9.56548 13.4756 
34 1 0.907374 12.4482 13.4617 
35 1 1.91287 11.4401 13.4648 
36 1 2.77546 10.5721 13.4706 
52 1 5.62967 13.511 7.67611 
53 1 4.64672 13.4946 8.68317 
54 1 3.78909 13.4767 9.55838 
58 1 0.910808 13.4747 12.4344 
59 1 1.92071 13.4733 11.4255 
60 1 2.78925 13.4683 10.563 
13 1 7.69342 6.66476 0.893637 
14 1 8.69939 6.66721 1.90137 
15 1 9.5638 6.67025 2.76753 
19 1 12.4462 6.67555 5.64397 
20 1 11.4359 6.6732 4.63646 
21 1 10.5709 6.67296 3.77173 
61 1 12.4507 5.65477 6.67407 
62 1 11.439 4.65172 6.65595 
63 1 10.5889 3.771 6.69015 
67 1 7.69684 0.938943 6.59322 
68 1 8.71085 1.9163 6.61726 
69 1 9.58363 2.77599 6.65457 
4 1 13.4812 5.64885 7.70073 
5 1 13.467 4.64637 8.70953 
6 1 13.4757 3.77363 9.56765 
10 1 13.4829 0.893339 12.4408 
11 1 13.4782 1.90421 11.4322 
12 1 13.4708 2.77246 10.5699 
64 1 7.70335 5.6601 13.4413 
65 1 8.70162 4.63953 13.4664 
66 1 9.56778 3.77621 13.467 
70 1 12.4517 0.899664 13.4622 
71 1 11.4401 1.90764 13.4653 
72 1 10.573 2.77039 13.4693 
74 2 7.12859 0.514697 11.4806 
16 1 7.69112 13.4748 5.62568 
17 1 8.70563 13.4561 4.61521 
18 1 9.57905 13.4587 3.75999 
22 1 12.4579 13.4752 0.885619 
23 1 11.4531 13.4729 1.89193 
24 1 10.5905 13.4674 2.75925 
40 1 13.4709 7.69872 5.64466 
41 1 13.4727 8.71115 4.63676 
42 1 13.4692 9.57569 3.77088 
46 1 13.4836 12.4423 0.888703 
47 1 13.477 11.4451 1.90104 
48 1 13.4748 10.5757 2.76224 
ITEM: TIMESTEP
100
ITEM: NUMBER OF ATOMS
75
ITEM: BOX BOUNDS pp pp pp
0.0000000000000000e+00 1.3600000000000000e+01
0.0000000000000000e+00 1.3600000000000000e+01
0.0000000000000000e+00 1.3600000000000000e+01
ITEM: ATOMS id type x y z 
1 1 6.64401 1.00578 7.64129 
2 1 6.66474 1.90532 8.70354 
3 1 6.50124 2.51077 9.9013 
7 1 6.71854 5.69027 12.3859 
8 1 6.73337 4.72563 11.3166 
9 1 6.72713 3.85946 10.4621 
49 1 5.67035 6.68215 12.4341 
50 1 4.64928 6.67969 11.4355 
51 1 3.77694 6.67377 10.5778 
55 1 0.902608 6.67737 7.69695 
56 1 1.90891 6.67512 8.7069 
57 1 2.77165 6.67133 9.57468 
73 2 6.10358 1.88731 10.7595 
75 3 6.30882 0.0955873 11.5986 
25 1 0.898311 7.70054 6.66917 
26 1 1.90751 8.70728 6.66923 
27 1 2.77595 9.569 6.67392 
31 1 5.64511 12.4695 6.6853 
32 1 4.63505 11.4505 6.68955 
33 1 3.78008 10.5763 6.68084 
37 1 6.66676 12.4471 5.65174 
38 1 6.65952 11.4361 4.65202 
39 1 6.66615 10.5732 3.78424 
43 1 6.67334 7.69367 0.904731 
44 1 6.67461 8.70625 1.91166 
45 1 6.67296 9.57302 2.77499 
28 1 5.65012 7.69361 13.4783 
29 1 4.64308 8.70058 13.4779 
30 1 3.77707 9.56492 13.4758 
34 1 0.907496 12.4493 13.4607 
35 1 1.91366 11.4395 13.4645 
36 1 2.77575 10.5716 13.4706 
52 1 5.63065 13.5109 7.67362 
53 1 4.64651 13.4953 8.68304 
54 1 3.78893 13.477 9.55813 
58 1 0.91208 13.4735 12.4338 
59 1 1.92063 13.4733 11.4263 
60 1 2.7887 13.4686 10.5636 
13 1 7.69325 6.664 0.892306 
14 1 8.70126 6.66497 1.90018 
15 1 9.5632 6.67081 2.76821 
19 1 12.446 6.67635 5.6431 
20 1 11.4352 6.67278 4.63649 
21 1 10.5705 6.6732 3.77134 
61 1 12.4513 5.65479 6.67274 
62 1 11.4407 4.65083 6.66221 
63 1 10.5887 3.7724 6.68516 
67 1 7.696 0.9401 6.59354 
68 1 8.7105 1.91662 6.61689 
69 1 9.58353 2.77558 6.65509 
4 1 13.4768 5.65246 7.70003 
5 1 13.4709 4.64171 8.70372 
6 1 13.4731 3.77718 9.5699 
10 1 13.4817 0.894671 12.4401 
11 1 13.4784 1.90323 11.4334 
12 1 13.4715 2.77094 10.5711 
64 1 7.70117 5.65901 13.4433 
65 1 8.70743 4.6453 13.4614 
66 1 9.56528 3.77307 13.4691 
70 1 12.4519 0.901218 13.4613 
71 1 11.4408 1.90736 13.4644 
72 1 10.573 2.7698 13.4693 
74 2 7.13034 0.50954 11.4827 
16 1 7.691 13.4767 5.62566 
17 1 8.70547 13.4569 4.6153 
18 1 9.57891 13.4582 3.75972 
22 1 12.4599 13.4742 0.884615 
23 1 11.4521 13.4726 1.89312 
24 1 10.5893 13.4671 2.76043 
40 1 13.4721 7.70087 5.64432 
41 1 13.4724 8.71018 4.63702 
42 1 13.4699 9.57479 3.77143 
46 1 13.4835 12.446 0.887905 
47 1 13.475 11.4424 1.89998 
48 1 13.4756 10.5761 2.76421 
ITEM: TIMESTEP
110
ITEM: NUMBER OF ATOMS
75
ITEM: BOX BOUNDS pp pp pp
0.0000000000000000e+00 1.3600000000000000e+01
0.0000000000000000e+00 1.3600000000000000e+01
0.0000000000000000e+00 1.3600000000000000e+01
ITEM: ATOMS id type x y z 
1 1 6.64493 1.00789 7.64476 
2 1 6.66039 1.89999 8.71362 
3 1 6.49321 2.50532 9.91151 
7 1 6.72288 5.69355 12.3806 
8 1 6.73915 4.72825 11.312 
9 1 6.72682 3.85666 10.4631 
49 1 5.67487 6.68333 12.4308 
50 1 4.65106 6.68098 11.4337 
51 1 3.77746 6.67398 10.5778 
55 1 0.900805 6.67683 7.69634 
56 1 1.9083 6.67586 8.70611 
57 1 2.77053 6.67168 9.57372 
73 2 6.08392 1.88301 10.7642 
75 3 6.31061 0.0900705 11.6079 
25 1 0.899534 7.70058 6.66946 
26 1 1.90879 8.70795 6.6694 
27 1 2.77673 9.56977 6.67432 
31 1 5.6451 12.4723 6.68409 
32 1 4.63537 11.4521 6.68893 