LAMMPS (3 Mar 2020)
Reading data file ...
  orthogonal box = (0 0 0) to (32.808 17.78 2.473)
  4 by 2 by 1 MPI processor grid
  reading atoms ...
  57 atoms
  read_data CPU = 0.0113772 secs
WARNING: Changed valency_val to valency_boc for X (../reaxc_ffield.cpp:315)
WARNING: Using 'neigh_modify every 1 delay 0 check yes' setting during minimization (../min.cpp:190)
Neighbor list info ...
  update every 1 steps, delay 0 steps, check yes
  max neighbors/atom: 2000, page size: 100000
  master list distance cutoff = 12
  ghost atom cutoff = 12
  binsize = 6, bins = 6 3 1
  2 neighbor lists, perpetual/occasional/extra = 2 0 0
  (1) pair reax/c, perpetual
      attributes: half, newton off, ghost
      pair build: half/bin/newtoff/ghost
      stencil: half/ghost/bin/3d/newtoff
      bin: standard
  (2) fix qeq/reax, perpetual, copy from (1)
      attributes: half, newton off, ghost
      pair build: copy
      stencil: none
      bin: none
Setting up cg style minimization ...
  Unit style    : real
  Current step  : 0
Per MPI rank memory allocation (min/avg/max) = 28.39 | 28.58 | 28.77 Mbytes
Step Temp E_pair E_mol TotEng Press 
       0            0   -10622.684            0   -10622.684    601667.23 
     191            0   -11066.104            0   -11066.104    94662.554 
Loop time of 9.9259 on 8 procs for 191 steps with 57 atoms

99.1% CPU use with 8 MPI tasks x no OpenMP threads

Minimization stats:
  Stopping criterion = energy tolerance
  Energy initial, next-to-last, final = 
        -10622.6843775     -11066.1039185     -11066.1040147
  Force two-norm initial, final = 1329.43 38.4776
  Force max component initial, final = 1013.17 15.2341
  Final line search alpha, max atom move = 0.0002045 0.00311537
  Iterations, force evaluations = 191 1048

MPI task timing breakdown:
Section |  min time  |  avg time  |  max time  |%varavg| %total
---------------------------------------------------------------
Pair    | 8.742      | 8.8986     | 9.1315     |   4.2 | 89.65
Neigh   | 0.0021592  | 0.0023047  | 0.0024284  |   0.2 |  0.02
Comm    | 0.032695   | 0.26552    | 0.42176    |  24.3 |  2.68
Output  | 0.0005436  | 0.00079089 | 0.0014506  |   0.0 |  0.01
Modify  | 0.7471     | 0.74737    | 0.74756    |   0.0 |  7.53
Other   |            | 0.01129    |            |       |  0.11

Nlocal:    7.125 ave 13 max 2 min
Histogram: 2 0 0 2 0 2 0 0 0 2
Nghost:    1117.88 ave 1130 max 1106 min
Histogram: 2 0 2 0 0 0 0 2 0 2
Neighs:    1963.25 ave 3615 max 551 min
Histogram: 2 0 0 2 0 2 0 0 1 1

Total # of neighbors = 15706
Ave neighs/atom = 275.544
Neighbor list builds = 1
Dangerous builds = 0
WARNING: Using 'neigh_modify every 1 delay 0 check yes' setting during minimization (../min.cpp:190)
Setting up cg style minimization ...
  Unit style    : real
  Current step  : 191
Per MPI rank memory allocation (min/avg/max) = 28.39 | 28.58 | 28.77 Mbytes
Step Temp E_pair E_mol TotEng Press 
     191            0   -11066.104            0   -11066.104    94662.548 
     192            0   -11066.104            0   -11066.104    94662.264 
Loop time of 0.0841891 on 8 procs for 1 steps with 57 atoms

99.0% CPU use with 8 MPI tasks x no OpenMP threads

Minimization stats:
  Stopping criterion = energy tolerance
  Energy initial, next-to-last, final = 
        -11066.1040156     -11066.1040156     -11066.1040492
  Force two-norm initial, final = 38.4776 38.4559
  Force max component initial, final = 15.2341 15.2173
  Final line search alpha, max atom move = 0.000205132 0.00312155
  Iterations, force evaluations = 1 8

MPI task timing breakdown:
Section |  min time  |  avg time  |  max time  |%varavg| %total
---------------------------------------------------------------
Pair    | 0.074196   | 0.075618   | 0.077856   |   0.4 | 89.82
Neigh   | 0          | 0          | 0          |   0.0 |  0.00
Comm    | 0.00023153 | 0.0024656  | 0.0038847  |   2.4 |  2.93
Output  | 0          | 0          | 0          |   0.0 |  0.00
Modify  | 0.0059023  | 0.0059063  | 0.0059132  |   0.0 |  7.02
Other   |            | 0.0001992  |            |       |  0.24

Nlocal:    7.125 ave 13 max 2 min
Histogram: 2 0 0 2 0 2 0 0 0 2
Nghost:    1117.88 ave 1130 max 1106 min
Histogram: 2 0 2 0 0 0 0 2 0 2
Neighs:    1964.25 ave 3625 max 551 min
Histogram: 2 0 0 2 0 2 0 0 1 1

Total # of neighbors = 15714
Ave neighs/atom = 275.684
Neighbor list builds = 0
Dangerous builds = 0
WARNING: Using 'neigh_modify every 1 delay 0 check yes' setting during minimization (../min.cpp:190)
Setting up cg style minimization ...
  Unit style    : real
  Current step  : 192
WARNING: Energy due to 3 extra global DOFs will be included in minimizer energies
Per MPI rank memory allocation (min/avg/max) = 28.39 | 28.58 | 28.77 Mbytes
Step Temp E_pair E_mol TotEng Press Volume 
     192            0   -11066.104            0   -11066.104    94662.258    1442.5658 
    2259            0   -11099.183            0   -11099.183    -366.0534    1462.3736 
Loop time of 28.0126 on 8 procs for 2067 steps with 57 atoms

99.2% CPU use with 8 MPI tasks x no OpenMP threads

Minimization stats:
  Stopping criterion = energy tolerance
  Energy initial, next-to-last, final = 
        -11066.1040501     -11099.1826331     -11099.1827234
  Force two-norm initial, final = 3801.51 18.5993
  Force max component initial, final = 3283.82 10.5767
  Final line search alpha, max atom move = 1.01745e-05 0.000107613
  Iterations, force evaluations = 2067 3158

MPI task timing breakdown:
Section |  min time  |  avg time  |  max time  |%varavg| %total
---------------------------------------------------------------
Pair    | 25.388     | 25.871     | 26.56      |   7.2 | 92.36
Neigh   | 0          | 0          | 0          |   0.0 |  0.00
Comm    | 0.086728   | 0.77428    | 1.2582     |  41.4 |  2.76
Output  | 0.0047182  | 0.0063158  | 0.011719   |   2.6 |  0.02
Modify  | 1.2609     | 1.2625     | 1.2639     |   0.1 |  4.51
Other   |            | 0.09834    |            |       |  0.35

Nlocal:    7.125 ave 13 max 2 min
Histogram: 2 0 0 2 0 2 0 0 0 2
Nghost:    1117.88 ave 1130 max 1106 min
Histogram: 2 0 2 0 0 0 0 2 0 2
Neighs:    1964.25 ave 3625 max 551 min
Histogram: 2 0 0 2 0 2 0 0 1 1

Total # of neighbors = 15714
Ave neighs/atom = 275.684
Neighbor list builds = 0
Dangerous builds = 0
WARNING: Using 'neigh_modify every 1 delay 0 check yes' setting during minimization (../min.cpp:190)
Setting up cg style minimization ...
  Unit style    : real
  Current step  : 2259
Per MPI rank memory allocation (min/avg/max) = 28.39 | 28.58 | 28.77 Mbytes
Step Temp E_pair E_mol TotEng Press 
    2259            0   -11099.183            0   -11099.183   -366.05124 
    2362            0   -11102.887            0   -11102.887    8195.3907 
Loop time of 4.85241 on 8 procs for 103 steps with 57 atoms

99.2% CPU use with 8 MPI tasks x no OpenMP threads

Minimization stats:
  Stopping criterion = energy tolerance
  Energy initial, next-to-last, final = 
        -11099.1827228     -11102.8869957     -11102.8870035
  Force two-norm initial, final = 12.099 25.4058
  Force max component initial, final = 3.99339 13.615
  Final line search alpha, max atom move = 0.00330761 0.0450331
  Iterations, force evaluations = 103 530

MPI task timing breakdown:
Section |  min time  |  avg time  |  max time  |%varavg| %total
---------------------------------------------------------------
Pair    | 4.2775     | 4.3678     | 4.4707     |   3.0 | 90.01
Neigh   | 0          | 0          | 0          |   0.0 |  0.00
Comm    | 0.017331   | 0.12018    | 0.21022    |  17.9 |  2.48
Output  | 0.0002623  | 0.00035196 | 0.0006753  |   0.0 |  0.01
Modify  | 0.35812    | 0.35842    | 0.35864    |   0.0 |  7.39
Other   |            | 0.005658   |            |       |  0.12

Nlocal:    7.125 ave 13 max 2 min
Histogram: 2 0 2 0 0 0 2 0 1 1
Nghost:    1123.38 ave 1134 max 1105 min
Histogram: 1 0 1 0 0 0 2 1 2 1
Neighs:    1948.62 ave 3601 max 559 min
Histogram: 2 0 2 0 0 0 2 1 0 1

Total # of neighbors = 15589
Ave neighs/atom = 273.491
Neighbor list builds = 0
Dangerous builds = 0
WARNING: Using 'neigh_modify every 1 delay 0 check yes' setting during minimization (../min.cpp:190)
Setting up cg style minimization ...
  Unit style    : real
  Current step  : 2362
WARNING: Energy due to 3 extra global DOFs will be included in minimizer energies
Per MPI rank memory allocation (min/avg/max) = 28.39 | 28.58 | 28.77 Mbytes
Step Temp E_pair E_mol TotEng Press Volume 
    2362            0   -11102.887            0   -11102.887    8195.3793    1462.3736 
    2596            0   -11104.895            0   -11104.895     113.2358    1462.8599 
Loop time of 3.58102 on 8 procs for 234 steps with 57 atoms

99.2% CPU use with 8 MPI tasks x no OpenMP threads

Minimization stats:
  Stopping criterion = energy tolerance
  Energy initial, next-to-last, final = 
        -11102.8870055     -11104.8950984     -11104.8951545
  Force two-norm initial, final = 349.343 11.2852
  Force max component initial, final = 269.417 7.41902
  Final line search alpha, max atom move = 8.88786e-06 6.59392e-05
  Iterations, force evaluations = 234 405

MPI task timing breakdown:
Section |  min time  |  avg time  |  max time  |%varavg| %total
---------------------------------------------------------------
Pair    | 3.2776     | 3.3297     | 3.3898     |   2.0 | 92.98
Neigh   | 0          | 0          | 0          |   0.0 |  0.00
Comm    | 0.010841   | 0.07086    | 0.12271    |  13.5 |  1.98
Output  | 0.00054298 | 0.00072504 | 0.0014089  |   0.0 |  0.02
Modify  | 0.16706    | 0.16727    | 0.16744    |   0.0 |  4.67
Other   |            | 0.01244    |            |       |  0.35

Nlocal:    7.125 ave 13 max 2 min
Histogram: 2 0 2 0 0 0 2 0 1 1
Nghost:    1123.38 ave 1134 max 1114 min
Histogram: 1 1 0 1 2 0 1 0 1 1
Neighs:    1939.88 ave 3580 max 564 min
Histogram: 2 0 2 0 0 0 2 1 0 1

Total # of neighbors = 15519
Ave neighs/atom = 272.263
Neighbor list builds = 0
Dangerous builds = 0
WARNING: Using 'neigh_modify every 1 delay 0 check yes' setting during minimization (../min.cpp:190)
Setting up cg style minimization ...
  Unit style    : real
  Current step  : 2596
Per MPI rank memory allocation (min/avg/max) = 28.39 | 28.58 | 28.77 Mbytes
Step Temp E_pair E_mol TotEng Press 
    2596            0   -11104.895            0   -11104.895    113.23123 
    2689            0   -11105.274            0   -11105.274    13633.579 
Loop time of 5.87205 on 8 procs for 93 steps with 57 atoms

99.2% CPU use with 8 MPI tasks x no OpenMP threads

Minimization stats:
  Stopping criterion = energy tolerance
  Energy initial, next-to-last, final = 
        -11104.8951552     -11105.2739937     -11105.2740347
  Force two-norm initial, final = 8.45972 12.0349
  Force max component initial, final = 2.81967 4.8323
  Final line search alpha, max atom move = 0.00671659 0.0324566
  Iterations, force evaluations = 93 637

MPI task timing breakdown:
Section |  min time  |  avg time  |  max time  |%varavg| %total
---------------------------------------------------------------
Pair    | 5.1923     | 5.3097     | 5.4189     |   3.2 | 90.42
Neigh   | 0          | 0          | 0          |   0.0 |  0.00
Comm    | 0.030263   | 0.13958    | 0.25673    |  20.0 |  2.38
Output  | 0.0002468  | 0.00032794 | 0.00061942 |   0.0 |  0.01
Modify  | 0.41554    | 0.4159     | 0.41608    |   0.0 |  7.08
Other   |            | 0.006525   |            |       |  0.11

Nlocal:    7.125 ave 13 max 2 min
Histogram: 2 0 2 0 0 0 2 0 1 1
Nghost:    1128.88 ave 1134 max 1123 min
Histogram: 1 1 0 2 0 0 0 2 0 2
Neighs:    1942.12 ave 3581 max 565 min
Histogram: 2 0 2 0 0 0 2 1 0 1

Total # of neighbors = 15537
Ave neighs/atom = 272.579
Neighbor list builds = 0
Dangerous builds = 0
Setting up Verlet run ...
  Unit style    : real
  Current step  : 0
  Time step     : 0.25
Per MPI rank memory allocation (min/avg/max) = 27.26 | 27.45 | 27.64 Mbytes
Step Temp TotEng KinEng PotEng Press 
       0          300   -11055.196    50.077609   -11105.274    15198.435 
     200    182.65657   -11034.938    30.490015   -11065.428    4244.1558 
     400    349.63904   -11005.361    58.363624   -11063.724   -55025.039 
     600    238.20899   -11010.506    39.763122   -11050.269    40707.254 
     800    374.74593   -10996.218    62.554601   -11058.772    4596.2922 
    1000    258.03562   -11002.567    43.072689   -11045.639   -20579.574 
    1200    379.59763   -10987.347    63.364472   -11050.711    41821.558 
    1400    306.11239   -11002.816    51.097922   -11053.914    15199.357 
    1600    296.90806   -11008.865    49.561486   -11058.426   -39630.932 
    1800    267.79702   -11016.748    44.702114    -11061.45    22274.954 
    2000    328.46326   -11007.233    54.828849   -11062.061     7482.329 
    2200    276.84656   -11014.507    46.212712   -11060.719    3867.2329 
    2400    334.75276   -10995.114    55.878725   -11050.993    13902.842 
    2600     271.3396   -11003.519    45.293461   -11048.813   -39783.374 
    2800    361.93085   -10983.795    60.415438    -11044.21    -4390.627 
    3000    288.31885   -11003.536    48.127729   -11051.663    25365.564 
    3200    282.10654   -11006.596    47.090737   -11053.687    21570.496 
    3400    311.10492   -11011.111    51.931302   -11063.042   -4900.5127 
    3600    308.45633   -11003.535    51.489185   -11055.024   -6396.4449 
    3800    284.02661   -11004.701    47.411244   -11052.112   -24878.168 
    4000    258.34561   -11010.978    43.124434   -11054.102    61981.604 
    4200    288.89111   -11004.002    48.223253   -11052.225    28671.026 
    4400    283.48542    -11005.47    47.320906   -11052.791   -17428.373 
    4600    337.10184   -10990.195    56.270847   -11046.466   -23816.127 
    4800    305.53399   -11000.924    51.001373   -11051.926   -39929.242 
    5000    293.51539   -11011.547    48.995163   -11060.542   -16476.306 
    5200    213.64271   -11025.681    35.662387   -11061.344   -31911.736 
    5400    289.06235   -11008.168    48.251838    -11056.42   -11366.108 
    5600    301.51101   -10999.081    50.329834   -11049.411   -42499.289 
    5800    306.15301   -11011.648    51.104702   -11062.752    4420.9959 
    6000    248.60225   -11014.811    41.498021   -11056.309     55235.16 
    6200    326.40413   -10998.531    54.485128   -11053.016     25952.76 
    6400    293.64032   -11011.621    49.016016   -11060.637    56121.168 
    6600    288.61171   -11012.382    48.176615   -11060.559   -16533.179 
    6800    279.74534   -11010.717    46.696592   -11057.414    17386.391 
    7000    325.31215   -11001.116    54.302848   -11055.419   -65425.077 
    7200    321.33229   -11001.865    53.638509   -11055.503    13807.012 
    7400    289.92311   -11005.863    48.395521   -11054.258   -341.30905 
    7600     261.6633   -11018.256    43.678242   -11061.935   -40899.606 
    7800    311.85895   -11002.041    52.057168   -11054.098     66854.71 
    8000    270.75007   -11011.713    45.195054   -11056.908    51908.621 
    8200    301.37087   -11000.804    50.306442    -11051.11   -24483.342 
    8400    324.98285   -10996.353     54.24788   -11050.601    37218.168 
    8600    303.36745   -11006.972    50.639722   -11057.611    19066.745 
    8800    282.51363   -11015.802     47.15869    -11062.96   -25928.395 
    9000    299.74528    -10997.32     50.03509   -11047.355    -15541.42 
    9200    279.86828    -11012.69    46.717114   -11059.407   -44711.609 
    9400    354.36112   -11004.464    59.151858   -11063.616    33620.931 
    9600    255.88744   -11010.978    42.714103   -11053.692    34066.933 
    9800    320.72951   -11004.804    53.537889   -11058.342    46321.018 
   10000    311.01498   -10999.755    51.916289   -11051.672    71838.625 
   10200    361.58214   -10989.225     60.35723   -11049.582   -7306.0995 
   10400    262.13122   -11007.085    43.756348   -11050.841    75997.604 
   10600    327.60156   -11001.181     54.68501   -11055.866   -229.76789 
   10800    264.73651   -11017.973    44.191238   -11062.164   -46413.131 
   11000    303.82453   -11008.866     50.71602   -11059.582    16734.042 
   11200    323.79084   -10987.782    54.048903    -11041.83   -70438.544 
   11400    299.57867   -10990.233    50.007279   -11040.241   -2856.2543 
   11600    267.70261   -11001.628    44.686355   -11046.314    16875.539 
   11800    274.74117   -11009.289    45.861269   -11055.151    15907.662 
   12000    366.54666   -10998.212    61.185934   -11059.398    11749.985 
   12200    310.59334   -11008.747    51.845906   -11060.593   -10200.757 
   12400    293.78631   -11012.592    49.040387   -11061.632   -21088.793 
   12600    283.16175   -11009.382    47.266879   -11056.649    31340.155 
   12800     377.0424   -10987.087    62.937939   -11050.025   -47509.884 
   13000    339.07928   -11004.066    56.600932   -11060.667   -22086.499 
   13200    312.67651   -10995.005     52.19364   -11047.198    25183.645 
   13400    326.78138   -10991.234      54.5481   -11045.783   -54634.316 
   13600    291.45987   -11005.489    48.652045   -11054.141    11403.688 
   13800    327.58675   -10992.415    54.682537   -11047.097   -35705.901 
   14000    297.62681    -11014.19    49.681464   -11063.872    23535.985 
   14200     305.7187   -11012.735    51.032205   -11063.767    7798.1696 
   14400    345.60099   -10995.364    57.689571   -11053.053     49350.87 
   14600    254.12988   -11004.402    42.420722   -11046.822   -18584.667 
   14800     274.3619   -11008.795    45.797959   -11054.593   -27435.746 
   15000    296.36578   -10998.219    49.470966    -11047.69    2876.2036 
   15200    263.97635   -11000.295    44.064347   -11044.359     67015.18 
   15400    300.35289   -11001.839    50.136515   -11051.975   -7800.6472 
   15600    275.06144   -11009.819     45.91473   -11055.734     8132.608 
   15800     266.3685   -11023.274    44.463658   -11067.738   -4918.9394 
   16000    316.38454   -11007.503    52.812604   -11060.315   -12691.719 
   16200    347.10692   -10997.604    57.940949   -11055.545    64058.454 
   16400    235.50549   -11016.273     39.31184   -11055.585    10134.427 
   16600     302.5205   -11009.098    50.498343   -11059.597   -19890.442 
   16800    277.33938   -11001.555    46.294976    -11047.85   -13638.448 
   17000    349.31147   -10984.098    58.308943   -11042.407        53351 
   17200    276.19194   -11002.808     46.10344   -11048.911   -20535.812 
   17400     334.9139   -11000.094    55.905624   -11055.999   -48551.093 
   17600    331.18697   -10999.604    55.283505   -11054.888    2509.3857 
   17800    318.34886   -11013.712    53.140499   -11066.852   -9213.9352 
   18000    356.45715   -10998.408    59.501739    -11057.91    2504.7727 
   18200     298.8057   -10997.129    49.878251   -11047.007   -6326.2507 
   18400    243.63278   -11010.008     40.66849   -11050.677   -294.84224 
   18600    296.04291   -11009.063    49.417071    -11058.48   -2294.0237 
   18800    327.16898   -11004.902      54.6128   -11059.515   -27891.968 
   19000    328.39089   -10994.302    54.816768   -11049.118    16792.256 
   19200    336.55295   -10991.184    56.179222   -11047.363    4800.7353 
   19400    350.42633     -11006.6    58.495043   -11065.095   -3569.3491 
   19600    275.43061    -11013.29    45.976355   -11059.266   -58941.281 
   19800    344.06944   -10992.901    57.433916   -11050.335    6828.6382 
   20000    279.81256   -11008.636    46.707813   -11055.344    8553.2527 
   20200    305.62061   -11010.725    51.015832   -11061.741   -10371.181 
   20400    338.06428   -10993.355    56.431502   -11049.786    5831.4181 
   20600     306.6275   -11009.976    51.183907    -11061.16    1457.0724 
   20800    286.50991   -11004.067     47.82577   -11051.892   -2958.2609 
   21000    315.19064   -10987.578    52.613311   -11040.191      19506.1 
   21200     309.0047   -11003.333    51.580722   -11054.913     23113.19 
   21400    271.67716   -11006.549    45.349808   -11051.899    10692.532 
   21600    332.39583   -11008.145    55.485295    -11063.63    98055.743 
   21800    258.90926   -11014.098    43.218522   -11057.317    45622.001 
   22000    306.99359   -11008.531    51.245016   -11059.776   -1795.8472 
   22200    335.89108   -10995.831    56.068741   -11051.899    15626.729 
   22400    254.02079   -11013.693    42.402512   -11056.096    18085.447 
   22600    312.28434   -11003.298    52.128176   -11055.426   -38840.566 
   22800    331.10469    -11001.04    55.269771    -11056.31     10886.62 
   23000    333.63664   -10988.567    55.692417    -11044.26   -51734.378 
   23200    310.46959     -11003.4    51.825249   -11055.226   -18479.225 
   23400    286.28039   -11014.967    47.787459   -11062.755    19499.402 
   23600    235.80409   -11010.861    39.361683   -11050.223     31432.92 
   23800    328.37468   -10992.353    54.814062   -11047.167    44744.096 
   24000    278.49143   -11006.011    46.487283   -11052.499   -52225.412 
   24200     278.7814   -11007.472    46.535686   -11054.007   -53230.633 
   24400    305.63183   -10995.607    51.017704   -11046.625   -60789.882 
   24600    319.73566   -10991.762     53.37199   -11045.134    31234.124 
   24800     317.4528   -11012.012    52.990924   -11065.003   -91.192665 
   25000     308.4706   -11009.495    51.491566   -11060.986   -6046.8712 
   25200    271.43369   -10997.846    45.309167   -11043.155   -14297.869 
   25400    277.89044   -11015.173    46.386963    -11061.56    -24606.93 
   25600    252.24396     -11007.2    42.105915   -11049.306   -48025.613 
   25800    321.75544   -10995.794    53.709143   -11049.503   -54400.948 
   26000    271.33042    -11011.43    45.291929   -11056.722    2677.0297 
   26200     329.6391   -11010.767    55.025126   -11065.792   -1144.8761 
   26400    282.44356   -11004.587    47.146994   -11051.734    15464.985 
   26600    297.38215   -11001.679    49.640623   -11051.319    25315.136 
   26800    350.28503   -10986.933    58.471456   -11045.404    -19920.75 
   27000    313.09118   -11004.526    52.262859   -11056.789    6846.6273 
   27200    299.05271   -11009.293    49.919482   -11059.213   -28659.013 
   27400    335.15725    -10987.71    55.946246   -11043.657    42447.136 
   27600    364.83443    -10998.29     60.90012    -11059.19   -2336.6479 
   27800    300.35638   -11008.169    50.137097   -11058.306   -98328.068 
   28000    352.94756   -10995.964      58.9159   -11054.879   -26985.249 
   28200    310.20848   -10997.236    51.781663   -11049.018   -16046.729 
   28400    297.57336   -11007.135    49.672542   -11056.808   -16581.456 
   28600    344.37947   -10995.365    57.485669    -11052.85    10273.097 
   28800    290.87655   -11012.972    48.554673   -11061.527   -38748.695 
   29000    304.32962   -11006.376    50.800332   -11057.177    32579.741 
   29200    340.70679   -10999.968    56.872604   -11056.841    21419.522 
   29400    257.99624   -11014.047    43.066116   -11057.114   -45182.919 
   29600    328.06261   -10999.002    54.761971   -11053.764   -2025.3995 
   29800    297.66561    -10991.41     49.68794   -11041.098   -5343.5171 
   30000    310.48228   -11003.134    51.827367   -11054.961   -15863.212 
   30200    256.17386    -11004.67    42.761914   -11047.432   -2670.6921 
   30400    264.95704   -11021.476    44.228051   -11065.704   -63895.527 
   30600    300.55851   -11005.484    50.170839   -11055.654     4960.111 
   30800    335.76327   -11008.955    56.047406   -11065.003   -17044.114 
   31000     259.1778   -11019.173    43.263348   -11062.436    101745.56 
   31200    285.13852   -10997.572    47.596851   -11045.169   -9990.4486 
   31400    329.48693   -10999.924    54.999726   -11054.923    58959.998 
   31600    253.98519   -11011.763     42.39657    -11054.16    64541.235 
   31800     301.4605   -10999.097    50.321403   -11049.419   -15924.948 
   32000    273.97544   -10998.612    45.733449   -11044.346   -6404.9507 
   32200    266.68212   -11015.653     44.51601   -11060.169    6336.3877 
   32400    310.28956   -11002.608    51.795197   -11054.403   -15443.606 
   32600    342.29114   -10985.269    57.137073   -11042.406   -51521.705 
   32800    269.49957   -11006.753    44.986313   -11051.739     25830.03 
   33000    297.43111   -11004.242    49.648796   -11053.891    33265.191 
   33200    383.34504   -10983.927    63.990009   -11047.917    26924.533 
   33400    283.18566   -10997.808    47.270869   -11045.079    1826.4984 
   33600     334.9195     -10999.6    55.906559   -11055.507   -55455.191 
   33800    276.89595   -11011.408    46.220957   -11057.629    6657.3445 
   34000    294.95487   -11011.216    49.235448   -11060.452   -14486.279 
   34200    313.79204   -10997.209     52.37985   -11049.589   -49252.005 
   34400    291.19525   -11014.992    48.607873   -11063.599   -11681.693 
   34600    310.79664   -11006.515    51.879842   -11058.395   -31854.391 
   34800    333.07962   -10999.034    55.599437   -11054.633    58689.019 
   35000    340.26447   -10999.498    56.798771   -11056.296     40577.67 
   35200    224.15954   -11013.413    37.417912    -11050.83   -45567.954 
   35400    299.55684   -11004.317    50.003633   -11054.321   -30201.863 
   35600    301.41796   -11000.279    50.314303   -11050.593   -3317.0386 
   35800    275.29328   -11011.973     45.95343   -11057.927   -8032.3559 
   36000    224.24977   -11023.973    37.432974   -11061.406   -40871.273 
   36200    292.14559   -11008.458    48.766508   -11057.224   -36118.904 
   36400    315.91729   -10996.618    52.734609   -11049.352   -4817.4425 
   36600    314.27594    -10997.19    52.460626    -11049.65   -31616.756 
   36800    280.79592   -11008.486    46.871962   -11055.358   -16945.467 
   37000    315.82068   -10991.194    52.718482   -11043.913    -7043.791 
   37200    240.41816    -11008.84    40.131889   -11048.972     22852.79 
   37400    283.19423   -11007.207      47.2723   -11054.479   -14494.417 
   37600    308.51422   -11000.023    51.498848   -11051.522    37969.768 
   37800    293.19506   -10995.755    48.941692   -11044.697    12175.943 
   38000    239.84061   -11010.967    40.035481   -11051.003   -32908.514 
   38200    290.61161   -10996.066    48.510449   -11044.576     1565.257 
   38400    338.53951   -11000.646    56.510831   -11057.157   -40254.123 
   38600      289.164   -11009.302    48.268806   -11057.571   -27361.987 
   38800    280.47972   -11014.056     46.81918   -11060.875   -2658.5656 
   39000    318.87228   -10997.015    53.227872   -11050.243   -52059.913 
   39200    251.05491   -11006.529    41.907432   -11048.436   -36378.865 
   39400    238.76402   -11008.683    39.855771   -11048.539    -30121.69 
   39600    308.57885   -11001.623    51.509637   -11053.132   -9738.4911 
   39800    291.83112   -11013.267    48.714016   -11061.981    10142.023 
   40000    315.08583   -11008.057    52.595817   -11060.652    17158.471 
   40200    380.09458   -11000.496    63.447426   -11063.944    38010.945 
   40400    311.84807   -11012.341    52.055352   -11064.396    29916.466 
   40600    336.19518   -11000.771    56.119502   -11056.891    75638.355 
   40800     301.0699   -10998.762    50.256201   -11049.018    21679.744 
   41000    293.86053   -10996.539    49.052776   -11045.591   -707.74766 
   41200     307.2962   -11008.083    51.295529   -11059.379   -2097.3756 
   41400     285.3503   -11012.411    47.632202   -11060.043   -26536.753 
   41600    374.06589   -10999.033    62.441085   -11061.474   -21322.131 
   41800    318.65817   -11011.746    53.192131   -11064.938    20529.549 
   42000    260.74884   -11009.418    43.525594   -11052.944   -1695.3267 
   42200    339.75698   -10993.296    56.714057    -11050.01   -32871.764 
   42400    258.52567   -11006.572    43.154492   -11049.726   -30316.893 
   42600    257.79084   -10999.296    43.031829   -11042.328   -2537.0837 
   42800    341.27419   -10991.836    56.967317   -11048.803    62079.891 
   43000    336.93805   -11005.319    56.243507   -11061.563     52822.57 
   43200    260.72026   -11012.757    43.520824   -11056.278    53989.373 
   43400    280.15838   -11008.868    46.765539   -11055.633   -33160.965 
   43600    286.39539   -11007.847    47.806655   -11055.654   -18680.626 
   43800    352.55479   -10993.676    58.850336   -11052.526   -29779.633 
   44000    317.30241   -10997.213    52.965821   -11050.179   -18304.106 
   44200    278.76247   -11006.361    46.532527   -11052.893    20236.232 
   44400    296.68938   -10992.977    49.524983   -11042.502    54670.104 
   44600    341.44328   -10985.018    56.995543   -11042.013   -54612.034 
   44800    324.07309    -11009.01    54.096018   -11063.106   -27117.512 
   45000    243.04959   -11017.083    40.571142   -11057.654   -23961.992 
   45200    320.39295   -10996.662     53.48171   -11050.144    76299.813 
   45400    286.26132   -11003.705    47.784274   -11051.489   -50150.812 
   45600    254.85411   -11019.844    42.541615   -11062.385   -5895.5513 
   45800    296.43445   -11006.826    49.482427   -11056.308    15679.885 
   46000    276.70147   -11000.789    46.188494   -11046.977    7101.3832 
   46200     271.8469    -11010.44    45.378143   -11055.818    18360.138 
   46400    263.19425   -11019.101    43.933795   -11063.035    9011.2865 
   46600     305.3896   -11002.088     50.97727   -11053.065   -26039.427 
   46800    312.95436   -11003.474     52.24002   -11055.714   -4524.9237 
   47000    308.29148   -11018.473    51.461667   -11069.935   -44725.782 
   47200    333.96826   -11004.636    55.747773   -11060.383   -69709.451 
   47400    276.19658   -11004.767    46.104214   -11050.871   -30470.614 
   47600    339.92688   -10993.609    56.742418   -11050.352    33688.791 
   47800    256.07542   -11007.122    42.745482   -11049.867    34031.463 
   48000    293.66768   -11007.326    49.020584   -11056.346    27337.939 
   48200    304.87707   -10985.951    50.891715   -11036.842    47166.455 
   48400    328.07463   -10996.858    54.763976   -11051.622    51409.904 
   48600    306.05343   -11008.404     51.08808   -11059.492   -31462.174 
   48800    327.58729    -11001.21    54.682628   -11055.893    52156.761 
   49000    337.36738   -10991.184    56.315173   -11047.499   -13151.341 
   49200    260.47889   -11007.968    43.480533   -11051.449   -38058.387 
   49400     269.9164   -11011.407    45.055894   -11056.463    29070.217 
   49600    361.28622   -10997.195    60.307834   -11057.503   -37639.515 
   49800    301.30961   -10998.642    50.296216   -11048.939    18437.745 
   50000    302.89988    -11011.41    50.561672   -11061.971    48576.402 
   50200     292.0228   -11000.216    48.746011   -11048.962    1490.0059 
   50400    284.83055   -10997.332    47.545443   -11044.877    23700.273 
   50600    319.00935   -11006.342    53.250751   -11059.593   -37664.712 
   50800     292.7009   -11015.503    48.859204   -11064.362    43270.917 
   51000    337.03835   -10993.848    56.260249   -11050.109   -34738.883 
   51200    284.65467   -11008.502    47.516085   -11056.018    1217.6982 
   51400     301.5241    -11007.26     50.33202   -11057.592   -11072.676 
   51600    340.67822    -10993.19    56.867835   -11050.058    70457.888 
   51800     254.2039   -11004.861    42.433078   -11047.294    32372.939 
   52000    357.15015   -10991.312    59.617418   -11050.929   -41025.564 
   52200    362.84318   -10989.132     60.56773     -11049.7    60810.561 
   52400    249.72678   -11009.303    41.685733   -11050.989   -15492.437 
   52600    341.05357   -11002.343    56.930491   -11059.273    782.20543 
   52800    301.08416   -11006.081    50.258582   -11056.339    850.24121 
   53000    287.56731   -11014.555    48.002278   -11062.557   -20830.532 
   53200    260.81146    -11003.01    43.536047   -11046.546    8001.5944 
   53400    312.37202   -10994.836    52.142814   -11046.979    183.67795 
   53600    236.05104   -11015.149    39.402905   -11054.552   -1355.3362 
   53800    282.64469   -11008.722    47.180568   -11055.903   -16777.028 
   54000    326.86305   -10996.983    54.561733   -11051.544   -52715.597 
   54200    297.94522   -11016.698    49.734613   -11066.433   -13748.142 
   54400    263.72123   -11012.614    44.021762   -11056.636   -44141.497 
   54600    325.90959   -10998.558    54.402577    -11052.96    5281.7972 
   54800    281.08306   -11014.357    46.919892   -11061.277   -28096.791 
   55000    324.99023    -10998.14    54.249111   -11052.389    2054.3465 
   55200    280.71751   -10999.972    46.858872    -11046.83   -19943.009 
   55400    300.09254   -11007.763    50.093056   -11057.856    762.40413 
   55600    398.59528    -10987.38    66.535662   -11053.915   -156.70339 
   55800    272.36036   -11003.032    45.463852   -11048.496   -18429.881 
   56000    243.65509    -11013.72    40.672214   -11054.392      5408.24 
   56200    354.33868    -10992.69    59.148113   -11051.839    116939.95 
   56400    301.08269    -11003.13    50.258338   -11053.389    45961.551 
   56600    266.29207   -11009.008      44.4509   -11053.459    6909.4348 
   56800    328.37349    -10987.94    54.813864   -11042.754   -4886.3255 
   57000    282.76326   -11001.795    47.200359   -11048.995   -2691.5058 
   57200    263.29169   -11007.825    43.950061   -11051.775   -28122.441 
   57400    344.46078   -10992.045     57.49924   -11049.544    21890.688 
   57600    314.07075   -10998.414    52.426374    -11050.84    -37969.31 
   57800    253.84655   -11010.287    42.373427   -11052.661   -67334.423 
   58000    313.18605   -10997.121    52.278695   -11049.399    17305.074 
   58200    344.26075   -10994.315     57.46585   -11051.781    40882.802 
   58400    295.20938   -11002.621    49.277932   -11051.899    53422.814 
   58600    233.93863   -11014.748    39.050291   -11053.798    4628.8324 
   58800    304.34321   -11006.174      50.8026   -11056.977    -56095.19 
   59000    346.43437    -10999.63    57.828683   -11057.459   -40883.907 
   59200    299.98676   -11006.507    50.075398   -11056.582    64865.411 
   59400    251.73015   -11014.862    42.020146   -11056.882    908.43567 
   59600    344.99439   -10996.359    57.588314   -11053.947   -18462.162 
   59800    303.73042    -11007.95    50.700311    -11058.65    102436.15 
   60000    324.42912   -11004.237    54.155448   -11058.392   -8800.1259 
   60200    303.18644    -11001.32    50.609507   -11051.929    12708.945 
   60400    242.05976   -11016.684    40.405913    -11057.09   -8445.3239 
   60600    290.40165    -11007.79    48.475401   -11056.265   -13676.663 
   60800    274.74449    -11002.73    45.861823   -11048.591   -63271.437 
   61000     293.6769   -10999.232    49.022122   -11048.254   -14173.014 
   61200     288.6593   -10993.472    48.184558   -11041.657   -55550.749 
   61400    299.47009   -11004.835    49.989154   -11054.824    69681.632 
   61600    276.96118   -11017.935    46.231846   -11064.167   -41131.167 
   61800       274.36     -11007.3    45.797643   -11053.097    14537.489 
   62000    316.96856   -11003.625    52.910092   -11056.535      18737.8 
   62200    254.09262    -11012.14    42.414503   -11054.554    500.13821 
   62400    372.84725   -10993.617    62.237663   -11055.854    36879.672 
   62600    261.76211   -11004.189    43.694736   -11047.883   -14652.137 
   62800    255.62708   -11019.622    42.670643   -11062.292    37765.125 
   63000    284.40808   -11010.725    47.474922     -11058.2   -36334.338 
   63200    375.89206   -10999.043    62.745918   -11061.789   -4415.3276 
   63400    322.31523   -11017.568    53.802587    -11071.37     5222.172 
   63600    278.44042   -11012.815    46.478768   -11059.294   -25442.285 
   63800      312.064   -11002.249    52.091396   -11054.341    37515.254 
   64000    313.72698   -10997.472     52.36899   -11049.841   -24091.468 
   64200    276.54589   -11013.536    46.162524   -11059.698    1223.0999 
   64400    325.75616    -10999.41    54.376965   -11053.787    23585.231 
   64600    314.89286   -11000.582    52.563606   -11053.145    3727.3009 
   64800     270.6282    -11008.87     45.17471   -11054.044   -11861.327 
   65000    343.55163   -11001.313     57.34748    -11058.66    10097.504 
   65200    319.16738   -11007.308     53.27713   -11060.585    42073.657 
   65400    266.15099   -11013.587     44.42735   -11058.014   -12342.801 
   65600    267.35935   -10998.723    44.629056   -11043.352   -10056.467 
   65800    307.33866   -11001.171    51.302618   -11052.473    -21718.38 
   66000    299.35047   -11003.495    49.969185   -11053.464    49493.827 
   66200    272.30117   -11011.948    45.453971   -11057.402    -46988.71 
   66400    328.25454   -11006.026    54.794008    -11060.82    9534.9657 
   66600    256.68321   -11002.384    42.846938   -11045.231   -2799.6107 
   66800    237.51395   -11010.708    39.647103   -11050.355   -46001.201 
   67000    407.96596   -10985.356    68.099866   -11053.456    2468.4904 
   67200    322.17505   -11009.561    53.779188    -11063.34   -4467.5572 
   67400    305.25689    -11001.56    50.955117   -11052.515   -7544.8207 
   67600    312.09989   -11003.088    52.097387   -11055.186   -562.67176 
   67800    311.72639   -11005.545    52.035041    -11057.58    7547.9295 
   68000    305.09428   -11002.237    50.927974   -11053.165   -9890.9494 
   68200     256.3966   -11019.284    42.799096   -11062.083    31718.986 
   68400    261.94607   -11006.287    43.725442   -11050.012    34812.049 
   68600    331.01375   -10999.637     55.25459   -11054.892    6687.1187 
   68800    282.43844    -10994.08     47.14614   -11041.226    44086.598 
   69000    283.21538   -11011.113    47.275829   -11058.389    29988.797 
   69200    297.19807   -11004.993    49.609895   -11054.603    18352.306 
   69400    364.10157   -10989.064    60.777787   -11049.841    23491.801 
   69600    312.10958   -11006.149    52.099005   -11058.248     51000.68 
   69800    300.00562   -11005.379    50.078548   -11055.458    33513.303 
   70000    334.54517   -10994.943    55.844074   -11050.787    14174.988 
   70200    286.44555   -11003.343    47.815027   -11051.158    44347.535 
   70400    341.72242   -10984.349     57.04214   -11041.391     20030.03 
   70600    324.14383   -10993.556    54.107826   -11047.664   -40352.393 
   70800    318.99065   -11007.732     53.24763    -11060.98    262.56834 
   71000    295.44754   -11006.917    49.317687   -11056.234   -78419.107 
   71200    353.96253    -10990.54    59.085323   -11049.626    -43265.15 
   71400    283.43417   -11005.539    47.312351   -11052.851   -32458.147 
   71600      299.686   -11005.807    50.025194   -11055.832     79093.92 
   71800    290.61269   -10996.258    48.510629   -11044.769     -41457.6 
   72000    277.23689   -10991.021    46.277868   -11037.299    14497.024 
   72200    274.78969    -11012.52    45.869368   -11058.389   -57084.893 
   72400    264.06049   -11007.165    44.078393   -11051.243   -15821.915 
   72600     312.9103   -10992.113    52.232665   -11044.345   -12073.228 
   72800    322.46492   -10994.161    53.827574   -11047.989   -7798.8185 
   73000    290.74354   -11013.387    48.532472    -11061.92    55947.228 
   73200     336.7909   -11006.332    56.218944   -11062.551    -25049.12 
   73400    281.49869    -10996.45     46.98927   -11043.439    2497.2286 
   73600    282.36916   -11001.857    47.134574   -11048.991   -5234.5594 
   73800    291.99859   -11005.046     48.74197   -11053.788   -48270.135 
   74000    328.10068   -10994.587    54.768325   -11049.356   -74916.069 
   74200    302.98703   -11001.229     50.57622   -11051.806    7910.5734 
   74400     300.3296   -11014.448    50.132628   -11064.581   -8327.0528 
   74600     346.7959   -10995.172    57.889031   -11053.061    6528.4923 
   74800    310.87538   -11008.537    51.892985    -11060.43    15809.118 
   75000    310.51416   -11009.562    51.832689   -11061.394    -11228.32 
   75200    322.36009   -10999.236    53.810075   -11053.046   -5928.2331 
   75400    256.24805   -11009.347      42.7743   -11052.121    -4800.173 
   75600    243.96661   -11013.518    40.724215   -11054.242    11877.406 
   75800    357.29752   -10993.461    59.642019   -11053.103   -3742.4941 
   76000    250.86427   -11015.373    41.875609   -11057.249   -68554.305 
   76200    241.88457   -11005.623    40.376669   -11045.999    2519.2046 
   76400    303.20764   -10999.244    50.613045   -11049.857   -7553.5518 
   76600    230.28487   -11019.352    38.440386   -11057.792    7574.4137 
   76800    296.60646    -11003.91    49.511141   -11053.421   -5193.8313 
   77000    334.37697   -10998.937    55.815998   -11054.753    44155.712 
   77200    310.94896   -11017.261    51.905268   -11069.166    -46733.33 
   77400    320.08955   -11002.769    53.431064     -11056.2   -5737.7288 
   77600    297.20132   -11005.652    49.610438   -11055.262    -23750.77 
   77800    293.17617   -11015.686    48.938539   -11064.625   -13343.869 
   78000    327.66284   -11004.286    54.695238   -11058.981    42295.669 
   78200    311.47496   -10995.317     51.99307    -11047.31    18097.851 
   78400    244.92361   -11014.735    40.883962   -11055.619   -45201.956 
   78600    328.67017   -11008.899    54.863387   -11063.762   -42101.902 
   78800    355.17838   -10986.062    59.288281   -11045.351   -53897.054 
   79000    316.74956   -10993.416    52.873534   -11046.289    6104.0022 
   79200    283.71103   -11005.092    47.358567   -11052.451   -23643.584 
   79400    270.93112   -10998.556    45.225276   -11043.781   -6652.3955 
   79600    298.62859   -10995.088    49.848686   -11044.937    10997.011 
   79800    285.47354   -11009.547    47.652774     -11057.2   -12912.839 
   80000    357.27379   -10996.535    59.638058   -11056.173    6525.5158 
   80200    309.41951   -10998.979    51.649964   -11050.629    5629.2694 
   80400    281.41685   -11009.639    46.975609   -11056.615    27327.672 
   80600    327.01191   -11006.138    54.586582   -11060.724   -27865.724 
   80800    342.31648   -10995.407    57.141302   -11052.549    14981.754 
   81000    255.84206   -11006.546    42.706528   -11049.252    2021.9109 
   81200    286.44663   -11011.905    47.815207    -11059.72    40800.032 
   81400    342.20612   -10993.733    57.122881   -11050.856    6010.0279 
   81600    333.08489   -11012.554    55.600316   -11068.155    18162.285 
   81800    271.98488   -11008.497    45.401175   -11053.898    5835.7067 
   82000    303.48091   -11003.248    50.658661   -11053.907    37689.627 
   82200     251.6704    -11008.68    42.010172    -11050.69    88840.146 
   82400     340.7854   -11008.441    56.885726   -11065.327    27579.887 
   82600    264.59743   -11000.413    44.168023   -11044.581    43006.974 
   82800    332.11714   -10997.971    55.438775    -11053.41    36276.199 
   83000    277.18119   -11007.619     46.26857   -11053.888    3995.2921 
   83200    349.11231   -11000.433    58.275699   -11058.709    4316.3978 
   83400    308.80941   -10997.707    51.548123   -11049.255   -14896.363 
   83600    274.48843    -11010.55     45.81908   -11056.369     42583.78 
   83800    366.13376   -10992.579    61.117011   -11053.696   -36066.919 
   84000    328.47882    -10998.28    54.831446   -11053.111     13468.39 
   84200    312.50842    -11006.24    52.165581   -11058.406    1985.4325 
   84400    255.63263   -11015.395    42.671569   -11058.067     5409.813 
   84600     303.8805   -11009.838    50.725363   -11060.563      23129.1 
   84800    299.87387   -11000.208    50.056555   -11050.265    30924.772 
   85000    231.10656   -11010.204    38.577547   -11048.782     57138.19 
   85200    266.65312   -11018.308    44.511169   -11062.819    7859.0833 
   85400    347.90997   -10998.634    58.074998   -11056.709    41573.506 
   85600    259.34928   -11004.807    43.291973   -11048.099    32584.606 
   85800    234.80474   -11020.128    39.194867   -11059.323   -7961.7958 
   86000    379.07571     -11002.6     63.27735   -11065.877    36700.907 
   86200    329.50626   -11003.595    55.002952   -11058.597    7413.2598 
   86400    295.97622   -11006.418    49.405938   -11055.824   -11339.635 
   86600    308.53093   -11000.214    51.501638   -11051.716   -37934.172 
   86800    346.61275   -10996.912     57.85846    -11054.77    51226.408 
   87000    252.46815   -11012.058    42.143337   -11054.202   -21254.093 
   87200    310.45641   -11001.078    51.823049   -11052.901    12961.603 
   87400    309.62616   -11007.404    51.684459   -11059.088   -43343.123 
   87600    225.83576   -11022.446    37.697716   -11060.144    60138.744 
   87800    314.25335   -11006.409    52.456855   -11058.866    28964.715 
   88000    307.13208   -11005.697    51.268134   -11056.965   -36577.884 
   88200    229.70921   -11014.985    38.344293    -11053.33    9116.8917 
   88400    311.21784   -10994.798    51.950152   -11046.748    20112.754 
   88600    318.03175   -11001.377    53.087566   -11054.464    10843.836 
   88800    265.67153   -11009.696    44.347316   -11054.043   -14811.882 
   89000    318.33249   -11008.693    53.137766   -11061.831     32556.11 
   89200    326.42608    -10994.51    54.488791   -11048.999    13451.942 
   89400    276.05171   -11011.827    46.080033   -11057.907   -16270.575 
   89600    315.87484    -11009.51    52.727522   -11062.238    3330.4773 
   89800    342.82654   -11000.795    57.226444   -11058.022   -23072.084 
   90000    306.83931   -10993.845    51.219262   -11045.064   -1515.9795 
   90200    283.89764   -11012.162    47.389716   -11059.552    9864.1793 
   90400      333.157   -11002.066    55.612354   -11057.678   -12215.941 
   90600    310.65497   -10995.944    51.856193     -11047.8   -12928.474 
   90800    248.89039    -11018.75    41.546118   -11060.296    11785.721 
   91000     313.1102   -11007.524    52.266034    -11059.79    50964.589 
   91200    265.28761   -11002.385    44.283231   -11046.668    2330.5009 
   91400    278.59609   -11022.712    46.504753   -11069.217   -10434.631 
   91600    286.58882   -11009.233    47.838942   -11057.072   -2012.4615 
   91800    331.11526   -11002.144    55.271535   -11057.415     39141.77 
   92000     254.4509   -11006.494    42.474309   -11048.968    39302.969 
   92200    295.23912   -11018.047    49.282897    -11067.33    -43932.18 
   92400    324.70661    -11001.69    54.201769   -11055.892   -28155.115 
   92600    269.45556   -11008.121    44.978968     -11053.1    28559.161 
   92800    263.23139   -11019.227    43.939995   -11063.167    65764.491 
   93000    357.43348   -10999.072    59.664714   -11058.737   -11801.438 
   93200    297.25459   -11012.724     49.61933   -11062.344    15765.433 
   93400    278.94597   -11017.022    46.563157   -11063.585   -39405.534 
   93600    345.39577   -10993.968    57.655315   -11051.624    9059.2442 
   93800    273.62065   -11011.357    45.674227   -11057.031     11849.69 
   94000    287.05159   -11006.174    47.916191    -11054.09   -37043.427 
   94200    347.47722   -10985.269    58.002761   -11043.271     5660.195 
   94400    296.25414   -11006.942     49.45233   -11056.394   -5724.1304 
   94600    298.29209   -11000.535    49.792515   -11050.328    11581.112 
   94800    341.99403   -10988.562    57.087478   -11045.649    9113.8918 
   95000    282.81933    -11003.78    47.209719    -11050.99    15191.684 
   95200    305.55914   -11012.488     51.00557   -11063.494    26509.281 
   95400    249.96172    -11021.63     41.72495   -11063.355    5577.2477 
   95600     315.5155   -11000.035    52.667539   -11052.703   -27436.413 
   95800    266.10486   -11009.178     44.41965   -11053.597   -27870.138 
   96000    305.24484   -11005.143    50.953106   -11056.096   -17152.034 
   96200    289.47993    -10998.21    48.321543   -11046.531   -21356.627 
   96400    253.05987   -11010.563     42.24211   -11052.805   -1960.3073 
   96600    368.51757   -10986.609     61.51493   -11048.124   -27528.604 
   96800    289.16685   -11004.619    48.269281   -11052.888   -12640.197 
   97000    247.38459   -11012.077    41.294762   -11053.372   -37266.366 
   97200    285.81346   -11000.666    47.709516   -11048.376   -69470.721 
   97400    309.65846   -10993.116    51.689851   -11044.806   -26875.513 
   97600    240.76063   -11011.137    40.189055   -11051.326   -8007.5289 
   97800    323.31493    -11001.54    53.969462    -11055.51   -22354.628 
   98000     294.1618   -11001.413    49.103064   -11050.516   -14909.745 
   98200    316.46629   -11016.103    52.826251    -11068.93   -7841.6632 
   98400    320.08029   -10998.838    53.429518   -11052.267   -40176.766 
   98600    273.67878   -11010.223     45.68393   -11055.907    43176.637 
   98800    270.82663   -11015.267    45.207833   -11060.475    -45776.64 
   99000    295.55185   -11004.042      49.3351   -11053.377   -33084.644 
   99200    293.37333   -11000.028     48.97145   -11048.999   -40076.433 
   99400    344.45707   -10985.616    57.498621   -11043.115   -405.38518 
   99600    294.97436   -11004.402    49.238702    -11053.64    50871.973 
   99800    318.31717   -11009.722    53.135208   -11062.858    35950.065 
  100000    348.97331   -10993.355    58.252497   -11051.608   -46114.112 
  100200    298.66778   -11000.056    49.855228   -11049.911   -5387.8091 
  100400    279.06976   -11007.271    46.583822   -11053.854     31409.54 
  100600    337.63924   -11004.415    56.360553   -11060.775   -12359.987 
  100800    293.56467   -11019.035    49.003389   -11068.038    53168.994 
  101000     295.9541   -11001.818    49.402246    -11051.22   -16350.556 
  101200    328.69502   -11002.811    54.867536   -11057.678    52688.585 
  101400    360.46513    -10996.25    60.170772   -11056.421    1094.2858 
  101600    352.49518   -10994.115    58.840385   -11052.955    89166.029 
  101800    260.07284   -11012.753    43.412752   -11056.165    27374.248 
  102000    347.06871   -10999.114     57.93457   -11057.049   -5483.8112 
  102200     291.7469    -11004.67    48.699957    -11053.37    48435.368 
  102400    263.55371   -11014.649    43.993798   -11058.642    4977.5718 
  102600    337.09493   -11000.183    56.269693   -11056.453   -52948.999 
  102800    293.01939   -11010.969    48.912369   -11059.881    20855.373 
  103000    359.84129   -10990.549    60.066637   -11050.616   -16915.161 
  103200    269.36155   -11002.857    44.963275    -11047.82   -16315.445 
  103400    305.47693   -11005.328    50.991848    -11056.32    -23135.33 
  103600    292.46394   -11006.178     48.81965   -11054.998   -3553.8088 
  103800    285.04649    -11001.49    47.581489   -11049.072   -22280.291 
  104000    311.09116   -10993.203    51.929004   -11045.132    6649.5683 
  104200    244.30417   -11010.605    40.780562   -11051.385   -9552.1735 
  104400    316.88489   -11002.619    52.896125   -11055.515    18177.801 
  104600    246.30965   -11017.057    41.115327   -11058.172    16893.105 
  104800    262.99004   -11011.096    43.899708   -11054.996    2491.7599 
  105000    307.83264   -11001.925    51.385076    -11053.31    1415.3332 
  105200    224.52323   -11011.678    37.478621   -11049.157    18234.467 
  105400    351.54137   -10999.139    58.681171   -11057.821   -17845.369 
  105600    318.55572   -10996.989     53.17503   -11050.164   -19396.194 
  105800    265.02343   -11015.204    44.239132   -11059.443   -22642.788 
  106000    293.32821   -11009.545    48.963918   -11058.509    481.41933 
  106200    321.52013    -11004.61    53.669865    -11058.28    16326.792 
  106400     331.6592   -10990.955    55.362332   -11046.317   -38350.849 
  106600    289.21237   -11005.973    48.276879    -11054.25   -50899.109 
  106800    311.48964   -10996.198    51.995521   -11048.194   -59722.368 
  107000    310.85114   -10993.902    51.888939   -11045.791   -30987.573 
  107200    254.10676   -11010.484    42.416863   -11052.901    44431.653 
  107400    333.89466    -10998.67    55.735487   -11054.405    30735.911 
  107600     260.3991   -11006.767    43.467215   -11050.234   -13200.397 
  107800    290.51511   -11018.149     48.49434   -11066.643   -44457.875 
  108000    352.49266   -10999.221    58.839965   -11058.061    6149.8949 
  108200    302.93338    -11006.12    50.567264   -11056.687    39428.448 
  108400    235.10188   -11015.165    39.244467   -11054.409   -23322.637 
  108600    334.50625    -10996.44    55.837577   -11052.277   -39196.485 
  108800    367.41296   -10994.503    61.330542   -11055.833    67675.292 
  109000    312.33443   -11004.945    52.136538   -11057.081   -4559.8625 
  109200    249.93598   -11011.984    41.720654   -11053.705   -4925.0472 
  109400    330.37519   -11000.462    55.147999    -11055.61    11720.238 
  109600    278.39763   -11015.302    46.471626   -11061.773   -4328.1209 
  109800    337.18441   -11001.204    56.284631   -11057.489   -52877.432 
  110000    343.02582    -10991.33     57.25971   -11048.589    2747.3859 
  110200    247.31907   -10999.763    41.283825   -11041.047    -58868.79 
  110400    309.25209   -11001.118    51.622017    -11052.74    37089.223 
  110600    361.58495   -10982.315    60.357699   -11042.673    112922.98 
  110800    349.87077   -11003.358    58.402306   -11061.761    17959.592 
  111000     254.1393   -11013.785    42.422295   -11056.207   -1726.8159 
  111200    364.87566   -11000.743    60.907001    -11061.65    14903.353 
  111400    263.65542   -11007.516    44.010776   -11051.527   -32798.082 
  111600    260.01523   -11014.749    43.403137   -11058.152   -9120.0225 
  111800     266.2642   -11009.834    44.446248    -11054.28   -21474.434 
  112000    398.28151   -10994.082    66.483286   -11060.565   -10239.986 
  112200    305.44808   -11006.229    50.987031   -11057.216   -6314.1675 
  112400    302.95234   -11004.522    50.570429   -11055.093   -4222.8269 
  112600     299.9706   -11001.922    50.072701   -11051.995   -6611.0023 
  112800    285.39286   -10997.416    47.639307   -11045.055   -42644.839 
  113000    290.14148   -11009.249    48.431971   -11057.681   -1540.3661 
  113200    348.66468   -11002.487    58.200978   -11060.688   -40061.001 
  113400    289.53197   -11015.938     48.33023   -11064.269    15965.134 
  113600    325.95523   -10999.784    54.410195   -11054.194   -11004.772 
  113800    271.47964   -11016.602    45.316837   -11061.919    -38673.71 
  114000    286.11649   -11011.373    47.760099   -11059.133    52672.755 
  114200    313.44955   -10999.556     52.32268   -11051.878   -10173.035 
  114400    341.09299   -10994.329    56.937071   -11051.266    1992.3319 
  114600    245.76912   -11009.239      41.0251   -11050.264   -24160.142 
  114800    334.37254   -10994.474    55.815258    -11050.29    22151.002 
  115000    361.81128   -10999.676    60.395478   -11060.071    40193.416 
  115200    309.11947   -11012.947     51.59988   -11064.547   -6226.3624 
  115400    282.63008   -11013.107    47.178129   -11060.285    37799.821 
  115600    359.81737   -10995.631    60.062645   -11055.693   -16496.174 
  115800    226.41196   -11013.689    37.793898   -11051.483   -15236.471 
  116000    287.20932   -11007.454     47.94252   -11055.396    72303.837 
  116200    299.95484   -10999.199    50.070071   -11049.269   -14257.252 
  116400    275.44893   -11011.802    45.979412   -11057.782     70080.27 
  116600    265.63435   -11013.488    44.341111   -11057.829    23042.515 
  116800    329.81648   -10998.759    55.054735   -11053.814    8902.9899 
  117000    275.82345   -11013.672     46.04193   -11059.714   -784.04561 
  117200    266.94012   -11012.346    44.559076   -11056.905    17087.544 
  117400    347.50951   -11003.807    58.008151   -11061.815    61982.357 
  117600    274.03081   -11006.387    45.742693    -11052.13    -26107.19 
  117800    297.36236   -10990.361     49.63732   -11039.998    10066.968 
  118000    311.63251   -11009.335    52.019369   -11061.354    66121.881 
  118200    299.69749   -11005.894    50.027112   -11055.921    27536.177 
  118400    241.01498   -11014.057    40.231514   -11054.288    26381.099 
  118600    345.93109   -11011.413    57.744672   -11069.157   -9938.6417 
  118800    282.86657   -11003.028    47.217605   -11050.245   -20869.746 
  119000    281.26681   -11007.293    46.950564   -11054.243   -2231.7322 
  119200    292.12205   -10998.196     48.76258   -11046.958     17937.38 
  119400    362.68531   -10991.687    60.541377   -11052.229   -54779.967 
  119600    297.11259   -11007.563    49.595627   -11057.158    26922.032 
  119800    274.42449   -11005.292    45.808408     -11051.1   -11133.678 
  120000    341.25408   -10987.783     56.96396   -11044.747   -897.57821 
  120200    294.97696     -11001.6    49.239135   -11050.839   -17574.937 
  120400    296.38845   -11016.681     49.47475   -11066.156    12708.914 
  120600    271.33217   -11013.822    45.292221   -11059.115     4426.323 
  120800    354.54437   -11001.455    59.182448   -11060.637   -18543.616 
  121000    300.98976   -11005.785    50.242826   -11056.027    75428.064 
  121200    267.77193   -11009.405    44.697927   -11054.103   -37144.803 
  121400    286.16802   -10995.997    47.768701   -11043.765     10966.43 
  121600    282.36043   -11003.622    47.133117   -11050.755    22584.136 
  121800    293.05244   -11008.833    48.917884   -11057.751    6676.8117 
  122000    294.31262   -10998.404    49.128241   -11047.532    39526.735 
  122200     433.8353   -10973.105    72.418115   -11045.523    41823.354 
  122400    300.45839   -10997.688    50.154126   -11047.842   -46524.842 
  122600    275.20576   -11010.683    45.938821   -11056.622   -11974.131 
  122800    304.28537   -10995.073    50.792946   -11045.866    705.14172 
  123000    330.83281   -11002.027    55.224387   -11057.252    41845.163 
  123200    277.77997   -11005.613    46.368522   -11051.982    -24688.76 
  123400    301.23905   -10997.909    50.284438   -11048.193   -46518.757 
  123600    355.76784   -10978.892    59.386676   -11038.278   -43408.339 
  123800    280.30405   -10997.635    46.789855   -11044.425    -18131.96 
  124000    261.99799   -11004.977    43.734109   -11048.711   -40754.683 
  124200    316.28281   -11002.348    52.795622   -11055.143   -8533.1179 
  124400    265.52543    -11008.71    44.322928   -11053.033    42666.468 
  124600    289.64453   -11017.745    48.349019   -11066.094   -46121.439 
  124800    324.56942   -11010.204    54.178868   -11064.383    5982.1122 
  125000    323.11075   -10995.899     53.93538   -11049.834   -17915.097 
  125200    253.34202   -11013.182    42.289208   -11055.472    33123.963 
  125400    287.98506   -11006.416    48.072011   -11054.488    918.91252 
  125600    327.32026   -10997.803    54.638053   -11052.441    12607.983 
  125800     267.0986   -11008.674    44.585531    -11053.26    57590.955 
  126000     290.7314     -11005.6    48.530444   -11054.131    61747.759 
  126200    300.21726   -10993.364    50.113874   -11043.478   -26548.172 
  126400     321.5573   -11009.492    53.676069   -11063.168   -13314.194 
  126600    302.48076   -11006.925     50.49171   -11057.416    48622.862 
  126800    309.72239   -11001.419    51.700522    -11053.12   -5290.0444 
  127000    323.65608   -10994.105    54.026408   -11048.132   -18548.454 
  127200    255.80128    -11013.16    42.699722    -11055.86     57193.32 
  127400    286.59614   -11000.009    47.840164   -11047.849   -50268.983 
  127600    297.09042   -11000.783    49.591925   -11050.375    11411.726 
  127800    287.56707   -11011.177    48.002238   -11059.179   -34324.437 
  128000    302.60305   -11008.256    50.512124   -11058.768   -23281.409 
  128200     302.7551   -11007.704    50.537505   -11058.242    16987.004 
  128400    366.79042   -10991.173    61.226623     -11052.4    3628.5391 
  128600    347.37971   -11005.054    57.986485   -11063.041   -33477.368 
  128800    278.14356   -11007.351    46.429214    -11053.78   -40012.007 
  129000    323.92684   -10998.207    54.071605   -11052.279    53710.788 
  129200    254.46399    -11015.96    42.476494   -11058.436    14841.512 
  129400    292.80341   -10999.285    48.876315   -11048.161   -61234.843 
  129600    293.68177   -11006.924    49.022936   -11055.947   -62224.738 
  129800    274.60455    -11011.75    45.838464   -11057.588    7656.1272 
  130000     338.9036   -10989.567    56.571607   -11046.138   -9283.6799 
  130200    318.27966   -10998.057    53.128949   -11051.185    27688.841 
  130400    324.00283   -11003.934    54.084289   -11058.018   -1509.9169 
  130600    328.13474   -10986.083    54.774011   -11040.857   -1916.4846 
  130800     340.5392   -11001.586    56.844629    -11058.43    15657.463 
  131000    309.35588   -11002.498    51.639342   -11054.137   -9549.1114 
  131200    263.67432   -11004.534    44.013932   -11048.548    31069.681 
  131400    220.73492   -11016.561    36.846257   -11053.408   -28572.721 
  131600    326.62394   -10998.047     54.52182   -11052.569   -36439.179 
  131800    290.06253     -11004.9    48.418792   -11053.319   -8851.2585 
  132000    240.52134   -11022.907    40.149112   -11063.056     10030.27 
  132200    301.60467   -11010.038    50.345468   -11060.383   -14606.345 
  132400    290.75726   -10999.894    48.534761   -11048.429    24927.418 
  132600    246.99786   -11007.996    41.230208   -11049.226   -34148.891 
  132800    262.97724   -11011.838    43.897571   -11055.736   -11596.673 
  133000    336.72111   -10996.043    56.207294    -11052.25    16635.425 
  133200    318.76961   -11004.458    53.210733   -11057.669    -23447.81 
  133400    288.22636   -11005.979    48.112289   -11054.091   -27740.572 
  133600    328.83304    -11001.17    54.890575   -11056.061   -18260.799 
  133800    279.18374   -11007.302    46.602847   -11053.905   -6212.4207 
  134000    288.37189   -11006.918    48.136582   -11055.055   -20351.415 
  134200    263.74329    -11013.84    44.025445   -11057.865   -2106.9693 
  134400     274.1324   -11000.346     45.75965   -11046.106    7915.8189 
  134600    325.18264   -11002.397    54.281231   -11056.678    30516.625 
  134800    267.29644   -11009.011    44.618555   -11053.629   -14729.569 
  135000    288.68245   -11005.686    48.188422   -11053.874    13267.753 
  135200     249.8699   -11012.253    41.709624   -11053.963   -38270.441 
  135400    267.57012   -11020.016    44.664239   -11064.681   -29317.872 
  135600    330.98661   -11006.086    55.250061   -11061.336    17031.152 
  135800    346.37233   -11000.022    57.818327    -11057.84        37292 
  136000    270.04874   -11015.818    45.077984   -11060.896    33772.293 
  136200    230.47884   -11026.863    38.472764   -11065.336   -23894.294 
  136400    296.21211   -11008.007    49.445313   -11057.452   -9544.1822 
  136600      341.554    -10994.66    57.014025   -11051.674     36613.46 
  136800    256.32718   -11014.008    42.787508   -11056.795    12351.658 
  137000    311.58334   -11006.181    52.011162   -11058.192    54849.472 
  137200    318.81077   -10996.002    53.217604    -11049.22   -29434.422 
  137400     370.4848   -10989.255    61.843309   -11051.098     40342.19 
  137600    329.60149   -11005.278    55.018849   -11060.297   -11081.456 
  137800    275.08451    -10999.61    45.918581   -11045.528   -11229.552 
  138000    352.09025   -10988.784    58.772793   -11047.557   -13670.096 
  138200    319.48766   -11002.779    53.330593   -11056.109   -48996.301 
  138400    329.95324   -11007.224    55.077563   -11062.302    53699.389 
  138600    292.68549   -11014.444    48.856632   -11063.301   -15376.943 
  138800    252.84531   -11019.795    42.206295   -11062.001    9585.3699 
  139000     291.4428   -11002.484    48.649194   -11051.133   -12604.018 
  139200      352.052   -10999.101    58.766408   -11057.867   -12452.739 
  139400    235.25668   -11015.336    39.270307   -11054.606   -52491.035 
  139600    291.33498   -10996.715    48.631198   -11045.346   -41002.021 
  139800    290.95157     -10995.5    48.567196   -11044.068   -9632.6081 
  140000    316.61235   -11012.246    52.850632   -11065.097    49400.965 
  140200    301.29778   -11004.712    50.294241   -11055.007   -42675.594 
  140400    266.40718   -11001.435    44.470115   -11045.905   -41615.675 
  140600    256.90347   -11014.358    42.883704   -11057.242    17434.317 
  140800    337.73773     -10998.3    56.376993   -11054.677    -7231.641 
  141000    308.74615   -11005.145    51.537563   -11056.682    32925.102 
  141200    257.62179   -11014.583    43.003612   -11057.586   -63566.984 
  141400    318.05774   -11005.062    53.091904   -11058.154    7031.6787 
  141600    338.16235   -10993.026    56.447872   -11049.474    25822.635 
  141800    261.56072    -11009.05    43.661118   -11052.711   -46270.864 
  142000    242.97069   -11005.337    40.557971   -11045.895    -2821.052 
  142200    341.65287   -10997.372    57.030529   -11054.402   -1787.0322 
  142400    285.22723   -11014.157    47.611659   -11061.768   -2671.0903 
  142600    297.99621   -11010.039    49.743126   -11059.783    28192.373 
  142800    329.21228   -10998.079    54.953879   -11053.032   -31795.212 
  143000    276.60988   -11011.905    46.173204   -11058.078    60599.991 
  143200    265.50451   -11011.563    44.319437   -11055.883    22044.062 
  143400    339.69066   -11001.917    56.702987    -11058.62   -37221.659 
  143600    260.83242   -11003.963    43.539546   -11047.502   -68417.884 
  143800    307.20127   -11007.516    51.279683   -11058.796   -17098.536 
  144000    312.56073   -10990.995    52.174313   -11043.169   -39149.047 
  144200    284.00556   -11005.501    47.407731   -11052.909   -32555.539 
  144400    247.50055   -11016.173    41.314119   -11057.487    60724.631 
  144600    303.33265   -11000.922    50.633912   -11051.556   -14292.439 
  144800    280.68719   -11004.328    46.853811   -11051.181    11690.383 
  145000    291.96315   -11013.538    48.736054   -11062.274    -9399.282 
  145200    326.25242   -10999.966    54.459804   -11054.425   -40538.713 
  145400    294.71049   -10982.467    49.194655   -11031.661    490.55091 
  145600    318.68942   -11002.863    53.197347    -11056.06   -15242.732 
  145800    307.35149   -11000.763    51.304759   -11052.067   -29291.142 
  146000    292.73305    -11002.25    48.864571   -11051.114    59177.191 
  146200    271.92033   -11015.825    45.390399   -11061.215   -65078.177 
  146400    330.17922   -10998.296    55.115286   -11053.411   -3626.9563 
  146600    323.07711   -11005.897    53.929763   -11059.827    2675.2367 
  146800    241.88856   -11024.452    40.377336   -11064.829   -20982.434 
  147000    246.62866   -11012.135    41.168579   -11053.304   -597.96238 
  147200    324.19597   -11000.966    54.116531   -11055.082   -71052.003 
  147400    339.60665   -10996.057    56.688963   -11052.745    4244.8694 
  147600    250.75904   -11014.735    41.858043   -11056.593    308.30146 
  147800    311.84674   -11003.076    52.055131   -11055.131   -75663.727 
  148000    288.52342   -10994.903    48.161877   -11043.064    44407.192 
  148200    281.08915   -11013.783    46.920909   -11060.704   -55456.859 
  148400    256.07279   -11000.956    42.745044   -11043.701   -28776.533 
  148600     322.4261   -11002.142    53.821094   -11055.963    33735.358 
  148800    275.67031   -11008.002    46.016366   -11054.018   -12307.596 
  149000    287.55494   -11016.523    48.000212   -11064.523   -7384.9631 
  149200    282.03185   -10996.605    47.078269   -11043.683   -49458.746 
  149400     272.9371   -11004.947    45.560124   -11050.507    52126.369 
  149600    295.06112   -11005.701    49.253184   -11054.954   -50605.497 
  149800     416.5022   -10983.261    69.524781   -11052.785    30990.848 
  150000     322.8687   -11001.922    53.894975   -11055.817   -3457.0216 
  150200    253.33364   -11011.042     42.28781    -11053.33    21931.848 
  150400     307.0343   -10991.904    51.251811   -11043.156    69986.267 
  150600    325.29527   -11002.153    54.300031   -11056.453   -17804.348 
  150800    270.17019   -11010.947    45.098257   -11056.046    42491.338 
  151000    251.46825   -11002.956    41.976429   -11044.932    31662.754 
  151200    282.41221    -11004.77    47.141761   -11051.912    19546.789 
  151400    277.21831   -11015.525    46.274767   -11061.799   -18882.265 
  151600    314.03097   -11012.713    52.419733   -11065.133    9938.0822 
  151800    281.98819   -11000.508    47.070982   -11047.579    27660.896 
  152000    338.32584    -10995.36    56.475164   -11051.835   -25042.279 
  152200    254.63579   -11003.371    42.505172   -11045.876    22026.085 
  152400    258.02381   -11013.063    43.070718   -11056.133    47261.159 
  152600    306.33255   -10992.107    51.134672   -11043.242    8474.0671 
  152800    267.07888   -11002.109    44.582239   -11046.692    12228.076 
  153000    283.43375   -11006.387    47.312282   -11053.699    8964.2308 
  153200    391.99302   -10992.448    65.433577   -11057.882    8082.4239 
  153400    322.93082   -11004.799    53.905345   -11058.705   -38127.499 
  153600     298.6603   -11010.648    49.853978   -11060.502   -20592.489 
  153800    305.26218   -11000.885       50.956   -11051.841   -6857.8097 
  154000      357.828   -10986.885    59.730569   -11046.615   -23765.862 
  154200    232.51043   -11008.349    38.811887   -11047.161    60259.417 
  154400    301.28308   -11001.671    50.291788   -11051.962    8652.2989 
  154600    293.87907   -11001.552     49.05587   -11050.608    68401.194 
  154800    249.61288   -11013.567     41.66672   -11055.233   -38999.016 
  155000    297.87013   -10992.827     49.72208   -11042.549    7400.4485 
  155200    336.00209   -11005.772    56.087271    -11061.86    15111.963 
  155400    336.27811   -11011.984    56.133345   -11068.117    81040.183 
  155600    303.45064   -11011.496    50.653607    -11062.15    -22983.36 
  155800    334.38103   -10994.781    55.816674   -11050.597   -51138.156 
  156000    292.97382   -11000.603    48.904762   -11049.508   -24596.535 
  156200    272.39084   -11013.736    45.468939   -11059.205    -17737.26 
  156400    318.66842   -10994.132    53.193842   -11047.325    12777.339 
  156600    345.15568   -10997.973    57.615237   -11055.588    41887.974 
  156800    282.90649   -11007.053    47.224268   -11054.277   -36312.519 
  157000    331.63528   -11000.224     55.35834   -11055.582    37789.112 
  157200    339.41834   -10997.408     56.65753   -11054.066   -30506.961 
  157400    294.07641   -11011.119    49.088811   -11060.208    4921.6057 
  157600    315.73024   -10999.433    52.703385   -11052.136    -11241.21 
  157800    302.38698   -10992.709    50.476056   -11043.185    43670.807 
  158000    293.59997   -11009.477    49.009281   -11058.486    45487.177 
  158200    239.35248   -11012.427       39.954   -11052.381   -8620.9794 
  158400    262.40911   -11001.396    43.802737   -11045.198    -15757.08 
  158600    320.76522   -10998.204    53.543851   -11051.748   -22791.535 
  158800    310.66831   -11005.162     51.85842   -11057.021   -51449.775 
  159000     305.7705   -11011.294    51.040852   -11062.335    21300.076 
  159200    387.89403    -10993.12    64.749351   -11057.869   -11488.687 
  159400    263.95172   -11009.168    44.060237   -11053.229   -15854.965 
  159600    269.91046    -11004.45    45.054901   -11049.504   -1157.0536 
  159800    280.97389   -10995.699    46.901668   -11042.601   -27398.698 
  160000    331.89682   -10999.246    55.401997   -11054.648   -15688.611 
  160200    259.84843   -11009.902    43.375294   -11053.277    18647.807 
  160400    308.40746   -10994.094    51.481027   -11045.575   -33601.523 
  160600    306.97544   -11003.011    51.241987   -11054.253   -21437.859 
  160800    320.00634   -10999.435    53.417175   -11052.852   -13322.387 
  161000    267.57127   -11010.298    44.664432   -11054.963     34748.88 
  161200    279.29857   -11015.579    46.622016   -11062.201    -24973.03 
  161400    263.65299   -11001.447    44.010372   -11045.458   -16883.929 
  161600    309.62853   -10997.332    51.684856   -11049.017   -2832.0697 
  161800    272.63905    -11016.91    45.510373    -11062.42   -32393.353 
  162000    267.79951   -11007.077    44.702531   -11051.779    -13413.84 
  162200    292.27775   -10996.815     48.78857   -11045.603   -44194.773 
  162400    296.94456   -11007.406    49.567578   -11056.974   -18499.797 
  162600    298.71519   -11010.794    49.863142   -11060.657   -15642.576 
  162800    346.42827   -10995.851    57.827665   -11053.678    26686.192 
  163000    276.60362   -11004.988     46.17216    -11051.16    23573.274 
  163200    304.72197   -11005.722    50.865826   -11056.588    11856.618 
  163400    365.16283   -10990.663    60.954938   -11051.618    -15190.33 
  163600    298.60765    -11007.45    49.845191   -11057.295    24734.089 
  163800    290.00895   -11004.155    48.409849   -11052.565    33179.071 
  164000    311.90847   -10999.307    52.065434   -11051.372       -48016 
  164200    338.80163   -11000.408    56.554585   -11056.962    51140.478 
  164400    305.87261   -11003.245    51.057896   -11054.303   -25165.755 
  164600    279.51486   -11013.422     46.65812    -11060.08   -18756.657 
  164800    269.23666   -11022.602    44.942428   -11067.544   -72420.414 
  165000    315.23202   -11004.215     52.62022   -11056.836    2320.3187 
  165200    331.63421   -11002.229     55.35816   -11057.587    15156.613 
  165400    260.80837   -11018.508    43.535531   -11062.044   -27238.673 
  165600    311.47157   -11001.617    51.992505    -11053.61   -11658.232 
  165800    265.90732     -11006.3    44.386675   -11050.686   -52087.936 
  166000    271.88258   -11011.955    45.384098   -11057.339   -53631.682 
  166200    325.73944   -10994.513    54.374175   -11048.887     -10355.8 
  166400    289.78292   -11008.929    48.372119   -11057.301    27365.531 
  166600    285.84834   -11008.411    47.715338   -11056.126    8866.8433 
  166800    339.70923   -10998.009    56.706086   -11054.716    -32166.59 
  167000    272.99503   -11008.657    45.569794   -11054.227    13036.689 
  167200    309.47025   -11003.973    51.658434   -11055.632    35620.901 
  167400    318.47269   -10997.171     53.16117   -11050.332   -17616.476 
  167600    261.42034   -11006.029    43.637684   -11049.666   -41983.843 
  167800    294.84923   -11003.739    49.217815   -11052.957    -7300.502 
  168000    306.23149   -10990.799    51.117803   -11041.917     -22844.1 
  168200    299.58148   -11000.207    50.007747   -11050.215   -16699.991 
  168400    252.85812   -11006.167    42.208433   -11048.376    13619.082 
  168600    320.45028   -11004.208    53.491279     -11057.7   -30009.651 
  168800    275.05808   -10993.423    45.914169   -11039.337    14737.774 
  169000    274.94841   -11011.032    45.895863   -11056.927    46704.627 
  169200    303.64107   -11007.561    50.685396   -11058.247    39116.943 
  169400    320.10253    -11002.74    53.433232   -11056.173     43901.11 
  169600    321.33915   -11013.628    53.639655   -11067.268    -33064.64 
  169800    268.10075   -11020.309    44.752814   -11065.062    5784.0918 
  170000    285.87999   -11005.727    47.720622   -11053.448   -40826.355 
  170200    341.56835   -10991.978    57.016421   -11048.995    28979.718 
  170400    274.11621   -11012.968    45.756947   -11058.725   -27955.397 
  170600    253.30211   -11010.532    42.282546   -11052.814   -19909.896 
  170800    312.04099   -10997.441    52.087556   -11049.528    39753.963 
  171000    298.89247   -11014.373    49.892734   -11064.266    25196.552 
  171200    271.38216   -11013.257    45.300565   -11058.558    36805.644 
  171400    319.30065   -11002.485    53.299376   -11055.784    33976.451 
  171600    281.80248   -11013.594    47.039981   -11060.634    57567.865 
  171800    278.93052   -11009.412    46.560579   -11055.973   -36016.723 
  172000     330.5342   -10998.119    55.174541   -11053.293    12942.705 
  172200     308.2261   -11003.741    51.450754   -11055.192     29390.48 
  172400    286.03789   -11006.007    47.746978   -11053.754   -1591.5465 
  172600     319.2903   -10994.415     53.29765   -11047.713     22346.68 
  172800    328.24538   -10996.365     54.79248   -11051.158    31903.668 
  173000    294.27752   -11008.424    49.122382   -11057.547    209.61498 
  173200     328.8428   -10994.906    54.892204   -11049.798    4319.8104 
  173400    316.27697   -11009.175    52.794648   -11061.969    55936.215 
  173600    299.43346   -11012.126    49.983039   -11062.109    12092.682 
  173800    365.01819   -11000.978    60.930793   -11061.909   -1411.8734 
  174000     237.1691   -11019.114    39.589538   -11058.703   -422.48499 
  174200    283.78281   -11010.614    47.370548   -11057.985   -13294.608 
  174400    338.96296   -10996.005    56.581514   -11052.587   -38799.457 
  174600       285.69    -11002.88    47.688907   -11050.569   -35530.078 
  174800    238.59009   -11013.655    39.826737   -11053.482    17361.429 
  175000     346.8657   -10999.104    57.900683   -11057.005    9692.2832 
  175200    324.00174   -11004.116    54.084108   -11058.201    41220.568 
  175400    255.97966   -11020.401    42.729498   -11063.131   -40337.028 
  175600    294.97194   -11009.485    49.238298   -11058.723    2706.6016 
  175800    347.04641   -10997.666    57.930849   -11055.597      54293.9 
  176000    235.03942   -11016.301     39.23404   -11055.535   -7006.0378 
  176200    289.72641   -11008.576    48.362686   -11056.938   -26273.093 
  176400    264.39782   -11002.282    44.134703   -11046.417   -17177.668 
  176600     340.3689   -10987.712    56.816202   -11044.528   -17101.815 
  176800    283.45156   -11004.776    47.315255   -11052.092    22557.556 
  177000    289.64087   -11003.659    48.348407   -11052.007   -9404.2579 
  177200     333.6249   -10985.861    55.690458   -11041.552   -49832.582 
  177400    263.51795    -11002.34     43.98783   -11046.328   -18662.817 
  177600    273.53781   -11005.157    45.660398   -11050.817    1418.4793 
  177800    327.31407   -10996.299     54.63702   -11050.936   -22113.163 
  178000    320.28468   -10994.644    53.463637   -11048.108    88454.441 
  178200    247.30259   -11009.958    41.281075   -11051.239    -4505.744 
  178400    293.26276   -11000.553    48.952992   -11049.506     1195.979 
  178600    241.35395   -11010.654    40.288096   -11050.942   -7738.9807 
  178800    296.01742   -11012.495    49.412815   -11061.908    -17577.86 
  179000    293.85021   -11002.222    49.051052   -11051.273    9224.7531 
  179200    255.67999   -11002.073    42.679474   -11044.752   -26571.019 
  179400    286.98754   -11009.669      47.9055   -11057.574   -53790.723 
  179600     327.9399   -10995.787    54.741487   -11050.529   -28926.264 
  179800     294.2672   -10998.542    49.120659   -11047.663    16895.148 
  180000    284.84385   -11017.495    47.547663   -11065.043    103253.49 
  180200    298.94301   -11009.711     49.90117   -11059.612   -9159.9444 
  180400    297.33967   -11004.907    49.633533   -11054.541    -15761.42 
  180600    344.28321   -11000.666      57.4696   -11058.135    -25478.07 
  180800    273.64704   -11000.152    45.678632    -11045.83   -49258.252 
  181000    324.76773   -11009.709    54.211971   -11063.921   -9460.1349 
  181200    287.48349   -11012.851    47.988285    -11060.84    4097.0675 
[...]
  950000    313.27555   -11005.294    52.293635   -11057.587   -18476.681 
  950200    344.73177   -10999.117    57.544475   -11056.661   -7697.7712 
  950400    265.60858   -11016.288    44.336809   -11060.624     10972.25 
  950600    288.58608   -11009.374    48.172337   -11057.546   -28083.089 
  950800    332.93807   -10996.788    55.575809   -11052.364   -8637.4709 
  951000    272.20751   -11002.408    45.438337   -11047.846    5038.5632 
  951200    281.33218   -11009.087    46.961476   -11056.049    17780.046 
  951400    314.80974   -11008.601    52.549731   -11061.151   -41604.618 
  951600    355.43393   -10987.886    59.330938   -11047.217   -12855.293 
  951800     255.1915    -11005.78    42.597934   -11048.378   -5930.5186 
  952000    311.54646   -11006.465    52.005006    -11058.47    5969.0367 
  952200    242.08373   -11015.722    40.409914   -11056.132    20847.675 
  952400    325.50561   -11007.675    54.335142    -11062.01    6833.4381 
  952600    297.09494   -11000.365    49.592681   -11049.957   -18977.342 
  952800    315.00088   -10999.167    52.581636   -11051.749   -13547.741 
  953000      263.999   -11014.214    44.068128   -11058.282   -35266.049 
  953200    299.71539   -10997.008      50.0301   -11047.038   -395.38895 
  953400    291.26892   -11002.277    48.620169   -11050.898   -2644.1192 
  953600    256.72901   -11018.621    42.854583   -11061.476    13215.449 
  953800    316.22826   -11011.576    52.786517   -11064.362    14758.266 
  954000    394.78599   -11000.395    65.899794   -11066.294    56494.691 
  954200    234.88545   -11017.626    39.208338   -11056.834   -4678.5602 
  954400    267.96578   -11009.201    44.730285   -11053.931   -34837.458 
  954600    299.41715   -11007.495    49.980317   -11057.476    42201.329 
  954800    336.82334   -10993.633    56.224358   -11049.857   -29577.397 
  955000    317.66959   -11007.712    53.027112   -11060.739    28231.667 
  955200    285.91923   -11013.585    47.727172   -11061.312    11773.901 
  955400    352.14915   -10997.556    58.782625   -11056.339    6354.8828 
  955600    300.78999   -10998.745    50.209478   -11048.955    9452.4404 
  955800    274.11531   -11000.372    45.756797   -11046.129   -24651.789 
  956000    294.75479   -11014.467    49.202049   -11063.669   -32732.424 
  956200    297.59157   -11008.646    49.675581   -11058.322   -17086.449 
  956400    278.84061   -11002.675     46.54557   -11049.221    45599.329 
  956600     301.1097   -10997.462    50.262847   -11047.725     12102.66 
  956800    312.33165   -11006.018    52.136074   -11058.154    1504.0448 
  957000     254.4524   -11011.174    42.474558   -11053.648    44152.667 
  957200    336.92516   -10994.145    56.241354   -11050.386   -54032.334 
  957400    300.44086   -11009.184    50.151199   -11059.335   -8315.5001 
  957600    315.38081   -11001.773    52.645057   -11054.418    21725.578 
  957800    287.70225   -10992.064    48.024802   -11040.089    35439.598 
  958000    284.61871    -11010.75    47.510081    -11058.26    15125.766 
  958200    310.31485   -11009.611    51.799419    -11061.41   -4217.6012 
  958400    312.84714   -10993.976    52.222122   -11046.198     5564.863 
  958600    321.83167   -10988.764    53.721868   -11042.486   -32239.724 
  958800    316.54972   -10999.608    52.840177   -11052.449    19904.286 
  959000    292.34079   -11010.385    48.799092   -11059.184   -43248.713 
  959200    357.89753   -10990.064    59.742175   -11049.806   -51.022201 
  959400    289.97395   -10998.172    48.404006   -11046.576    56266.649 
  959600    314.34531   -11012.313    52.472205   -11064.785    4474.7101 
  959800    323.99537   -10994.141    54.083045   -11048.224   -32616.542 
  960000    298.75358   -10998.082     49.86955   -11047.951    72641.997 
  960200    276.83116   -11014.534    46.210142   -11060.744    7009.9947 
  960400    325.60745   -11009.433    54.352142   -11063.785   -19944.084 
  960600    327.33251   -11006.468    54.640098   -11061.108    19751.089 
  960800    387.65666   -10987.076    64.709729   -11051.785    -16163.31 
  961000    321.98673    -10999.77    53.747752   -11053.518   -18984.279 
  961200     298.4637   -11008.105    49.821161   -11057.926    -57408.38 
  961400    283.81949   -11020.974    47.376672    -11068.35   -9305.3143 
  961600    297.26972   -11007.323    49.621855   -11056.945   -82066.929 
  961800    279.16603   -10997.663     46.59989   -11044.263    12803.524 
  962000    252.85402   -11007.031    42.207749   -11049.238   -10512.544 
  962200    293.74464   -11010.431     49.03343   -11059.465   -42661.277 
  962400    330.16768   -10994.596     55.11336    -11049.71    15797.125 
  962600     302.7509   -11003.868    50.536804   -11054.405   -47997.128 
  962800    291.25555   -11015.405    48.617938   -11064.023    20953.852 
  963000    322.17774    -11002.65    53.779637   -11056.429   -32803.764 
  963200    287.84425   -10998.438    48.048507   -11046.487    -14305.22 
  963400    265.75946   -11012.516    44.361994   -11056.878    11124.691 
  963600    229.31271   -11027.192    38.278108    -11065.47    20373.133 
  963800    269.37291   -11008.922    44.965171   -11053.888    28984.935 
  964000    285.14377     -11002.1    47.597728   -11049.698   -1227.2523 
  964200    367.58335   -10988.007    61.358985   -11049.366    37641.189 
  964400    264.18604   -10999.781    44.099351    -11043.88   -26779.269 
  964600    292.43608   -11006.124    48.814999   -11054.939   -35214.295 
  964800     377.2098   -10997.704    62.965883    -11060.67   -18336.393 
  965000    326.79837   -11005.883    54.550936   -11060.434   -4649.4949 
  965200    259.22011   -11012.374    43.270411   -11055.644    83549.367 
  965400    300.62936   -11000.699    50.182664   -11050.881   -19391.855 
  965600    296.35315   -11000.152    49.468856   -11049.621   -36334.842 
  965800    263.66742   -11014.553    44.012779   -11058.566    42465.549 
  966000    287.15563   -11003.832    47.933558   -11051.766   -38184.311 
  966200    301.72551   -10998.627    50.365639   -11048.993    21546.664 
  966400     287.0808    -11010.76    47.921067   -11058.681   -58883.602 
  966600    288.29678   -11017.017    48.124044   -11065.141   -35294.125 
  966800    282.07676    -11001.12    47.085766   -11048.206   -41007.296 
  967000    267.25762   -11013.166    44.612075   -11057.778   -19562.743 
  967200    307.69008   -11004.447    51.361278   -11055.808    26177.061 
  967400      343.866   -10997.277    57.399958   -11054.677   -3986.7766 
  967600    286.37727   -11008.186     47.80363    -11055.99   -20648.669 
  967800    278.06938   -11017.374    46.416832    -11063.79   -81499.486 
  968000    319.21287    -10997.75    53.284724   -11051.035   -25085.733 
  968200    274.86185   -11004.392    45.881414   -11050.274    59622.342 
  968400    235.69406   -11013.599    39.343317   -11052.943   -13445.745 
  968600    335.23394   -11000.813    55.959048   -11056.772    -846.4549 
  968800    337.74605   -11000.303    56.378381   -11056.681    26003.402 
  969000    245.11746   -11015.729    40.916322   -11056.646   -9290.8844 
  969200    326.21689   -11004.917    54.453873   -11059.371   -3227.2096 
  969400     306.4973   -11002.871    51.162174   -11054.033    12042.407 
  969600    300.11593   -10989.513    50.096961    -11039.61   -8732.2998 
  969800    318.57653   -11001.354    53.178502   -11054.532     25157.46 
  970000    294.34342    -11011.13    49.133383   -11060.263    3543.8719 
  970200    270.39728   -11016.847    45.136165   -11061.983    35590.858 
  970400    305.41485   -10999.949    50.981485    -11050.93    4683.9605 
  970600    327.66054   -11000.762    54.694854   -11055.457   -63374.989 
  970800    277.49711   -11016.558    46.321305   -11062.879    25812.983 
  971000    284.69555   -10998.203    47.522908   -11045.725    691.74587 
  971200    271.03464   -11002.677    45.242555   -11047.919   -2825.0703 
  971400    295.17534   -11011.107    49.272251   -11060.379    48631.552 
  971600    341.24989   -10987.088    56.963262   -11044.051    131068.93 
  971800    319.71245   -11001.971    53.368117   -11055.339    33250.902 
  972000    302.89473   -11007.424    50.560813   -11057.985    27252.811 
  972200    344.71825   -10994.223    57.542218   -11051.765   -28954.801 
  972400     299.0769   -11005.462     49.92352   -11055.385    3076.9055 
  972600    317.77162   -11006.462    53.044144   -11059.506    62629.868 
  972800    331.35152   -11000.947    55.310973   -11056.257     1439.272 
  973000    341.29587   -11001.887    56.970936   -11058.857   -20808.325 
  973200    270.35873   -11014.442    45.129729   -11059.572   -12673.991 
  973400    260.34436    -11019.02    43.458076   -11062.478   -17823.736 
  973600    304.83089   -10997.401    50.884007   -11048.285   -39109.188 
  973800    265.36548    -11005.07    44.296229   -11049.366    63225.306 
  974000    308.47235    -11011.35    51.491859   -11062.842   -33576.758 
  974200    307.95193    -11004.86    51.404987   -11056.265   -31316.692 
  974400    281.80295   -11004.776    47.040059   -11051.816   -19906.192 
  974600    334.51265   -10997.239    55.838646   -11053.077    13876.676 
  974800    292.30331   -10997.764    48.792836   -11046.557   -34268.003 
  975000    214.81752   -11010.614    35.858493   -11046.473    5123.4725 
  975200    303.05795   -11006.534    50.588059   -11057.122    1471.5543 
  975400     327.9988   -11004.177    54.751318   -11058.928    29004.152 
  975600    229.56036   -11017.435    38.319447   -11055.755    37534.496 
  975800    255.68135   -11011.408    42.679703   -11054.087     45344.83 
  976000    312.00252   -11002.781    52.081134   -11054.862   -18638.106 
  976200    306.29403    -11005.89    51.128242   -11057.018    71663.362 
  976400    242.30058   -11018.323    40.446113   -11058.769     84161.58 
  976600    324.30798   -10999.969    54.135227   -11054.104   -2114.3325 
  976800    358.00809   -10999.431    59.760631   -11059.191    32575.205 
  977000    296.08072   -11014.177    49.423382   -11063.601    19893.436 
  977200    309.17234   -11007.312    51.608704   -11058.921   -17079.461 
  977400    289.29061   -11005.621     48.28994   -11053.911   -20399.448 
  977600    270.87057   -11011.562    45.215168   -11056.777    472.92604 
  977800    275.25679   -11009.195     45.94734   -11055.143   -20524.866 
  978000    322.14657    -11000.25    53.774434   -11054.024    36964.063 
  978200    207.94507   -11014.792    34.711306   -11049.503    3804.6133 
  978400    244.72051   -11025.146    40.850061   -11065.996   -18629.276 
  978600    300.27959   -11004.929     50.12428   -11055.054     22858.33 
  978800     326.6201   -11002.712    54.521178   -11057.233   -8133.9365 
  979000    232.01979   -11014.081    38.729987   -11052.811   -50422.085 
  979200    323.43611   -10999.666    53.989691   -11053.656   -4388.5385 
  979400    325.07299   -11005.579    54.262927   -11059.842   -9211.2905 
  979600    316.02678   -11011.349    52.752885   -11064.102    52418.211 
  979800    285.54142    -11008.63    47.664105   -11056.294    47700.937 
  980000    309.92234   -10999.659      51.7339   -11051.393    37954.542 
  980200    387.87034   -10992.778    64.745398   -11057.524    22261.478 
  980400    282.65725   -11012.063    47.182664   -11059.245   -19620.187 
  980600    331.39851   -11002.259    55.318816   -11057.577    6526.9004 
  980800    335.48084   -10991.827    56.000262   -11047.827   -35427.391 
  981000    272.12104   -11011.112    45.423904   -11056.536    6288.6047 
  981200    336.58042   -10997.993    56.183809   -11054.177   -38444.126 
  981400    351.72043    -10978.25     58.71106   -11036.961    27729.166 
  981600    303.79341   -11002.062    50.710825   -11052.773    24829.714 
  981800    255.49059   -11014.595     42.64786   -11057.243     30201.12 
  982000     355.3343   -10997.592    59.314307   -11056.906   -436.55713 
  982200    294.73614   -10999.571    49.198938   -11048.769    -40585.45 
  982400    292.94476   -11003.385    48.899911   -11052.285    16414.153 
  982600    305.41104   -11007.837    50.980848   -11058.818    25433.152 
  982800    287.94776   -11010.541    48.065785   -11058.607     14416.69 
  983000    315.33666   -10991.376    52.637686   -11044.014   -35024.334 
  983200    315.62075    -11001.52    52.685109   -11054.205    8473.3528 
  983400    297.03904   -11003.852    49.583349   -11053.435   -10617.509 
  983600     310.6278   -10993.963    51.851659   -11045.815   -1267.7786 
  983800    297.04746   -11008.663    49.584755   -11058.247     92785.32 
  984000    295.94331   -11012.604    49.400444   -11062.004    8884.3593 
  984200    305.25482     -10993.8    50.954772   -11044.755    27338.728 
  984400    314.17296   -10999.829    52.443436   -11052.273   -15946.915 
  984600    260.75239   -11007.192    43.526187   -11050.718   -25108.704 
  984800    381.96791   -11000.187    63.760133   -11063.947    45314.006 
  985000    259.00243   -11016.498    43.234075   -11059.732     -13016.3 
  985200    281.61926   -11004.215    47.009397   -11051.224   -46097.932 
  985400    315.17267    -10999.63    52.610313    -11052.24   -61346.683 
  985600    353.39773    -10991.26    58.991044   -11050.251    16927.541 
  985800    272.38755   -11005.966    45.468391   -11051.434    4107.4777 
  986000    323.52893    -11010.21    54.005185   -11064.215    21244.284 
  986200    301.17894   -11012.695    50.274404    -11062.97   -35666.937 
  986400    330.99236   -10994.303     55.25102   -11049.554   -16500.029 
  986600    292.50009   -11007.576    48.825684   -11056.401   -40273.159 
  986800    277.79488   -11007.818    46.371011   -11054.189    1959.9612 
  987000    307.94038   -11003.702     51.40306   -11055.105   -39776.016 
  987200    280.37408    -11007.75    46.801546   -11054.552     31304.67 
  987400    306.51532   -11014.336    51.165181   -11065.501   -12502.048 
  987600    305.08298   -10997.439    50.926087   -11048.365    289.44953 
  987800    288.59137   -11000.631    48.173219   -11048.805   -12170.378 
  988000    243.28285   -11020.751    40.610077   -11061.362   -12352.815 
  988200    347.46045   -11006.338    57.999962   -11064.338   -18514.905 
  988400    313.97631   -11002.705     52.41061   -11055.115   -28589.819 
  988600    232.27053   -11016.315    38.771843   -11055.087   -40007.213 
  988800    299.38577   -11004.853    49.975079   -11054.828      68240.6 
  989000    338.85001   -11006.501    56.562661   -11063.064   -5455.6071 
  989200    278.50322   -11017.402    46.489251   -11063.892   -31984.822 
  989400    317.18447   -11001.724    52.946132    -11054.67     -15412.7 
  989600    274.63576   -11003.574    45.843673   -11049.417   -2966.1875 
  989800    270.24316   -11017.841    45.110438   -11062.952    -11647.53 
  990000    284.48171   -11006.201    47.487212   -11053.688    25655.614 
  990200    331.11395   -11001.237    55.271316   -11056.508    -3269.538 
  990400    243.35149   -11020.521    40.621535   -11061.142   -5.2244145 
  990600    301.38017   -11011.418    50.307995   -11061.726   -45923.317 
  990800    328.45927   -11003.941    54.828183   -11058.769   -2116.4621 
  991000    256.69211   -11009.025    42.848424   -11051.873   -62004.491 
  991200    311.48858   -11005.544    51.995345    -11057.54   -2700.2676 
  991400    322.53941   -11002.598    53.840008   -11056.438    77128.331 
  991600    282.04874   -11013.353    47.081089   -11060.435     18132.76 
  991800    300.39064   -11002.637    50.142816    -11052.78   -6759.8993 
  992000    316.45726   -11003.878    52.824744   -11056.702    10442.467 
  992200    311.23046   -11009.951    51.952258   -11061.903   -47086.567 
  992400    302.35016   -11004.113     50.46991   -11054.583    31486.012 
  992600     306.6847   -10992.535    51.193454   -11043.729    65344.115 
  992800    262.76799   -10997.314    43.862642   -11041.177   -4893.2905 
  993000    269.92158   -11003.368    45.056757   -11048.425   -41679.276 
  993200    369.28379   -10989.909     61.64283   -11051.552    -18570.77 
  993400    320.80907    -11014.23     53.55117   -11067.782   -24532.347 
  993600    324.52713   -11004.086     54.17181   -11058.258   -37168.498 
  993800    331.15766   -10990.118    55.278613   -11045.396    26581.043 
  994000    250.38749    -11000.88    41.796022   -11042.676     28946.47 
  994200    276.73356   -11010.101     46.19385   -11056.295   -59719.489 
  994400    390.20574   -10993.629    65.135235   -11058.764     83504.05 
  994600    304.33339   -11003.495    50.800961   -11054.296   -16045.334 
  994800    278.57605   -11011.018    46.501408   -11057.519    39085.217 
  995000    334.88092     -10990.4    55.900119     -11046.3   -17510.707 
  995200    287.43161   -11005.031    47.979626   -11053.011    41740.397 
  995400    321.80818   -11010.326    53.717948   -11064.044   -46560.033 
  995600    361.88604   -10993.113    60.407959   -11053.521    24834.939 
  995800    315.59596   -11009.745     52.68097   -11062.426    44137.354 
  996000    299.93568   -11009.019    50.066873   -11059.086   -4563.8246 
  996200    350.05701   -10993.308    58.433393   -11051.742    19762.641 
  996400    316.13896   -11010.483    52.771611   -11063.255   -8672.9464 
  996600    276.02707   -11009.921    46.075919   -11055.997    1948.2636 
  996800    327.43856   -11000.589      54.6578   -11055.247   -18386.016 
  997000    237.43877   -11014.052    39.634554   -11053.687   -39991.753 
  997200    342.79841   -10995.554    57.221749   -11052.776    4545.8403 
  997400    296.89445   -11006.083    49.559214   -11055.642   -36900.422 
  997600    325.47877   -11008.751    54.330662   -11063.082   -21859.946 
  997800    309.12456   -11008.191    51.600729   -11059.791     20590.05 
  998000    296.12236   -11006.234    49.430333   -11055.665   -7983.9818 
  998200    272.89458   -11014.226    45.553027   -11059.779   -4960.0659 
  998400    299.70877   -10996.878    50.028995   -11046.907   -6450.1079 
  998600    325.15413   -11006.031    54.276471   -11060.308   -11145.071 
  998800    308.89118   -11006.461    51.561772   -11058.023   -45810.251 
  999000    289.83035   -11000.236    48.380037   -11048.616    31193.118 
  999200    337.37727   -10992.564    56.316824   -11048.881    67059.613 
  999400    310.48033    -11006.89    51.827042   -11058.717   -16165.056 
  999600    266.54422   -11010.508     44.49299   -11055.001   -4895.5866 
  999800    280.38876   -11017.062    46.803996   -11063.866     35964.31 
 1000000    323.63758   -10997.884    54.023321   -11051.907   -20975.609 
Loop time of 9057.55 on 8 procs for 1000000 steps with 57 atoms

Performance: 2.385 ns/day, 10.064 hours/ns, 110.405 timesteps/s
99.2% CPU use with 8 MPI tasks x no OpenMP threads

MPI task timing breakdown:
Section |  min time  |  avg time  |  max time  |%varavg| %total
---------------------------------------------------------------
Pair    | 8355.5     | 8450.3     | 8531.5     |  60.5 | 93.30
Neigh   | 1.0497     | 1.0905     | 1.1302     |   3.1 |  0.01
Comm    | 129.45     | 210.56     | 305.29     | 382.7 |  2.32
Output  | 0.10235    | 0.12281    | 0.2555     |  14.3 |  0.00
Modify  | 392.24     | 392.46     | 392.65     |   0.6 |  4.33
Other   |            | 3.03       |            |       |  0.03

Nlocal:    7.125 ave 13 max 3 min
Histogram: 1 1 2 0 0 1 1 1 0 1
Nghost:    1127.88 ave 1132 max 1122 min
Histogram: 1 0 0 1 1 1 0 0 2 2
Neighs:    1959.75 ave 3644 max 873 min
Histogram: 2 2 0 0 1 1 1 0 0 1

Total # of neighbors = 15678
Ave neighs/atom = 275.053
Neighbor list builds = 491
Dangerous builds = 0

Please see the log.cite file for references relevant to this simulation

Total wall time: 2:31:50
