LAMMPS (3 Mar 2020)
Reading data file ...
  orthogonal box = (0 0 0) to (11 11.002 11)
  2 by 2 by 2 MPI processor grid
  reading atoms ...
  49 atoms
  read_data CPU = 0.0119353 secs
WARNING: Using 'neigh_modify every 1 delay 0 check yes' setting during minimization (../min.cpp:190)
WARNING: Total cutoff < 2*bond cutoff. May need to use an increased neighbor list skin. (../pair_reaxc.cpp:413)
Neighbor list info ...
  update every 1 steps, delay 0 steps, check yes
  max neighbors/atom: 2000, page size: 100000
  master list distance cutoff = 9.5
  ghost atom cutoff = 9.5
  binsize = 4.75, bins = 3 3 3
  2 neighbor lists, perpetual/occasional/extra = 2 0 0
  (1) pair reax/c, perpetual
      attributes: half, newton off, ghost
      pair build: half/bin/newtoff/ghost
      stencil: half/ghost/bin/3d/newtoff
      bin: standard
  (2) fix qeq/reax, perpetual, copy from (1)
      attributes: half, newton off, ghost
      pair build: copy
      stencil: none
      bin: none
Setting up cg style minimization ...
  Unit style    : real
  Current step  : 0
Per MPI rank memory allocation (min/avg/max) = 18.82 | 18.91 | 19.17 Mbytes
Step Temp E_pair E_mol TotEng Press 
       0            0   -8677.1997            0   -8677.1997    10012.621 
     252            0   -8745.4706            0   -8745.4706    26168.905 
Loop time of 4.32036 on 8 procs for 252 steps with 49 atoms

99.4% CPU use with 8 MPI tasks x no OpenMP threads

Minimization stats:
  Stopping criterion = energy tolerance
  Energy initial, next-to-last, final = 
        -8677.19970123     -8745.47060263      -8745.4706408
  Force two-norm initial, final = 499.673 95.2834
  Force max component initial, final = 294.472 27.8654
  Final line search alpha, max atom move = 0.000224268 0.00624932
  Iterations, force evaluations = 252 1772

MPI task timing breakdown:
Section |  min time  |  avg time  |  max time  |%varavg| %total
---------------------------------------------------------------
Pair    | 3.363      | 3.3906     | 3.435      |   1.2 | 78.48
Neigh   | 0          | 0          | 0          |   0.0 |  0.00
Comm    | 0.035217   | 0.079279   | 0.10643    |   7.6 |  1.84
Output  | 0.00048037 | 0.00063831 | 0.00099041 |   0.0 |  0.01
Modify  | 0.83906    | 0.83981    | 0.84051    |   0.1 | 19.44
Other   |            | 0.009989   |            |       |  0.23

Nlocal:    6.125 ave 7 max 6 min
Histogram: 7 0 0 0 0 0 0 0 0 1
Nghost:    603.75 ave 618 max 599 min
Histogram: 4 0 0 3 0 0 0 0 0 1
Neighs:    773.75 ave 881 max 754 min
Histogram: 7 0 0 0 0 0 0 0 0 1

Total # of neighbors = 6190
Ave neighs/atom = 126.327
Neighbor list builds = 0
Dangerous builds = 0
WARNING: Using 'neigh_modify every 1 delay 0 check yes' setting during minimization (../min.cpp:190)
WARNING: Total cutoff < 2*bond cutoff. May need to use an increased neighbor list skin. (../pair_reaxc.cpp:413)
Setting up cg style minimization ...
  Unit style    : real
  Current step  : 252
Per MPI rank memory allocation (min/avg/max) = 18.82 | 18.91 | 19.17 Mbytes
Step Temp E_pair E_mol TotEng Press 
     252            0   -8745.4706            0   -8745.4706    26168.905 
     253            0   -8745.4707            0   -8745.4707    26168.869 
Loop time of 0.0198031 on 8 procs for 1 steps with 49 atoms

99.4% CPU use with 8 MPI tasks x no OpenMP threads

Minimization stats:
  Stopping criterion = energy tolerance
  Energy initial, next-to-last, final = 
         -8745.4706408      -8745.4706408     -8745.47065145
  Force two-norm initial, final = 95.2834 95.2815
  Force max component initial, final = 27.8654 27.8645
  Final line search alpha, max atom move = 0.000224293 0.00624981
  Iterations, force evaluations = 1 7

MPI task timing breakdown:
Section |  min time  |  avg time  |  max time  |%varavg| %total
---------------------------------------------------------------
Pair    | 0.015249   | 0.015408   | 0.015505   |   0.1 | 77.81
Neigh   | 0          | 0          | 0          |   0.0 |  0.00
Comm    | 0.00017618 | 0.00027308 | 0.00043251 |   0.0 |  1.38
Output  | 0          | 0          | 0          |   0.0 |  0.00
Modify  | 0.0040286  | 0.0040303  | 0.0040325  |   0.0 | 20.35
Other   |            | 9.124e-05  |            |       |  0.46

Nlocal:    6.125 ave 7 max 6 min
Histogram: 7 0 0 0 0 0 0 0 0 1
Nghost:    606.25 ave 614 max 601 min
Histogram: 1 1 2 1 0 0 2 0 0 1
Neighs:    789.5 ave 903 max 768 min
Histogram: 7 0 0 0 0 0 0 0 0 1

Total # of neighbors = 6316
Ave neighs/atom = 128.898
Neighbor list builds = 0
Dangerous builds = 0
WARNING: Using 'neigh_modify every 1 delay 0 check yes' setting during minimization (../min.cpp:190)
WARNING: Total cutoff < 2*bond cutoff. May need to use an increased neighbor list skin. (../pair_reaxc.cpp:413)
Setting up cg style minimization ...
  Unit style    : real
  Current step  : 253
WARNING: Energy due to 3 extra global DOFs will be included in minimizer energies
Per MPI rank memory allocation (min/avg/max) = 18.82 | 18.91 | 19.17 Mbytes
Step Temp E_pair E_mol TotEng Press Volume 
     253            0   -8745.4707            0   -8745.4707    26168.869     1331.242 
     437            0    -8749.743            0    -8749.743    1738.9857    1342.2923 
Loop time of 0.670425 on 8 procs for 184 steps with 49 atoms

99.3% CPU use with 8 MPI tasks x no OpenMP threads

Minimization stats:
  Stopping criterion = linesearch alpha is zero
  Energy initial, next-to-last, final = 
        -8745.47065146     -8749.74298836     -8749.74298836
  Force two-norm initial, final = 887.539 68.4793
  Force max component initial, final = 547.216 35.5732
  Final line search alpha, max atom move = 1.34044e-12 4.76837e-11
  Iterations, force evaluations = 184 295

MPI task timing breakdown:
Section |  min time  |  avg time  |  max time  |%varavg| %total
---------------------------------------------------------------
Pair    | 0.5639     | 0.56993    | 0.57565    |   0.4 | 85.01
Neigh   | 0          | 0          | 0          |   0.0 |  0.00
Comm    | 0.0050344  | 0.010789   | 0.016842   |   3.1 |  1.61
Output  | 0.00031449 | 0.00037979 | 0.00053972 |   0.0 |  0.06
Modify  | 0.084128   | 0.08417    | 0.084212   |   0.0 | 12.55
Other   |            | 0.005153   |            |       |  0.77

Nlocal:    6.125 ave 7 max 6 min
Histogram: 7 0 0 0 0 0 0 0 0 1
Nghost:    606.25 ave 614 max 601 min
Histogram: 1 1 2 1 0 0 2 0 0 1
Neighs:    789.5 ave 903 max 768 min
Histogram: 7 0 0 0 0 0 0 0 0 1

Total # of neighbors = 6316
Ave neighs/atom = 128.898
Neighbor list builds = 0
Dangerous builds = 0
WARNING: Using 'neigh_modify every 1 delay 0 check yes' setting during minimization (../min.cpp:190)
WARNING: Total cutoff < 2*bond cutoff. May need to use an increased neighbor list skin. (../pair_reaxc.cpp:413)
Setting up cg style minimization ...
  Unit style    : real
  Current step  : 437
Per MPI rank memory allocation (min/avg/max) = 18.82 | 18.91 | 19.17 Mbytes
Step Temp E_pair E_mol TotEng Press 
     437            0    -8749.743            0    -8749.743    1738.9857 
     439            0   -8749.7477            0   -8749.7477     1547.263 
Loop time of 0.152658 on 8 procs for 2 steps with 49 atoms

99.3% CPU use with 8 MPI tasks x no OpenMP threads

Minimization stats:
  Stopping criterion = linesearch alpha is zero
  Energy initial, next-to-last, final = 
        -8749.74298836     -8749.74768135     -8749.74768134
  Force two-norm initial, final = 35.0568 31.7393
  Force max component initial, final = 8.11338 7.98702
  Final line search alpha, max atom move = 1.1064e-11 8.83679e-11
  Iterations, force evaluations = 2 66

MPI task timing breakdown:
Section |  min time  |  avg time  |  max time  |%varavg| %total
---------------------------------------------------------------
Pair    | 0.12654    | 0.1276     | 0.12857    |   0.2 | 83.58
Neigh   | 0          | 0          | 0          |   0.0 |  0.00
Comm    | 0.001184   | 0.002122   | 0.0031864  |   1.3 |  1.39
Output  | 0          | 0          | 0          |   0.0 |  0.00
Modify  | 0.022583   | 0.022594   | 0.02261    |   0.0 | 14.80
Other   |            | 0.0003468  |            |       |  0.23

Nlocal:    6.125 ave 7 max 6 min
Histogram: 7 0 0 0 0 0 0 0 0 1
Nghost:    598.125 ave 603 max 590 min
Histogram: 1 0 0 1 0 0 3 1 1 1
Neighs:    779.75 ave 897 max 756 min
Histogram: 6 1 0 0 0 0 0 0 0 1

Total # of neighbors = 6238
Ave neighs/atom = 127.306
Neighbor list builds = 0
Dangerous builds = 0
WARNING: Using 'neigh_modify every 1 delay 0 check yes' setting during minimization (../min.cpp:190)
WARNING: Total cutoff < 2*bond cutoff. May need to use an increased neighbor list skin. (../pair_reaxc.cpp:413)
Setting up cg style minimization ...
  Unit style    : real
  Current step  : 439
WARNING: Energy due to 3 extra global DOFs will be included in minimizer energies
Per MPI rank memory allocation (min/avg/max) = 18.82 | 18.91 | 19.17 Mbytes
Step Temp E_pair E_mol TotEng Press Volume 
     439            0   -8749.7477            0   -8749.7477     1547.263    1342.2923 
     440            0   -8749.7477            0   -8749.7477     1547.263    1342.2923 
Loop time of 0.0939357 on 8 procs for 1 steps with 49 atoms

99.4% CPU use with 8 MPI tasks x no OpenMP threads

Minimization stats:
  Stopping criterion = linesearch alpha is zero
  Energy initial, next-to-last, final = 
        -8749.74768134     -8749.74768134     -8749.74768135
  Force two-norm initial, final = 61.4003 61.4003
  Force max component initial, final = 32.7209 32.7209
  Final line search alpha, max atom move = 2.91457e-12 9.53674e-11
  Iterations, force evaluations = 1 41

MPI task timing breakdown:
Section |  min time  |  avg time  |  max time  |%varavg| %total
---------------------------------------------------------------
Pair    | 0.079594   | 0.08037    | 0.080997   |   0.1 | 85.56
Neigh   | 0          | 0          | 0          |   0.0 |  0.00
Comm    | 0.0007473  | 0.0013503  | 0.0021312  |   1.1 |  1.44
Output  | 0          | 0          | 0          |   0.0 |  0.00
Modify  | 0.011609   | 0.011613   | 0.011618   |   0.0 | 12.36
Other   |            | 0.0006016  |            |       |  0.64

Nlocal:    6.125 ave 7 max 6 min
Histogram: 7 0 0 0 0 0 0 0 0 1
Nghost:    598.125 ave 603 max 590 min
Histogram: 1 0 0 1 0 0 3 1 1 1
Neighs:    779.75 ave 897 max 756 min
Histogram: 6 1 0 0 0 0 0 0 0 1

Total # of neighbors = 6238
Ave neighs/atom = 127.306
Neighbor list builds = 0
Dangerous builds = 0
WARNING: Using 'neigh_modify every 1 delay 0 check yes' setting during minimization (../min.cpp:190)
WARNING: Total cutoff < 2*bond cutoff. May need to use an increased neighbor list skin. (../pair_reaxc.cpp:413)
Setting up cg style minimization ...
  Unit style    : real
  Current step  : 440
Per MPI rank memory allocation (min/avg/max) = 18.82 | 18.91 | 19.17 Mbytes
Step Temp E_pair E_mol TotEng Press 
     440            0   -8749.7477            0   -8749.7477     1547.263 
     441            0   -8749.7477            0   -8749.7477     1547.263 
Loop time of 0.129292 on 8 procs for 1 steps with 49 atoms

99.3% CPU use with 8 MPI tasks x no OpenMP threads

Minimization stats:
  Stopping criterion = linesearch alpha is zero
  Energy initial, next-to-last, final = 
        -8749.74768135     -8749.74768135     -8749.74768135
  Force two-norm initial, final = 31.7393 31.7393
  Force max component initial, final = 7.98702 7.98702
  Final line search alpha, max atom move = 1.16605e-11 9.31323e-11
  Iterations, force evaluations = 1 56

MPI task timing breakdown:
Section |  min time  |  avg time  |  max time  |%varavg| %total
---------------------------------------------------------------
Pair    | 0.10776    | 0.10883    | 0.10961    |   0.2 | 84.17
Neigh   | 0          | 0          | 0          |   0.0 |  0.00
Comm    | 0.0012194  | 0.0019733  | 0.0030382  |   1.2 |  1.53
Output  | 0          | 0          | 0          |   0.0 |  0.00
Modify  | 0.018161   | 0.018179   | 0.018197   |   0.0 | 14.06
Other   |            | 0.0003119  |            |       |  0.24

Nlocal:    6.125 ave 7 max 6 min
Histogram: 7 0 0 0 0 0 0 0 0 1
Nghost:    598.125 ave 603 max 590 min
Histogram: 1 0 0 1 0 0 3 1 1 1
Neighs:    779.75 ave 897 max 756 min
Histogram: 6 1 0 0 0 0 0 0 0 1

Total # of neighbors = 6238
Ave neighs/atom = 127.306
Neighbor list builds = 0
Dangerous builds = 0
WARNING: Total cutoff < 2*bond cutoff. May need to use an increased neighbor list skin. (../pair_reaxc.cpp:413)
Setting up Verlet run ...
  Unit style    : real
  Current step  : 0
  Time step     : 0.25
Per MPI rank memory allocation (min/avg/max) = 17.7 | 17.78 | 18.04 Mbytes
Step Temp TotEng KinEng PotEng Press 
       0          300    -8706.824    42.923665   -8749.7477    3009.0449 
     200    321.57952   -8689.7467    46.011239   -8735.7579    13139.189 
     400    298.32626   -8703.7832    42.684188   -8746.4674   -1341.3474 
     600    281.39985   -8713.3023    40.262376   -8753.5646    1465.4216 
     800    356.15954   -8697.4105    50.958908   -8748.3695   -10526.591 
    1000    326.63779   -8706.4795     46.73497   -8753.2145    -23759.68 
    1200    305.47374   -8701.4082    43.706841    -8745.115    22521.135 
    1400    256.54772   -8712.7479    36.706561   -8749.4545    49126.574 
    1600    299.25734   -8709.4098    42.817405   -8752.2272   -18725.388 
    1800    290.49506   -8707.9226    41.563709   -8749.4863    38722.463 
    2000    282.91249   -8717.7635    40.478803   -8758.2423    25359.502 
    2200    284.50617   -8706.5047    40.706825   -8747.2115   -38167.958 
    2400    324.21993   -8698.2133    46.389025   -8744.6024    15604.321 
    2600    245.98315   -8712.2665    35.194995   -8747.4615    49125.557 
    2800    291.80014    -8709.961    41.750439   -8751.7114   -24174.506 
    3000    321.35199   -8705.4622    45.978684   -8751.4409    25364.489 
    3200    322.63366     -8707.98    46.162064    -8754.142    40050.659 
    3400    349.44929   -8696.0091    49.998814   -8746.0079    31034.673 
    3600    313.66803   -8699.9056    44.879271   -8744.7849   -40182.366 
    3800    250.21398    -8710.797    35.800336   -8746.5974    13159.836 
    4000    313.19533   -8696.5871    44.811637   -8741.3987   -4029.3782 
    4200    317.93942   -8702.3273    45.490417   -8747.8177   -35026.775 
    4400    287.36957   -8712.1822    41.116516   -8753.2987   -25936.733 
    4600     357.4434   -8701.9543    51.142602   -8753.0969   -16591.978 
    4800    312.01465   -8700.4738    44.642708   -8745.1165    -38432.74 
    5000    356.02069   -8697.4961    50.939043   -8748.4351   -11778.447 
    5200    271.13393   -8712.2189     38.79354   -8751.0125    5211.7123 
    5400    269.60804   -8713.0037    38.575218    -8751.579    13090.205 
    5600    300.55301   -8697.5463    43.002789   -8740.5491    25834.769 
    5800    304.55979   -8709.6467    43.576075   -8753.2227    25541.872 
    6000    233.95939    -8728.347    33.474648   -8761.8217   -23358.118 
    6200    266.45392   -8714.2965    38.123929   -8752.4204    32954.935 
    6400     252.5033   -8702.2581     36.12789    -8738.386    7418.5051 
    6600    348.38464   -8697.5769    49.846486   -8747.4234   -17187.187 
    6800    244.96866   -8716.3505    35.049842   -8751.4003    11399.056 
    7000    273.86634    -8700.017     39.18449   -8739.2015    73169.553 
    7200    283.19883   -8700.6165    40.519773   -8741.1362   -10001.913 
    7400    287.85258   -8716.2511    41.185625   -8757.4367   -24990.421 
    7600    316.84699    -8710.269    45.334113   -8755.6031   -31478.503 
    7800    268.92496   -8705.5248    38.477482   -8744.0023    59468.219 
    8000    356.79287   -8695.6258    51.049525   -8746.6754   -953.01489 
    8200    286.71861   -8703.3584    41.023379   -8744.3817    11949.394 
    8400     325.6816    -8699.808     46.59816   -8746.4062    22606.335 
    8600    308.24835   -8711.8362     44.10383     -8755.94   -20740.504 
    8800    290.19557   -8706.4568    41.520858   -8747.9777   -16345.758 
    9000    265.77215    -8718.866    38.026382   -8756.8924    1961.5561 
    9200    326.76287   -8709.2616    46.752866   -8756.0144   -24429.771 
    9400    306.74041   -8698.6616    43.888075   -8742.5497    39468.674 
    9600    298.46202    -8702.189    42.703612   -8744.8926    9381.1537 
    9800    282.14925   -8714.7292    40.369599   -8755.0988   -5305.4555 
   10000    344.45854   -8698.0533    49.284743    -8747.338   -11087.117 
   10200    330.49991   -8704.5371    47.287557   -8751.8246   -6753.7269 
   10400    308.17336   -8706.5537      44.0931   -8750.6468    5323.8008 
   10600    263.66627   -8712.7944    37.725075   -8750.5194    29464.798 
   10800    294.97357   -8697.5922    42.204489   -8739.7967   -28352.161 
   11000    265.71997   -8708.4411    38.018916     -8746.46    14003.117 
   11200    302.68138   -8710.9853    43.307313   -8754.2926    7989.1597 
   11400    302.94074   -8701.8638    43.344423   -8745.2083   -17730.246 
   11600     391.2854   -8693.5528    55.984678   -8749.5374   -11167.097 
   11800    288.01352   -8708.0938    41.208652   -8749.3025    15707.451 
   12000    348.38626   -8700.3583    49.846716    -8750.205   -21614.646 
   12200    299.14879    -8703.468    42.801875   -8746.2699   -38689.627 
   12400    321.51601   -8705.7852    46.002152   -8751.7874    16602.286 
   12600    264.20513   -8717.4866    37.802175   -8755.2888    -3771.576 
   12800    235.10373   -8711.3902    33.638379   -8745.0286    27915.526 
   13000    359.29151   -8698.8847    51.407028   -8750.2917    13569.566 
   13200    256.75002   -8709.0966    36.735505   -8745.8321    -5388.885 
   13400    268.59002   -8717.6651    38.429559   -8756.0946   -22840.168 
   13600    313.80702    -8698.092    44.899158   -8742.9912   -2371.4317 
   13800    315.21575   -8711.3342    45.100718   -8756.4349    6280.3384 
   14000    297.13976   -8711.5019    42.514424   -8754.0164    2193.6091 
   14200     356.9095   -8703.2391    51.066212   -8754.3053   -41098.821 
   14400    289.59041   -8688.7193    41.434273   -8730.1536   -12955.055 
   14600    342.50034   -8699.6425    49.004565    -8748.647    25164.782 
   14800    289.06804   -8713.3608    41.359533   -8754.7203   -1119.1725 
   15000    264.90373   -8713.5547     37.90213   -8751.4569    5086.0174 
   15200    324.83578    -8697.797    46.477141   -8744.2741   -39669.335 
   15400    300.71118   -8709.1359    43.025419   -8752.1613    -4739.807 
   15600     263.8871    -8722.884    37.756671   -8760.6406    22934.662 
   15800    306.72368   -8709.0346    43.885681   -8752.9203   -3431.4642 
   16000    313.16129   -8703.9208    44.806768   -8748.7275   -7241.6133 
   16200    251.42291   -8716.7702    35.973308   -8752.7435    37967.427 
   16400    317.59936   -8701.0315    45.441762   -8746.4732    2456.0834 
   16600    272.48898   -8698.8841    38.987419   -8737.8716    7354.8725 
   16800    241.21583   -8714.3773    34.512891   -8748.8902    50417.043 
   17000    329.67851    -8708.443    47.170033    -8755.613   -4535.7028 
   17200    289.55957   -8706.9485     41.42986   -8748.3784   -16666.061 
   17400    273.16125   -8723.0071    39.083607   -8762.0907   -8220.5683 
   17600    298.62372   -8711.6707    42.726748   -8754.3975    -41528.56 
   17800    346.84532   -8700.2064    49.626241   -8749.8326    12117.431 
   18000    285.38165    -8702.906    40.832088    -8743.738   -6625.1351 
   18200    258.39498   -8715.6591    36.970864     -8752.63   -20019.305 
   18400    285.37164   -8703.0422    40.830655   -8743.8729    3668.5441 
   18600    359.21483   -8687.7863    51.396057   -8739.1824    10703.535 
   18800     317.7662   -8701.2719    45.465633   -8746.7376   -12188.972 
   19000    277.47363   -8711.4021    39.700616   -8751.1027   -24318.335 
   19200    337.06442   -8696.7276    48.226801   -8744.9544   -14189.221 
   19400     314.2604   -8704.0673    44.964027   -8749.0314   -24253.743 
   19600    318.11163   -8708.5162    45.515057   -8754.0313   -11677.724 
   19800    319.29159   -8696.1579    45.683884   -8741.8418    31447.357 
   20000    244.41988   -8696.5293    34.971323   -8731.5006    44573.028 
   20200    383.96281   -8704.6842     54.93697   -8759.6211   -14629.363 
   20400    334.99689   -8707.3071    47.930981   -8755.2381   -38484.779 
   20600    322.28876   -8708.1527    46.112715   -8754.2654    1621.8493 
   20800    244.26081   -8708.7773    34.948563   -8743.7259   -4849.4252 
   21000    358.85719   -8693.8092    51.344886   -8745.1541   -13025.938 
   21200    279.21406   -8706.3034    39.949635   -8746.2531    49919.334 
   21400    349.59966   -8702.9161    50.020329   -8752.9365    -21119.58 
   21600    318.44533    -8690.651    45.562802   -8736.2138   -27688.039 
   21800    326.93106   -8708.6467     46.77693   -8755.4236    5440.7888 
   22000    315.56449   -8712.9476    45.150615   -8758.0982   -11422.687 
   22200    343.56168   -8696.0275    49.156421   -8745.1839    18835.419 
   22400    286.29938   -8707.8831    40.963396   -8748.8465    675.49391 
   22600    238.47061   -8724.3885    34.120108   -8758.5086   -7402.3477 
   22800    324.90481   -8703.9327    46.487017   -8750.4197    -1721.848 
   23000    308.55787    -8703.535    44.148116   -8747.6831   -24651.967 
   23200    277.56319   -8715.4918    39.713431   -8755.2053    2649.6396 
   23400    328.78034   -8699.8014    47.041524    -8746.843    710.17616 
   23600    358.75444   -8695.4195    51.330185   -8746.7497   -5362.6537 
   23800    233.94597    -8713.675    33.472727   -8747.1477    23649.612 
   24000    255.09486    -8715.693    36.498688   -8752.1917   -17624.208 
   24200    313.98761   -8705.1346    44.924996   -8750.0596    51778.396 
   24400    285.51864   -8710.5551    40.851688   -8751.4068   -27161.894 
   24600    238.60947   -8720.7983    34.139976   -8754.9383    7070.3428 
   24800    273.51299   -8702.1601    39.133932    -8741.294    20604.811 
   25000    365.94495   -8696.1572    52.358994   -8748.5162   -29169.051 
   25200    307.25331   -8714.8176    43.961461    -8758.779   -32319.345 
   25400    278.75779   -8709.9317    39.884353   -8749.8161     -18266.7 
   25600    292.31606   -8695.5108    41.824255   -8737.3351   -28492.843 
   25800    235.19277   -8714.4986    33.651119   -8748.1497   -28234.503 
   26000    293.88795   -8701.9901     42.04916   -8744.0393    39794.376 
   26200    332.02813   -8696.4366    47.506214   -8743.9428   -14460.706 
   26400    350.39015   -8701.6285    50.133432   -8751.7619   -20662.003 
   26600    283.08525   -8712.2785    40.503522    -8752.782    14584.501 
   26800    289.17297   -8716.7236    41.374545   -8758.0982   -1003.2992 
   27000    325.80022   -8695.1632    46.615132   -8741.7783   -9541.8801 
   27200    313.38449   -8710.6503    44.838702    -8755.489    8411.1303 
   27400     280.2021   -8708.7997    40.091003   -8748.8908    1888.0763 
   27600    313.27625   -8706.3965    44.823215   -8751.2198    16161.398 
   27800    310.03462   -8711.5814    44.359408   -8755.9408   -20831.284 
   28000    239.12021   -8723.7562    34.213052   -8757.9693    36946.984 
   28200    356.04072   -8705.8464    50.941908   -8756.7883     13596.21 
   28400    293.03859   -8705.0542    41.927634   -8746.9818     10465.72 
   28600    316.65102   -8714.3847    45.306073   -8759.6908    7514.8738 
   28800    333.37282   -8711.1918     47.69861   -8758.8904    19531.569 
   29000    346.61014   -8699.8229    49.592591   -8749.4155    10038.678 
   29200    234.49825   -8719.7723    33.551747    -8753.324    9309.5788 
   29400    288.49754   -8713.9297    41.277906   -8755.2076     35912.31 
   29600    327.20899   -8704.8779    46.816697   -8751.6946   -32322.971 
   29800     358.8378   -8705.2016    51.342112   -8756.5437   -13.100055 
   30000    267.76318    -8717.905    38.311256   -8756.2163     18585.95 
   30200    317.56606    -8702.511    45.436997    -8747.948   -12514.333 
   30400    301.53216   -8704.0564    43.142885   -8747.1993    9029.7263 
   30600    229.88032   -8722.3207     32.89102   -8755.2117   -27569.414 
   30800    279.10588   -8711.9275    39.934157   -8751.8616    11704.919 
   31000    295.51902   -8707.5452    42.282532   -8749.8278    5278.7464 
   31200     382.1088   -8690.5472      54.6717   -8745.2189   -1084.2911 
   31400    319.34359   -8706.3361    45.691325   -8752.0275    2072.1873 
   31600     330.5921   -8702.8401    47.300748   -8750.1409   -21542.685 
   31800    367.32871   -8700.5732    52.556981   -8753.1302   -25734.177 
   32000    280.09948   -8711.9202    40.076321   -8751.9965     8316.119 
   32200     285.2521   -8699.1561    40.813551   -8739.9697    8269.5139 
   32400    316.78685   -8695.0597    45.325509   -8740.3852    8706.3245 
   32600    296.81845   -8709.1765    42.468453   -8751.6449   -47924.986 
   32800    262.92483   -8713.0879     37.61899   -8750.7069    3024.1299 
   33000    298.84606    -8715.371     42.75856   -8758.1295   -2100.1373 
   33200    396.71678   -8699.8073    56.761794   -8756.5691    24769.689 
   33400    272.19416   -8707.9733    38.945236   -8746.9185    48706.749 
   33600    322.68252   -8704.4865    46.169054   -8750.6556    14422.681 
   33800    355.32137   -8689.9273    50.838984   -8740.7663    -13870.94 
   34000    309.51675   -8700.3474    44.285311   -8744.6327   -10247.061 
   34200    289.97104   -8713.6157    41.488732   -8755.1044   -2094.3001 
   34400    370.46248   -8696.3184    53.005357   -8749.3238   -6979.4772 
   34600    279.47259    -8702.554    39.986626   -8742.5406   -44029.986 
   34800    285.16341   -8710.8993    40.800861   -8751.7002     24886.14 
   35000    284.81955    -8705.838    40.751663   -8746.5896     6048.326 
   35200     302.2539   -8707.2664     43.24615   -8750.5126   -7378.3098 
   35400    245.52755    -8715.363    35.129807   -8750.4928    42888.514 
   35600    261.82576   -8697.9874    37.461737   -8735.4491   -33746.112 
   35800    283.65567   -8706.1212    40.585136   -8746.7063    -1626.042 
   36000    208.43213   -8721.4111    29.822236   -8751.2334   -16406.586 
   36200    293.50546   -8708.8774    41.994434   -8750.8718   -21284.078 
   36400    266.01026   -8706.4047     38.06045   -8744.4651     27105.58 
   36600     309.8885   -8711.9978      44.3385   -8756.3363   -13178.546 
   36800    355.83563    -8705.071    50.912564   -8755.9836    3500.8815 
   37000    318.48937   -8696.1381    45.569103   -8741.7072   -23072.496 
   37200    317.83063   -8710.5492    45.474851    -8756.024   -23267.782 
   37400    306.43524   -8706.8393    43.844411   -8750.6837    4542.4573 
   37600    244.24495   -8714.3403    34.946294   -8749.2866    -22264.01 
   37800    251.44436    -8714.843    35.976378   -8750.8194   -1423.4061 
   38000    293.20243   -8701.2971    41.951077   -8743.2482    5780.4304 
   38200    276.08662   -8713.0681    39.502165   -8752.5703    22357.873 
   38400     299.9277   -8717.7323     42.91332   -8760.6456   -8758.6785 
   38600    299.16559   -8702.0647    42.804278    -8744.869     54025.55 
   38800    314.91657   -8710.7111    45.057911    -8755.769   -18526.179 
   39000     284.0758   -8717.5353    40.645248   -8758.1806    32908.511 
   39200     304.5998   -8708.4096    43.581799   -8751.9914    18514.946 
   39400    270.56205   -8706.7572    38.711716   -8745.4689   -20785.178 
   39600    277.48508   -8695.5109    39.702255   -8735.2131   -25641.301 
   39800    265.96676   -8712.3463    38.054227   -8750.4005   -14397.676 
   40000    268.38754    -8713.572    38.400589   -8751.9726   -6879.6363 
   40200    313.26078   -8693.3723    44.821002   -8738.1933    3227.2508 
   40400    323.29852   -8703.6174     46.25719   -8749.8746   -19018.092 
   40600    320.01867   -8707.3007    45.787913   -8753.0886    15995.832 
   40800     351.5716   -8695.6046    50.302472    -8745.907   -14557.371 
   41000    278.36807   -8711.7831    39.828593   -8751.6117    29463.918 
   41200    331.53349   -8710.1345    47.435441   -8757.5699   -14111.725 
   41400    370.83825   -8692.4089    53.059123    -8745.468   -41768.142 
   41600    293.31656   -8706.1748    41.967405   -8748.1422   -25966.789 
   41800    270.28622   -8711.1441    38.672251   -8749.8163   -2726.9556 
   42000    254.74188   -8719.9141    36.448184   -8756.3622    2332.4752 
   42200    325.82322   -8704.6039    46.618422   -8751.2223    2524.7943 
   42400    308.38386   -8712.4551    44.123219   -8756.5783    6738.4652 
   42600     326.1643    -8710.764    46.667223   -8757.4312   -38473.788 
   42800    298.95029   -8698.4382    42.773474   -8741.2117    6802.0146 
   43000    295.57182   -8711.0837    42.290086   -8753.3738   -45394.691 
   43200    253.96725    -8717.813     36.33735   -8754.1504    13917.569 
   43400    311.68927   -8700.3751    44.596152   -8744.9712    45741.392 
   43600    295.83486   -8709.7478    42.327721   -8752.0756    10329.641 
   43800    237.93488   -8720.3265    34.043457     -8754.37   -11035.371 
   44000    292.27684   -8709.1115    41.818643   -8750.9302   -6796.1341 
   44200     294.6077   -8701.1599     42.15214    -8743.312   -8856.4289 
   44400    292.88176   -8715.0873    41.905194   -8756.9925   -32933.386 
   44600    314.92186   -8702.9554    45.058668    -8748.014   -21239.401 
   44800    280.68227   -8705.2313    40.159706    -8745.391   -14865.403 
   45000    273.98189   -8710.6776    39.201022   -8749.8786   -44367.172 
   45200    295.60288   -8704.1005    42.294529    -8746.395    2650.6002 
   45400    302.00208   -8702.7692    43.210121   -8745.9793    64024.593 
   45600     319.4209   -8711.6634    45.702385   -8757.3658   -15021.114 
   45800    283.45333   -8720.0071    40.556185   -8760.5632    5961.9797 
   46000    328.60115   -8699.6214    47.015885   -8746.6373    944.50466 
   46200    275.68157   -8704.3753     39.44421   -8743.8195    52171.703 
   46400    263.37855   -8721.8411    37.683909    -8759.525    36286.428 
   46600    311.46719   -8712.6217    44.564378   -8757.1861    4128.1635 
   46800    266.35425   -8703.0994    38.109669    -8741.209   -798.50085 
   47000    293.97299   -8713.7273    42.061327   -8755.7886   -13682.505 
   47200    267.34889   -8716.2532     38.25198   -8754.5052    7577.8445 
   47400    300.04221   -8700.5329    42.929704   -8743.4626   -8814.6473 
   47600    322.79055   -8710.8473    46.184511   -8757.0318   -43511.829 
   47800    262.04854   -8712.8838    37.493612   -8750.3774    17737.212 
   48000    331.36563   -8701.3556    47.411424    -8748.767   -9546.5465 
   48200    295.57686   -8706.0622    42.290806    -8748.353    35583.574 
   48400    224.86923   -8713.1116    32.174039   -8745.2857   -29085.447 
   48600    371.83508   -8697.4961    53.201747   -8750.6979    36178.981 
   48800    332.30543   -8699.2948    47.545889   -8746.8407   -35620.127 
   49000      261.872   -8710.1388    37.468352   -8747.6072   -38089.428 
   49200    317.16537   -8703.3639    45.379667   -8748.7436    -39585.42 
   49400    272.68299   -8719.7788    39.015178    -8758.794   -22513.666 
   49600    275.15121   -8718.2211    39.368327   -8757.5894    -2829.195 
   49800    312.82876   -8706.6338    44.759189    -8751.393   -1330.2716 
   50000    282.89843    -8699.694    40.476792   -8740.1708   -32885.828 
   50200    259.96931   -8717.8578    37.196118   -8755.0539   -6283.6162 
   50400    318.36507   -8705.6401    45.551318   -8751.1914     40298.56 
   50600    300.14745   -8708.3435    42.944762   -8751.2883   -23494.626 
   50800     256.7851   -8713.5044    36.740526   -8750.2449    -2422.608 
   51000    324.34199   -8705.2136     46.40649   -8751.6201   -52066.562 
   51200    360.91902   -8702.1019    51.639891   -8753.7418   -35953.955 
   51400    267.64378   -8716.8979    38.294173   -8755.1921   -6695.2896 
   51600    330.71368   -8698.6368    47.318144    -8745.955   -15026.454 
   51800    313.35409   -8707.4865    44.834354   -8752.3209    33441.668 
   52000    242.32266   -8721.4636    34.671256   -8756.1349   -19809.509 
   52200    267.52446    -8713.755      38.2771   -8752.0321    -43254.87 
   52400    315.08037   -8701.2527    45.081347    -8746.334    14897.039 
   52600    290.95996   -8706.9054    41.630226   -8748.5357    10575.479 
   52800    259.67136   -8720.4063    37.153489   -8757.5598    15389.405 
   53000    306.32608   -8700.3484    43.828793   -8744.1772   -35461.942 
   53200    269.52857   -8706.1093    38.563846   -8744.6732   -21685.913 
   53400    254.44078   -8714.9183    36.405102   -8751.3234    41932.892 
   53600    326.31163   -8699.0972    46.688304   -8745.7855   -374.67436 
   53800    310.42979   -8699.6479    44.415948   -8744.0639    18726.619 
   54000    255.19502   -8715.8799    36.513018   -8752.3929    3568.4914 
   54200    272.97572   -8706.9909    39.057061    -8746.048    13273.966 
   54400    412.04381    -8695.517    58.954768   -8754.4718   -21997.001 
   54600    300.60726    -8708.606     43.01055   -8751.6165   -35167.574 
   54800    289.79098   -8710.0774    41.462969   -8751.5404   -35741.834 
   55000    377.16383   -8699.9576    53.964179   -8753.9218   -5451.3671 
   55200    254.86133   -8711.8734    36.465274   -8748.3387     5062.568 
   55400    259.42117   -8713.5692    37.117691   -8750.6869    924.13241 
   55600     304.2427   -8694.7183    43.530706    -8738.249    18968.556 
   55800    248.85577   -8710.8193    35.606005   -8746.4253    6807.5818 
   56000    271.93273   -8710.5464     38.90783   -8749.4543    34107.226 
   56200    318.10447   -8696.7597    45.514032   -8742.2737   -16708.472 
   56400    290.16391   -8706.2418    41.516328   -8747.7581   -1035.5057 
   56600    312.61751    -8710.727    44.728964    -8755.456    4644.1055 
   56800    392.26299   -8694.7076     56.12455   -8750.8321   -4355.9158 
   57000    342.93439   -8698.3875    49.066669   -8747.4541   -18041.102 
   57200    261.43845   -8713.0472    37.406321   -8750.4536   -13551.899 
   57400    341.65605   -8703.0945    48.883766   -8751.9783   -3724.3536 
   57600    246.46368   -8716.7149    35.263748   -8751.9787    11490.397 
   57800    280.38211   -8711.6107    40.116758   -8751.7275   -36293.589 
   58000     287.5526   -8696.9488    41.142705   -8738.0915     9815.767 
   58200    345.43805   -8689.4266    49.424891   -8738.8515    25699.929 
   58400     340.6499   -8708.1984    48.739808   -8756.9382   -37735.522 
   58600    241.07491   -8714.7266    34.492728   -8749.2193   -10741.302 
   58800    314.39064     -8701.87    44.982662   -8746.8526    7865.2024 
   59000    309.80265   -8710.5083    44.326216   -8754.8346    26167.186 
   59200    245.48014   -8723.1898    35.123024   -8758.3128    8683.4134 
   59400    372.72399   -8706.3542    53.328932   -8759.6831    1712.4213 
   59600    307.79758   -8710.1318    44.039334   -8754.1711   -24971.446 
   59800      394.414   -8699.5546    56.432314   -8755.9869   -34672.168 
   60000    251.16244   -8711.6166    35.936042   -8747.5526   -20452.041 
   60200    296.83808   -8703.6469     42.47126   -8746.1181    45879.618 
   60400    234.58661   -8714.5183    33.564391   -8748.0827   -18270.423 
   60600      329.845   -8697.1407    47.193854   -8744.3345   -23456.846 
   60800    270.13926   -8710.9327    38.651223   -8749.5839   -25317.155 
   61000    259.75969   -8717.9939    37.166126     -8755.16   -3933.8605 
   61200    305.86474    -8709.684    43.762785   -8753.4468   -24233.383 
   61400     328.8807   -8705.5794    47.055883   -8752.6353     18994.45 
   61600    293.95957   -8706.7622    42.059407   -8748.8216   -29359.476 
   61800    253.18437   -8709.9846    36.225336   -8746.2099   -6191.5213 
   62000    270.90506   -8714.3605    38.760793   -8753.1213   -33671.846 
   62200    292.26202   -8697.2932    41.816524   -8739.1097     19440.72 
   62400    251.91558   -8709.7426    36.043799   -8745.7864   -7547.3523 
   62600    265.53217   -8711.5291    37.992047   -8749.5212    15835.888 
   62800    353.20191   -8704.2242    50.535734   -8754.7599   -21596.332 
   63000    332.60333   -8692.4485    47.588512    -8740.037    48376.861 
   63200    283.99539   -8711.3878    40.633743   -8752.0216    9454.6731 
   63400    269.06175   -8709.4331    38.497054   -8747.9302   -299.05544 
   63600    336.38196   -8696.9879    48.129154    -8745.117     8343.123 
   63800     316.0439   -8706.8912    45.219209   -8752.1104   -23294.435 
   64000     286.0883   -8710.7705    40.933194   -8751.7037   -11028.068 
   64200    280.39923   -8722.7829    40.119209   -8762.9021   -23186.046 
   64400    260.04083   -8705.8428    37.206352   -8743.0491   -9320.6494 
   64600    268.20272   -8704.0973    38.374145   -8742.4715   -19283.967 
   64800    263.37745   -8719.1051    37.683751   -8756.7888   -40567.541 
   65000    283.25446   -8709.7718    40.527731   -8750.2996   -35414.704 
   65200    300.03583   -8704.9887    42.928792   -8747.9175     18826.86 
   65400    279.26172   -8714.7916    39.956455    -8754.748    12442.511 
   65600    265.34045    -8717.967    37.964615   -8755.9316    17208.236 
   65800    295.30871   -8700.5334     42.25244   -8742.7858    17636.592 
   66000    331.19947      -8710.7     47.38765   -8758.0877   -510.27714 
   66200    196.58668    -8723.233    28.127403   -8751.3604   -37685.606 
   66400    305.80957   -8709.5168    43.754891   -8753.2717   -11815.526 
   66600    267.95059   -8703.3228     38.33807   -8741.6609   -13818.019 
   66800    351.15439   -8696.8994    50.242777   -8747.1421    24812.616 
   67000    250.64856   -8712.5716    35.862516   -8748.4341   -20878.864 
   67200    371.54139   -8702.0038    53.159727   -8755.1635   -53738.871 
   67400    284.00339   -8703.6081    40.634887    -8744.243    1096.6091 
   67600    352.60406   -8713.3139    50.450195   -8763.7641    22464.055 
   67800    263.64615   -8703.8519    37.722197   -8741.5741    17650.637 
   68000    333.50189   -8700.6076    47.717077   -8748.3246   -5518.7034 
   68200    287.93072   -8707.1598    41.196806   -8748.3566    -1152.217 
   68400    311.54338   -8706.6378    44.575279   -8751.2131   -2983.5571 
   68600    297.69606   -8702.8552     42.59402   -8745.4492    -45302.31 
   68800    299.93072   -8709.7237    42.913753   -8752.6374   -17010.474 
   69000    296.36022   -8716.2087    42.402888   -8758.6116   -708.24913 
   69200    316.66428   -8705.2388    45.307971   -8750.5468    743.12886 
   69400    325.65408    -8701.032    46.594222   -8747.6263   -7978.6832 
   69600    255.76113   -8710.4501    36.594016   -8747.0441   -9079.4294 
   69800     321.5517   -8705.1147    46.007258    -8751.122    14214.064 
   70000    247.38403   -8717.1592    35.395431   -8752.5547    -15913.04 
   70200     275.1358   -8709.1598    39.366123    -8748.526    6778.6153 
   70400    284.85877    -8700.259    40.757275   -8741.0163   -35156.771 
   70600    284.84783   -8714.5789    40.755709   -8755.3347    8652.8494 
   70800    269.36575   -8710.5351     38.54055   -8749.0756    27745.761 
   71000    269.15614   -8705.9913    38.510559   -8744.5019    11760.855 
   71200    280.02823   -8703.4105    40.066127   -8743.4766    46004.494 
   71400    250.50262   -8716.2169    35.841635   -8752.0585    19122.016 
   71600    332.89644    -8697.018    47.630451   -8744.6484   -885.23051 
   71800    313.69585   -8703.5429    44.883252   -8748.4261    10285.173 
   72000    275.17014   -8713.2671    39.371036   -8752.6381    18180.703 
   72200    360.48255   -8691.8525     51.57744     -8743.43    66058.725 
   72400    301.53507    -8703.316    43.143301   -8746.4593    6642.7678 
   72600    281.89008   -8710.7233    40.332517   -8751.0558   -5940.4213 
   72800    367.06217   -8692.2941    52.518845   -8744.8129   -15285.906 
   73000    275.86458   -8707.4112    39.470395   -8746.8816   -5811.7694 
   73200    261.12985   -8712.0451    37.362167   -8749.4072   -30638.029 
   73400    318.61837   -8699.5711     45.58756   -8745.1587    23865.314 
   73600    297.92423   -8706.5096    42.626666   -8749.1362   -9394.4648 
   73800    303.25556   -8713.7312    43.389467   -8757.1207   -11665.767 
   74000     290.6254   -8698.6852    41.582357   -8740.2675   -41596.011 
   74200    256.11188   -8707.6915    36.644201   -8744.3357    27988.055 
   74400    309.33174   -8707.2255    44.258839   -8751.4843    6792.8304 
   74600    273.24585   -8714.3947     39.09571   -8753.4904   -28692.842 
   74800    297.61939   -8702.4399     42.58305    -8745.023     15078.74 
   75000    299.05311   -8698.9131    42.788184   -8741.7013    25065.798 
   75200    236.27541    -8718.047    33.806022    -8751.853   -20375.538 
   75400     290.6306   -8703.1635    41.583101   -8744.7466    64262.727 
   75600    345.79301   -8700.9214    49.475678   -8750.3971    4237.9121 
   75800    299.66839   -8708.7415    42.876218   -8751.6178    14359.142 
   76000    286.47015   -8708.0109    40.987829   -8748.9987   -1943.5469 
   76200     363.6133   -8691.5887    52.025385    -8743.614    15821.867 
   76400     298.6907   -8708.5034    42.736331   -8751.2398    58189.831 
   76600    320.05074   -8711.8593    45.792502   -8757.6518    1388.4741 
   76800    348.97938   -8700.3389     49.93158   -8750.2704   -7554.8471 
   77000    234.67957   -8711.6079     33.57769   -8745.1856     13402.06 
   77200     263.7052   -8718.2608    37.730645   -8755.9915   -7990.7303 
   77400    300.49624    -8709.883    42.994666   -8752.8777    -17192.36 
   77600    327.67798   -8702.9493    46.883799   -8749.8331   -27753.043 
   77800    275.53611   -8715.7461    39.423399   -8755.1695    24925.844 
   78000    266.92425     -8712.72    38.191223   -8750.9112   -37129.186 
   78200    298.96911   -8702.5341    42.776166   -8745.3103    31609.263 
   78400     312.1941    -8712.095    44.668382   -8756.7633    4012.1465 
   78600    260.38715   -8717.3595    37.255902   -8754.6154   -38472.757 
   78800    252.52907   -8700.0764    36.131577   -8736.2079    10327.623 
   79000    264.32145    -8711.208    37.818818   -8749.0268    26725.726 
   79200    274.34696   -8709.5337    39.253257   -8748.7869   -13712.783 
   79400    307.48218   -8704.4787    43.994207   -8748.4729   -12872.455 
   79600    304.14884   -8709.4427    43.517276     -8752.96    22344.897 
   79800    272.50188   -8721.8385    38.989264   -8760.8278   -15653.096 
   80000    275.89535   -8703.0373    39.474798   -8742.5121   -4480.9752 
   80200    282.98186    -8709.496    40.488728   -8749.9847   -30968.303 
   80400    279.80813   -8712.5319    40.034634   -8752.5665    29432.524 
   80600    331.86412   -8694.9513    47.482747   -8742.4341    4866.5991 
   80800    282.41663   -8710.6802    40.407856    -8751.088    11605.284 
   81000    308.45625   -8711.1638    44.133576   -8755.2974    7098.1548 
   81200    314.22152   -8701.4662    44.958464   -8746.4247    5668.3086 
   81400    263.14728   -8714.2324    37.650819   -8751.8832     13057.48 
   81600    290.97842   -8708.8736    41.632867   -8750.5065    669.86266 
   81800    299.81545   -8703.0096    42.897259   -8745.9069    -10918.41 
   82000    328.85198    -8699.899    47.051773   -8746.9508   -935.40162 
   82200    221.60156   -8711.8558    31.706504   -8743.5623    30826.027 
   82400    309.24252   -8699.7482    44.246074   -8743.9943   -17619.735 
   82600    387.53235   -8690.9829    55.447696   -8746.4306    22532.645 
   82800    282.05304   -8710.6231    40.355834    -8750.979   -15134.498 
   83000    335.95598   -8703.7765    48.068207   -8751.8447    7045.9488 
   83200    313.44394   -8706.7802    44.847208   -8751.6274    -11479.22 
   83400    293.96569   -8714.8507    42.060282    -8756.911     21617.55 
   83600    361.20502   -8696.0913    51.680811   -8747.7721    13088.523 
   83800    322.22867   -8703.3969    46.104118    -8749.501    17543.419 
   84000    273.71859   -8709.2993     39.16335   -8748.4626    11316.066 
   84200     260.3551   -8708.2952    37.251317   -8745.5465   -27904.883 
   84400    346.92239   -8703.1141    49.637268   -8752.7514   -9263.5332 
   84600    292.62432   -8709.8909    41.868361   -8751.7593    42698.635 
   84800    288.54455   -8712.7847    41.284632   -8754.0693   -751.25008 
   85000    335.45831   -8695.9124    47.997001   -8743.9094    18517.069 
   85200    279.44206   -8706.0539    39.982258   -8746.0361   -13627.445 
   85400     297.9477   -8709.6785    42.630023   -8752.3085    -5557.053 
   85600     267.7931   -8713.8013    38.315538   -8752.1168   -9457.8415 
   85800    403.81979   -8698.8005    57.778084   -8756.5786    18009.938 
   86000    347.12637   -8704.9182    49.666453   -8754.5846    13638.981 
   86200    269.32286    -8714.806    38.534413   -8753.3404    14229.209 
   86400    285.05246   -8705.5373    40.784988   -8746.3223   -6942.0775 
   86600    252.67898   -8708.5616    36.153025   -8744.7146    -17166.67 
   86800    248.31436    -8715.229    35.528541   -8750.7575    3234.2792 
   87000    271.94839   -8712.0477    38.910072   -8750.9577    10950.797 
   87200    363.47355    -8701.285     52.00539   -8753.2904   -892.52156 
   87400    278.74367   -8713.9907    39.882333    -8753.873   -23091.659 
   87600    256.04328   -8711.2631    36.634387   -8747.8975    8222.7868 
   87800     279.2478   -8700.4043    39.954463   -8740.3587    7999.4147 
   88000     288.0824   -8716.1504    41.218509   -8757.3689    27860.513 
   88200    281.70281   -8709.8581    40.305723   -8750.1639   -10439.996 
   88400    307.06123   -8706.7722    43.933978   -8750.7062    33539.122 
   88600    312.78473   -8706.0917     44.75289   -8750.8446    6360.0674 
   88800    368.86888   -8688.5257    52.777347   -8741.3031    27133.517 
   89000    322.94321    -8698.397    46.206354   -8744.6033    9574.2128 
   89200    276.61826   -8709.0229    39.578232   -8748.6011   -617.12584 
   89400    275.45245   -8712.0962    39.411428   -8751.5077    18888.107 
   89600    264.87873   -8701.6097    37.898553   -8739.5082   -44372.065 
   89800    255.09117   -8710.0279     36.49816   -8746.5261   -2610.5305 
   90000    340.14412   -8710.0409     48.66744   -8758.7083    4193.7062 
   90200    345.99307   -8698.9914    49.504302   -8748.4957   -33.735803 
   90400    311.24927   -8707.3034    44.533197   -8751.8366   -15493.039 
   90600    291.63744    -8714.453    41.727159   -8756.1802   -23708.283 
   90800     310.0556   -8703.5889    44.362409   -8747.9513   -1470.9527 
   91000    294.43294   -8701.7672    42.127136   -8743.8943    12465.892 
   91200    287.94475   -8717.5931    41.198813   -8758.7919    7105.8296 
   91400    304.72437   -8707.5701    43.599623   -8751.1697   -20755.372 
   91600    308.55333    -8701.908    44.147466   -8746.0555    4134.9739 
   91800    298.59768   -8707.1971    42.723022   -8749.9202   -22172.686 
   92000    298.10134   -8720.9796    42.652007   -8763.6316   -22289.266 
   92200    312.89378   -8703.8987    44.768492   -8748.6672    15497.263 
   92400    365.64882   -8698.9947    52.316625   -8751.3113   -2694.4399 
   92600    307.67896   -8707.1298    44.022362   -8751.1521    16244.323 
   92800    254.24243   -8716.8651    36.376723   -8753.2418    17239.866 
   93000    337.03505   -8699.5185    48.222599   -8747.7411   -30568.444 
   93200    341.98179   -8708.4812    48.930373   -8757.4116    22111.878 
   93400    275.76938   -8710.5811    39.456775   -8750.0378    18060.674 
   93600    378.53176   -8687.0509    54.159902   -8741.2108    34104.216 
   93800    291.89156   -8698.6718    41.763518   -8740.4354    6361.8778 
   94000    249.01947   -8713.9126    35.629427    -8749.542   -10568.581 
   94200    314.35055   -8702.3048    44.976925   -8747.2817   -8084.2878 
   94400    388.97283   -8695.4864    55.653798   -8751.1402   -18672.036 
   94600    289.97545   -8707.0194    41.489364   -8748.5087   -9771.2154 
   94800    292.81227   -8708.8294    41.895253   -8750.7246   -12060.815 
   95000    385.51587   -8691.2386     55.15918   -8746.3978   -4850.0268 
   95200    313.27289   -8704.7533    44.822735   -8749.5761    7512.4983 
   95400     282.2911   -8711.7144    40.389895   -8752.1043    -3048.183 
   95600    318.76889   -8702.7448    45.609097   -8748.3539   -833.85193 
   95800    359.10328   -8701.4844    51.380095   -8752.8645   -17170.363 
   96000    248.85081   -8717.4625    35.605295   -8753.0678    20051.418 
   96200    311.76482   -8706.5533    44.606962   -8751.1602    1563.7748 
   96400    307.68202   -8702.8773      44.0228   -8746.9001   -48062.369 
   96600    246.69889   -8714.5124    35.297402   -8749.8098    13844.651 
   96800    290.03898   -8710.8348    41.498453   -8752.3332    9500.9049 
   97000    311.98963   -8708.0559    44.639128    -8752.695    6448.1749 
   97200    359.60538   -8701.5787    51.451935   -8753.0306   -288.66973 
   97400     240.2579   -8702.1795    34.375831   -8736.5553   -10250.429 
   97600    302.04975   -8711.8918     43.21694   -8755.1087   -13815.521 
   97800     339.4066   -8697.2373    48.561917   -8745.7992   -25706.176 
   98000    338.92552   -8697.7217    48.493084   -8746.2148   -9212.0584 
   98200    304.69606   -8708.1852    43.595572   -8751.7808    25700.275 
   98400    246.89734   -8720.9079    35.325796   -8756.2337    33712.167 
   98600    311.58676   -8706.0274    44.581485   -8750.6088   -2874.7394 
   98800    313.02638   -8704.0524    44.787464   -8748.8398    17165.275 
   99000    262.29013   -8719.3028    37.528179    -8756.831   -6446.0333 
   99200     286.4355   -8709.4299    40.982871   -8750.4127    38053.952 
   99400    295.96203   -8706.1862    42.345917   -8748.5321     27225.88 
   99600    293.15994   -8702.4996    41.944996   -8744.4446    10081.106 
   99800    334.93203   -8702.1285      47.9217   -8750.0502    10349.518 
  100000    284.37906   -8716.6577    40.688638   -8757.3464    12035.008 
  100200    340.03253   -8703.5678    48.651475   -8752.2193   -30172.836 
  100400    264.39286   -8705.4021    37.829035   -8743.2311    20147.649 
  100600    288.64083   -8709.4454    41.298407   -8750.7439    15493.664 
  100800    330.23478   -8710.2057    47.249623   -8757.4553    3565.1438 
  101000    319.85526   -8700.4518    45.764534   -8746.2163    8964.2083 
  101200     321.1241   -8703.2245    45.946078   -8749.1706    7334.7413 
  101400    265.09564   -8716.8044    37.929588    -8754.734   -17166.459 
  101600    289.22416   -8703.9383    41.381869   -8745.3202    86.390111 
  101800    262.93957   -8708.7049    37.621099    -8746.326   -16357.035 
  102000    243.96455    -8718.622    34.906176   -8753.5281   -20298.388 
  102200    272.49014   -8711.1237    38.987585   -8750.1113    -6155.464 
  102400    303.84202   -8704.0676    43.473377   -8747.5409    20030.191 
  102600    332.91744   -8697.4806    47.633455   -8745.1141    4732.2995 
  102800     299.3823   -8706.8998    42.835286   -8749.7351   -7594.7734 
  103000    294.47122   -8711.6955    42.132614   -8753.8281    8874.1382 
  103200    317.75965   -8692.8148    45.464696   -8738.2794   -11605.588 
  103400    259.49452   -8712.7271    37.128186   -8749.8553    25539.199 
  103600    335.54852    -8704.055    48.009908   -8752.0649   -16626.385 
  103800    300.14135   -8705.7241     42.94389    -8748.668    19951.735 
  104000    301.75526   -8717.0224    43.174806   -8760.1972    34447.629 
  104200    314.81179   -8706.8529    45.042919   -8751.8958    41761.733 
  104400    293.62865    -8699.063     42.01206    -8741.075    5184.3692 
  104600    249.17304   -8715.9389      35.6514   -8751.5903   -40007.857 
  104800    278.61977    -8710.985    39.864606   -8750.8496   -17019.821 
  105000    350.97024   -8697.8886     50.21643   -8748.1051   -3487.8031 
  105200    306.08671   -8712.7008    43.794545   -8756.4953   -7155.4464 
  105400    348.76587   -8706.6691    49.901031   -8756.5701     -47243.7 
  105600    328.14764   -8681.2175    46.950998   -8728.1685    2429.0101 
  105800    290.42668   -8699.6412    41.553924   -8741.1951    22226.142 
  106000    290.06717   -8712.0179    41.502487   -8753.5204   -9663.1832 
  106200     299.3518   -8702.5147    42.830921   -8745.3457    12494.673 
  106400    342.55024   -8699.1849    49.011705   -8748.1966    10334.619 
  106600    277.40466   -8710.6056    39.690749   -8750.2964   -14462.982 
  106800    333.43811   -8706.2553    47.707952   -8753.9633   -28945.387 
  107000    370.27127   -8689.5111       52.978   -8742.4891    1985.8473 
  107200    278.80188   -8704.0795    39.890661   -8743.9702   -13835.444 
  107400    300.69198   -8709.6796    43.022672   -8752.7023    21758.969 
  107600    310.75284   -8702.1478    44.462169     -8746.61    26835.273 
  107800    316.84368   -8701.5799     45.33364   -8746.9135    2109.3078 
  108000    284.27005   -8714.0162    40.673041   -8754.6892    -21972.06 
  108200    279.69246   -8705.7616    40.018085   -8745.7796    27455.259 
  108400    283.39194   -8704.4501    40.547403   -8744.9976   -8819.9972 
  108600    261.01841   -8709.7363    37.346223   -8747.0825   -14180.788 
  108800    273.72198   -8719.7243    39.163836   -8758.8881   -7414.5766 
  109000    306.08754   -8702.5881    43.794663   -8746.3827    -10413.81 
  109200    279.43402   -8711.5035    39.981107   -8751.4846   -7926.8729 
  109400    243.46701   -8716.6439    34.834988   -8751.4789   -8505.7323 
  109600    272.73217   -8700.5861    39.022214   -8739.6083    -6384.083 
  109800    256.58262   -8712.8115    36.711555   -8749.5231   -29954.375 
  110000    344.09122   -8703.4159    49.232187   -8752.6481   -21804.932 
  110200    260.29004   -8703.4219    37.242008   -8740.6639    38166.673 
  110400    338.60986   -8711.1962     48.44792   -8759.6441   -2268.5813 
  110600    226.11118   -8720.3404    32.351735   -8752.6922    12421.308 
  110800    299.49132    -8706.107    42.850883   -8748.9579   -25708.566 
  111000    379.81869   -8702.9812    54.344033   -8757.3252    8400.1203 
  111200     273.7114   -8718.7062    39.162321   -8757.8686   -8279.8007 
  111400    338.09017   -8698.4914    48.373563   -8746.8649   -32496.491 
  111600    354.63144   -8711.0616     50.74027   -8761.8018   -19209.415 
  111800    280.53745   -8712.4916    40.138985   -8752.6306   -43951.345 
  112000    327.32508   -8696.1549    46.833307   -8742.9882   -39659.982 
  112200    271.91521   -8708.1106    38.905324   -8747.0159   -28634.536 
  112400    290.23952   -8709.8487    41.527147   -8751.3758    27438.821 
  112600    307.00218   -8703.1474    43.925529    -8747.073   -4261.8081 
  112800    347.30217   -8690.4017    49.691606   -8740.0933   -3164.1935 
  113000    264.71738    -8711.806    37.875466   -8749.6814    8256.7258 
  113200    351.10005   -8704.2206    50.235003   -8754.4556    17859.726 
  113400    333.98185   -8704.5089     47.78575   -8752.2947    29011.024 
  113600    246.84606   -8716.0735    35.318459   -8751.3919    862.96938 
  113800    296.93238   -8704.0146    42.484753   -8746.4994   -642.84393 
  114000    303.38581   -8709.5083    43.408102   -8752.9164   -36510.527 
  114200    234.62606    -8722.355    33.570035    -8755.925   -40343.974 
  114400    284.57368   -8705.5288    40.716484   -8746.2453    19684.418 
  114600     320.0909   -8703.2018    45.798249        -8749    6965.1528 
  114800    236.12931   -8720.5758    33.785117   -8754.3609   -13562.816 
  115000    297.96323   -8710.5125    42.632246   -8753.1448    3344.3512 
  115200    274.67351   -8703.9067    39.299978   -8743.2067    30158.782 
  115400    289.07998   -8707.7959     41.36124   -8749.1572    16787.518 
  115600      267.649    -8714.493     38.29492    -8752.788   -39593.144 
  115800    297.80566   -8697.8961    42.609701   -8740.5058    2872.6684 
  116000    341.84441   -8704.4422    48.910717    -8753.353    4179.3699 
  116200    281.45277   -8722.2321    40.269947    -8762.502   -9977.9512 
  116400    259.68958    -8711.707    37.156096   -8748.8631    21086.888 
  116600    305.25425   -8703.3107    43.675437   -8746.9862   -28620.194 
  116800    227.88832   -8716.8355    32.606006   -8749.4415    40540.841 
  117000    271.53013    -8718.691    38.850228   -8757.5412   -360.98325 
  117200     309.2502   -8705.2546    44.247173   -8749.5018   -25811.352 
  117400    277.86262   -8707.7144    39.756273   -8747.4707    -20648.82 
  117600    245.29778    -8716.142    35.096932   -8751.2389    2091.7996 
  117800    297.69485    -8698.982    42.593847   -8741.5759   -30054.292 
  118000    308.46877   -8702.9493    44.135367   -8747.0847    873.27261 
  118200    290.95043   -8715.3787    41.628862   -8757.0076    18298.737 
  118400     342.0661   -8700.8415    48.942435   -8749.7839    -55124.09 
  118600     317.8921   -8701.9833    45.483646   -8747.4669   -9393.4791 
  118800    320.49241   -8708.6526    45.855695   -8754.5083    19261.036 
  119000    307.59223   -8709.5538    44.009953   -8753.5638   -34744.892 
  119200    389.82778   -8693.9899    55.776123    -8749.766   -47459.707 
  119400    332.12422   -8710.3707    47.519963   -8757.8907   -12569.336 
  119600    253.42948   -8707.8423    36.260407   -8744.1027    25179.572 
  119800    360.83457   -8693.9302    51.627806    -8745.558    5109.9234 
  120000    305.89949   -8706.1966    43.767757   -8749.9643   -7370.8519 
  120200    279.63334   -8712.5783    40.009626    -8752.588    6394.4719 
  120400    335.15177   -8694.4424     47.95314   -8742.3956    24217.398 
  120600    342.35489   -8694.2327    48.983754   -8743.2165   -22348.332 
  120800    241.36961   -8709.2841    34.534894    -8743.819    623.45783 
  121000    318.38783   -8706.9196    45.554576   -8752.4742     42547.01 
  121200    342.89982   -8692.9036    49.061722   -8741.9653    33328.225 
  121400      297.556   -8711.6782     42.57398   -8754.2522    19803.208 
  121600       301.48   -8708.9995    43.135421   -8752.1349   -13362.835 
  121800    385.00447   -8690.2445    55.086009   -8745.3305    53768.095 
  122000    374.15171   -8701.1122    53.533209   -8754.6454    989.43599 
  122200    283.97338   -8708.3789    40.630594   -8749.0095    49007.449 
  122400    257.38031   -8717.4955    36.825687   -8754.3212   -5976.2923 
  122600     306.4208   -8705.8354    43.842346   -8749.6777   -2316.1854 
  122800    282.86672   -8702.0656    40.472254   -8742.5379   -13000.075 
  123000     275.6997   -8711.9017    39.446806   -8751.3485   -7588.1525 
  123200     252.5611   -8715.1875     36.13616   -8751.3237   -12391.947 
  123400    291.33831    -8697.773     41.68436   -8739.4573    69084.536 
  123600    329.15963   -8709.0614    47.095791   -8756.1572   -605.67215 
  123800    259.82886   -8712.5205    37.176024   -8749.6965   -4144.6746 
  124000     342.7206   -8701.5543     49.03608   -8750.5904    357.64728 
  124200    220.54548   -8716.8946      31.5554     -8748.45     18333.57 
  124400    383.72351   -8707.6314     54.90273   -8762.5341    53886.867 
  124600     242.0998   -8703.7566    34.639368    -8738.396    15184.972 
  124800    319.63397    -8704.085    45.732871   -8749.8179   -36942.165 
  125000    272.12604    -8712.049     38.93549   -8750.9845    2245.5165 
  125200    245.27007    -8726.247    35.092967     -8761.34     28872.66 
  125400     289.0491    -8710.048    41.356823   -8751.4048     12341.18 
  125600    309.49251   -8703.7777    44.281843   -8748.0596    54505.005 
  125800    270.23224    -8699.227    38.664527   -8737.8915    53895.555 
  126000    307.74893    -8703.429    44.032372   -8747.4614     12367.34 
  126200    225.77034   -8712.9509    32.302967   -8745.2539   -11281.171 
  126400    321.64691   -8704.7189     46.02088   -8750.7398    24939.981 
  126600    245.97578   -8704.4813    35.193939   -8739.6753    4309.9086 
  126800    320.36228   -8699.5611    45.837077   -8745.3982     4648.305 
  127000    297.70661   -8714.1977    42.595529   -8756.7932   -19569.562 
  127200    310.80578    -8699.078    44.469744   -8743.5478    20032.361 
  127400    314.07898   -8700.5004    44.938069   -8745.4384    19020.675 
  127600    318.45765   -8708.1939    45.564564   -8753.7585    29303.832 
  127800    272.33353   -8722.1259    38.965178   -8761.0911   -9149.0136 
  128000    251.48955   -8710.4678    35.982843   -8746.4506   -41759.261 
  128200    294.86584   -8703.6231    42.189075   -8745.8121   -54290.837 
  128400    249.16979    -8717.065    35.650935   -8752.7159   -7106.3653 
  128600    329.58015    -8704.082     47.15596    -8751.238    18938.782 
  128800    277.50889   -8708.3348    39.705661   -8748.0405   -25215.535 
  129000    326.14454   -8703.8835    46.664396   -8750.5479   -2817.4361 
  129200    340.84941   -8702.8283    48.768352   -8751.5967     21440.73 
  129400    234.97397   -8714.6828    33.619812   -8748.3026    -19440.04 
  129600    335.72468     -8697.11    48.035112   -8745.1451   -9515.2169 
  129800    286.41647   -8707.0889    40.980148    -8748.069   -6339.7817 
  130000    288.55078   -8711.9311    41.285523   -8753.2167    19445.094 
  130200    232.34491   -8725.5956     33.24365   -8758.8393   -21663.918 
  130400     305.9377   -8706.2444    43.773224   -8750.0176    11113.699 
  130600    352.06357   -8699.7592    50.372862    -8750.132   -11792.662 
  130800    259.82741   -8714.0627    37.175815   -8751.2385   -12646.263 
  131000    322.80968   -8707.6933    46.187248   -8753.8805    4736.2743 
  131200    311.68419   -8700.5323    44.595426   -8745.1277    -32158.59 
  131400    333.16478   -8701.1585    47.668844   -8748.8273   -16912.799 
  131600    267.00422    -8708.773    38.202666   -8746.9757   -19795.513 
  131800    323.14675   -8704.8788    46.235476   -8751.1143   -5475.3837 
  132000    346.96065   -8698.1674    49.642742   -8747.8102   -4308.6254 
  132200    259.40771   -8707.3305    37.115765   -8744.4463    -31486.97 
  132400    256.61269     -8708.78    36.715857   -8745.4959   -26834.593 
  132600    277.98712   -8714.0426    39.774087   -8753.8167   -8217.7891 
  132800    350.15216   -8699.1514     50.09938   -8749.2508     18070.38 
  133000    279.08561     -8702.69    39.931257   -8742.6213    8201.2719 
  133200    259.66485   -8710.2414    37.152557   -8747.3939   -9570.4787 
  133400    290.31169   -8705.5052    41.537472   -8747.0426    52395.775 
  133600    356.12655    -8691.031    50.954189   -8741.9852    18477.699 
  133800    324.61269   -8705.3184    46.445221   -8751.7636     27368.36 
  134000    314.79432   -8708.5133    45.040419   -8753.5537   -1739.9333 
  134200    318.46191    -8704.499    45.565174   -8750.0641    22763.492 
  134400    264.16331   -8711.1563    37.796192   -8748.9525    16067.542 
  134600    322.12875    -8709.764    46.089822   -8755.8538   -12080.912 
  134800    356.16748   -8698.2088    50.960044   -8749.1689    3426.9015 
  135000    301.80436   -8716.0622    43.181831    -8759.244   -26019.201 
  135200    293.45943   -8708.3138    41.987847   -8750.3016    -16328.15 
  135400    336.86993   -8681.1212    48.198973   -8729.3201    18263.591 
  135600    350.94123   -8692.8395    50.212279   -8743.0518    976.94633 
  135800     296.8551   -8711.2554    42.473696   -8753.7291    31032.344 
  136000    315.22038   -8710.2218    45.101379   -8755.3232   -11797.455 
  136200    314.56696   -8693.8269    45.007889   -8738.8348    6253.4763 
  136400    299.42866   -8713.2037    42.841918   -8756.0456    12004.293 
  136600    283.81508    -8708.193    40.607944   -8748.8009   -6660.9994 
  136800    320.07825   -8696.1459    45.796438   -8741.9424    10890.804 
  137000    279.08209   -8717.6004    39.930753   -8757.5311   -6303.3001 
  137200    284.59474   -8708.7044    40.719498   -8749.4239    51028.061 
  137400    330.99922   -8698.1124    47.358998   -8745.4714   -20298.466 
  137600    284.70821   -8709.6269    40.735733   -8750.3626    14592.298 
  137800    280.71691    -8707.224    40.164661   -8747.3887   -518.21219 
  138000    331.16707   -8694.9047    47.383014   -8742.2877    40511.117 
  138200    283.48086   -8709.6455    40.560124   -8750.2056   -1526.8415 
  138400    297.10096    -8704.176    42.508874   -8746.6849   -25999.886 
  138600    315.14505   -8711.6257    45.090601   -8756.7163   -9269.1491 
  138800    328.10373   -8707.3417    46.944715   -8754.2864   -11007.899 
  139000    236.27015   -8716.5142    33.805269   -8750.3195    14735.061 
  139200    263.33229   -8716.2214    37.677289   -8753.8986    6243.4595 
  139400    301.37805   -8707.6728    43.120835   -8750.7937   -12217.448 
  139600    303.15405   -8698.5374    43.374942   -8741.9123    8244.1788 
  139800    368.23561   -8694.1548    52.686739   -8746.8416    18807.064 
  140000    213.96204   -8712.6391    30.613449   -8743.2525    20762.778 
  140200    311.67448    -8699.642    44.594037   -8744.2361    32934.103 
  140400    313.40438   -8714.0393    44.841549   -8758.8808   -12920.091 
  140600    279.67323   -8712.6129    40.015333   -8752.6283   -32972.164 
  140800    329.02568   -8702.1933    47.076626   -8749.2699     39695.15 
  141000    243.91105   -8716.1427    34.898521   -8751.0412    7026.7137 
  141200     303.7037   -8711.8854    43.453586    -8755.339    6175.5593 
  141400    288.36257   -8703.0958    41.258594   -8744.3544    29490.345 
  141600    305.69645   -8706.2451    43.738707   -8749.9838   -8514.5853 
  141800    277.70197   -8714.7298    39.733288   -8754.4631   -25868.172 
  142000    275.32403   -8718.5948    39.393055   -8757.9878    21873.043 
  142200    336.56787   -8706.0495    48.155755   -8754.2052   -15501.134 
  142400    321.56275     -8702.03    46.008838   -8748.0389   -35796.698 
  142600    273.13524   -8701.5297    39.079884   -8740.6096   -36013.984 
  142800    284.67304   -8710.9759    40.730701   -8751.7066     21725.54 
  143000    283.79599    -8699.906    40.605214   -8740.5112    22876.082 
  143200    299.88222   -8690.7022    42.906812   -8733.6091   -27102.411 
  143400    290.38386   -8707.3665    41.547798   -8748.9143    4054.0757 
  143600    258.32114   -8715.4772      36.9603   -8752.4375    14563.384 
  143800    409.06904   -8699.5354    58.529141   -8758.0645   -17683.485 
  144000    288.83095   -8727.1715     41.32561   -8768.4972   -13497.604 
  144200     329.7781   -8723.9302    47.184282   -8771.1145    25047.903 
  144400    386.71525   -8714.5702    55.330785    -8769.901     11364.31 
  144600    269.58819   -8730.7243    38.572377   -8769.2967    9950.4066 
  144800    308.15881     -8730.05    44.091018   -8774.1411    10589.311 
  145000    279.04913    -8715.871    39.926037    -8755.797    23965.677 
  145200    347.73736   -8719.3442    49.753873   -8769.0981      13398.1 
  145400    284.88443   -8737.1621    40.760946    -8777.923    946.42132 
  145600    302.79381   -8733.1248    43.323401   -8776.4482   -12783.443 
  145800    366.40653   -8727.6837    52.425037   -8780.1088   -26458.203 
  146000    299.86074   -8734.7139    42.903739   -8777.6177   -6149.4906 
  146200    349.15864   -8725.2197    49.957227   -8775.1769   -16338.054 
  146400    292.37249   -8744.3607    41.832329    -8786.193   -17922.093 
  146600    272.74486   -8733.9778    39.024029   -8773.0018   -7501.3639 
  146800    339.15867   -8725.3277    48.526443   -8773.8541   -30402.303 
  147000    345.93889   -8718.4183     49.49655   -8767.9148   -19823.365 
  147200    308.03911   -8730.2543    44.073892   -8774.3282    -27247.69 
  147400    280.05831   -8742.3647    40.070431   -8782.4351    3550.1565 
  147600    308.27667   -8725.8337    44.107881   -8769.9416    4470.6555 
  147800    314.77045   -8733.3138    45.037004   -8778.3508   -441.46426 
  148000    262.85152   -8737.6928    37.608502   -8775.3013   -11016.485 
  148200     334.8716   -8723.2318    47.913054   -8771.1448   -15109.439 
  148400     330.7379   -8731.2642    47.321609   -8778.5858     -16945.2 
  148600    279.71859    -8737.873    40.021824   -8777.8948    7264.9292 
  148800    375.30329   -8720.6151    53.697976   -8774.3131   -12313.654 
  149000    258.81777   -8735.7919    37.031358   -8772.8233    9275.7915 
  149200    272.43802   -8737.2527    38.980128   -8776.2329   -32658.112 
  149400    343.51699   -8728.8504    49.150027   -8778.0004   -18662.394 
  149600    314.92197   -8714.0773    45.058683    -8759.136   -43295.784 
  149800     329.6172   -8735.7879    47.161261   -8782.9492    -14550.22 
  150000     293.9995   -8737.3993     42.06512   -8779.4644   -20243.201 
  150200    313.38754    -8722.877    44.839138   -8767.7161   -34451.675 
  150400    295.56606   -8734.9837    42.289261    -8777.273   -27187.724 
  150600    270.52047   -8738.0475    38.705766   -8776.7532    33433.414 
  150800     369.1657   -8724.8852    52.819816    -8777.705   -21925.651 
  151000    248.83033   -8743.4063    35.602365   -8779.0087   -6302.3928 
  151200     316.1226   -8733.3414    45.230469   -8778.5718    7112.1817 
  151400    339.68091   -8728.4919    48.601165   -8777.0931    -17558.46 
  151600    273.25177   -8746.7267    39.096557   -8785.8233    6063.8352 
  151800    337.19967   -8735.2319    48.246153   -8783.4781    2062.2305 
  152000    303.54262   -8735.7205    43.430539    -8779.151    27778.268 
  152200    300.01889   -8733.1116    42.926367   -8776.0379   -26255.528 
  152400    234.83206    -8748.524    33.599508   -8782.1235   -17273.923 
  152600    277.65607   -8734.6924    39.726721   -8774.4191    20379.268 
  152800    288.51347   -8728.0219    41.280185   -8769.3021    2707.5651 
  153000     302.4852   -8744.8195    43.279244   -8788.0987    38457.758 
  153200    277.18717   -8736.3446    39.659631   -8776.0042    23290.783 
  153400     269.3258   -8733.1598    38.534835   -8771.6947    1415.9046 
  153600    318.88463   -8740.0171    45.625657   -8785.6428    39333.422 
  153800    266.72342   -8744.7856    38.162489   -8782.9481     11621.18 
  154000    333.47135   -8729.0254    47.712708   -8776.7381    2061.7241 
  154200    286.47936   -8733.9061    40.989146   -8774.8952    -17745.01 
  154400    236.15375   -8750.3591    33.788614   -8784.1477    21732.465 
  154600    310.68003   -8737.8779    44.451752   -8782.3297    17960.058 
  154800    288.56545    -8733.009    41.287621   -8774.2966    16518.574 
  155000    301.29862     -8733.29     43.10947   -8776.3994   -13122.116 
  155200    262.94724   -8742.8643    37.622198   -8780.4865    14184.878 
  155400    281.79214   -8728.2671    40.318505   -8768.5857   -24909.159 
  155600    307.48837   -8729.7899    43.995092    -8773.785    14331.463 
  155800    273.10451   -8736.9821    39.075489   -8776.0576    4349.0995 
  156000    315.70626   -8737.8542    45.170898   -8783.0251    24058.014 
  156200    332.37957    -8748.007    47.556497   -8795.5635   -12253.287 
  156400    325.60342   -8734.3441    46.586973    -8780.931   -33308.483 
  156600    293.91822   -8731.0031    42.053491   -8773.0566     10450.21 
  156800    279.98081    -8742.493    40.059342   -8782.5524    3120.3804 
  157000    271.46951   -8741.2763    38.841554   -8780.1179    -12190.66 
  157200    357.98181   -8724.7677    51.219637   -8775.9873    9775.5102 
  157400    285.04446   -8739.7291    40.783843   -8780.5129    60.658461 
  157600    313.76902   -8736.1588     44.89372   -8781.0525    20956.895 
  157800    311.93609   -8735.1201    44.631467   -8779.7516    25120.467 
  158000     218.3077   -8749.4012    31.235221   -8780.6364     2215.286 
  158200    302.21395   -8736.0971    43.240434   -8779.3375    15014.009 
  158400     319.0862   -8726.8563    45.654496   -8772.5108     35961.22 
  158600     277.4684    -8744.026    39.699868   -8783.7259   -19244.357 
  158800    316.17328   -8738.0329    45.237719   -8783.2706    32781.061 
  159000    311.47219   -8731.2688    44.565093   -8775.8339   -8299.4726 
  159200    308.52654    -8736.206    44.143633   -8780.3496    7750.1485 
  159400    272.33967   -8744.1852    38.966056   -8783.1513   -11117.452 
  159600    310.21465   -8729.1131    44.385165   -8773.4982    18503.788 
  159800    302.04925   -8734.7143    43.216869   -8777.9311     12030.68 
  160000    295.50221   -8739.0846    42.280127   -8781.3647   -118.06008 
  160200    313.22034    -8724.848    44.815216   -8769.6632   -35916.614 
  160400    318.29411   -8727.4153    45.541166   -8772.9565   -50493.156 
  160600    298.13387   -8734.3323    42.656661    -8776.989    1816.0377 
  160800     293.2765   -8733.6083    41.961673     -8775.57    28958.588 
  161000    328.71634   -8724.6206    47.032367    -8771.653   -21357.242 
  161200    251.90251     -8739.32    36.041929   -8775.3619   -37786.505 
  161400    360.79082   -8732.0717    51.621548   -8783.6933   -11166.587 
  161600    253.08287    -8735.763    36.210814   -8771.9738   -29767.968 
  161800    312.24699   -8730.6864     44.67595   -8775.3623   -16280.788 
  162000    308.06718   -8736.8079    44.077908   -8780.8858   -20190.281 
  162200    309.24076   -8739.6919    44.245823   -8783.9377   -3204.5984 
  162400    326.87931   -8721.4208    46.769527   -8768.1903   -15902.627 
  162600    303.99236    -8735.442    43.494887   -8778.9368    1681.8851 
  162800    238.98577   -8739.9326    34.193817   -8774.1264    6560.3574 
  163000    301.52483   -8730.3229    43.141836   -8773.4647   -14725.135 
  163200    374.36784   -8731.3167    53.564132   -8784.8808   -4854.7021 
  163400    284.75283   -8739.7381    40.742117   -8780.4802    8337.1431 
  163600     285.7706   -8744.7183    40.887738    -8785.606   -36779.868 
  163800    315.66606   -8726.9561    45.165147   -8772.1213    -4438.739 
  164000    279.76428   -8737.6778    40.028361   -8777.7061    48535.341 
  164200    294.68452   -8742.1164    42.163132   -8784.2795    11098.746 
  164400    354.54768   -8721.2734    50.728285   -8772.0017    43559.854 
  164600    311.37841   -8739.0078    44.551675   -8783.5595    15428.877 
  164800    311.68382   -8735.9821    44.595373   -8780.5775   -19918.395 
  165000    330.76873   -8718.1965    47.326021   -8765.5225    5294.0192 
  165200     337.8718   -8720.4653     48.34232   -8768.8076   -6391.6236 
  165400    265.56648   -8739.1529    37.996954   -8777.1499   -37733.984 
  165600    274.18425   -8728.2882    39.229976   -8767.5181   -9505.2641 
  165800    355.70755   -8723.7537    50.894239   -8774.6479    20035.247 
  166000     228.7307   -8741.2307    32.726533   -8773.9572   -10323.979 
  166200    312.59507   -8727.7145    44.725753   -8772.4403   -6270.6958 
  166400    285.94017   -8732.7888       40.912   -8773.7008   -23737.626 
  166600    265.50523   -8745.3363    37.988191   -8783.3245    40656.423 
  166800    356.58731   -8728.3667    51.020113   -8779.3869    30374.116 
  167000    317.63222    -8731.093    45.446463   -8776.5394   -12884.246 
  167200    269.55186   -8742.4884    38.567178   -8781.0556    13951.396 
  167400    319.66807   -8744.5594     45.73775   -8790.2971    15413.609 
  167600    308.37398   -8731.3231    44.121804    -8775.445   -35604.851 
  167800    353.84132   -8728.8082     50.62722   -8779.4354   -16628.946 
  168000    247.97114   -8746.2639    35.479433   -8781.7433    46433.434 
  168200    285.92255   -8732.3224    40.909479   -8773.2319   -63840.972 
  168400    297.28988   -8730.5067    42.535904   -8773.0426   -41536.843 
  168600    274.50053   -8748.4361    39.275229   -8787.7113    5435.0383 
  168800    293.96686   -8739.5547    42.060449   -8781.6152    47264.815 
  169000    280.26358   -8731.1719      40.0998   -8771.2717    3363.0577 
  169200    317.83129   -8720.1219    45.474945   -8765.5969    13418.092 
  169400    328.44428   -8720.2946    46.993441    -8767.288   -23661.885 
  169600    296.75614   -8737.2395    42.459537    -8779.699   -42482.766 
  169800    264.98183   -8731.5183    37.913304   -8769.4316    13505.473 
  170000    286.68495   -8720.8268    41.018562   -8761.8454    18100.938 
  170200    238.18537   -8741.2876    34.079297   -8775.3669    15971.707 
  170400    316.65893   -8730.6666    45.307206   -8775.9738   -6705.8354 
  170600    353.87094    -8721.627    50.631458   -8772.2585    1156.3275 
  170800    341.18375   -8723.8553    48.816189   -8772.6714   -12000.427 
  171000    300.58062   -8735.3458     43.00674   -8778.3525     18392.35 
  171200    300.65226   -8725.1183    43.016989   -8768.1353    16978.141 
  171400    327.64119   -8716.5422    46.878536   -8763.4207    57487.036 
  171600    277.72656   -8736.1851    39.736806   -8775.9219   -26959.318 
  171800     318.5375   -8734.1414    45.575989   -8779.7174   -3205.9984 
  172000    286.83315   -8724.5021    41.039767   -8765.5419    6509.5821 
  172200    308.06583   -8738.8363    44.077715    -8782.914     41930.96 
  172400    288.97644   -8739.7699    41.346426   -8781.1163    1746.3523 
  172600    357.80747    -8718.134    51.194692   -8769.3287     20593.64 
  172800    244.28858   -8734.0868    34.952537   -8769.0393   -9381.2701 
  173000    335.06347   -8735.5414    47.940507   -8783.4819    2189.2806 
  173200    275.32208   -8736.4682    39.392776    -8775.861   -24011.119 
  173400    313.55198   -8727.1359    44.862667   -8771.9986    29471.899 
  173600    251.70819   -8743.4842    36.014127   -8779.4983   -21567.855 
  173800    247.50016   -8758.2458    35.412046   -8793.6578   -8707.0201 
  174000    325.61814   -8741.3782    46.589079   -8787.9672    756.86747 
  174200    323.02118   -8728.2335    46.217509    -8774.451    26431.523 
  174400    248.09495   -8743.7731    35.497149   -8779.2702   -69.282328 
  174600    317.95183   -8737.5657    45.492193   -8783.0579    4962.9333 
  174800    276.66272   -8732.7075    39.584593   -8772.2921       -12809 
  175000    269.07063   -8745.0929    38.498324   -8783.5912   -2429.6443 
  175200    345.59078   -8734.1896    49.446742   -8783.6364    33295.011 
  175400    302.64645    -8729.091    43.302317   -8772.3933   -20995.519 
  175600    292.24351   -8745.2703    41.813875   -8787.0841   -17357.397 
  175800    308.44116   -8747.1582    44.131416   -8791.2896   -31821.916 
  176000    296.63127   -8736.0474     42.44167   -8778.4891   -23913.764 
  176200    315.34378   -8737.9177    45.119035   -8783.0367   -14419.985 
  176400    212.36716   -8751.9662    30.385256   -8782.3514   -15594.514 
  176600    244.73998   -8730.6885    35.017123   -8765.7056    36411.553 
  176800    334.51351   -8726.1919     47.86182   -8774.0538   -43016.286 
  177000    282.60309   -8742.4003    40.434535   -8782.8348   -2746.5696 
  177200    272.07303   -8731.5611    38.927905    -8770.489    30176.593 
  177400     334.8536   -8725.6451    47.910478   -8773.5556   -40234.089 
  177600    285.00218   -8740.2465    40.777794   -8781.0243    28296.446 
  177800    335.86681   -8727.6547    48.055447   -8775.7102   -29539.523 
  178000    323.58874   -8727.0371    46.298715   -8773.3358   -15942.155 
  178200    308.65085   -8737.3282    44.161419   -8781.4896   -14212.542 
  178400    226.30086    -8752.665    32.378874   -8785.0439   -10357.795 
  178600    284.70258   -8742.5205    40.734928   -8783.2554    33211.334 
  178800    299.71183    -8729.844    42.882434   -8772.7264    37149.244 
  179000    370.33551   -8724.2814    52.987191   -8777.2686    12363.209 
  179200    303.56827   -8741.5576    43.434209   -8784.9918    31415.494 
  179400    360.49407   -8733.2157    51.579089   -8784.7948   -9093.6887 
[...]
  950000    351.96109   -8727.0286      50.3582   -8777.3868   -1384.6733 
  950200    244.03261   -8739.1884    34.915914   -8774.1043    37672.692 
  950400    287.02193   -8745.5432    41.066778     -8786.61    23058.868 
  950600    304.49608   -8735.4249    43.566958   -8778.9919   -35361.666 
  950800    318.94122   -8733.3313    45.633753    -8778.965   -49895.317 
  951000    277.30233   -8732.9392    39.676107   -8772.6153   -19866.875 
  951200    380.45762    -8716.117     54.43545   -8770.5524    122.02302 
  951400    306.66035   -8734.5547     43.87662   -8778.4313    1998.2044 
  951600    304.22211   -8738.2667     43.52776   -8781.7945    2954.5102 
  951800    283.78355    -8737.477    40.603434   -8778.0804   -9033.6314 
  952000    367.55753   -8727.1915     52.58972   -8779.7812    8189.0159 
  952200    375.90713    -8721.995    53.784372   -8775.7793    -1765.415 
  952400    293.95683   -8740.6337    42.059014   -8782.6927   -8509.6648 
  952600    295.03055   -8730.5768    42.212641   -8772.7895   -21164.446 
  952800    314.11706   -8734.3578    44.943518   -8779.3013   -17439.978 
  953000     320.8338   -8733.0285    45.904542    -8778.933     1078.248 
  953200    281.46063   -8739.5629    40.271072   -8779.8339    30892.637 
  953400    274.12431   -8739.2857      39.2214   -8778.5071    30470.548 
  953600     355.6829   -8726.0537    50.890711   -8776.9444    9008.7218 
  953800    292.14576   -8734.6433    41.799888   -8776.4432   -32069.609 
  954000    272.08329   -8736.5987    38.929373   -8775.5281    34228.775 
  954200    343.61527    -8724.711    49.164089    -8773.875    -12146.23 
  954400    298.01301   -8717.8016    42.639369    -8760.441   -14293.671 
  954600    264.90395   -8737.6598    37.902161   -8775.5619   -31128.234 
  954800    348.05413   -8731.2571    49.799196   -8781.0563   -21135.611 
  955000    370.50846   -8717.9314    53.011937   -8770.9434   -6845.5714 
  955200    317.44266   -8738.3608    45.419341   -8783.7801    33299.111 
  955400    259.69306   -8737.4916    37.156593   -8774.6482      27114.5 
  955600    300.51464   -8728.9154    42.997299   -8771.9127   -17311.511 
  955800    302.62592   -8741.4379    43.299378   -8784.7373    25598.345 
  956000    271.46613   -8735.2582    38.841071   -8774.0992   -14037.897 
  956200    347.49379   -8714.1434    49.719024   -8763.8625    4337.9366 
  956400    291.01804   -8731.5678    41.638536   -8773.2063   -26175.214 
  956600    274.08767   -8736.1622    39.216158   -8775.3784   -11245.782 
  956800    317.11527   -8718.7924    45.372498   -8764.1649   -16365.521 
  957000    254.05974   -8728.1593    36.350583   -8764.5098   -36741.004 
  957200    328.86686   -8735.7574    47.053902   -8782.8113   -15511.923 
  957400    235.16558   -8745.8598    33.647228    -8779.507   -8232.5248 
  957600    344.48426   -8732.5914    49.288423   -8781.8798   -17321.502 
  957800    295.71195   -8730.7314    42.310135   -8773.0415   -32500.886 
  958000     265.8476   -8748.7985    38.037177   -8786.8357   -32622.255 
  958200     324.4206   -8736.3464    46.417737   -8782.7641    12868.801 
  958400    265.87038   -8736.5569    38.040437   -8774.5973    8123.1833 
  958600    316.19759   -8718.8112    45.241198   -8764.0524    29470.209 
  958800    312.55387   -8730.4525    44.719858   -8775.1723   -17506.556 
  959000    291.08844   -8736.5416    41.648609   -8778.1903    36841.458 
  959200    273.02612   -8729.5042    39.064272   -8768.5685   -12107.684 
  959400    346.32161   -8723.3728     49.55131   -8772.9241    15002.583 
  959600    272.67119   -8742.2184    39.013489   -8781.2319   -18580.387 
  959800    333.74147   -8727.2626    47.751357   -8775.0139   -8536.0932 
  960000    305.65398   -8730.0425     43.73263   -8773.7751    11964.772 
  960200    304.02073   -8738.8484    43.498946   -8782.3473    12119.144 
  960400    244.57571   -8746.3811    34.993619   -8781.3747    6510.6811 
  960600    292.13201   -8733.2109    41.797921   -8775.0088    8838.2885 
  960800    339.62667   -8728.1162    48.593404   -8776.7096   -11325.798 
  961000    278.41229   -8740.2331    39.834919    -8780.068   -9095.8766 
  961200    244.57978   -8735.9584    34.994201   -8770.9526    11818.431 
  961400    396.01505   -8714.5241    56.661391   -8771.1854    5302.8986 
  961600    296.17287   -8728.5043    42.376083   -8770.8804    -6595.419 
  961800    300.44695   -8738.3131    42.987614   -8781.3007   -9548.7675 
  962000    273.85162   -8742.9619    39.182383   -8782.1443   -13446.755 
  962200    357.76576   -8726.9416    51.188726   -8778.1303   -2396.0459 
  962400    279.29049   -8737.4239    39.960571   -8777.3844    15726.779 
  962600    263.51388   -8747.9961    37.703272   -8785.6994   -5326.1582 
  962800    307.51536   -8728.0652    43.998954   -8772.0642    32026.782 
  963000    308.67639   -8728.5353    44.165073   -8772.7004    20983.022 
  963200    211.31972    -8744.705    30.235389   -8774.9404   -11513.934 
  963400    295.23188   -8733.1002    42.241447   -8775.3417    4012.0449 
  963600    324.31479   -8734.9777    46.402598   -8781.3803    -3246.504 
  963800    240.60248   -8746.1467    34.425135   -8780.5718     17350.03 
  964000    293.00262   -8738.6575    41.922487     -8780.58    17608.905 
  964200    298.77546   -8726.0225    42.748459    -8768.771   -54057.703 
  964400    241.94973    -8740.945    34.617897   -8775.5629    21386.925 
  964600    300.11058   -8738.0884    42.939486   -8781.0279   -2989.7167 
  964800    300.51655   -8732.4814    42.997572    -8775.479    5791.9978 
  965000    230.33763   -8737.5656     32.95645    -8770.522   -33198.146 
  965200     302.1574   -8738.3489    43.232343   -8781.5813    9604.6233 
  965400    358.33032   -8728.4174    51.269502   -8779.6869   -10437.672 
  965600    250.07734   -8743.9053    35.780787   -8779.6861    27450.459 
  965800     281.5054   -8747.9782    40.277478   -8788.2557    13403.644 
  966000    252.57748   -8734.3611    36.138504   -8770.4996    6368.0112 
  966200    343.49059   -8724.3939     49.14625   -8773.5402   -1922.9029 
  966400    262.76869   -8736.2846    37.596651   -8773.8812    -17871.72 
  966600    280.75537   -8741.0303    40.170165   -8781.2004   -7045.1922 
  966800    376.65879    -8722.048    53.891919   -8775.9399    13112.954 
  967000     341.0484   -8732.6396    48.796823   -8781.4364   -17918.398 
  967200    273.73047   -8741.7303     39.16505   -8780.8954    14126.892 
  967400    286.43779   -8727.6356      40.9832   -8768.6188   -12740.036 
  967600    326.49959   -8729.4222    46.715196   -8776.1374    1906.5092 
  967800    280.06014    -8740.554    40.070691   -8780.6247    -3674.925 
  968000    296.49976     -8727.84    42.422854   -8770.2629    22945.844 
  968200    309.00256   -8731.3007    44.211742   -8775.5125   -3236.7595 
  968400    281.94347   -8734.1213    40.340157   -8774.4615    22229.028 
  968600    367.26304   -8721.0122    52.547586   -8773.5598   -983.99979 
  968800    315.17696   -8736.0988    45.095167    -8781.194    18912.397 
  969000    374.28543   -8727.4341    53.552341   -8780.9865     6395.427 
  969200    349.58583   -8720.0147    50.018349    -8770.033    31859.126 
  969400    318.68259   -8736.8686     45.59675   -8782.4654   -7704.7894 
  969600    330.07523   -8729.8208    47.226795   -8777.0476   -20431.574 
  969800    298.80159   -8724.8885    42.752198   -8767.6407    18606.201 
  970000    267.17222   -8742.8728    38.226702   -8781.0995    33076.118 
  970200    316.68024   -8733.0359    45.310255   -8778.3462   -7597.7792 
  970400    333.97078   -8724.8803    47.784166   -8772.6644   -5941.3107 
  970600      253.204   -8739.7995    36.228145   -8776.0276    14832.185 
  970800    296.32098   -8739.2437    42.397275   -8781.6409    35294.021 
  971000    346.54996   -8729.0664    49.583981   -8778.6504   -8341.4802 
  971200    269.51166   -8742.0311    38.561426   -8780.5926    7956.0702 
  971400    268.77659   -8738.5497    38.456253    -8777.006    10976.545 
  971600    322.04132   -8727.6168    46.077312   -8773.6941   -4216.5376 
  971800    281.13912   -8730.8614    40.225071   -8771.0865    9775.0406 
  972000    301.97597   -8731.0846    43.206384    -8774.291   -23442.519 
  972200    300.22905   -8730.2142    42.956437   -8773.1706    4960.5557 
  972400    299.29673   -8743.0953    42.823041   -8785.9183    41464.323 
  972600    276.53677   -8728.3842    39.566571   -8767.9508    18440.006 
  972800    297.65916    -8731.222    42.588739   -8773.8107   -18415.423 
  973000    283.86748   -8742.5902    40.615441   -8783.2057   -22482.841 
  973200    245.20804   -8743.4058    35.084093   -8778.4899   -26978.998 
  973400    249.00187   -8732.5592    35.626909   -8768.1862   -14186.369 
  973600    240.94452     -8736.61    34.474073   -8771.0841    2397.6813 
  973800    260.50898   -8752.6153    37.273334   -8789.8886    23575.759 
  974000    252.17431   -8735.7662    36.080818    -8771.847    606.85847 
  974200    320.77833   -8730.8374    45.896605    -8776.734   -43710.957 
  974400    261.97251    -8744.809    37.482733   -8782.2917   -22816.251 
  974600    275.67378   -8727.7989    39.443096    -8767.242   -29083.413 
  974800    322.34594   -8732.2186    46.120897   -8778.3395    32206.122 
  975000    292.72883   -8741.7737    41.883314   -8783.6571    30300.905 
  975200    357.59332   -8722.5656    51.164052   -8773.7296    3705.7171 
  975400    287.96724   -8736.3124    41.202031   -8777.5145    2480.8187 
  975600    278.63164   -8738.3579    39.866303   -8778.2242   -22770.376 
  975800    307.63034   -8733.4033    44.015405   -8777.4187    17613.075 
  976000    273.91176   -8738.7014    39.190989   -8777.8924   -40666.034 
  976200    289.73706   -8746.5901    41.455255   -8788.0454    -18205.48 
  976400    303.50418   -8732.4172    43.425039   -8775.8423    19977.905 
  976600    293.51648   -8738.0335     41.99601   -8780.0295    25843.325 
  976800     236.5157   -8748.6729    33.840401   -8782.5133    20506.514 
  977000    308.25077   -8729.3296    44.104176   -8773.4337    19497.203 
  977200    306.35021   -8735.3509    43.832246   -8779.1832   -29410.753 
  977400    279.90177   -8744.1308    40.048032   -8784.1788    29222.546 
  977600    304.63308   -8729.9602    43.586561   -8773.5467    40138.591 
  977800    306.90219     -8722.08    43.911222   -8765.9912     6260.064 
  978000    227.83625   -8742.0057    32.598556   -8774.6042   -28258.562 
  978200    314.53418   -8730.2003    45.003199   -8775.2035   -12962.063 
  978400    281.03203   -8724.6878    40.209749   -8764.8975   -7030.1382 
  978600    266.92861   -8737.1936    38.191848   -8775.3854    44716.226 
  978800    262.67941   -8742.7916    37.583877   -8780.3754   -48556.318 
  979000     304.8029    -8726.421    43.610859   -8770.0319     20148.61 
  979200    359.60251   -8734.0608    51.451525   -8785.5123     11288.07 
  979400     276.7482   -8745.9653    39.596823   -8785.5622    8049.4572 
  979600    299.39498   -8735.7199      42.8371    -8778.557    1877.0545 
  979800    354.45086   -8730.7833    50.714433   -8781.4978    12274.613 
  980000    259.30205    -8744.435    37.100647   -8781.5357   -19313.131 
  980200    334.41568   -8732.7109    47.847822   -8780.5587   -43656.393 
  980400    334.87228   -8725.0631    47.913151   -8772.9763    22126.142 
  980600    283.61771   -8732.3937    40.579705   -8772.9734    5533.5343 
  980800    272.51598     -8740.22    38.991282   -8779.2113   -16259.809 
  981000    350.55122   -8723.6786    50.156477   -8773.8351   -10532.478 
  981200    321.93609   -8730.3954    46.062256   -8776.4577    37.728314 
  981400    348.93496   -8734.1843    49.925224   -8784.1095   -16685.998 
  981600    285.94015   -8742.0209    40.911997   -8782.9329    1836.7906 
  981800    323.54182   -8736.4161    46.292002   -8782.7081   -9836.5427 
  982000    255.19837   -8731.6541    36.513497   -8768.1676    16788.003 
  982200    259.93039   -8742.4833     37.19055   -8779.6738   -13900.271 
  982400    379.82829   -8721.1337    54.345407   -8775.4791   -25358.045 
  982600    308.22701   -8735.9305    44.100777   -8780.0313   -13898.803 
  982800    283.03933   -8738.0948    40.496951   -8778.5917    38211.342 
  983000    346.57595    -8722.906      49.5877   -8772.4937   -14264.915 
  983200     298.7457   -8737.1626      42.7442   -8779.9068   -18909.898 
  983400    306.45113   -8736.7526    43.846685   -8780.5992   -25115.335 
  983600    361.47186   -8716.9023    51.718989   -8768.6213    41005.845 
  983800    326.64713   -8730.8667    46.736306    -8777.603    29627.975 
  984000    331.72177   -8734.1309     47.46238   -8781.5933    14557.426 
  984200     286.4708   -8743.3831    40.987921    -8784.371        31167 
  984400    294.54176   -8739.5371    42.142706   -8781.6798   -13992.204 
  984600    245.23205   -8730.4595    35.087527    -8765.547   -32338.232 
  984800    277.83808   -8741.7074    39.752762   -8781.4601    52605.561 
  985000    287.66952    -8733.922    41.159433   -8775.0814    84.820117 
  985200    260.83628    -8734.798    37.320164   -8772.1181    57126.267 
  985400    280.67595   -8739.2205    40.158801   -8779.3793     22905.49 
  985600    338.92539   -8727.7964    48.493067   -8776.2895    17599.086 
  985800    324.32014   -8730.2964    46.403363   -8776.6998    4612.9951 
  986000    298.77455   -8738.3235    42.748329   -8781.0718   -2376.1219 
  986200    275.57387   -8729.1572    39.428801   -8768.5861   -5545.6196 
  986400    343.98606   -8726.4457    49.217141   -8775.6628    3147.0622 
  986600     274.3301    -8737.763    39.250844   -8777.0138    26975.615 
  986800    266.81317   -8731.6165     38.17533   -8769.7918     20876.75 
  987000    353.93437   -8718.5517    50.640534   -8769.1922   -4086.6245 
  987200    298.90132   -8739.3335    42.766467   -8782.0999   -15218.247 
  987400    300.92227   -8732.8735    43.055622   -8775.9292   -13827.273 
  987600    328.45988   -8725.6908    46.995673   -8772.6865    29300.015 
  987800    306.73753   -8734.4115    43.887663   -8778.2991    1978.7875 
  988000    284.20377   -8743.5843    40.663558   -8784.2478   -1943.6406 
  988200    351.86957   -8724.5765    50.345105   -8774.9216    -32433.95 
  988400    318.38868   -8733.6347    45.554697   -8779.1894   -4253.6147 
  988600    234.31926   -8751.1304    33.526138   -8784.6566   -2389.0555 
  988800    250.15286    -8751.021    35.791592   -8786.8126     19273.09 
  989000    357.98226   -8731.8504    51.219702   -8783.0701   -6085.8547 
  989200    306.48112   -8731.0717    43.850976   -8774.9226    22705.817 
  989400    260.33943   -8748.0025    37.249075   -8785.2516    -22104.64 
  989600    307.54858   -8735.4881    44.003706   -8779.4918   -8908.7047 
  989800    283.25598    -8730.517    40.527949   -8771.0449   -17599.721 
  990000    302.40964   -8740.6349    43.268433   -8783.9033    -16527.09 
  990200    275.79209   -8741.6283    39.460024   -8781.0884   -10828.414 
  990400     316.8095   -8726.6375    45.328749   -8771.9662    4407.7909 
  990600    252.94622   -8740.3489    36.191262   -8776.5402    9425.0624 
  990800    258.49441   -8753.3483    36.985091   -8790.3334    12645.724 
  991000    254.31094   -8738.6809    36.386525   -8775.0675   -15534.824 
  991200    405.67791   -8725.2951    58.043941    -8783.339   -11040.764 
  991400    293.50247   -8740.5713    41.994006   -8782.5653     16891.88 
  991600     326.7721   -8736.8698    46.754186    -8783.624   -6835.6143 
  991800    303.43367   -8734.7443     43.41495   -8778.1593   -16765.526 
  992000    317.58926     -8735.28    45.440316   -8780.7204   -32069.076 
  992200    296.85615   -8733.6564    42.473847   -8776.1302    12166.847 
  992400    300.86915   -8729.7167    43.048021   -8772.7647   -960.12199 
  992600    357.97917   -8726.0784    51.219259   -8777.2976    12256.842 
  992800    311.36882   -8741.7085    44.550303   -8786.2588    -12845.56 
  993000    309.83073   -8728.1126    44.330235   -8772.4429   -6680.5553 
  993200    346.42602   -8724.1227    49.566248   -8773.6889    62022.552 
  993400    328.51795   -8733.3161    47.003981   -8780.3201   -578.08362 
  993600    250.77778   -8744.3881    35.881005   -8780.2691    44345.306 
  993800    329.51829   -8729.1875    47.147109   -8776.3346   -10373.687 
  994000     355.1497   -8732.7404    50.814422   -8783.5548   -502.16243 
  994200    283.95551   -8743.2219    40.628038     -8783.85    4117.1048 
  994400     259.6054   -8740.4259    37.144051   -8777.5699    46835.185 
  994600    321.31657    -8727.447    45.973615   -8773.4206     23163.93 
  994800    270.46134   -8741.4777    38.697306    -8780.175   -2068.2497 
  995000    236.12963   -8742.7724    33.785164   -8776.5575     19559.23 
  995200    284.23312   -8734.0657    40.667757   -8774.7334    36584.194 
  995400    316.32531   -8740.7477    45.259471   -8786.0072    18802.258 
  995600    258.73394   -8748.7663    37.019363   -8785.7856   -5945.8855 
  995800    307.48614    -8731.742    43.994774   -8775.7367   -9599.7939 
  996000    292.83064   -8734.2361     41.89788   -8776.1339    5759.5956 
  996200    271.19243   -8744.4882     38.80191   -8783.2901   -29884.238 
  996400    277.82106   -8733.8485    39.750327   -8773.5988   -18551.672 
  996600    299.43364   -8727.2626    42.842631   -8770.1052   -4328.7746 
  996800    286.30576   -8745.4282    40.964308   -8786.3925   -23517.736 
  997000    341.39327   -8734.7606    48.846167   -8783.6068   -14561.754 
  997200    267.42395   -8734.8762    38.262719   -8773.1389    2898.2078 
  997400     235.5935   -8749.7592    33.708455   -8783.4676     10093.84 
  997600    326.96702   -8734.8845    46.782076   -8781.6666    10794.811 
  997800    321.45532   -8730.7708    45.993468   -8776.7643    57169.554 
  998000    215.31472   -8742.8316     30.80699   -8773.6386   -5362.8937 
  998200    277.27973   -8738.6538    39.672873   -8778.3267   -14226.286 
  998400    313.84513   -8732.5863     44.90461   -8777.4909    3538.5682 
  998600    346.39026   -8732.2557    49.561131   -8781.8168    3641.1376 
  998800    264.80827   -8749.7421    37.888471   -8787.6306    17239.642 
  999000    380.49433   -8734.7516    54.440704   -8789.1923    24940.829 
  999200     339.0314   -8731.7037    48.508234    -8780.212   -21468.207 
  999400    240.70478   -8749.7051     34.43977   -8784.1448   -12227.105 
  999600    304.19111   -8740.6184    43.523324   -8784.1417    -18590.42 
  999800    249.92251    -8730.671    35.758634   -8766.4296    29320.874 
 1000000    272.55064   -8735.2277     38.99624   -8774.2239    41828.111 
Loop time of 2326.9 on 8 procs for 1000000 steps with 49 atoms

Performance: 9.283 ns/day, 2.585 hours/ns, 429.757 timesteps/s
99.4% CPU use with 8 MPI tasks x no OpenMP threads

MPI task timing breakdown:
Section |  min time  |  avg time  |  max time  |%varavg| %total
---------------------------------------------------------------
Pair    | 1961.7     | 1990.6     | 2009.7     |  36.5 | 85.55
Neigh   | 0.63255    | 0.64323    | 0.6585     |   0.9 |  0.03
Comm    | 30.564     | 49.679     | 78.685     | 232.1 |  2.13
Output  | 0.07699    | 0.084738   | 0.13226    |   6.2 |  0.00
Modify  | 284.06     | 284.27     | 284.46     |   0.8 | 12.22
Other   |            | 1.672      |            |       |  0.07

Nlocal:    6.125 ave 7 max 6 min
Histogram: 7 0 0 0 0 0 0 0 0 1
Nghost:    597 ave 613 max 583 min
Histogram: 2 0 1 1 0 1 0 1 1 1
Neighs:    779.5 ave 882 max 754 min
Histogram: 4 3 0 0 0 0 0 0 0 1

Total # of neighbors = 6236
Ave neighs/atom = 127.265
Neighbor list builds = 971
Dangerous builds = 0

Please see the log.cite file for references relevant to this simulation

Total wall time: 0:38:52
