ITEM: TIMESTEP
0
ITEM: NUMBER OF ATOMS
49
ITEM: BOX BOUNDS pp pp pp
0.0000000000000000e+00 1.1000000000000000e+01
0.0000000000000000e+00 1.1002000000000001e+01
0.0000000000000000e+00 1.1000000000000000e+01
ITEM: ATOMS id type x y z 
10 1 4.603 4.603 4.603 
11 1 3.085 3.085 3.085 
12 1 3.796 3.796 3.796 
46 1 0.726 0.725 0.725 
47 1 2.26 2.259 2.26 
48 1 1.551 1.55 1.55 
19 1 4.546 4.545 6.226 
20 1 3.013 3.013 7.764 
21 1 3.721 3.721 7.053 
31 1 0.668 0.667 10.103 
32 1 2.187 2.187 8.589 
33 1 1.476 1.475 9.298 
16 1 4.546 6.225 4.546 
17 1 3.013 7.765 3.013 
18 1 3.721 7.053 3.722 
25 1 0.668 10.103 0.668 
26 1 2.188 8.589 2.188 
27 1 1.476 9.298 1.476 
4 1 4.608 6.169 6.169 
5 1 3.086 7.684 7.684 
6 1 3.799 6.974 6.974 
37 1 0.729 10.046 10.046 
38 1 2.259 8.509 8.508 
39 1 1.552 9.219 9.219 
13 1 6.225 4.546 4.546 
14 1 7.764 3.013 3.013 
15 1 7.053 3.721 3.722 
28 1 10.102 0.667 0.668 
29 1 8.589 2.187 2.188 
30 1 9.298 1.475 1.476 
1 1 6.168 4.608 6.169 
2 1 7.684 3.086 7.684 
3 1 6.974 3.799 6.974 
40 1 10.045 0.728 10.046 
41 1 8.508 2.259 8.508 
42 1 9.218 1.551 9.218 
7 1 6.169 6.169 4.608 
8 1 7.684 7.684 3.086 
9 1 6.974 6.974 3.799 
43 1 10.046 10.047 0.729 
44 1 8.508 8.509 2.259 
45 1 9.219 9.219 1.552 
22 1 6.229 6.229 6.229 
23 1 7.764 7.765 7.765 
24 1 7.055 7.056 7.055 
34 1 10.108 10.108 10.107 
35 1 8.59 8.59 8.59 
36 1 9.301 9.301 9.3 
49 2 8.884 8.665 10.43 
ITEM: TIMESTEP
10
ITEM: NUMBER OF ATOMS
49
ITEM: BOX BOUNDS pp pp pp
0.0000000000000000e+00 1.1000000000000000e+01
0.0000000000000000e+00 1.1002000000000001e+01
0.0000000000000000e+00 1.1000000000000000e+01
ITEM: ATOMS id type x y z 
10 1 4.60465 4.60488 4.606 
11 1 3.08627 3.08637 3.08757 
12 1 3.79854 3.79807 3.79633 
46 1 0.728478 0.727835 0.723899 
47 1 2.26489 2.26431 2.26376 
48 1 1.55511 1.55357 1.55588 
19 1 4.54516 4.54439 6.2269 
20 1 3.01218 3.01172 7.76543 
21 1 3.72053 3.72032 7.05255 
31 1 0.68396 0.681444 10.112 
32 1 2.18807 2.18796 8.58472 
33 1 1.47869 1.47878 9.30226 
16 1 4.54484 6.22576 4.54465 
17 1 3.01232 7.76503 3.01224 
18 1 3.7208 7.0534 3.72185 
25 1 0.679037 10.1086 0.683509 
26 1 2.18921 8.58572 2.18788 
27 1 1.47744 9.30227 1.47988 
4 1 4.61329 6.16746 6.16773 
5 1 3.0897 7.67808 7.67804 
6 1 3.80784 6.97031 6.97045 
37 1 0.724912 10.0345 10.0334 
38 1 2.26803 8.50264 8.50217 
39 1 1.55278 9.20971 9.20877 
13 1 6.22541 4.5452 4.54412 
14 1 7.76412 3.01218 3.0117 
15 1 7.05412 3.72048 3.72284 
28 1 10.1082 0.677533 0.684746 
29 1 8.58526 2.18835 2.18823 
30 1 9.30183 1.47727 1.47976 
1 1 6.16658 4.61323 6.16773 
2 1 7.67794 3.09013 7.6776 
3 1 6.96977 3.8078 6.97018 
40 1 10.034 0.724102 10.0322 
41 1 8.50166 2.26814 8.50158 
42 1 9.20823 1.55205 9.20881 
7 1 6.16612 6.16594 4.6152 
8 1 7.67999 7.67955 3.08763 
9 1 6.97201 6.97207 3.80597 
43 1 10.0431 10.0459 0.739914 
44 1 8.50662 8.50746 2.26534 
45 1 9.21512 9.21791 1.56787 
22 1 6.23643 6.23787 6.23836 
23 1 7.7719 7.77301 7.75844 
24 1 7.05806 7.05939 7.05172 
34 1 10.1665 10.1705 10.146 
35 1 8.54807 8.53207 8.63794 
36 1 9.31577 9.33538 9.20533 
49 2 8.81239 8.57929 10.409 
ITEM: TIMESTEP
20
ITEM: NUMBER OF ATOMS
49
ITEM: BOX BOUNDS pp pp pp
0.0000000000000000e+00 1.1000000000000000e+01
0.0000000000000000e+00 1.1002000000000001e+01
0.0000000000000000e+00 1.1000000000000000e+01
ITEM: ATOMS id type x y z 
10 1 4.60587 4.60582 4.60485 
11 1 3.0905 3.09031 3.08878 
12 1 3.79982 3.79977 3.80359 
46 1 0.733758 0.732441 0.72573 
47 1 2.26646 2.2656 2.26754 
48 1 1.55911 1.55818 1.55514 
19 1 4.5434 4.5435 6.22824 
20 1 3.00975 3.01034 7.76416 
21 1 3.72161 3.71946 7.05506 
31 1 0.685101 0.682116 10.1145 
32 1 2.18736 2.18789 8.5852 
33 1 1.48112 1.47958 9.30666 
16 1 4.54362 6.22859 4.54384 
17 1 3.01044 7.76523 3.01129 
18 1 3.72077 7.05413 3.71967 
25 1 0.675347 10.1097 0.684914 
26 1 2.18819 8.58702 2.18935 
27 1 1.48011 9.30363 1.47845 
4 1 4.61535 6.16513 6.16584 
5 1 3.09292 7.67896 7.67892 
6 1 3.80431 6.96834 6.96844 
37 1 0.731459 10.0393 10.0373 
38 1 2.26702 8.49849 8.49834 
39 1 1.55535 9.20856 9.20706 
13 1 6.22893 4.5445 4.54378 
14 1 7.7651 3.01102 3.01113 
15 1 7.0533 3.71985 3.72013 
28 1 10.1098 0.675707 0.686074 
29 1 8.58647 2.18961 2.1881 
30 1 9.30261 1.4759 1.4823 
1 1 6.16401 4.61537 6.1656 
2 1 7.67839 3.09338 7.67847 
3 1 6.96758 3.80475 6.96788 
40 1 10.039 0.731974 10.0356 
41 1 8.49657 2.2681 8.49745 
42 1 9.20793 1.55434 9.20596 
7 1 6.16543 6.16542 4.61546 
8 1 7.67953 7.6795 3.09129 
9 1 6.96928 6.96834 3.8038 
43 1 10.0497 10.0539 0.755355 
44 1 8.50526 8.50747 2.26997 
45 1 9.21671 9.21874 1.57431 
22 1 6.23093 6.23254 6.23017 
23 1 7.7741 7.7755 7.75793 
24 1 7.06529 7.06741 7.05064 
34 1 10.1755 10.1785 10.163 
35 1 8.51915 8.48593 8.72481 
36 1 9.31974 9.34278 9.19365 
49 2 8.79699 8.57339 10.2903 
ITEM: TIMESTEP
30
ITEM: NUMBER OF ATOMS
49
ITEM: BOX BOUNDS pp pp pp
0.0000000000000000e+00 1.1000000000000000e+01
0.0000000000000000e+00 1.1002000000000001e+01
0.0000000000000000e+00 1.1000000000000000e+01
ITEM: ATOMS id type x y z 
10 1 4.60635 4.60673 4.60719 
11 1 3.09027 3.08995 3.0917 
12 1 3.80219 3.80234 3.80081 
46 1 0.736149 0.734725 0.726407 
47 1 2.26794 2.26704 2.26899 
48 1 1.56058 1.55975 1.55544 
19 1 4.54337 4.54251 6.22925 
20 1 3.01029 3.00962 7.76516 
21 1 3.71917 3.71924 7.05367 
31 1 0.685943 0.683082 10.1169 
32 1 2.18771 2.18814 8.58628 
33 1 1.48104 1.47956 9.3068 
16 1 4.54309 6.2288 4.54305 
17 1 3.01083 7.76566 3.0111 
18 1 3.7197 7.05315 3.71949 
25 1 0.676078 10.1106 0.683885 
26 1 2.18991 8.58807 2.18744 
27 1 1.47638 9.30383 1.48181 
4 1 4.61634 6.16517 6.16479 
5 1 3.09236 7.67781 7.67788 
6 1 3.80689 6.96864 6.96863 
37 1 0.733068 10.0404 10.0392 
38 1 2.26536 8.49872 8.49831 
39 1 1.55537 9.20872 9.20757 
13 1 6.22876 4.54346 4.54275 
14 1 7.76494 3.01086 3.01064 
15 1 7.05358 3.71974 3.72006 
28 1 10.1101 0.673791 0.687287 
29 1 8.5869 2.18838 2.18859 
30 1 9.30414 1.47768 1.48146 
1 1 6.16406 4.61705 6.16523 
2 1 7.67741 3.09349 7.67801 
3 1 6.96759 3.80591 6.96733 
40 1 10.0408 0.733533 10.0372 
41 1 8.49701 2.26622 8.49728 
42 1 9.20791 1.55483 9.20646 
7 1 6.16578 6.16463 4.61686 
8 1 7.67947 7.67806 3.09203 
9 1 6.9675 6.96979 3.80434 
43 1 10.0516 10.0555 0.758266 
44 1 8.50736 8.50874 2.27054 
45 1 9.21574 9.21905 1.57567 
22 1 6.23069 6.23272 6.2277 
23 1 7.77115 7.77098 7.76553 
24 1 7.06857 7.07128 7.04845 
34 1 10.1726 10.1767 10.1594 
35 1 8.51507 8.47278 8.77989 
36 1 9.33093 9.3578 9.18436 
49 2 8.78005 8.56089 10.2289 
ITEM: TIMESTEP
40
ITEM: NUMBER OF ATOMS
49
ITEM: BOX BOUNDS pp pp pp
0.0000000000000000e+00 1.1000000000000000e+01
0.0000000000000000e+00 1.1002000000000001e+01
0.0000000000000000e+00 1.1000000000000000e+01
ITEM: ATOMS id type x y z 
10 1 4.60693 4.60748 4.60727 
11 1 3.09095 3.09068 3.09145 
12 1 3.80193 3.802 3.80243 
46 1 0.736559 0.735295 0.725544 
47 1 2.26848 2.26774 2.26917 
48 1 1.56099 1.55986 1.5562 
19 1 4.5425 4.54209 6.22892 
20 1 3.01008 3.00995 7.76456 
21 1 3.71989 3.71902 7.05395 
31 1 0.683395 0.680769 10.1176 
32 1 2.18791 2.18812 8.58713 
33 1 1.48073 1.4795 9.30633 
16 1 4.54201 6.22833 4.54213 
17 1 3.01074 7.76536 3.01064 
18 1 3.71968 7.0538 3.7198 
25 1 0.673358 10.1104 0.681983 
26 1 2.18905 8.5884 2.18821 
27 1 1.47759 9.30416 1.48038 
4 1 4.61474 6.16497 6.16505 
5 1 3.09262 7.67784 7.67813 
6 1 3.80631 6.96856 6.96809 
37 1 0.732453 10.0426 10.0414 
38 1 2.26335 8.50016 8.49968 
39 1 1.55437 9.20992 9.20894 
13 1 6.22853 4.54222 4.5422 
14 1 7.76482 3.01041 3.01067 
15 1 7.05391 3.72027 3.71952 
28 1 10.1104 0.672123 0.684607 
29 1 8.5878 2.18888 2.18857 
30 1 9.30341 1.47645 1.48149 
1 1 6.16375 4.61462 6.16488 
2 1 7.67734 3.09282 7.67745 
3 1 6.9676 3.80706 6.96832 
40 1 10.0433 0.732798 10.0394 
41 1 8.49895 2.26366 8.49921 
42 1 9.20907 1.55414 9.20753 
7 1 6.16497 6.16502 4.61451 
8 1 7.67863 7.67864 3.09152 
9 1 6.96915 6.96912 3.8053 
43 1 10.0528 10.0572 0.75789 
44 1 8.50577 8.50751 2.27195 
45 1 9.2196 9.22212 1.57408 
22 1 6.23047 6.23262 6.22661 
23 1 7.76977 7.76898 7.7683 
24 1 7.0681 7.07103 7.04573 
34 1 10.1664 10.1717 10.1494 
35 1 8.51921 8.47647 8.78642 
36 1 9.33719 9.36444 9.18961 
49 2 8.77842 8.55869 10.2258 
ITEM: TIMESTEP
50
ITEM: NUMBER OF ATOMS
49
ITEM: BOX BOUNDS pp pp pp
0.0000000000000000e+00 1.1000000000000000e+01
0.0000000000000000e+00 1.1002000000000001e+01
0.0000000000000000e+00 1.1000000000000000e+01
ITEM: ATOMS id type x y z 
10 1 4.60771 4.6082 4.60737 
11 1 3.09153 3.0917 3.09155 
12 1 3.80235 3.80155 3.80413 
46 1 0.737795 0.7366 0.7261 
47 1 2.26875 2.26812 2.26979 
48 1 1.56196 1.56063 1.55574 
19 1 4.54282 4.5417 6.22915 
20 1 3.0105 3.00964 7.76473 
21 1 3.71879 3.71936 7.05322 
31 1 0.682537 0.679623 10.1186 
32 1 2.1881 2.18798 8.58823 
33 1 1.48025 1.47938 9.30627 
16 1 4.54096 6.22826 4.54158 
17 1 3.01047 7.76569 3.01024 
18 1 3.71922 7.05397 3.71918 
25 1 0.671394 10.1106 0.680262 
26 1 2.18961 8.59014 2.18758 
27 1 1.47504 9.30307 1.48067 
4 1 4.61477 6.16486 6.1644 
5 1 3.09144 7.67832 7.67758 
6 1 3.80713 6.96873 6.97018 
37 1 0.733321 10.0443 10.0435 
38 1 2.26168 8.50089 8.50033 
39 1 1.55395 9.21099 9.21022 
13 1 6.22861 4.54204 4.54172 
14 1 7.76524 3.01101 3.01021 
15 1 7.0532 3.71896 3.71968 
28 1 10.1101 0.669613 0.683051 
29 1 8.58879 2.18911 2.1877 
30 1 9.30365 1.47468 1.48252 
1 1 6.16365 4.61572 6.1649 
2 1 7.67771 3.09306 7.67816 
3 1 6.96762 3.80542 6.96789 
40 1 10.0454 0.733885 10.0412 
41 1 8.49962 2.26202 8.4998 
42 1 9.21033 1.55392 9.20864 
7 1 6.16554 6.16509 4.61517 
8 1 7.67928 7.67946 3.09164 
9 1 6.96942 6.96928 3.80402 
43 1 10.0545 10.0586 0.758969 
44 1 8.50735 8.50884 2.27192 
45 1 9.22044 9.22353 1.57396 
22 1 6.22886 6.23128 6.22311 
23 1 7.76655 7.76441 7.77406 
24 1 7.07027 7.0735 7.04468 
34 1 10.1592 10.1657 10.1396 
35 1 8.52305 8.47953 8.79446 
36 1 9.34323 9.37224 9.18631 
49 2 8.77226 8.55078 10.222 
ITEM: TIMESTEP
60
ITEM: NUMBER OF ATOMS
49
ITEM: BOX BOUNDS pp pp pp
0.0000000000000000e+00 1.1000000000000000e+01
0.0000000000000000e+00 1.1002000000000001e+01
0.0000000000000000e+00 1.1000000000000000e+01
ITEM: ATOMS id type x y z 
10 1 4.60771 4.60821 4.60788 
11 1 3.09155 3.09124 3.09241 
12 1 3.80263 3.80271 3.80305 
46 1 0.738451 0.737191 0.725846 
47 1 2.26902 2.26832 2.26944 
48 1 1.56169 1.56049 1.5562 
19 1 4.54223 4.54177 6.22903 
20 1 3.00987 3.00971 7.76451 
21 1 3.71948 3.71882 7.05384 
31 1 0.682197 0.67928 10.119 
32 1 2.18789 2.18786 8.58835 
33 1 1.48058 1.47938 9.30684 
16 1 4.54063 6.22809 4.54149 
17 1 3.01053 7.7657 3.01018 
18 1 3.71917 7.05391 3.71912 
25 1 0.67008 10.1102 0.680041 
26 1 2.18876 8.59019 2.18777 
27 1 1.4759 9.30378 1.47991 
4 1 4.61504 6.16499 6.16471 
5 1 3.09173 7.67834 7.67845 
6 1 3.8059 6.96921 6.96912 
37 1 0.733353 10.0449 10.0442 
38 1 2.261 8.50119 8.50059 
39 1 1.5539 9.21147 9.21075 
13 1 6.22837 4.54142 4.54151 
14 1 7.76514 3.01061 3.01006 
15 1 7.05376 3.7193 3.71936 
28 1 10.1103 0.668467 0.683234 
29 1 8.58928 2.18862 2.18804 
30 1 9.30356 1.47498 1.48159 
1 1 6.16371 4.61498 6.16462 
2 1 7.67766 3.09221 7.67789 
3 1 6.9681 3.80634 6.96884 
40 1 10.0461 0.734025 10.0417 
41 1 8.49987 2.26144 8.50004 
42 1 9.21081 1.554 9.20903 
7 1 6.16519 6.16503 4.61437 
8 1 7.67932 7.67946 3.09091 
9 1 6.97014 6.97015 3.80483 
43 1 10.0547 10.059 0.759143 
44 1 8.50755 8.50929 2.2719 
45 1 9.22118 9.22392 1.57446 
22 1 6.2286 6.23122 6.22197 
23 1 7.76586 7.76323 7.77658 
24 1 7.0704 7.07369 7.0439 
34 1 10.1574 10.1644 10.1363 
35 1 8.52389 8.4803 8.79532 
36 1 9.34436 9.37358 9.18675 
49 2 8.77142 8.54939 10.2209 
ITEM: TIMESTEP
70
ITEM: NUMBER OF ATOMS
49
ITEM: BOX BOUNDS pp pp pp
0.0000000000000000e+00 1.1000000000000000e+01
0.0000000000000000e+00 1.1002000000000001e+01
0.0000000000000000e+00 1.1000000000000000e+01
ITEM: ATOMS id type x y z 
10 1 4.60904 4.60984 4.6085 
11 1 3.092 3.09163 3.09361 
12 1 3.8034 3.80355 3.8032 
46 1 0.741008 0.739686 0.726551 
47 1 2.26947 2.26841 2.26991 
48 1 1.56253 1.56195 1.55498 
19 1 4.54303 4.54172 6.2298 
20 1 3.01019 3.0092 7.7645 
21 1 3.71776 3.71892 7.05328 
31 1 0.681975 0.678701 10.1214 
32 1 2.18702 2.18717 8.58878 
33 1 1.48226 1.47989 9.31041 
16 1 4.5395 6.22754 4.5409 
17 1 3.01084 7.76661 3.00924 
18 1 3.71716 7.05339 3.71876 
25 1 0.66609 10.1099 0.678603 
26 1 2.18782 8.59228 2.18737 
27 1 1.47429 9.30392 1.47872 
4 1 4.61479 6.16558 6.16459 
5 1 3.09092 7.67929 7.6798 
6 1 3.80326 6.97013 6.96893 
37 1 0.73385 10.0469 10.0467 
38 1 2.25818 8.5023 8.50178 
39 1 1.55423 9.21364 9.21321 
13 1 6.22817 4.53997 4.54181 
14 1 7.76603 3.01035 3.00997 
15 1 7.0529 3.71888 3.71755 
28 1 10.1107 0.664293 0.683097 
29 1 8.5914 2.18817 2.18725 
30 1 9.30393 1.47235 1.48163 
1 1 6.16377 4.61487 6.1645 
2 1 7.67819 3.09174 7.67945 
3 1 6.96893 3.80363 6.96807 
40 1 10.0489 0.735089 10.0433 
41 1 8.5005 2.25904 8.50064 
42 1 9.21343 1.55488 9.211 
7 1 6.16566 6.1656 4.6135 
8 1 7.68106 7.68152 3.09098 
9 1 6.97086 6.97075 3.80229 
43 1 10.0564 10.0607 0.761138 
44 1 8.50972 8.5116 2.27301 
45 1 9.22344 9.22632 1.57563 
22 1 6.22794 6.23149 6.21607 
23 1 7.76035 7.75491 7.78897 
24 1 7.07173 7.07526 7.04135 
34 1 10.15 10.1599 10.122 
35 1 8.52655 8.48245 8.79847 
36 1 9.34852 9.37939 9.18472 
49 2 8.76633 8.54076 10.2161 
ITEM: TIMESTEP
80
ITEM: NUMBER OF ATOMS
49
ITEM: BOX BOUNDS pp pp pp
0.0000000000000000e+00 1.1000000000000000e+01
0.0000000000000000e+00 1.1002000000000001e+01
0.0000000000000000e+00 1.1000000000000000e+01
ITEM: ATOMS id type x y z 
10 1 4.60912 4.6099 4.60839 
11 1 3.09215 3.09173 3.09347 
12 1 3.8032 3.80345 3.80363 
46 1 0.741205 0.740172 0.726287 
47 1 2.26979 2.26896 2.26978 
48 1 1.56261 1.56158 1.55564 
19 1 4.54288 4.54221 6.22975 
20 1 3.00961 3.00936 7.76425 
21 1 3.71881 3.7187 7.05349 
31 1 0.682803 0.679143 10.1222 
32 1 2.18764 2.18739 8.58943 
33 1 1.48151 1.4797 9.30941 
16 1 4.53887 6.22735 4.54113 
17 1 3.01028 7.7665 3.00934 
18 1 3.71787 7.05385 3.71824 
25 1 0.665933 10.1095 0.678383 
26 1 2.1881 8.5923 2.18699 
27 1 1.47359 9.30403 1.4794 
4 1 4.61407 6.16543 6.16418 
5 1 3.0902 7.67925 7.67928 
6 1 3.80425 6.97027 6.96988 
37 1 0.73373 10.0468 10.0467 
38 1 2.25821 8.50223 8.50174 
39 1 1.55435 9.21379 9.21341 
13 1 6.22798 4.53999 4.54146 
14 1 7.76588 3.01049 3.00936 
15 1 7.05342 3.71838 3.71827 
28 1 10.1103 0.663543 0.683438 
29 1 8.59127 2.18787 2.18733 
30 1 9.30435 1.47271 1.48166 
1 1 6.16365 4.61411 6.16403 
2 1 7.67815 3.09107 7.67885 
3 1 6.96891 3.80461 6.9691 
40 1 10.0488 0.734997 10.0431 
41 1 8.50056 2.25897 8.50072 
42 1 9.21349 1.55519 9.21098 
7 1 6.16562 6.1655 4.61274 
8 1 7.6809 7.68133 3.09042 
9 1 6.97143 6.97141 3.80329 
43 1 10.0566 10.0608 0.761197 
44 1 8.51001 8.51187 2.27331 
45 1 9.22358 9.22657 1.57557 
22 1 6.22816 6.23188 6.21575 
23 1 7.75964 7.75399 7.78939 
24 1 7.07148 7.07495 7.04139 
34 1 10.1504 10.1606 10.122 
35 1 8.52608 8.48194 8.79785 
36 1 9.34801 9.37894 9.1844 
49 2 8.76657 8.54064 10.216 
ITEM: TIMESTEP
90
ITEM: NUMBER OF ATOMS
49
ITEM: BOX BOUNDS pp pp pp
0.0000000000000000e+00 1.1000000000000000e+01
0.0000000000000000e+00 1.1002000000000001e+01
0.0000000000000000e+00 1.1000000000000000e+01
ITEM: ATOMS id type x y z 
10 1 4.60908 4.60995 4.60837 
11 1 3.09215 3.09176 3.09351 
12 1 3.80326 3.80345 3.80365 
46 1 0.741318 0.740283 0.726269 
47 1 2.2699 2.26903 2.26984 
48 1 1.56265 1.56171 1.55567 
19 1 4.54289 4.54231 6.22974 
20 1 3.00948 3.00936 7.76406 
21 1 3.71907 3.71874 7.05374 
31 1 0.683041 0.679353 10.1225 
32 1 2.18776 2.18751 8.58961 
33 1 1.48146 1.47957 9.30918 
16 1 4.53879 6.22731 4.54109 
17 1 3.01026 7.76649 3.00922 
18 1 3.71783 7.05395 3.71835 
25 1 0.665787 10.1094 0.678454 
26 1 2.18796 8.59232 2.18707 
27 1 1.47374 9.30408 1.47923 
4 1 4.6141 6.16546 6.16425 
5 1 3.09024 7.67928 7.67937 
6 1 3.80401 6.97025 6.96972 
37 1 0.733661 10.0468 10.0466 
38 1 2.25818 8.50224 8.50176 
39 1 1.55441 9.21386 9.2135 
13 1 6.22788 4.53988 4.54139 
14 1 7.76576 3.01042 3.00918 
15 1 7.05375 3.7184 3.71843 
28 1 10.1104 0.663491 0.683573 
29 1 8.59138 2.1879 2.18736 
30 1 9.30423 1.47256 1.48164 
1 1 6.16371 4.61408 6.16399 
2 1 7.67822 3.09106 7.67877 
3 1 6.96873 3.80452 6.96917 
40 1 10.0488 0.734928 10.043 
41 1 8.50056 2.25896 8.50072 
42 1 9.21359 1.55527 9.21104 
7 1 6.16571 6.16556 4.61267 
8 1 7.68099 7.68135 3.09042 
9 1 6.97139 6.97153 3.80328 
43 1 10.0565 10.0608 0.761178 
44 1 8.51002 8.51195 2.27335 
45 1 9.22374 9.22661 1.5759 
22 1 6.22822 6.232 6.2155 
23 1 7.75935 7.75359 7.78966 
24 1 7.07126 7.0747 7.04132 
34 1 10.1505 10.161 10.1217 
35 1 8.52601 8.48186 8.79766 
36 1 9.34764 9.37858 9.18429 
49 2 8.76672 8.54062 10.2159 
ITEM: TIMESTEP
100
ITEM: NUMBER OF ATOMS
49
ITEM: BOX BOUNDS pp pp pp
0.0000000000000000e+00 1.1000000000000000e+01
0.0000000000000000e+00 1.1002000000000001e+01
0.0000000000000000e+00 1.1000000000000000e+01
ITEM: ATOMS id type x y z 
10 1 4.60908 4.61 4.60835 
11 1 3.09215 3.09177 3.09355 
12 1 3.8033 3.80348 3.80364 
46 1 0.74138 0.74038 0.726237 
47 1 2.26996 2.26909 2.26988 
48 1 1.56271 1.56177 1.55567 
19 1 4.54295 4.54237 6.22977 
20 1 3.00945 3.00933 7.76394 
21 1 3.71916 3.71883 7.05389 
31 1 0.683232 0.679475 10.1228 
32 1 2.1878 2.18753 8.5896 
33 1 1.48153 1.47965 9.30927 
16 1 4.53871 6.2273 4.5411 
17 1 3.01024 7.76649 3.00919 
18 1 3.71781 7.05398 3.71834 
25 1 0.665703 10.1093 0.678469 
26 1 2.18794 8.59234 2.18707 
27 1 1.47369 9.30408 1.47923 
4 1 4.614 6.16549 6.16423 
5 1 3.0902 7.67929 7.67938 
6 1 3.80393 6.97025 6.9697 
37 1 0.73361 10.0467 10.0466 
38 1 2.25815 8.50225 8.50178 
39 1 1.55449 9.2139 9.21356 
13 1 6.22787 4.53981 4.54141 
14 1 7.76575 3.01039 3.00913 
15 1 7.05382 3.7184 3.71845 
28 1 10.1104 0.663391 0.68369 
29 1 8.59141 2.1879 2.18736 
30 1 9.30424 1.47245 1.4817 
1 1 6.16369 4.61396 6.16395 
2 1 7.67819 3.09103 7.67877 
3 1 6.96871 3.80448 6.96913 
40 1 10.0488 0.734882 10.0429 
41 1 8.50056 2.25896 8.50071 
42 1 9.21364 1.55538 9.21106 
7 1 6.16572 6.16559 4.61255 
8 1 7.68103 7.68142 3.09043 
9 1 6.97143 6.97155 3.80326 
43 1 10.0565 10.0608 0.761266 
44 1 8.51011 8.51203 2.27353 
45 1 9.22374 9.22666 1.57592 
22 1 6.22827 6.23211 6.21529 
23 1 7.7591 7.75325 7.78991 
24 1 7.0711 7.07451 7.0413 
34 1 10.1506 10.1613 10.1215 
35 1 8.52586 8.48169 8.79744 
36 1 9.34743 9.37839 9.18423 
49 2 8.76685 8.54059 10.2158 
ITEM: TIMESTEP
110
ITEM: NUMBER OF ATOMS
49
ITEM: BOX BOUNDS pp pp pp
0.0000000000000000e+00 1.1000000000000000e+01
0.0000000000000000e+00 1.1002000000000001e+01
0.0000000000000000e+00 1.1000000000000000e+01
ITEM: ATOMS id type x y z 
10 1 4.60925 4.6103 4.60812 
11 1 3.09227 3.09184 3.09379 
12 1 3.80345 3.80373 3.80373 
46 1 0.741745 0.741028 0.72602 
47 1 2.27025 2.26945 2.27009 
48 1 1.56323 1.56214 1.55564 
19 1 4.54355 4.54291 6.23041 
20 1 3.00944 3.00933 7.76364 
21 1 3.71935 3.71903 7.05401 
31 1 0.684422 0.680371 10.1242 
32 1 2.18803 2.18778 8.58968 
33 1 1.48204 1.47981 9.30956 
16 1 4.53829 6.22741 4.54125 
17 1 3.01026 7.76676 3.00908 
18 1 3.71746 7.05372 3.7181 
25 1 0.665141 10.1089 0.678586 
26 1 2.18776 8.59258 2.18717 
27 1 1.47344 9.30399 1.47902 
4 1 4.61322 6.16563 6.16402 
5 1 3.08991 7.67936 7.67944 
6 1 3.80346 6.97028 6.96957 
37 1 0.733247 10.0465 10.0466 
38 1 2.25803 8.50231 8.50187 
39 1 1.55488 9.21418 9.21399 
13 1 6.228 4.53956 4.5416 
14 1 7.7659 3.01044 3.00888 
15 1 7.05379 3.71807 3.71839 
28 1 10.1103 0.662557 0.684413 
29 1 8.59141 2.18771 2.18729 
30 1 9.3047 1.47221 1.48212 
1 1 6.16359 4.61317 6.16363 
2 1 7.67806 3.09085 7.67872 
3 1 6.96856 3.80417 6.96893 
40 1 10.0487 0.734559 10.0425 
41 1 8.50053 2.25902 8.50064 
42 1 9.21402 1.55598 9.21121 
7 1 6.16598 6.1657 4.6118 
8 1 7.68149 7.68179 3.09064 
9 1 6.97134 6.97183 3.8029 
43 1 10.0566 10.061 0.761651 
44 1 8.51055 8.51248 2.27442 
45 1 9.22402 9.22704 1.57651 
22 1 6.22863 6.23278 6.21392 
23 1 7.75761 7.75117 7.79155 
24 1 7.0701 7.07332 7.04119 
34 1 10.1513 10.1629 10.12 
35 1 8.52498 8.48065 8.79624 
36 1 9.34615 9.3773 9.18388 
49 2 8.76765 8.54032 10.2154 
ITEM: TIMESTEP
120
ITEM: NUMBER OF ATOMS
49
ITEM: BOX BOUNDS pp pp pp
0.0000000000000000e+00 1.1000000000000000e+01
0.0000000000000000e+00 1.1002000000000001e+01
0.0000000000000000e+00 1.1000000000000000e+01
ITEM: ATOMS id type x y z 
10 1 4.60926 4.61035 4.60806 
11 1 3.09229 3.09187 3.09384 
12 1 3.8035 3.80376 3.80374 
46 1 0.741874 0.741066 0.725945 
47 1 2.27039 2.26943 2.27009 
48 1 1.56311 1.56231 1.55568 
19 1 4.5436 4.54297 6.2305 
20 1 3.00941 3.00931 7.76358 
21 1 3.71941 3.71906 7.05409 
31 1 0.684537 0.680402 10.1243 
32 1 2.18801 2.18767 8.58949 
33 1 1.48223 1.48011 9.30998 
16 1 4.53817 6.22729 4.54118 
17 1 3.0102 7.76664 3.00896 
18 1 3.7175 7.054 3.71823 
25 1 0.665056 10.1088 0.678529 
26 1 2.1878 8.59257 2.18708 
27 1 1.47329 9.30404 1.47919 
4 1 4.61313 6.16566 6.16398 
5 1 3.08985 7.67937 7.67945 
6 1 3.80341 6.9703 6.96956 
37 1 0.733207 10.0465 10.0466 
38 1 2.25803 8.50232 8.50188 
39 1 1.55495 9.21419 9.21402 
13 1 6.22795 4.53944 4.54161 
14 1 7.76584 3.01035 3.00885 
15 1 7.05394 3.71819 3.71838 
28 1 10.1104 0.662483 0.684568 
29 1 8.5916 2.18781 2.18735 
30 1 9.30441 1.47194 1.48206 
1 1 6.1636 4.61311 6.16359 
2 1 7.67806 3.09085 7.67873 
3 1 6.96851 3.80405 6.96887 
40 1 10.0487 0.734503 10.0424 
41 1 8.50054 2.25904 8.50064 
42 1 9.21405 1.55606 9.21122 
7 1 6.16589 6.16576 4.61165 
8 1 7.68141 7.68189 3.09058 
9 1 6.97159 6.97178 3.80303 
43 1 10.0567 10.0611 0.761739 
44 1 8.51065 8.51257 2.27457 
45 1 9.22406 9.22713 1.5765 
22 1 6.22864 6.23285 6.21369 
23 1 7.7574 7.75089 7.79177 
24 1 7.06995 7.07314 7.04119 
34 1 10.1513 10.1631 10.1197 
35 1 8.52489 8.48053 8.79616 
36 1 9.34602 9.37722 9.18383 
49 2 8.76774 8.54024 10.2153 
ITEM: TIMESTEP
130
ITEM: NUMBER OF ATOMS
49
ITEM: BOX BOUNDS pp pp pp
0.0000000000000000e+00 1.1000000000000000e+01
0.0000000000000000e+00 1.1002000000000001e+01
0.0000000000000000e+00 1.1000000000000000e+01
ITEM: ATOMS id type x y z 
10 1 4.60953 4.61226 4.60689 
11 1 3.0923 3.09287 3.09547 
12 1 3.806 3.80432 3.80366 
46 1 0.744164 0.744024 0.724321 
47 1 2.27233 2.27053 2.27093 
48 1 1.56436 1.56517 1.5559 
19 1 4.54629 4.54579 6.23482 
20 1 3.00964 3.00968 7.76324 
21 1 3.7197 3.71915 7.05304 
31 1 0.690066 0.684052 10.1311 
32 1 2.18958 2.18807 8.58972 
33 1 1.48383 1.48241 9.31218 
16 1 4.53545 6.22699 4.54137 
17 1 3.00928 7.76743 3.00802 
18 1 3.71683 7.05454 3.71739 
25 1 0.66203 10.1064 0.678352 
26 1 2.18766 8.59365 2.18708 
27 1 1.47091 9.303 1.4792 
4 1 4.6103 6.16678 6.16276 
5 1 3.08912 7.68044 7.6796 
6 1 3.79973 6.969 6.969 
37 1 0.731597 10.0455 10.0469 
38 1 2.25816 8.50268 8.50245 
39 1 1.55589 9.21511 9.21571 
13 1 6.2287 4.53789 4.54221 
14 1 7.76675 3.01043 3.00813 
15 1 7.05358 3.71692 3.71747 
28 1 10.1105 0.658051 0.688152 
29 1 8.59273 2.18722 2.18782 
30 1 9.30421 1.4699 1.4827 
1 1 6.16284 4.60938 6.16155 
2 1 7.67755 3.08971 7.67851 
3 1 6.96805 3.80241 6.96805 
40 1 10.0485 0.732566 10.0406 
41 1 8.50093 2.25968 8.50076 
42 1 9.21535 1.55786 9.21167 
7 1 6.16704 6.16602 4.60854 
8 1 7.6835 7.68353 3.0915 
9 1 6.97143 6.97322 3.80174 
43 1 10.0564 10.0632 0.762495 
44 1 8.51137 8.51527 2.27643 
45 1 9.22897 9.22928 1.58227 
22 1 6.22915 6.23515 6.20682 
23 1 7.75103 7.74196 7.79865 
24 1 7.06589 7.06809 7.04206 
34 1 10.1522 10.1695 10.1097 
35 1 8.5223 8.47677 8.79401 
36 1 9.34183 9.3747 9.18147 
49 2 8.77058 8.53753 10.2136 
ITEM: TIMESTEP
140
ITEM: NUMBER OF ATOMS
49
ITEM: BOX BOUNDS pp pp pp
0.0000000000000000e+00 1.1000000000000000e+01
0.0000000000000000e+00 1.1002000000000001e+01
0.0000000000000000e+00 1.1000000000000000e+01
ITEM: ATOMS id type x y z 
10 1 4.61029 4.61217 4.60659 
11 1 3.09319 3.09248 3.09532 
12 1 3.80473 3.80529 3.80419 
46 1 0.744006 0.744479 0.724118 
47 1 2.27203 2.271 2.27117 
48 1 1.56506 1.56461 1.5555 
19 1 4.54626 4.54567 6.23464 
20 1 3.00961 3.00947 7.76265 
21 1 3.71992 3.71958 7.054 
31 1 0.689931 0.684225 10.1313 
32 1 2.18903 2.18836 8.58933 
33 1 1.48528 1.48225 9.31323 
16 1 4.53546 6.22696 4.54104 
17 1 3.00971 7.76753 3.0079 
18 1 3.71598 7.05443 3.7176 
25 1 0.661535 10.1059 0.678043 
26 1 2.18699 8.59342 2.18725 
27 1 1.47171 9.30354 1.47867 
4 1 4.60942 6.16617 6.16253 
5 1 3.08818 7.6798 7.67952 
6 1 3.80098 6.97028 6.9692 
37 1 0.731957 10.0458 10.0474 
38 1 2.25864 8.50339 8.50318 
39 1 1.55457 9.21449 9.21511 
13 1 6.22826 4.53757 4.54188 
14 1 7.76651 3.01011 3.00775 
15 1 7.05435 3.71714 3.71785 
28 1 10.1101 0.658012 0.68795 
29 1 8.59233 2.18724 2.18736 
30 1 9.30503 1.46963 1.48373 
1 1 6.16278 4.60936 6.16164 
2 1 7.67764 3.08993 7.67871 
3 1 6.96784 3.80171 6.96757 
40 1 10.0487 0.733127 10.0407 
41 1 8.50136 2.26055 8.50117 
42 1 9.21465 1.55646 9.21092 
7 1 6.16663 6.16638 4.60841 
8 1 7.68298 7.68406 3.09126 
9 1 6.9725 6.97273 3.80206 
43 1 10.0569 10.0633 0.763222 
44 1 8.51177 8.51511 2.27723 
45 1 9.22855 9.22958 1.58203 
22 1 6.229 6.23518 6.20634 
23 1 7.7509 7.74168 7.79908 
24 1 7.06544 7.06758 7.04208 
34 1 10.1524 10.1695 10.1082 
35 1 8.52218 8.47648 8.79423 
36 1 9.34186 9.37499 9.18131 
49 2 8.77086 8.53729 10.2137 
ITEM: TIMESTEP
150
ITEM: NUMBER OF ATOMS
49
ITEM: BOX BOUNDS pp pp pp
0.0000000000000000e+00 1.1000000000000000e+01
0.0000000000000000e+00 1.1002000000000001e+01
0.0000000000000000e+00 1.1000000000000000e+01
ITEM: ATOMS id type x y z 
10 1 4.61029 4.61227 4.6065 
11 1 3.09319 3.09249 3.09537 
12 1 3.8048 3.80534 3.80416 
46 1 0.744087 0.744554 0.72409 
47 1 2.27204 2.27095 2.27119 
48 1 1.56511 1.56478 1.55545 
19 1 4.54623 4.54565 6.23465 
20 1 3.00949 3.00935 7.76254 
21 1 3.72006 3.71972 7.05428 
31 1 0.690075 0.684385 10.1315 
32 1 2.18907 2.18837 8.58935 
33 1 1.48536 1.48231 9.31334 
16 1 4.53538 6.22694 4.54101 
17 1 3.00966 7.76759 3.00786 
18 1 3.71596 7.05438 3.71762 
25 1 0.661561 10.1059 0.677928 
26 1 2.18718 8.59358 2.18711 
27 1 1.47121 9.30329 1.47885 
4 1 4.60943 6.16611 6.16261 
5 1 3.08817 7.67968 7.67967 
6 1 3.8009 6.97054 6.96892 
37 1 0.731869 10.0457 10.0474 
38 1 2.25864 8.50336 8.50314 
39 1 1.55463 9.21451 9.21518 
13 1 6.22824 4.53749 4.54181 
14 1 7.7665 3.01007 3.00769 
15 1 7.05446 3.71711 3.71783 
28 1 10.1102 0.657875 0.688061 
29 1 8.59246 2.18728 2.18742 
30 1 9.30483 1.46944 1.48369 
1 1 6.1628 4.60926 6.16155 
2 1 7.67764 3.08984 7.67861 
3 1 6.96781 3.80182 6.96772 
40 1 10.0487 0.733048 10.0406 
41 1 8.50136 2.2606 8.5012 
42 1 9.21469 1.55639 9.21088 
7 1 6.16668 6.1664 4.60844 
8 1 7.68301 7.68404 3.0912 
9 1 6.97248 6.9729 3.80216 
43 1 10.0571 10.0634 0.763425 
44 1 8.51202 8.51521 2.27737 
45 1 9.22845 9.2297 1.58195 
22 1 6.22894 6.23518 6.20617 
23 1 7.75075 7.74148 7.79915 
24 1 7.06535 7.06747 7.04218 
34 1 10.1523 10.1696 10.1079 
35 1 8.5222 8.47643 8.79439 
36 1 9.34175 9.37498 9.18114 
49 2 8.77093 8.53717 10.2137 
ITEM: TIMESTEP
160
ITEM: NUMBER OF ATOMS
49
ITEM: BOX BOUNDS pp pp pp
0.0000000000000000e+00 1.1000000000000000e+01
0.0000000000000000e+00 1.1002000000000001e+01
0.0000000000000000e+00 1.1000000000000000e+01
ITEM: ATOMS id type x y z 
10 1 4.61097 4.61407 4.60535 
11 1 3.09344 3.09286 3.09609 
12 1 3.80557 3.806 3.80397 
46 1 0.745468 0.746836 0.722615 
47 1 2.27275 2.27164 2.27156 
48 1 1.56569 1.56544 1.55502 
19 1 4.5461 4.54564 6.23477 
20 1 3.0082 3.008 7.76023 
21 1 3.72246 3.72223 7.05875 
31 1 0.692435 0.686972 10.1352 
32 1 2.18956 2.18874 8.58956 
33 1 1.48709 1.48318 9.31539 
16 1 4.53378 6.22635 4.54033 
17 1 3.00927 7.76817 3.00764 
18 1 3.71515 7.05429 3.71726 
25 1 0.659595 10.1037 0.677104 
26 1 2.18652 8.59407 2.18691 
27 1 1.47015 9.30273 1.47812 
4 1 4.6078 6.166 6.16165 
5 1 3.08739 7.67973 7.67965 
6 1 3.80055 6.97116 6.96872 
37 1 0.730582 10.0448 10.0474 
38 1 2.2587 8.50376 8.50318 
39 1 1.5545 9.2139 9.21625 
13 1 6.22815 4.53623 4.54129 
14 1 7.76706 3.00967 3.0074 
15 1 7.05455 3.71667 3.71707 
28 1 10.1097 0.655775 0.689236 
29 1 8.59286 2.18692 2.18748 
30 1 9.30478 1.46793 1.48451 
1 1 6.16231 4.60764 6.16046 
2 1 7.67774 3.08974 7.67838 
3 1 6.96716 3.80095 6.96739 
40 1 10.0483 0.731774 10.0394 
41 1 8.50203 2.26167 8.50172 
42 1 9.21444 1.55468 9.21025 
7 1 6.1673 6.16714 4.60867 
8 1 7.68332 7.68506 3.09138 
9 1 6.97282 6.9735 3.80191 
43 1 10.0602 10.0652 0.767442 
44 1 8.51576 8.51644 2.28031 
45 1 9.22628 9.23128 1.58113 
22 1 6.22812 6.23526 6.20333 
23 1 7.74867 7.73842 7.80099 
24 1 7.06394 7.06566 7.04394 
34 1 10.152 10.1723 10.1007 
35 1 8.52165 8.47471 8.79633 
36 1 9.34067 9.37574 9.17887 
49 2 8.77257 8.53534 10.2136 
ITEM: TIMESTEP
170
ITEM: NUMBER OF ATOMS
49
ITEM: BOX BOUNDS pp pp pp
0.0000000000000000e+00 1.1000000000000000e+01
0.0000000000000000e+00 1.1002000000000001e+01
0.0000000000000000e+00 1.1000000000000000e+01
ITEM: ATOMS id type x y z 
10 1 4.61118 4.61386 4.60531 
11 1 3.09356 3.09277 3.09605 
12 1 3.80535 3.8062 3.80402 
46 1 0.745531 0.746923 0.722639 
47 1 2.27263 2.27147 2.27165 
48 1 1.56604 1.56588 1.55489 
19 1 4.54636 4.54588 6.23515 
20 1 3.00854 3.00833 7.76042 
21 1 3.72214 3.7219 7.05828 
31 1 0.692842 0.68672 10.1354 
32 1 2.18976 2.18853 8.58953 
33 1 1.48684 1.48364 9.31548 
16 1 4.53366 6.2264 4.54024 
17 1 3.00917 7.76826 3.00755 
18 1 3.715 7.0544 3.71716 
25 1 0.659579 10.1035 0.676787 
26 1 2.18659 8.59408 2.1869 
27 1 1.46999 9.3026 1.47816 
4 1 4.60785 6.16603 6.16178 
5 1 3.08757 7.67992 7.67964 
6 1 3.80015 6.97082 6.96868 
37 1 0.730495 10.0447 10.0477 
38 1 2.25871 8.50382 8.50351 
39 1 1.55417 9.21406 9.216 
13 1 6.22808 4.53632 4.54119 
14 1 7.767 3.00979 3.00722 
15 1 7.05461 3.7165 3.71746 
28 1 10.1096 0.655554 0.689488 
29 1 8.59285 2.18678 2.18763 
30 1 9.3048 1.46808 1.48431 
1 1 6.16194 4.60747 6.16047 
2 1 7.67751 3.08972 7.67857 
3 1 6.96759 3.80096 6.96701 
40 1 10.0482 0.731615 10.0393 
41 1 8.50202 2.26157 8.50171 
42 1 9.21436 1.55498 9.21012 
7 1 6.16738 6.16696 4.60847 
8 1 7.6833 7.68496 3.09121 
9 1 6.97302 6.97373 3.80235 
43 1 10.06 10.0653 0.76734 
44 1 8.51518 8.51627 2.28039 
45 1 9.22713 9.23159 1.58148 
22 1 6.22808 6.23522 6.20323 
23 1 7.74871 7.7384 7.80126 