ITEM: TIMESTEP
0
ITEM: NUMBER OF ATOMS
49
ITEM: BOX BOUNDS pp pp pp
0.0000000000000000e+00 1.1000000000000000e+01
0.0000000000000000e+00 1.1002000000000001e+01
0.0000000000000000e+00 1.1000000000000000e+01
ITEM: ATOMS id type x y z 
10 1 4.603 4.603 4.603 
11 1 3.085 3.085 3.085 
12 1 3.796 3.796 3.796 
46 1 0.726 0.725 0.725 
47 1 2.26 2.259 2.26 
48 1 1.551 1.55 1.55 
19 1 4.546 4.545 6.226 
20 1 3.013 3.013 7.764 
21 1 3.721 3.721 7.053 
31 1 0.668 0.667 10.103 
32 1 2.187 2.187 8.589 
33 1 1.476 1.475 9.298 
16 1 4.546 6.225 4.546 
17 1 3.013 7.765 3.013 
18 1 3.721 7.053 3.722 
25 1 0.668 10.103 0.668 
26 1 2.188 8.589 2.188 
27 1 1.476 9.298 1.476 
4 1 4.608 6.169 6.169 
5 1 3.086 7.684 7.684 
6 1 3.799 6.974 6.974 
37 1 0.729 10.046 10.046 
38 1 2.259 8.509 8.508 
39 1 1.552 9.219 9.219 
13 1 6.225 4.546 4.546 
14 1 7.764 3.013 3.013 
15 1 7.053 3.721 3.722 
28 1 10.102 0.667 0.668 
29 1 8.589 2.187 2.188 
30 1 9.298 1.475 1.476 
1 1 6.168 4.608 6.169 
2 1 7.684 3.086 7.684 
3 1 6.974 3.799 6.974 
40 1 10.045 0.728 10.046 
41 1 8.508 2.259 8.508 
42 1 9.218 1.551 9.218 
49 2 7.496 3.486 8.967 
7 1 6.169 6.169 4.608 
8 1 7.684 7.684 3.086 
9 1 6.974 6.974 3.799 
43 1 10.046 10.047 0.729 
44 1 8.508 8.509 2.259 
45 1 9.219 9.219 1.552 
22 1 6.229 6.229 6.229 
23 1 7.764 7.765 7.765 
24 1 7.055 7.056 7.055 
34 1 10.108 10.108 10.107 
35 1 8.59 8.59 8.59 
36 1 9.301 9.301 9.3 
ITEM: TIMESTEP
10
ITEM: NUMBER OF ATOMS
49
ITEM: BOX BOUNDS pp pp pp
0.0000000000000000e+00 1.1000000000000000e+01
0.0000000000000000e+00 1.1002000000000001e+01
0.0000000000000000e+00 1.1000000000000000e+01
ITEM: ATOMS id type x y z 
10 1 4.61441 4.60446 4.61251 
11 1 3.08808 3.08885 3.08864 
12 1 3.8002 3.79723 3.79923 
46 1 0.726326 0.729128 0.725411 
47 1 2.26284 2.26319 2.26247 
48 1 1.55449 1.55176 1.55393 
19 1 4.49981 4.54966 6.22188 
20 1 3.01494 3.011 7.76581 
21 1 3.71574 3.72479 7.04894 
31 1 0.70087 0.661742 10.1091 
32 1 2.18326 2.18991 8.58598 
33 1 1.48643 1.47044 9.30253 
16 1 4.54499 6.2263 4.54478 
17 1 3.01332 7.7644 3.01383 
18 1 3.723 7.05045 3.72289 
25 1 0.669027 10.1045 0.669743 
26 1 2.18549 8.59284 2.18772 
27 1 1.47399 9.29745 1.4701 
4 1 4.61216 6.1606 6.16726 
5 1 3.09019 7.68334 7.6809 
6 1 3.79767 6.96815 6.97369 
37 1 0.728818 10.0459 10.043 
38 1 2.26101 8.50749 8.50738 
39 1 1.55455 9.21701 9.21532 
13 1 6.2196 4.55186 4.49872 
14 1 7.76444 3.01295 3.01447 
15 1 7.04806 3.72447 3.7203 
28 1 10.108 0.662408 0.701 
29 1 8.58578 2.19004 2.18439 
30 1 9.3025 1.47027 1.48548 
1 1 6.16665 4.60707 6.17653 
2 1 7.65263 3.11141 7.5773 
3 1 6.92884 3.83871 6.89047 
40 1 10.0419 0.747728 10.026 
41 1 8.49715 2.29742 8.67276 
42 1 9.23912 1.49943 9.21925 
49 2 7.55444 3.42102 8.98674 
7 1 6.16707 6.15774 4.6121 
8 1 7.68101 7.68293 3.08989 
9 1 6.97349 6.96906 3.79807 
43 1 10.0422 10.0464 0.729897 
44 1 8.50728 8.50775 2.26052 
45 1 9.21479 9.21584 1.55635 
22 1 6.22642 6.27759 6.22737 
23 1 7.76448 7.76215 7.76545 
24 1 7.05537 7.06397 7.05505 
34 1 10.1133 10.0737 10.1121 
35 1 8.58636 8.59211 8.58815 
36 1 9.30543 9.29241 9.30159 
ITEM: TIMESTEP
20
ITEM: NUMBER OF ATOMS
49
ITEM: BOX BOUNDS pp pp pp
0.0000000000000000e+00 1.1000000000000000e+01
0.0000000000000000e+00 1.1002000000000001e+01
0.0000000000000000e+00 1.1000000000000000e+01
ITEM: ATOMS id type x y z 
10 1 4.61034 4.6028 4.60931 
11 1 3.08807 3.0903 3.08818 
12 1 3.80144 3.7954 3.80112 
46 1 0.725623 0.729858 0.726568 
47 1 2.2643 2.26331 2.26385 
48 1 1.55436 1.55433 1.5541 
19 1 4.51315 4.55463 6.2179 
20 1 3.01229 3.00828 7.76805 
21 1 3.71028 3.72386 7.05059 
31 1 0.696473 0.661095 10.1101 
32 1 2.18746 2.18899 8.58675 
33 1 1.48373 1.47273 9.30054 
16 1 4.54258 6.22901 4.54286 
17 1 3.01242 7.7642 3.01284 
18 1 3.72136 7.05419 3.72183 
25 1 0.668367 10.1026 0.669351 
26 1 2.18645 8.58996 2.18697 
27 1 1.47505 9.29969 1.47397 
4 1 4.61438 6.16218 6.16891 
5 1 3.0883 7.68186 7.68036 
6 1 3.80137 6.97001 6.97452 
37 1 0.728561 10.0447 10.0418 
38 1 2.2631 8.50597 8.50624 
39 1 1.55444 9.21693 9.21391 
13 1 6.21552 4.55634 4.51177 
14 1 7.76719 3.0093 3.01196 
15 1 7.05098 3.72275 3.71265 
28 1 10.1101 0.659354 0.696329 
29 1 8.58677 2.18908 2.18752 
30 1 9.30057 1.47231 1.48346 
1 1 6.16575 4.61152 6.17129 
2 1 7.64411 3.11843 7.56391 
3 1 6.91554 3.8543 6.88324 
40 1 10.0482 0.732505 10.0303 
41 1 8.49004 2.30386 8.6967 
42 1 9.25241 1.49619 9.23279 
49 2 7.56738 3.40552 8.97705 
7 1 6.16923 6.16101 4.61399 
8 1 7.68009 7.68156 3.08821 
9 1 6.97451 6.97025 3.80185 
43 1 10.0414 10.0484 0.728427 
44 1 8.50662 8.50616 2.26246 
45 1 9.21434 9.21768 1.55476 
22 1 6.21904 6.26226 6.22011 
23 1 7.76683 7.76406 7.76745 
24 1 7.05143 7.06516 7.05195 
34 1 10.1152 10.0804 10.1129 
35 1 8.58755 8.5907 8.58647 
36 1 9.3034 9.29107 9.30482 
ITEM: TIMESTEP
30
ITEM: NUMBER OF ATOMS
49
ITEM: BOX BOUNDS pp pp pp
0.0000000000000000e+00 1.1000000000000000e+01
0.0000000000000000e+00 1.1002000000000001e+01
0.0000000000000000e+00 1.1000000000000000e+01
ITEM: ATOMS id type x y z 
10 1 4.61156 4.60303 4.60945 
11 1 3.08956 3.08674 3.08955 
12 1 3.79877 3.80053 3.79807 
46 1 0.727215 0.730264 0.730059 
47 1 2.26589 2.26421 2.2651 
48 1 1.55462 1.55721 1.55568 
19 1 4.51039 4.55596 6.2167 
20 1 3.01187 3.0107 7.76551 
21 1 3.70887 3.72753 7.04703 
31 1 0.703512 0.65777 10.1133 
32 1 2.18794 2.18849 8.58717 
33 1 1.48913 1.46942 9.304 
16 1 4.54017 6.2326 4.54126 
17 1 3.01176 7.76596 3.01195 
18 1 3.72012 7.05299 3.72066 
25 1 0.670891 10.1016 0.669684 
26 1 2.18744 8.5893 2.18721 
27 1 1.47448 9.29947 1.47534 
4 1 4.61259 6.16316 6.16685 
5 1 3.08824 7.68123 7.68171 
6 1 3.80129 6.97165 6.97289 
37 1 0.733438 10.0408 10.0419 
38 1 2.26367 8.50552 8.50341 
39 1 1.55694 9.21421 9.21563 
13 1 6.21398 4.55801 4.50946 
14 1 7.7654 3.01093 3.01294 
15 1 7.04624 3.72747 3.70819 
28 1 10.1148 0.65574 0.702766 
29 1 8.58767 2.18812 2.18624 
30 1 9.3048 1.46793 1.48859 
1 1 6.16856 4.60869 6.17607 
2 1 7.61891 3.14483 7.54455 
3 1 6.91352 3.85481 6.86652 
40 1 10.0572 0.713229 10.0295 
41 1 8.48633 2.30449 8.7211 
42 1 9.25926 1.50255 9.25126 
49 2 7.56819 3.40329 8.96128 
7 1 6.16753 6.16151 4.6124 
8 1 7.68153 7.68141 3.08824 
9 1 6.97372 6.97072 3.80091 
43 1 10.0395 10.0475 0.732369 
44 1 8.50483 8.50524 2.26346 
45 1 9.21376 9.21707 1.55644 
22 1 6.21785 6.26422 6.21878 
23 1 7.76393 7.76401 7.76458 
24 1 7.04812 7.06743 7.04896 
34 1 10.1173 10.0724 10.1163 
35 1 8.58635 8.58889 8.58853 
36 1 9.30846 9.28622 9.30353 
ITEM: TIMESTEP
40
ITEM: NUMBER OF ATOMS
49
ITEM: BOX BOUNDS pp pp pp
0.0000000000000000e+00 1.1000000000000000e+01
0.0000000000000000e+00 1.1002000000000001e+01
0.0000000000000000e+00 1.1000000000000000e+01
ITEM: ATOMS id type x y z 
10 1 4.61222 4.60231 4.61263 
11 1 3.0912 3.08897 3.09016 
12 1 3.80042 3.79976 3.80067 
46 1 0.727558 0.7314 0.733531 
47 1 2.2666 2.26622 2.26732 
48 1 1.55677 1.55795 1.55672 
19 1 4.49723 4.5622 6.21013 
20 1 3.01218 3.01333 7.76274 
21 1 3.69967 3.73249 7.04212 
31 1 0.708617 0.656038 10.1155 
32 1 2.19169 2.18916 8.58738 
33 1 1.49725 1.46617 9.30553 
16 1 4.53376 6.2355 4.53541 
17 1 3.00841 7.76423 3.0088 
18 1 3.72249 7.05911 3.72325 
25 1 0.673801 10.0994 0.670953 
26 1 2.18742 8.58942 2.18862 
27 1 1.47592 9.29805 1.47408 
4 1 4.61419 6.16093 6.1679 
5 1 3.08972 7.68096 7.67954 
6 1 3.80183 6.96902 6.97275 
37 1 0.740786 10.0338 10.0485 
38 1 2.26492 8.50313 8.50136 
39 1 1.56149 9.21222 9.21592 
13 1 6.20875 4.56349 4.49321 
14 1 7.76391 3.012 3.01015 
15 1 7.04293 3.73111 3.69686 
28 1 10.1194 0.650013 0.708924 
29 1 8.58838 2.18564 2.18907 
30 1 9.30929 1.46644 1.49358 
1 1 6.17383 4.60012 6.17228 
2 1 7.62089 3.14356 7.5375 
3 1 6.90695 3.86318 6.8712 
40 1 10.0701 0.698473 10.0292 
41 1 8.48449 2.30672 8.73549 
42 1 9.25365 1.51261 9.27586 
49 2 7.56087 3.40962 8.94541 
7 1 6.16888 6.16058 4.61381 
8 1 7.68057 7.67993 3.08832 
9 1 6.97387 6.97053 3.80293 
43 1 10.0397 10.0456 0.736102 
44 1 8.50314 8.50336 2.26352 
45 1 9.21254 9.21754 1.56192 
22 1 6.21197 6.27711 6.21222 
23 1 7.76287 7.76516 7.76403 
24 1 7.0411 7.07477 7.04197 
34 1 10.1232 10.0643 10.1126 
35 1 8.59153 8.58231 8.58407 
36 1 9.29901 9.28111 9.31137 
ITEM: TIMESTEP
50
ITEM: NUMBER OF ATOMS
49
ITEM: BOX BOUNDS pp pp pp
0.0000000000000000e+00 1.1000000000000000e+01
0.0000000000000000e+00 1.1002000000000001e+01
0.0000000000000000e+00 1.1000000000000000e+01
ITEM: ATOMS id type x y z 
10 1 4.61174 4.60458 4.61117 
11 1 3.09061 3.08896 3.09014 
12 1 3.8011 3.79907 3.80037 
46 1 0.729159 0.732695 0.733089 
47 1 2.26728 2.26671 2.26608 
48 1 1.55547 1.5574 1.55973 
19 1 4.49543 4.56259 6.20867 
20 1 3.00912 3.014 7.76161 
21 1 3.69808 3.73439 7.04107 
31 1 0.710959 0.654476 10.1166 
32 1 2.19389 2.1875 8.58874 
33 1 1.49849 1.46597 9.30607 
16 1 4.53542 6.2393 4.53653 
17 1 3.01033 7.76837 3.01095 
18 1 3.71878 7.05281 3.71961 
25 1 0.675163 10.0973 0.669935 
26 1 2.18796 8.5879 2.18929 
27 1 1.47672 9.29754 1.47461 
4 1 4.6135 6.16232 6.16567 
5 1 3.08992 7.68179 7.67936 
6 1 3.80063 6.96815 6.97274 
37 1 0.743432 10.0316 10.0512 
38 1 2.26567 8.50379 8.50057 
39 1 1.56189 9.20978 9.21911 
13 1 6.20735 4.56472 4.49086 
14 1 7.76251 3.0126 3.00651 
15 1 7.04201 3.73338 3.69458 
28 1 10.1218 0.647202 0.711638 
29 1 8.59004 2.18428 2.18943 
30 1 9.31073 1.46401 1.49615 
1 1 6.17203 4.60174 6.17181 
2 1 7.62032 3.14486 7.5347 
3 1 6.9096 3.85956 6.86467 
40 1 10.0725 0.695592 10.0274 
41 1 8.48271 2.30911 8.74309 
42 1 9.25176 1.51585 9.28712 
49 2 7.55766 3.41294 8.94226 
7 1 6.16788 6.16044 4.61297 
8 1 7.68195 7.67995 3.08881 
9 1 6.97226 6.97101 3.80086 
43 1 10.0397 10.0467 0.738487 
44 1 8.50265 8.50529 2.2657 
45 1 9.21365 9.21477 1.55917 
22 1 6.21128 6.27896 6.21044 
23 1 7.76114 7.76634 7.76065 
24 1 7.04041 7.07714 7.0415 
34 1 10.1197 10.0638 10.1168 
35 1 8.58627 8.58143 8.58907 
36 1 9.30946 9.27629 9.30538 
ITEM: TIMESTEP
60
ITEM: NUMBER OF ATOMS
49
ITEM: BOX BOUNDS pp pp pp
0.0000000000000000e+00 1.1000000000000000e+01
0.0000000000000000e+00 1.1002000000000001e+01
0.0000000000000000e+00 1.1000000000000000e+01
ITEM: ATOMS id type x y z 
10 1 4.6117 4.60491 4.61059 
11 1 3.09042 3.0895 3.08985 
12 1 3.8016 3.79815 3.80084 
46 1 0.728746 0.732744 0.733752 
47 1 2.26697 2.26664 2.26704 
48 1 1.55641 1.55798 1.55871 
19 1 4.49485 4.56324 6.20837 
20 1 3.00794 3.0149 7.76144 
21 1 3.69822 3.7336 7.04054 
31 1 0.711343 0.65433 10.1166 
32 1 2.19499 2.18665 8.58885 
33 1 1.49801 1.46678 9.30645 
16 1 4.53448 6.23883 4.53567 
17 1 3.0096 7.76751 3.01031 
18 1 3.71944 7.05468 3.72034 
25 1 0.675755 10.0965 0.66991 
26 1 2.18815 8.5879 2.18935 
27 1 1.47673 9.29751 1.47474 
4 1 4.61287 6.16164 6.16607 
5 1 3.08913 7.68075 7.67975 
6 1 3.80174 6.97024 6.97183 
37 1 0.744256 10.0305 10.0526 
38 1 2.26626 8.50326 8.5008 
39 1 1.56228 9.20963 9.21857 
13 1 6.2072 4.56525 4.49026 
14 1 7.76231 3.01339 3.00554 
15 1 7.04121 3.73302 3.69394 
28 1 10.123 0.646748 0.712126 
29 1 8.59096 2.18437 2.1899 
30 1 9.30998 1.46279 1.49641 
1 1 6.17204 4.60155 6.17068 
2 1 7.62073 3.14448 7.53363 
3 1 6.90957 3.85991 6.86447 
40 1 10.0734 0.694376 10.0273 
41 1 8.48225 2.30972 8.74548 
42 1 9.25119 1.51684 9.29038 
49 2 7.55676 3.41381 8.94093 
7 1 6.1675 6.16085 4.61251 
8 1 7.68123 7.68059 3.08864 
9 1 6.9735 6.97003 3.80113 
43 1 10.04 10.0459 0.738181 
44 1 8.50313 8.50439 2.26542 
45 1 9.21308 9.2165 1.55994 
22 1 6.21059 6.27938 6.21016 
23 1 7.76021 7.76751 7.76052 
24 1 7.0407 7.07663 7.04078 
34 1 10.1203 10.0634 10.1165 
35 1 8.58775 8.58014 8.58876 
36 1 9.30763 9.277 9.30637 
ITEM: TIMESTEP
70
ITEM: NUMBER OF ATOMS
49
ITEM: BOX BOUNDS pp pp pp
0.0000000000000000e+00 1.1000000000000000e+01
0.0000000000000000e+00 1.1002000000000001e+01
0.0000000000000000e+00 1.1000000000000000e+01
ITEM: ATOMS id type x y z 
10 1 4.61054 4.60563 4.60866 
11 1 3.09032 3.0888 3.0898 
12 1 3.80155 3.79832 3.80011 
46 1 0.729461 0.735497 0.734346 
47 1 2.26727 2.26722 2.26853 
48 1 1.55648 1.55927 1.55943 
19 1 4.49305 4.56506 6.20626 
20 1 3.00259 3.01817 7.75762 
21 1 3.69439 3.7361 7.03745 
31 1 0.713271 0.654281 10.1186 
32 1 2.19948 2.18446 8.59064 
33 1 1.50153 1.46583 9.30849 
16 1 4.53082 6.23878 4.532 
17 1 3.0067 7.76503 3.00842 
18 1 3.72235 7.06242 3.7238 
25 1 0.680943 10.091 0.666927 
26 1 2.18895 8.58643 2.19106 
27 1 1.47903 9.29521 1.47363 
4 1 4.6118 6.16225 6.16453 
5 1 3.08923 7.68104 7.67856 
6 1 3.80148 6.9703 6.97038 
37 1 0.75092 10.0235 10.0616 
38 1 2.26862 8.50205 8.50146 
39 1 1.56492 9.20545 9.2225 
13 1 6.20619 4.56702 4.48566 
14 1 7.75926 3.01613 2.99707 
15 1 7.03935 3.73515 3.68711 
28 1 10.1292 0.640899 0.718991 
29 1 8.59361 2.18144 2.19154 
30 1 9.31367 1.45844 1.50099 
1 1 6.17174 4.60011 6.1652 
2 1 7.6235 3.14356 7.52638 
3 1 6.91037 3.85902 6.858 
40 1 10.0801 0.686003 10.0253 
41 1 8.47663 2.31653 8.76563 
42 1 9.24436 1.52709 9.31729 
49 2 7.5479 3.42263 8.92894 
7 1 6.16673 6.16194 4.61052 
8 1 7.68173 7.68127 3.08874 
9 1 6.97365 6.96946 3.79982 
43 1 10.0389 10.0447 0.739207 
44 1 8.50296 8.50487 2.26698 
45 1 9.21307 9.21652 1.561 
22 1 6.20815 6.28024 6.20622 
23 1 7.75588 7.77186 7.75696 
24 1 7.03782 7.07994 7.03742 
34 1 10.1193 10.062 10.1167 
35 1 8.58942 8.57495 8.58987 
36 1 9.30884 9.27301 9.30679 
ITEM: TIMESTEP
80
ITEM: NUMBER OF ATOMS
49
ITEM: BOX BOUNDS pp pp pp
0.0000000000000000e+00 1.1000000000000000e+01
0.0000000000000000e+00 1.1002000000000001e+01
0.0000000000000000e+00 1.1000000000000000e+01
ITEM: ATOMS id type x y z 
10 1 4.61003 4.60582 4.60865 
11 1 3.09028 3.08908 3.09021 
12 1 3.8022 3.79848 3.80022 
46 1 0.729393 0.736381 0.733868 
47 1 2.26701 2.26725 2.26886 
48 1 1.5566 1.55937 1.55894 
19 1 4.49333 4.56503 6.20573 
20 1 3.00192 3.01877 7.75747 
21 1 3.69377 3.73592 7.03633 
31 1 0.712145 0.655319 10.1183 
32 1 2.19923 2.18414 8.58987 
33 1 1.50283 1.46633 9.31005 
16 1 4.53299 6.24267 4.53398 
17 1 3.00927 7.77052 3.01151 
18 1 3.7181 7.05406 3.71968 
25 1 0.682225 10.0895 0.664995 
26 1 2.18877 8.58567 2.19096 
27 1 1.47939 9.29422 1.47271 
4 1 4.61228 6.16189 6.16455 
5 1 3.08959 7.68124 7.67831 
6 1 3.80099 6.97025 6.96968 
37 1 0.750714 10.0215 10.0628 
38 1 2.26752 8.50041 8.50094 
39 1 1.56934 9.20594 9.2257 
13 1 6.20616 4.56682 4.48482 
14 1 7.75927 3.01647 2.99513 
15 1 7.03862 3.73513 3.68535 
28 1 10.1309 0.639515 0.721179 
29 1 8.59428 2.18134 2.19174 
30 1 9.31353 1.45719 1.50159 
1 1 6.17212 4.5992 6.16446 
2 1 7.62496 3.14281 7.52461 
3 1 6.91136 3.85784 6.85641 
40 1 10.0812 0.685043 10.0245 
41 1 8.4745 2.31889 8.77137 
42 1 9.24227 1.52979 9.32285 
49 2 7.54555 3.42517 8.92677 
7 1 6.16711 6.16126 4.60971 
8 1 7.68199 7.68039 3.08797 
9 1 6.97313 6.9715 3.80118 
43 1 10.0381 10.0449 0.738785 
44 1 8.50259 8.50513 2.26721 
45 1 9.21395 9.21636 1.56145 
22 1 6.20844 6.28071 6.20624 
23 1 7.7548 7.77211 7.75604 
24 1 7.03739 7.07976 7.03642 
34 1 10.1184 10.0627 10.1166 
35 1 8.58977 8.57404 8.58955 
36 1 9.30772 9.27324 9.30681 
ITEM: TIMESTEP
90
ITEM: NUMBER OF ATOMS
49
ITEM: BOX BOUNDS pp pp pp
0.0000000000000000e+00 1.1000000000000000e+01
0.0000000000000000e+00 1.1002000000000001e+01
0.0000000000000000e+00 1.1000000000000000e+01
ITEM: ATOMS id type x y z 
10 1 4.61073 4.60578 4.60855 
11 1 3.09059 3.08905 3.09002 
12 1 3.8016 3.79855 3.80062 
46 1 0.729558 0.736448 0.733619 
47 1 2.2672 2.26724 2.26883 
48 1 1.55644 1.5597 1.55925 
19 1 4.49333 4.56465 6.20522 
20 1 3.00167 3.01873 7.757 
21 1 3.69387 3.73614 7.03676 
31 1 0.712579 0.655471 10.1189 
32 1 2.1999 2.18421 8.59053 
33 1 1.50173 1.46632 9.30893 
16 1 4.53246 6.24188 4.53333 
17 1 3.00878 7.76976 3.01113 
18 1 3.71871 7.05533 3.72034 
25 1 0.682516 10.0892 0.664417 
26 1 2.18886 8.58595 2.1912 
27 1 1.47955 9.29381 1.47227 
4 1 4.61198 6.1619 6.16456 
5 1 3.08915 7.68112 7.678 
6 1 3.80162 6.97046 6.97 
37 1 0.751662 10.0215 10.0637 
38 1 2.26836 8.50079 8.50167 
39 1 1.56814 9.20514 9.22529 
13 1 6.20568 4.56671 4.48465 
14 1 7.75879 3.01672 2.99483 
15 1 7.03888 3.73532 3.68533 
28 1 10.1307 0.638934 0.721572 
29 1 8.59381 2.18089 2.19154 
30 1 9.31467 1.45767 1.50208 
1 1 6.1723 4.59881 6.16419 
2 1 7.6251 3.14267 7.52453 
3 1 6.91169 3.85789 6.85602 
40 1 10.0813 0.684964 10.0242 
41 1 8.474 2.31935 8.77227 
42 1 9.24206 1.53018 9.32412 
49 2 7.54481 3.42597 8.92605 
7 1 6.16722 6.16163 4.61008 
8 1 7.68191 7.68113 3.08844 
9 1 6.97338 6.97041 3.80017 
43 1 10.0384 10.0447 0.739022 
44 1 8.50317 8.50501 2.26746 
45 1 9.21299 9.21662 1.56108 
22 1 6.20868 6.28034 6.2061 
23 1 7.75503 7.77233 7.75595 
24 1 7.03703 7.07981 7.03651 
34 1 10.1181 10.0627 10.1165 
35 1 8.58968 8.57391 8.58947 
36 1 9.3076 9.27318 9.30672 
ITEM: TIMESTEP
100
ITEM: NUMBER OF ATOMS
49
ITEM: BOX BOUNDS pp pp pp
0.0000000000000000e+00 1.1000000000000000e+01
0.0000000000000000e+00 1.1002000000000001e+01
0.0000000000000000e+00 1.1000000000000000e+01
ITEM: ATOMS id type x y z 
10 1 4.6108 4.60591 4.60855 
11 1 3.09054 3.08906 3.09006 
12 1 3.80159 3.79853 3.80059 
46 1 0.729521 0.737043 0.733343 
47 1 2.26723 2.2675 2.26899 
48 1 1.55657 1.5597 1.55933 
19 1 4.4934 4.56442 6.20503 
20 1 3.00138 3.01878 7.75676 
21 1 3.6938 3.73627 7.0366 
31 1 0.712204 0.656066 10.1191 
32 1 2.20007 2.18419 8.59064 
33 1 1.50146 1.46649 9.30876 
16 1 4.53206 6.24122 4.53275 
17 1 3.00841 7.76887 3.01091 
18 1 3.71927 7.05651 3.72118 
25 1 0.68307 10.0881 0.663316 
26 1 2.18901 8.58591 2.19136 
27 1 1.47999 9.29366 1.47203 
4 1 4.61216 6.16197 6.16456 
5 1 3.08916 7.6811 7.67783 
6 1 3.80163 6.97041 6.96981 
37 1 0.752855 10.0212 10.0649 
38 1 2.26948 8.5009 8.50251 
39 1 1.56705 9.20415 9.22503 
13 1 6.20563 4.56656 4.4843 
14 1 7.75852 3.01688 2.99409 
15 1 7.03882 3.73545 3.68476 
28 1 10.1313 0.638192 0.722547 
29 1 8.59401 2.18063 2.19166 
30 1 9.31483 1.45751 1.50209 
1 1 6.1727 4.59834 6.16376 
2 1 7.62573 3.14237 7.52411 
3 1 6.91213 3.85755 6.85565 
40 1 10.0818 0.684384 10.0238 
41 1 8.47316 2.32015 8.77458 
42 1 9.24124 1.53134 9.32647 
49 2 7.54363 3.42722 8.92477 
7 1 6.16726 6.16174 4.61 
8 1 7.6819 7.68118 3.08839 
9 1 6.97346 6.97051 3.80029 
43 1 10.0381 10.0448 0.738815 
44 1 8.5032 8.5051 2.26757 
45 1 9.21302 9.21665 1.56112 
22 1 6.20855 6.2799 6.20586 
23 1 7.75483 7.77257 7.75574 
24 1 7.0371 7.07977 7.03632 
34 1 10.1175 10.0632 10.1163 
35 1 8.58967 8.57375 8.58934 
36 1 9.30727 9.27322 9.30672 
ITEM: TIMESTEP
110
ITEM: NUMBER OF ATOMS
49
ITEM: BOX BOUNDS pp pp pp
0.0000000000000000e+00 1.1000000000000000e+01
0.0000000000000000e+00 1.1002000000000001e+01
0.0000000000000000e+00 1.1000000000000000e+01
ITEM: ATOMS id type x y z 
10 1 4.61077 4.60586 4.60864 
11 1 3.09048 3.08904 3.09014 
12 1 3.80168 3.79856 3.80046 
46 1 0.729554 0.737022 0.733356 
47 1 2.26722 2.26732 2.26902 
48 1 1.5565 1.56 1.5592 
19 1 4.49341 4.56445 6.20501 
20 1 3.00135 3.0189 7.75666 
21 1 3.69382 3.73619 7.03654 
31 1 0.71225 0.656196 10.1193 
32 1 2.20016 2.18419 8.59069 
33 1 1.50132 1.46653 9.30864 
16 1 4.53205 6.24132 4.5328 
17 1 3.00837 7.76901 3.01102 
18 1 3.71925 7.05626 3.72102 
25 1 0.683242 10.0881 0.663125 
26 1 2.18909 8.58603 2.19148 
27 1 1.48 9.29335 1.4718 
4 1 4.61214 6.16191 6.16455 
5 1 3.08916 7.68111 7.67776 
6 1 3.80167 6.97038 6.96983 
37 1 0.752822 10.021 10.0649 
38 1 2.2694 8.50078 8.50247 
39 1 1.5674 9.20417 9.22538 
13 1 6.20568 4.56663 4.48421 
14 1 7.75852 3.01699 2.99389 
15 1 7.03868 3.73534 3.68474 
28 1 10.1314 0.638142 0.722632 
29 1 8.59396 2.1807 2.19145 
30 1 9.31504 1.45723 1.50253 
1 1 6.17278 4.5982 6.16363 
2 1 7.62592 3.1423 7.52392 
3 1 6.91214 3.85746 6.85561 
40 1 10.0818 0.684303 10.0237 
41 1 8.47292 2.32038 8.77504 
42 1 9.24108 1.53156 9.32699 
49 2 7.54335 3.42755 8.92457 
7 1 6.16731 6.16175 4.61 
8 1 7.68193 7.68124 3.08846 
9 1 6.97342 6.97044 3.80018 
43 1 10.0381 10.0447 0.738836 
44 1 8.50332 8.50504 2.26769 
45 1 9.21279 9.21678 1.56097 
22 1 6.20855 6.27984 6.20583 
23 1 7.7548 7.77263 7.75569 
24 1 7.03711 7.07976 7.0363 
34 1 10.1174 10.0633 10.1163 
35 1 8.58964 8.57367 8.58938 
36 1 9.30724 9.27333 9.3066 
ITEM: TIMESTEP
120
ITEM: NUMBER OF ATOMS
49
ITEM: BOX BOUNDS pp pp pp
0.0000000000000000e+00 1.1000000000000000e+01
0.0000000000000000e+00 1.1002000000000001e+01
0.0000000000000000e+00 1.1000000000000000e+01
ITEM: ATOMS id type x y z 
10 1 4.61078 4.60585 4.60864 
11 1 3.09049 3.08903 3.09014 
12 1 3.80166 3.79858 3.80047 
46 1 0.729556 0.737036 0.733345 
47 1 2.26722 2.26732 2.26902 
48 1 1.55649 1.56 1.55921 
19 1 4.49342 4.56445 6.20501 
20 1 3.00135 3.0189 7.75665 
21 1 3.69381 3.73619 7.03654 
31 1 0.712244 0.656212 10.1193 
32 1 2.20016 2.1842 8.59069 
33 1 1.50132 1.46654 9.30864 
16 1 4.53205 6.24133 4.5328 
17 1 3.00837 7.76901 3.01103 
18 1 3.71925 7.05626 3.72102 
25 1 0.683257 10.0881 0.663098 
26 1 2.18909 8.58604 2.19149 
27 1 1.48001 9.29333 1.47178 
4 1 4.61214 6.16191 6.16455 
5 1 3.08916 7.68111 7.67776 
6 1 3.80167 6.97038 6.96983 
37 1 0.752814 10.021 10.065 
38 1 2.26938 8.50077 8.50247 
39 1 1.56745 9.20417 9.22542 
13 1 6.20568 4.56663 4.4842 
14 1 7.75851 3.017 2.99387 
15 1 7.03868 3.73534 3.68472 
28 1 10.1314 0.638125 0.722651 
29 1 8.59396 2.18071 2.19144 
30 1 9.31506 1.45722 1.50256 
1 1 6.17281 4.59819 6.1636 
2 1 7.62595 3.14228 7.52388 
3 1 6.91213 3.85746 6.85563 
40 1 10.0818 0.684292 10.0237 
41 1 8.4729 2.3204 8.7751 
42 1 9.24105 1.5316 9.32704 
49 2 7.54331 3.42758 8.92454 
7 1 6.16731 6.16175 4.61 
8 1 7.68192 7.68124 3.08845 
9 1 6.97342 6.97045 3.8002 
43 1 10.0381 10.0447 0.738831 
44 1 8.50332 8.50504 2.26769 
45 1 9.21279 9.21678 1.56096 
22 1 6.20855 6.27983 6.20582 
23 1 7.7548 7.77264 7.75568 
24 1 7.0371 7.07975 7.0363 
34 1 10.1174 10.0633 10.1163 
35 1 8.58964 8.57366 8.58938 
36 1 9.30723 9.27334 9.3066 
ITEM: TIMESTEP
121
ITEM: NUMBER OF ATOMS
49
ITEM: BOX BOUNDS pp pp pp
0.0000000000000000e+00 1.1000000000000000e+01
0.0000000000000000e+00 1.1002000000000001e+01
0.0000000000000000e+00 1.1000000000000000e+01
ITEM: ATOMS id type x y z 
10 1 4.61078 4.60585 4.60864 
11 1 3.09049 3.08903 3.09014 
12 1 3.80166 3.79857 3.80047 
46 1 0.729556 0.737036 0.733345 
47 1 2.26722 2.26732 2.26902 
48 1 1.55649 1.56 1.55921 
19 1 4.49342 4.56445 6.20501 
20 1 3.00135 3.0189 7.75665 
21 1 3.69381 3.73619 7.03653 
31 1 0.712244 0.656212 10.1193 
32 1 2.20016 2.1842 8.59069 
33 1 1.50132 1.46654 9.30864 
16 1 4.53205 6.24133 4.5328 
17 1 3.00837 7.76901 3.01103 
18 1 3.71925 7.05626 3.72102 
25 1 0.683257 10.0881 0.663098 
26 1 2.18909 8.58604 2.19149 
27 1 1.48001 9.29333 1.47178 
4 1 4.61214 6.16191 6.16455 
5 1 3.08916 7.68111 7.67776 
6 1 3.80167 6.97038 6.96983 
37 1 0.752814 10.021 10.065 
38 1 2.26938 8.50077 8.50247 
39 1 1.56745 9.20417 9.22542 
13 1 6.20568 4.56663 4.4842 
14 1 7.75851 3.017 2.99387 
15 1 7.03868 3.73534 3.68472 
28 1 10.1314 0.638125 0.722651 
29 1 8.59396 2.18071 2.19144 
30 1 9.31506 1.45722 1.50256 
1 1 6.17281 4.59819 6.1636 
2 1 7.62595 3.14228 7.52388 
3 1 6.91213 3.85746 6.85563 
40 1 10.0818 0.684292 10.0237 
41 1 8.4729 2.3204 8.7751 
42 1 9.24105 1.5316 9.32704 
49 2 7.54331 3.42758 8.92454 
7 1 6.16731 6.16175 4.61 
8 1 7.68192 7.68124 3.08845 
9 1 6.97342 6.97045 3.8002 
43 1 10.0381 10.0447 0.738831 
44 1 8.50332 8.50504 2.26769 
45 1 9.21279 9.21678 1.56096 
22 1 6.20855 6.27983 6.20582 
23 1 7.7548 7.77264 7.75568 
24 1 7.0371 7.07975 7.0363 
34 1 10.1174 10.0633 10.1163 
35 1 8.58964 8.57366 8.58938 
36 1 9.30723 9.27334 9.3066 
ITEM: TIMESTEP
123
ITEM: NUMBER OF ATOMS
49
ITEM: BOX BOUNDS pp pp pp
0.0000000000000000e+00 1.1000000000000000e+01
0.0000000000000000e+00 1.1002000000000001e+01
0.0000000000000000e+00 1.1000000000000000e+01
ITEM: ATOMS id type x y z 
10 1 4.61078 4.60585 4.60864 
11 1 3.09049 3.08903 3.09014 
12 1 3.80166 3.79858 3.80047 
46 1 0.729555 0.737037 0.733345 
47 1 2.26722 2.26732 2.26902 
48 1 1.55649 1.56 1.55921 
19 1 4.49342 4.56445 6.20501 
20 1 3.00135 3.0189 7.75665 
21 1 3.69381 3.73619 7.03654 
31 1 0.712244 0.656212 10.1193 
32 1 2.20016 2.1842 8.59069 
33 1 1.50132 1.46654 9.30864 
16 1 4.53205 6.24133 4.5328 
17 1 3.00837 7.76901 3.01103 
18 1 3.71925 7.05626 3.72102 
25 1 0.683258 10.0881 0.663096 
26 1 2.18909 8.58604 2.19149 
27 1 1.48001 9.29333 1.47178 
4 1 4.61215 6.16191 6.16455 
5 1 3.08916 7.68111 7.67776 
6 1 3.80167 6.97038 6.96983 
37 1 0.752813 10.021 10.065 
38 1 2.26938 8.50077 8.50247 
39 1 1.56746 9.20417 9.22542 
13 1 6.20568 4.56663 4.4842 
14 1 7.75851 3.017 2.99387 
15 1 7.03868 3.73534 3.68472 
28 1 10.1314 0.638125 0.722652 
29 1 8.59396 2.18071 2.19144 
30 1 9.31506 1.45722 1.50256 
1 1 6.17281 4.59819 6.1636 
2 1 7.62595 3.14228 7.52388 
3 1 6.91213 3.85746 6.85563 
40 1 10.0818 0.684292 10.0237 
41 1 8.4729 2.3204 8.7751 
42 1 9.24105 1.5316 9.32705 
49 2 7.54331 3.42758 8.92454 
7 1 6.16732 6.16175 4.61 
8 1 7.68192 7.68124 3.08845 
9 1 6.97342 6.97045 3.80019 
43 1 10.0381 10.0447 0.73883 
44 1 8.50332 8.50504 2.26769 
45 1 9.21279 9.21678 1.56096 
22 1 6.20855 6.27983 6.20582 
23 1 7.7548 7.77264 7.75568 
24 1 7.0371 7.07975 7.0363 
34 1 10.1174 10.0633 10.1163 
35 1 8.58964 8.57366 8.58938 
36 1 9.30723 9.27335 9.3066 
ITEM: TIMESTEP
130
ITEM: NUMBER OF ATOMS
49
ITEM: BOX BOUNDS pp pp pp
-2.9257575580383549e-03 1.1002925757558041e+01
-2.8013344484054880e-03 1.1004801334448407e+01
-1.3063417984220905e-03 1.1001306341798424e+01
ITEM: ATOMS id type x y z 
10 1 4.61076 4.60578 4.60887 
11 1 3.08935 3.08793 3.0897 
12 1 3.80061 3.7976 3.79995 
46 1 0.726571 0.734292 0.731781 
47 1 2.26535 2.26553 2.26812 
48 1 1.55409 1.55773 1.55795 
19 1 4.49323 4.5643 6.20477 
20 1 3.0002 3.01775 7.75699 
21 1 3.693 3.73566 7.03664 
31 1 0.709218 0.653387 10.1209 
32 1 2.19822 2.18239 8.59155 
33 1 1.4994 1.46459 9.30946 
16 1 4.53192 6.24131 4.53294 
17 1 3.0072 7.76997 3.01061 
18 1 3.71854 7.05683 3.72087 
25 1 0.680319 10.0907 0.661278 
26 1 2.18718 8.58771 2.19053 
27 1 1.47807 9.29518 1.47098 
4 1 4.61214 6.16181 6.1643 
5 1 3.08804 7.68211 7.67812 
6 1 3.80062 6.9712 6.9703 
37 1 0.74986 10.0236 10.0665 
38 1 2.26745 8.50239 8.50333 
39 1 1.56529 9.20637 9.22674 
13 1 6.20572 4.56655 4.48426 
14 1 7.75958 3.01593 2.99339 
15 1 7.03914 3.73469 3.6844 
28 1 10.1345 0.635055 0.721296 
29 1 8.59576 2.17887 2.19049 
30 1 9.31699 1.45521 1.5018 
1 1 6.17288 4.59798 6.16339 
2 1 7.62715 3.14106 7.52441 
3 1 6.91284 3.85667 6.85582 
40 1 10.0847 0.681373 10.0251 
41 1 8.47444 2.31883 8.77623 
42 1 9.24317 1.52947 9.32839 
49 2 7.54439 3.42652 8.92514 
7 1 6.16729 6.16164 4.61022 
8 1 7.68296 7.68221 3.08802 
9 1 6.97432 6.97134 3.79966 
43 1 10.0409 10.0475 0.737269 
44 1 8.50509 8.50672 2.26677 
45 1 9.21504 9.219 1.55975 
22 1 6.20854 6.27988 6.20559 
23 1 7.75583 7.77362 7.75605 
24 1 7.03765 7.08036 7.03635 
34 1 10.1202 10.0661 10.1178 
35 1 8.59142 8.57542 8.59022 
36 1 9.30911 9.27506 9.30744 
ITEM: TIMESTEP
140
ITEM: NUMBER OF ATOMS
49
ITEM: BOX BOUNDS pp pp pp
-5.8287735412587581e-03 1.1005828773541262e+01
-4.9861109855794030e-03 1.1006986110985581e+01
-2.5150103823411152e-03 1.1002515010382345e+01
ITEM: ATOMS id type x y z 
10 1 4.61091 4.60591 4.60927 
11 1 3.0883 3.08719 3.08944 
12 1 3.79952 3.79674 3.79935 
46 1 0.723459 0.732038 0.730113 
47 1 2.26305 2.26362 2.2668 
48 1 1.55201 1.55631 1.55715 
19 1 4.49327 4.56459 6.20429 
20 1 2.99942 3.01745 7.75683 
21 1 3.69207 3.73492 7.03687 
31 1 0.706057 0.651099 10.1225 
32 1 2.1963 2.18079 8.59245 
33 1 1.49735 1.46331 9.31013 
16 1 4.532 6.241 4.53331 
17 1 3.00647 7.77025 3.01071 
18 1 3.71762 7.05742 3.72051 
25 1 0.677482 10.0928 0.659387 
26 1 2.18525 8.5892 2.18966 
27 1 1.47619 9.29635 1.4701 
4 1 4.61229 6.16143 6.16393 
5 1 3.08702 7.68271 7.67835 
6 1 3.79953 6.97201 6.97077 
37 1 0.746957 10.0258 10.0683 
38 1 2.26526 8.50412 8.50472 
39 1 1.56328 9.20769 9.22755 
13 1 6.20543 4.5668 4.4845 
14 1 7.76004 3.0156 2.99327 
15 1 7.03998 3.73405 3.68394 
28 1 10.1377 0.632363 0.720062 
29 1 8.59766 2.17727 2.18951 
30 1 9.3189 1.45372 1.50121 
1 1 6.17303 4.59764 6.16309 
2 1 7.62818 3.14019 7.52484 
3 1 6.91346 3.85642 6.8559 
40 1 10.0878 0.678701 10.0266 
41 1 8.47617 2.31746 8.77801 
42 1 9.2449 1.52821 9.32979 
49 2 7.54564 3.42543 8.9253 
7 1 6.16716 6.16128 4.61063 
8 1 7.6839 7.68287 3.08776 
9 1 6.97528 6.97212 3.79904 
43 1 10.0436 10.05 0.735649 
44 1 8.50728 8.50855 2.26549 
45 1 9.21694 9.2204 1.55894 
22 1 6.20826 6.27958 6.20509 
23 1 7.75635 7.77393 7.75588 
24 1 7.03844 7.081 7.0366 
34 1 10.123 10.0686 10.1194 
35 1 8.59331 8.57681 8.59112 
36 1 9.31081 9.27648 9.30807 
ITEM: TIMESTEP
150
ITEM: NUMBER OF ATOMS
49
ITEM: BOX BOUNDS pp pp pp
-9.2753650699658411e-03 1.1009275365069971e+01
-7.3442955566336461e-03 1.1009344295556639e+01
-3.7474778306827955e-03 1.1003747477830686e+01
ITEM: ATOMS id type x y z 
10 1 4.61123 4.60614 4.60984 
11 1 3.08709 3.08654 3.08919 
12 1 3.79823 3.79564 3.79884 
46 1 0.719476 0.7295 0.728008 
47 1 2.26035 2.26154 2.26536 
48 1 1.54927 1.55456 1.55614 
19 1 4.49369 4.5652 6.20352 
20 1 2.99862 3.01723 7.75658 
21 1 3.6909 3.73435 7.03665 
31 1 0.702114 0.648684 10.1244 
32 1 2.19389 2.17896 8.59335 
33 1 1.49504 1.46204 9.311 
16 1 4.53227 6.24048 4.53389 
17 1 3.00568 7.77044 3.01097 
18 1 3.71653 7.05789 3.72031 
25 1 0.674094 10.0949 0.656939 
26 1 2.18283 8.5907 2.18867 
27 1 1.47423 9.29782 1.46922 
4 1 4.61249 6.1608 6.16346 
5 1 3.08583 7.68328 7.67846 
6 1 3.79832 6.97292 6.9713 
37 1 0.743363 10.0284 10.0704 
38 1 2.26264 8.50614 8.50616 
39 1 1.56096 9.20892 9.22896 
13 1 6.20497 4.56744 4.48509 
14 1 7.76064 3.01549 2.99326 
15 1 7.04045 3.73343 3.68335 
28 1 10.1418 0.629145 0.718992 
29 1 8.59997 2.17547 2.18837 
30 1 9.32125 1.45198 1.50079 
1 1 6.17352 4.59742 6.16301 
2 1 7.62915 3.14024 7.52525 
3 1 6.91397 3.85523 6.8552 
40 1 10.0918 0.675532 10.0282 
41 1 8.47826 2.31594 8.78063 
42 1 9.24692 1.52697 9.33184 
49 2 7.54717 3.42412 8.925 
7 1 6.16683 6.16071 4.61093 
8 1 7.68471 7.68354 3.08733 
9 1 6.97694 6.97298 3.79883 
43 1 10.0472 10.0529 0.733738 
44 1 8.51006 8.51052 2.26416 
45 1 9.21907 9.22228 1.55784 
22 1 6.2079 6.27884 6.20416 