ITEM: TIMESTEP
0
ITEM: NUMBER OF ATOMS
161
ITEM: BOX BOUNDS xy xz yz pp pp pp
-6.7755000000000001e+00 1.3552000000000000e+01 -6.7755000000000001e+00
0.0000000000000000e+00 1.1735510246683001e+01 0.0000000000000000e+00
0.0000000000000000e+00 2.2149999999999999e+01 0.0000000000000000e+00
ITEM: ATOMS id type x y z 
8 1 -2.486 5.297 9.849 
87 1 3.001 4.231 10.696 
90 1 2.733 5.481 9.824 
109 1 -2.486 5.297 0.765 
158 1 2.733 5.481 0.79 
11 1 4.24 4.139 20.131 
14 1 3.031 4.094 19.728 
18 1 1.299 5.827 18.554 
33 1 2.266 4.151 20.924 
43 1 4.343 3.96 21.647 
47 1 3.32 5.732 17.88 
52 1 4.24 4.139 12.633 
76 1 2.552 4.924 14.209 
85 1 4.343 3.96 11.117 
89 1 3.32 5.732 14.883 
91 1 1.036 5.037 11.84 
102 1 3.031 4.094 13.035 
105 1 1.299 5.827 14.209 
114 1 2.266 4.151 11.84 
150 1 2.552 4.924 18.554 
156 1 3.001 4.231 22.068 
159 1 1.036 5.037 20.924 
5 1 -5.049 10.63 8.653 
9 1 -3.317 8.897 7.479 
19 1 -1.707 7.414 10.572 
21 1 -2.66 8.795 10.993 
23 1 -3.31 7.532 6.805 
25 1 -4.284 10.573 9.849 
32 1 1.503 6.367 0.79 
36 1 -1.869 7.426 9.056 
38 1 -2.209 6.086 8.653 
54 1 0.3 8.576 10.696 
57 1 1.291 8.001 9.824 
60 1 -1.707 7.414 0.042 
65 1 -3.31 7.532 3.808 
78 1 -1.869 7.426 1.558 
80 1 -2.566 8.842 1.961 
84 1 -4.57 9.799 3.135 
99 1 -3.054 9.687 0.765 
100 1 -2.96 6.142 3.135 
107 1 -5.049 10.63 1.961 
110 1 -3.317 8.897 3.135 
111 1 0.642 5.929 10.696 
113 1 1.503 6.367 9.824 
119 1 -4.284 10.573 0.765 
127 1 -2.209 6.086 1.961 
131 1 -2.318 6.148 10.993 
138 1 1.291 8.001 0.79 
142 1 -2.566 8.842 8.653 
145 1 -4.57 9.799 7.479 
151 1 -5.019 10.493 10.993 
154 1 -3.054 9.687 9.849 
155 1 -2.96 6.142 7.479 
12 1 2.53 7.1 17.202 
17 1 0.468 9.427 20.924 
24 1 -3.52 8.357 11.865 
27 1 -0.31 7.31 21.647 
29 1 0.642 5.929 22.068 
31 1 1.292 7.192 17.88 
44 1 -0.148 7.298 20.131 
46 1 0.191 8.638 19.728 
51 1 -0.31 7.31 11.117 
53 1 2.53 7.1 15.561 
56 1 1.292 7.192 14.883 
63 1 -2.318 6.148 21.771 
66 1 -3.309 6.723 20.899 
70 1 -0.148 7.298 12.633 
72 1 0.548 5.882 13.035 
92 1 0.942 8.582 14.209 
95 1 -5.019 10.493 21.771 
98 1 -4.751 9.243 20.899 
104 1 0.468 9.427 11.84 
116 1 -2.66 8.795 21.771 
118 1 -3.52 8.357 20.899 
122 1 0.191 8.638 13.035 
133 1 -3.309 6.723 11.865 
136 1 0.3 8.576 22.068 
147 1 0.548 5.882 19.728 
153 1 -4.751 9.243 11.865 
160 1 0.942 8.582 18.554 
1 1 7.976 4.694 10.572 
4 1 9.274 4.77 10.993 
20 1 8.034 4.861 9.056 
42 1 9.55 5.41 7.479 
67 1 10.043 4.578 0.765 
77 1 7.976 4.694 0.042 
94 1 8.035 4.861 1.558 
96 1 9.278 4.635 1.961 
121 1 4.688 5.417 10.696 
130 1 9.55 5.41 3.135 
134 1 10.043 4.578 9.849 
152 1 9.278 4.635 8.653 
161 2 8.074 5.518 6.286 
45 1 4.688 5.417 22.068 
55 1 4.788 5.329 13.035 
106 1 9.274 4.77 21.771 
137 1 4.788 5.329 19.728 
2 1 7.294 10.585 9.056 
3 1 9.004 7.624 6.127 
6 1 8.556 6.347 6.805 
16 1 2.314 8.72 0.79 
22 1 7.166 6.156 8.653 
26 1 7.226 8.565 7.479 
35 1 7.191 10.764 10.572 
37 1 6.846 9.307 10.993 
39 1 8.214 8.992 6.805 
41 1 6.677 7.002 9.849 
48 1 3.775 6.213 0.79 
61 1 7.294 10.585 1.558 
62 1 9.004 7.624 4.487 
64 1 6.747 9.395 1.961 
68 1 7.437 6.931 3.135 
71 1 4.29 8.493 10.696 
74 1 3.567 7.818 9.824 
81 1 8.556 6.347 3.808 
83 1 6.47 8.606 0.765 
93 1 7.191 10.764 0.042 
97 1 8.214 8.992 3.808 
101 1 2.261 9.954 10.696 
103 1 2.314 8.72 9.824 
117 1 7.166 6.156 1.961 
120 1 7.226 8.565 3.135 
123 1 3.775 6.213 9.824 
129 1 6.677 7.002 0.765 
132 1 6.747 9.395 8.653 
135 1 7.437 6.931 7.479 
141 1 7.244 6.231 10.993 
144 1 6.47 8.606 9.849 
148 1 3.567 7.818 0.79 
7 1 9.22 6.004 11.865 
10 1 3.558 10.029 21.647 
13 1 2.261 9.954 22.068 
15 1 2.978 8.376 17.88 
28 1 3.5 9.862 20.131 
30 1 4.369 8.568 19.728 
34 1 4.308 6.159 18.554 
40 1 7.76 8.511 11.865 
49 1 4.857 7.722 20.924 
50 1 1.984 9.314 18.554 
58 1 1.491 10.146 11.84 
59 1 4.097 7.793 14.209 
69 1 3.558 10.029 11.117 
73 1 2.978 8.376 14.883 
75 1 5.064 6.118 11.84 
79 1 7.244 6.231 21.771 
82 1 7.967 6.906 20.899 
86 1 3.5 9.862 12.633 
88 1 2.256 10.089 13.035 
108 1 9.22 6.004 20.899 
112 1 4.369 8.568 13.035 
115 1 4.308 6.159 14.209 
124 1 4.857 7.722 11.84 
125 1 1.984 9.314 14.209 
126 1 6.846 9.307 21.771 
128 1 7.76 8.511 20.899 
139 1 1.491 10.146 20.924 
140 1 4.097 7.793 18.554 
143 1 7.967 6.906 11.865 
146 1 4.29 8.493 22.068 
149 1 5.064 6.118 20.924 
157 1 2.256 10.089 19.728 
ITEM: TIMESTEP
10
ITEM: NUMBER OF ATOMS
161
ITEM: BOX BOUNDS xy xz yz pp pp pp
-6.7755000000000001e+00 1.3552000000000000e+01 -6.7755000000000001e+00
0.0000000000000000e+00 1.1735510246683001e+01 0.0000000000000000e+00
0.0000000000000000e+00 2.2149999999999999e+01 0.0000000000000000e+00
ITEM: ATOMS id type x y z 
8 1 -2.41261 5.37347 9.84286 
87 1 2.98028 4.28295 10.6412 
90 1 2.67779 5.4545 9.77745 
109 1 -2.41359 5.37108 0.766576 
158 1 2.68108 5.45108 0.833816 
11 1 4.28867 4.19546 20.1297 
14 1 2.91643 4.12422 19.7168 
18 1 1.36362 5.86251 18.5891 
33 1 2.12819 4.24559 20.8984 
43 1 4.31653 4.14052 21.5785 
47 1 3.22808 5.8014 17.8655 
52 1 4.2883 4.19153 12.6345 
76 1 2.4292 4.8798 14.1734 
85 1 4.31631 4.13633 11.1905 
89 1 3.23059 5.79982 14.8994 
91 1 0.969619 5.10686 11.8617 
102 1 2.91701 4.12261 13.046 
105 1 1.35999 5.8595 14.1729 
114 1 2.12654 4.24581 11.8674 
150 1 2.42885 4.87823 18.5898 
156 1 2.9748 4.28113 22.1206 
159 1 0.969242 5.10774 20.9004 
5 1 -4.92581 10.5669 8.60055 
9 1 -3.26631 8.87693 7.52802 
19 1 -1.75526 7.52095 10.5708 
21 1 -2.61092 8.75579 10.9127 
23 1 -3.25961 7.60375 6.87393 
25 1 -4.14899 10.4773 9.82155 
32 1 1.57779 6.33828 0.785126 
36 1 -1.89081 7.5286 9.065 
38 1 -2.15618 6.21553 8.64506 
54 1 0.302854 8.50539 10.6817 
57 1 1.35042 8.00791 9.78644 
60 1 -1.75889 7.50683 0.0518368 
65 1 -3.30089 7.5292 3.76876 
78 1 -1.90253 7.54068 1.55687 
80 1 -2.56434 8.78436 1.88681 
84 1 -4.43991 9.85072 3.09661 
99 1 -2.98918 9.62541 0.795286 
100 1 -2.92228 6.25048 3.17666 
107 1 -4.93739 10.5971 1.97873 
110 1 -3.3717 8.8634 3.10673 
111 1 0.59378 5.96975 10.7653 
113 1 1.57676 6.33869 9.82931 
119 1 -4.14551 10.483 0.794804 
127 1 -2.15629 6.2063 1.96209 
131 1 -2.32109 6.20858 11.01 
138 1 1.35078 8.00908 0.827291 
142 1 -2.54314 8.79723 8.73974 
145 1 -4.48045 9.78648 7.49364 
151 1 -4.97065 10.4522 11.0432 
154 1 -2.9914 9.62906 9.83951 
155 1 -2.92875 6.31042 7.41563 
12 1 2.5751 7.08326 17.1168 
17 1 0.396161 9.35333 20.9201 
24 1 -3.5935 8.39213 11.862 
27 1 -0.259705 7.20453 21.6413 
29 1 0.593308 5.96938 21.9983 
31 1 1.29387 7.20419 17.9065 
44 1 -0.110757 7.18026 20.1305 
46 1 0.139768 8.51866 19.7257 
51 1 -0.255406 7.20377 11.1238 
53 1 2.57561 7.08803 15.6448 
56 1 1.29619 7.2065 14.8576 
63 1 -2.3212 6.22134 21.7594 
66 1 -3.37789 6.74607 20.8627 
70 1 -0.112162 7.18099 12.6337 
72 1 0.560246 5.92954 12.9848 
92 1 0.904981 8.47681 14.2502 
95 1 -4.98194 10.4358 21.709 
98 1 -4.6784 9.21898 20.8587 
104 1 0.395839 9.35294 11.8446 
116 1 -2.6136 8.75243 21.8139 
118 1 -3.5564 8.38951 20.9232 
122 1 0.139212 8.51858 13.0366 
133 1 -3.36858 6.7182 11.9031 
136 1 0.303263 8.50551 22.0823 
147 1 0.559855 5.93028 19.779 
153 1 -4.69994 9.28054 11.9028 
160 1 0.905916 8.47669 18.514 
1 1 7.86793 4.94517 10.5213 
4 1 9.18532 4.77137 11.0395 
20 1 7.86477 4.94534 9.04473 
42 1 9.50784 5.42483 7.47615 
67 1 9.98023 4.55758 0.756201 
77 1 7.88188 4.9595 0.0907384 
94 1 7.87793 4.94737 1.54205 
96 1 9.19729 4.6511 1.99274 
121 1 4.67346 5.42156 10.7146 
130 1 9.45569 5.42236 3.17364 
134 1 9.9961 4.55233 9.86347 
152 1 9.20343 4.63959 8.62083 
161 2 8.00458 5.46249 6.19338 
45 1 4.67474 5.42684 22.0412 
55 1 4.81739 5.4847 13.0733 
106 1 9.18229 4.78395 21.726 
137 1 4.81596 5.48598 19.6937 
2 1 7.25539 10.5192 9.0571 
3 1 9.00284 7.71615 6.10119 
6 1 8.42551 6.25324 6.81428 
16 1 2.34827 8.69672 0.830981 
22 1 7.17038 6.1963 8.742 
26 1 7.17411 8.43266 7.54147 
35 1 7.21565 10.5873 10.5149 
37 1 6.84751 9.29751 10.9662 
39 1 8.24886 8.92236 6.78321 
41 1 6.72672 7.01631 9.84001 
48 1 3.70871 6.37158 0.841069 
61 1 7.25821 10.5263 1.55396 
62 1 8.96933 7.64986 4.54917 
64 1 6.70952 9.24336 2.00268 
68 1 7.40949 6.97086 3.04419 
71 1 4.28699 8.55704 10.7768 
74 1 3.62729 7.78879 9.83789 
81 1 8.53003 6.39665 3.76482 
83 1 6.54875 8.43864 0.778719 
93 1 7.21718 10.5877 0.108138 
97 1 8.29046 8.93574 3.82759 
101 1 2.35039 9.94879 10.6515 
103 1 2.34765 8.69668 9.78195 
117 1 7.15047 6.18915 1.91766 
120 1 7.16073 8.40378 3.0548 
123 1 3.7073 6.37239 9.77021 
129 1 6.73364 7.01587 0.776429 
132 1 6.7102 9.26695 8.62844 
135 1 7.38438 6.97668 7.59424 
141 1 7.24957 6.17192 10.9065 
144 1 6.53322 8.45734 9.84019 
148 1 3.62929 7.78902 0.772336 
7 1 9.18218 6.03562 11.9122 
10 1 3.65313 9.76262 21.6029 
13 1 2.35118 9.94674 22.1125 
15 1 2.98731 8.31137 17.9245 
28 1 3.66401 9.77993 20.1405 
30 1 4.38746 8.52365 19.7835 
34 1 4.34429 6.31031 18.6301 
40 1 7.81506 8.35476 11.9179 
49 1 4.79312 7.70868 20.9074 
50 1 2.08544 9.29733 18.5113 
58 1 1.55436 10.166 11.8366 
59 1 4.11988 7.75599 14.124 
69 1 3.65189 9.76259 11.1661 
73 1 2.98393 8.30671 14.8384 
75 1 4.9884 6.28198 11.8619 
79 1 7.25412 6.17024 21.8481 
82 1 7.8959 6.96571 20.9159 
86 1 3.66103 9.77841 12.6214 
88 1 2.33585 10.0718 13.0671 
108 1 9.19671 6.03301 20.8608 
112 1 4.38337 8.52947 12.9805 
115 1 4.34466 6.31218 14.1338 
124 1 4.80008 7.70923 11.8593 
125 1 2.08739 9.2982 14.2529 
126 1 6.8622 9.27317 21.7724 
128 1 7.76382 8.36538 20.8759 
139 1 1.55317 10.1659 20.929 
140 1 4.12178 7.75383 18.6404 
143 1 7.90912 6.92788 11.8499 
146 1 4.28877 8.55223 21.984 
149 1 4.98356 6.28504 20.9054 
157 1 2.33013 10.0726 19.6945 
ITEM: TIMESTEP
20
ITEM: NUMBER OF ATOMS
161
ITEM: BOX BOUNDS xy xz yz pp pp pp
-6.7755000000000001e+00 1.3552000000000000e+01 -6.7755000000000001e+00
0.0000000000000000e+00 1.1735510246683001e+01 0.0000000000000000e+00
0.0000000000000000e+00 2.2149999999999999e+01 0.0000000000000000e+00
ITEM: ATOMS id type x y z 
8 1 -2.42665 5.40322 9.83221 
87 1 2.95743 4.27503 10.6489 
90 1 2.66531 5.45412 9.77245 
109 1 -2.4266 5.40009 0.771603 
158 1 2.66421 5.45128 0.839525 
11 1 4.2783 4.21626 20.1169 
14 1 2.89301 4.14464 19.7036 
18 1 1.31136 5.86157 18.5813 
33 1 2.08986 4.27093 20.9096 
43 1 4.29347 4.19285 21.5687 
47 1 3.25755 5.78553 17.8431 
52 1 4.28299 4.21349 12.65 
76 1 2.44746 4.91056 14.1777 
85 1 4.29508 4.19373 11.1946 
89 1 3.2575 5.78451 14.9215 
91 1 0.963748 5.1315 11.8437 
102 1 2.89079 4.14346 13.0644 
105 1 1.30993 5.85985 14.1833 
114 1 2.08956 4.27068 11.852 
150 1 2.44717 4.90934 18.5851 
156 1 2.9579 4.27589 22.1133 
159 1 0.964283 5.13248 20.9204 
5 1 -4.90668 10.5454 8.61638 
9 1 -3.26244 8.88194 7.53184 
19 1 -1.76422 7.52783 10.5643 
21 1 -2.63223 8.76569 10.9545 
23 1 -3.28121 7.62237 6.86656 
25 1 -4.11404 10.4542 9.81594 
32 1 1.60833 6.36813 0.777219 
36 1 -1.86837 7.55037 9.07925 
38 1 -2.15861 6.23712 8.64504 
54 1 0.314738 8.4941 10.6728 
57 1 1.36515 7.98386 9.79314 
60 1 -1.75501 7.51167 0.0623704 
65 1 -3.2896 7.53751 3.78537 
78 1 -1.88854 7.55461 1.54568 
80 1 -2.55506 8.79778 1.90072 
84 1 -4.45943 9.80984 3.10026 
99 1 -2.97956 9.60203 0.772835 
100 1 -2.93403 6.2689 3.16841 
107 1 -4.9159 10.5783 1.99534 
110 1 -3.32246 8.87042 3.1028 
111 1 0.612206 5.95477 10.7384 
113 1 1.60579 6.36913 9.83587 
119 1 -4.10566 10.4561 0.778437 
127 1 -2.15677 6.22957 1.97294 
131 1 -2.33334 6.22693 11.0195 
138 1 1.36471 7.98465 0.819508 
142 1 -2.52092 8.80659 8.71598 
145 1 -4.44617 9.75789 7.48928 
151 1 -4.97085 10.4497 11.0286 
154 1 -2.97997 9.60908 9.85968 
155 1 -2.93531 6.32172 7.43442 
12 1 2.55846 7.07936 17.154 
17 1 0.408349 9.32209 20.9129 
24 1 -3.62716 8.35999 11.8508 
27 1 -0.25143 7.19133 21.6336 
29 1 0.613227 5.95474 22.024 
31 1 1.27663 7.18712 17.8934 
44 1 -0.125055 7.16455 20.1408 
46 1 0.140759 8.49565 19.7177 
51 1 -0.249356 7.19188 11.1327 
53 1 2.55793 7.07623 15.6124 
56 1 1.27503 7.18646 14.8695 
63 1 -2.33627 6.23089 21.7503 
66 1 -3.39378 6.78108 20.87 
70 1 -0.126289 7.16469 12.6237 
72 1 0.53685 5.92171 12.9747 
92 1 0.914514 8.46065 14.2422 
95 1 -4.96808 10.4127 21.7205 
98 1 -4.66859 9.2098 20.862 
104 1 0.408546 9.32376 11.8524 
116 1 -2.60191 8.78636 21.803 
118 1 -3.54922 8.3518 20.9164 
122 1 0.140844 8.49589 13.0472 
133 1 -3.38559 6.73881 11.8943 
136 1 0.315521 8.49385 22.0901 
147 1 0.53744 5.92283 19.7884 
153 1 -4.68438 9.27759 11.912 
160 1 0.914831 8.45855 18.5206 
1 1 7.8515 4.92988 10.5073 
4 1 9.15575 4.80179 11.0148 
20 1 7.84747 4.93771 9.06594 
42 1 9.50105 5.45426 7.48219 
67 1 9.96989 4.57383 0.76436 
77 1 7.86249 4.94168 0.0860341 
94 1 7.84477 4.94111 1.54635 
96 1 9.17925 4.66968 1.99214 
121 1 4.65534 5.48818 10.6927 
130 1 9.46022 5.44995 3.17152 
134 1 9.98185 4.56669 9.85828 
152 1 9.1934 4.66571 8.62127 
161 2 7.98677 5.45607 6.17372 
45 1 4.65536 5.48969 22.0695 
55 1 4.81789 5.50675 13.063 
106 1 9.16182 4.81261 21.7376 
137 1 4.8172 5.5079 19.7032 
2 1 7.26775 10.5065 9.04452 
3 1 8.99984 7.71465 6.0984 
6 1 8.41998 6.24657 6.7938 
16 1 2.36135 8.69067 0.852375 
22 1 7.14021 6.20565 8.72369 
26 1 7.17706 8.42186 7.53374 
35 1 7.23603 10.5488 10.5075 
37 1 6.884 9.24186 10.999 
39 1 8.25845 8.90032 6.77507 
41 1 6.71029 7.004 9.84881 
48 1 3.69196 6.3565 0.821449 
61 1 7.2716 10.497 1.54235 
62 1 8.98011 7.65263 4.50957 
64 1 6.70777 9.22147 1.98787 
68 1 7.39412 6.96731 3.06629 
71 1 4.31544 8.52157 10.7547 
74 1 3.59498 7.78843 9.81311 
81 1 8.51749 6.38972 3.79887 
83 1 6.54271 8.4202 0.798702 
93 1 7.25399 10.5362 0.11847 
97 1 8.26657 8.93916 3.84548 
101 1 2.37476 9.92797 10.6714 
103 1 2.36122 8.69381 9.76167 
117 1 7.1073 6.17825 1.90461 
120 1 7.19284 8.42272 3.07776 
123 1 3.69265 6.35592 9.79205 
129 1 6.7193 6.99407 0.777651 
132 1 6.70507 9.23045 8.63822 
135 1 7.36853 6.96585 7.59615 
141 1 7.22659 6.20111 10.9239 
144 1 6.53295 8.44315 9.82997 
148 1 3.59468 7.78897 0.799562 
7 1 9.17204 6.03403 11.9261 
10 1 3.67006 9.78418 21.5954 
13 1 2.37531 9.92885 22.0934 
15 1 3.02306 8.33097 17.9007 
28 1 3.69024 9.78423 20.136 
30 1 4.4207 8.53514 19.7906 
34 1 4.329 6.29743 18.6173 
40 1 7.84031 8.36945 11.8966 
49 1 4.81109 7.7287 20.9096 
50 1 2.07643 9.28025 18.5173 
58 1 1.56584 10.1514 11.8442 
59 1 4.13501 7.76686 14.1321 
69 1 3.66863 9.78237 11.1685 
73 1 3.02662 8.33524 14.8619 
75 1 4.98784 6.28979 11.8606 
79 1 7.226 6.20337 21.8214 
82 1 7.92611 6.95158 20.8945 
86 1 3.69243 9.78249 12.6276 
88 1 2.35858 10.0514 13.0661 
108 1 9.17198 6.05358 20.8482 
112 1 4.41905 8.53502 12.9748 
115 1 4.33138 6.30014 14.1451 
124 1 4.81343 7.73215 11.854 
125 1 2.07338 9.28094 14.2448 
126 1 6.85194 9.22731 21.7492 
128 1 7.74479 8.38534 20.8793 
139 1 1.56476 10.1513 20.9185 
140 1 4.13438 7.76635 18.6271 
143 1 7.93691 6.92892 11.8722 
146 1 4.31655 8.52136 22.0101 
149 1 4.98501 6.29285 20.901 
157 1 2.35852 10.0507 19.6993 
ITEM: TIMESTEP
30
ITEM: NUMBER OF ATOMS
161
ITEM: BOX BOUNDS xy xz yz pp pp pp
-6.7755000000000001e+00 1.3552000000000000e+01 -6.7755000000000001e+00
0.0000000000000000e+00 1.1735510246683001e+01 0.0000000000000000e+00
0.0000000000000000e+00 2.2149999999999999e+01 0.0000000000000000e+00
ITEM: ATOMS id type x y z 
8 1 -2.4316 5.41669 9.83212 
87 1 2.95325 4.28101 10.6505 
90 1 2.65293 5.44522 9.76627 
109 1 -2.43397 5.41299 0.774314 
158 1 2.65271 5.44369 0.846821 
11 1 4.27258 4.2277 20.1165 
14 1 2.87922 4.15227 19.7085 
18 1 1.30108 5.85623 18.5729 
33 1 2.08941 4.27473 20.9064 
43 1 4.28666 4.21254 21.5567 
47 1 3.25128 5.78937 17.832 
52 1 4.27332 4.22678 12.6486 
76 1 2.44248 4.9238 14.1829 
85 1 4.28621 4.21343 11.2089 
89 1 3.25134 5.79063 14.9312 
91 1 0.958229 5.12825 11.84 
102 1 2.87983 4.15186 13.0554 
105 1 1.30045 5.85576 14.1912 
114 1 2.0906 4.27511 11.8566 
150 1 2.44242 4.92324 18.58 
156 1 2.95269 4.28028 22.113 
159 1 0.958093 5.12855 20.9234 
5 1 -4.89505 10.5334 8.61881 
9 1 -3.25578 8.88349 7.52183 
19 1 -1.76563 7.53539 10.5708 
21 1 -2.62451 8.7654 10.9689 
23 1 -3.28221 7.62097 6.86168 
25 1 -4.10393 10.4475 9.81635 
32 1 1.60035 6.37566 0.785287 
36 1 -1.85445 7.55771 9.08054 
38 1 -2.15452 6.24936 8.6476 
54 1 0.31909 8.48722 10.6745 
57 1 1.3692 7.98102 9.79277 
60 1 -1.75605 7.52121 0.0568092 
65 1 -3.28846 7.5349 3.78873 
78 1 -1.8788 7.56703 1.54845 
80 1 -2.54103 8.79738 1.90112 
84 1 -4.45783 9.80585 3.10723 
99 1 -2.97 9.60315 0.770152 
100 1 -2.93254 6.27451 3.1678 
107 1 -4.8971 10.5747 1.98073 
110 1 -3.31842 8.87245 3.11466 
111 1 0.602882 5.96176 10.7245 
113 1 1.59962 6.37637 9.82838 
119 1 -4.10496 10.4489 0.779386 
127 1 -2.15396 6.23814 1.97101 
131 1 -2.33684 6.23472 11.0196 
138 1 1.3688 7.9812 0.820658 
142 1 -2.49741 8.81534 8.71508 
145 1 -4.44452 9.75647 7.48742 
151 1 -4.96443 10.444 11.0294 
154 1 -2.97152 9.60602 9.86499 
155 1 -2.9385 6.33288 7.43602 
12 1 2.5593 7.07666 17.1547 
17 1 0.416211 9.30915 20.9106 
24 1 -3.62172 8.35049 11.8591 
27 1 -0.248712 7.18189 21.6368 
29 1 0.603559 5.96117 22.0393 
31 1 1.27946 7.18721 17.8912 
44 1 -0.134947 7.15512 20.1402 
46 1 0.139171 8.48466 19.7175 
51 1 -0.245689 7.18322 11.1297 
53 1 2.5593 7.07643 15.6087 
56 1 1.28016 7.18654 14.8718 
63 1 -2.33982 6.2396 21.7506 
66 1 -3.39482 6.78568 20.8699 
70 1 -0.135691 7.15467 12.624 
72 1 0.521654 5.92531 12.98 
92 1 0.917204 8.44875 14.2448 
95 1 -4.96534 10.3915 21.7244 
98 1 -4.66834 9.20208 20.8538 
104 1 0.416419 9.30954 11.8537 
116 1 -2.58239 8.78279 21.7954 
118 1 -3.53435 8.34608 20.9079 
122 1 0.13879 8.4853 13.0465 
133 1 -3.38914 6.7436 11.8949 
136 1 0.319065 8.48749 22.0896 
147 1 0.521541 5.92647 19.7834 
153 1 -4.67398 9.28579 11.9156 
160 1 0.9176 8.44841 18.519 
1 1 7.83474 4.92944 10.5107 
4 1 9.14393 4.81292 11.0075 
20 1 7.8365 4.94156 9.06166 
42 1 9.49298 5.46534 7.48496 
67 1 9.9609 4.58584 0.767025 
77 1 7.84453 4.94241 0.0861958 
94 1 7.82973 4.94569 1.54594 
96 1 9.16399 4.68242 1.99197 
121 1 4.64829 5.49901 10.6885 
130 1 9.45151 5.45419 3.16721 
134 1 9.9751 4.57568 9.85733 
152 1 9.18108 4.67754 8.6194 
161 2 7.97721 5.45264 6.16299 
45 1 4.64741 5.49942 22.0757 
55 1 4.81725 5.51788 13.0637 
106 1 9.15055 4.82857 21.7445 
137 1 4.81677 5.51792 19.7001 
2 1 7.27248 10.4928 9.043 
3 1 8.99708 7.70954 6.09865 
6 1 8.41003 6.2426 6.78469 
16 1 2.36554 8.69747 0.86094 
22 1 7.12606 6.1985 8.72014 
26 1 7.17523 8.41376 7.53097 
35 1 7.24358 10.531 10.4975 
37 1 6.89023 9.2291 11.0055 
39 1 8.26138 8.89512 6.77396 
41 1 6.69887 6.99837 9.84806 
48 1 3.69989 6.35353 0.831768 
61 1 7.27108 10.4863 1.55597 
62 1 8.97424 7.65765 4.50821 
64 1 6.71103 9.20209 1.98614 
68 1 7.38923 6.96151 3.06418 
71 1 4.321 8.52013 10.745 
74 1 3.59311 7.80185 9.80344 
81 1 8.5142 6.39086 3.79877 
83 1 6.54094 8.40756 0.806762 
93 1 7.25688 10.5217 0.115182 
97 1 8.2799 8.93751 3.85081 
101 1 2.38645 9.91703 10.6791 
103 1 2.36515 8.69833 9.75283 
117 1 7.0964 6.17702 1.91475 
120 1 7.193 8.41369 3.07729 
123 1 3.69884 6.35423 9.78187 
129 1 6.70962 6.98779 0.781837 
132 1 6.70639 9.2205 8.63724 
135 1 7.36259 6.96048 7.5904 
141 1 7.21993 6.2051 10.934 
144 1 6.53151 8.43014 9.82663 
148 1 3.59294 7.80201 0.810248 
7 1 9.16553 6.02729 11.9332 
10 1 3.68647 9.78391 21.5942 
13 1 2.38698 9.91738 22.0845 
15 1 3.02307 8.33144 17.8902 
28 1 3.70766 9.78251 20.1386 
30 1 4.4345 8.54199 19.7807 
34 1 4.32969 6.30691 18.6139 
40 1 7.83202 8.3716 11.9034 
49 1 4.82304 7.73402 20.9103 
50 1 2.08078 9.26963 18.5193 
58 1 1.57051 10.1404 11.846 
59 1 4.14421 7.76576 14.1348 
69 1 3.68654 9.78237 11.1693 
73 1 3.02256 8.33152 14.8724 
75 1 4.98947 6.30581 11.8658 
79 1 7.21702 6.20555 21.8178 
82 1 7.92337 6.9514 20.8824 
86 1 3.70836 9.78219 12.6259 
88 1 2.37182 10.0419 13.0694 
108 1 9.16269 6.05503 20.8437 
112 1 4.4345 8.5419 12.9813 
115 1 4.33018 6.30688 14.149 
124 1 4.82538 7.73331 11.8524 
125 1 2.08075 9.27021 14.2445 
126 1 6.85825 9.21868 21.746 
128 1 7.74392 8.38171 20.8692 
139 1 1.57029 10.1403 20.9185 
140 1 4.14448 7.76527 18.6276 
143 1 7.93794 6.92 11.8809 
146 1 4.32292 8.5213 22.0208 
149 1 4.9882 6.30694 20.8969 
157 1 2.37143 10.0414 19.6943 
ITEM: TIMESTEP
40
ITEM: NUMBER OF ATOMS
161
ITEM: BOX BOUNDS xy xz yz pp pp pp
-6.7755000000000001e+00 1.3552000000000000e+01 -6.7755000000000001e+00
0.0000000000000000e+00 1.1735510246683001e+01 0.0000000000000000e+00
0.0000000000000000e+00 2.2149999999999999e+01 0.0000000000000000e+00
ITEM: ATOMS id type x y z 
8 1 -2.46136 5.48107 9.82874 
87 1 2.92752 4.32571 10.6448 
90 1 2.61786 5.44876 9.72742 
109 1 -2.46896 5.47233 0.781161 
158 1 2.61905 5.44991 0.887752 
11 1 4.24078 4.29307 20.0918 
14 1 2.83932 4.19954 19.7138 
18 1 1.25596 5.83912 18.5419 
33 1 2.05766 4.30212 20.9079 
43 1 4.24646 4.30018 21.5255 
47 1 3.2202 5.81942 17.8086 
52 1 4.24097 4.29405 12.6721 
76 1 2.39803 4.95325 14.1987 
85 1 4.24546 4.30079 11.2373 
89 1 3.22095 5.81836 14.9534 
91 1 0.91265 5.146 11.8307 
102 1 2.83967 4.19952 13.0489 
105 1 1.25621 5.83935 14.2211 
114 1 2.05618 4.30223 11.8567 
150 1 2.39734 4.95346 18.566 
156 1 2.92828 4.32607 22.1181 
159 1 0.912597 5.14471 20.9315 
5 1 -4.83957 10.4763 8.62768 
9 1 -3.20018 8.88764 7.50625 
19 1 -1.76422 7.57649 10.5967 
21 1 -2.58196 8.76575 11.0116 
23 1 -3.27294 7.63897 6.85278 
25 1 -4.06311 10.4089 9.8253 
32 1 1.58209 6.3856 0.826623 
36 1 -1.80175 7.61182 9.08117 
38 1 -2.14442 6.31367 8.65599 
54 1 0.347426 8.45149 10.6793 
57 1 1.39673 7.97603 9.77743 
60 1 -1.74483 7.56289 0.049073 
65 1 -3.29487 7.54173 3.78646 
78 1 -1.8234 7.61045 1.55867 
80 1 -2.49003 8.82055 1.90833 
84 1 -4.41543 9.79014 3.11487 
99 1 -2.90738 9.58678 0.76208 
100 1 -2.92884 6.29124 3.16277 
107 1 -4.8575 10.5287 1.96094 
110 1 -3.28075 8.88148 3.14626 
111 1 0.568369 5.96095 10.6906 
113 1 1.5829 6.38608 9.78781 
119 1 -4.0636 10.4104 0.763875 
127 1 -2.14001 6.29251 1.96817 
131 1 -2.36037 6.27345 11.0214 
138 1 1.3981 7.97605 0.836997 
142 1 -2.40567 8.85802 8.70556 
145 1 -4.42013 9.72941 7.47272 
151 1 -4.93549 10.404 11.0339 
154 1 -2.91316 9.57661 9.87194 
155 1 -2.95283 6.36927 7.45885 
12 1 2.58488 7.06255 17.1331 
17 1 0.45336 9.24917 20.8992 
24 1 -3.60602 8.33658 11.9054 
27 1 -0.245425 7.14427 21.6489 
29 1 0.569304 5.9584 22.0738 
31 1 1.28008 7.18071 17.8923 
44 1 -0.190541 7.11154 20.1334 
46 1 0.130998 8.42822 19.717 
51 1 -0.244912 7.14744 11.118 
53 1 2.58495 7.06395 15.6317 
56 1 1.27816 7.18159 14.87 
63 1 -2.35901 6.27925 21.7555 
66 1 -3.40616 6.80231 20.8562 
70 1 -0.190956 7.11173 12.6325 
72 1 0.469895 5.90406 12.9851 
92 1 0.91916 8.41351 14.2446 
95 1 -4.94313 10.3124 21.7315 
98 1 -4.64502 9.14542 20.8104 
104 1 0.452835 9.24916 11.8648 
116 1 -2.50823 8.79417 21.7609 
118 1 -3.47829 8.33877 20.8732 
122 1 0.130258 8.42828 13.0472 
133 1 -3.42117 6.74801 11.9105 
136 1 0.347913 8.45131 22.0842 
147 1 0.469836 5.90541 19.7799 
153 1 -4.64066 9.27398 11.948 
160 1 0.918256 8.4146 18.5203 
1 1 7.74291 4.91821 10.5258 
4 1 9.0922 4.85605 10.9772 
20 1 7.77624 4.95992 9.04737 
42 1 9.45874 5.52739 7.49817 
67 1 9.91664 4.65729 0.777577 
77 1 7.74277 4.94756 0.0747121 
94 1 7.74828 4.94958 1.55017 
96 1 9.09304 4.72985 1.98554 
121 1 4.60821 5.56828 10.6805 
130 1 9.43107 5.48101 3.15644 
134 1 9.9392 4.64124 9.84657 
152 1 9.1245 4.73588 8.61453 
161 2 7.92758 5.43228 6.1061 
45 1 4.60846 5.56779 22.0822 
55 1 4.80928 5.57694 13.0718 
106 1 9.09008 4.89972 21.7621 
137 1 4.80801 5.57687 19.6899 
2 1 7.30469 10.4261 9.02418 
3 1 8.98303 7.6837 6.10307 
6 1 8.35668 6.22105 6.74047 
16 1 2.38191 8.71439 0.894405 
22 1 7.04573 6.16447 8.69655 
26 1 7.16619 8.37229 7.51124 
35 1 7.28887 10.4414 10.4632 
37 1 6.92011 9.17899 11.0143 
39 1 8.27005 8.87627 6.77879 
41 1 6.64596 6.96174 9.84894 
48 1 3.67921 6.36692 0.881938 
61 1 7.29953 10.4263 1.57729 
62 1 8.95712 7.68226 4.52457 
64 1 6.7301 9.14853 1.99974 
68 1 7.35744 6.93394 3.08406 
71 1 4.34758 8.52136 10.7139 
74 1 3.61277 7.81464 9.76497 
81 1 8.50692 6.39837 3.79866 
83 1 6.52809 8.36159 0.799947 
93 1 7.28897 10.4289 0.138085 
97 1 8.3016 8.93554 3.86135 
101 1 2.44425 9.86961 10.7055 
103 1 2.38127 8.71366 9.71951 
117 1 7.02034 6.14913 1.94906 
120 1 7.19851 8.38411 3.10069 
123 1 3.68068 6.36448 9.73363 
129 1 6.65194 6.94318 0.785301 
132 1 6.70808 9.16551 8.63122 
135 1 7.32096 6.92825 7.56302 
141 1 7.18513 6.21611 10.9692 
144 1 6.53024 8.37884 9.82531 
148 1 3.611 7.81422 0.847752 
7 1 9.14258 6.01649 11.9637 
10 1 3.77701 9.77227 21.6008 
13 1 2.44416 9.87078 22.0599 
15 1 3.03266 8.32286 17.8695 
28 1 3.78676 9.77477 20.1345 
30 1 4.51564 8.56693 19.7447 
34 1 4.33713 6.34306 18.5882 
40 1 7.84829 8.36108 11.9496 
49 1 4.86896 7.77589 20.9086 
50 1 2.11268 9.231 18.527 
58 1 1.61311 10.0766 11.8669 
59 1 4.17933 7.77983 14.1496 
69 1 3.77998 9.77713 11.1624 
73 1 3.03325 8.32286 14.8931 
75 1 4.99715 6.35949 11.8697 
79 1 7.17567 6.20799 21.8002 
82 1 7.87716 6.94442 20.8299 
86 1 3.78594 9.77453 12.6288 
88 1 2.44047 9.99358 13.0729 
108 1 9.13273 6.07681 20.8296 
112 1 4.51697 8.56565 13.0172 
115 1 4.33625 6.34329 14.1753 
124 1 4.87424 7.777 11.8543 
125 1 2.11277 9.23173 14.2369 
126 1 6.86446 9.16454 21.7473 
128 1 7.75074 8.35311 20.8195 
139 1 1.61375 10.0763 20.8962 
140 1 4.17859 7.77961 18.6126 
143 1 7.91822 6.91442 11.9188 
146 1 4.35061 8.52201 22.053 
149 1 4.99132 6.35948 20.8953 
157 1 2.43995 9.99375 19.6911 
ITEM: TIMESTEP
50
ITEM: NUMBER OF ATOMS
161
ITEM: BOX BOUNDS xy xz yz pp pp pp
-6.7755000000000001e+00 1.3552000000000000e+01 -6.7755000000000001e+00
0.0000000000000000e+00 1.1735510246683001e+01 0.0000000000000000e+00
0.0000000000000000e+00 2.2149999999999999e+01 0.0000000000000000e+00
ITEM: ATOMS id type x y z 
8 1 -2.47042 5.49381 9.8266 
87 1 2.92051 4.33554 10.6426 
90 1 2.61815 5.45723 9.71159 
109 1 -2.47883 5.48767 0.784525 
158 1 2.61894 5.45696 0.902558 
11 1 4.23403 4.31025 20.0895 
14 1 2.83042 4.20051 19.7157 
18 1 1.25327 5.84821 18.5493 
33 1 2.05007 4.30983 20.9135 
43 1 4.23682 4.31113 21.5248 
47 1 3.21677 5.80765 17.8219 
52 1 4.2339 4.31058 12.6757 
76 1 2.38967 4.93569 14.2036 
85 1 4.2372 4.31043 11.2381 
89 1 3.22402 5.79831 14.9272 
91 1 0.899768 5.14267 11.8268 
102 1 2.83137 4.20046 13.0461 
105 1 1.24987 5.85382 14.2165 
114 1 2.04888 4.31063 11.8506 
150 1 2.38728 4.93595 18.5632 
156 1 2.92087 4.33485 22.1203 
159 1 0.899596 5.14138 20.9356 
5 1 -4.83231 10.4666 8.62328 
9 1 -3.17711 8.89896 7.50606 
19 1 -1.75815 7.57747 10.5889 
21 1 -2.58494 8.76829 11.0151 
23 1 -3.26833 7.63804 6.85506 
25 1 -4.05822 10.3982 9.82896 
32 1 1.57215 6.38495 0.83625 
36 1 -1.78387 7.62125 9.0833 
38 1 -2.14799 6.32147 8.65874 
54 1 0.358926 8.4409 10.6768 
57 1 1.39946 7.97528 9.76909 
60 1 -1.73834 7.56851 0.0595599 
65 1 -3.29405 7.53868 3.79355 
78 1 -1.81213 7.61727 1.55834 
80 1 -2.47944 8.8276 1.91954 
84 1 -4.40616 9.79807 3.11759 
99 1 -2.89154 9.59345 0.754758 
100 1 -2.92948 6.29184 3.16127 
107 1 -4.84414 10.5262 1.95936 
110 1 -3.27127 8.87963 3.13686 
111 1 0.570692 5.95663 10.6905 
113 1 1.57131 6.38568 9.7785 
119 1 -4.05786 10.3948 0.759047 
127 1 -2.13766 6.29584 1.96887 
131 1 -2.37219 6.28551 11.0268 
138 1 1.40186 7.97608 0.845736 
142 1 -2.39143 8.86485 8.7071 
145 1 -4.40681 9.7158 7.47548 
151 1 -4.92851 10.3954 11.0355 
154 1 -2.8951 9.5855 9.87797 
155 1 -2.95646 6.3742 7.46191 
12 1 2.57403 7.06411 17.1543 
17 1 0.4651 9.23677 20.8956 
24 1 -3.59367 8.33623 11.9145 
27 1 -0.247787 7.14076 21.64 
29 1 0.571271 5.9555 22.0742 
31 1 1.29084 7.18665 17.871 
44 1 -0.197849 7.1007 20.1352 
46 1 0.124856 8.42267 19.7193 
51 1 -0.24969 7.14366 11.1273 
53 1 2.57809 7.063 15.6462 
56 1 1.28159 7.18794 14.8727 
63 1 -2.36613 6.29175 21.7517 
66 1 -3.40373 6.80616 20.8523 
70 1 -0.1994 7.102 12.6314 
72 1 0.46491 5.89566 12.9995 
92 1 0.916046 8.4238 14.2406 
95 1 -4.93701 10.3037 21.7221 
98 1 -4.63928 9.13686 20.8036 
104 1 0.464017 9.23675 11.8682 
116 1 -2.50779 8.79895 21.7596 
118 1 -3.46467 8.33303 20.8616 
122 1 0.124237 8.42245 13.0457 
133 1 -3.42276 6.74765 11.919 
136 1 0.360212 8.43971 22.0863 
147 1 0.465143 5.89639 19.7657 
153 1 -4.64011 9.26938 11.9671 
160 1 0.914857 8.43153 18.5267 
1 1 7.72688 4.9021 10.5248 
4 1 9.07311 4.86319 10.9789 
20 1 7.76225 4.95952 9.06254 
42 1 9.4468 5.54028 7.49782 
67 1 9.90112 4.67937 0.77169 
77 1 7.71728 4.91299 0.0732447 
94 1 7.73668 4.95738 1.54935 
96 1 9.07282 4.73661 1.98937 
121 1 4.59757 5.57774 10.6845 
130 1 9.42638 5.48883 3.15333 
134 1 9.92355 4.66445 9.8419 
152 1 9.11137 4.74843 8.61137 
161 2 7.91506 5.42713 6.0908 
45 1 4.59728 5.57702 22.0796 
55 1 4.81025 5.5888 13.0729 
106 1 9.07309 4.91591 21.7614 
137 1 4.80899 5.58891 19.6882 
2 1 7.31362 10.4128 9.01444 
3 1 8.98723 7.68187 6.1149 
6 1 8.34448 6.21796 6.7282 
16 1 2.396 8.70946 0.896276 
22 1 7.01829 6.16118 8.6859 
26 1 7.15992 8.36037 7.50754 
35 1 7.30586 10.427 10.4534 
37 1 6.93098 9.1665 11.0142 
39 1 8.26674 8.86867 6.77828 
41 1 6.63975 6.95138 9.85471 
48 1 3.66781 6.3764 0.891786 
61 1 7.30762 10.4123 1.57636 
62 1 8.96359 7.67312 4.52486 
64 1 6.72885 9.13727 1.99954 
68 1 7.34574 6.92785 3.08822 
71 1 4.36425 8.51241 10.7137 
74 1 3.61683 7.82319 9.75817 
81 1 8.50029 6.40168 3.80372 
83 1 6.52513 8.35655 0.809362 
93 1 7.30503 10.4096 0.144507 
97 1 8.30839 8.93837 3.84889 
101 1 2.45582 9.86402 10.705 
103 1 2.39645 8.71002 9.71867 
117 1 7.00175 6.13837 1.95375 
120 1 7.20644 8.3786 3.10899 
123 1 3.66848 6.37579 9.72257 
129 1 6.63683 6.93606 0.785855 
132 1 6.7064 9.15184 8.63104 
135 1 7.3016 6.91981 7.55526 
141 1 7.17331 6.21159 10.9669 
144 1 6.53044 8.37784 9.83131 
148 1 3.61519 7.8237 0.856919 
7 1 9.13035 6.01834 11.9636 
10 1 3.7921 9.7951 21.5989 
13 1 2.45676 9.86668 22.0599 
15 1 3.04005 8.31464 17.8658 
28 1 3.80565 9.77398 20.1304 
30 1 4.53482 8.57339 19.7399 
34 1 4.32692 6.34891 18.578 
40 1 7.86068 8.35478 11.9604 
49 1 4.88342 7.78264 20.909 
50 1 2.10874 9.23161 18.5325 
58 1 1.62962 10.0592 11.8652 
59 1 4.18594 7.79749 14.1585 
69 1 3.79795 9.80397 11.161 
73 1 3.04276 8.32377 14.8803 
75 1 4.99501 6.3633 11.8699 
79 1 7.15374 6.2163 21.798 
82 1 7.86938 6.93126 20.8231 
86 1 3.80415 9.77211 12.6346 