ITEM: TIMESTEP
0
ITEM: NUMBER OF ATOMS
58
ITEM: BOX BOUNDS pp pp pp
0.0000000000000000e+00 3.2808000000000000e+01
0.0000000000000000e+00 1.7780000000000001e+01
0.0000000000000000e+00 2.4729999999999999e+00
ITEM: ATOMS id type x y z 
13 1 7.043 0.849 2.464 
29 1 7.397 1.432 1.228 
37 1 8.035 2.733 1.228 
57 2 3.973 0.968 1.228 
58 3 3.973 1.944 1.228 
1 1 6.173 17.398 2.464 
5 1 5.371 17.398 1.228 
9 1 3.973 17.398 1.228 
16 1 7.043 16.167 2.464 
32 1 7.397 15.584 1.228 
40 1 8.035 14.283 1.228 
45 1 3.236 17.398 2.464 
49 1 1.81 17.398 2.464 
53 1 1.083 17.398 1.228 
4 1 10.968 8.508 2.464 
8 1 11.771 8.508 1.228 
12 1 13.168 8.508 1.228 
18 1 10.098 7.277 2.464 
21 1 8.308 3.392 2.464 
26 1 8.833 4.734 2.464 
34 1 9.745 6.694 1.228 
42 1 9.106 5.393 1.228 
48 1 13.906 8.508 2.464 
52 1 15.331 8.508 2.464 
56 1 16.058 8.508 1.228 
19 1 10.098 9.739 2.464 
24 1 8.308 13.624 2.464 
27 1 8.833 12.282 2.464 
35 1 9.745 10.322 1.228 
43 1 9.106 11.623 1.228 
3 1 22.577 8.508 2.464 
7 1 21.775 8.508 1.228 
11 1 20.377 8.508 1.228 
20 1 23.447 7.277 2.464 
36 1 23.801 6.694 1.228 
44 1 24.439 5.393 1.228 
47 1 19.64 8.508 2.464 
51 1 18.214 8.508 2.464 
55 1 17.487 8.508 1.228 
17 1 23.447 9.739 2.464 
33 1 23.801 10.322 1.228 
41 1 24.439 11.623 1.228 
15 1 26.502 0.849 2.464 
23 1 25.237 3.392 2.464 
28 1 24.712 4.734 2.464 
31 1 26.149 1.432 1.228 
39 1 25.511 2.733 1.228 
2 1 27.373 17.398 2.464 
6 1 28.175 17.398 1.228 
10 1 29.572 17.398 1.228 
14 1 26.502 16.167 2.464 
22 1 25.237 13.624 2.464 
25 1 24.712 12.282 2.464 
30 1 26.149 15.584 1.228 
38 1 25.511 14.283 1.228 
46 1 30.31 17.398 2.464 
50 1 31.735 17.398 2.464 
54 1 32.462 17.398 1.228 
ITEM: TIMESTEP
10
ITEM: NUMBER OF ATOMS
58
ITEM: BOX BOUNDS pp pp pp
0.0000000000000000e+00 3.2808000000000000e+01
0.0000000000000000e+00 1.7780000000000001e+01
0.0000000000000000e+00 2.4729999999999999e+00
ITEM: ATOMS id type x y z 
13 1 7.05494 0.85279 2.46426 
29 1 7.40555 1.4385 1.22774 
37 1 8.03939 2.73819 1.22774 
57 2 3.9655 0.983943 1.22789 
58 3 3.97509 1.97235 1.22803 
1 1 6.17497 17.3988 2.46426 
5 1 5.41906 17.3577 1.22772 
9 1 3.96242 17.4888 1.22777 
16 1 7.06292 16.1659 2.46426 
32 1 7.40963 15.5756 1.22774 
40 1 8.04185 14.2753 1.22774 
45 1 3.20219 17.32 2.46432 
49 1 1.80784 17.392 2.46427 
53 1 1.06297 17.3993 1.22774 
4 1 10.9721 8.50671 2.46428 
8 1 11.7763 8.50768 1.22771 
12 1 13.1711 8.50801 1.22774 
18 1 10.0984 7.2803 2.46426 
21 1 8.3126 3.40284 2.46426 
26 1 8.8348 4.73898 2.46426 
34 1 9.74471 6.69847 1.22774 
42 1 9.10583 5.39532 1.22774 
48 1 13.9084 8.508 2.46427 
52 1 15.3364 8.508 2.46426 
56 1 16.0606 8.508 1.22774 
19 1 10.0989 9.73418 2.46426 
24 1 8.31386 13.6112 2.46426 
27 1 8.8356 12.2746 2.46426 
35 1 9.74542 10.3155 1.22774 
43 1 9.10643 11.6183 1.22774 
3 1 22.5751 8.508 2.46428 
7 1 21.7739 8.508 1.22771 
11 1 20.3774 8.508 1.22774 
20 1 23.4467 7.27771 2.46426 
36 1 23.7998 6.69624 1.22774 
44 1 24.4366 5.39715 1.22774 
47 1 19.6408 8.508 2.46427 
51 1 18.2161 8.508 2.46426 
55 1 17.4917 8.508 1.22774 
17 1 23.4467 9.73829 2.46426 
33 1 23.7998 10.3198 1.22774 
41 1 24.4366 11.6188 1.22774 
15 1 26.4958 0.851063 2.46426 
23 1 25.2349 3.39854 2.46426 
28 1 24.7107 4.73616 2.46426 
31 1 26.1446 1.43603 1.22774 
39 1 25.509 2.73601 1.22774 
2 1 27.367 17.398 2.46428 
6 1 28.1651 17.398 1.22771 
10 1 29.5658 17.398 1.22774 
14 1 26.4958 16.1649 2.46426 
22 1 25.2349 13.6175 2.46426 
25 1 24.7107 12.2798 2.46426 
30 1 26.1446 15.58 1.22774 
38 1 25.509 14.28 1.22774 
46 1 30.3007 17.398 2.46427 
50 1 31.7251 17.3981 2.46426 
54 1 32.4562 17.3987 1.22774 
ITEM: TIMESTEP
20
ITEM: NUMBER OF ATOMS
58
ITEM: BOX BOUNDS pp pp pp
0.0000000000000000e+00 3.2808000000000000e+01
0.0000000000000000e+00 1.7780000000000001e+01
0.0000000000000000e+00 2.4729999999999999e+00
ITEM: ATOMS id type x y z 
13 1 7.04396 0.848498 2.46425 
29 1 7.39971 1.43056 1.22775 
37 1 8.03564 2.73342 1.22775 
57 2 3.96294 0.964819 1.2279 
58 3 3.97615 1.97106 1.22801 
1 1 6.17056 17.3958 2.46424 
5 1 5.40903 17.361 1.22775 
9 1 3.96213 17.5353 1.22779 
16 1 7.05807 16.1723 2.46425 
32 1 7.40921 15.5826 1.22775 
40 1 8.04017 14.2783 1.22775 
45 1 3.20953 17.32 2.46428 
49 1 1.81527 17.3806 2.46426 
53 1 1.07688 17.3984 1.22776 
4 1 10.972 8.50496 2.46424 
8 1 11.7748 8.50686 1.22776 
12 1 13.1709 8.50801 1.22776 
18 1 10.0971 7.2785 2.46425 
21 1 8.30814 3.39247 2.46425 
26 1 8.833 4.73473 2.46425 
34 1 9.74192 6.69571 1.22775 
42 1 9.10503 5.39399 1.22775 
48 1 13.9079 8.50803 2.46425 
52 1 15.3339 8.50801 2.46425 
56 1 16.0597 8.508 1.22775 
19 1 10.0982 9.73341 2.46425 
24 1 8.31093 13.619 2.46425 
27 1 8.83441 12.2766 2.46425 
35 1 9.74333 10.3158 1.22775 
43 1 9.10616 11.617 1.22775 
3 1 22.5772 8.508 2.46424 
7 1 21.7741 8.508 1.22776 
11 1 20.3784 8.508 1.22776 
20 1 23.4485 7.27851 2.46425 
36 1 23.802 6.69533 1.22775 
44 1 24.4385 5.39475 1.22775 
47 1 19.6418 8.508 2.46425 
51 1 18.2153 8.508 2.46425 
55 1 17.4898 8.508 1.22775 
17 1 23.4485 9.73749 2.46425 
33 1 23.802 10.3207 1.22775 
41 1 24.4385 11.6212 1.22775 
15 1 26.4964 0.849173 2.46425 
23 1 25.2366 3.39437 2.46425 
28 1 24.7113 4.73487 2.46425 
31 1 26.145 1.43307 1.22775 
39 1 25.5096 2.73465 1.22775 
2 1 27.3676 17.398 2.46424 
6 1 28.169 17.398 1.22776 
10 1 29.567 17.398 1.22776 
14 1 26.4964 16.1668 2.46425 
22 1 25.2366 13.6216 2.46425 
25 1 24.7113 12.2811 2.46425 
30 1 26.145 15.5829 1.22775 
38 1 25.5096 14.2813 1.22775 
46 1 30.3052 17.398 2.46425 
50 1 31.73 17.3983 2.46425 
54 1 32.459 17.3999 1.22775 
ITEM: TIMESTEP
30
ITEM: NUMBER OF ATOMS
58
ITEM: BOX BOUNDS pp pp pp
0.0000000000000000e+00 3.2808000000000000e+01
0.0000000000000000e+00 1.7780000000000001e+01
0.0000000000000000e+00 2.4729999999999999e+00
ITEM: ATOMS id type x y z 
13 1 7.02551 0.846196 2.46424 
29 1 7.38492 1.42664 1.22776 
37 1 8.02741 2.72812 1.22776 
57 2 3.95401 0.985354 1.22788 
58 3 3.97829 1.96533 1.228 
1 1 6.16376 17.3879 2.46423 
5 1 5.39667 17.3653 1.22779 
9 1 3.96044 17.5874 1.2278 
16 1 7.05354 16.1733 2.46424 
32 1 7.41005 15.5871 1.22776 
40 1 8.03854 14.2798 1.22776 
45 1 3.2203 17.3355 2.46426 
49 1 1.82245 17.3554 2.46425 
53 1 1.087 17.3844 1.22778 
4 1 10.9669 8.50078 2.46421 
8 1 11.7702 8.50342 1.22779 
12 1 13.1679 8.5077 1.22777 
18 1 10.0966 7.27121 2.46424 
21 1 8.30277 3.386 2.46424 
26 1 8.83138 4.72702 2.46424 
34 1 9.7416 6.68816 1.22776 
42 1 9.10469 5.38476 1.22776 
48 1 13.9064 8.50822 2.46423 
52 1 15.3311 8.50811 2.46424 
56 1 16.058 8.50801 1.22777 
19 1 10.0988 9.73352 2.46424 
24 1 8.30884 13.6212 2.46424 
27 1 8.83428 12.2781 2.46424 
35 1 9.74459 10.3165 1.22776 
43 1 9.10749 11.6192 1.22776 
3 1 22.5775 8.508 2.46421 
7 1 21.7748 8.508 1.22779 
11 1 20.3782 8.508 1.22777 
20 1 23.4484 7.27773 2.46424 
36 1 23.8028 6.69439 1.22776 
44 1 24.4379 5.39273 1.22776 
47 1 19.64 8.508 2.46423 
51 1 18.2143 8.508 2.46424 
55 1 17.4884 8.508 1.22777 
17 1 23.4484 9.73827 2.46424 
33 1 23.8028 10.3216 1.22776 
41 1 24.4379 11.6233 1.22776 
15 1 26.5021 0.847603 2.46424 
23 1 25.239 3.39073 2.46424 
28 1 24.7116 4.73302 2.46424 
31 1 26.1475 1.42925 1.22776 
39 1 25.5118 2.73298 1.22776 
2 1 27.3772 17.398 2.46421 
6 1 28.177 17.398 1.22779 
10 1 29.5749 17.3979 1.22777 
14 1 26.5021 16.1684 2.46424 
22 1 25.239 13.6253 2.46424 
25 1 24.7116 12.283 2.46424 
30 1 26.1475 15.5867 1.22776 
38 1 25.5118 14.283 1.22776 
46 1 30.314 17.3982 2.46423 
50 1 31.7381 17.4006 2.46424 
54 1 32.4659 17.4017 1.22777 
ITEM: TIMESTEP
40
ITEM: NUMBER OF ATOMS
58
ITEM: BOX BOUNDS pp pp pp
0.0000000000000000e+00 3.2808000000000000e+01
0.0000000000000000e+00 1.7780000000000001e+01
0.0000000000000000e+00 2.4729999999999999e+00
ITEM: ATOMS id type x y z 
13 1 7.0191 0.846793 2.46424 
29 1 7.37726 1.42873 1.22777 
37 1 8.02211 2.72724 1.22777 
57 2 3.95296 0.996936 1.22788 
58 3 3.97874 1.98416 1.22799 
1 1 6.15852 17.3857 2.46422 
5 1 5.39586 17.3649 1.22779 
9 1 3.9584 17.6003 1.2278 
16 1 7.05267 16.1714 2.46424 
32 1 7.41056 15.5842 1.22777 
40 1 8.03855 14.2788 1.22777 
45 1 3.2215 17.3425 2.46426 
49 1 1.82361 17.3466 2.46425 
53 1 1.08748 17.3727 1.22779 
4 1 10.9672 8.4993 2.46421 
8 1 11.7702 8.50134 1.22779 
12 1 13.1673 8.50717 1.22777 
18 1 10.0978 7.26853 2.46424 
21 1 8.29951 3.3836 2.46423 
26 1 8.8319 4.72433 2.46424 
34 1 9.74367 6.68459 1.22776 
42 1 9.10589 5.38072 1.22776 
48 1 13.9054 8.50827 2.46423 
52 1 15.3305 8.50827 2.46423 
56 1 16.0585 8.50807 1.22777 
19 1 10.1001 9.73258 2.46424 
24 1 8.30915 13.6191 2.46423 
27 1 8.83607 12.2764 2.46424 
35 1 9.74727 10.3161 1.22776 
43 1 9.10933 11.62 1.22776 
3 1 22.5777 8.50799 2.46421 
7 1 21.7744 8.508 1.22779 
11 1 20.3779 8.508 1.22777 
20 1 23.4467 7.27645 2.46424 
36 1 23.8002 6.69335 1.22776 
44 1 24.4366 5.39049 1.22777 
47 1 19.6413 8.508 2.46423 
51 1 18.2145 8.50799 2.46423 
55 1 17.4875 8.50799 1.22777 
17 1 23.4467 9.73954 2.46424 
33 1 23.8002 10.3226 1.22776 
41 1 24.4366 11.6255 1.22777 
15 1 26.5047 0.848847 2.46424 
23 1 25.2395 3.39247 2.46423 
28 1 24.7106 4.73252 2.46423 
31 1 26.1501 1.43142 1.22776 
39 1 25.5136 2.73362 1.22777 
2 1 27.3778 17.398 2.46421 
6 1 28.1792 17.3979 1.22779 
10 1 29.5788 17.398 1.22777 
14 1 26.5047 16.1672 2.46424 
22 1 25.2395 13.6235 2.46423 
25 1 24.7106 12.2835 2.46423 
30 1 26.1501 15.5846 1.22776 
38 1 25.5136 14.2824 1.22777 
46 1 30.3151 17.3992 2.46423 
50 1 31.7417 17.4021 2.46424 
54 1 32.4698 17.3994 1.22777 
ITEM: TIMESTEP
50
ITEM: NUMBER OF ATOMS
58
ITEM: BOX BOUNDS pp pp pp
0.0000000000000000e+00 3.2808000000000000e+01
0.0000000000000000e+00 1.7780000000000001e+01
0.0000000000000000e+00 2.4729999999999999e+00
ITEM: ATOMS id type x y z 
13 1 7.01648 0.847822 2.46425 
29 1 7.37296 1.42914 1.22776 
37 1 8.01923 2.72758 1.22776 
57 2 3.95328 1.00467 1.22787 
58 3 3.97892 1.99266 1.22799 
1 1 6.15669 17.3835 2.46425 
5 1 5.39526 17.3639 1.22777 
9 1 3.95864 17.6097 1.22778 
16 1 7.05268 16.169 2.46425 
32 1 7.40986 15.5834 1.22776 
40 1 8.03862 14.2775 1.22776 
45 1 3.22023 17.3452 2.46428 
49 1 1.82546 17.3422 2.46426 
53 1 1.08827 17.3668 1.22777 
4 1 10.9668 8.49795 2.46424 
8 1 11.7695 8.50016 1.22776 
12 1 13.1671 8.5068 1.22776 
18 1 10.0982 7.26633 2.46425 
21 1 8.29773 3.38316 2.46424 
26 1 8.83221 4.72267 2.46424 
34 1 9.74476 6.68236 1.22775 
42 1 9.10731 5.37961 1.22776 
48 1 13.9053 8.50822 2.46424 
52 1 15.3306 8.50837 2.46424 
56 1 16.0577 8.50814 1.22776 
19 1 10.1007 9.73246 2.46425 
24 1 8.30919 13.6186 2.46424 
27 1 8.83675 12.2767 2.46424 
35 1 9.7483 10.3166 1.22775 
43 1 9.11105 11.6192 1.22776 
3 1 22.5772 8.50799 2.46424 
7 1 21.7751 8.50799 1.22776 
11 1 20.3774 8.508 1.22776 
20 1 23.4461 7.27566 2.46425 
36 1 23.7992 6.69223 1.22775 
44 1 24.4354 5.39024 1.22776 
47 1 19.64 8.508 2.46424 
51 1 18.2142 8.50799 2.46424 
55 1 17.4874 8.508 1.22776 
17 1 23.4461 9.74032 2.46425 
33 1 23.7992 10.3238 1.22775 
41 1 24.4354 11.6257 1.22776 
15 1 26.5069 0.848882 2.46425 
23 1 25.2405 3.3917 2.46424 
28 1 24.7102 4.73171 2.46424 
31 1 26.1524 1.43141 1.22775 
39 1 25.5151 2.73355 1.22776 
2 1 27.3785 17.398 2.46424 
6 1 28.1799 17.3978 1.22776 
10 1 29.5783 17.3983 1.22776 
14 1 26.5068 16.1671 2.46425 
22 1 25.2405 13.6243 2.46424 
25 1 24.7102 12.2843 2.46424 
30 1 26.1524 15.5846 1.22775 
38 1 25.515 14.2824 1.22776 
46 1 30.3166 17.3999 2.46425 
50 1 31.7412 17.4022 2.46425 
54 1 32.47 17.3975 1.22776 
ITEM: TIMESTEP
60
ITEM: NUMBER OF ATOMS
58
ITEM: BOX BOUNDS pp pp pp
0.0000000000000000e+00 3.2808000000000000e+01
0.0000000000000000e+00 1.7780000000000001e+01
0.0000000000000000e+00 2.4729999999999999e+00
ITEM: ATOMS id type x y z 
13 1 7.00573 0.847057 2.46425 
29 1 7.35994 1.43006 1.22776 
37 1 8.00879 2.72634 1.22776 
57 2 3.95521 1.02863 1.22786 
58 3 3.97975 2.0182 1.22797 
1 1 6.15135 17.3781 2.46424 
5 1 5.39013 17.3636 1.22778 
9 1 3.95717 17.6324 1.22778 
16 1 7.04876 16.1654 2.46425 
32 1 7.40715 15.5802 1.22776 
40 1 8.03762 14.2759 1.22776 
45 1 3.22345 17.3595 2.46427 
49 1 1.82881 17.3298 2.46426 
53 1 1.09049 17.3494 1.22778 
4 1 10.9662 8.49462 2.46424 
8 1 11.7686 8.49671 1.22776 
12 1 13.1667 8.50555 1.22776 
18 1 10.1001 7.26115 2.46424 
21 1 8.2914 3.38133 2.46424 
26 1 8.83314 4.7175 2.46424 
34 1 9.74868 6.67688 1.22776 
42 1 9.11079 5.37412 1.22776 
48 1 13.9041 8.50792 2.46424 
52 1 15.3293 8.50871 2.46424 
56 1 16.0571 8.50842 1.22776 
19 1 10.1028 9.73096 2.46424 
24 1 8.30959 13.6167 2.46424 
27 1 8.84 12.2759 2.46424 
35 1 9.75251 10.3156 1.22776 
43 1 9.1155 11.6188 1.22776 
3 1 22.5774 8.50796 2.46424 
7 1 21.7743 8.50797 1.22776 
11 1 20.3775 8.50799 1.22776 
20 1 23.4435 7.27416 2.46424 
36 1 23.7952 6.69008 1.22776 
44 1 24.4324 5.38717 1.22776 
47 1 19.6396 8.50798 2.46424 
51 1 18.2135 8.50797 2.46424 
55 1 17.486 8.50804 1.22776 
17 1 23.4435 9.74177 2.46424 
33 1 23.7952 10.3259 1.22776 
41 1 24.4323 11.6288 1.22776 
15 1 26.512 0.850296 2.46424 
23 1 25.2427 3.392 2.46424 
28 1 24.7082 4.73047 2.46424 
31 1 26.158 1.43382 1.22776 
39 1 25.5193 2.73451 1.22776 
2 1 27.3827 17.3979 2.46424 
6 1 28.1831 17.3979 1.22777 
10 1 29.5811 17.3999 1.22776 
14 1 26.5118 16.1657 2.46424 
22 1 25.2426 13.6239 2.46424 
25 1 24.7081 12.2855 2.46424 
30 1 26.1579 15.5822 1.22776 
38 1 25.5192 14.2814 1.22776 
46 1 30.3193 17.4021 2.46424 
50 1 31.7462 17.401 2.46425 
54 1 32.4735 17.3901 1.22777 
ITEM: TIMESTEP
64
ITEM: NUMBER OF ATOMS
58
ITEM: BOX BOUNDS pp pp pp
0.0000000000000000e+00 3.2808000000000000e+01
0.0000000000000000e+00 1.7780000000000001e+01
0.0000000000000000e+00 2.4729999999999999e+00
ITEM: ATOMS id type x y z 
13 1 7.00477 0.847214 2.46426 
29 1 7.35855 1.43035 1.22775 
37 1 8.00799 2.72744 1.22775 
57 2 3.95557 1.03168 1.22786 
58 3 3.97993 2.02125 1.22797 
1 1 6.15107 17.3776 2.46426 
5 1 5.38885 17.3634 1.22776 
9 1 3.95846 17.6361 1.22778 
16 1 7.0485 16.1646 2.46426 
32 1 7.40672 15.5799 1.22775 
40 1 8.03783 14.2749 1.22775 
45 1 3.2221 17.3605 2.46428 
49 1 1.82981 17.3286 2.46427 
53 1 1.09149 17.3474 1.22777 
4 1 10.966 8.49436 2.46425 
8 1 11.7683 8.49631 1.22775 
12 1 13.1667 8.50538 1.22775 
18 1 10.1001 7.26019 2.46425 
21 1 8.29049 3.38108 2.46425 
26 1 8.83331 4.71697 2.46425 
34 1 9.74857 6.67499 1.22775 
42 1 9.11136 5.37351 1.22775 
48 1 13.9045 8.50786 2.46425 
52 1 15.3298 8.50875 2.46425 
56 1 16.0569 8.50846 1.22775 
19 1 10.1028 9.73103 2.46425 
24 1 8.30983 13.6161 2.46425 
27 1 8.84043 12.2759 2.46425 
35 1 9.75254 10.3164 1.22775 
43 1 9.11632 11.6184 1.22775 
3 1 22.5766 8.50796 2.46425 
7 1 21.7747 8.50797 1.22775 
11 1 20.3764 8.50799 1.22775 
20 1 23.4433 7.27397 2.46425 
36 1 23.7951 6.68925 1.22775 
44 1 24.4316 5.38774 1.22775 
47 1 19.6387 8.50798 2.46425 
51 1 18.2134 8.50797 2.46425 
55 1 17.4865 8.50806 1.22775 
17 1 23.4433 9.74196 2.46425 
33 1 23.7951 10.3267 1.22775 
41 1 24.4315 11.6282 1.22775 
15 1 26.5129 0.850269 2.46425 
23 1 25.2432 3.39135 2.46425 
28 1 24.7082 4.72965 2.46425 
31 1 26.1593 1.4331 1.22775 
39 1 25.5199 2.73451 1.22775 
2 1 27.3821 17.3979 2.46425 
6 1 28.1833 17.3979 1.22775 
10 1 29.5809 17.4001 1.22775 
14 1 26.5128 16.1657 2.46425 
22 1 25.2432 13.6246 2.46425 
25 1 24.7081 12.2863 2.46425 
30 1 26.1592 15.5829 1.22775 
38 1 25.5198 14.2814 1.22775 
46 1 30.3204 17.4024 2.46425 
50 1 31.744 17.4006 2.46426 
54 1 32.474 17.389 1.22776 
ITEM: TIMESTEP
70
ITEM: NUMBER OF ATOMS
58
ITEM: BOX BOUNDS pp pp pp
0.0000000000000000e+00 3.2808000000000000e+01
0.0000000000000000e+00 1.7780000000000001e+01
0.0000000000000000e+00 2.4729999999999999e+00
ITEM: ATOMS id type x y z 
13 1 7.00338 0.847164 2.46425 
29 1 7.35669 1.43061 1.22776 
37 1 8.00564 2.7264 1.22775 
57 2 3.95623 1.03564 1.22786 
58 3 3.98029 2.02544 1.22796 
1 1 6.14951 17.3763 2.46426 
5 1 5.38836 17.3634 1.22776 
9 1 3.95766 17.6396 1.22777 
16 1 7.04772 16.1636 2.46425 
32 1 7.40591 15.5791 1.22776 
40 1 8.03728 14.2751 1.22775 
45 1 3.22256 17.3636 2.46428 
49 1 1.83021 17.3272 2.46427 
53 1 1.09119 17.3448 1.22777 
4 1 10.966 8.49385 2.46425 
8 1 11.7683 8.49575 1.22775 
12 1 13.1664 8.5051 1.22775 
18 1 10.1006 7.25941 2.46425 
21 1 8.28934 3.38123 2.46425 
26 1 8.8337 4.71672 2.46425 
34 1 9.74949 6.67451 1.22775 
42 1 9.11183 5.37221 1.22775 
48 1 13.9036 8.50773 2.46425 
52 1 15.3292 8.50881 2.46425 
56 1 16.0567 8.50854 1.22775 
19 1 10.1032 9.73062 2.46425 
24 1 8.30996 13.6157 2.46425 
27 1 8.84131 12.2755 2.46425 
35 1 9.75335 10.3158 1.22775 
43 1 9.11689 11.619 1.22775 
3 1 22.5773 8.50795 2.46425 
7 1 21.775 8.50796 1.22775 
11 1 20.3771 8.50799 1.22775 
20 1 23.4428 7.27361 2.46425 
36 1 23.794 6.68953 1.22775 
44 1 24.4312 5.38649 1.22775 
47 1 19.6392 8.50797 2.46425 
51 1 18.2137 8.50798 2.46425 
55 1 17.4859 8.50808 1.22775 
17 1 23.4428 9.7423 2.46425 
33 1 23.7939 10.3264 1.22775 
41 1 24.4312 11.6294 1.22775 
15 1 26.5137 0.850477 2.46425 
23 1 25.2433 3.39247 2.46425 
28 1 24.7074 4.73026 2.46425 
31 1 26.1598 1.43439 1.22775 
39 1 25.5209 2.73442 1.22775 
2 1 27.3831 17.3979 2.46425 
6 1 28.1846 17.398 1.22775 
10 1 29.583 17.4006 1.22775 
14 1 26.5135 16.1655 2.46425 
22 1 25.2432 13.6235 2.46425 
25 1 24.7073 12.2857 2.46425 
30 1 26.1596 15.5816 1.22775 
38 1 25.5208 14.2815 1.22775 
46 1 30.3203 17.4027 2.46425 
50 1 31.7455 17.3997 2.46426 
54 1 32.4748 17.3871 1.22776 
ITEM: TIMESTEP
80
ITEM: NUMBER OF ATOMS
58
ITEM: BOX BOUNDS pp pp pp
0.0000000000000000e+00 3.2808000000000000e+01
0.0000000000000000e+00 1.7780000000000001e+01
0.0000000000000000e+00 2.4729999999999999e+00
ITEM: ATOMS id type x y z 
13 1 6.99749 0.84601 2.46426 
29 1 7.34911 1.4306 1.22775 
37 1 7.99868 2.72726 1.22775 
57 2 3.95891 1.05113 1.22786 
58 3 3.98197 2.04157 1.22795 
1 1 6.14735 17.3736 2.46426 
5 1 5.3845 17.3635 1.22776 
9 1 3.95809 17.655 1.22778 
16 1 7.0439 16.1609 2.46426 
32 1 7.40265 15.5763 1.22775 
40 1 8.03646 14.273 1.22775 
45 1 3.2235 17.3741 2.46427 
49 1 1.83239 17.3223 2.46427 
53 1 1.09317 17.3353 1.22777 
4 1 10.9654 8.49139 2.46425 
8 1 11.7677 8.49359 1.22775 
12 1 13.1661 8.50401 1.22775 
18 1 10.1017 7.25598 2.46425 
21 1 8.284 3.38019 2.46425 
26 1 8.83399 4.713 2.46425 
34 1 9.75185 6.67042 1.22775 
42 1 9.11428 5.36848 1.22775 
48 1 13.9038 8.50721 2.46425 
52 1 15.3291 8.509 2.46425 
56 1 16.0563 8.50882 1.22775 
19 1 10.1041 9.72946 2.46425 
24 1 8.31034 13.6147 2.46425 
27 1 8.84397 12.2758 2.46425 
35 1 9.75542 10.3156 1.22775 
43 1 9.12042 11.6185 1.22775 
3 1 22.5766 8.50795 2.46425 
7 1 21.7743 8.50795 1.22775 
11 1 20.3761 8.50796 1.22775 
20 1 23.4411 7.27277 2.46425 
36 1 23.7916 6.68759 1.22775 
44 1 24.4283 5.38544 1.22775 
47 1 19.6383 8.50795 2.46425 
51 1 18.2129 8.50801 2.46425 
55 1 17.4857 8.50821 1.22775 
17 1 23.4411 9.74313 2.46425 
33 1 23.7916 10.3283 1.22775 
41 1 24.4283 11.6305 1.22775 
15 1 26.517 0.851458 2.46425 
23 1 25.2454 3.39216 2.46425 
28 1 24.706 4.7285 2.46425 
31 1 26.1642 1.43511 1.22775 
39 1 25.5241 2.7355 1.22775 
2 1 27.3843 17.3979 2.46425 
6 1 28.1863 17.3985 1.22776 
10 1 29.5842 17.4024 1.22776 
14 1 26.5169 16.1645 2.46425 
22 1 25.2453 13.6238 2.46425 
25 1 24.706 12.2874 2.46425 
30 1 26.164 15.5809 1.22775 
38 1 25.524 14.2805 1.22775 
46 1 30.3231 17.4037 2.46426 
50 1 31.7469 17.3957 2.46426 
54 1 32.4767 17.3797 1.22776 
ITEM: TIMESTEP
90
ITEM: NUMBER OF ATOMS
58
ITEM: BOX BOUNDS pp pp pp
0.0000000000000000e+00 3.2808000000000000e+01
0.0000000000000000e+00 1.7780000000000001e+01
0.0000000000000000e+00 2.4729999999999999e+00
ITEM: ATOMS id type x y z 
13 1 6.99398 0.844573 2.46427 
29 1 7.34506 1.43083 1.22775 
37 1 7.99417 2.72767 1.22774 
57 2 3.96091 1.06111 1.22785 
58 3 3.98389 2.05191 1.22794 
1 1 6.14616 17.3718 2.46426 
5 1 5.3812 17.3639 1.22776 
9 1 3.95884 17.6648 1.22779 
16 1 7.04086 16.1595 2.46426 
32 1 7.40052 15.5739 1.22775 
40 1 8.03576 14.2717 1.22774 
45 1 3.22339 17.3813 2.46426 
49 1 1.83478 17.3203 2.46428 
53 1 1.09318 17.33 1.22777 
4 1 10.9651 8.48994 2.46423 
8 1 11.7668 8.49225 1.22777 
12 1 13.1658 8.50321 1.22775 
18 1 10.1025 7.2537 2.46425 
21 1 8.28055 3.38006 2.46426 
26 1 8.83407 4.71118 2.46426 
34 1 9.75346 6.66804 1.22775 
42 1 9.1158 5.36649 1.22774 
48 1 13.9032 8.50677 2.46425 
52 1 15.3286 8.50908 2.46426 
56 1 16.0558 8.50901 1.22774 
19 1 10.1045 9.72868 2.46425 
24 1 8.31071 13.6138 2.46426 
27 1 8.84603 12.2756 2.46426 
35 1 9.7569 10.3148 1.22775 
43 1 9.12292 11.6181 1.22774 
3 1 22.5766 8.50798 2.46423 
7 1 21.7742 8.50796 1.22777 
11 1 20.3758 8.50794 1.22775 
20 1 23.4401 7.27239 2.46425 
36 1 23.7902 6.68642 1.22775 
44 1 24.4266 5.38428 1.22774 
47 1 19.6376 8.50794 2.46425 
51 1 18.2127 8.50807 2.46426 
55 1 17.4851 8.50834 1.22774 
17 1 23.4401 9.74356 2.46425 
33 1 23.7902 10.3295 1.22775 
41 1 24.4266 11.6317 1.22774 
15 1 26.5189 0.852137 2.46425 
23 1 25.2466 3.39254 2.46426 
28 1 24.7051 4.72751 2.46426 
31 1 26.1666 1.43621 1.22775 
39 1 25.5264 2.73587 1.22774 
2 1 27.385 17.3979 2.46423 
6 1 28.1875 17.3989 1.22777 
10 1 29.5849 17.4033 1.22776 
14 1 26.519 16.1637 2.46425 
22 1 25.2466 13.6234 2.46426 
25 1 24.7051 12.2885 2.46426 
30 1 26.1666 15.5798 1.22775 
38 1 25.5263 14.2801 1.22774 
46 1 30.3253 17.4038 2.46425 
50 1 31.7473 17.392 2.46427 
54 1 32.4789 17.3742 1.22776 
ITEM: TIMESTEP
100
ITEM: NUMBER OF ATOMS
58
ITEM: BOX BOUNDS pp pp pp
0.0000000000000000e+00 3.2808000000000000e+01
0.0000000000000000e+00 1.7780000000000001e+01
0.0000000000000000e+00 2.4729999999999999e+00
ITEM: ATOMS id type x y z 
13 1 6.98828 0.843802 2.46426 
29 1 7.33572 1.43013 1.22776 
37 1 7.98301 2.72683 1.22775 
57 2 3.96625 1.0842 1.22784 
58 3 3.98979 2.07565 1.22791 
1 1 6.14056 17.3674 2.46426 
5 1 5.37876 17.3649 1.22776 
9 1 3.95788 17.6871 1.22777 
16 1 7.03507 16.1529 2.46426 
32 1 7.39405 15.569 1.22776 
40 1 8.0335 14.2685 1.22775 
45 1 3.22444 17.3999 2.46428 
49 1 1.83679 17.3172 2.46427 
53 1 1.09752 17.3187 1.22777 
4 1 10.9637 8.48751 2.46426 
8 1 11.7665 8.48919 1.22774 
12 1 13.1645 8.50127 1.22775 
18 1 10.1041 7.24901 2.46425 
21 1 8.27191 3.37853 2.46426 
26 1 8.83319 4.70591 2.46426 
34 1 9.75642 6.66223 1.22775 
42 1 9.1178 5.36032 1.22775 
48 1 13.9028 8.5056 2.46425 
52 1 15.3289 8.50919 2.46425 
56 1 16.0557 8.50942 1.22775 
19 1 10.1053 9.7265 2.46425 
24 1 8.31088 13.6128 2.46426 
27 1 8.85061 12.2761 2.46426 
35 1 9.75929 10.3144 1.22775 
43 1 9.12772 11.6193 1.22775 
3 1 22.5749 8.50815 2.46426 
7 1 21.7741 8.50806 1.22774 
11 1 20.3757 8.5079 1.22775 
20 1 23.4378 7.27093 2.46425 
36 1 23.7864 6.68449 1.22775 
44 1 24.4221 5.38306 1.22775 
47 1 19.6371 8.50792 2.46425 
51 1 18.212 8.50828 2.46425 
55 1 17.4847 8.50871 1.22775 
17 1 23.4379 9.74529 2.46425 
33 1 23.7865 10.3317 1.22775 
41 1 24.4221 11.6332 1.22775 
15 1 26.5234 0.85282 2.46425 
23 1 25.2494 3.39347 2.46425 
28 1 24.7026 4.7263 2.46425 
31 1 26.1721 1.43775 1.22775 
39 1 25.5308 2.73829 1.22775 
2 1 27.3883 17.3981 2.46426 
6 1 28.1909 17.3999 1.22775 
10 1 29.5879 17.4047 1.22776 
14 1 26.5244 16.163 2.46425 
22 1 25.2495 13.6228 2.46425 
25 1 24.7026 12.2899 2.46425 
30 1 26.1728 15.5782 1.22775 
38 1 25.531 14.2779 1.22775 
46 1 30.3269 17.4027 2.46426 
50 1 31.7515 17.3822 2.46427 
54 1 32.4804 17.3609 1.22776 
ITEM: TIMESTEP
110
ITEM: NUMBER OF ATOMS
58
ITEM: BOX BOUNDS pp pp pp
0.0000000000000000e+00 3.2808000000000000e+01
0.0000000000000000e+00 1.7780000000000001e+01
0.0000000000000000e+00 2.4729999999999999e+00
ITEM: ATOMS id type x y z 
13 1 6.98705 0.842754 2.46426 
29 1 7.33419 1.42952 1.22776 
37 1 7.98129 2.7269 1.22775 
57 2 3.9675 1.08825 1.22784 
58 3 3.9914 2.08002 1.22791 
1 1 6.14009 17.3666 2.46426 
5 1 5.3774 17.3652 1.22776 
9 1 3.95808 17.6913 1.22778 
16 1 7.03343 16.1524 2.46426 
32 1 7.39254 15.5685 1.22776 
40 1 8.03296 14.2683 1.22775 
45 1 3.22556 17.4035 2.46428 
49 1 1.83681 17.3171 2.46427 
53 1 1.09781 17.317 1.22777 
4 1 10.9641 8.48654 2.46425 
8 1 11.7667 8.48859 1.22775 
12 1 13.1649 8.50088 1.22775 
18 1 10.1044 7.2481 2.46425 
21 1 8.27051 3.37866 2.46426 
26 1 8.83323 4.70593 2.46425 
34 1 9.75686 6.6611 1.22775 
42 1 9.1181 5.35953 1.22775 
48 1 13.9026 8.50534 2.46425 
52 1 15.3281 8.50917 2.46425 
56 1 16.0553 8.50948 1.22775 
19 1 10.1054 9.72591 2.46425 
24 1 8.311 13.6123 2.46426 
27 1 8.85159 12.2758 2.46425 
35 1 9.75975 10.314 1.22775 
43 1 9.12872 11.6191 1.22775 
3 1 22.5756 8.5082 2.46425 
7 1 21.7735 8.50811 1.22775 
11 1 20.3753 8.50791 1.22775 
20 1 23.4373 7.27091 2.46425 
36 1 23.7856 6.6845 1.22775 
44 1 24.4215 5.38242 1.22775 
47 1 19.6372 8.50793 2.46425 
51 1 18.2118 8.50834 2.46425 
55 1 17.4846 8.50879 1.22775 
17 1 23.4373 9.74541 2.46425 
33 1 23.7857 10.3318 1.22775 
41 1 24.4216 11.6339 1.22775 
15 1 26.5239 0.85333 2.46425 
23 1 25.25 3.39359 2.46425 
28 1 24.702 4.72638 2.46425 
31 1 26.1729 1.43829 1.22775 
39 1 25.5317 2.73845 1.22775 
2 1 27.3889 17.3982 2.46425 
6 1 28.1912 17.4001 1.22775 
10 1 29.589 17.4046 1.22776 
14 1 26.5251 16.1624 2.46425 
22 1 25.2501 13.6227 2.46425 
25 1 24.7021 12.29 2.46425 
30 1 26.1738 15.5777 1.22775 
38 1 25.5321 14.2778 1.22775 
46 1 30.3275 17.4021 2.46426 
50 1 31.7519 17.38 2.46426 
54 1 32.4807 17.3583 1.22776 
ITEM: TIMESTEP
120
ITEM: NUMBER OF ATOMS
58
ITEM: BOX BOUNDS pp pp pp
0.0000000000000000e+00 3.2808000000000000e+01
0.0000000000000000e+00 1.7780000000000001e+01
0.0000000000000000e+00 2.4729999999999999e+00
ITEM: ATOMS id type x y z 
13 1 6.98359 0.840592 2.46426 
29 1 7.32918 1.42858 1.22776 
37 1 7.97414 2.72636 1.22775 
57 2 3.9727 1.10488 1.22783 
58 3 3.99865 2.09714 1.22789 
1 1 6.13727 17.3631 2.46426 
5 1 5.37441 17.3667 1.22777 
9 1 3.95841 17.7074 1.22778 
16 1 7.02788 16.1482 2.46426 
32 1 7.38724 15.5643 1.22776 
40 1 8.03066 14.2661 1.22775 
45 1 3.22556 17.4183 2.46428 
49 1 1.83887 17.3175 2.46427 
53 1 1.10122 17.3109 1.22777 
4 1 10.9623 8.4844 2.46425 
8 1 11.7666 8.48629 1.22775 
12 1 13.1651 8.4993 1.22775 
18 1 10.1052 7.24466 2.46425 
21 1 8.26442 3.37789 2.46426 
26 1 8.83173 4.70291 2.46426 
34 1 9.75852 6.65727 1.22775 
42 1 9.11882 5.35633 1.22775 
48 1 13.9022 8.50426 2.46425 
52 1 15.3272 8.50907 2.46425 
56 1 16.0548 8.50969 1.22775 
19 1 10.1058 9.7242 2.46425 
24 1 8.31092 13.6113 2.46426 
27 1 8.85503 12.2758 2.46426 
35 1 9.76142 10.3133 1.22775 
43 1 9.13204 11.6203 1.22775 
3 1 22.5761 8.50847 2.46425 
7 1 21.7733 8.50832 1.22775 
11 1 20.3738 8.50795 1.22775 
20 1 23.4356 7.27013 2.46425 
36 1 23.7826 6.68391 1.22775 
44 1 24.4185 5.38186 1.22775 
47 1 19.637 8.508 2.46425 
51 1 18.2125 8.50861 2.46425 
55 1 17.4842 8.50915 1.22775 
17 1 23.4357 9.74668 2.46425 
33 1 23.7828 10.3329 1.22775 
41 1 24.4186 11.6349 1.22775 
15 1 26.5264 0.854072 2.46425 
23 1 25.2515 3.39533 2.46425 
28 1 24.7003 4.72595 2.46425 
31 1 26.176 1.43991 1.22775 
39 1 25.5349 2.73978 1.22775 
2 1 27.3903 17.3985 2.46425 
6 1 28.1938 17.4009 1.22775 
10 1 29.591 17.4037 1.22776 
14 1 26.5285 16.1617 2.46425 
22 1 25.252 13.6213 2.46425 
25 1 24.7005 12.2908 2.46425 
30 1 26.1779 15.5761 1.22775 
38 1 25.5357 14.2767 1.22775 
46 1 30.33 17.3987 2.46426 
50 1 31.7535 17.3708 2.46427 
54 1 32.4821 17.3477 1.22776 
ITEM: TIMESTEP
130
ITEM: NUMBER OF ATOMS
58
ITEM: BOX BOUNDS pp pp pp
0.0000000000000000e+00 3.2808000000000000e+01
0.0000000000000000e+00 1.7780000000000001e+01
0.0000000000000000e+00 2.4729999999999999e+00
ITEM: ATOMS id type x y z 
13 1 6.98061 0.83779 2.46426 
29 1 7.3239 1.42644 1.22776 
37 1 7.96661 2.72682 1.22776 
57 2 3.98076 1.12571 1.22782 
58 3 4.01122 2.11848 1.22786 
1 1 6.13334 17.3602 2.46426 
5 1 5.37045 17.3689 1.22777 
9 1 3.95836 17.7284 1.22778 
16 1 7.02024 16.1428 2.46426 
32 1 7.37938 15.5596 1.22776 
40 1 8.02757 14.2623 1.22776 
45 1 3.22742 17.4389 2.46428 
49 1 1.8396 17.3204 2.46427 
53 1 1.1017 17.3051 1.22777 
4 1 10.9626 8.48082 2.46425 
8 1 11.7652 8.48321 1.22775 
12 1 13.1635 8.49706 1.22775 
18 1 10.106 7.2401 2.46425 
21 1 8.2571 3.37709 2.46425 
26 1 8.82937 4.70051 2.46425 
34 1 9.76023 6.65313 1.22775 
42 1 9.11868 5.35265 1.22776 
48 1 13.9006 8.50265 2.46425 
52 1 15.3267 8.50875 2.46425 
56 1 16.0533 8.50984 1.22775 
19 1 10.1065 9.72228 2.46425 
24 1 8.31042 13.6093 2.46425 
27 1 8.8591 12.2756 2.46425 
35 1 9.76394 10.3118 1.22776 
43 1 9.137 11.6196 1.22776 
3 1 22.5742 8.50893 2.46425 
7 1 21.7717 8.50873 1.22775 
11 1 20.3751 8.50816 1.22775 
20 1 23.4334 7.26989 2.46425 
36 1 23.7802 6.68205 1.22775 
44 1 24.4161 5.37919 1.22776 
47 1 19.6355 8.50822 2.46425 
51 1 18.21 8.50905 2.46425 
55 1 17.4829 8.50963 1.22775 
17 1 23.4336 9.74782 2.46425 
33 1 23.7804 10.3356 1.22775 
41 1 24.4164 11.6385 1.22776 
15 1 26.5297 0.855689 2.46425 
23 1 25.2545 3.39471 2.46425 
28 1 24.6985 4.72545 2.46425 
31 1 26.1805 1.44087 1.22776 
39 1 25.5389 2.7409 1.22776 
2 1 27.3926 17.3992 2.46425 
6 1 28.1948 17.4016 1.22776 
10 1 29.5938 17.4002 1.22776 
14 1 26.5331 16.1604 2.46425 
22 1 25.2558 13.6226 2.46425 
25 1 24.6989 12.2921 2.46425 
30 1 26.184 15.5754 1.22776 
38 1 25.5409 14.276 1.22776 
46 1 30.3314 17.3917 2.46426 
50 1 31.7555 17.3573 2.46426 
54 1 32.4832 17.3338 1.22777 
ITEM: TIMESTEP
140
ITEM: NUMBER OF ATOMS
58
ITEM: BOX BOUNDS pp pp pp
0.0000000000000000e+00 3.2808000000000000e+01
0.0000000000000000e+00 1.7780000000000001e+01
0.0000000000000000e+00 2.4729999999999999e+00
ITEM: ATOMS id type x y z 
13 1 6.98041 0.837401 2.46426 
29 1 7.32377 1.42639 1.22776 
37 1 7.96621 2.7268 1.22776 
57 2 3.98148 1.12727 1.22782 
58 3 4.01244 2.11989 1.22786 
1 1 6.13278 17.3608 2.46426 
5 1 5.36994 17.3691 1.22777 
9 1 3.95848 17.7299 1.22777 
16 1 7.01975 16.1426 2.46426 
32 1 7.37903 15.5589 1.22776 
40 1 8.02708 14.2626 1.22776 
45 1 3.22692 17.4401 2.46428 
49 1 1.84068 17.3209 2.46427 
53 1 1.10185 17.3049 1.22777 
4 1 10.9622 8.48064 2.46425 
8 1 11.7652 8.48301 1.22775 
12 1 13.1636 8.49689 1.22775 
18 1 10.106 7.24003 2.46425 
21 1 8.25676 3.37727 2.46426 
26 1 8.82921 4.70053 2.46425 
34 1 9.75993 6.65232 1.22775 
42 1 9.11842 5.3522 1.22776 
48 1 13.9011 8.50253 2.46425 
52 1 15.3267 8.50871 2.46425 
56 1 16.0538 8.50984 1.22775 
19 1 10.1065 9.72211 2.46425 
24 1 8.31059 13.6085 2.46426 