 # File generated with Atomsk by ana on 2024-09-05 17:52:34
  
          58  atoms
           3  atom types
 
      0.000000000000      32.808000000000  xlo xhi
      0.000000000000      17.780000000000  ylo yhi
      0.000000000000       2.473000000000  zlo zhi
 
Masses
 
            1   12.01100000             # C
            2   15.99900000             # O
            3   1.00800000              # H
 
Atoms # charge
 
         1    1   0.000000        6.173000000000      -0.382000000000       2.464000000000
         2    1   0.000000       27.373000000000      -0.382000000000       2.464000000000
         3    1   0.000000       22.577000000000       8.508000000000       2.464000000000
         4    1   0.000000       10.968000000000       8.508000000000       2.464000000000
         5    1   0.000000        5.371000000000      -0.382000000000       1.228000000000
         6    1   0.000000       28.175000000000      -0.382000000000       1.228000000000
         7    1   0.000000       21.775000000000       8.508000000000       1.228000000000
         8    1   0.000000       11.771000000000       8.508000000000       1.228000000000
         9    1   0.000000        3.973000000000      17.398000000000       1.228000000000
        10    1   0.000000       29.572000000000      -0.382000000000       1.228000000000
        11    1   0.000000       20.377000000000       8.508000000000       1.228000000000
        12    1   0.000000       13.168000000000       8.508000000000       1.228000000000
        13    1   0.000000        7.043000000000       0.849000000000       2.464000000000
        14    1   0.000000       26.502000000000      16.167000000000       2.464000000000
        15    1   0.000000       26.502000000000       0.849000000000       2.464000000000
        16    1   0.000000        7.043000000000      16.167000000000       2.464000000000
        17    1   0.000000       23.447000000000       9.739000000000       2.464000000000
        18    1   0.000000       10.098000000000       7.277000000000       2.464000000000
        19    1   0.000000       10.098000000000       9.739000000000       2.464000000000
        20    1   0.000000       23.447000000000       7.277000000000       2.464000000000
        21    1   0.000000        8.308000000000       3.392000000000       2.464000000000
        22    1   0.000000       25.237000000000      13.624000000000       2.464000000000
        23    1   0.000000       25.237000000000       3.392000000000       2.464000000000
        24    1   0.000000        8.308000000000      13.624000000000       2.464000000000
        25    1   0.000000       24.712000000000      12.282000000000       2.464000000000
        26    1   0.000000        8.833000000000       4.734000000000       2.464000000000
        27    1   0.000000        8.833000000000      12.282000000000       2.464000000000
        28    1   0.000000       24.712000000000       4.734000000000       2.464000000000
        29    1   0.000000        7.397000000000       1.432000000000       1.228000000000
        30    1   0.000000       26.149000000000      15.584000000000       1.228000000000
        31    1   0.000000       26.149000000000       1.432000000000       1.228000000000
        32    1   0.000000        7.397000000000      15.584000000000       1.228000000000
        33    1   0.000000       23.801000000000      10.322000000000       1.228000000000
        34    1   0.000000        9.745000000000       6.694000000000       1.228000000000
        35    1   0.000000        9.745000000000      10.322000000000       1.228000000000
        36    1   0.000000       23.801000000000       6.694000000000       1.228000000000
        37    1   0.000000        8.035000000000       2.733000000000       1.228000000000
        38    1   0.000000       25.511000000000      14.283000000000       1.228000000000
        39    1   0.000000       25.511000000000       2.733000000000       1.228000000000
        40    1   0.000000        8.035000000000      14.283000000000       1.228000000000
        41    1   0.000000       24.439000000000      11.623000000000       1.228000000000
        42    1   0.000000        9.106000000000       5.393000000000       1.228000000000
        43    1   0.000000        9.106000000000      11.623000000000       1.228000000000
        44    1   0.000000       24.439000000000       5.393000000000       1.228000000000
        45    1   0.000000        3.236000000000      17.398000000000       2.464000000000
        46    1   0.000000       30.310000000000      17.398000000000       2.464000000000
        47    1   0.000000       19.640000000000       8.508000000000       2.464000000000
        48    1   0.000000       13.906000000000       8.508000000000       2.464000000000
        49    1   0.000000        1.810000000000      17.398000000000       2.464000000000
        50    1   0.000000       31.735000000000      17.398000000000       2.464000000000
        51    1   0.000000       18.214000000000       8.508000000000       2.464000000000
        52    1   0.000000       15.331000000000       8.508000000000       2.464000000000
        53    1   0.000000        1.083000000000      17.398000000000       1.228000000000
        54    1   0.000000       32.462000000000      17.398000000000       1.228000000000
        55    1   0.000000       17.487000000000       8.508000000000       1.228000000000
        56    1   0.000000       16.058000000000       8.508000000000       1.228000000000
        57    2   0.000000        3.973000000000      18.748000000000       1.228000000000
        58    3   0.000000        3.973000000000      19.724000000000       1.228000000000
