ITEM: TIMESTEP
0
ITEM: NUMBER OF ATOMS
129
ITEM: BOX BOUNDS pp pp pp
0.0000000000000000e+00 1.8762000000000000e+01
0.0000000000000000e+00 1.8762000000000000e+01
0.0000000000000000e+00 1.8760999999999999e+01
ITEM: ATOMS id type x y z 
1 1 3.12 3.119 3.121 
10 1 5.595 5.596 5.595 
17 1 4.011 4.011 4.012 
26 1 4.704 4.704 4.704 
33 1 0.414 3.456 3.456 
41 1 3.456 0.413 3.456 
49 1 3.456 3.456 0.414 
58 1 8.301 5.259 5.259 
66 1 5.259 8.301 5.259 
74 1 5.259 5.259 8.301 
81 1 1.612 3.354 3.354 
89 1 3.353 1.612 3.354 
97 1 3.354 3.354 1.613 
106 1 7.103 5.361 5.361 
114 1 5.362 7.103 5.361 
122 1 5.361 5.361 7.103 
4 1 3.12 3.12 14.976 
11 1 5.595 5.595 12.5 
20 1 4.011 4.011 14.084 
27 1 4.704 4.704 13.392 
36 1 0.414 3.456 14.639 
46 1 3.456 0.414 14.639 
56 1 3.456 3.456 17.682 
59 1 8.301 5.259 12.837 
69 1 5.259 8.301 12.837 
79 1 5.259 5.259 9.794 
84 1 1.612 3.354 14.742 
94 1 3.354 1.612 14.742 
104 1 3.354 3.354 16.483 
107 1 7.103 5.361 12.735 
117 1 5.361 7.103 12.735 
127 1 5.361 5.361 10.993 
6 1 3.12 14.976 3.12 
13 1 5.595 12.501 5.596 
22 1 4.011 14.085 4.011 
29 1 4.704 13.392 4.705 
38 1 0.414 14.64 3.457 
48 1 3.456 17.682 3.456 
52 1 3.456 14.64 0.414 
61 1 8.301 12.837 5.259 
71 1 5.259 9.794 5.259 
75 1 5.259 12.837 8.301 
86 1 1.612 14.742 3.354 
96 1 3.354 16.483 3.354 
100 1 3.354 14.742 1.612 
109 1 7.103 12.735 5.361 
119 1 5.361 10.993 5.361 
123 1 5.361 12.735 7.103 
7 1 3.12 14.976 14.976 
16 1 5.595 12.501 12.5 
23 1 4.011 14.085 14.084 
32 1 4.704 13.392 13.391 
39 1 0.414 14.64 14.639 
43 1 3.456 17.682 14.639 
53 1 3.456 14.64 17.682 
64 1 8.302 12.837 12.837 
68 1 5.259 9.795 12.837 
78 1 5.259 12.837 9.794 
87 1 1.612 14.742 14.741 
91 1 3.354 16.483 14.741 
101 1 3.353 14.742 16.483 
112 1 7.103 12.735 12.735 
116 1 5.361 10.993 12.735 
126 1 5.361 12.735 10.993 
8 1 14.976 3.12 3.12 
15 1 12.501 5.595 5.595 
24 1 14.084 4.011 4.011 
31 1 13.392 4.704 4.704 
40 1 17.682 3.456 3.456 
44 1 14.64 0.414 3.457 
54 1 14.64 3.456 0.414 
63 1 9.795 5.259 5.259 
67 1 12.837 8.301 5.259 
77 1 12.837 5.259 8.301 
88 1 16.483 3.354 3.354 
92 1 14.742 1.612 3.354 
102 1 14.742 3.354 1.612 
111 1 10.993 5.361 5.361 
115 1 12.735 7.103 5.361 
125 1 12.735 5.361 7.103 
5 1 14.976 3.119 14.975 
14 1 12.501 5.596 12.501 
21 1 14.085 4.011 14.084 
30 1 13.392 4.703 13.392 
37 1 17.682 3.456 14.639 
47 1 14.64 0.413 14.639 
51 1 14.64 3.456 17.682 
62 1 9.794 5.259 12.837 
72 1 12.837 8.301 12.837 
76 1 12.837 5.259 9.795 
85 1 16.483 3.354 14.741 
95 1 14.742 1.612 14.741 
99 1 14.742 3.354 16.483 
110 1 10.993 5.361 12.735 
120 1 12.734 7.103 12.735 
124 1 12.735 5.361 10.993 
3 1 14.976 14.976 3.12 
12 1 12.501 12.501 5.595 
19 1 14.085 14.085 4.011 
28 1 13.392 13.392 4.704 
35 1 17.682 14.64 3.457 
45 1 14.64 17.682 3.457 
55 1 14.64 14.64 0.414 
60 1 9.794 12.837 5.259 
70 1 12.837 9.794 5.259 
80 1 12.837 12.837 8.301 
83 1 16.484 14.742 3.354 
93 1 14.742 16.483 3.354 
103 1 14.742 14.742 1.613 
108 1 10.993 12.735 5.361 
118 1 12.734 10.993 5.361 
128 1 12.734 12.734 7.103 
2 1 14.976 14.976 14.975 
9 1 12.501 12.501 12.501 
18 1 14.084 14.085 14.084 
25 1 13.391 13.393 13.392 
34 1 17.682 14.64 14.639 
42 1 14.64 17.682 14.639 
50 1 14.64 14.64 17.682 
57 1 9.795 12.837 12.837 
65 1 12.837 9.794 12.837 
73 1 12.837 12.837 9.794 
82 1 16.483 14.742 14.741 
90 1 14.742 16.483 14.741 
98 1 14.742 14.742 16.483 
105 1 10.993 12.734 12.734 
113 1 12.735 10.993 12.735 
121 1 12.735 12.734 10.993 
129 2 9.798 13.729 12.188 
ITEM: TIMESTEP
10
ITEM: NUMBER OF ATOMS
129
ITEM: BOX BOUNDS pp pp pp
0.0000000000000000e+00 1.8762000000000000e+01
0.0000000000000000e+00 1.8762000000000000e+01
0.0000000000000000e+00 1.8760999999999999e+01
ITEM: ATOMS id type x y z 
1 1 3.10701 3.10712 3.10707 
10 1 5.60858 5.60816 5.60813 
17 1 4.01375 4.01314 4.01342 
26 1 4.70106 4.70167 4.70227 
33 1 0.418353 3.45441 3.45424 
41 1 3.45417 0.417268 3.4545 
49 1 3.45432 3.45443 0.419301 
58 1 8.29593 5.26059 5.26066 
66 1 5.26085 8.29581 5.26045 
74 1 5.26064 5.26056 8.2955 
81 1 1.60888 3.35464 3.35501 
89 1 3.3541 1.60922 3.35492 
97 1 3.35475 3.35465 1.61129 
106 1 7.10531 5.36055 5.36038 
114 1 5.36103 7.10553 5.36042 
122 1 5.3604 5.36049 7.10502 
4 1 3.10673 3.10685 14.9887 
11 1 5.60839 5.60854 12.4877 
20 1 4.01365 4.01364 14.0828 
27 1 4.70122 4.70115 13.3933 
36 1 0.419241 3.45435 14.6409 
46 1 3.45436 0.419181 14.6409 
56 1 3.4543 3.45429 17.6757 
59 1 8.29505 5.26069 12.8354 
69 1 5.2606 8.29546 12.8353 
79 1 5.26066 5.26069 9.80034 
84 1 1.60896 3.35452 14.7411 
94 1 3.35455 1.60888 14.741 
104 1 3.35476 3.35479 16.4862 
107 1 7.10522 5.36038 12.7356 
117 1 5.36041 7.10531 12.7355 
127 1 5.3602 5.36025 10.9899 
6 1 3.107 14.9889 3.1068 
13 1 5.60807 12.4877 5.60895 
22 1 4.01323 14.0828 4.01414 
29 1 4.70172 13.3942 4.70165 
38 1 0.419538 14.6416 3.45514 
48 1 3.45433 17.6759 3.45428 
52 1 3.45439 14.6417 0.419806 
61 1 8.29496 12.8353 5.26062 
71 1 5.26067 9.80044 5.26067 
75 1 5.26053 12.8354 8.29555 
86 1 1.60917 14.7414 3.35483 
96 1 3.35476 16.4864 3.35477 
100 1 3.35461 14.7413 1.60965 
109 1 7.10534 12.7358 5.36059 
119 1 5.36012 10.9901 5.36038 
123 1 5.36055 12.7356 7.10505 
7 1 3.10678 14.9891 14.9886 
16 1 5.58848 12.4867 12.4866 
23 1 4.01279 14.0835 14.0832 
32 1 4.69958 13.3951 13.394 
39 1 0.41909 14.6418 14.6407 
43 1 3.4542 17.6764 14.6406 
53 1 3.45405 14.6416 17.6756 
64 1 8.25786 12.8225 12.836 
68 1 5.26077 9.79726 12.836 
78 1 5.26068 12.8359 9.79647 
87 1 1.60886 14.7413 14.7404 
91 1 3.35479 16.4868 14.7403 
101 1 3.35403 14.7414 16.4861 
112 1 7.07307 12.7343 12.7341 
116 1 5.35957 10.9881 12.7368 
126 1 5.35938 12.737 10.9875 
8 1 14.9887 3.10676 3.10679 
15 1 12.488 5.60832 5.60824 
24 1 14.0828 4.01353 4.01353 
31 1 13.3936 4.70129 4.70125 
40 1 17.6764 3.45425 3.45428 
44 1 14.6417 0.419186 3.45512 
54 1 14.6417 3.45435 0.419987 
63 1 9.80069 5.2607 5.2607 
67 1 12.8354 8.29506 5.26068 
77 1 12.8353 5.26069 8.29551 
88 1 16.4867 3.35478 3.35478 
92 1 14.7413 1.6089 3.3549 
102 1 14.7413 3.35461 1.60975 
111 1 10.99 5.36027 5.36028 
115 1 12.7357 7.10544 5.36033 
125 1 12.7357 5.36028 7.10605 
5 1 14.9891 3.10634 14.9887 
14 1 12.4875 5.60821 12.4878 
21 1 14.0821 4.01237 14.0819 
30 1 13.3947 4.70185 13.3942 
37 1 17.6765 3.45429 14.6407 
47 1 14.6417 0.418983 14.6407 
51 1 14.6417 3.45435 17.6752 
62 1 9.80067 5.26064 12.8353 
72 1 12.8351 8.29518 12.8355 
76 1 12.8353 5.26068 9.80059 
85 1 16.4867 3.35459 14.7402 
95 1 14.7413 1.60887 14.7403 
99 1 14.7413 3.35456 16.4855 
110 1 10.9901 5.36033 12.7358 
120 1 12.7351 7.10578 12.7354 
124 1 12.7358 5.36058 10.9902 
3 1 14.989 14.989 3.10707 
12 1 12.4872 12.4874 5.60817 
19 1 14.0822 14.0823 4.013 
28 1 13.3945 13.3945 4.70218 
35 1 17.6767 14.6416 3.45517 
45 1 14.6417 17.6765 3.45511 
55 1 14.6417 14.6417 0.420036 
60 1 9.80076 12.8353 5.26071 
70 1 12.835 9.80076 5.26059 
80 1 12.8352 12.8352 8.29473 
83 1 16.4871 14.7414 3.35492 
93 1 14.7413 16.487 3.35509 
103 1 14.7413 14.7412 1.60969 
108 1 10.9906 12.7357 5.3604 
118 1 12.735 10.9905 5.36052 
128 1 12.7348 12.7348 7.10551 
2 1 14.9883 14.9888 14.9884 
9 1 12.452 12.4866 12.5016 
18 1 14.0786 14.0791 14.0784 
25 1 13.3909 13.3924 13.3919 
34 1 17.6765 14.6417 14.6407 
42 1 14.6417 17.676 14.6407 
50 1 14.6417 14.6417 17.6755 
57 1 9.89294 12.8311 12.8712 
65 1 12.8356 9.80101 12.8351 
73 1 12.8354 12.835 9.80239 
82 1 16.4868 14.7412 14.7402 
90 1 14.7413 16.4862 14.7402 
98 1 14.7413 14.7413 16.4857 
105 1 11.107 12.6693 12.7401 
113 1 12.7351 10.993 12.7374 
121 1 12.7344 12.7362 10.9925 
129 2 9.72769 13.8191 12.1375 
ITEM: TIMESTEP
20
ITEM: NUMBER OF ATOMS
129
ITEM: BOX BOUNDS pp pp pp
0.0000000000000000e+00 1.8762000000000000e+01
0.0000000000000000e+00 1.8762000000000000e+01
0.0000000000000000e+00 1.8760999999999999e+01
ITEM: ATOMS id type x y z 
1 1 3.10664 3.10637 3.10699 
10 1 5.60851 5.60848 5.60839 
17 1 4.01304 4.01296 4.0136 
26 1 4.70164 4.70151 4.70174 
33 1 0.417682 3.45388 3.45383 
41 1 3.45347 0.418448 3.45392 
49 1 3.45371 3.4538 0.419795 
58 1 8.29708 5.26108 5.26108 
66 1 5.26133 8.29689 5.2609 
74 1 5.26103 5.26104 8.2967 
81 1 1.6083 3.35389 3.35409 
89 1 3.35359 1.60712 3.35431 
97 1 3.35411 3.35416 1.60837 
106 1 7.10663 5.36101 5.36092 
114 1 5.36151 7.10645 5.36099 
122 1 5.361 5.36102 7.10611 
4 1 3.1064 3.10639 14.9891 
11 1 5.60833 5.60877 12.4873 
20 1 4.01322 4.01315 14.0823 
27 1 4.70125 4.70137 13.3941 
36 1 0.41804 3.4539 14.6414 
46 1 3.45391 0.418267 14.6414 
56 1 3.45388 3.45389 17.6778 
59 1 8.29658 5.26104 12.8349 
69 1 5.26072 8.29471 12.835 
79 1 5.26107 5.26102 9.79873 
84 1 1.60806 3.35397 14.7416 
94 1 3.35396 1.6083 14.7415 
104 1 3.35417 3.35419 16.4871 
107 1 7.10657 5.36089 12.7351 
117 1 5.36099 7.10446 12.7347 
127 1 5.36073 5.36077 10.9888 
6 1 3.10657 14.9892 3.10662 
13 1 5.60838 12.4876 5.60896 
22 1 4.01309 14.0828 4.01353 
29 1 4.70146 13.3944 4.70205 
38 1 0.418116 14.642 3.45466 
48 1 3.45395 17.6778 3.45393 
52 1 3.45395 14.642 0.418528 
61 1 8.29659 12.835 5.26104 
71 1 5.26106 9.79892 5.26101 
75 1 5.26065 12.8351 8.29467 
86 1 1.60828 14.7419 3.35442 
96 1 3.35422 16.4871 3.35418 
100 1 3.35417 14.7418 1.60877 
109 1 7.10656 12.7353 5.36104 
119 1 5.36062 10.9889 5.36091 
123 1 5.36105 12.7348 7.10417 
7 1 3.10515 14.9909 14.9904 
16 1 5.57597 12.4841 12.4833 
23 1 4.01003 14.0866 14.0859 
32 1 4.69615 13.3954 13.3946 
39 1 0.416883 14.6421 14.641 
43 1 3.45396 17.6785 14.641 
53 1 3.45372 14.6419 17.6779 
64 1 8.27226 12.8136 12.8353 
68 1 5.26221 9.79349 12.8372 
78 1 5.26209 12.8372 9.79288 
87 1 1.60728 14.7417 14.7409 
91 1 3.35426 16.4881 14.7408 
101 1 3.35362 14.7419 16.4872 
112 1 7.09135 12.7303 12.734 
116 1 5.35658 10.9864 12.7364 
126 1 5.35647 12.7366 10.9861 
8 1 14.9893 3.10649 3.10667 
15 1 12.4874 5.60851 5.60852 
24 1 14.0824 4.01306 4.01327 
31 1 13.394 4.70167 4.70165 
40 1 17.6776 3.45387 3.45381 
44 1 14.6421 0.41775 3.45463 
54 1 14.6421 3.45396 0.417971 
63 1 9.79902 5.2611 5.26111 
67 1 12.8349 8.29662 5.26105 
77 1 12.8349 5.26108 8.29691 
88 1 16.4876 3.35416 3.3542 
92 1 14.7419 1.60827 3.35443 
102 1 14.7419 3.35407 1.6089 
111 1 10.9894 5.36087 5.36089 
115 1 12.7352 7.10619 5.36092 
125 1 12.7351 5.36087 7.10652 
5 1 14.9895 3.10585 14.9887 
14 1 12.4875 5.60807 12.4877 
21 1 14.0828 4.01276 14.0822 
30 1 13.3944 4.70113 13.3942 
37 1 17.6777 3.45386 14.6411 
47 1 14.6422 0.417279 14.6411 
51 1 14.6421 3.45392 17.677 
62 1 9.79855 5.26105 12.835 
72 1 12.8352 8.29111 12.8355 
76 1 12.835 5.26112 9.79866 
85 1 16.4876 3.354 14.7408 
95 1 14.7419 1.60764 14.7409 
99 1 14.7419 3.35399 16.4865 
110 1 10.9891 5.36081 12.7353 
120 1 12.7341 7.10143 12.7347 
124 1 12.7352 5.36096 10.9892 
3 1 14.9895 14.9894 3.10664 
12 1 12.4872 12.4873 5.60814 
19 1 14.0828 14.0828 4.01334 
28 1 13.3943 13.3943 4.70145 
35 1 17.6779 14.642 3.45466 
45 1 14.6421 17.6777 3.45463 
55 1 14.6422 14.6421 0.417984 
60 1 9.79895 12.835 5.26111 
70 1 12.8347 9.7988 5.26104 
80 1 12.8352 12.8349 8.29456 
83 1 16.4876 14.742 3.35442 
93 1 14.7419 16.4876 3.35454 
103 1 14.7418 14.7418 1.60846 
108 1 10.9893 12.7352 5.36078 
118 1 12.7346 10.9893 5.3609 
128 1 12.7341 12.7342 7.10344 
2 1 14.989 14.9889 14.9881 
9 1 12.4915 12.4808 12.5044 
18 1 14.086 14.0868 14.0859 
25 1 13.3989 13.3994 13.4001 
34 1 17.6774 14.6422 14.6412 
42 1 14.6422 17.6774 14.6412 
50 1 14.6422 14.6422 17.677 
57 1 9.87365 12.8904 12.8653 
65 1 12.8378 9.78995 12.8359 
73 1 12.8362 12.8362 9.78938 
82 1 16.487 14.7418 14.7409 
90 1 14.7418 16.487 14.7409 
98 1 14.7418 14.7419 16.4866 
105 1 11.0687 12.6474 12.7367 
113 1 12.7412 10.9842 12.7412 
121 1 12.738 12.7394 10.983 
129 2 9.71 13.8104 12.1509 
ITEM: TIMESTEP
30
ITEM: NUMBER OF ATOMS
129
ITEM: BOX BOUNDS pp pp pp
0.0000000000000000e+00 1.8762000000000000e+01
0.0000000000000000e+00 1.8762000000000000e+01
0.0000000000000000e+00 1.8760999999999999e+01
ITEM: ATOMS id type x y z 
1 1 3.1073 3.1072 3.10805 
10 1 5.60771 5.60756 5.6074 
17 1 4.0131 4.01294 4.01335 
26 1 4.70169 4.70164 4.70206 
33 1 0.415327 3.4537 3.45364 
41 1 3.45328 0.415995 3.45374 
49 1 3.45354 3.45363 0.417131 
58 1 8.29876 5.26133 5.26133 
66 1 5.26158 8.29843 5.26115 
74 1 5.26128 5.26129 8.29825 
81 1 1.60688 3.35379 3.35397 
89 1 3.35354 1.60569 3.35425 
97 1 3.35402 3.35411 1.60677 
106 1 7.10888 5.36101 5.36094 
114 1 5.3615 7.10863 5.36101 
122 1 5.36101 5.36103 7.10844 
4 1 3.10718 3.10716 14.9883 
11 1 5.60735 5.60748 12.4882 
20 1 4.01271 4.01276 14.0828 
27 1 4.70166 4.70174 13.3939 
36 1 0.416236 3.45366 14.6417 
46 1 3.45369 0.416656 14.6416 
56 1 3.45362 3.45364 17.6794 
59 1 8.29865 5.26121 12.8348 
69 1 5.26096 8.29695 12.8349 
79 1 5.26126 5.26121 9.79655 
84 1 1.606 3.35392 14.7416 
94 1 3.35389 1.60648 14.7416 
104 1 3.35414 3.35415 16.4895 
107 1 7.10843 5.36092 12.7351 
117 1 5.36093 7.1061 12.7346 
127 1 5.36075 5.36079 10.9868 
6 1 3.10732 14.9885 3.10753 
13 1 5.60735 12.4885 5.60772 
22 1 4.01285 14.083 4.01318 
29 1 4.70162 13.3943 4.70215 
38 1 0.416282 14.6423 3.4544 
48 1 3.4537 17.6793 3.45369 
52 1 3.45373 14.6422 0.416878 
61 1 8.29884 12.8348 5.26125 
71 1 5.26124 9.7968 5.2612 
75 1 5.26088 12.835 8.2968 
86 1 1.60607 14.742 3.35441 
96 1 3.3542 16.4894 3.35415 
100 1 3.35412 14.7419 1.60675 
109 1 7.10865 12.7352 5.36103 
119 1 5.36065 10.9869 5.36091 
123 1 5.36099 12.7346 7.10593 
7 1 3.10544 14.9906 14.9899 
16 1 5.57255 12.4845 12.4832 
23 1 4.00986 14.0868 14.0861 
32 1 4.69422 13.3959 13.3951 
39 1 0.415293 14.6422 14.6412 
43 1 3.45381 17.6804 14.6411 
53 1 3.45354 14.642 17.6798 
64 1 8.27482 12.8108 12.8364 
68 1 5.26275 9.79139 12.8373 
78 1 5.26261 12.8374 9.79086 
87 1 1.60519 14.7418 14.741 
91 1 3.35422 16.4905 14.7408 
101 1 3.35363 14.7419 16.4898 
112 1 7.09186 12.7259 12.7339 
116 1 5.35515 10.9831 12.7366 
126 1 5.35511 12.7368 10.9828 
8 1 14.9884 3.10724 3.10749 
15 1 12.4883 5.60755 5.6076 
24 1 14.0827 4.01297 4.01304 
31 1 13.3938 4.70173 4.70195 
40 1 17.6791 3.45362 3.45357 
44 1 14.6423 0.416083 3.45437 
54 1 14.6423 3.45369 0.416321 
63 1 9.79721 5.26132 5.26133 
67 1 12.8347 8.29847 5.26129 
77 1 12.8347 5.2613 8.29853 
88 1 16.4898 3.35411 3.35415 
92 1 14.742 1.60615 3.3544 
102 1 14.7419 3.35405 1.60645 
111 1 10.9872 5.36091 5.36091 
115 1 12.7351 7.10846 5.36093 
125 1 12.7351 5.36091 7.10855 
5 1 14.9888 3.10666 14.9879 
14 1 12.4884 5.60566 12.4886 
21 1 14.0832 4.01217 14.0828 
30 1 13.3943 4.70108 13.3941 
37 1 17.6796 3.45363 14.6414 
47 1 14.6424 0.415696 14.6413 
51 1 14.6424 3.45367 17.6788 
62 1 9.79627 5.26124 12.8349 
72 1 12.8354 8.29243 12.8355 
76 1 12.8349 5.26132 9.79628 
85 1 16.4897 3.35393 14.7408 
95 1 14.7419 1.60577 14.7409 
99 1 14.7419 3.35395 16.4889 
110 1 10.9867 5.3607 12.7354 
120 1 12.734 7.10178 12.7347 
124 1 12.7354 5.36084 10.9868 
3 1 14.9887 14.9887 3.10746 
12 1 12.4884 12.4884 5.60688 
19 1 14.0831 14.0831 4.01282 
28 1 13.3942 13.3943 4.70161 
35 1 17.6797 14.6423 3.4544 
45 1 14.6423 17.6795 3.45438 
55 1 14.6424 14.6424 0.416436 
60 1 9.7968 12.8348 5.26129 
70 1 12.8345 9.79655 5.26124 
80 1 12.8353 12.8349 8.29351 
83 1 16.4897 14.742 3.3544 
93 1 14.742 16.4897 3.3545 
103 1 14.7419 14.7418 1.60652 
108 1 10.9868 12.7353 5.3607 
118 1 12.7347 10.9866 5.3608 
128 1 12.734 12.734 7.10266 
2 1 14.9904 14.9905 14.9896 
9 1 12.4957 12.4792 12.5058 
18 1 14.0872 14.0881 14.0872 
25 1 13.3998 13.3997 13.4016 
34 1 17.6795 14.6424 14.6413 
42 1 14.6424 17.6797 14.6413 
50 1 14.6424 14.6424 17.6793 
57 1 9.87153 12.904 12.862 
65 1 12.8385 9.78419 12.8365 
73 1 12.8362 12.8372 9.78608 
82 1 16.4893 14.7419 14.7409 
90 1 14.7418 16.4896 14.7409 
98 1 14.7418 14.7418 16.4892 
105 1 11.069 12.6453 12.7383 
113 1 12.7433 10.9774 12.7432 
121 1 12.7392 12.7401 10.9795 
129 2 9.70327 13.8146 12.152 
ITEM: TIMESTEP
33
ITEM: NUMBER OF ATOMS
129
ITEM: BOX BOUNDS pp pp pp
0.0000000000000000e+00 1.8762000000000000e+01
0.0000000000000000e+00 1.8762000000000000e+01
0.0000000000000000e+00 1.8760999999999999e+01
ITEM: ATOMS id type x y z 
1 1 3.10717 3.10718 3.10804 
10 1 5.60772 5.60758 5.60742 
17 1 4.01312 4.01296 4.01337 
26 1 4.70167 4.70161 4.70203 
33 1 0.416079 3.45363 3.45357 
41 1 3.45327 0.41609 3.45373 
49 1 3.45353 3.45362 0.41721 
58 1 8.29877 5.26134 5.26133 
66 1 5.26158 8.29845 5.26115 
74 1 5.26128 5.26129 8.29828 
81 1 1.6063 3.35381 3.35399 
89 1 3.35352 1.60572 3.35423 
97 1 3.354 3.35409 1.60682 
106 1 7.10881 5.36103 5.36096 
114 1 5.36152 7.10855 5.36102 
122 1 5.36102 5.36105 7.10834 
4 1 3.10716 3.10714 14.9883 
11 1 5.6074 5.60752 12.4882 
20 1 4.01274 4.01278 14.0828 
27 1 4.70163 4.70171 13.3939 
36 1 0.416219 3.45366 14.6417 
46 1 3.45369 0.416644 14.6416 
56 1 3.45362 3.45364 17.6794 
59 1 8.29846 5.26123 12.8348 
69 1 5.26098 8.29672 12.8349 
79 1 5.26128 5.26123 9.79677 
84 1 1.60609 3.3539 14.7416 
94 1 3.35387 1.60658 14.7416 
104 1 3.35412 3.35413 16.4894 
107 1 7.1085 5.36093 12.7351 
117 1 5.36094 7.10616 12.7346 
127 1 5.36076 5.3608 10.9867 
6 1 3.1073 14.9885 3.10751 
13 1 5.6074 12.4885 5.60776 
22 1 4.01284 14.083 4.01319 
29 1 4.70162 13.3943 4.70214 
38 1 0.416266 14.6423 3.4544 
48 1 3.45369 17.6793 3.45369 
52 1 3.45373 14.6422 0.416861 
61 1 8.29865 12.8348 5.26127 
71 1 5.26125 9.79698 5.26122 
75 1 5.2609 12.835 8.2966 
86 1 1.60615 14.742 3.3544 
96 1 3.35419 16.4893 3.35413 
100 1 3.3541 14.7419 1.60685 
109 1 7.10872 12.7352 5.36104 
119 1 5.36066 10.9869 5.36092 
123 1 5.361 12.7346 7.10596 
7 1 3.1054 14.9906 14.99 
16 1 5.57262 12.4845 12.4832 
23 1 4.0098 14.0868 14.0862 
32 1 4.69421 13.3959 13.3951 
39 1 0.415276 14.6422 14.6412 
43 1 3.45381 17.6805 14.6411 
53 1 3.45354 14.642 17.6798 
64 1 8.27422 12.8107 12.8364 
68 1 5.26276 9.79136 12.8374 
78 1 5.2626 12.8374 9.79066 
87 1 1.60528 14.7418 14.741 
91 1 3.3542 16.4904 14.7409 
101 1 3.35361 14.7419 16.4898 
112 1 7.09224 12.7257 12.7339 
116 1 5.35513 10.9833 12.7365 
126 1 5.35509 12.7368 10.983 
8 1 14.9884 3.10721 3.10746 
15 1 12.4882 5.60757 5.60762 
24 1 14.0827 4.01296 4.01305 
31 1 13.3938 4.70174 4.70194 
40 1 17.6793 3.45363 3.45358 
44 1 14.6423 0.416147 3.45436 
54 1 14.6424 3.45368 0.41639 
63 1 9.79728 5.26133 5.26134 
67 1 12.8347 8.2984 5.26129 
77 1 12.8347 5.2613 8.29849 
88 1 16.4895 3.35408 3.35412 
92 1 14.742 1.60615 3.35439 
102 1 14.7419 3.35404 1.60645 
111 1 10.9872 5.36093 5.36093 
115 1 12.7351 7.10843 5.36095 
125 1 12.7351 5.36093 7.10849 
5 1 14.9888 3.10663 14.9879 
14 1 12.4884 5.60568 12.4885 
21 1 14.0832 4.01217 14.0828 
30 1 13.3943 4.70105 13.3941 
37 1 17.6795 3.45363 14.6414 
47 1 14.6424 0.415765 14.6414 
51 1 14.6424 3.45366 17.6788 
62 1 9.79645 5.26126 12.8349 
72 1 12.8354 8.29224 12.8355 
76 1 12.8349 5.26134 9.79648 
85 1 16.4896 3.35392 14.7409 
95 1 14.7419 1.6058 14.741 
99 1 14.7419 3.35393 16.4889 
110 1 10.9866 5.3607 12.7354 
120 1 12.734 7.10162 12.7346 
124 1 12.7354 5.36084 10.9866 
3 1 14.9888 14.9887 3.10743 
12 1 12.4883 12.4883 5.60686 
19 1 14.0831 14.0831 4.01283 
28 1 13.3942 13.3943 4.70158 
35 1 17.6796 14.6423 3.45439 
45 1 14.6423 17.6795 3.45438 
55 1 14.6424 14.6424 0.416508 
60 1 9.79681 12.8348 5.26129 
70 1 12.8345 9.7966 5.26125 
80 1 12.8354 12.8349 8.29342 
83 1 16.4897 14.742 3.35438 
93 1 14.742 16.4896 3.35449 
103 1 14.7419 14.7418 1.60654 
108 1 10.9869 12.7353 5.36071 
118 1 12.7347 10.9866 5.36081 
128 1 12.7339 12.734 7.10255 
2 1 14.9905 14.9906 14.9897 
9 1 12.4958 12.479 12.5058 
18 1 14.0872 14.0881 14.0872 
25 1 13.3998 13.3997 13.4017 
34 1 17.6795 14.6424 14.6413 
42 1 14.6424 17.6797 14.6413 
50 1 14.6424 14.6424 17.6794 
57 1 9.87107 12.9046 12.8619 
65 1 12.8385 9.78443 12.8365 
73 1 12.8362 12.8372 9.78604 
82 1 16.4893 14.7419 14.7409 
90 1 14.7418 16.4896 14.7409 
98 1 14.7418 14.7418 16.4892 
105 1 11.0695 12.6451 12.7383 
113 1 12.7434 10.9771 12.7433 
121 1 12.7392 12.7401 10.9794 
129 2 9.70307 13.8148 12.152 
ITEM: TIMESTEP
40
ITEM: NUMBER OF ATOMS
129
ITEM: BOX BOUNDS pp pp pp
0.0000000000000000e+00 1.8762000000000000e+01
0.0000000000000000e+00 1.8762000000000000e+01
0.0000000000000000e+00 1.8760999999999999e+01
ITEM: ATOMS id type x y z 
1 1 3.10704 3.10705 3.1079 
10 1 5.60783 5.60769 5.60754 
17 1 4.01296 4.01286 4.01332 
26 1 4.70182 4.70171 4.70208 
33 1 0.416418 3.45356 3.45351 
41 1 3.45325 0.416091 3.4537 
49 1 3.45351 3.4536 0.417195 
58 1 8.29861 5.26138 5.26137 
66 1 5.26162 8.29828 5.26119 
74 1 5.26132 5.26133 8.29811 
81 1 1.60626 3.35375 3.35393 
89 1 3.35342 1.60609 3.35413 
97 1 3.3539 3.35398 1.6072 
106 1 7.10861 5.36112 5.36105 
114 1 5.3616 7.10832 5.36111 
122 1 5.36111 5.36114 7.10812 
4 1 3.10704 3.10705 14.9885 
11 1 5.60749 5.60759 12.488 
20 1 4.0128 4.01285 14.0827 
27 1 4.70155 4.70161 13.394 
36 1 0.416351 3.45362 14.6417 
46 1 3.45366 0.416809 14.6416 
56 1 3.45358 3.4536 17.6792 
59 1 8.29824 5.26126 12.8347 
69 1 5.26103 8.29647 12.8349 
79 1 5.26131 5.26127 9.79694 
84 1 1.60629 3.35382 14.7417 
94 1 3.35378 1.60683 14.7417 
104 1 3.35403 3.35404 16.4892 
107 1 7.10826 5.36101 12.735 
117 1 5.36102 7.10578 12.7344 
127 1 5.36084 5.36088 10.9869 
6 1 3.10718 14.9886 3.1074 
13 1 5.60752 12.4883 5.60786 
22 1 4.01284 14.083 4.01323 
29 1 4.70159 13.3943 4.70205 
38 1 0.4164 14.6423 3.45436 
48 1 3.45365 17.6792 3.45365 
52 1 3.4537 14.6423 0.417029 
61 1 8.29842 12.8348 5.2613 
71 1 5.26129 9.79716 5.26125 
75 1 5.26094 12.835 8.29645 
86 1 1.60634 14.7421 3.35432 
96 1 3.3541 16.4892 3.35404 
100 1 3.35401 14.742 1.60711 
109 1 7.1085 12.7351 5.36111 
119 1 5.36074 10.987 5.361 
123 1 5.36108 12.7345 7.10555 
7 1 3.10519 14.9908 14.9902 
16 1 5.57232 12.4842 12.483 
23 1 4.0096 14.087 14.0864 
32 1 4.69404 13.3958 13.3949 
39 1 0.415408 14.6422 14.6412 
43 1 3.4538 17.6804 14.6412 
53 1 3.45352 14.6421 17.6797 
64 1 8.27378 12.8099 12.8368 
68 1 5.2628 9.79124 12.8374 
78 1 5.26265 12.8375 9.7905 
87 1 1.60552 14.7419 14.7411 
91 1 3.3541 16.4903 14.741 
101 1 3.35352 14.742 16.4896 
112 1 7.09239 12.7245 12.7339 
116 1 5.35495 10.9838 12.7364 
126 1 5.35492 12.7367 10.9833 
8 1 14.9885 3.1071 3.10733 
15 1 12.4881 5.60766 5.60774 
24 1 14.0827 4.01293 4.01309 
31 1 13.3939 4.70176 4.70188 
40 1 17.6793 3.4536 3.45355 
44 1 14.6424 0.416373 3.45431 
54 1 14.6424 3.45363 0.416626 
63 1 9.79744 5.26137 5.26138 
67 1 12.8347 8.2982 5.26133 
77 1 12.8346 5.26133 8.29827 
88 1 16.4893 3.35398 3.35402 
92 1 14.7421 1.60628 3.35431 
102 1 14.742 3.35395 1.60658 
111 1 10.9874 5.36101 5.36102 
115 1 12.735 7.10817 5.36104 
125 1 12.735 5.36102 7.10822 
5 1 14.9889 3.1065 14.9881 
14 1 12.4882 5.6056 12.4884 
21 1 14.0833 4.01214 14.0828 
30 1 13.3944 4.70091 13.3942 
37 1 17.6794 3.45359 14.6414 
47 1 14.6424 0.415991 14.6414 
51 1 14.6424 3.45363 17.6786 
62 1 9.79658 5.2613 12.8349 
72 1 12.8355 8.2914 12.8356 
76 1 12.8349 5.26138 9.79661 
85 1 16.4894 3.35382 14.741 
95 1 14.742 1.60606 14.7411 
99 1 14.742 3.35384 16.4887 
110 1 10.9867 5.36075 12.7354 
120 1 12.7339 7.10064 12.7345 
124 1 12.7353 5.36087 10.9867 
3 1 14.9889 14.9888 3.10729 
12 1 12.4882 12.4882 5.60676 
19 1 14.0831 14.0831 4.01284 
28 1 13.3943 13.3944 4.70145 
35 1 17.6795 14.6423 3.45435 
45 1 14.6424 17.6794 3.45434 
55 1 14.6424 14.6424 0.416728 
60 1 9.79692 12.8348 5.26131 
70 1 12.8345 9.79671 5.26128 
80 1 12.8354 12.835 8.29295 
83 1 16.4895 14.7421 3.3543 
93 1 14.7421 16.4894 3.3544 
103 1 14.742 14.7419 1.6068 
108 1 10.987 12.7352 5.36077 
118 1 12.7347 10.9867 5.36087 
128 1 12.7339 12.7339 7.10197 
2 1 14.9909 14.991 14.9901 
9 1 12.4962 12.4781 12.506 
18 1 14.0874 14.0884 14.0874 
25 1 13.4001 13.3998 13.4021 
34 1 17.6795 14.6423 14.6413 
42 1 14.6424 17.6798 14.6413 
50 1 14.6424 14.6424 17.6794 
57 1 9.87197 12.907 12.861 
65 1 12.8387 9.78441 12.8367 
73 1 12.8363 12.8374 9.78561 
82 1 16.4892 14.742 14.741 
90 1 14.7419 16.4895 14.741 
98 1 14.7419 14.7419 16.4892 
105 1 11.0687 12.6451 12.7388 
113 1 12.7437 10.9767 12.7436 
121 1 12.7394 12.7402 10.9791 
129 2 9.70209 13.8161 12.152 
ITEM: TIMESTEP
50
ITEM: NUMBER OF ATOMS
129
ITEM: BOX BOUNDS pp pp pp
0.0000000000000000e+00 1.8762000000000000e+01
0.0000000000000000e+00 1.8762000000000000e+01
0.0000000000000000e+00 1.8760999999999999e+01
ITEM: ATOMS id type x y z 
1 1 3.10687 3.10681 3.10765 
10 1 5.60802 5.6078 5.60772 
17 1 4.01297 4.01289 4.01345 
26 1 4.70181 4.70171 4.70194 
33 1 0.41652 3.45343 3.45337 
41 1 3.45311 0.416336 3.45356 
49 1 3.45338 3.45347 0.417419 
58 1 8.29839 5.26151 5.2615 
66 1 5.26175 8.298 5.26132 
74 1 5.26144 5.26146 8.29786 
81 1 1.60655 3.35351 3.3537 
89 1 3.35319 1.60639 3.3539 
97 1 3.35365 3.35373 1.60748 
106 1 7.10831 5.36134 5.36127 
114 1 5.36181 7.10798 5.36133 
122 1 5.36135 5.36137 7.10778 
4 1 3.10683 3.1069 14.9887 
11 1 5.60764 5.60763 12.4879 
20 1 4.01278 4.01284 14.0827 
27 1 4.70147 4.70152 13.394 
36 1 0.416555 3.45348 14.6419 
46 1 3.45355 0.417134 14.6417 
56 1 3.45345 3.45347 17.679 
59 1 8.29794 5.26135 12.8346 
69 1 5.26121 8.29594 12.8349 
79 1 5.26142 5.26138 9.79709 
84 1 1.60657 3.35358 14.7419 
94 1 3.35353 1.60725 14.7419 
104 1 3.35379 3.3538 16.489 
107 1 7.10779 5.36122 12.7347 
117 1 5.36121 7.10523 12.7341 
127 1 5.36107 5.36109 10.9872 
6 1 3.10695 14.9888 3.10724 
13 1 5.6077 12.4881 5.60802 
22 1 4.01282 14.083 4.0132 
29 1 4.70152 13.3943 4.70191 
38 1 0.416586 14.6424 3.45422 
48 1 3.45352 17.679 3.45353 
52 1 3.45359 14.6424 0.41737 
61 1 8.29807 12.8347 5.26141 
71 1 5.2614 9.79737 5.26137 
75 1 5.26112 12.835 8.29603 
86 1 1.60661 14.7423 3.3541 
96 1 3.35387 16.4889 3.35381 
100 1 3.35376 14.7422 1.60753 
109 1 7.10809 12.7349 5.36133 
119 1 5.36097 10.9873 5.3612 
123 1 5.36127 12.7342 7.105 
7 1 3.10472 14.9914 14.9907 
16 1 5.57119 12.4833 12.4828 
23 1 4.00936 14.0872 14.0866 
32 1 4.69306 13.3957 13.3949 
39 1 0.415657 14.6423 14.6413 
43 1 3.45375 17.6804 14.6412 
53 1 3.45346 14.6421 17.6797 
64 1 8.2731 12.8076 12.8381 
68 1 5.26301 9.7915 12.8375 
78 1 5.26284 12.8376 9.79015 
87 1 1.60588 14.7422 14.7414 
91 1 3.35385 16.4903 14.7412 
101 1 3.35329 14.7423 16.4896 
112 1 7.0922 12.7206 12.7336 
116 1 5.35428 10.9841 12.7362 
126 1 5.35429 12.7367 10.9832 
8 1 14.9887 3.1069 3.10712 
15 1 12.4879 5.60781 5.60788 
24 1 14.0827 4.01294 4.01313 
31 1 13.394 4.70171 4.70183 
40 1 17.6791 3.45346 3.45341 
44 1 14.6425 0.416591 3.45417 
54 1 14.6425 3.4535 0.416851 
63 1 9.79764 5.2615 5.2615 
67 1 12.8346 8.29784 5.26143 
77 1 12.8345 5.26144 8.29789 
88 1 16.489 3.35374 3.35377 
92 1 14.7423 1.60661 3.35407 
102 1 14.7422 3.3537 1.60691 
111 1 10.9877 5.36125 5.36125 
115 1 12.7348 7.10772 5.36129 
125 1 12.7347 5.36126 7.10773 
5 1 14.9892 3.10626 14.9884 
14 1 12.488 5.60493 12.4882 
21 1 14.0834 4.01193 14.0829 
30 1 13.3946 4.70056 13.3944 
37 1 17.6792 3.45347 14.6415 
47 1 14.6425 0.416394 14.6415 
51 1 14.6425 3.4535 17.6785 
62 1 9.79653 5.26141 12.8348 
72 1 12.8357 8.2893 12.8357 
76 1 12.8348 5.26151 9.79651 
85 1 16.4892 3.35358 14.7412 
95 1 14.7423 1.6066 14.7413 
99 1 14.7423 3.3536 16.4884 
110 1 10.9868 5.36083 12.7352 
120 1 12.7336 7.09834 12.7342 
124 1 12.7352 5.36094 10.9868 
3 1 14.9892 14.9891 3.10707 
12 1 12.4881 12.4881 5.60627 
19 1 14.0832 14.0832 4.01268 
28 1 13.3945 13.3945 4.70117 
35 1 17.6793 14.6425 3.45421 
45 1 14.6425 17.6792 3.4542 
55 1 14.6425 14.6425 0.417121 
60 1 9.79697 12.8348 5.2614 
70 1 12.8344 9.79671 5.26138 
80 1 12.8355 12.835 8.29163 
83 1 16.4893 14.7424 3.35407 
93 1 14.7423 16.4892 3.35417 
103 1 14.7423 14.7422 1.60733 
108 1 10.9871 12.7351 5.36091 
118 1 12.7346 10.9868 5.36099 
128 1 12.7337 12.7336 7.10053 
2 1 14.9921 14.9922 14.9913 
9 1 12.4967 12.4759 12.5065 
18 1 14.0879 14.0891 14.0881 
25 1 13.4009 13.3999 13.4032 
34 1 17.6797 14.6423 14.6412 
42 1 14.6424 17.6802 14.6413 
50 1 14.6424 14.6424 17.6797 
57 1 9.87365 12.915 12.8582 
65 1 12.8394 9.78313 12.8374 
73 1 12.8362 12.8381 9.78442 
82 1 16.4893 14.7422 14.7412 
90 1 14.7422 16.4898 14.7412 
98 1 14.7421 14.7422 16.4894 
105 1 11.0685 12.6446 12.7401 
113 1 12.7448 10.9754 12.7445 
121 1 12.74 12.7404 10.9779 
129 2 9.69896 13.8204 12.1519 
ITEM: TIMESTEP
60
ITEM: NUMBER OF ATOMS
129
ITEM: BOX BOUNDS pp pp pp
0.0000000000000000e+00 1.8762000000000000e+01
0.0000000000000000e+00 1.8762000000000000e+01
0.0000000000000000e+00 1.8760999999999999e+01
ITEM: ATOMS id type x y z 
1 1 3.1068 3.10676 3.10763 
10 1 5.60801 5.6078 5.6077 
17 1 4.01298 4.01292 4.01336 
26 1 4.70184 4.70165 4.70195 
33 1 0.416434 3.45327 3.45321 
41 1 3.45296 0.416302 3.45341 
49 1 3.45323 3.45332 0.417369 
58 1 8.29845 5.26166 5.26165 
66 1 5.26189 8.29801 5.26147 
74 1 5.26158 5.26161 8.29788 
81 1 1.60648 3.35332 3.35352 
89 1 3.353 1.60637 3.3537 
97 1 3.35344 3.35352 1.60743 
106 1 7.10836 5.36152 5.36146 
114 1 5.36199 7.10799 5.36151 
122 1 5.36154 5.36156 7.1078 
4 1 3.10676 3.10695 14.9888 
11 1 5.60759 5.60755 12.4879 
20 1 4.01275 4.01277 14.0828 
27 1 4.70144 4.70141 13.394 
36 1 0.416485 3.45334 14.642 
46 1 3.45342 0.417245 14.6419 
56 1 3.45331 3.45333 17.6791 
59 1 8.29774 5.26147 12.8345 
69 1 5.26143 8.29601 12.8349 
79 1 5.26155 5.26152 9.79708 
84 1 1.60653 3.35339 14.7421 
94 1 3.35332 1.60737 14.7422 
104 1 3.35359 3.35359 16.4891 
107 1 7.10775 5.36139 12.7345 
117 1 5.36136 7.10517 12.7339 
127 1 5.36124 5.36123 10.987 
6 1 3.10687 14.9889 3.10727 
13 1 5.60763 12.4881 5.60789 
22 1 4.0128 14.083 4.01314 
29 1 4.70148 13.3943 4.7018 
38 1 0.416499 14.6426 3.45406 
48 1 3.45338 17.6791 3.45338 
52 1 3.45347 14.6425 0.41748 
61 1 8.29809 12.8346 5.26151 
71 1 5.26152 9.79716 5.26149 
75 1 5.26132 12.835 8.29558 
86 1 1.60655 14.7425 3.35392 
96 1 3.35367 16.489 3.35362 
100 1 3.35355 14.7424 1.60765 
109 1 7.10793 12.7347 5.3615 
119 1 5.36116 10.9872 5.36136 
123 1 5.36143 12.734 7.1048 
7 1 3.10446 14.9917 14.991 
16 1 5.56995 12.4835 12.4822 
23 1 4.00922 14.0873 14.0866 
32 1 4.69206 13.3958 13.3949 
39 1 0.415721 14.6423 14.6413 
43 1 3.45368 17.6807 14.6413 
53 1 3.45338 14.6422 17.68 
64 1 8.27276 12.8054 12.8396 