ITEM: TIMESTEP
0
ITEM: NUMBER OF ATOMS
49
ITEM: BOX BOUNDS pp pp pp
0.0000000000000000e+00 1.1000000000000000e+01
0.0000000000000000e+00 1.1002000000000001e+01
0.0000000000000000e+00 1.1000000000000000e+01
ITEM: ATOMS id type x y z 
10 1 4.603 4.603 4.603 
11 1 3.085 3.085 3.085 
12 1 3.796 3.796 3.796 
46 1 0.726 0.725 0.725 
47 1 2.26 2.259 2.26 
48 1 1.551 1.55 1.55 
19 1 4.546 4.545 6.226 
20 1 3.013 3.013 7.764 
21 1 3.721 3.721 7.053 
31 1 0.668 0.667 10.103 
32 1 2.187 2.187 8.589 
33 1 1.476 1.475 9.298 
16 1 4.546 6.225 4.546 
17 1 3.013 7.765 3.013 
18 1 3.721 7.053 3.722 
25 1 0.668 10.103 0.668 
26 1 2.188 8.589 2.188 
27 1 1.476 9.298 1.476 
4 1 4.608 6.169 6.169 
5 1 3.086 7.684 7.684 
6 1 3.799 6.974 6.974 
37 1 0.729 10.046 10.046 
38 1 2.259 8.509 8.508 
39 1 1.552 9.219 9.219 
13 1 6.225 4.546 4.546 
14 1 7.764 3.013 3.013 
15 1 7.053 3.721 3.722 
28 1 10.102 0.667 0.668 
29 1 8.589 2.187 2.188 
30 1 9.298 1.475 1.476 
1 1 6.168 4.608 6.169 
2 1 7.684 3.086 7.684 
3 1 6.974 3.799 6.974 
40 1 10.045 0.728 10.046 
41 1 8.508 2.259 8.508 
42 1 9.218 1.551 9.218 
7 1 6.169 6.169 4.608 
8 1 7.684 7.684 3.086 
9 1 6.974 6.974 3.799 
43 1 10.046 10.047 0.729 
44 1 8.508 8.509 2.259 
45 1 9.219 9.219 1.552 
22 1 6.229 6.229 6.229 
23 1 7.764 7.765 7.765 
24 1 7.055 7.056 7.055 
34 1 10.108 10.108 10.107 
35 1 8.59 8.59 8.59 
36 1 9.301 9.301 9.3 
49 2 8.821 10.52 10.029 
ITEM: TIMESTEP
10
ITEM: NUMBER OF ATOMS
49
ITEM: BOX BOUNDS pp pp pp
0.0000000000000000e+00 1.1000000000000000e+01
0.0000000000000000e+00 1.1002000000000001e+01
0.0000000000000000e+00 1.1000000000000000e+01
ITEM: ATOMS id type x y z 
10 1 4.60398 4.60444 4.60375 
11 1 3.08566 3.08553 3.08566 
12 1 3.79646 3.79663 3.79666 
46 1 0.731496 0.72739 0.729627 
47 1 2.26149 2.26117 2.26132 
48 1 1.55332 1.55107 1.55229 
19 1 4.54536 4.54493 6.22642 
20 1 3.01184 3.01204 7.76473 
21 1 3.72117 3.72091 7.05334 
31 1 0.693317 0.670138 10.1084 
32 1 2.18878 2.18992 8.58501 
33 1 1.48101 1.47648 9.30028 
16 1 4.54554 6.22546 4.54593 
17 1 3.01261 7.76486 3.01298 
18 1 3.72108 7.05331 3.72151 
25 1 0.666075 10.1031 0.68107 
26 1 2.18896 8.58719 2.1888 
27 1 1.47816 9.29891 1.47835 
4 1 4.60926 6.16848 6.16792 
5 1 3.0874 7.682 7.68202 
6 1 3.80185 6.97212 6.97187 
37 1 0.775971 10.0404 10.0432 
38 1 2.26546 8.50029 8.49945 
39 1 1.56183 9.21374 9.21401 
13 1 6.22588 4.5454 4.54526 
14 1 7.76444 3.01232 3.01272 
15 1 7.05273 3.7213 3.72155 
28 1 10.1095 0.664966 0.696814 
29 1 8.58435 2.19009 2.18974 
30 1 9.29959 1.47704 1.48256 
1 1 6.1659 4.61084 6.16684 
2 1 7.68431 3.08515 7.68367 
3 1 6.97318 3.80022 6.97327 
40 1 10.0241 0.787495 10.0265 
41 1 8.4973 2.27042 8.49433 
42 1 9.21133 1.58515 9.20542 
7 1 6.16842 6.16875 4.60885 
8 1 7.68269 7.6828 3.08657 
9 1 6.97273 6.97294 3.80103 
43 1 10.0674 10.0411 0.78631 
44 1 8.505 8.50706 2.25897 
45 1 9.22053 9.21702 1.55968 
22 1 6.23431 6.23518 6.23418 
23 1 7.76781 7.76804 7.77013 
24 1 7.05474 7.05545 7.05586 
34 1 10.1795 10.0654 10.1218 
35 1 8.5722 8.54586 8.55405 
36 1 9.25676 9.26571 9.25981 
49 2 8.71017 10.5448 10.0144 
ITEM: TIMESTEP
20
ITEM: NUMBER OF ATOMS
49
ITEM: BOX BOUNDS pp pp pp
0.0000000000000000e+00 1.1000000000000000e+01
0.0000000000000000e+00 1.1002000000000001e+01
0.0000000000000000e+00 1.1000000000000000e+01
ITEM: ATOMS id type x y z 
10 1 4.6035 4.60363 4.60323 
11 1 3.08808 3.08832 3.08811 
12 1 3.79982 3.79911 3.79987 
46 1 0.734384 0.741002 0.728455 
47 1 2.26586 2.2648 2.26766 
48 1 1.55791 1.55688 1.55297 
19 1 4.54315 4.54434 6.22824 
20 1 3.01134 3.01202 7.76409 
21 1 3.72029 3.72105 7.05335 
31 1 0.696182 0.652198 10.1135 
32 1 2.18634 2.19213 8.5875 
33 1 1.48982 1.46993 9.30185 
16 1 4.54626 6.22816 4.54406 
17 1 3.01367 7.76469 3.012 
18 1 3.7203 7.05235 3.72318 
25 1 0.673738 10.0966 0.678703 
26 1 2.19396 8.58727 2.19054 
27 1 1.47551 9.2939 1.48326 
4 1 4.60418 6.16623 6.16575 
5 1 3.08974 7.67926 7.67831 
6 1 3.80381 6.96809 6.96916 
37 1 0.784933 10.0614 10.0518 
38 1 2.26431 8.49787 8.49797 
39 1 1.57177 9.21553 9.21521 
13 1 6.22788 4.54686 4.54225 
14 1 7.76357 3.01323 3.01159 
15 1 7.0526 3.72028 3.7221 
28 1 10.118 0.662959 0.700956 
29 1 8.58373 2.19146 2.18767 
30 1 9.30444 1.47248 1.49357 
1 1 6.16149 4.60661 6.16363 
2 1 7.67386 3.09408 7.67316 
3 1 6.96483 3.80873 6.96245 
40 1 10.0206 0.805425 10.0345 
41 1 8.50015 2.27756 8.49196 
42 1 9.21556 1.5999 9.20863 
7 1 6.16747 6.16729 4.60299 
8 1 7.67914 7.68083 3.08837 
9 1 6.97062 6.96976 3.80175 
43 1 10.088 10.0548 0.808672 
44 1 8.49723 8.50069 2.26231 
45 1 9.22427 9.21395 1.57484 
22 1 6.23526 6.23854 6.23603 
23 1 7.76435 7.75551 7.764 
24 1 7.04512 7.04687 7.04289 
34 1 10.1622 10.084 10.1388 
35 1 8.57353 8.50997 8.53347 
36 1 9.19697 9.28157 9.24957 
49 2 8.7433 10.5109 9.99008 
ITEM: TIMESTEP
30
ITEM: NUMBER OF ATOMS
49
ITEM: BOX BOUNDS pp pp pp
0.0000000000000000e+00 1.1000000000000000e+01
0.0000000000000000e+00 1.1002000000000001e+01
0.0000000000000000e+00 1.1000000000000000e+01
ITEM: ATOMS id type x y z 
10 1 4.6029 4.60329 4.60313 
11 1 3.08819 3.08909 3.08882 
12 1 3.8013 3.79882 3.80079 
46 1 0.737659 0.748354 0.730348 
47 1 2.26887 2.26576 2.26912 
48 1 1.55761 1.5616 1.55423 
19 1 4.54061 4.54294 6.22839 
20 1 3.0094 3.01057 7.76531 
21 1 3.71761 3.72044 7.05533 
31 1 0.697238 0.652524 10.1147 
32 1 2.1872 2.19004 8.58945 
33 1 1.49004 1.46846 9.30352 
16 1 4.54326 6.22976 4.54261 
17 1 3.01225 7.76528 3.01218 
18 1 3.72169 7.05315 3.72093 
25 1 0.675455 10.0961 0.682553 
26 1 2.19353 8.58494 2.19357 
27 1 1.48084 9.29494 1.4817 
4 1 4.5957 6.16356 6.1642 
5 1 3.09062 7.67951 7.67904 
6 1 3.79912 6.96565 6.96624 
37 1 0.782226 10.0611 10.0512 
38 1 2.26455 8.4975 8.49891 
39 1 1.57493 9.21952 9.21561 
13 1 6.22904 4.54507 4.54029 
14 1 7.76454 3.01089 3.01079 
15 1 7.05344 3.72111 3.71797 
28 1 10.1251 0.667413 0.703088 
29 1 8.5849 2.18809 2.19006 
30 1 9.30807 1.47481 1.49249 
1 1 6.15734 4.59996 6.15941 
2 1 7.67565 3.09604 7.67278 
3 1 6.96034 3.80458 6.95893 
40 1 10.0281 0.812846 10.0421 
41 1 8.50328 2.28251 8.49352 
42 1 9.22193 1.60789 9.21124 
7 1 6.16594 6.16449 4.59456 
8 1 7.67952 7.68162 3.08847 
9 1 6.96722 6.9673 3.79754 
43 1 10.0939 10.0553 0.814923 
44 1 8.49733 8.50021 2.26251 
45 1 9.22866 9.21574 1.58185 
22 1 6.23318 6.24173 6.23357 
23 1 7.75882 7.74243 7.75218 
24 1 7.03775 7.03415 7.03689 
34 1 10.1623 10.1016 10.1495 
35 1 8.5802 8.49459 8.52597 
36 1 9.19649 9.28544 9.2505 
49 2 8.72715 10.5123 9.99205 
ITEM: TIMESTEP
40
ITEM: NUMBER OF ATOMS
49
ITEM: BOX BOUNDS pp pp pp
0.0000000000000000e+00 1.1000000000000000e+01
0.0000000000000000e+00 1.1002000000000001e+01
0.0000000000000000e+00 1.1000000000000000e+01
ITEM: ATOMS id type x y z 
10 1 4.60181 4.60015 4.60183 
11 1 3.09073 3.08857 3.0908 
12 1 3.80167 3.80226 3.80241 
46 1 0.743923 0.758185 0.735863 
47 1 2.27321 2.27121 2.27338 
48 1 1.56151 1.56794 1.55633 
19 1 4.53434 4.54001 6.23071 
20 1 3.00493 3.00849 7.76958 
21 1 3.71321 3.71654 7.05689 
31 1 0.702586 0.647369 10.1155 
32 1 2.18888 2.18662 8.59288 
33 1 1.49099 1.4648 9.30626 
16 1 4.53948 6.23137 4.53785 
17 1 3.0109 7.76676 3.00998 
18 1 3.72008 7.05479 3.72027 
25 1 0.680355 10.0944 0.681105 
26 1 2.19402 8.58446 2.19328 
27 1 1.48288 9.29707 1.48277 
4 1 4.58377 6.15882 6.1603 
5 1 3.08649 7.68017 7.68017 
6 1 3.7926 6.96553 6.96669 
37 1 0.771172 10.0644 10.0546 
38 1 2.26587 8.50267 8.50233 
39 1 1.57523 9.22327 9.21912 
13 1 6.23113 4.54287 4.53361 
14 1 7.76641 3.00734 3.00596 
15 1 7.05643 3.71803 3.71473 
28 1 10.1381 0.67704 0.708082 
29 1 8.58693 2.1848 2.1916 
30 1 9.31635 1.4751 1.4965 
1 1 6.14927 4.59004 6.15235 
2 1 7.67532 3.09732 7.66999 
3 1 6.95802 3.80035 6.9554 
40 1 10.044 0.82635 10.0538 
41 1 8.50764 2.29568 8.49362 
42 1 9.23378 1.62425 9.21711 
7 1 6.16183 6.15919 4.5832 
8 1 7.678 7.68158 3.08469 
9 1 6.96605 6.96648 3.79167 
43 1 10.1048 10.0575 0.819492 
44 1 8.49939 8.50151 2.26436 
45 1 9.238 9.21866 1.59323 
22 1 6.21572 6.23155 6.21919 
23 1 7.76387 7.72294 7.74408 
24 1 7.03536 7.0243 7.02959 
34 1 10.1452 10.1358 10.1633 
35 1 8.59212 8.47766 8.51805 
36 1 9.18562 9.2824 9.24426 
49 2 8.71295 10.4965 9.99627 
ITEM: TIMESTEP
50
ITEM: NUMBER OF ATOMS
49
ITEM: BOX BOUNDS pp pp pp
0.0000000000000000e+00 1.1000000000000000e+01
0.0000000000000000e+00 1.1002000000000001e+01
0.0000000000000000e+00 1.1000000000000000e+01
ITEM: ATOMS id type x y z 
10 1 4.60303 4.60463 4.60424 
11 1 3.09778 3.09325 3.09754 
12 1 3.80697 3.80779 3.8102 
46 1 0.765961 0.76888 0.764575 
47 1 2.28662 2.29045 2.28136 
48 1 1.57169 1.57922 1.56779 
19 1 4.51818 4.52875 6.22789 
20 1 2.99824 3.00326 7.77678 
21 1 3.70223 3.71265 7.05756 
31 1 0.700814 0.631308 10.1048 
32 1 2.19665 2.17925 8.59743 
33 1 1.50374 1.45581 9.31215 
16 1 4.52744 6.22403 4.52938 
17 1 3.01124 7.76926 3.0094 
18 1 3.71263 7.05292 3.71401 
25 1 0.681874 10.0888 0.657903 
26 1 2.19563 8.59046 2.19182 
27 1 1.48776 9.29789 1.47533 
4 1 4.56172 6.15645 6.15699 
5 1 3.07215 7.68751 7.68637 
6 1 3.7693 6.96684 6.97102 
37 1 0.736402 10.0588 10.0638 
38 1 2.26337 8.53092 8.52347 
39 1 1.55266 9.23536 9.23542 
13 1 6.23027 4.53509 4.51755 
14 1 7.76941 2.9988 2.99699 
15 1 7.05608 3.70687 3.70851 
28 1 10.1795 0.704896 0.710503 
29 1 8.59966 2.17674 2.19738 
30 1 9.34208 1.48015 1.50334 
1 1 6.13275 4.57327 6.13772 
2 1 7.67778 3.09875 7.66447 
3 1 6.95254 3.78852 6.94831 
40 1 10.1295 0.901457 10.0857 
41 1 8.54012 2.32679 8.5121 
42 1 9.27767 1.67296 9.23674 
7 1 6.1533 6.15113 4.56594 
8 1 7.67492 7.68233 3.06913 
9 1 6.96294 6.96434 3.77106 
43 1 10.1156 10.0698 0.817603 
44 1 8.52129 8.51644 2.27577 
45 1 9.26796 9.23188 1.60735 
22 1 6.19014 6.22099 6.20477 
23 1 7.79871 7.66298 7.71962 
24 1 7.03714 6.99088 7.01218 
34 1 10.046 10.2394 10.1669 
35 1 8.61409 8.42862 8.48959 
36 1 9.16193 9.26205 9.22554 
49 2 8.61752 10.3715 10.023 
ITEM: TIMESTEP
60
ITEM: NUMBER OF ATOMS
49
ITEM: BOX BOUNDS pp pp pp
0.0000000000000000e+00 1.1000000000000000e+01
0.0000000000000000e+00 1.1002000000000001e+01
0.0000000000000000e+00 1.1000000000000000e+01
ITEM: ATOMS id type x y z 
10 1 4.60196 4.60316 4.60312 
11 1 3.09608 3.09421 3.0969 
12 1 3.80901 3.80589 3.80956 
46 1 0.765006 0.764565 0.767425 
47 1 2.28479 2.28976 2.27956 
48 1 1.57243 1.57686 1.56894 
19 1 4.52048 4.53237 6.23014 
20 1 2.99958 3.00537 7.774 
21 1 3.70478 3.71313 7.05711 
31 1 0.705769 0.632437 10.1037 
32 1 2.1997 2.17985 8.59854 
33 1 1.50282 1.4547 9.30785 
16 1 4.52845 6.22709 4.53194 
17 1 3.00875 7.77013 3.00786 
18 1 3.7148 7.05276 3.7148 
25 1 0.681832 10.0885 0.654037 
26 1 2.19582 8.59198 2.19168 
27 1 1.48681 9.29614 1.47224 
4 1 4.55909 6.1575 6.16033 
5 1 3.07088 7.68867 7.68827 
6 1 3.76917 6.96973 6.97137 
37 1 0.734784 10.057 10.0646 
38 1 2.26142 8.52863 8.5219 
39 1 1.55464 9.23672 9.23675 
13 1 6.23239 4.53714 4.52247 
14 1 7.76787 2.99752 2.99999 
15 1 7.05602 3.70966 3.70593 
28 1 10.182 0.705411 0.712927 
29 1 8.60019 2.1767 2.19897 
30 1 9.34235 1.48355 1.50212 
1 1 6.13431 4.56965 6.13791 
2 1 7.67922 3.0981 7.66632 
3 1 6.95359 3.78919 6.94848 
40 1 10.1356 0.907751 10.0868 
41 1 8.5386 2.32934 8.50978 
42 1 9.28016 1.67471 9.23819 
7 1 6.15596 6.15098 4.56314 
8 1 7.67581 7.68296 3.06925 
9 1 6.96243 6.96389 3.77118 
43 1 10.1124 10.0727 0.816014 
44 1 8.52404 8.51692 2.2765 
45 1 9.26507 9.23213 1.60681 
22 1 6.1898 6.22092 6.20501 
23 1 7.79836 7.65782 7.71643 
24 1 7.03734 6.98654 7.00958 
34 1 10.0313 10.2479 10.1709 
35 1 8.6181 8.42777 8.48681 
36 1 9.15819 9.2575 9.22178 
49 2 8.61307 10.357 10.0291 
ITEM: TIMESTEP
70
ITEM: NUMBER OF ATOMS
49
ITEM: BOX BOUNDS pp pp pp
0.0000000000000000e+00 1.1000000000000000e+01
0.0000000000000000e+00 1.1002000000000001e+01
0.0000000000000000e+00 1.1000000000000000e+01
ITEM: ATOMS id type x y z 
10 1 4.60168 4.60345 4.60255 
11 1 3.09606 3.09391 3.09636 
12 1 3.80817 3.80711 3.80862 
46 1 0.765586 0.760827 0.769677 
47 1 2.28443 2.29019 2.27859 
48 1 1.57227 1.57362 1.57081 
19 1 4.52205 4.53477 6.2311 
20 1 3.0009 3.00563 7.77226 
21 1 3.70641 3.71527 7.05743 
31 1 0.708191 0.631949 10.1018 
32 1 2.20274 2.18037 8.59858 
33 1 1.50259 1.45408 9.30371 
16 1 4.52977 6.22834 4.53381 
17 1 3.00862 7.76929 3.00756 
18 1 3.71509 7.05407 3.71598 
25 1 0.682239 10.0869 0.649397 
26 1 2.19617 8.59351 2.19137 
27 1 1.4859 9.29288 1.46913 
4 1 4.55685 6.15974 6.16147 
5 1 3.06946 7.69036 7.6897 
6 1 3.76822 6.9721 6.97259 
37 1 0.736436 10.0575 10.0656 
38 1 2.25951 8.52882 8.52282 
39 1 1.55386 9.23654 9.23707 
13 1 6.23407 4.53842 4.52403 
14 1 7.76671 2.99651 3.00077 
15 1 7.0566 3.7109 3.70623 
28 1 10.1833 0.706699 0.713877 
29 1 8.60024 2.17681 2.20024 
30 1 9.34376 1.48676 1.5017 
1 1 6.13637 4.56716 6.13934 
2 1 7.6809 3.09835 7.66811 
3 1 6.95515 3.78738 6.94932 
40 1 10.1389 0.912223 10.0873 
41 1 8.53976 2.32987 8.51048 
42 1 9.28289 1.67669 9.23914 
7 1 6.15604 6.15199 4.56128 
8 1 7.67726 7.68356 3.06978 
9 1 6.9625 6.96426 3.76969 
43 1 10.1089 10.075 0.816587 
44 1 8.52582 8.51672 2.27759 
45 1 9.26342 9.23421 1.6056 
22 1 6.18785 6.21981 6.20405 
23 1 7.80031 7.65343 7.7141 
24 1 7.03815 6.9826 7.00721 
34 1 10.0228 10.2561 10.1748 
35 1 8.6201 8.42286 8.48045 
36 1 9.1561 9.25483 9.21955 
49 2 8.60187 10.3467 10.0358 
ITEM: TIMESTEP
80
ITEM: NUMBER OF ATOMS
49
ITEM: BOX BOUNDS pp pp pp
0.0000000000000000e+00 1.1000000000000000e+01
0.0000000000000000e+00 1.1002000000000001e+01
0.0000000000000000e+00 1.1000000000000000e+01
ITEM: ATOMS id type x y z 
10 1 4.59911 4.60853 4.59954 
11 1 3.09602 3.09644 3.09193 
12 1 3.80527 3.81398 3.80288 
46 1 0.773164 0.729814 0.786036 
47 1 2.28329 2.28335 2.27757 
48 1 1.56913 1.56324 1.57791 
19 1 4.53228 4.55007 6.23659 
20 1 3.01408 3.00972 7.76674 
21 1 3.71433 3.72435 7.05311 
31 1 0.721006 0.63066 10.0842 
32 1 2.21585 2.18171 8.58844 
33 1 1.51773 1.44788 9.28839 
16 1 4.53257 6.23909 4.5432 
17 1 3.00765 7.77126 3.00845 
18 1 3.71356 7.05736 3.71656 
25 1 0.679271 10.0633 0.620066 
26 1 2.19205 8.58922 2.18436 
27 1 1.49398 9.28752 1.45109 
4 1 4.54548 6.17803 6.17257 
5 1 3.06245 7.7035 7.70191 
6 1 3.75434 6.9863 6.97687 
37 1 0.738392 10.0673 10.0638 
38 1 2.24362 8.52633 8.52662 
39 1 1.5521 9.24265 9.2454 
13 1 6.24234 4.54425 4.53393 
14 1 7.76114 2.99102 3.00663 
15 1 7.05788 3.71679 3.70824 
28 1 10.2043 0.732389 0.723117 
29 1 8.60362 2.1916 2.20048 
30 1 9.34956 1.48741 1.51882 
1 1 6.14943 4.54798 6.14256 
2 1 7.69478 3.0949 7.67671 
3 1 6.9636 3.78446 6.96201 
40 1 10.1541 0.920497 10.09 
41 1 8.54971 2.33836 8.51704 
42 1 9.30271 1.69007 9.24495 
7 1 6.15259 6.15986 4.54352 
8 1 7.68655 7.68878 3.06777 
9 1 6.9732 6.96644 3.76724 
43 1 10.0819 10.093 0.809818 
44 1 8.53771 8.51863 2.28403 
45 1 9.24982 9.24949 1.60049 
22 1 6.17743 6.21096 6.20029 
23 1 7.82292 7.61826 7.69283 
24 1 7.0493 6.95597 6.99137 
34 1 9.93546 10.3019 10.2014 
35 1 8.65175 8.40116 8.44904 
36 1 9.13234 9.24289 9.20682 
49 2 8.53208 10.2722 10.0817 
ITEM: TIMESTEP
90
ITEM: NUMBER OF ATOMS
49
ITEM: BOX BOUNDS pp pp pp
0.0000000000000000e+00 1.1000000000000000e+01
0.0000000000000000e+00 1.1002000000000001e+01
0.0000000000000000e+00 1.1000000000000000e+01
ITEM: ATOMS id type x y z 
10 1 4.59808 4.61407 4.59907 
11 1 3.09534 3.1015 3.0899 
12 1 3.80846 3.80882 3.80689 
46 1 0.771367 0.736016 0.783011 
47 1 2.28302 2.28744 2.28022 
48 1 1.57661 1.5568 1.582 
19 1 4.52708 4.54767 6.23137 
20 1 3.01286 3.01058 7.76586 
21 1 3.71894 3.72363 7.05484 
31 1 0.718311 0.62664 10.0839 
32 1 2.21825 2.1778 8.58592 
33 1 1.51888 1.44988 9.29008 
16 1 4.53073 6.23572 4.53685 
17 1 3.00594 7.77099 3.00579 
18 1 3.71228 7.06098 3.71939 
25 1 0.680559 10.0633 0.621804 
26 1 2.19742 8.5909 2.18136 
27 1 1.48579 9.27943 1.45017 
4 1 4.54539 6.17796 6.17001 
5 1 3.05648 7.70168 7.69734 
6 1 3.76231 6.9872 6.98214 
37 1 0.742805 10.0726 10.0616 
38 1 2.24878 8.52885 8.53018 
39 1 1.54328 9.24182 9.243 
13 1 6.2386 4.54494 4.52932 
14 1 7.76084 2.99773 3.00451 
15 1 7.05607 3.71249 3.71393 
28 1 10.2088 0.730054 0.730944 
29 1 8.60246 2.18423 2.20601 
30 1 9.35662 1.49991 1.5133 
1 1 6.14638 4.55566 6.14405 
2 1 7.69325 3.10139 7.68191 
3 1 6.96491 3.77713 6.95197 
40 1 10.1489 0.910431 10.089 
41 1 8.5558 2.33864 8.52011 
42 1 9.304 1.68811 9.24679 
7 1 6.15638 6.15682 4.54892 
8 1 7.6942 7.68564 3.07366 
9 1 6.963 6.96953 3.76073 
43 1 10.0817 10.094 0.802703 
44 1 8.53164 8.52235 2.28166 
45 1 9.25592 9.24821 1.60492 
22 1 6.17978 6.20972 6.20061 
23 1 7.83575 7.61591 7.69147 
24 1 7.05434 6.96008 6.99246 
34 1 9.92564 10.2968 10.2044 
35 1 8.65784 8.40067 8.44888 
36 1 9.12545 9.24775 9.20964 
49 2 8.51576 10.2705 10.0804 
ITEM: TIMESTEP
100
ITEM: NUMBER OF ATOMS
49
ITEM: BOX BOUNDS pp pp pp
0.0000000000000000e+00 1.1000000000000000e+01
0.0000000000000000e+00 1.1002000000000001e+01
0.0000000000000000e+00 1.1000000000000000e+01
ITEM: ATOMS id type x y z 
10 1 4.59795 4.61276 4.5997 
11 1 3.09656 3.0994 3.09156 
12 1 3.80627 3.8146 3.80437 
46 1 0.773205 0.735213 0.784136 
47 1 2.28411 2.28523 2.28179 
48 1 1.57618 1.55915 1.58016 
19 1 4.52812 4.54819 6.23145 
20 1 3.0143 3.00977 7.76664 
21 1 3.71724 3.72408 7.05372 
31 1 0.718145 0.626543 10.0835 
32 1 2.21934 2.17671 8.58692 
33 1 1.51722 1.44864 9.28853 
16 1 4.52993 6.23705 4.53823 
17 1 3.00579 7.77211 3.00692 
18 1 3.713 7.05981 3.71714 
25 1 0.679139 10.0626 0.61922 
26 1 2.19635 8.58975 2.17974 
27 1 1.48597 9.27945 1.44899 
4 1 4.54883 6.17911 6.17034 
5 1 3.0589 7.70179 7.69864 
6 1 3.75907 6.98592 6.97937 
37 1 0.743322 10.0717 10.0639 
38 1 2.24693 8.52736 8.52963 
39 1 1.54632 9.24479 9.24278 
13 1 6.23836 4.54434 4.53026 
14 1 7.76167 2.99617 3.00536 
15 1 7.05568 3.71352 3.71207 
28 1 10.2114 0.732094 0.732142 
29 1 8.60239 2.18517 2.20662 
30 1 9.35824 1.50213 1.51427 
1 1 6.14626 4.55516 6.14278 
2 1 7.6936 3.1 7.67994 
3 1 6.96526 3.78082 6.95495 
40 1 10.1466 0.905482 10.0888 
41 1 8.55635 2.341 8.52081 
42 1 9.30349 1.68744 9.24625 
7 1 6.15384 6.15771 4.54815 
8 1 7.69131 7.68566 3.07259 
9 1 6.96607 6.96816 3.76462 
43 1 10.0842 10.0914 0.804418 
44 1 8.5326 8.52281 2.28376 
45 1 9.25441 9.24867 1.60295 
22 1 6.18065 6.21157 6.20135 
23 1 7.8397 7.61519 7.68872 
24 1 7.05683 6.95754 6.99295 
34 1 9.91955 10.2971 10.2053 
35 1 8.66085 8.40014 8.44861 
36 1 9.122 9.24776 9.20873 
49 2 8.50958 10.2721 10.0813 
ITEM: TIMESTEP
110
ITEM: NUMBER OF ATOMS
49
ITEM: BOX BOUNDS pp pp pp
0.0000000000000000e+00 1.1000000000000000e+01
0.0000000000000000e+00 1.1002000000000001e+01
0.0000000000000000e+00 1.1000000000000000e+01
ITEM: ATOMS id type x y z 
10 1 4.59469 4.61664 4.60109 
11 1 3.09717 3.10149 3.09282 
12 1 3.80341 3.82178 3.80381 
46 1 0.773463 0.744813 0.781901 
47 1 2.29046 2.28079 2.28755 
48 1 1.58035 1.55918 1.58133 
19 1 4.52931 4.55039 6.22996 
20 1 3.01934 3.00682 7.76824 
21 1 3.71662 3.72385 7.05197 
31 1 0.711138 0.617094 10.0776 
32 1 2.22266 2.16925 8.58762 
33 1 1.51537 1.44408 9.28506 
16 1 4.52965 6.24235 4.53843 
17 1 3.00677 7.77536 3.00451 
18 1 3.71104 7.06145 3.71544 
25 1 0.672097 10.0536 0.608712 
26 1 2.19378 8.58501 2.17284 
27 1 1.48319 9.27105 1.44053 
4 1 4.55781 6.1835 6.17079 
5 1 3.05773 7.69899 7.69619 
6 1 3.76188 6.98405 6.98193 
37 1 0.757855 10.0761 10.0639 
38 1 2.24446 8.52626 8.52754 
39 1 1.55493 9.25222 9.24243 
13 1 6.23646 4.54504 4.53038 
14 1 7.76124 2.99593 3.00807 
15 1 7.05435 3.71196 3.71268 
28 1 10.2275 0.73994 0.739948 
29 1 8.60764 2.18941 2.20724 
30 1 9.37082 1.50991 1.51903 
1 1 6.14438 4.55725 6.13934 
2 1 7.69549 3.10165 7.6761 
3 1 6.96711 3.79424 6.96219 
40 1 10.1334 0.881153 10.0871 
41 1 8.56293 2.34896 8.52349 
42 1 9.29984 1.68451 9.24548 
7 1 6.15037 6.15836 4.55181 
8 1 7.68782 7.68652 3.07438 
9 1 6.97122 6.96581 3.77239 
43 1 10.0869 10.0856 0.805929 
44 1 8.53306 8.52666 2.29016 
45 1 9.24828 9.24791 1.59978 
22 1 6.18314 6.21396 6.20559 
23 1 7.86642 7.60471 7.6771 
24 1 7.07597 6.95193 6.9876 
34 1 9.87807 10.2981 10.221 
35 1 8.67851 8.39295 8.44148 
36 1 9.09712 9.25591 9.20986 
49 2 8.46973 10.2766 10.0848 
ITEM: TIMESTEP
120
ITEM: NUMBER OF ATOMS
49
ITEM: BOX BOUNDS pp pp pp
0.0000000000000000e+00 1.1000000000000000e+01
0.0000000000000000e+00 1.1002000000000001e+01
0.0000000000000000e+00 1.1000000000000000e+01
ITEM: ATOMS id type x y z 
10 1 4.59358 4.62123 4.60144 
11 1 3.0964 3.10394 3.09279 
12 1 3.80625 3.81826 3.80616 
46 1 0.772015 0.744685 0.781364 
47 1 2.29077 2.27912 2.28701 
48 1 1.57981 1.56039 1.58099 
19 1 4.52746 4.55066 6.22976 
20 1 3.01931 3.00683 7.76686 
21 1 3.71968 3.72264 7.05388 
31 1 0.711001 0.614543 10.0748 
32 1 2.2232 2.16962 8.5872 
33 1 1.51624 1.44166 9.28269 
16 1 4.52995 6.24189 4.53911 
17 1 3.00606 7.77359 3.00405 
18 1 3.71366 7.06386 3.71603 
25 1 0.672055 10.0499 0.603555 
26 1 2.19323 8.58376 2.17115 
27 1 1.4826 9.27016 1.43841 
4 1 4.55603 6.18298 6.17272 
5 1 3.05657 7.69835 7.69826 
6 1 3.76219 6.98667 6.97967 
37 1 0.766596 10.078 10.0656 
38 1 2.24721 8.52798 8.52568 
39 1 1.5544 9.2491 9.24414 
13 1 6.23626 4.54543 4.53103 
14 1 7.76133 2.99586 3.00833 
15 1 7.05382 3.71319 3.71319 
28 1 10.2314 0.741916 0.741583 
29 1 8.60996 2.19113 2.20852 
30 1 9.37169 1.51094 1.52018 
1 1 6.14468 4.56018 6.14257 
2 1 7.69768 3.10991 7.68144 
3 1 6.96667 3.78505 6.95444 
40 1 10.1304 0.879007 10.0846 
41 1 8.56253 2.34966 8.52267 
42 1 9.30001 1.68354 9.24623 
7 1 6.15364 6.15591 4.55254 
8 1 7.69194 7.68557 3.07902 
9 1 6.96372 6.96836 3.768 
43 1 10.0825 10.0852 0.800216 
44 1 8.52902 8.52606 2.28866 
45 1 9.25276 9.2474 1.60562 
22 1 6.18509 6.21442 6.20595 
23 1 7.87448 7.60211 7.67554 
24 1 7.0807 6.95118 6.98589 
34 1 9.86279 10.3026 10.227 
35 1 8.68321 8.39261 8.44048 
36 1 9.0913 9.25894 9.21099 
49 2 8.45914 10.2751 10.0869 
ITEM: TIMESTEP
130
ITEM: NUMBER OF ATOMS
49
ITEM: BOX BOUNDS pp pp pp
0.0000000000000000e+00 1.1000000000000000e+01
0.0000000000000000e+00 1.1002000000000001e+01
0.0000000000000000e+00 1.1000000000000000e+01
ITEM: ATOMS id type x y z 
10 1 4.5948 4.61934 4.60277 
11 1 3.10075 3.09908 3.0944 
12 1 3.79887 3.82727 3.80506 
46 1 0.770798 0.746277 0.779606 
47 1 2.29251 2.27846 2.28581 
48 1 1.57768 1.56048 1.58255 
19 1 4.52839 4.55203 6.23123 
20 1 3.02121 3.00494 7.76736 
21 1 3.72001 3.72305 7.05426 
31 1 0.710006 0.607994 10.0697 
32 1 2.22376 2.16832 8.58624 
33 1 1.51609 1.43903 9.27986 
16 1 4.53145 6.24433 4.53998 
17 1 3.00776 7.77351 3.00205 
18 1 3.71132 7.06469 3.71829 
25 1 0.671932 10.0467 0.596059 
26 1 2.19435 8.58343 2.1699 
27 1 1.47967 9.26237 1.43364 
4 1 4.55853 6.18482 6.17328 
5 1 3.05558 7.69883 7.69616 
6 1 3.76463 6.98608 6.98234 
37 1 0.779238 10.0788 10.0689 
38 1 2.24597 8.52538 8.52553 
39 1 1.56271 9.25541 9.24499 
13 1 6.23682 4.54507 4.53132 
14 1 7.76188 2.99624 3.00848 
15 1 7.05442 3.7132 3.71333 
28 1 10.2365 0.744968 0.744233 
29 1 8.61348 2.19329 2.21014 
30 1 9.37452 1.5127 1.52182 
1 1 6.14487 4.55996 6.14161 
2 1 7.69918 3.10981 7.67905 
3 1 6.96824 3.79212 6.95923 
40 1 10.1283 0.87206 10.0818 
41 1 8.56315 2.35248 8.52402 
42 1 9.29862 1.68287 9.24504 
7 1 6.15065 6.15731 4.55307 
8 1 7.68683 7.68775 3.07768 
9 1 6.97089 6.96643 3.77424 
43 1 10.081 10.0831 0.796982 
44 1 8.53167 8.52614 2.29262 
45 1 9.24965 9.2474 1.60308 
22 1 6.1867 6.2136 6.20538 
23 1 7.88484 7.59673 7.66927 
24 1 7.08774 6.9473 6.98451 
34 1 9.83597 10.3112 10.237 
35 1 8.69067 8.39337 8.43976 
36 1 9.08107 9.26179 9.21112 
49 2 8.43737 10.2735 10.0902 
ITEM: TIMESTEP
140
ITEM: NUMBER OF ATOMS
49
ITEM: BOX BOUNDS pp pp pp
0.0000000000000000e+00 1.1000000000000000e+01
0.0000000000000000e+00 1.1002000000000001e+01
0.0000000000000000e+00 1.1000000000000000e+01
ITEM: ATOMS id type x y z 
10 1 4.59097 4.62454 4.6026 
11 1 3.09673 3.10376 3.09411 
12 1 3.80592 3.81942 3.80642 
46 1 0.769583 0.747421 0.78035 
47 1 2.29278 2.27729 2.28607 
48 1 1.57854 1.56073 1.58169 
19 1 4.52887 4.55182 6.23133 
20 1 3.02336 3.00427 7.76715 
21 1 3.71942 3.72426 7.05424 
31 1 0.709504 0.603879 10.0662 
32 1 2.22349 2.16751 8.58485 
33 1 1.51766 1.43736 9.27878 
16 1 4.53045 6.24521 4.54277 
17 1 3.00633 7.7739 3.00416 
18 1 3.71482 7.06395 3.71456 
25 1 0.670645 10.0415 0.591646 
26 1 2.19179 8.58032 2.16853 
27 1 1.4834 9.26342 1.43058 
4 1 4.55957 6.18546 6.17478 
5 1 3.05561 7.69857 7.69653 
6 1 3.76426 6.98642 6.98125 
37 1 0.789748 10.0822 10.0697 
38 1 2.24779 8.52754 8.52268 
39 1 1.566 9.25219 9.24993 
13 1 6.23526 4.54482 4.53124 
14 1 7.76183 2.99672 3.0088 
15 1 7.05511 3.71386 3.71414 
28 1 10.2403 0.746622 0.746899 
29 1 8.6155 2.19412 2.21224 
30 1 9.37574 1.5153 1.52122 
1 1 6.14513 4.56048 6.14128 
2 1 7.69987 3.11196 7.67985 
3 1 6.96921 3.79366 6.95899 
40 1 10.1245 0.866434 10.079 
41 1 8.56381 2.35329 8.52424 
42 1 9.29833 1.68229 9.24489 
7 1 6.15425 6.15522 4.5547 
8 1 7.69065 7.686 3.08102 
9 1 6.96427 6.9698 3.77265 
43 1 10.0786 10.0815 0.792437 
44 1 8.53076 8.52664 2.29353 
45 1 9.24914 9.24652 1.60331 
22 1 6.18875 6.21399 6.20622 
23 1 7.89223 7.59489 7.66755 
24 1 7.0934 6.94571 6.98324 
34 1 9.81754 10.3172 10.2433 
35 1 8.69474 8.39318 8.43843 
36 1 9.07532 9.26515 9.2128 
49 2 8.42151 10.2726 10.0922 
ITEM: TIMESTEP
150
ITEM: NUMBER OF ATOMS
49
ITEM: BOX BOUNDS pp pp pp
0.0000000000000000e+00 1.1000000000000000e+01
0.0000000000000000e+00 1.1002000000000001e+01
0.0000000000000000e+00 1.1000000000000000e+01
ITEM: ATOMS id type x y z 
10 1 4.59094 4.624 4.60323 
11 1 3.09764 3.10251 3.09455 
12 1 3.80467 3.8211 3.80634 
46 1 0.767565 0.749054 0.780391 
47 1 2.29246 2.27768 2.28621 
48 1 1.57987 1.56039 1.58147 
19 1 4.52784 4.55425 6.23148 
20 1 3.02273 3.00585 7.76708 
21 1 3.72321 3.72131 7.05421 
31 1 0.709553 0.602893 10.0633 
32 1 2.22455 2.16645 8.58401 
33 1 1.51715 1.43616 9.27645 
16 1 4.53169 6.2456 4.54136 
17 1 3.00834 7.77308 3.00182 
18 1 3.71168 7.06534 3.71841 
25 1 0.670763 10.0385 0.589842 
26 1 2.19326 8.57882 2.16671 
27 1 1.48115 9.26021 1.4307 
4 1 4.56158 6.18565 6.1764 
5 1 3.0556 7.69822 7.69592 
6 1 3.76498 6.98686 6.98066 
37 1 0.787074 10.0822 10.0725 
38 1 2.25112 8.52614 8.52591 
39 1 1.56602 9.25575 9.24499 
13 1 6.23463 4.54479 4.53109 
14 1 7.76236 2.99716 3.00918 
15 1 7.05484 3.71462 3.71489 
28 1 10.2428 0.748982 0.748782 
29 1 8.61637 2.19537 2.21201 
30 1 9.37964 1.51654 1.52436 
1 1 6.14605 4.56281 6.1418 
2 1 7.70132 3.11518 7.68092 
3 1 6.96888 3.79309 6.95823 
40 1 10.1225 0.861477 10.0773 
41 1 8.56431 2.35432 8.52442 
42 1 9.29803 1.6813 9.24463 
7 1 6.15254 6.15631 4.55569 
8 1 7.68784 7.68854 3.08117 
9 1 6.97009 6.96655 3.77566 
43 1 10.0761 10.0802 0.788954 
44 1 8.5313 8.52737 2.29414 
45 1 9.24911 9.24661 1.60252 
22 1 6.19106 6.21289 6.20705 
23 1 7.89967 7.59178 7.66604 
24 1 7.09783 6.94634 6.98099 
34 1 9.80882 10.3186 10.2464 
35 1 8.69812 8.39341 8.43741 
36 1 9.06777 9.26797 9.21399 
49 2 8.40953 10.2708 10.0934 
ITEM: TIMESTEP
160
ITEM: NUMBER OF ATOMS
49
ITEM: BOX BOUNDS pp pp pp
0.0000000000000000e+00 1.1000000000000000e+01
0.0000000000000000e+00 1.1002000000000001e+01
0.0000000000000000e+00 1.1000000000000000e+01
ITEM: ATOMS id type x y z 
10 1 4.59132 4.62513 4.60289 
11 1 3.0989 3.10204 3.09387 
12 1 3.80264 3.8216 3.80839 
46 1 0.767331 0.74886 0.779814 
47 1 2.29324 2.27708 2.28634 
48 1 1.57887 1.56129 1.58092 
19 1 4.5287 4.55438 6.23135 
20 1 3.02459 3.00431 7.76684 
21 1 3.72263 3.72349 7.05455 
31 1 0.708594 0.6017 10.0614 
32 1 2.22543 2.16573 8.58313 
33 1 1.51678 1.43491 9.27383 
16 1 4.53156 6.24587 4.54299 
17 1 3.00791 7.77251 3.00237 
18 1 3.71384 7.06512 3.71838 
25 1 0.669233 10.0357 0.58852 
26 1 2.19333 8.57692 2.16516 
27 1 1.48111 9.25834 1.42896 
4 1 4.56343 6.18617 6.17657 
5 1 3.05661 7.69868 7.69624 
6 1 3.76427 6.98614 6.98042 
37 1 0.780913 10.0825 10.0709 
38 1 2.25194 8.52857 8.52666 
39 1 1.56618 9.25617 9.24698 
13 1 6.23419 4.5446 4.53117 
14 1 7.76305 2.99812 3.01007 
15 1 7.05442 3.71443 3.71449 
28 1 10.2458 0.751686 0.750654 
29 1 8.61765 2.19742 2.21276 
30 1 9.38179 1.51755 1.52707 
1 1 6.14655 4.56336 6.14187 
2 1 7.70208 3.11678 7.68156 
3 1 6.97008 3.79486 6.95878 
40 1 10.1208 0.858379 10.0755 
41 1 8.56522 2.35531 8.52488 
42 1 9.29754 1.68034 9.24409 
7 1 6.15406 6.15594 4.55729 
8 1 7.68995 7.6885 3.08356 
9 1 6.96775 6.96785 3.7748 
43 1 10.0753 10.0791 0.787378 
44 1 8.53101 8.52794 2.29491 
45 1 9.24856 9.24623 1.60214 
22 1 6.19364 6.21354 6.20778 
23 1 7.90688 7.58968 7.66351 
24 1 7.10327 6.94512 6.98049 
34 1 9.80179 10.3186 10.2471 
35 1 8.70086 8.3929 8.43567 
36 1 9.05981 9.26994 9.21446 
49 2 8.40157 10.2696 10.0954 
ITEM: TIMESTEP
170
ITEM: NUMBER OF ATOMS
49
ITEM: BOX BOUNDS pp pp pp
0.0000000000000000e+00 1.1000000000000000e+01
0.0000000000000000e+00 1.1002000000000001e+01
0.0000000000000000e+00 1.1000000000000000e+01
ITEM: ATOMS id type x y z 
10 1 4.59071 4.6253 4.60331 
11 1 3.09854 3.10201 3.09457 
12 1 3.80347 3.8216 3.80745 
46 1 0.767394 0.748661 0.77951 
47 1 2.2933 2.27692 2.28622 
48 1 1.57876 1.56135 1.58076 
19 1 4.52876 4.55463 6.23163 
20 1 3.02501 3.00417 7.76673 
21 1 3.72271 3.72353 7.05477 
31 1 0.707858 0.601728 10.0608 
32 1 2.22551 2.16514 8.58281 
33 1 1.51674 1.43471 9.27326 
16 1 4.53153 6.24636 4.54387 
17 1 3.00774 7.77261 3.00285 
18 1 3.71434 7.06487 3.71726 
25 1 0.668497 10.035 0.588131 
26 1 2.19303 8.5765 2.16448 
27 1 1.48125 9.25761 1.42843 
4 1 4.56351 6.18619 6.1767 
5 1 3.05628 7.69862 7.69637 
6 1 3.76527 6.98702 6.98093 
37 1 0.779372 10.0823 10.0704 
38 1 2.25257 8.53007 8.52701 
39 1 1.56496 9.2549 9.24743 
13 1 6.23391 4.54461 4.5311 
14 1 7.76312 2.99828 3.01015 
15 1 7.05459 3.71472 3.71476 
28 1 10.2464 0.752057 0.751224 
29 1 8.61813 2.19766 2.21338 
30 1 9.38273 1.51851 1.52711 
1 1 6.14666 4.56358 6.14205 
2 1 7.70213 3.11695 7.68195 
3 1 6.97114 3.79599 6.95882 
40 1 10.1204 0.858039 10.0752 
41 1 8.56535 2.35568 8.52492 
42 1 9.29756 1.67994 9.24404 
7 1 6.15423 6.15604 4.55753 
8 1 7.68985 7.68862 3.08368 
9 1 6.96828 6.96804 3.77579 
43 1 10.0755 10.079 0.787653 
44 1 8.53104 8.52808 2.29514 
45 1 9.24824 9.24602 1.6022 