LAMMPS (3 Mar 2020)
Reading data file ...
  orthogonal box = (0 0 0) to (32.808 17.78 2.473)
  4 by 2 by 1 MPI processor grid
  reading atoms ...
  58 atoms
  read_data CPU = 0.0163954 secs
WARNING: Using 'neigh_modify every 1 delay 0 check yes' setting during minimization (../min.cpp:190)
WARNING: Total cutoff < 2*bond cutoff. May need to use an increased neighbor list skin. (../pair_reaxc.cpp:413)
Neighbor list info ...
  update every 1 steps, delay 0 steps, check yes
  max neighbors/atom: 2000, page size: 100000
  master list distance cutoff = 9.5
  ghost atom cutoff = 9.5
  binsize = 4.75, bins = 7 4 1
  2 neighbor lists, perpetual/occasional/extra = 2 0 0
  (1) pair reax/c, perpetual
      attributes: half, newton off, ghost
      pair build: half/bin/newtoff/ghost
      stencil: half/ghost/bin/3d/newtoff
      bin: standard
  (2) fix qeq/reax, perpetual, copy from (1)
      attributes: half, newton off, ghost
      pair build: copy
      stencil: none
      bin: none
Setting up cg style minimization ...
  Unit style    : real
  Current step  : 0
Per MPI rank memory allocation (min/avg/max) = 20.77 | 21.1 | 21.69 Mbytes
Step Temp E_pair E_mol TotEng Press 
       0            0   -11195.099            0   -11195.099    65942.128 
     183            0   -11268.591            0   -11268.591    22314.099 
Loop time of 5.72173 on 8 procs for 183 steps with 58 atoms

99.5% CPU use with 8 MPI tasks x no OpenMP threads

Minimization stats:
  Stopping criterion = energy tolerance
  Energy initial, next-to-last, final = 
        -11195.0989463     -11268.5905571     -11268.5905612
  Force two-norm initial, final = 497.941 12.8678
  Force max component initial, final = 262.575 4.09147
  Final line search alpha, max atom move = 0.00057751 0.00236286
  Iterations, force evaluations = 183 1016

MPI task timing breakdown:
Section |  min time  |  avg time  |  max time  |%varavg| %total
---------------------------------------------------------------
Pair    | 4.1911     | 4.4223     | 4.7406     |   7.3 | 77.29
Neigh   | 0          | 0          | 0          |   0.0 |  0.00
Comm    | 0.02306    | 0.34024    | 0.56947    |  26.2 |  5.95
Output  | 0.0004082  | 0.00057276 | 0.00085638 |   0.0 |  0.01
Modify  | 0.94833    | 0.94879    | 0.94922    |   0.0 | 16.58
Other   |            | 0.00981    |            |       |  0.17

Nlocal:    7.25 ave 11 max 3 min
Histogram: 1 0 3 0 0 0 0 2 0 2
Nghost:    727.5 ave 759 max 704 min
Histogram: 1 1 0 2 2 0 0 1 0 1
Neighs:    1155.62 ave 1743 max 472 min
Histogram: 1 0 3 0 0 0 1 1 0 2

Total # of neighbors = 9245
Ave neighs/atom = 159.397
Neighbor list builds = 0
Dangerous builds = 0
WARNING: Using 'neigh_modify every 1 delay 0 check yes' setting during minimization (../min.cpp:190)
WARNING: Total cutoff < 2*bond cutoff. May need to use an increased neighbor list skin. (../pair_reaxc.cpp:413)
Setting up cg style minimization ...
  Unit style    : real
  Current step  : 183
Per MPI rank memory allocation (min/avg/max) = 20.77 | 21.1 | 21.69 Mbytes
Step Temp E_pair E_mol TotEng Press 
     183            0   -11268.591            0   -11268.591    22314.099 
     185            0   -11268.594            0   -11268.594    22755.166 
Loop time of 0.0716531 on 8 procs for 2 steps with 58 atoms

99.5% CPU use with 8 MPI tasks x no OpenMP threads

Minimization stats:
  Stopping criterion = energy tolerance
  Energy initial, next-to-last, final = 
        -11268.5905612     -11268.5943021     -11268.5943371
  Force two-norm initial, final = 12.8678 42.4551
  Force max component initial, final = 4.09147 18.9239
  Final line search alpha, max atom move = 0.0243535 0.460863
  Iterations, force evaluations = 2 12

MPI task timing breakdown:
Section |  min time  |  avg time  |  max time  |%varavg| %total
---------------------------------------------------------------
Pair    | 0.053402   | 0.056172   | 0.059666   |   0.7 | 78.39
Neigh   | 0          | 0          | 0          |   0.0 |  0.00
Comm    | 0.00027911 | 0.0037632  | 0.0065184  |   2.8 |  5.25
Output  | 0          | 0          | 0          |   0.0 |  0.00
Modify  | 0.011549   | 0.011558   | 0.011564   |   0.0 | 16.13
Other   |            | 0.0001597  |            |       |  0.22

Nlocal:    7.25 ave 12 max 3 min
Histogram: 1 0 3 0 0 1 1 0 1 1
Nghost:    727.5 ave 760 max 703 min
Histogram: 1 1 0 2 2 0 0 1 0 1
Neighs:    1153.12 ave 1904 max 472 min
Histogram: 1 0 3 0 0 1 1 0 1 1

Total # of neighbors = 9225
Ave neighs/atom = 159.052
Neighbor list builds = 0
Dangerous builds = 0
WARNING: Using 'neigh_modify every 1 delay 0 check yes' setting during minimization (../min.cpp:190)
WARNING: Total cutoff < 2*bond cutoff. May need to use an increased neighbor list skin. (../pair_reaxc.cpp:413)
Setting up cg style minimization ...
  Unit style    : real
  Current step  : 185
WARNING: Energy due to 3 extra global DOFs will be included in minimizer energies
Per MPI rank memory allocation (min/avg/max) = 20.77 | 21.1 | 21.69 Mbytes
Step Temp E_pair E_mol TotEng Press Volume 
     185            0   -11268.594            0   -11268.594    22755.166    1442.5658 
     316            0   -11269.191            0   -11269.191    225.05466    1443.9486 
Loop time of 1.24722 on 8 procs for 131 steps with 58 atoms

99.5% CPU use with 8 MPI tasks x no OpenMP threads

Minimization stats:
  Stopping criterion = energy tolerance
  Energy initial, next-to-last, final = 
        -11268.5943371      -11269.191048     -11269.1911403
  Force two-norm initial, final = 872.283 18.2596
  Force max component initial, final = 694.995 13.4976
  Final line search alpha, max atom move = 7.96619e-06 0.000107524
  Iterations, force evaluations = 131 240

MPI task timing breakdown:
Section |  min time  |  avg time  |  max time  |%varavg| %total
---------------------------------------------------------------
Pair    | 0.98543    | 1.0367     | 1.1032     |   3.1 | 83.12
Neigh   | 0          | 0          | 0          |   0.0 |  0.00
Comm    | 0.0050275  | 0.071423   | 0.1224     |  11.8 |  5.73
Output  | 0.00025664 | 0.00032093 | 0.00043904 |   0.0 |  0.03
Modify  | 0.1327     | 0.13283    | 0.13299    |   0.0 | 10.65
Other   |            | 0.005925   |            |       |  0.48

Nlocal:    7.25 ave 12 max 3 min
Histogram: 1 0 3 0 0 1 1 0 1 1
Nghost:    727.5 ave 760 max 703 min
Histogram: 1 1 0 2 2 0 0 1 0 1
Neighs:    1153.12 ave 1904 max 472 min
Histogram: 1 0 3 0 0 1 1 0 1 1

Total # of neighbors = 9225
Ave neighs/atom = 159.052
Neighbor list builds = 0
Dangerous builds = 0
WARNING: Using 'neigh_modify every 1 delay 0 check yes' setting during minimization (../min.cpp:190)
WARNING: Total cutoff < 2*bond cutoff. May need to use an increased neighbor list skin. (../pair_reaxc.cpp:413)
Setting up cg style minimization ...
  Unit style    : real
  Current step  : 316
Per MPI rank memory allocation (min/avg/max) = 20.77 | 21.1 | 21.69 Mbytes
Step Temp E_pair E_mol TotEng Press 
     316            0   -11269.191            0   -11269.191    225.05466 
     331            0   -11269.567            0   -11269.567    19007.552 
Loop time of 0.541996 on 8 procs for 15 steps with 58 atoms

99.5% CPU use with 8 MPI tasks x no OpenMP threads

Minimization stats:
  Stopping criterion = energy tolerance
  Energy initial, next-to-last, final = 
        -11269.1911403     -11269.5669557     -11269.5669925
  Force two-norm initial, final = 9.96638 38.7667
  Force max component initial, final = 3.05057 21.6844
  Final line search alpha, max atom move = 0.000143959 0.00312166
  Iterations, force evaluations = 15 96

MPI task timing breakdown:
Section |  min time  |  avg time  |  max time  |%varavg| %total
---------------------------------------------------------------
Pair    | 0.39815    | 0.41712    | 0.44789    |   2.2 | 76.96
Neigh   | 0          | 0          | 0          |   0.0 |  0.00
Comm    | 0.0021235  | 0.03285    | 0.051686   |   7.8 |  6.06
Output  | 4.1337e-05 | 5.3121e-05 | 8.1272e-05 |   0.0 |  0.01
Modify  | 0.091032   | 0.091078   | 0.091118   |   0.0 | 16.80
Other   |            | 0.0008965  |            |       |  0.17

Nlocal:    7.25 ave 12 max 3 min
Histogram: 1 0 3 0 0 1 1 0 1 1
Nghost:    724.5 ave 760 max 703 min
Histogram: 2 1 0 2 1 0 0 1 0 1
Neighs:    1152.62 ave 1902 max 472 min
Histogram: 1 0 3 0 0 1 1 0 1 1

Total # of neighbors = 9221
Ave neighs/atom = 158.983
Neighbor list builds = 0
Dangerous builds = 0
WARNING: Using 'neigh_modify every 1 delay 0 check yes' setting during minimization (../min.cpp:190)
WARNING: Total cutoff < 2*bond cutoff. May need to use an increased neighbor list skin. (../pair_reaxc.cpp:413)
Setting up cg style minimization ...
  Unit style    : real
  Current step  : 331
WARNING: Energy due to 3 extra global DOFs will be included in minimizer energies
Per MPI rank memory allocation (min/avg/max) = 20.77 | 21.1 | 21.69 Mbytes
Step Temp E_pair E_mol TotEng Press Volume 
     331            0   -11269.567            0   -11269.567    19007.552    1443.9486 
     382            0    -11269.73            0    -11269.73    141.50289    1444.5565 
Loop time of 0.488852 on 8 procs for 51 steps with 58 atoms

99.5% CPU use with 8 MPI tasks x no OpenMP threads

Minimization stats:
  Stopping criterion = energy tolerance
  Energy initial, next-to-last, final = 
        -11269.5669925     -11269.7301009     -11269.7302001
  Force two-norm initial, final = 729.658 13.1693
  Force max component initial, final = 576.886 4.62445
  Final line search alpha, max atom move = 5.14469e-06 2.37914e-05
  Iterations, force evaluations = 51 93

MPI task timing breakdown:
Section |  min time  |  avg time  |  max time  |%varavg| %total
---------------------------------------------------------------
Pair    | 0.38375    | 0.40222    | 0.43288    |   2.2 | 82.28
Neigh   | 0          | 0          | 0          |   0.0 |  0.00
Comm    | 0.0019959  | 0.032593   | 0.050926   |   7.8 |  6.67
Output  | 9.9947e-05 | 0.000123   | 0.00017093 |   0.0 |  0.03
Modify  | 0.0515     | 0.051547   | 0.051604   |   0.0 | 10.54
Other   |            | 0.002369   |            |       |  0.48

Nlocal:    7.25 ave 12 max 3 min
Histogram: 1 1 2 0 0 0 2 0 1 1
Nghost:    724.5 ave 759 max 703 min
Histogram: 2 1 0 2 1 0 0 1 0 1
Neighs:    1151.12 ave 1898 max 472 min
Histogram: 1 1 2 0 0 0 1 1 1 1

Total # of neighbors = 9209
Ave neighs/atom = 158.776
Neighbor list builds = 0
Dangerous builds = 0
WARNING: Using 'neigh_modify every 1 delay 0 check yes' setting during minimization (../min.cpp:190)
WARNING: Total cutoff < 2*bond cutoff. May need to use an increased neighbor list skin. (../pair_reaxc.cpp:413)
Setting up cg style minimization ...
  Unit style    : real
  Current step  : 382
Per MPI rank memory allocation (min/avg/max) = 20.77 | 21.1 | 21.69 Mbytes
Step Temp E_pair E_mol TotEng Press 
     382            0    -11269.73            0    -11269.73    141.50289 
     456            0   -11271.004            0   -11271.004    3503.4316 
Loop time of 2.66197 on 8 procs for 74 steps with 58 atoms

99.5% CPU use with 8 MPI tasks x no OpenMP threads

Minimization stats:
  Stopping criterion = energy tolerance
  Energy initial, next-to-last, final = 
        -11269.7302001     -11271.0042787     -11271.0043359
  Force two-norm initial, final = 11.5215 20.1199
  Force max component initial, final = 4.19339 13.3294
  Final line search alpha, max atom move = 0.000233472 0.00311204
  Iterations, force evaluations = 74 475

MPI task timing breakdown:
Section |  min time  |  avg time  |  max time  |%varavg| %total
---------------------------------------------------------------
Pair    | 1.9506     | 2.0432     | 2.1996     |   5.1 | 76.76
Neigh   | 0          | 0          | 0          |   0.0 |  0.00
Comm    | 0.0111     | 0.16709    | 0.25915    |  17.7 |  6.28
Output  | 0.00017177 | 0.00021439 | 0.00031094 |   0.0 |  0.01
Modify  | 0.44702    | 0.44726    | 0.44755    |   0.0 | 16.80
Other   |            | 0.004159   |            |       |  0.16

Nlocal:    7.25 ave 12 max 3 min
Histogram: 1 1 2 0 0 0 2 0 1 1
Nghost:    724.5 ave 759 max 703 min
Histogram: 2 1 0 2 1 0 0 1 0 1
Neighs:    1150.62 ave 1896 max 472 min
Histogram: 1 1 2 0 0 0 1 1 1 1

Total # of neighbors = 9205
Ave neighs/atom = 158.707
Neighbor list builds = 0
Dangerous builds = 0
WARNING: Total cutoff < 2*bond cutoff. May need to use an increased neighbor list skin. (../pair_reaxc.cpp:413)
Setting up Verlet run ...
  Unit style    : real
  Current step  : 0
  Time step     : 0.25
Per MPI rank memory allocation (min/avg/max) = 19.64 | 19.98 | 20.56 Mbytes
Step Temp TotEng KinEng PotEng Press 
       0          300   -11220.032    50.971852   -11271.004    5116.4107 
     200    250.03263   -11199.144    42.482088   -11241.626    84349.359 
     400    317.99294   -11171.163    54.028964   -11225.191   -1097.7505 
     600    313.29752   -11164.955    53.231182   -11218.186    -72062.53 
     800    311.49191   -11170.165    52.924398   -11223.089   -16853.782 
    1000    300.17417   -11157.699    51.001444   -11208.701   -2163.5764 
    1200    322.51715   -11166.778    54.797655   -11221.576   -6762.5923 
    1400    355.02906   -11177.392    60.321629   -11237.714   -39806.685 
    1600    294.40787   -11179.934    50.021715   -11229.956   -30849.076 
    1800    300.02237   -11167.734    50.975652    -11218.71    -29031.08 
    2000    273.00767   -11173.976    46.385688   -11220.361    23397.247 
    2200    331.01312   -11162.696    56.241173   -11218.937   -90208.055 
    2400    328.59996   -11162.795    55.831161   -11218.626   -11865.188 
    2600    274.62077   -11179.291    46.659764   -11225.951   -43986.041 
    2800    353.54607   -11168.588     60.06966   -11228.657   -59276.586 
    3000    320.30272   -11174.121    54.421409   -11228.543    -17742.75 
    3200    260.74084   -11184.681    44.301478   -11228.982    3708.9534 
    3400     359.6315   -11171.632    61.103611   -11232.736    69828.247 
    3600    345.11337   -11165.707    58.636892   -11224.344   -65656.188 
    3800    235.83142   -11182.098    40.069214   -11222.167    67011.977 
    4000    271.68773    -11168.39    46.161422   -11214.552    8668.3913 
    4200    326.76168   -11174.676    55.518826   -11230.195   -28969.506 
    4400    290.15261   -11182.336    49.298719   -11231.634    9129.5695 
    4600    312.78291   -11172.706    53.143747    -11225.85     15779.99 
    4800    285.99813   -11178.658    48.592848   -11227.251   -39098.961 
    5000    340.53112   -11171.206    57.858339   -11229.065   -54638.636 
    5200    310.13054   -11162.378    52.693093   -11215.071    33509.911 
    5400    246.53496   -11185.375    41.887811   -11227.263    9079.2871 
    5600    314.94885    -11171.29    53.511754   -11224.802    58165.308 
    5800    321.60353   -11173.671    54.642425   -11228.313    76970.214 
    6000     206.7223   -11187.885    35.123395   -11223.008    10082.424 
    6200    304.12137   -11170.935    51.672098   -11222.607      465.775 
    6400    250.21017   -11180.149    42.512252   -11222.662    39941.363 
    6600    323.13668   -11164.235    54.902917   -11219.138    76357.135 
    6800    277.71061   -11170.742    47.184748   -11217.927   -55149.168 
    7000    290.85508   -11176.526    49.418073   -11225.945   -109455.07 
    7200    304.81136    -11165.79    51.789331   -11217.579   -3114.8371 
    7400    326.79198     -11160.6    55.523975   -11216.124    39425.193 
    7600    283.00645   -11170.417    48.084543   -11218.502    4662.5458 
    7800    315.36733   -11174.207    53.582856   -11227.789    26115.064 
    8000    267.00503   -11187.247    45.365803   -11232.613   -16699.733 
    8200    292.74594   -11178.648    49.739343   -11228.387    43810.968 
    8400    300.14238   -11171.876    50.996042   -11222.872    26379.205 
    8600    233.84506   -11187.233    39.731719   -11226.964   -39901.258 
    8800    293.71896   -11171.103    49.904664   -11221.008   -8587.4819 
    9000    343.23822   -11167.337    58.318292   -11225.655   -961.89876 
    9200    288.08592   -11186.841    48.947577   -11235.788    8285.0316 
    9400    300.99698   -11175.653    51.141246   -11226.794   -38778.309 
    9600    359.86046   -11163.014    61.142514   -11224.157   -86957.154 
    9800    333.32508   -11178.726    56.633988    -11235.36   -337.12728 
   10000    328.30654   -11164.422    55.781307   -11220.203    31054.361 
   10200    290.21638   -11168.814    49.309554   -11218.123   -27549.487 
   10400     278.3893   -11175.648    47.300061   -11222.948    13575.973 
   10600    344.30024   -11161.033    58.498735   -11219.531    18233.119 
   10800    309.87587   -11177.641    52.649822   -11230.291   -48235.902 
   11000    286.48599   -11179.924    48.675738     -11228.6   -55069.932 
   11200    336.02837   -11160.853    57.093294   -11217.947    3556.2785 
   11400    299.10882   -11172.419    50.820435    -11223.24   -54532.753 
   11600    315.87661   -11158.512    53.669386   -11212.182     -4143.49 
   11800    289.99892   -11161.897    49.272606   -11211.169    18097.874 
   12000     284.4594   -11179.154    48.331409   -11227.485   -13411.438 
   12200    265.38322   -11176.935    45.090248   -11222.025    100346.98 
   12400    312.72975   -11172.352    53.134715   -11225.487   -27560.213 
   12600    371.34313   -11163.532     63.09349   -11226.626   -54468.375 
   12800    363.55748   -11155.281    61.770661   -11217.052   -62595.259 
   13000    306.76584   -11175.826     52.12141   -11227.948    78126.591 
   13200    346.04825   -11162.983    58.795733   -11221.779    19812.214 
   13400    314.40387   -11163.849    53.419159   -11217.269   -34406.052 
   13600    313.02715   -11168.575    53.185245    -11221.76   -62963.705 
   13800    312.02434   -11176.018    53.014862   -11229.032    23287.416 
   14000    261.60045   -11191.204    44.447532   -11235.652   -41281.729 
   14200    320.75714   -11169.374    54.498618   -11223.873    34828.547 
   14400    285.61708   -11170.313    48.528106   -11218.841   -48732.041 
   14600    299.71928   -11184.729    50.924156   -11235.653    23423.929 
   14800    271.22405   -11181.933     46.08264   -11228.016   -35252.108 
   15000    338.26264   -11170.535     57.47291   -11228.008   -17073.987 
   15200    255.69051   -11184.074    43.443396   -11227.517    18527.531 
   15400    316.99996   -11165.432    53.860251   -11219.292    24904.138 
   15600    296.03418   -11169.983    50.298034   -11220.281    36139.646 
   15800    281.32881   -11177.041    47.799501   -11224.841    15828.914 
   16000    262.08298   -11181.203    44.529515   -11225.732     24201.32 
   16200    298.05409    -11175.38     50.64123   -11226.021    26724.301 
   16400    265.16592   -11187.482    45.053327   -11232.535   -34486.958 
   16600    310.57884   -11171.857    52.769262   -11224.627    -7496.744 
   16800    308.11563   -11164.873    52.350747   -11217.224    40415.133 
   17000    229.62455   -11178.969    39.014628   -11217.983    64679.862 
   17200      313.268   -11175.614    53.226167    -11228.84   -2121.7293 
   17400    328.37093   -11166.679    55.792248   -11222.472    32939.095 
   17600    278.41377   -11183.266    47.304219    -11230.57    57668.534 
   17800    293.36925   -11172.335    49.845246   -11222.181   -8183.5584 
   18000    309.09264   -11169.225    52.516748   -11221.742     8496.119 
   18200     283.0601   -11168.045    48.093659   -11216.138   -8083.1663 
   18400    339.53084   -11151.953    57.688386   -11209.642   -41592.551 
   18600    299.99224   -11166.431    50.970534   -11217.402   -21805.851 
   18800    284.89875   -11177.686    48.406057   -11226.092    -72317.33 
   19000    331.85188   -11177.632    56.383684   -11234.016    14067.664 
   19200    315.32035   -11165.115    53.574874    -11218.69   -77264.646 
   19400    267.35122   -11179.485    45.424623   -11224.909       -55129 
   19600    320.92683   -11167.642    54.527449   -11222.169    17093.256 
   19800    356.23197   -11166.147    60.526011   -11226.673    1179.9757 
   20000    277.00588   -11179.408    47.065009   -11226.473   -52012.858 
   20200    306.65179   -11171.025    52.102033   -11223.127   -62971.692 
   20400    333.10456   -11148.175    56.596521   -11204.771   -37780.452 
   20600     284.4856   -11169.623     48.33586   -11217.959    -80212.54 
   20800    283.77857   -11179.094    48.215731    -11227.31   -29411.874 
   21000    276.01882   -11171.587    46.897301   -11218.484    24778.932 
   21200    314.38944   -11167.973    53.416706    -11221.39   -33318.635 
   21400    247.27679   -11180.111    42.013852   -11222.124   -50199.855 
   21600    301.63322   -11175.126    51.249346   -11226.375   -57581.742 
   21800    275.06575   -11166.906    46.735369   -11213.641     576.8971 
   22000    370.88777   -11159.004    63.016121    -11222.02    12658.809 
   22200    296.05038   -11171.448    50.300787   -11221.749   -7147.9288 
   22400    265.60272   -11179.975    45.127542   -11225.102    11813.601 
   22600    330.41127   -11161.719    56.138914   -11217.858    -85880.98 
   22800    304.17644   -11172.466    51.681454   -11224.148   -52482.837 
   23000    309.90898   -11173.953    52.655448   -11226.608    19954.364 
   23200    361.15845   -11158.993     61.36305   -11220.356   -13740.128 
   23400    291.71105   -11166.748    49.563508   -11216.311   -42575.061 
   23600    297.64365   -11174.751    50.571494   -11225.323   -1958.9757 
   23800    341.98996   -11157.122    58.106206   -11215.228   -55429.909 
   24000    287.53082   -11174.221    48.853262   -11223.075    8787.5848 
   24200    231.71208   -11179.945    39.369312   -11219.314    5089.7692 
   24400    322.43496   -11163.299    54.783691   -11218.083    15549.239 
   24600    302.32638   -11175.497    51.367119   -11226.864   -15788.541 
   24800    298.23642   -11175.991    50.672209   -11226.664    10987.616 
   25000    330.08049   -11163.232    56.082713   -11219.315   -53695.233 
   25200    296.49388   -11173.044     50.37614    -11223.42   -34413.083 
   25400    287.50664   -11183.353    48.849152   -11232.202   -3978.0506 
   25600    276.83824   -11169.901    47.036526   -11216.938    27127.301 
   25800    286.05244   -11176.559    48.602075   -11225.161   -48264.876 
   26000    296.72023   -11170.746    50.414599   -11221.161   -25767.825 
   26200    350.76834   -11162.573    59.597706   -11222.171   -3207.6669 
   26400    305.77524   -11178.301    51.953101   -11230.254    49472.594 
   26600    341.10012   -11158.845    57.955017     -11216.8      11656.9 
   26800     319.6985   -11172.648    54.318748   -11226.967   -59766.945 
   27000    272.10051    -11177.09    46.231556   -11223.321    11153.839 
   27200    332.02604   -11163.586    56.413274       -11220   -54091.294 
   27400     367.4322   -11163.952    62.428999   -11226.381   -29185.157 
   27600    281.49715    -11177.26    47.828103   -11225.089    26874.175 
   27800     302.5323     -11165.5    51.402106   -11216.902   -6191.2856 
   28000    291.60809   -11185.904    49.546014    -11235.45   -10810.977 
   28200    303.25866   -11175.039    51.525518   -11226.564   -36054.127 
   28400    336.64229   -11168.032    57.197604    -11225.23    30801.254 
   28600    282.24786   -11173.199    47.955654   -11221.154   -37172.862 
   28800    280.00736   -11177.063    47.574978   -11224.638     91826.93 
   29000    322.51081   -11166.372    54.796577   -11221.168   -13789.463 
   29200    315.24763   -11170.328    53.562519    -11223.89   -39906.824 
   29400    233.41191   -11179.418    39.658124   -11219.076    30310.657 
   29600    306.34762    -11171.28    52.050352   -11223.331   -47345.454 
   29800    335.83656   -11172.542    57.060705   -11229.603    1558.8775 
   30000    282.98251   -11175.149    48.080475   -11223.229    11813.216 
   30200    351.16593   -11158.527    59.665259   -11218.192   -9051.7286 
   30400    272.75287   -11177.006    46.342396   -11223.348   -9510.1529 
   30600    316.88884   -11175.789    53.841369   -11229.631   -10932.526 
   30800    319.42637   -11175.534    54.272512   -11229.807   -153.09784 
   31000    262.40645   -11184.241    44.584476   -11228.826   -9222.8326 
   31200     262.8557   -11164.469    44.660806    -11209.13    -22800.06 
   31400    288.14188   -11168.764    48.957084   -11217.721    13256.244 
   31600    251.74675   -11187.422    42.773328   -11230.195   -25793.278 
   31800    312.90691   -11177.202    53.164815   -11230.366    -71045.11 
   32000    277.26696   -11169.399    47.109368   -11216.508     8665.996 
   32200    273.73614   -11182.271     46.50946   -11228.781   -13544.237 
   32400    308.53996   -11158.414    52.422843   -11210.837   -24007.738 
   32600    304.97702   -11171.414    51.817479   -11223.231    122126.44 
   32800    286.74149   -11176.052     48.71915   -11224.771    84480.917 
   33000    308.03214   -11175.331    52.336562   -11227.667    28823.808 
   33200    302.23146    -11167.56     51.35099   -11218.911   -28287.611 
   33400    310.43918   -11181.023    52.745534   -11233.768   -38639.307 
   33600    321.83093   -11178.008    54.681062   -11232.689    60026.205 
   33800    301.60427   -11170.822    51.244427   -11222.066    3776.3675 
   34000    268.00929   -11171.523    45.536432    -11217.06    77139.403 
   34200    316.80546   -11159.041    53.827203   -11212.868    20806.585 
   34400     290.6574   -11162.993    49.384486   -11212.377   -71722.582 
   34600    289.40967   -11176.551     49.17249   -11225.724    14195.789 
   34800    341.96798   -11171.816    58.102471   -11229.918    3565.6643 
   35000    318.97314   -11161.515    54.195505    -11215.71    4263.1576 
   35200    258.62792   -11177.362    43.942479   -11221.305   -43659.689 
   35400    281.11873   -11173.739    47.763807   -11221.503    28289.494 
   35600    353.38822   -11160.745     60.04284   -11220.787   -92575.419 
   35800    285.70647   -11173.436    48.543293   -11221.979   -13878.034 
   36000    326.34309   -11179.687    55.447705   -11235.135   -12895.725 
   36200    334.25894   -11163.174    56.792657   -11219.967   -32756.565 
   36400    248.64714   -11180.237    42.246684   -11222.483   -7715.3063 
   36600    310.23468   -11179.375    52.710786   -11232.085   -9102.9623 
   36800    290.25142   -11171.308    49.315507   -11220.624    31778.148 
   37000    314.63532   -11159.266    53.458483   -11212.724    7544.2754 
   37200    282.12244   -11178.323    47.934344   -11226.257    9828.7155 
   37400    307.92538   -11173.186    52.318423   -11225.504    3395.8386 
   37600    298.64502   -11160.149    50.741632   -11210.891    25445.372 
   37800    311.94052    -11173.97     53.00062   -11226.971    261.11558 
   38000    282.23305   -11177.031    47.953137   -11224.984   -17438.879 
   38200    344.90491   -11158.188    58.601473   -11216.789    11560.154 
   38400    303.03863   -11172.815    51.488134   -11224.303   -55297.484 
   38600    283.05311   -11176.557    48.092471   -11224.649   -32704.225 
   38800     282.5305   -11179.842    48.003677   -11227.846    44875.312 
   39000    304.80491   -11173.175    51.788236   -11224.963   -8626.2035 
   39200    376.81023   -11157.561    64.022384   -11221.583   -16879.915 
   39400    299.21643   -11172.227    50.838718   -11223.066    46928.212 
   39600    253.81883   -11177.029    43.125387   -11220.155    25232.753 
   39800    354.86636   -11160.053    60.293986   -11220.347     20622.84 
   40000    323.96331    -11174.95    55.043366   -11229.993    18336.622 
   40200    277.04512   -11180.715    47.071676   -11227.787   -62142.566 
   40400    367.92006   -11160.815    62.511889   -11223.326   -1300.0733 
   40600    278.86641   -11182.043    47.381124   -11229.424   -17346.249 
   40800    296.93003   -11176.619    50.450245   -11227.069   -46931.424 
   41000     342.2376   -11162.589    58.148281   -11220.737   -31253.334 
   41200    283.18279   -11178.577    48.114505   -11226.692    38563.459 
   41400    254.33993   -11178.468    43.213923   -11221.682   -11047.854 
   41600    314.99109   -11172.843    53.518931   -11226.362   -7832.5028 
   41800    302.25868    -11177.21    51.355616   -11228.566   -34366.667 
   42000    248.04621   -11183.451    42.144583   -11225.596     18486.95 
   42200    315.51483     -11163.7    53.607917   -11217.308    34325.483 
   42400    320.67633   -11173.427    54.484889   -11227.912   -13672.203 
   42600    274.65094   -11188.395     46.66489    -11235.06   -14773.507 
   42800    293.23538   -11186.337    49.822502   -11236.159    -19988.49 
   43000    275.59186   -11172.401    46.824759   -11219.226   -53329.667 
   43200    354.36518   -11159.244    60.208832   -11219.453    23784.369 
   43400    318.36232   -11170.531    54.091724   -11224.623    17742.076 
   43600    299.78626   -11181.068    50.935535   -11232.003    19481.766 
   43800    298.11115   -11175.085    50.650925   -11225.736    16976.216 
   44000    302.25103   -11166.512    51.354315   -11217.867    38044.211 
   44200    265.73863   -11184.537    45.150634   -11229.688    -6703.289 
   44400    302.56023   -11180.534    51.406851   -11231.941   -10865.268 
   44600    331.61693   -11165.622    56.343764   -11221.966    90996.493 
   44800    271.21417   -11179.451    46.080961   -11225.532   -63168.845 
   45000    311.71591   -11177.424    52.962458   -11230.387    2343.9664 
   45200    335.85728   -11171.737    57.064225   -11228.801    36834.092 
   45400    260.97778   -11181.764    44.341736   -11226.106   -19828.328 
   45600     330.9107   -11168.645    56.223771   -11224.869   -14632.364 
   45800    360.38305   -11162.657    61.231306   -11223.888   -17503.871 
   46000    304.15184   -11174.987    51.677276   -11226.664   -11595.062 
   46200    324.49441   -11166.626    55.133604   -11221.759    13044.754 
   46400    425.89929   -11142.736    72.362919   -11215.099    -8512.691 
   46600    326.84222   -11167.538    55.532511   -11223.071    43667.118 
   46800    299.49409   -11180.919    50.885894   -11231.805    10307.026 
   47000    298.67995   -11168.405    50.747567   -11219.153    76276.969 
   47200    298.25433   -11163.203    50.675252   -11213.878    11513.738 
   47400    248.42949   -11172.423    42.209704   -11214.632    10885.511 
   47600    291.75102   -11171.632    49.570299   -11221.202   -42977.165 
   47800    286.50704   -11170.356    48.679315   -11219.035    104919.43 
   48000    349.00368    -11157.01    59.297879   -11216.307    94521.923 
   48200    260.79991   -11176.831    44.311515   -11221.143   -2441.0087 
   48400      290.755   -11176.379    49.401069    -11225.78    56305.447 
   48600    331.62601   -11158.878    56.345306   -11215.223    4498.6612 
   48800    274.34831   -11168.445    46.613471   -11215.059    4981.4622 
   49000    283.53674   -11172.793    48.174642   -11220.968   -5513.4557 
   49200     281.0261   -11171.431    47.748069   -11219.179    40630.073 
   49400    326.33146   -11160.052     55.44573   -11215.498   -3520.0912 
   49600    299.55405   -11175.395    50.896083   -11226.291   -12089.482 
   49800    290.01955   -11177.056    49.276112   -11226.332    -40727.82 
   50000    361.98749   -11156.275    61.503909   -11217.779    10452.801 
   50200    264.83348   -11167.803    44.996842     -11212.8   -54329.844 
   50400    300.36985   -11180.228    51.034692   -11231.263    8731.3127 
   50600    255.82651   -11187.318    43.466503   -11230.784    72698.769 
   50800    303.37479    -11167.23    51.545249   -11218.775   -19881.993 
   51000     294.4438   -11178.871    50.027819   -11228.898    5981.9475 
   51200    234.57757   -11180.403    39.856177   -11220.259    20890.164 
   51400    316.71766   -11164.668    53.812285    -11218.48    8.5258716 
   51600    299.31354   -11176.001    50.855219   -11226.857    41704.047 
   51800    323.64358   -11159.804    54.989042   -11214.793    30211.014 
   52000    327.96219   -11171.767    55.722801    -11227.49   -10031.273 
   52200    332.15118   -11176.674    56.434536   -11233.109   -28141.889 
   52400     292.9147   -11163.658    49.768015   -11213.426   -13322.203 
   52600    258.24643   -11181.035    43.877662   -11224.913    8572.2339 
   52800    292.59122   -11173.254    49.713055   -11222.967    33299.758 
   53000    332.81097   -11164.314    56.546638    -11220.86   -20411.363 
   53200    249.76172   -11181.247    42.436058   -11223.684   -23131.247 
   53400    346.42593   -11170.821    58.859903   -11229.681   -9308.7833 
   53600    326.52898     -11171.5    55.479289   -11226.979    21421.655 
   53800    224.92407   -11191.886    38.215988   -11230.102    33164.856 
   54000    277.88538    -11178.78    47.214441   -11225.995    12292.775 
   54200    308.84129   -11165.367    52.474042   -11217.841    119624.04 
   54400    291.54863   -11174.342    49.535911   -11223.878   -60991.324 
   54600    265.19749   -11179.004    45.058691   -11224.062   -45995.592 
   54800    316.95522   -11166.878    53.852648    -11220.73    71668.194 
   55000    313.19888    -11169.21    53.214422   -11222.424   -27469.564 
   55200    287.84919   -11174.808    48.907354   -11223.715   -105522.56 
   55400    323.20441   -11171.537    54.914424   -11226.451   -451.11318 
   55600    291.32774   -11180.033    49.498381   -11229.532    19649.603 
   55800    294.18893   -11168.887    49.984515   -11218.872   -53130.792 
   56000    309.70871   -11165.202    52.621422   -11217.823    31833.953 
   56200    288.82093   -11174.842    49.072458   -11223.914   -20853.163 
   56400    280.79229   -11172.249    47.708344   -11219.958    36162.488 
   56600     342.6705   -11157.583    58.221834   -11215.805   -12477.746 
   56800    343.55065   -11176.419    58.371376   -11234.791    -7807.633 
   57000    316.32114   -11171.276    53.744915   -11225.021    34573.795 
   57200    296.12643   -11166.781    50.313708   -11217.095    9585.5348 
   57400    339.81643   -11179.149    57.736909   -11236.886    22089.192 
   57600    305.07248   -11174.098    51.833697   -11225.931    71658.536 
   57800    275.42456   -11168.913    46.796333   -11215.709   -18076.777 
   58000    256.14553   -11167.096    43.520706   -11210.617    94460.288 
   58200    326.74256   -11160.843    55.515579   -11216.359    -40263.39 
   58400    311.51627   -11176.624    52.928537   -11229.553    6553.2744 
   58600    270.74374   -11190.226    46.001032   -11236.227   -38179.337 
   58800    273.80476    -11176.27    46.521118   -11222.791   -97024.392 
   59000    351.93837   -11165.604    59.796502   -11225.401    7290.3425 
   59200    323.77613   -11180.961    55.011563   -11235.973    15573.651 
   59400    312.77893   -11160.735    53.143071   -11213.879    38261.374 
   59600    265.44825   -11167.334    45.101297   -11212.436    52207.185 
   59800    282.23462   -11177.921    47.953404   -11225.874    53412.956 
   60000     309.0683   -11180.349    52.512612   -11232.862   -57612.902 
   60200    322.24712   -11170.474    54.751775   -11225.226   -33158.893 
   60400    270.28845   -11174.788    45.923675   -11220.711   -33849.641 
   60600    322.80768   -11161.174    54.847017   -11216.021    20505.489 
   60800    277.29739   -11182.061    47.114538   -11229.175   -36184.011 
   61000    268.91729   -11176.779    45.690707    -11222.47   -7817.1726 
   61200    315.94115   -11169.366    53.680351   -11223.046    59265.937 
   61400     337.3427   -11160.395    57.316608   -11217.711   -29875.698 
   61600    274.39456   -11174.876    46.621329   -11221.497    42722.757 
   61800    303.60993   -11171.737    51.585201   -11223.322   -43551.099 
   62000    288.43721   -11166.792    49.007262     -11215.8   -4959.4132 
   62200    261.47971   -11183.423    44.427018    -11227.85   -5834.8011 
   62400     287.8659   -11172.478    48.910194   -11221.388   -26030.191 
   62600     310.0629   -11171.924    52.681601   -11224.606    9593.6512 
   62800     257.5945   -11186.681    43.766896   -11230.448   -36697.969 
   63000    280.88221   -11173.127    47.723621    -11220.85    23271.417 
   63200    315.86428   -11175.584    53.667292   -11229.251    27401.034 
   63400    253.88297    -11185.62    43.136284   -11228.757    -25326.13 
   63600    320.27622   -11168.255    54.416907   -11222.672   -67872.463 
   63800    294.57174    -11175.21    50.049557    -11225.26    33083.853 
   64000    254.16311   -11188.865    43.183881   -11232.049    2372.7817 
   64200    304.98395    -11169.97    51.818656   -11221.788   -11797.011 
   64400    353.63507   -11170.508    60.084781   -11230.593   -30352.664 
   64600    270.11303   -11176.769    45.893872   -11222.663    924.03486 
   64800    354.91272   -11161.946    60.301862   -11222.248   -1028.5169 
   65000    271.30839     -11176.1     46.09697   -11222.197    -6546.694 
   65200    327.09369    -11170.63    55.575237   -11226.205    7843.1451 
   65400    290.53646   -11178.097    49.363938   -11227.461   -6702.1818 
   65600    258.61414   -11189.622    43.940139   -11233.562    9310.3615 
   65800    297.29625   -11172.687    50.512469     -11223.2   -38115.196 
   66000     313.7655    -11164.71    53.310695    -11218.02    29614.128 
   66200    301.53835   -11176.142    51.233227   -11227.375   -30358.076 
   66400    301.12463   -11176.401    51.162933   -11227.563    34480.829 
   66600     355.9538   -11168.385    60.478748   -11228.864   -7880.6287 
   66800    265.55107   -11189.717    45.118765   -11234.835   -3294.4684 
   67000    280.61285   -11179.057    47.677856   -11226.735    13807.002 
   67200    318.27079   -11171.337    54.076171   -11225.414    61441.708 
   67400    262.98553   -11180.825    44.682864   -11225.508    27417.959 
   67600    299.16713   -11177.902    50.830343   -11228.732   -3863.5717 
   67800    324.07227   -11173.071     55.06188   -11228.133   -6178.8726 
   68000      257.106   -11184.875    43.683897   -11228.558    28301.295 
   68200    312.26198   -11173.178    53.055238   -11226.233   -77210.271 
   68400     340.8831   -11161.816    57.918144   -11219.734   -62070.629 
   68600    293.57821    -11178.13    49.880749   -11228.011    -65155.17 
   68800    260.48203    -11178.17    44.257505   -11222.428   -22874.459 
   69000    315.80854   -11165.815     53.65782   -11219.473   -32544.221 
   69200     300.0907   -11172.759    50.987262   -11223.747   -38048.526 
   69400     341.3475   -11173.247    57.997047   -11231.244    55884.569 
   69600    287.35724   -11177.517    48.823769    -11226.34    11352.368 
   69800    193.47643   -11194.226    32.872839   -11227.099   -19563.611 
   70000    286.83242    -11175.86    48.734599   -11224.594    -35988.51 
   70200    386.46475   -11166.921    65.662747   -11232.584   -15155.237 
   70400    260.71203   -11180.609    44.296584   -11224.905    18851.499 
   70600    294.83294   -11171.119    50.093936   -11221.213   -43093.354 
   70800     334.6296   -11171.991    56.855635   -11228.846   -35059.215 
   71000    267.04861   -11175.161    45.373208   -11220.534    27279.486 
   71200    347.24538   -11163.698    58.999134   -11222.697    18911.599 
   71400    247.34939   -11175.668    42.026188   -11217.694    20822.016 
   71600    329.74842   -11168.834    56.026291    -11224.86   -7830.1321 
   71800    353.25304   -11152.777    60.019873   -11212.797   -15479.904 
   72000    294.09464   -11172.788    49.968495   -11222.757    42097.288 
   72200    289.76514   -11177.284    49.232886   -11226.517    2529.0749 
   72400    342.54507   -11161.937    58.200522   -11220.138    18579.809 
   72600    294.63896   -11171.869    50.060978    -11221.93   -61510.317 
   72800    261.42726   -11193.101    44.418105   -11237.519   -17693.745 
   73000    262.69766   -11187.669    44.633954   -11232.303   -51375.109 
   73200    344.40597   -11170.871    58.516701   -11229.387    18130.068 
   73400    257.95516   -11177.849    43.828174   -11221.677   -21509.176 
   73600    267.03304   -11190.391    45.370561   -11235.761   -17196.299 
   73800    326.65507   -11170.827    55.500714   -11226.328     7936.773 
   74000    338.70801    -11166.91    57.548582   -11224.458   -16789.408 
   74200     239.8309   -11184.826    40.748751   -11225.575   -43918.019 
   74400    300.11953   -11173.469     50.99216   -11224.461    4009.0365 
   74600    277.16632   -11177.707    47.092269   -11224.799   -10154.896 
   74800    242.14553   -11191.608     41.14202    -11232.75    74233.467 
   75000    299.73812    -11172.71    50.927357   -11223.637    20767.676 
   75200    345.43445   -11169.036    58.691446   -11227.727   -16106.009 
   75400    274.32132    -11177.06    46.608886   -11223.669    18645.953 
   75600     297.3947    -11180.17    50.529195   -11230.699    37056.876 
   75800    312.75143   -11166.074    53.138398   -11219.212    19957.774 
   76000    312.23102   -11174.987    53.049978   -11228.037   -30840.429 
   76200    279.82017   -11176.174    47.543175   -11223.717   -15017.624 
   76400    355.61289   -11152.412    60.420825   -11212.833    50326.102 
   76600    234.18756   -11169.223    39.789912   -11209.013   -52638.301 
   76800    276.12196   -11178.469    46.914826   -11225.384   -26520.784 
   77000    254.03689   -11193.106    43.162436   -11236.269   -25984.309 
   77200    271.99568   -11174.797    46.213746   -11221.011    5240.5239 
   77400    346.87669   -11164.535    58.936491   -11223.472   -52559.124 
   77600    308.57271   -11180.706    52.428408   -11233.135   -5703.4678 
   77800     228.2293   -11179.773    38.777567   -11218.551    25772.614 
   78000    342.48879   -11169.545     58.19096   -11227.736    35256.976 
   78200    278.31675   -11177.339    47.287733   -11224.627   -5988.0003 
   78400     263.9598   -11192.153    44.848399   -11237.002   -11506.224 
   78600    334.52004   -11172.528     56.83702   -11229.365   -25362.951 
   78800    289.49041   -11174.397    49.186208   -11223.583    2861.8735 
   79000    280.95046   -11183.895    47.735217   -11231.631    35535.772 
   79200    355.22091   -11164.341    60.354225   -11224.695    42784.114 
   79400    338.16079   -11174.707    57.455606   -11232.163    -49688.42 
   79600    237.45965   -11182.471    40.345861   -11222.817   -20475.399 
   79800    319.78809   -11175.787     54.33397   -11230.121    5833.3007 
   80000    326.44747   -11172.679     55.46544   -11228.144   -33236.355 
   80200    276.79324   -11177.017    47.028881   -11224.046   -29699.072 
   80400    309.17331   -11166.186    52.530454   -11218.716     39116.86 
   80600    300.51242   -11163.544    51.058916   -11214.603   -54788.688 
   80800    273.70479   -11179.413    46.504134   -11225.918   -7100.1881 
   81000    339.15237   -11162.171    57.624082   -11219.795   -4785.2806 
   81200     354.1416   -11165.833    60.170843   -11226.003    53228.969 
   81400    313.62037   -11178.035    53.286037   -11231.321    32016.232 
   81600    273.25324   -11178.314    46.427413   -11224.742    10642.342 
   81800    332.94985    -11158.38    56.570235    -11214.95   -46242.526 
   82000    278.29636   -11174.876    47.284269    -11222.16   -98417.014 
   82200    280.27028   -11173.885     47.61965   -11221.505    39964.753 
   82400    345.33988   -11151.924    58.675377   -11210.599   -149.01546 
   82600     335.5588   -11165.233    57.013511   -11222.246    10252.319 
   82800    328.56774   -11176.058    55.825688   -11231.884    30869.887 
   83000     324.7511   -11168.276    55.177216   -11223.454   -21702.437 
   83200    294.88589   -11159.826    50.102933   -11209.929    -68377.84 
   83400    302.59844   -11179.436    51.413343   -11230.849    23140.368 
   83600    305.62196   -11176.604    51.927057   -11228.531   -10605.439 
   83800     351.9281    -11160.92    59.794756   -11220.715   -39324.161 
   84000    326.15813    -11159.11     55.41628   -11214.526    8857.7586 
   84200    325.51837   -11174.125     55.30758   -11229.432    9428.8348 
   84400    298.61737   -11165.484    50.736935    -11216.22   -43509.195 
   84600    246.63484   -11160.716    41.904782   -11202.621   -83591.056 
   84800    274.27286     -11177.1    46.600653     -11223.7   -54536.523 
   85000     324.5679   -11162.373     55.14609   -11217.519   -30297.419 
   85200    341.74759   -11168.482    58.065024   -11226.547   -11300.142 
   85400    295.97778   -11175.286    50.288451   -11225.575    40688.093 
   85600    239.49155   -11187.994    40.691093   -11228.685    -19673.78 
   85800    268.37165   -11176.615    45.597999   -11222.213   -11836.759 
   86000    345.67998   -11163.968    58.733162   -11222.701    -5978.585 
   86200    282.58653    -11180.63    48.013196   -11228.643   -19524.845 
   86400    284.68761    -11178.31    48.370182    -11226.68   -8593.8185 
   86600    294.65778   -11172.114    50.064176   -11222.179    38637.435 
   86800    304.23949   -11177.507    51.692168   -11229.199   -7848.4217 
   87000    317.48873   -11182.634    53.943295   -11236.577   -52930.909 
   87200    344.22446   -11165.525     58.48586   -11224.011     54322.11 
   87400    290.59322   -11170.806    49.373582    -11220.18    27689.325 
   87600     295.0137    -11183.64    50.124649   -11233.765    -16424.51 
   87800    327.11417    -11168.81    55.578717   -11224.388    61334.156 
   88000    320.45399   -11170.819    54.447111   -11225.266    55589.894 
   88200    278.97465    -11181.03    47.399515   -11228.429    96705.031 
   88400    328.65104   -11160.771    55.839841   -11216.611    10077.799 
   88600    303.05818     -11172.9    51.491455   -11224.392   -36540.553 
   88800    278.35472   -11178.535    47.294186   -11225.829    7224.5855 
   89000    333.51729   -11157.937    56.666646   -11214.603    4523.4309 
   89200    293.26361   -11176.619    49.827297   -11226.446     14673.49 
   89400    302.93127   -11173.051    51.469893   -11224.521   -36523.649 
   89600    337.11588   -11150.978     57.27807   -11208.256    12549.969 
   89800    290.48812   -11163.086    49.355724   -11212.441   -76881.973 
   90000     319.9998   -11171.248    54.369941   -11225.618    50695.658 
   90200    286.26185   -11183.695    48.637656   -11232.333   -25407.567 
   90400    329.03573   -11162.575    55.905201    -11218.48     -84055.6 
   90600    251.67663   -11175.899    42.761413   -11218.661    14117.082 
   90800    293.41177   -11172.081     49.85247   -11221.933   -27710.618 
   91000    428.91347   -11149.218    72.875047   -11222.093   -32048.788 
   91200    302.44874   -11170.214    51.387907   -11221.602   -21680.126 
   91400    267.54339   -11181.329    45.457273   -11226.786   -3518.1016 
   91600    322.35235   -11165.634    54.769654   -11220.403    19333.621 
   91800    316.75121   -11169.959    53.817986   -11223.777    10135.801 
   92000    288.57316   -11178.751    49.030362   -11227.782    13845.955 
   92200    285.16668   -11173.114    48.451578   -11221.566    67328.414 
   92400     306.3876   -11155.128    52.057145   -11207.185   -38276.282 
   92600    336.70926   -11169.102    57.208982   -11226.311    6495.6117 
   92800    314.55027   -11178.465    53.444032   -11231.909    9233.9645 
   93000    286.86511   -11178.474    48.740152   -11227.214    12026.123 
   93200    348.63419   -11161.065    59.235101     -11220.3    33920.029 
   93400    302.59321   -11177.411    51.412455   -11228.823    54048.367 
   93600    304.81039   -11174.607    51.789167   -11226.396   -14883.945 
   93800     330.2045   -11160.315    56.103783   -11216.419   -57825.614 
   94000    366.05124   -11141.105    62.194365   -11203.299   -18305.414 
   94200    261.36639   -11170.634    44.407764   -11215.042    -70949.27 
   94400    248.73065   -11179.026    42.260873   -11221.287    9714.9919 
   94600    328.53465    -11160.24    55.820065    -11216.06   -44715.309 
   94800     341.2055   -11166.688     57.97292   -11224.661    15545.098 
   95000    262.23491   -11171.978     44.55533   -11216.534    26083.456 
   95200    341.46953   -11166.217    58.017781   -11224.235    57052.288 
   95400    279.80352   -11160.702    47.540346   -11208.242   -21755.556 
   95600    264.06236   -11177.614    44.865825    -11222.48   -16131.743 
   95800    277.72023   -11170.481    47.186381   -11217.668    13531.112 
   96000    424.22863   -11141.363    72.079063   -11213.442    10459.311 
   96200    340.94562   -11161.837    57.928765   -11219.766   -21220.233 
   96400    274.55866   -11176.956    46.649211   -11223.605    31570.338 
   96600    346.12742   -11165.377    58.809185   -11224.186     -54635.8 
   96800    353.17361    -11163.94    60.006377   -11223.947   -27848.045 
   97000    300.96148   -11175.554    51.135213   -11226.689    -29757.49 
   97200    297.33498   -11172.464    50.519048   -11222.983   -17222.347 
   97400    353.65231   -11157.178     60.08771   -11217.266   -31506.976 
   97600    285.59432   -11174.454    48.524238   -11222.978   -67172.294 
   97800    316.87909   -11172.039    53.839714   -11225.879   -106251.35 
   98000    367.88291   -11153.858    62.505578   -11216.364    2372.5524 
   98200    303.22724   -11172.164    51.520181   -11223.684   -12919.708 
   98400    308.95388   -11176.124    52.493171   -11228.618    13003.019 
   98600    307.97571   -11167.935    52.326974   -11220.262    61550.939 
   98800    310.82421   -11162.508    52.810951   -11215.319    82723.895 
   99000       296.26   -11178.992    50.336402   -11229.329    -15090.73 
   99200    310.20122   -11166.314    52.705102   -11219.019   -1246.1641 
   99400    293.60694   -11166.424    49.885632    -11216.31   -45126.984 
   99600    259.83404   -11177.709    44.147408   -11221.857   -28436.315 
   99800    263.85563   -11179.151      44.8307   -11223.981   -2303.2954 
  100000    323.10343   -11163.801    54.897267   -11218.698     36160.42 
  100200    270.61681   -11181.467    45.979467   -11227.447   -37105.393 
  100400    280.23094   -11173.804    47.612967   -11221.417   -67754.446 
  100600    304.50397   -11168.721    51.737105   -11220.458   -49031.355 
  100800    291.98621    -11172.76    49.610259    -11222.37   -19552.605 
  101000    278.11996   -11187.193    47.254299   -11234.447    53475.735 
  101200     302.4171   -11166.871    51.382531   -11218.253   -51235.323 
  101400    320.61198   -11171.518    54.473955   -11225.992   -1074.3109 
  101600    275.88885   -11184.516    46.875219   -11231.392    336.11431 
  101800    300.34945   -11164.329    51.031226    -11215.36   -6330.2386 
  102000    273.33909   -11178.588    46.441999    -11225.03    11527.732 
  102200    335.87075   -11173.924    57.066513   -11230.991   -40714.905 
  102400    340.07804   -11166.701    57.781357   -11224.483   -13819.585 
  102600    256.62547   -11177.776    43.602252   -11221.378   -5547.1296 
  102800    300.50634   -11164.084    51.057882   -11215.142   -90175.279 
  103000     346.4329   -11159.258    58.861087   -11218.119   -75775.482 
  103200    284.64094   -11175.782    48.362253   -11224.144   -30309.265 
  103400    280.12856   -11171.168    47.595572   -11218.763    459.72747 
  103600    346.02994   -11175.117    58.792623    -11233.91   -6113.3528 
  103800    273.40156   -11184.575    46.452613   -11231.027    83709.544 
  104000    297.36132   -11164.704    50.523523   -11215.227    14161.747 
  104200     267.4221   -11173.627    45.436665   -11219.064    38369.346 
  104400    264.65095   -11182.322     44.96583   -11227.288   -42567.467 
  104600    317.83632   -11162.136    54.002353   -11216.139   -54923.816 
  104800    283.90374   -11175.123    48.236998    -11223.36   -25674.475 
  105000    306.61601   -11178.199    52.095953   -11230.295   -12006.973 
  105200    426.39651   -11156.301    72.447399   -11228.749    8361.6396 
  105400    311.58364    -11167.02    52.939983    -11219.96    24817.869 
  105600     254.3965   -11176.896    43.223536    -11220.12    42181.919 
  105800    315.43084   -11152.736    53.593647   -11206.329   -26698.868 
  106000    307.51464   -11162.373    52.248635   -11214.622    20851.633 
  106200    254.60639   -11178.624    43.259198   -11221.883    -89682.75 
  106400    301.30635   -11171.848    51.193809   -11223.042    36294.077 
  106600     326.6965   -11165.655    55.507752   -11221.163   -2141.8114 
  106800    281.55195   -11178.279    47.837414   -11226.117   -1451.1947 
  107000    303.72327   -11161.102    51.604458   -11212.706   -63959.159 
  107200    353.26904   -11165.646    60.022591   -11225.669   -16426.618 
  107400    281.27393   -11173.645    47.790177   -11221.435   -10763.978 
  107600    291.87779   -11170.009    49.591837   -11219.601   -6407.9629 
  107800    346.79944   -11161.701    58.923366   -11220.624    9467.6723 
  108000    282.66625    -11180.03    48.026741   -11228.057    113290.36 
  108200    259.80956   -11168.743    44.143248   -11212.886    24365.266 
  108400     364.2438   -11145.021     61.88727   -11206.908   -7947.1999 
  108600    285.67434   -11170.634    48.537834   -11219.172    4966.2569 
  108800      323.958   -11175.143    55.042464   -11230.185   -33200.379 
  109000    244.21208   -11179.335     41.49314   -11220.828    3081.8957 
  109200    287.61812   -11164.524    48.868095   -11213.392   -20611.716 
  109400     276.1852   -11184.251    46.925571   -11231.176    13000.048 
  109600     273.2134   -11179.397    46.420643   -11225.818   -34932.828 
  109800     290.2982   -11171.207    49.323457    -11220.53   -35548.759 
  110000    309.16379   -11174.873    52.528836   -11227.402    29307.901 
  110200    275.77989   -11175.976    46.856706   -11222.832    6232.0083 
  110400    335.32401    -11164.79    56.973618   -11221.763   -21858.702 
  110600    273.15276   -11177.911     46.41034   -11224.321    14367.769 
  110800    294.66758   -11175.554     50.06584    -11225.62    29715.341 
  111000    327.12558    -11149.93    55.580656   -11205.511    27355.116 
  111200    356.04945   -11162.481       60.495   -11222.976    35474.356 
  111400    283.40981   -11176.385    48.153076   -11224.538    10813.492 
  111600    296.46919    -11176.05    50.371946   -11226.422    18724.694 
  111800    374.95314   -11164.536    63.706853   -11228.242    9228.7141 
  112000    290.75217   -11178.532    49.400589   -11227.932    35631.629 
  112200    382.76787   -11166.089    65.034625   -11231.123    3185.6706 
  112400    408.83942   -11153.553    69.464342   -11223.017    43250.461 
  112600    313.40176   -11178.042    53.248893   -11231.291    4121.5781 
  112800    345.82533   -11168.232    58.757858    -11226.99      13563.2 
  113000    323.55954   -11176.823    54.974763   -11231.798   -16051.656 
  113200    290.15239   -11179.665    49.298682   -11228.963    -7229.541 
  113400    364.46242   -11171.772    61.924415   -11233.697    -20091.69 
  113600    336.62363   -11172.618    57.194433   -11229.813   -23281.021 
  113800    339.60161    -11174.06     57.70041    -11231.76    69947.918 
  114000     295.1337   -11184.757    50.145038   -11234.902    3848.0099 
  114200    333.01758   -11169.196    56.581743   -11225.778     4388.953 
  114400    263.48336    -11183.52     44.76745   -11228.287   -28576.211 
  114600    335.78228   -11168.608    57.051483    -11225.66   -36251.049 
  114800    323.37616   -11171.084    54.943605   -11226.028   -37877.225 
  115000      322.234   -11178.402    54.749545   -11233.151   -1424.5634 
  115200    325.80951   -11160.444    55.357047   -11215.801   -19666.977 
  115400    321.88505   -11175.572    54.690257   -11230.263    8132.4261 
  115600    282.66047   -11184.822    48.025758   -11232.847     769.4802 
  115800    349.18708   -11170.735    59.329041   -11230.064    4993.7143 
  116000    315.26238   -11170.164    53.565025   -11223.729   -19216.925 
  116200    256.65712   -11180.251     43.60763   -11223.859    4021.8205 
  116400    282.75169    -11179.48    48.041258   -11227.521   -14855.773 
  116600    284.28802   -11169.349     48.30229   -11217.651   -4515.5461 
  116800    277.73745    -11178.05    47.189307   -11225.239   -23443.117 
  117000     287.7053   -11179.216    48.882907   -11228.098    47574.798 
  117200    320.77461   -11169.659    54.501586   -11224.161   -15224.083 
  117400    252.95444   -11180.531     42.97852    -11223.51    88050.036 
  117600    263.11847   -11185.958    44.705452   -11230.664    31085.947 
  117800    295.88248   -11166.603     50.27226   -11216.876    72442.848 
  118000    338.44009   -11162.231     57.50306   -11219.734    60427.134 
  118200     302.4971   -11178.172    51.396124   -11229.568   -12064.069 
  118400    356.02202   -11163.272    60.490339   -11223.762    26852.313 
  118600    306.03261    -11173.87     51.99683   -11225.867    8724.9156 
  118800    289.38716   -11173.635    49.168664   -11222.804    13716.242 
  119000    312.18877   -11167.083    53.042799   -11220.126   -19938.372 
  119200    251.98803   -11186.168    42.814322   -11228.983   -18535.852 
  119400    341.42227    -11170.77     58.00975    -11228.78   -10476.955 
  119600    291.58726   -11170.188    49.542476   -11219.731   -8716.6747 
  119800     289.6805   -11186.699    49.218505   -11235.917    21415.046 
  120000    244.92859   -11176.202     41.61488   -11217.817   -30266.667 
  120200    304.54031   -11170.725    51.743279   -11222.469    -32351.03 
  120400    257.33413   -11172.788    43.722656   -11216.511    35495.095 
  120600    290.91591    -11168.93    49.428409   -11218.358    55092.277 
  120800    228.80836   -11183.752    38.875954   -11222.628    15029.652 
  121000    303.72839   -11169.378    51.605328   -11220.983    106546.58 
  121200    242.12176    -11169.97    41.137982   -11211.108   -39281.223 
  121400    333.20287   -11173.074    56.613225   -11229.687    1234.6729 
  121600    278.03891   -11186.464    47.240527   -11233.704   -40893.926 
  121800     262.1654    -11173.12     44.54352   -11217.663    -13517.67 
  122000    254.26197   -11169.236    43.200679   -11212.436   -46863.145 
  122200    232.04081    -11184.23    39.425166   -11223.655    19914.912 
  122400    297.71218   -11176.697    50.583137    -11227.28    64367.737 
  122600    270.67662   -11169.495    45.989629   -11215.485   -13265.276 
  122800    259.77383   -11176.941    44.137177   -11221.078     13556.26 
  123000    296.26875   -11162.292     50.33789    -11212.63    28606.446 
  123200    280.74496   -11177.316    47.700302   -11225.017     -48517.9 
  123400     242.5188   -11179.014    41.205441   -11220.219   -57057.193 
  123600    345.43247   -11161.367    58.691109   -11220.058    17703.837 
  123800    320.55763   -11174.748     54.46472   -11229.213    24113.416 
  124000    252.89795   -11192.527    42.968922   -11235.496    13284.659 
  124200    295.16187   -11169.972    50.149824   -11220.122   -6547.7142 
  124400    304.63584   -11167.798     51.75951   -11219.558    55159.282 
  124600     274.5191   -11181.018    46.642489   -11227.661   -16897.075 
  124800    345.87986    -11163.98    58.767124   -11222.747   -29452.628 
  125000    295.73149   -11170.588    50.246606   -11220.835   -58982.571 
  125200    335.29133   -11166.027    56.968067   -11222.995   -3617.5477 
  125400    332.60753   -11170.389    56.512072   -11226.901   -69598.872 
  125600    266.05953   -11183.103    45.205157   -11228.309    51388.391 
  125800     342.0812   -11164.494    58.121707   -11222.616    3233.2815 
  126000    320.51233   -11170.858    54.457024   -11225.315   -13280.323 
  126200    338.52722    -11176.65    57.517865   -11234.167    5548.6036 
  126400     268.2009   -11192.975    45.568988   -11238.544   -49913.565 
  126600    271.20515   -11175.246    46.079429   -11221.326    11687.896 
  126800     342.6407   -11164.857     58.21677   -11223.074    34158.103 
  127000    258.86943   -11179.524    43.983514   -11223.508   -29161.577 
  127200    351.11875   -11169.687    59.657244   -11229.344   -25834.645 
  127400    288.45893   -11174.497    49.010953   -11223.508   -15009.342 
  127600    359.73592   -11171.332    61.121353   -11232.453   -19758.234 
  127800    364.39817   -11165.169    61.913499   -11227.083   -3584.4158 
  128000    289.56164   -11177.542    49.198311   -11226.741    -9394.471 
  128200    259.50813   -11178.968    44.092033    -11223.06     42731.43 
  128400    308.56987   -11162.705    52.427926   -11215.133    24683.679 
  128600     312.4462   -11172.647    53.086539   -11225.733    30706.782 
  128800    298.28286    -11184.15      50.6801    -11234.83   -5385.8302 
  129000    313.29999   -11171.836    53.231602   -11225.068   -61372.722 
  129200    337.39223       -11169    57.325022   -11226.325    63904.554 
  129400    272.36903   -11186.006    46.277179   -11232.283   -65224.047 
  129600    307.30501   -11170.157    52.213018    -11222.37    36815.052 
  129800    339.85351    -11173.54    57.743209   -11231.283   -66473.123 
  130000    260.51223    -11183.62    44.262636   -11227.883   -23627.863 
  130200    344.42896   -11163.637    58.520606   -11222.158   -23489.145 
  130400    310.98322   -11172.558    52.837969   -11225.396    -30376.99 
  130600    245.52356   -11190.123    41.715969   -11231.839    17780.229 
  130800    283.29502   -11172.705    48.133572   -11220.839   -28842.749 
  131000    334.72444   -11164.557    56.871748   -11221.429    57106.076 
  131200    291.73415   -11178.603    49.567432   -11228.171    9450.2211 
  131400    290.31055   -11179.895    49.325555    -11229.22    -6842.719 
  131600    340.59425   -11170.519    57.869065   -11228.388    -36707.93 
  131800    295.25003   -11178.621    50.164803   -11228.786    20669.432 
  132000    267.92941   -11185.255    45.522861   -11230.778    79433.072 
  132200     322.0517   -11166.508    54.718573   -11221.226   -93124.816 
  132400    318.86085   -11179.652    54.176427   -11233.828    30182.605 
  132600    267.28077   -11179.745    45.412652   -11225.157    62727.624 
  132800    332.93742   -11173.138    56.568123   -11229.706   -62567.431 
  133000    384.95344   -11160.525    65.405966   -11225.931    15976.533 
  133200    290.65918    -11178.82    49.384789   -11228.204   -32426.796 
  133400    293.18806   -11175.035    49.814461    -11224.85    21852.759 
  133600    338.35367    -11161.96    57.488377   -11219.449   -56498.523 
  133800    284.43506   -11171.192    48.327272   -11219.519   -36162.083 
  134000    320.46543    -11171.33    54.449055   -11225.779    16671.316 
  134200    247.99642   -11190.191    42.136123   -11232.328   -31079.171 
  134400    290.41877   -11176.385    49.343941   -11225.728     34623.07 
  134600    294.44537   -11168.849    50.028086   -11218.877     -78511.9 
  134800    269.83437   -11183.127    45.846525   -11228.974    743.81029 
  135000    289.98988   -11169.848     49.27107   -11219.119   -40438.749 
  135200    276.79506   -11164.921    47.029189    -11211.95    34641.045 
  135400    307.62757   -11172.355    52.267823   -11224.623    37618.068 
  135600    274.73321   -11183.669    46.678868   -11230.348   -23390.133 
  135800    284.47145   -11163.426    48.333455    -11211.76   -32401.924 
  136000    286.28639   -11172.653    48.641825   -11221.295    -6780.446 
  136200    280.96895   -11177.833    47.738359   -11225.572   -18592.239 
  136400    339.15155   -11154.566    57.623942    -11212.19   -63494.068 
  136600    296.16333   -11170.506    50.319978   -11220.826    35134.468 
  136800    265.27135    -11177.64     45.07124   -11222.711   -37243.063 
  137000    328.39808   -11159.471    55.796861   -11215.268   -16180.769 
  137200    300.18343   -11170.525    51.003018   -11221.528   -21616.062 
  137400    295.12695   -11174.711    50.143891   -11224.855   -31887.148 
  137600    292.81359   -11181.853    49.750837   -11231.604   -11541.838 
  137800    259.65436   -11173.604    44.116878   -11217.721   -36270.323 
  138000    347.02172   -11167.905    58.961132   -11226.866    3979.5048 
  138200    255.32766   -11187.501    43.381746   -11230.883   -25865.731 
  138400     259.3335   -11183.047    44.062362   -11227.109   -41531.517 
  138600    277.15202   -11172.881    47.089839    -11219.97   -17892.305 
  138800    322.67624   -11162.415    54.824685   -11217.239   -9293.0962 
  139000    300.77804    -11178.83    51.104045   -11229.934    36742.724 
  139200    299.67319   -11168.735    50.916325   -11219.651   -50181.422 
  139400    295.39189   -11168.459    50.188906   -11218.647   -51412.603 
  139600    255.92635   -11173.591    43.483466   -11217.075    15479.492 
  139800    394.70116   -11164.286    67.062163   -11231.348   -46470.275 
  140000    277.00133   -11163.166    47.064236    -11210.23   -49999.111 
  140200    288.41021   -11177.271    49.002675   -11226.274   -65556.849 
  140400    332.12345    -11167.08    56.429824    -11223.51    33945.561 
  140600    288.86661   -11169.941    49.080221   -11219.022   -8343.5835 
  140800    317.58444   -11172.809    53.959557   -11226.768    24668.717 
  141000    273.89477   -11186.856    46.536413   -11233.393   -16107.011 
  141200    331.95053   -11169.458    56.400444   -11225.858   -20667.258 
  141400    343.46882   -11173.354    58.357472   -11231.711   -5579.1403 
  141600    221.43679   -11190.579    37.623477   -11228.203    16102.729 
  141800    322.19604    -11170.29    54.743096   -11225.033   -49958.723 
  142000    280.70485    -11165.24    47.693487   -11212.934    4943.3203 
  142200    284.21708   -11178.922    48.290237   -11227.213   -5218.0979 
  142400    292.41952   -11180.963    49.683882   -11230.646     16858.84 
  142600    312.39991   -11164.976    53.078673   -11218.054   -25689.584 
  142800    303.07743   -11175.267    51.494725   -11226.762   -33298.041 
  143000    287.13324   -11180.675    48.785709   -11229.461    75956.467 
  143200    308.21983   -11171.033    52.368452   -11223.401    56220.998 
  143400    323.20521   -11175.691     54.91456   -11230.605   -71478.664 
  143600    292.93022   -11180.001    49.770653   -11229.771    79082.237 
  143800    369.52564   -11164.947    62.784687   -11227.732     54035.15 
  144000     306.4088   -11177.474    52.060747   -11229.535   -2250.2081 
  144200    297.53049   -11163.119    50.552267   -11213.671    -32351.19 
  144400    336.12898   -11169.731    57.110388   -11226.842   -6352.2922 
  144600    292.77221   -11178.265    49.743806   -11228.009    30494.981 
  144800    359.83734   -11164.624    61.138585   -11225.762     -13143.9 
  145000     309.1483    -11170.33    52.526205   -11222.856    51452.941 
  145200    281.62495   -11179.952    47.849817   -11227.802    102921.68 
  145400    305.90218   -11165.168    51.974669   -11217.143    32932.686 
  145600    329.58023   -11166.385    55.997715   -11222.383    -44841.98 
  145800    335.08308   -11180.109    56.932684   -11237.041   -30490.311 
  146000     314.0578   -11167.515     53.36036   -11220.875    19236.029 
  146200    258.73383   -11174.456    43.960476   -11218.417   -14111.584 
  146400    237.73492   -11193.085    40.392631   -11233.478   -4999.8022 
  146600    294.74164    -11178.23    50.078424   -11228.308   -7881.4389 
  146800     322.0754   -11166.311    54.722599   -11221.033   -4032.0816 
  147000    273.89677   -11180.533    46.536751    -11227.07    36937.829 
  147200    301.98872   -11182.516    51.309747   -11233.826    51994.684 
  147400    299.08669   -11170.753    50.816675    -11221.57    44469.948 
  147600    258.98463   -11174.922    44.003087   -11218.925   -58297.062 
  147800    254.65356   -11187.522    43.267211   -11230.789    1894.5371 
  148000    279.12176   -11174.107    47.424509   -11221.531    5885.2175 
  148200    263.36246   -11169.034    44.746908   -11213.781    74595.148 
  148400    350.46166   -11158.582      59.5456   -11218.127   -71786.857 
  148600    321.66661   -11178.019    54.653143   -11232.672   -52676.098 
  148800    259.99584   -11175.458    44.174899   -11219.633   -6548.9834 
  149000    325.85343   -11163.978    55.364509   -11219.343   -61262.742 
  149200    328.13378   -11170.684    55.751954   -11226.436    -36886.17 
  149400    229.01467   -11183.977    38.911005   -11222.888    25442.801 
  149600    276.16881   -11167.706    46.922785   -11214.629    8357.8488 
  149800    302.61033   -11168.385    51.415363   -11219.801   -21734.923 
  150000    253.27944   -11181.732    43.033741   -11224.766   -586.78588 
  150200    275.55155   -11174.246     46.81791   -11221.064   -64001.392 
  150400    300.76948   -11169.521     51.10259   -11220.624   -26090.766 
  150600    340.66313   -11158.306    57.880769   -11216.187    3922.4621 
  150800    257.34345   -11178.283    43.724241   -11222.007   -27185.779 
  151000    287.33833   -11173.401    48.820556   -11222.222   -18087.128 
  151200    326.26654   -11150.346    55.434699   -11205.781   -20198.214 
  151400    291.23118   -11165.425    49.481974   -11214.907   -29322.555 
  151600    278.25286   -11176.436    47.276879   -11223.713    38638.601 
  151800    323.03134   -11163.316    54.885019   -11218.201   -47449.784 
  152000    263.67098   -11170.377    44.799328   -11215.176   -15697.464 
  152200    282.27342   -11172.246    47.959997   -11220.206   -28954.319 
  152400    275.98949   -11180.596    46.892317   -11227.488   -1035.1096 
  152600    300.45106   -11165.974    51.048489   -11217.022    10684.419 
  152800    261.93533   -11173.968    44.504429   -11218.473   -4323.3027 
  153000    274.80488   -11178.675    46.691046   -11225.366    17143.159 
  153200    304.87884   -11170.054    51.800798   -11221.855     21671.11 
  153400    314.08783   -11159.742    53.365462   -11213.108   -10631.777 
  153600    250.26657   -11171.036    42.521835   -11213.558    39478.071 
  153800    293.78042   -11172.475    49.915107    -11222.39    17498.029 
  154000    349.13336   -11171.522    59.319913   -11230.842   -2384.8484 
  154200    306.73748   -11182.162    52.116591   -11234.279   -29575.755 
  154400    298.52009   -11167.902    50.720405   -11218.622   -31316.625 
  154600    272.66737   -11173.445     46.32787   -11219.773   -15330.414 
  154800     346.6298   -11169.666    58.894542   -11228.561   -47175.667 
  155000    314.28601   -11158.379    53.399133   -11211.778    -43673.85 
  155200    271.37746   -11180.399    46.108706   -11226.508    16912.821 
  155400    290.96534   -11177.793    49.436807   -11227.229    -33088.78 
  155600    335.53858   -11165.908    57.010075   -11222.918    56968.377 
  155800    271.64529   -11178.921    46.154211   -11225.075   -65964.642 
  156000    257.76019   -11178.448    43.795047   -11222.244   -28806.459 
  156200    288.84184    -11174.44    49.076012   -11223.516   -58852.228 
  156400     329.7056   -11160.937    56.019016   -11216.956    9251.9035 
  156600    313.60487   -11177.813    53.283403   -11231.096    38029.796 
  156800    354.31246   -11172.966    60.199874   -11233.165   -5419.0157 
  157000    287.04428   -11172.138    48.770595   -11220.909   -16341.625 
  157200     273.6896   -11190.631    46.501552   -11237.133   -3334.3922 
  157400    304.99734    -11175.92     51.82093   -11227.741   -44535.776 
  157600     320.2794   -11167.817    54.417448   -11222.234    2638.6975 
  157800    294.71015   -11184.357    50.073074    -11234.43    472.56683 
  158000    300.36684   -11177.229    51.034181   -11228.263     4068.837 
  158200    357.93348   -11168.936    60.815108   -11229.751   -29478.448 
  158400     323.1852   -11175.251    54.911161   -11230.162    30668.299 
  158600    258.82771   -11182.429    43.976426   -11226.406   -62897.054 
  158800    339.21511   -11162.958    57.634742   -11220.593    70594.559 
  159000    319.82638   -11173.285    54.340475   -11227.626     28433.36 
  159200    310.39692   -11173.126    52.738352   -11225.865   -56646.054 
  159400    279.48935   -11177.169    47.486965   -11224.656    60852.382 
  159600    293.53535    -11185.09    49.873468   -11234.963    -32271.29 
  159800    257.01445   -11166.986    43.668342   -11210.655    -7784.178 
  160000    319.15927   -11168.296     54.22713   -11222.523   -3597.8925 
  160200    275.47915   -11188.608    46.805609   -11235.413   -34990.219 
  160400    306.83916    -11172.83    52.133867   -11224.964    23841.542 
  160600    327.76005   -11170.002    55.688455    -11225.69    6771.2459 
  160800    253.82947   -11189.779    43.127195   -11232.906   -12884.815 
  161000    250.96689   -11199.967    42.640823   -11242.608   -6550.1339 
  161200    277.75025   -11176.588    47.191482   -11223.779    54182.244 
  161400    308.10505   -11166.021     52.34895    -11218.37    15138.624 
  161600    254.45489   -11179.241    43.233457   -11222.474    42571.927 
  161800    233.23499   -11189.254    39.628065   -11228.882    16054.998 
  162000     314.1839   -11167.655    53.381784   -11221.037    67049.854 
  162200    323.62943   -11165.657    54.986639   -11220.643    4303.9703 
  162400    250.40676   -11184.013    42.545654   -11226.559    55635.102 
  162600    320.80428   -11170.394    54.506627     -11224.9   -10597.152 
  162800    284.63645   -11173.227    48.361489   -11221.589   -45135.418 
  163000    337.95376   -11164.257    57.420431   -11221.677   -8492.7045 
  163200    356.07356   -11162.409    60.499096   -11222.908    68102.141 
  163400    272.40383   -11176.289    46.283092   -11222.572    19466.778 
  163600    280.86382   -11164.908    47.720497   -11212.629    66157.889 
  163800    256.79277   -11167.074    43.630676   -11210.704    52761.752 
  164000     280.2978    -11180.09    47.624326   -11227.714   -34603.679 
  164200    336.39992   -11161.068    57.156422   -11218.225   -44855.922 
  164400    341.33069   -11169.465    57.994191    -11227.46    17009.965 
  164600    241.70979   -11175.895    41.067985   -11216.963    76367.422 
  164800    262.38345   -11168.632    44.580568   -11213.212     12934.55 
  165000     291.2099   -11182.344     49.47836   -11231.822   -22106.751 
  165200    282.65359   -11184.087     48.02459   -11232.111    -16674.17 
  165400    316.62926   -11168.108    53.797267   -11221.906   -49673.198 
  165600    311.77268    -11168.27    52.972102   -11221.242   -9513.0374 
  165800    285.90974   -11185.565     48.57783   -11234.143    1837.1223 
  166000    318.33526   -11169.501    54.087126   -11223.588    20337.852 
  166200    322.79277   -11170.526    54.844484    -11225.37   -3631.2171 
  166400    258.60907   -11183.426    43.939278   -11227.365    5911.2191 
  166600    293.96754   -11163.161      49.9469   -11213.108   -1151.8402 
  166800    314.81935   -11158.343    53.489751   -11211.833   -9559.1818 
  167000    259.67859   -11179.292    44.120996   -11223.413   -5086.4362 
  167200    310.76855   -11173.443    52.801495   -11226.244    26031.691 
  167400    340.40677   -11162.807    57.837212   -11220.644    -22754.31 
  167600    271.56054   -11178.572    46.139813   -11224.712   -16301.121 
  167800    278.12928   -11172.619    47.255882   -11219.875   -2948.5987 
  168000    294.38694   -11160.339    50.018158   -11210.357    45531.029 
  168200    308.60559   -11169.866    52.433994     -11222.3    7487.5623 
  168400    247.51289   -11172.874    42.053968   -11214.928   -15073.349 
  168600    281.51624   -11166.484    47.831346   -11214.316    1970.5189 
  168800     261.2162   -11180.943    44.382245   -11225.325    28159.435 
  169000    282.55312   -11167.958    48.007519   -11215.966    -5442.393 
  169200    279.58577   -11170.074    47.503349   -11217.577   -22557.213 
  169400     308.8127   -11171.674    52.469184   -11224.144     37291.77 
  169600    245.37641   -11183.825    41.690967   -11225.516   -27232.228 
  169800    307.04378    -11176.05    52.168634   -11228.218    108822.32 
  170000    328.48285   -11166.579    55.811264   -11222.391   -85999.065 
  170200    321.06098   -11173.726    54.550243   -11228.277    -7264.823 
  170400     303.2251   -11183.985    51.519816   -11235.505   -69226.127 
  170600    299.52799   -11168.067    50.891655   -11218.959    2083.9263 
  170800    339.82039   -11165.973    57.737582   -11223.711   -17352.126 
  171000    284.06419    -11187.19    48.264259   -11235.454    54385.436 
  171200    325.49384   -11178.377    55.303412    -11233.68    8951.1919 
  171400    308.69429   -11166.681    52.449065    -11219.13    -5233.982 
  171600      311.266   -11169.855    52.886015   -11222.741    3628.6828 
  171800    260.41962   -11190.076    44.246901   -11234.322    18829.472 
  172000    352.02488   -11174.932    59.811201   -11234.743    14829.796 
  172200    303.46188   -11165.449    51.560047   -11217.009    10036.865 
  172400    348.56028   -11169.509    59.222543   -11228.731    9684.4335 
  172600     288.4445   -11183.145    49.008501   -11232.153    98575.553 
  172800      344.619    -11164.06    58.552895   -11222.613   -6211.1284 
  173000    294.49619   -11174.805     50.03672   -11224.842   -6090.9271 
  173200    317.93611   -11177.458    54.019308   -11231.477    64856.106 
  173400    290.08724   -11164.572    49.287613   -11213.859    1118.3644 
  173600    292.31605    -11158.36    49.666302   -11208.026   -18478.913 
  173800    261.34434   -11175.227    44.404017   -11219.631   -14618.186 
  174000    308.39773   -11175.965    52.398678   -11228.363   -13777.025 
  174200    353.35628   -11158.386    60.037413   -11218.423     53432.59 
  174400    318.63908   -11166.362    54.138746     -11220.5    94.865837 
  174600    279.51585   -11174.877    47.491468   -11222.368    -1925.689 
  174800    353.57198   -11162.786    60.074062    -11222.86    71976.502 
  175000    271.13851   -11170.651    46.068107   -11216.719   -1914.7966 
  175200    269.65308   -11175.783    45.815723   -11221.599    17559.343 
  175400    296.52316   -11165.483    50.381116   -11215.864    14105.315 
  175600     307.1042   -11179.171    52.178899    -11231.35    18164.688 
  175800    262.50497   -11183.656    44.601215   -11228.257    -67683.33 
  176000    340.35459   -11169.652    57.828346    -11227.48   -50003.872 
  176200    263.22466   -11175.388    44.723495   -11220.111    21823.459 
  176400    321.08954   -11169.924    54.555095   -11224.479     3658.932 
  176600     334.5099   -11172.294    56.835297    -11229.13    21408.801 
  176800    285.29847   -11178.489    48.473971   -11226.963    41626.672 
  177000     317.3872   -11170.239    53.926044   -11224.165    32862.062 
  177200    291.17384   -11172.812    49.472232   -11222.285    -6595.334 
  177400    239.69334   -11192.225    40.725377   -11232.951   -7337.1969 
  177600    306.13492   -11175.654    52.014213   -11227.669   -40296.969 
  177800    325.15055   -11165.767    55.245085   -11221.012    25602.381 
  178000    267.72749   -11184.517    45.488553   -11230.005    5042.6457 
  178200    272.76954   -11177.489    46.345228   -11223.834    63801.212 
  178400    304.19293   -11169.736    51.684256    -11221.42    20744.026 
  178600    247.96146   -11184.199    42.130183   -11226.329   -7567.5397 
  178800    318.80383   -11177.212    54.166738   -11231.379   -18939.986 
  179000    317.15551   -11168.491    53.886678   -11222.377   -42397.761 
  179200    298.81738   -11177.703    50.770917   -11228.474    3581.2647 
  179400    276.17097   -11183.257    46.923153    -11230.18   -24092.592 
[...]
  950000    301.19964   -11155.411    51.175678   -11206.587    32495.552 
  950200    300.08772   -11167.507    50.986757   -11218.494     28887.22 
  950400    279.27519    -11176.25    47.450579     -11223.7     37022.84 
  950600    274.37013   -11184.591     46.61718   -11231.208   -7449.3383 
  950800     317.6392     -11168.5    53.968861   -11222.469    24962.954 
  951000    359.63053   -11165.882    61.103447   -11226.985    10.186662 
  951200    238.21284   -11181.929    40.473831   -11222.403    16242.221 
  951400    323.20205   -11173.907    54.914024   -11228.821    64938.825 
  951600    320.68705   -11156.959    54.486709   -11211.445   -53328.351 
  951800    342.42417   -11164.865     58.17998   -11223.045    77917.424 
  952000    294.96078   -11175.979    50.115657   -11226.094    21850.868 
  952200    266.35329   -11184.687    45.255067   -11229.942    34436.044 
  952400    344.99479   -11166.444    58.616744   -11225.061    17465.536 
  952600    287.62922   -11179.354    48.869979   -11228.224    1855.4024 
  952800    330.97932   -11158.707     56.23543   -11214.943    10835.352 
  953000    282.59851   -11169.923    48.015231   -11217.938   -1221.8587 
  953200    310.03107   -11175.228    52.676193   -11227.904    13043.331 
  953400    328.51085    -11156.94    55.816022   -11212.756    -2551.982 
  953600    268.71704   -11175.625    45.656685   -11221.282   -14630.672 
  953800    261.27697   -11169.571     44.39257   -11213.963   -13823.484 
  954000    275.37282   -11177.692    46.787543   -11224.479    5448.0002 
  954200    271.29547   -11178.547    46.094775   -11224.642   -43257.891 
  954400    308.14008   -11164.014    52.354902   -11216.369   -7934.6951 
  954600    278.54118   -11176.309    47.325867   -11223.635    8127.2897 
  954800    312.71749   -11170.237    53.132632    -11223.37   -10784.464 
  955000    298.73834   -11170.983    50.757488    -11221.74   -9540.6199 
  955200    298.90579    -11171.83    50.785939   -11222.616    10291.042 
  955400    231.86244    -11188.03    39.394859   -11227.425    9565.5343 
  955600    299.16467   -11173.557    50.829924   -11224.387   -67016.037 
  955800    295.57061   -11169.517    50.219272   -11219.737   -22922.151 
  956000     282.5364     -11175.1    48.004679   -11223.105   -8500.7248 
  956200    275.33811   -11179.828    46.781644   -11226.609     67322.94 
  956400    337.93897   -11163.062    57.417917    -11220.48   -14498.473 
  956600    320.77579   -11169.412    54.501786   -11223.914   -43532.842 
  956800    272.87335   -11180.132    46.362867   -11226.494   -34185.622 
  957000    282.92722   -11168.505    48.071081   -11216.576    83899.038 
  957200    294.10295   -11175.629    49.969906   -11225.599   -56750.563 
  957400    311.61888   -11178.746    52.945971   -11231.692   -27962.649 
  957600    343.49282   -11167.962     58.36155   -11226.323    49051.503 
  957800    298.15739   -11163.497     50.65878   -11214.155    19323.269 
  958000    258.11698   -11178.271    43.855668   -11222.127   -33740.511 
  958200    311.74836   -11174.183     52.96797   -11227.151    11035.218 
  958400    354.45239   -11161.361    60.223649   -11221.585   -28379.109 
  958600    298.57801   -11179.603    50.730246   -11230.334    3827.9331 
  958800    303.04847   -11177.696    51.489806   -11229.186    29018.329 
  959000    301.02585   -11169.663     51.14615   -11220.809    65535.869 
  959200    268.03089   -11181.651    45.540103   -11227.191   -44808.302 
  959400    295.66447   -11179.929    50.235218   -11230.164   -11905.748 
  959600    305.01373   -11171.511    51.823716   -11223.335   -29629.383 
  959800    321.37506   -11171.045    54.603607   -11225.649   -65232.111 
  960000    337.26367   -11170.296    57.303179   -11227.599    -23827.81 
  960200    249.63061   -11185.569    42.413781   -11227.983    50992.218 
  960400    341.84435   -11163.883    58.081465   -11221.964   -52018.271 
  960600    260.00335    -11175.96    44.176174   -11220.137   -20230.091 
  960800    357.52256   -11162.811    60.745289   -11223.556   -33185.718 
  961000    296.96595   -11175.017    50.456349   -11225.474    8924.5548 
  961200    286.12727   -11177.512    48.614789   -11226.127    62917.255 
  961400    296.42129   -11167.934    50.363808   -11218.298   -4132.4928 
  961600    258.07481   -11178.629    43.848503   -11222.477    17837.807 
  961800    281.24096   -11175.763    47.784576   -11223.548   -22187.896 
  962000    386.43543   -11165.385    65.657764   -11231.043   -39580.416 
  962200    275.78448    -11185.55    46.857486   -11232.408     1642.912 
  962400     316.1275   -11170.019    53.712013   -11223.731   -8779.7821 
  962600    307.71071   -11165.723    52.281949   -11218.005    47700.256 
  962800    268.70048   -11183.082     45.65387   -11228.736    46987.382 
  963000    328.83069   -11170.931    55.870364   -11226.802    45756.436 
  963200    320.09148   -11166.139    54.385519   -11220.525    65650.504 
  963400    309.88513   -11172.372    52.651397   -11225.023   -14640.795 
  963600    296.39188   -11175.375     50.35881   -11225.733    5129.1205 
  963800    328.75165   -11161.955    55.856934   -11217.812    16048.602 
  964000    324.23452    -11162.31    55.089446   -11217.399    11057.912 
  964200    246.88088   -11181.193    41.946585    -11223.14   -50440.044 
  964400    343.47651   -11166.398    58.358779   -11224.757   -5275.0297 
  964600    401.07593   -11154.727    68.145276   -11222.873    31127.835 
  964800     310.1766   -11171.824     52.70092   -11224.525   -13567.009 
  965000    299.00916   -11174.907    50.803502   -11225.711    17394.648 
  965200    355.74039    -11164.27    60.442489   -11224.712    26015.323 
  965400    301.19908   -11172.081    51.175583   -11223.257    1818.2551 
  965600    285.41384    -11178.53    48.493573   -11227.024    35038.957 
  965800    315.92492   -11168.683    53.677594   -11222.361    18676.432 
  966000    260.89366   -11170.842    44.327443    -11215.17   -24180.278 
  966200    289.47407   -11175.918    49.183431   -11225.101    32040.231 
  966400    278.67007   -11181.645    47.347764   -11228.993    407.84795 
  966600    332.96195   -11162.996    56.572291   -11219.569    34439.727 
  966800    323.13062   -11177.528    54.901888    -11232.43   -55085.378 
  967000    289.09189    -11179.98    49.118496   -11229.098    7694.5461 
  967200    297.25181   -11174.324    50.504918   -11224.829    -10441.57 
  967400    329.67541   -11163.098    56.013887   -11219.112   -22922.183 
  967600    298.82242   -11163.441    50.771773   -11214.213    42991.776 
  967800    310.91388   -11171.261    52.826187   -11224.088   -29485.477 
  968000    276.25843   -11182.333    46.938013   -11229.271    7239.3226 
  968200    291.75323   -11182.684    49.570674   -11232.254   -18414.713 
  968400    304.66419   -11167.863    51.764326   -11219.628    60590.437 
  968600    330.51936   -11177.577    56.157279   -11233.734    9868.3079 
  968800    277.26252   -11177.368    47.108614   -11224.477   -36284.161 
  969000    309.12021   -11168.753    52.521431   -11221.274    39425.468 
  969200    249.70379   -11179.655    42.426215   -11222.082    92827.529 
  969400    358.70138    -11159.92    60.945579   -11220.865   -86017.202 
  969600    264.73581   -11168.798    44.980249   -11213.779   -18346.699 
  969800    278.98162   -11175.238    47.400699   -11222.639   -32067.002 
  970000    329.74036   -11164.552    56.024923   -11220.577    43444.688 
  970200    353.36917   -11157.222    60.039603   -11217.261    53070.598 
  970400    316.62303   -11176.205    53.796207   -11230.002   -8975.0146 
  970600    353.42206    -11170.29    60.048589   -11230.339   -79551.674 
  970800    314.63591    -11159.79    53.458584   -11213.249    46114.383 
  971000    291.12645   -11171.444    49.464182   -11220.908   -46886.957 
  971200    263.58036   -11181.452    44.783931   -11226.236   -41491.963 
  971400    298.93287   -11166.176     50.79054   -11216.966        10716 
  971600    285.00656   -11168.628    48.424374   -11217.053    -25283.96 
  971800    269.86464   -11182.423    45.851669   -11228.275   -96304.045 
  972000    302.71631   -11174.258    51.433369   -11225.691   -45710.053 
  972200    345.89505   -11169.164    58.769705   -11227.934    34634.237 
  972400    292.37893   -11186.792    49.676985   -11236.469   -9950.6033 
  972600    308.82595   -11175.968    52.471435    -11228.44    63470.811 
  972800    267.26494   -11169.338    45.409964   -11214.747    87421.321 
  973000    285.23551   -11175.586    48.463274   -11224.049   -47748.322 
  973200    248.35554   -11187.527    42.197139   -11229.724   -51491.425 
  973400    251.62456   -11168.644    42.752566   -11211.396   -36434.504 
  973600    287.24283   -11172.329     48.80433   -11221.133   -14628.284 
  973800    290.67057   -11181.405    49.386724   -11230.792   -39597.786 
  974000      371.253   -11162.684    63.078176   -11225.762    67384.871 
  974200    330.67049    -11164.63    56.182957   -11220.813   -11291.592 
  974400    273.47986   -11179.961    46.465916   -11226.427   -3950.1793 
  974600    345.07183   -11167.019    58.629834   -11225.649   -56154.535 
  974800    307.96914   -11172.179    52.325858   -11224.505    65199.647 
  975000    323.64159   -11171.639    54.988703   -11226.627    26135.172 
  975200    243.25104   -11180.757    41.329853   -11222.086    4502.7418 
  975400    288.04925    -11171.08    48.941346   -11220.022    6873.2156 
  975600    336.46958   -11166.921    57.168259   -11224.089    37217.921 
  975800     268.1444   -11180.207    45.559389   -11225.767    76711.362 
  976000      332.127     -11167.3    56.430427    -11223.73    39251.464 
  976200    300.51804   -11175.456    51.059869   -11226.516     14367.44 
  976400    254.57651   -11191.942    43.254121   -11235.196   -41585.667 
  976600    273.43773   -11184.309    46.458758   -11230.768    38877.938 
  976800    326.12167   -11168.667    55.410084   -11224.077   -13233.273 
  977000    281.13344   -11167.613    47.766307    -11215.38   -11053.179 
  977200      249.719   -11185.685      42.4288   -11228.114    49085.694 
  977400    319.22435   -11172.725    54.238187   -11226.964   -13787.886 
  977600     309.9466   -11171.838    52.661841     -11224.5   -21074.282 
  977800      279.713   -11185.188    47.524965   -11232.713    42508.145 
  978000    295.27653   -11173.475    50.169306   -11223.645    567.36489 
  978200    297.84187   -11171.847    50.605173   -11222.452    16128.054 
  978400    297.24015   -11175.197    50.502937     -11225.7   -28248.024 
  978600    333.66931   -11163.523    56.692475   -11220.215    17637.357 
  978800    280.35642   -11181.778    47.634286   -11229.412    -8500.728 
  979000    245.87834   -11170.645    41.776248   -11212.421   -38670.549 
  979200    371.12438   -11158.542    63.056324   -11221.598   -16784.871 
  979400    312.05007   -11171.718    53.019232   -11224.738   -75104.305 
  979600    278.61157   -11183.651    47.337826   -11230.989   -31198.105 
  979800    282.68671   -11165.702    48.030217   -11213.732    46964.358 
  980000    314.57015   -11170.144     53.44741   -11223.591    58159.253 
  980200    286.98695   -11172.905    48.760854   -11221.666    13519.728 
  980400    290.95389   -11180.775    49.434862    -11230.21   -60480.069 
  980600     354.8941   -11166.794    60.298698   -11227.093   -34540.595 
  980800    278.11984   -11185.969    47.254277   -11233.223   -11322.947 
  981000    247.04874   -11182.253    41.975105   -11224.228   -12770.387 
  981200     293.2845   -11172.894    49.830847   -11222.725   -23086.957 
  981400    324.10104   -11168.416    55.066768   -11223.483     27650.61 
  981600    324.19812   -11170.603    55.083262   -11225.686   -24763.285 
  981800    274.66798   -11178.981    46.667785   -11225.649   -30542.321 
  982000    344.51478   -11162.613    58.535188   -11221.148   -26259.181 
  982200    313.46352   -11172.724    53.259388   -11225.983    36879.172 
  982400    322.25594   -11180.526    54.753274   -11235.279   -2015.6833 
  982600    291.65506   -11175.143    49.553996   -11224.697   -16166.205 
  982800    272.44372   -11168.903     46.28987   -11215.193    35410.114 
  983000    313.53192   -11161.226    53.271008   -11214.497   -85922.437 
  983200    330.33837   -11181.228    56.126528   -11237.354   -34040.154 
  983400    291.96207   -11173.389    49.606157   -11222.995   -83626.004 
  983600    319.96397   -11167.861    54.363854   -11222.224   -24646.177 
  983800    269.13919   -11178.036    45.728409   -11223.765   -65398.402 
  984000    314.81927   -11169.242    53.489737   -11222.732    55478.554 
  984200    278.87602    -11175.61    47.382757   -11222.993    17118.628 
  984400    302.70381   -11182.461    51.431246   -11233.892    56715.637 
  984600    283.23357   -11170.463    48.123132   -11218.586    53438.086 
  984800    332.03176   -11162.715    56.414246   -11219.129    4937.9333 
  985000    257.53099   -11180.566    43.756105   -11224.322   -42231.998 
  985200    329.10479   -11167.381    55.916936   -11223.298   -10935.199 
  985400      268.788   -11183.293     45.66874   -11228.962    49847.109 
  985600    313.92523   -11179.514    53.337834   -11232.851    3768.4003 
  985800    323.08679   -11170.346    54.894441    -11225.24     8729.658 
  986000    316.65628   -11173.899    53.801857     -11227.7    64632.279 
  986200    229.50964   -11187.423    38.995105   -11226.418    52014.049 
  986400     294.0501   -11170.932    49.960927   -11220.893    5923.3356 
  986600     307.0442   -11174.364    52.168705   -11226.533    7815.6387 
  986800    245.38433   -11188.732    41.692312   -11230.424     62690.46 
  987000    313.03038   -11168.027    53.185793   -11221.213   -71689.175 
  987200    276.31994   -11171.903    46.948464   -11218.851   -25229.403 
  987400    242.75808   -11186.958    41.246096   -11228.204     21303.09 
  987600    288.54111   -11173.772    49.024915   -11222.797   -6416.6667 
  987800    297.87199   -11170.711     50.61029   -11221.321   -49363.253 
  988000     304.9805   -11166.428     51.81807   -11218.246    83798.854 
  988200    242.30926    -11181.14     41.16984    -11222.31   -34043.149 
  988400    312.23843    -11170.77    53.051237   -11223.821   -23175.076 
  988600    329.79625   -11164.835    56.034418   -11220.869   -9206.7679 
  988800    262.07324   -11176.166    44.527861   -11220.694    49283.013 
  989000    281.93924    -11173.11    47.903217   -11221.013     58520.48 
  989200    241.75118    -11174.77    41.075018   -11215.845    38707.841 
  989400    410.34259   -11151.248    69.719739   -11220.968    7265.0585 
  989600    319.93436   -11165.001    54.358823   -11219.359    5879.2603 
  989800    255.65356   -11175.733    43.437117    -11219.17     30475.93 
  990000    360.89717   -11163.133    61.318658   -11224.451   -48568.262 
  990200    310.60747   -11171.553    52.774126   -11224.327   -50657.646 
  990400     323.7096   -11174.542    55.000259   -11229.542   -77503.558 
  990600    278.61571   -11162.381     47.33853   -11209.719   -7354.7603 
  990800    315.56101   -11160.737    53.615764   -11214.352    42428.974 
  991000    319.16251   -11174.434    54.227681   -11228.662   -8397.3609 
  991200    256.74197   -11180.369    43.622045   -11223.991     15202.85 
  991400    321.32751   -11163.047    54.595528   -11217.643   -52869.574 
  991600    313.60017    -11165.67    53.282605   -11218.953    10748.252 
  991800    269.49119   -11175.083    45.788216   -11220.871    25215.694 
  992000    312.35548   -11169.007    53.071125   -11222.078    23629.383 
  992200    392.51789    -11153.96    66.691213   -11220.651    153269.04 
  992400    326.84569   -11171.008      55.5331   -11226.542   -37629.715 
  992600      334.188   -11174.283    56.780605   -11231.063   -27175.069 
  992800    336.83604   -11153.594    57.230523   -11210.824       -77134 
  993000    305.46953   -11172.689    51.901158    -11224.59   -57355.526 
  993200    315.07305   -11172.416    53.532857   -11225.949    67357.759 
  993400    300.48529   -11165.153    51.054306   -11216.207   -31055.248 
  993600    288.87815   -11180.285     49.08218   -11229.367   -29221.459 
  993800    297.90555   -11175.737    50.615992   -11226.353    29861.342 
  994000    332.35049   -11163.212      56.4684    -11219.68    11191.224 
  994200    284.01311   -11177.344     48.25558     -11225.6    45997.776 
  994400    293.30391   -11171.276    49.834144    -11221.11   -11479.699 
  994600    286.51838   -11171.022    48.681241   -11219.703   -10544.055 
  994800     237.7666   -11177.077    40.398013   -11217.475   -16050.024 
  995000    321.74068   -11174.492    54.665728   -11229.158     1109.149 
  995200    360.44967   -11158.969    61.242624   -11220.212    12309.661 
  995400    278.35781   -11180.677    47.294711   -11227.972   -22031.811 
  995600    282.34011   -11172.379    47.971328    -11220.35   -370.82349 
  995800    318.21005   -11168.863    54.065852   -11222.929    4844.5827 
  996000    257.25654   -11186.441    43.709474    -11230.15   -11740.665 
  996200    239.49023   -11188.841    40.690869   -11229.532   -45803.487 
  996400    291.07921   -11172.417    49.456155   -11221.874     25569.81 
  996600    328.15741   -11163.584    55.755969    -11219.34    3446.5423 
  996800     312.8867   -11172.572    53.161382   -11225.733    60181.574 
  997000    315.37476   -11178.953    53.584119   -11232.538   -38172.789 
  997200    358.89336    -11158.45    60.978197   -11219.428   -53542.571 
  997400    335.30826   -11163.395    56.970943   -11220.366    12305.989 
  997600    278.36206   -11182.322    47.295432   -11229.618    12199.813 
  997800    334.52516   -11170.128     56.83789   -11226.966   -10324.492 
  998000    258.60068    -11172.84    43.937852   -11216.778   -29373.594 
  998200    214.51386   -11184.035    36.447228   -11220.482   -12145.839 
  998400     317.1299   -11166.191    53.882327   -11220.074   -37695.189 
  998600    361.13881   -11168.189    61.359712   -11229.549   -45920.841 
  998800    264.49455   -11186.965    44.939257   -11231.905   -84399.141 
  999000    309.01262   -11178.017    52.503151    -11230.52    5992.3249 
  999200    260.78926   -11168.897    44.309705   -11213.207   -62612.274 
  999400    324.42088    -11154.24    55.121111   -11209.361   -31337.311 
  999600    299.21372   -11178.023    50.838258   -11228.861    10971.515 
  999800    280.77638   -11176.507    47.705639   -11224.213   -16575.915 
 1000000    361.01112   -11163.089    61.338018   -11224.427   -41443.679 
Loop time of 5019.58 on 8 procs for 1000000 steps with 58 atoms

Performance: 4.303 ns/day, 5.577 hours/ns, 199.220 timesteps/s
99.5% CPU use with 8 MPI tasks x no OpenMP threads

MPI task timing breakdown:
Section |  min time  |  avg time  |  max time  |%varavg| %total
---------------------------------------------------------------
Pair    | 3871.9     | 4097.7     | 4485.6     | 304.0 | 81.64
Neigh   | 0.38745    | 0.41238    | 0.45744    |   3.3 |  0.01
Comm    | 17.338     | 405.09     | 631.03     | 965.0 |  8.07
Output  | 0.089453   | 0.096807   | 0.13762    |   5.0 |  0.00
Modify  | 512.53     | 513.6      | 515.24     |   3.5 | 10.23
Other   |            | 2.642      |            |       |  0.05

Nlocal:    7.25 ave 11 max 3 min
Histogram: 1 1 0 2 0 0 1 0 2 1
Nghost:    695.625 ave 750 max 658 min
Histogram: 1 2 0 1 1 0 2 0 0 1
Neighs:    1141.25 ave 1688 max 484 min
Histogram: 1 1 0 0 2 0 1 0 2 1

Total # of neighbors = 9130
Ave neighs/atom = 157.414
Neighbor list builds = 444
Dangerous builds = 0

Please see the log.cite file for references relevant to this simulation

Total wall time: 1:23:50
