ITEM: TIMESTEP
0
ITEM: NUMBER OF ATOMS
49
ITEM: BOX BOUNDS pp pp pp
0.0000000000000000e+00 1.1000000000000000e+01
0.0000000000000000e+00 1.1002000000000001e+01
0.0000000000000000e+00 1.1000000000000000e+01
ITEM: ATOMS id type x y z 
10 1 4.603 4.603 4.603 
11 1 3.085 3.085 3.085 
12 1 3.796 3.796 3.796 
46 1 0.726 0.725 0.725 
47 1 2.26 2.259 2.26 
48 1 1.551 1.55 1.55 
19 1 4.546 4.545 6.226 
20 1 3.013 3.013 7.764 
21 1 3.721 3.721 7.053 
31 1 0.668 0.667 10.103 
32 1 2.187 2.187 8.589 
33 1 1.476 1.475 9.298 
16 1 4.546 6.225 4.546 
17 1 3.013 7.765 3.013 
18 1 3.721 7.053 3.722 
25 1 0.668 10.103 0.668 
26 1 2.188 8.589 2.188 
27 1 1.476 9.298 1.476 
4 1 4.608 6.169 6.169 
5 1 3.086 7.684 7.684 
6 1 3.799 6.974 6.974 
37 1 0.729 10.046 10.046 
38 1 2.259 8.509 8.508 
39 1 1.552 9.219 9.219 
13 1 6.225 4.546 4.546 
14 1 7.764 3.013 3.013 
15 1 7.053 3.721 3.722 
28 1 10.102 0.667 0.668 
29 1 8.589 2.187 2.188 
30 1 9.298 1.475 1.476 
49 2 7.304 3.284 4.694 
1 1 6.168 4.608 6.169 
2 1 7.684 3.086 7.684 
3 1 6.974 3.799 6.974 
40 1 10.045 0.728 10.046 
41 1 8.508 2.259 8.508 
42 1 9.218 1.551 9.218 
7 1 6.169 6.169 4.608 
8 1 7.684 7.684 3.086 
9 1 6.974 6.974 3.799 
43 1 10.046 10.047 0.729 
44 1 8.508 8.509 2.259 
45 1 9.219 9.219 1.552 
22 1 6.229 6.229 6.229 
23 1 7.764 7.765 7.765 
24 1 7.055 7.056 7.055 
34 1 10.108 10.108 10.107 
35 1 8.59 8.59 8.59 
36 1 9.301 9.301 9.3 
ITEM: TIMESTEP
10
ITEM: NUMBER OF ATOMS
49
ITEM: BOX BOUNDS pp pp pp
0.0000000000000000e+00 1.1000000000000000e+01
0.0000000000000000e+00 1.1002000000000001e+01
0.0000000000000000e+00 1.1000000000000000e+01
ITEM: ATOMS id type x y z 
10 1 4.5785 4.59629 4.59784 
11 1 3.08235 3.07836 3.07823 
12 1 3.78438 3.79239 3.7929 
46 1 0.727334 0.725329 0.726052 
47 1 2.25675 2.25571 2.2578 
48 1 1.5487 1.54746 1.54516 
19 1 4.54433 4.54696 6.23562 
20 1 3.01036 3.00774 7.76619 
21 1 3.71691 3.72161 7.05935 
31 1 0.664313 0.666372 10.1061 
32 1 2.18635 2.18776 8.5875 
33 1 1.47753 1.47522 9.29879 
16 1 4.53131 6.23904 4.54917 
17 1 3.00957 7.76709 3.0074 
18 1 3.71566 7.0601 3.72176 
25 1 0.665163 10.1069 0.667024 
26 1 2.18876 8.58953 2.18859 
27 1 1.47508 9.29655 1.47604 
4 1 4.61001 6.17252 6.17336 
5 1 3.08538 7.68604 7.68591 
6 1 3.79632 6.97414 6.97479 
37 1 0.728866 10.0471 10.0459 
38 1 2.25877 8.50984 8.50803 
39 1 1.5521 9.21832 9.21963 
13 1 6.12374 4.65911 4.57138 
14 1 7.79308 2.9856 2.93667 
15 1 7.12937 3.64204 3.70207 
28 1 10.0877 0.679843 0.681298 
29 1 8.58764 2.18753 2.18309 
30 1 9.3045 1.47234 1.47338 
49 2 7.36224 3.21087 4.71634 
1 1 6.16534 4.61346 6.19572 
2 1 7.68782 3.08001 7.68614 
3 1 6.97446 3.80205 6.98741 
40 1 10.0445 0.728325 10.0449 
41 1 8.51142 2.25599 8.51165 
42 1 9.22197 1.5479 9.22015 
7 1 6.17666 6.19411 4.60684 
8 1 7.6925 7.68772 3.07933 
9 1 6.97748 6.98735 3.79226 
43 1 10.0456 10.0459 0.730163 
44 1 8.51139 8.51276 2.25566 
45 1 9.22328 9.22202 1.54821 
22 1 6.2265 6.23018 6.2388 
23 1 7.75687 7.75533 7.75452 
24 1 7.06092 7.06707 7.0679 
34 1 10.1083 10.1102 10.11 
35 1 8.58775 8.58768 8.58887 
36 1 9.30019 9.30131 9.298 
ITEM: TIMESTEP
20
ITEM: NUMBER OF ATOMS
49
ITEM: BOX BOUNDS pp pp pp
0.0000000000000000e+00 1.1000000000000000e+01
0.0000000000000000e+00 1.1002000000000001e+01
0.0000000000000000e+00 1.1000000000000000e+01
ITEM: ATOMS id type x y z 
10 1 4.58362 4.60033 4.59782 
11 1 3.07882 3.07468 3.07551 
12 1 3.78312 3.79137 3.79056 
46 1 0.729691 0.726063 0.724895 
47 1 2.25811 2.25688 2.25687 
48 1 1.54822 1.54559 1.54682 
19 1 4.54149 4.54736 6.24988 
20 1 3.00782 3.00792 7.76649 
21 1 3.72036 3.72129 7.06117 
31 1 0.666141 0.667149 10.1031 
32 1 2.18603 2.18496 8.59056 
33 1 1.47201 1.47384 9.2988 
16 1 4.51465 6.2537 4.55785 
17 1 3.00861 7.76867 3.00479 
18 1 3.71381 7.06071 3.7265 
25 1 0.668751 10.1026 0.668416 
26 1 2.18613 8.59086 2.18662 
27 1 1.47435 9.29944 1.47299 
4 1 4.60364 6.17209 6.16753 
5 1 3.08499 7.68503 7.68675 
6 1 3.79577 6.97706 6.97422 
37 1 0.72926 10.0451 10.0453 
38 1 2.25904 8.50847 8.50875 
39 1 1.55184 9.22112 9.21886 
13 1 6.12933 4.64987 4.56489 
14 1 7.78744 2.99371 2.93358 
15 1 7.13155 3.63654 3.72575 
28 1 10.0948 0.67463 0.674883 
29 1 8.58924 2.18768 2.17871 
30 1 9.30368 1.46966 1.46652 
49 2 7.38112 3.18849 4.71363 
1 1 6.15858 4.61731 6.18798 
2 1 7.68609 3.08466 7.68607 
3 1 6.97079 3.80061 6.98374 
40 1 10.0459 0.72744 10.0433 
41 1 8.51066 2.25771 8.50961 
42 1 9.22036 1.54789 9.21897 
7 1 6.17293 6.19162 4.60064 
8 1 7.69635 7.6922 3.07506 
9 1 6.97958 6.98891 3.79058 
43 1 10.0455 10.0438 0.729307 
44 1 8.51203 8.51243 2.2549 
45 1 9.22483 9.22321 1.54759 
22 1 6.22584 6.23404 6.25628 
23 1 7.76914 7.76992 7.76702 
24 1 7.05371 7.05652 7.06292 
34 1 10.1074 10.1101 10.1055 
35 1 8.59091 8.5907 8.59116 
36 1 9.30192 9.30308 9.30031 
ITEM: TIMESTEP
30
ITEM: NUMBER OF ATOMS
49
ITEM: BOX BOUNDS pp pp pp
0.0000000000000000e+00 1.1000000000000000e+01
0.0000000000000000e+00 1.1002000000000001e+01
0.0000000000000000e+00 1.1000000000000000e+01
ITEM: ATOMS id type x y z 
10 1 4.60821 4.61158 4.60003 
11 1 3.08466 3.08475 3.08615 
12 1 3.79619 3.79642 3.7932 
46 1 0.733976 0.720716 0.721563 
47 1 2.26048 2.25827 2.26033 
48 1 1.55678 1.54801 1.54613 
19 1 4.54612 4.54437 6.26658 
20 1 3.00543 3.00434 7.77215 
21 1 3.71929 3.72407 7.07451 
31 1 0.658896 0.667384 10.1008 
32 1 2.18533 2.18342 8.58848 
33 1 1.46932 1.47376 9.29644 
16 1 4.48843 6.27991 4.59009 
17 1 3.00312 7.77372 2.99664 
18 1 3.69205 7.08081 3.74623 
25 1 0.669535 10.1056 0.663395 
26 1 2.18581 8.59139 2.18101 
27 1 1.47378 9.29948 1.46668 
4 1 4.59249 6.18307 6.16084 
5 1 3.08071 7.68821 7.69471 
6 1 3.78777 6.98496 6.97267 
37 1 0.733771 10.0417 10.0398 
38 1 2.2617 8.50894 8.50823 
39 1 1.55223 9.21842 9.2202 
13 1 6.12212 4.65924 4.53636 
14 1 7.77847 3.01235 2.9146 
15 1 7.17004 3.58582 3.79545 
28 1 10.1051 0.664734 0.659799 
29 1 8.57579 2.20045 2.14386 
30 1 9.3043 1.4748 1.45603 
49 2 7.475 3.07201 4.72571 
1 1 6.13036 4.64586 6.17675 
2 1 7.6668 3.10201 7.67263 
3 1 6.95689 3.81879 6.97245 
40 1 10.0459 0.725852 10.0308 
41 1 8.50253 2.26563 8.50111 
42 1 9.21397 1.55703 9.2063 
7 1 6.16129 6.16884 4.59981 
8 1 7.68673 7.6882 3.0804 
9 1 6.97881 6.98099 3.79553 
43 1 10.0527 10.0399 0.723659 
44 1 8.51316 8.50959 2.25713 
45 1 9.223 9.21931 1.54842 
22 1 6.22647 6.22994 6.27325 
23 1 7.7713 7.77089 7.77127 
24 1 7.04832 7.05579 7.07744 
34 1 10.108 10.118 10.102 
35 1 8.58997 8.58932 8.58936 
36 1 9.30298 9.30634 9.29297 
ITEM: TIMESTEP
40
ITEM: NUMBER OF ATOMS
49
ITEM: BOX BOUNDS pp pp pp
0.0000000000000000e+00 1.1000000000000000e+01
0.0000000000000000e+00 1.1002000000000001e+01
0.0000000000000000e+00 1.1000000000000000e+01
ITEM: ATOMS id type x y z 
10 1 4.61363 4.6097 4.59952 
11 1 3.08467 3.08516 3.08628 
12 1 3.79722 3.79559 3.79253 
46 1 0.734127 0.722699 0.720597 
47 1 2.26102 2.25772 2.25882 
48 1 1.5549 1.54778 1.54775 
19 1 4.5446 4.54576 6.26516 
20 1 3.00708 3.00732 7.77236 
21 1 3.72191 3.72292 7.07174 
31 1 0.657121 0.669455 10.1007 
32 1 2.18331 2.18194 8.58947 
33 1 1.46815 1.47241 9.29818 
16 1 4.48816 6.28092 4.59452 
17 1 3.00202 7.77453 3.00149 
18 1 3.69385 7.07916 3.74525 
25 1 0.66838 10.1061 0.66345 
26 1 2.18496 8.59153 2.17772 
27 1 1.47255 9.30216 1.46654 
4 1 4.59074 6.18453 6.15886 
5 1 3.08029 7.68904 7.69356 
6 1 3.78813 6.98406 6.97445 
37 1 0.732352 10.0425 10.0399 
38 1 2.26013 8.50966 8.51082 
39 1 1.55111 9.22102 9.22074 
13 1 6.12696 4.65399 4.53469 
14 1 7.77714 3.01228 2.91579 
15 1 7.17133 3.58417 3.80166 
28 1 10.1056 0.664965 0.661087 
29 1 8.57674 2.20337 2.1399 
30 1 9.3013 1.47557 1.45042 
49 2 7.47841 3.06661 4.7291 
1 1 6.13117 4.64566 6.17441 
2 1 7.66877 3.10165 7.6727 
3 1 6.95515 3.81818 6.97599 
40 1 10.0458 0.726453 10.031 
41 1 8.50254 2.2662 8.50074 
42 1 9.21299 1.5569 9.20506 
7 1 6.16423 6.16396 4.60012 
8 1 7.68721 7.68848 3.08284 
9 1 6.97698 6.97834 3.79231 
43 1 10.0504 10.0412 0.723799 
44 1 8.51376 8.51123 2.25612 
45 1 9.22462 9.21906 1.54726 
22 1 6.22447 6.23115 6.27109 
23 1 7.76798 7.76888 7.77213 
24 1 7.04985 7.05403 7.07459 
34 1 10.1062 10.119 10.0999 
35 1 8.59339 8.59198 8.58938 
36 1 9.3026 9.30805 9.29747 
ITEM: TIMESTEP
50
ITEM: NUMBER OF ATOMS
49
ITEM: BOX BOUNDS pp pp pp
0.0000000000000000e+00 1.1000000000000000e+01
0.0000000000000000e+00 1.1002000000000001e+01
0.0000000000000000e+00 1.1000000000000000e+01
ITEM: ATOMS id type x y z 
10 1 4.61921 4.60675 4.59893 
11 1 3.08528 3.08556 3.08708 
12 1 3.79955 3.79553 3.79134 
46 1 0.733388 0.724687 0.721119 
47 1 2.26178 2.25809 2.25961 
48 1 1.55472 1.54881 1.54793 
19 1 4.54506 4.54527 6.26186 
20 1 3.00862 3.00822 7.77306 
21 1 3.72286 3.72267 7.07036 
31 1 0.655575 0.671242 10.101 
32 1 2.18364 2.18169 8.58957 
33 1 1.46644 1.47371 9.2978 
16 1 4.48909 6.2803 4.59638 
17 1 3.00026 7.77539 3.00492 
18 1 3.69485 7.07927 3.74647 
25 1 0.666905 10.1072 0.663398 
26 1 2.18475 8.59145 2.17619 
27 1 1.4723 9.30315 1.46619 
4 1 4.58892 6.18609 6.15744 
5 1 3.07937 7.69033 7.69477 
6 1 3.78636 6.98525 6.97488 
37 1 0.730851 10.044 10.0404 
38 1 2.25919 8.51079 8.51279 
39 1 1.54961 9.2222 9.22175 
13 1 6.13175 4.64871 4.53312 
14 1 7.77717 3.01196 2.91675 
15 1 7.17551 3.57896 3.80849 
28 1 10.1052 0.665624 0.662647 
29 1 8.57519 2.2075 2.13547 
30 1 9.29722 1.4788 1.44418 
49 2 7.4836 3.05856 4.73403 
1 1 6.1308 4.64514 6.17404 
2 1 7.66819 3.1019 7.67305 
3 1 6.95472 3.81972 6.97726 
40 1 10.0447 0.727499 10.03 
41 1 8.50185 2.2669 8.49892 
42 1 9.21274 1.5575 9.20491 
7 1 6.16684 6.15846 4.59936 
8 1 7.68664 7.68872 3.08399 
9 1 6.97743 6.97501 3.79045 
43 1 10.0487 10.0423 0.723948 
44 1 8.5137 8.51081 2.25649 
45 1 9.22396 9.21959 1.54778 
22 1 6.22485 6.23091 6.2672 
23 1 7.76702 7.7675 7.77343 
24 1 7.04996 7.05306 7.0731 
34 1 10.1043 10.1209 10.0995 
35 1 8.59371 8.59232 8.58915 
36 1 9.30178 9.30892 9.29763 
ITEM: TIMESTEP
60
ITEM: NUMBER OF ATOMS
49
ITEM: BOX BOUNDS pp pp pp
0.0000000000000000e+00 1.1000000000000000e+01
0.0000000000000000e+00 1.1002000000000001e+01
0.0000000000000000e+00 1.1000000000000000e+01
ITEM: ATOMS id type x y z 
10 1 4.62163 4.60584 4.59827 
11 1 3.08521 3.08601 3.08683 
12 1 3.80159 3.7945 3.79152 
46 1 0.732671 0.725459 0.721189 
47 1 2.26178 2.25804 2.25967 
48 1 1.55458 1.5494 1.54814 
19 1 4.54525 4.54499 6.26037 
20 1 3.00957 3.0085 7.77322 
21 1 3.72321 3.72269 7.06984 
31 1 0.654109 0.672642 10.101 
32 1 2.18307 2.18206 8.58898 
33 1 1.46732 1.47412 9.29855 
16 1 4.48979 6.2799 4.59717 
17 1 2.99997 7.77537 3.00673 
18 1 3.69469 7.07968 3.74758 
25 1 0.666531 10.1085 0.663421 
26 1 2.18517 8.59191 2.17559 
27 1 1.47128 9.3026 1.46636 
4 1 4.5881 6.18691 6.15618 
5 1 3.0791 7.69064 7.6955 
6 1 3.78537 6.98624 6.97445 
37 1 0.729949 10.0451 10.0408 
38 1 2.25879 8.51145 8.5135 
39 1 1.54881 9.22254 9.2228 
13 1 6.13417 4.64604 4.53218 
14 1 7.77737 3.01199 2.91725 
15 1 7.17814 3.57561 3.81247 
28 1 10.105 0.665773 0.663358 
29 1 8.57366 2.20959 2.13282 
30 1 9.29559 1.48093 1.44098 
49 2 7.48669 3.05376 4.73695 
1 1 6.13051 4.64575 6.17465 
2 1 7.66771 3.10274 7.6739 
3 1 6.95459 3.81949 6.97655 
40 1 10.044 0.727949 10.0295 
41 1 8.50171 2.26681 8.49861 
42 1 9.21247 1.55842 9.20405 
7 1 6.16813 6.15549 4.59857 
8 1 7.68656 7.68833 3.08381 
9 1 6.97776 6.97403 3.79055 
43 1 10.0481 10.0433 0.724165 
44 1 8.51378 8.5109 2.2568 
45 1 9.22343 9.21977 1.5477 
22 1 6.22512 6.23079 6.26544 
23 1 7.76634 7.76633 7.77348 
24 1 7.05001 7.05277 7.07264 
34 1 10.103 10.1217 10.1 
35 1 8.59328 8.59187 8.58943 
36 1 9.30145 9.30984 9.29653 
ITEM: TIMESTEP
70
ITEM: NUMBER OF ATOMS
49
ITEM: BOX BOUNDS pp pp pp
0.0000000000000000e+00 1.1000000000000000e+01
0.0000000000000000e+00 1.1002000000000001e+01
0.0000000000000000e+00 1.1000000000000000e+01
ITEM: ATOMS id type x y z 
10 1 4.66076 4.58419 4.59066 
11 1 3.09163 3.08923 3.08277 
12 1 3.82181 3.78378 3.7864 
46 1 0.721943 0.7349 0.724695 
47 1 2.26248 2.25866 2.26401 
48 1 1.55167 1.55623 1.55054 
19 1 4.55011 4.54283 6.24476 
20 1 3.02089 3.01244 7.77165 
21 1 3.73128 3.7209 7.06136 
31 1 0.646118 0.692696 10.105 
32 1 2.18864 2.18742 8.58949 
33 1 1.46087 1.48809 9.29536 
16 1 4.50005 6.2768 4.60015 
17 1 2.99754 7.78445 3.02592 
18 1 3.68961 7.0811 3.76369 
25 1 0.656825 10.1174 0.664486 
26 1 2.17747 8.5914 2.17627 
27 1 1.47163 9.30669 1.46565 
4 1 4.57341 6.20277 6.13565 
5 1 3.07494 7.69964 7.70279 
6 1 3.77064 6.99596 6.97168 
37 1 0.715538 10.0545 10.0547 
38 1 2.24928 8.51657 8.52901 
39 1 1.54161 9.23526 9.2318 
13 1 6.16517 4.61197 4.52083 
14 1 7.77732 3.01316 2.92636 
15 1 7.22208 3.52062 3.8784 
28 1 10.0968 0.675506 0.663509 
29 1 8.54656 2.2514 2.08221 
30 1 9.2729 1.5044 1.41482 
49 2 7.53911 2.97205 4.78578 
1 1 6.12471 4.6516 6.17233 
2 1 7.66141 3.11149 7.67374 
3 1 6.94578 3.82934 6.98161 
40 1 10.0388 0.734694 10.0177 
41 1 8.49699 2.27329 8.4913 
42 1 9.20669 1.56493 9.1978 
7 1 6.18989 6.1167 4.58791 
8 1 7.68353 7.6853 3.08234 
9 1 6.98994 6.95078 3.78259 
43 1 10.0382 10.0574 0.726018 
44 1 8.51411 8.5126 2.26042 
45 1 9.21822 9.2251 1.55 
22 1 6.22924 6.22654 6.24532 
23 1 7.76228 7.75205 7.77565 
24 1 7.04979 7.04413 7.06589 
34 1 10.0856 10.133 10.0991 
35 1 8.58656 8.59172 8.58388 
36 1 9.2876 9.31127 9.29595 
ITEM: TIMESTEP
80
ITEM: NUMBER OF ATOMS
49
ITEM: BOX BOUNDS pp pp pp
0.0000000000000000e+00 1.1000000000000000e+01
0.0000000000000000e+00 1.1002000000000001e+01
0.0000000000000000e+00 1.1000000000000000e+01
ITEM: ATOMS id type x y z 
10 1 4.66042 4.58278 4.5906 
11 1 3.09331 3.08756 3.08352 
12 1 3.82302 3.78418 3.78542 
46 1 0.720921 0.736773 0.722916 
47 1 2.26165 2.25929 2.26238 
48 1 1.54982 1.55557 1.55073 
19 1 4.54675 4.54459 6.24364 
20 1 3.02144 3.01063 7.77109 
21 1 3.73092 3.72285 7.06174 
31 1 0.645072 0.693108 10.1051 
32 1 2.18643 2.18866 8.58821 
33 1 1.46484 1.48769 9.29854 
16 1 4.49961 6.2749 4.60175 
17 1 2.99548 7.78189 3.02731 
18 1 3.69247 7.08379 3.76236 
25 1 0.659154 10.117 0.663549 
26 1 2.17978 8.59297 2.17703 
27 1 1.46861 9.30536 1.46826 
4 1 4.57256 6.20173 6.13338 
5 1 3.07328 7.69725 7.702 
6 1 3.77314 6.99923 6.97021 
37 1 0.716465 10.0561 10.0534 
38 1 2.25025 8.51919 8.52841 
39 1 1.54017 9.23188 9.23432 
13 1 6.16512 4.6121 4.51829 
14 1 7.77711 3.0144 2.92612 
15 1 7.22246 3.51918 3.88371 
28 1 10.0945 0.67508 0.664199 
29 1 8.54472 2.24938 2.08156 
30 1 9.27588 1.50827 1.41294 
49 2 7.54181 2.96757 4.78802 
1 1 6.12507 4.65261 6.17426 
2 1 7.66135 3.11189 7.67695 
3 1 6.94735 3.82742 6.9795 
40 1 10.0394 0.734352 10.0189 
41 1 8.49603 2.27432 8.49183 
42 1 9.20741 1.56455 9.19582 
7 1 6.19123 6.11526 4.58747 
8 1 7.68595 7.68253 3.08104 
9 1 6.98965 6.95268 3.78331 
43 1 10.0364 10.0583 0.725513 
44 1 8.51362 8.51323 2.25935 
45 1 9.21795 9.2274 1.5506 
22 1 6.22694 6.22953 6.24538 
23 1 7.76204 7.75185 7.77427 
24 1 7.04935 7.04369 7.06448 
34 1 10.0853 10.1312 10.0996 
35 1 8.58598 8.59074 8.58579 
36 1 9.28777 9.31238 9.29517 
ITEM: TIMESTEP
90
ITEM: NUMBER OF ATOMS
49
ITEM: BOX BOUNDS pp pp pp
0.0000000000000000e+00 1.1000000000000000e+01
0.0000000000000000e+00 1.1002000000000001e+01
0.0000000000000000e+00 1.1000000000000000e+01
ITEM: ATOMS id type x y z 
10 1 4.66086 4.58229 4.59043 
11 1 3.0938 3.0868 3.08319 
12 1 3.82363 3.78327 3.78523 
46 1 0.720419 0.737298 0.722552 
47 1 2.26132 2.25961 2.26197 
48 1 1.54934 1.55592 1.55069 
19 1 4.54645 4.54512 6.24347 
20 1 3.02186 3.0104 7.77081 
21 1 3.73038 3.7232 7.06143 
31 1 0.645526 0.693339 10.1053 
32 1 2.18668 2.18877 8.58837 
33 1 1.46476 1.48833 9.29879 
16 1 4.49978 6.27497 4.60118 
17 1 2.99514 7.78187 3.02778 
18 1 3.69277 7.08334 3.76171 
25 1 0.65938 10.1164 0.663217 
26 1 2.17965 8.5934 2.17767 
27 1 1.46845 9.30573 1.46896 
4 1 4.57226 6.20204 6.13301 
5 1 3.07308 7.69742 7.7017 
6 1 3.77277 6.99961 6.96961 
37 1 0.716605 10.056 10.0537 
38 1 2.25052 8.51941 8.52841 
39 1 1.54001 9.23123 9.23488 
13 1 6.16503 4.61224 4.51826 
14 1 7.77689 3.01482 2.9266 
15 1 7.22307 3.51812 3.88579 
28 1 10.0942 0.675847 0.663806 
29 1 8.54444 2.25038 2.08129 
30 1 9.27485 1.50819 1.41302 
49 2 7.54338 2.96496 4.78931 
1 1 6.12488 4.65261 6.17429 
2 1 7.6609 3.11215 7.67733 
3 1 6.94749 3.82776 6.97933 
40 1 10.0394 0.734149 10.0188 
41 1 8.496 2.27448 8.49206 
42 1 9.20759 1.56446 9.19574 
7 1 6.1919 6.11485 4.58731 
8 1 7.68685 7.68206 3.08085 
9 1 6.99028 6.95192 3.78265 
43 1 10.0361 10.0591 0.725353 
44 1 8.51356 8.51368 2.2592 
45 1 9.21738 9.22815 1.55022 
22 1 6.22649 6.22967 6.24535 
23 1 7.76231 7.75185 7.77385 
24 1 7.04914 7.04421 7.06412 
34 1 10.085 10.1311 10.0999 
35 1 8.58551 8.59049 8.5863 
36 1 9.28785 9.31202 9.29524 
ITEM: TIMESTEP
100
ITEM: NUMBER OF ATOMS
49
ITEM: BOX BOUNDS pp pp pp
0.0000000000000000e+00 1.1000000000000000e+01
0.0000000000000000e+00 1.1002000000000001e+01
0.0000000000000000e+00 1.1000000000000000e+01
ITEM: ATOMS id type x y z 
10 1 4.66183 4.57771 4.59034 
11 1 3.09779 3.08043 3.082 
12 1 3.83071 3.77595 3.78157 
46 1 0.714987 0.741901 0.71996 
47 1 2.25736 2.26221 2.25946 
48 1 1.54702 1.55844 1.54751 
19 1 4.5425 4.55075 6.24118 
20 1 3.02293 3.01122 7.76802 
21 1 3.73021 3.72245 7.05868 
31 1 0.647444 0.697518 10.1089 
32 1 2.18776 2.19218 8.59023 
33 1 1.46736 1.48933 9.29976 
16 1 4.50243 6.27424 4.59579 
17 1 2.99212 7.7821 3.03098 
18 1 3.69541 7.07967 3.75679 
25 1 0.660557 10.1121 0.660049 
26 1 2.1773 8.59696 2.18507 
27 1 1.46873 9.30893 1.47274 
4 1 4.56884 6.20482 6.12789 
5 1 3.06989 7.69923 7.69792 
6 1 3.77168 7.00299 6.96656 
37 1 0.717838 10.0531 10.0588 
38 1 2.25169 8.51987 8.53048 
39 1 1.53972 9.22918 9.23678 
13 1 6.16684 4.61039 4.51726 
14 1 7.77498 3.01807 2.93215 
15 1 7.22978 3.50731 3.90372 
28 1 10.09 0.682014 0.661308 
29 1 8.5404 2.25748 2.07981 
30 1 9.26789 1.51212 1.41219 
49 2 7.55748 2.94124 4.80028 
1 1 6.12295 4.65458 6.17516 
2 1 7.65828 3.11454 7.68008 
3 1 6.94714 3.83013 6.97996 
40 1 10.0408 0.732812 10.016 
41 1 8.49636 2.27586 8.4933 
42 1 9.20672 1.56486 9.19573 
7 1 6.19791 6.11233 4.58606 
8 1 7.69501 7.67649 3.07897 
9 1 6.99473 6.94735 3.77803 
43 1 10.0319 10.0655 0.723738 
44 1 8.51084 8.51693 2.25708 
45 1 9.21537 9.23455 1.54903 
22 1 6.22231 6.23269 6.24317 
23 1 7.76202 7.75407 7.76841 
24 1 7.04947 7.04303 7.06322 
34 1 10.0841 10.1302 10.1001 
35 1 8.58351 8.58799 8.5889 
36 1 9.28508 9.30922 9.29884 
ITEM: TIMESTEP
110
ITEM: NUMBER OF ATOMS
49
ITEM: BOX BOUNDS pp pp pp
0.0000000000000000e+00 1.1000000000000000e+01
0.0000000000000000e+00 1.1002000000000001e+01
0.0000000000000000e+00 1.1000000000000000e+01
ITEM: ATOMS id type x y z 
10 1 4.66452 4.57584 4.58925 
11 1 3.10052 3.07771 3.08065 
12 1 3.83143 3.77407 3.78159 
46 1 0.713896 0.743577 0.718337 
47 1 2.25751 2.26253 2.25826 
48 1 1.54395 1.56057 1.54704 
19 1 4.54238 4.5511 6.23936 
20 1 3.02298 3.01038 7.76692 
21 1 3.73017 3.72441 7.05844 
31 1 0.647894 0.698271 10.1098 
32 1 2.18881 2.19188 8.59007 
33 1 1.46722 1.49242 9.30174 
16 1 4.50454 6.27241 4.59254 
17 1 2.99215 7.78123 3.03089 
18 1 3.695 7.07999 3.75798 
25 1 0.661397 10.112 0.659057 
26 1 2.17661 8.59979 2.18859 
27 1 1.46753 9.30754 1.47273 
4 1 4.56803 6.20674 6.12514 
5 1 3.07006 7.70055 7.69719 
6 1 3.76904 7.00356 6.96368 
37 1 0.717729 10.0515 10.0612 
38 1 2.25105 8.51954 8.5303 
39 1 1.54109 9.22903 9.23917 
13 1 6.16797 4.60866 4.51866 
14 1 7.77456 3.01888 2.93551 
15 1 7.23224 3.5031 3.91115 
28 1 10.0867 0.683427 0.660558 
29 1 8.53723 2.25901 2.07989 
30 1 9.26715 1.51705 1.41103 
49 2 7.56319 2.93153 4.80413 
1 1 6.12285 4.65602 6.17416 
2 1 7.65819 3.11625 7.68007 
3 1 6.94444 3.83081 6.98164 
40 1 10.0406 0.732317 10.0152 
41 1 8.49508 2.27674 8.49425 
42 1 9.20807 1.56513 9.19432 
7 1 6.19879 6.11041 4.58383 
8 1 7.69658 7.67437 3.07658 
9 1 6.99884 6.94571 3.77898 
43 1 10.0304 10.0686 0.72418 
44 1 8.51095 8.51871 2.2568 
45 1 9.21327 9.23548 1.54774 
22 1 6.22192 6.23217 6.24221 
23 1 7.7623 7.75421 7.76789 
24 1 7.04906 7.04369 7.06158 
34 1 10.0828 10.1299 10.1011 
35 1 8.58226 8.58676 8.59063 
36 1 9.28504 9.30942 9.29793 
ITEM: TIMESTEP
120
ITEM: NUMBER OF ATOMS
49
ITEM: BOX BOUNDS pp pp pp
0.0000000000000000e+00 1.1000000000000000e+01
0.0000000000000000e+00 1.1002000000000001e+01
0.0000000000000000e+00 1.1000000000000000e+01
ITEM: ATOMS id type x y z 
10 1 4.66624 4.57437 4.58816 
11 1 3.10221 3.07679 3.07968 
12 1 3.82989 3.77467 3.78266 
46 1 0.713088 0.744792 0.71786 
47 1 2.25772 2.26257 2.25809 
48 1 1.54396 1.56075 1.5465 
19 1 4.54261 4.55042 6.23913 
20 1 3.02351 3.01017 7.76733 
21 1 3.72897 3.72545 7.05755 
31 1 0.647525 0.699419 10.1105 
32 1 2.1891 2.19183 8.59019 
33 1 1.46712 1.49289 9.302 
16 1 4.50526 6.27183 4.59269 
17 1 2.99197 7.78185 3.03164 
18 1 3.69529 7.07997 3.75722 
25 1 0.660874 10.1122 0.658327 
26 1 2.1757 8.60006 2.18904 
27 1 1.46734 9.30773 1.47259 
4 1 4.56758 6.20732 6.12345 
5 1 3.07015 7.70058 7.69645 
6 1 3.76876 7.00395 6.96231 
37 1 0.718043 10.0508 10.063 
38 1 2.25091 8.51956 8.5303 
39 1 1.5412 9.2287 9.24001 
13 1 6.16996 4.60714 4.51925 
14 1 7.77479 3.01812 2.93759 
15 1 7.23321 3.50154 3.91389 
28 1 10.0852 0.684203 0.660364 
29 1 8.53652 2.2602 2.07979 
30 1 9.2663 1.51807 1.41092 
49 2 7.56511 2.92809 4.80478 
1 1 6.12214 4.65632 6.17472 
2 1 7.65725 3.11645 7.68103 
3 1 6.94545 3.83157 6.98122 
40 1 10.0409 0.732397 10.0141 
41 1 8.49495 2.27743 8.49368 
42 1 9.20714 1.56542 9.19455 
7 1 6.19961 6.10941 4.58334 
8 1 7.69684 7.67389 3.07664 
9 1 6.99916 6.94488 3.77873 
43 1 10.0295 10.0699 0.724265 
44 1 8.51124 8.51865 2.25608 
45 1 9.21308 9.23591 1.54808 
22 1 6.22295 6.23175 6.24149 
23 1 7.76236 7.75276 7.76888 
24 1 7.04802 7.04551 7.06001 
34 1 10.0822 10.1302 10.1016 
35 1 8.58242 8.58675 8.59044 
36 1 9.28457 9.30984 9.29791 
ITEM: TIMESTEP
130
ITEM: NUMBER OF ATOMS
49
ITEM: BOX BOUNDS pp pp pp
0.0000000000000000e+00 1.1000000000000000e+01
0.0000000000000000e+00 1.1002000000000001e+01
0.0000000000000000e+00 1.1000000000000000e+01
ITEM: ATOMS id type x y z 
10 1 4.66643 4.5741 4.58832 
11 1 3.10214 3.07689 3.07972 
12 1 3.83073 3.77408 3.78239 
46 1 0.712758 0.745239 0.71772 
47 1 2.25795 2.26232 2.25803 
48 1 1.54383 1.56129 1.54611 
19 1 4.54242 4.55044 6.23867 
20 1 3.02356 3.01036 7.76725 
21 1 3.72888 3.72556 7.05738 
31 1 0.647367 0.699907 10.1108 
32 1 2.1892 2.19185 8.59017 
33 1 1.46728 1.49314 9.30224 
16 1 4.5055 6.27152 4.5923 
17 1 2.99193 7.78198 3.03185 
18 1 3.69541 7.08003 3.75717 
25 1 0.660926 10.1122 0.657876 
26 1 2.17553 8.60027 2.18913 
27 1 1.46689 9.3077 1.47276 
4 1 4.56745 6.2074 6.12278 
5 1 3.07004 7.70082 7.69603 
6 1 3.76863 7.00399 6.96209 
37 1 0.71815 10.0506 10.0638 
38 1 2.2509 8.51962 8.53035 
39 1 1.54122 9.2284 9.24031 
13 1 6.17033 4.60657 4.5193 
14 1 7.7749 3.01785 2.93843 
15 1 7.23367 3.50082 3.91509 
28 1 10.0848 0.684584 0.66026 
29 1 8.53633 2.26079 2.07971 
30 1 9.26576 1.51823 1.41094 
49 2 7.566 2.9265 4.80517 
1 1 6.12229 4.65645 6.17476 
2 1 7.65745 3.11675 7.68103 
3 1 6.94477 3.8316 6.98178 
40 1 10.0408 0.732424 10.0138 
41 1 8.49476 2.27763 8.49383 
42 1 9.2072 1.56542 9.19421 
7 1 6.19997 6.1089 4.58324 
8 1 7.69699 7.67371 3.07655 
9 1 6.99944 6.94458 3.77861 
43 1 10.0291 10.0706 0.724337 
44 1 8.51126 8.51856 2.25604 
45 1 9.21297 9.23607 1.54796 
22 1 6.22319 6.23194 6.24105 
23 1 7.76235 7.75244 7.76908 
24 1 7.04773 7.04604 7.05962 
34 1 10.0819 10.1305 10.1017 
35 1 8.58233 8.58681 8.59039 
36 1 9.28459 9.30962 9.29802 
ITEM: TIMESTEP
140
ITEM: NUMBER OF ATOMS
49
ITEM: BOX BOUNDS pp pp pp
0.0000000000000000e+00 1.1000000000000000e+01
0.0000000000000000e+00 1.1002000000000001e+01
0.0000000000000000e+00 1.1000000000000000e+01
ITEM: ATOMS id type x y z 
10 1 4.66988 4.57027 4.58836 
11 1 3.10378 3.07572 3.07888 
12 1 3.83348 3.77165 3.78166 
46 1 0.709463 0.750044 0.715706 
47 1 2.2594 2.26122 2.25706 
48 1 1.54331 1.56428 1.54333 
19 1 4.54087 4.55127 6.2355 
20 1 3.02352 3.01172 7.7671 
21 1 3.72811 3.72605 7.05546 
31 1 0.646942 0.703786 10.1141 
32 1 2.19093 2.19186 8.59085 
33 1 1.46686 1.49578 9.30317 
16 1 4.50804 6.26981 4.58904 
17 1 2.99203 7.78359 3.03356 
18 1 3.69538 7.07984 3.75673 
25 1 0.660918 10.1122 0.654585 
26 1 2.17287 8.60176 2.19117 
27 1 1.4656 9.30782 1.47239 
4 1 4.56706 6.20829 6.11797 
5 1 3.06962 7.7021 7.69292 
6 1 3.76702 7.00517 6.95837 
37 1 0.718502 10.048 10.0696 
38 1 2.25031 8.51982 8.53071 
39 1 1.54199 9.22672 9.24346 
13 1 6.17406 4.60215 4.52002 
14 1 7.7759 3.01577 2.94562 
15 1 7.23752 3.49452 3.92572 
28 1 10.0806 0.687033 0.659993 
29 1 8.53387 2.26438 2.07956 
30 1 9.26274 1.52191 1.41012 
49 2 7.57388 2.91232 4.80887 
1 1 6.12194 4.65802 6.17645 
2 1 7.6565 3.1187 7.68265 
3 1 6.94327 3.8334 6.98342 
40 1 10.0407 0.732111 10.0104 
41 1 8.49363 2.27915 8.49411 
42 1 9.20677 1.56594 9.19302 
7 1 6.20292 6.10414 4.58169 
8 1 7.69816 7.67159 3.07422 
9 1 7.00277 6.94298 3.7789 
43 1 10.0248 10.0761 0.724858 
44 1 8.51176 8.5176 2.2552 
45 1 9.21123 9.23806 1.54775 
22 1 6.22281 6.23401 6.23772 
23 1 7.76069 7.752 7.76946 
24 1 7.04757 7.04657 7.05755 
34 1 10.0801 10.1317 10.1026 
35 1 8.58221 8.58576 8.59104 
36 1 9.28378 9.31037 9.2974 
ITEM: TIMESTEP
150
ITEM: NUMBER OF ATOMS
49
ITEM: BOX BOUNDS pp pp pp
0.0000000000000000e+00 1.1000000000000000e+01
0.0000000000000000e+00 1.1002000000000001e+01
0.0000000000000000e+00 1.1000000000000000e+01
ITEM: ATOMS id type x y z 
10 1 4.67021 4.57007 4.58817 
11 1 3.10406 3.07548 3.07876 
12 1 3.83342 3.77154 3.78168 
46 1 0.709336 0.750845 0.715113 
47 1 2.25955 2.26179 2.25651 
48 1 1.54319 1.5636 1.54405 
19 1 4.54088 4.55109 6.23534 
20 1 3.02353 3.01157 7.76683 
21 1 3.72802 3.72636 7.05581 
31 1 0.646609 0.704339 10.114 
32 1 2.19047 2.19213 8.59065 
33 1 1.46771 1.49557 9.30386 
16 1 4.50793 6.26958 4.58885 
17 1 2.99165 7.78344 3.03369 
18 1 3.69604 7.08018 3.75667 
25 1 0.660719 10.1119 0.654391 
26 1 2.17279 8.60173 2.19132 
27 1 1.46567 9.30795 1.47249 
4 1 4.56652 6.20844 6.11746 
5 1 3.06927 7.70201 7.69264 
6 1 3.76743 7.00561 6.95822 
37 1 0.718621 10.0477 10.07 
38 1 2.2505 8.51972 8.5309 
39 1 1.54177 9.22665 9.24328 
13 1 6.17426 4.60204 4.5203 
14 1 7.77595 3.01575 2.94607 
15 1 7.23773 3.49411 3.92647 
28 1 10.0804 0.687018 0.660037 
29 1 8.53385 2.26476 2.07947 
30 1 9.26231 1.52164 1.41032 
49 2 7.57444 2.91128 4.80924 
1 1 6.12175 4.65807 6.1764 
2 1 7.6562 3.11886 7.68281 
3 1 6.94343 3.83366 6.98336 
40 1 10.0407 0.731962 10.0101 
41 1 8.49352 2.27928 8.49406 
42 1 9.20666 1.56609 9.19285 
7 1 6.20342 6.1044 4.58198 
8 1 7.69853 7.67176 3.07504 
9 1 7.00231 6.94183 3.77743 
43 1 10.0245 10.0765 0.724794 
44 1 8.51194 8.51779 2.25491 
45 1 9.2112 9.23838 1.54755 
22 1 6.22306 6.23383 6.2374 
23 1 7.76106 7.75203 7.76922 
24 1 7.04712 7.04686 7.05814 
34 1 10.08 10.132 10.1024 
35 1 8.58227 8.5861 8.59062 
36 1 9.28348 9.30974 9.29835 
ITEM: TIMESTEP
160
ITEM: NUMBER OF ATOMS
49
ITEM: BOX BOUNDS pp pp pp
0.0000000000000000e+00 1.1000000000000000e+01
0.0000000000000000e+00 1.1002000000000001e+01
0.0000000000000000e+00 1.1000000000000000e+01
ITEM: ATOMS id type x y z 
10 1 4.6703 4.56999 4.58812 
11 1 3.10414 3.0754 3.07869 
12 1 3.83355 3.77138 3.78166 
46 1 0.709249 0.75108 0.714955 
47 1 2.25959 2.26182 2.25639 
48 1 1.54312 1.56364 1.54402 
19 1 4.54086 4.55112 6.23532 
20 1 3.02353 3.0116 7.76679 
21 1 3.72801 3.72636 7.05575 
31 1 0.646632 0.704521 10.1142 
32 1 2.19052 2.19215 8.5907 
33 1 1.46766 1.49571 9.30391 
16 1 4.50797 6.2696 4.58881 
17 1 2.99158 7.78351 3.03386 
18 1 3.69616 7.08008 3.75648 
25 1 0.660766 10.1118 0.654237 
26 1 2.17275 8.60176 2.19139 
27 1 1.46564 9.30796 1.47255 
4 1 4.56639 6.20858 6.11724 
5 1 3.06927 7.70208 7.69254 
6 1 3.76731 7.00566 6.95804 
37 1 0.718652 10.0475 10.0703 
38 1 2.25054 8.51966 8.53098 
39 1 1.54173 9.22664 9.24324 
13 1 6.17437 4.60197 4.52041 
14 1 7.77599 3.01573 2.94633 
15 1 7.23786 3.49387 3.92689 
28 1 10.0803 0.687071 0.659999 
29 1 8.53374 2.26489 2.07941 
30 1 9.26226 1.52164 1.41048 
49 2 7.57475 2.91069 4.80944 
1 1 6.12164 4.65812 6.17642 
2 1 7.65607 3.11897 7.68294 
3 1 6.94348 3.83374 6.98329 
40 1 10.0407 0.731889 10.0099 
41 1 8.49347 2.27935 8.49408 
42 1 9.20664 1.5661 9.19276 
7 1 6.20363 6.10435 4.58195 
8 1 7.69869 7.6717 3.07516 
9 1 7.0022 6.94157 3.77709 
43 1 10.0243 10.0768 0.724788 
44 1 8.51196 8.51779 2.25485 
45 1 9.21112 9.23852 1.54753 
22 1 6.2231 6.23376 6.2374 
23 1 7.76115 7.75199 7.76928 
24 1 7.04704 7.04708 7.05804 
34 1 10.0799 10.132 10.1024 
35 1 8.58226 8.58608 8.59067 
36 1 9.28342 9.3098 9.29837 
ITEM: TIMESTEP
170
ITEM: NUMBER OF ATOMS
49
ITEM: BOX BOUNDS pp pp pp
0.0000000000000000e+00 1.1000000000000000e+01
0.0000000000000000e+00 1.1002000000000001e+01
0.0000000000000000e+00 1.1000000000000000e+01
ITEM: ATOMS id type x y z 
10 1 4.67519 4.56453 4.585 
11 1 3.11087 3.07172 3.07328 
12 1 3.83718 3.76256 3.78481 
46 1 0.701902 0.763618 0.708993 
47 1 2.25885 2.26309 2.25344 
48 1 1.54499 1.56778 1.53653 
19 1 4.53899 4.55258 6.23198 
20 1 3.02301 3.01246 7.76317 
21 1 3.72912 3.7293 7.05437 
31 1 0.645708 0.71519 10.1222 
32 1 2.19186 2.19449 8.59252 
33 1 1.46801 1.5019 9.30846 
16 1 4.51257 6.26782 4.58122 
17 1 2.9895 7.78547 3.037 
18 1 3.6977 7.08018 3.75428 
25 1 0.662775 10.1056 0.646143 
26 1 2.16929 8.60359 2.19691 
27 1 1.46618 9.30835 1.47271 
4 1 4.56168 6.21326 6.10685 
5 1 3.06652 7.70461 7.6866 
6 1 3.76454 7.01104 6.94935 
37 1 0.718486 10.038 10.0821 
38 1 2.24984 8.51753 8.53321 
39 1 1.54392 9.22504 9.24655 
13 1 6.18157 4.5957 4.52425 
14 1 7.77805 3.0145 2.96016 
15 1 7.24639 3.47896 3.95012 
28 1 10.0739 0.68803 0.663021 
29 1 8.52993 2.26973 2.08223 
30 1 9.25437 1.52697 1.4085 
49 2 7.59238 2.87763 4.82057 
1 1 6.1186 4.66408 6.17496 
2 1 7.65375 3.12386 7.68452 
3 1 6.93801 3.83977 6.99048 
40 1 10.0421 0.727521 9.99998 
41 1 8.49108 2.28273 8.49432 
42 1 9.20603 1.56636 9.18988 
7 1 6.21048 6.10084 4.57738 
8 1 7.70287 7.66572 3.07203 
9 1 7.0078 6.93343 3.77361 
43 1 10.0146 10.0901 0.72524 
44 1 8.51224 8.51833 2.25231 
45 1 9.20642 9.24434 1.54715 