ITEM: TIMESTEP
0
ITEM: NUMBER OF ATOMS
83
ITEM: BOX BOUNDS pp pp pp
0.0000000000000000e+00 1.3416000000000000e+01
0.0000000000000000e+00 1.3416000000000000e+01
0.0000000000000000e+00 1.3414999999999999e+01
ITEM: ATOMS id type x y z 
21 1 1.912 1.912 1.912 
22 1 2.794 2.794 2.795 
23 1 0.386 2.099 2.099 
33 1 2.098 2.099 0.386 
37 1 2.099 0.386 2.099 
41 1 4.371 4.372 4.372 
42 1 3.489 3.489 3.489 
43 1 4.184 5.897 4.185 
53 1 4.185 4.185 5.898 
57 1 5.897 4.185 4.185 
4 1 1.912 1.912 11.079 
5 1 2.794 2.794 10.197 
6 1 2.099 0.386 10.892 
16 1 2.098 2.099 12.605 
19 1 0.386 2.099 10.892 
64 1 4.371 4.372 8.62 
65 1 3.489 3.489 9.502 
66 1 5.897 4.185 8.807 
76 1 4.185 4.185 7.094 
79 1 4.184 5.897 8.807 
10 1 1.911 11.079 1.912 
11 1 2.794 10.197 2.795 
12 1 2.099 12.605 2.099 
15 1 2.099 10.892 0.386 
18 1 0.386 10.892 2.099 
67 1 4.372 8.62 4.371 
68 1 3.489 9.502 3.489 
69 1 5.897 8.807 4.185 
74 1 4.185 8.807 5.897 
80 1 4.185 7.094 4.185 
30 1 1.911 11.079 11.079 
31 1 2.794 10.197 10.197 
32 1 0.386 10.892 10.892 
35 1 2.099 10.892 12.605 
38 1 2.099 12.605 10.892 
47 1 4.372 8.62 8.62 
48 1 3.489 9.502 9.502 
49 1 4.184 7.094 8.807 
54 1 4.184 8.807 7.094 
60 1 5.897 8.807 8.807 
7 1 11.08 1.912 1.912 
8 1 10.197 2.794 2.795 
9 1 10.893 0.386 2.099 
14 1 10.893 2.099 0.386 
20 1 12.606 2.099 2.099 
70 1 8.62 4.372 4.372 
71 1 9.502 3.489 3.489 
72 1 7.094 4.185 4.185 
75 1 8.807 4.185 5.897 
78 1 8.807 5.898 4.185 
27 1 11.08 1.912 11.079 
28 1 10.197 2.794 10.197 
29 1 12.606 2.099 10.892 
34 1 10.893 2.099 12.605 
40 1 10.893 0.386 10.892 
50 1 8.62 4.372 8.62 
51 1 9.502 3.489 9.502 
52 1 8.807 5.897 8.807 
55 1 8.807 4.185 7.094 
58 1 7.094 4.185 8.807 
24 1 11.08 11.08 1.912 
25 1 10.197 10.197 2.795 
26 1 12.606 10.892 2.099 
36 1 10.893 10.892 0.386 
39 1 10.893 12.605 2.099 
44 1 8.62 8.62 4.372 
45 1 9.502 9.502 3.489 
46 1 8.807 7.094 4.185 
56 1 8.807 8.807 5.898 
59 1 7.094 8.807 4.185 
1 1 11.08 11.079 11.079 
2 1 10.197 10.197 10.197 
3 1 10.893 12.605 10.892 
13 1 10.893 10.892 12.605 
17 1 12.606 10.892 10.892 
61 1 8.62 8.62 8.62 
62 1 9.502 9.502 9.502 
63 1 7.094 8.807 8.807 
73 1 8.807 8.807 7.094 
77 1 8.807 7.094 8.807 
81 2 9.797 11.436 11.304 
82 2 8.3 11.348 11.468 
83 3 7.874 12.218 11.575 
ITEM: TIMESTEP
10
ITEM: NUMBER OF ATOMS
83
ITEM: BOX BOUNDS pp pp pp
0.0000000000000000e+00 1.3416000000000000e+01
0.0000000000000000e+00 1.3416000000000000e+01
0.0000000000000000e+00 1.3414999999999999e+01
ITEM: ATOMS id type x y z 
21 1 1.91045 1.90953 1.91087 
22 1 2.79569 2.7963 2.79591 
23 1 0.385199 2.10742 2.10748 
33 1 2.10653 2.10745 0.385469 
37 1 2.1075 0.384971 2.1074 
41 1 4.37298 4.37251 4.37371 
42 1 3.48714 3.48819 3.48743 
43 1 4.17583 5.89794 4.17639 
53 1 4.17646 4.17649 5.89828 
57 1 5.89781 4.17654 4.17656 
4 1 1.91209 1.9098 11.0809 
5 1 2.79621 2.7965 10.1958 
6 1 2.10698 0.386369 10.8831 
16 1 2.1066 2.10736 12.6057 
19 1 0.389517 2.10663 10.8824 
64 1 4.37283 4.37292 8.61807 
65 1 3.48757 3.48794 9.50391 
66 1 5.8973 4.17654 8.81553 
76 1 4.17645 4.17649 7.09354 
79 1 4.1755 5.89791 8.8155 
10 1 1.91081 11.0816 1.91125 
11 1 2.79619 10.1954 2.79555 
12 1 2.10727 12.6057 2.10743 
15 1 2.10674 10.8831 0.386601 
18 1 0.387137 10.8829 2.10696 
67 1 4.37281 8.61835 4.37352 
68 1 3.48759 9.50354 3.48703 
69 1 5.89806 8.8155 4.17636 
74 1 4.17616 8.81527 5.8976 
80 1 4.17622 7.09347 4.1766 
30 1 1.9383 11.0851 11.0847 
31 1 2.79935 10.1949 10.1947 
32 1 0.420977 10.8791 10.8796 
35 1 2.10914 10.8839 12.608 
38 1 2.10908 12.6075 10.8838 
47 1 4.37072 8.61747 8.6174 
48 1 3.48914 9.50197 9.50198 
49 1 4.17562 7.0933 8.81539 
54 1 4.17599 8.81554 7.09334 
60 1 5.89289 8.8159 8.81588 
7 1 11.0817 1.91054 1.91271 
8 1 10.196 2.79631 2.79666 
9 1 10.8839 0.387736 2.10691 
14 1 10.8834 2.10664 0.392039 
20 1 12.6065 2.10737 2.10747 
70 1 8.61769 4.37284 4.37295 
71 1 9.50421 3.48807 3.48761 
72 1 7.09331 4.17661 4.17655 
75 1 8.81549 4.17653 5.89753 
78 1 8.81544 5.89822 4.17654 
27 1 11.0829 1.958 11.0885 
28 1 10.1921 2.80317 10.1922 
29 1 12.6139 2.1119 10.8832 
34 1 10.8837 2.11159 12.6118 
40 1 10.8949 0.450696 10.8652 
50 1 8.61628 4.37182 8.61626 
51 1 9.49869 3.4927 9.49869 
52 1 8.81588 5.89306 8.81593 
55 1 8.81542 4.17641 7.09283 
58 1 7.09257 4.17639 8.81543 
24 1 11.0855 11.0869 1.95123 
25 1 10.1947 10.1946 2.80014 
26 1 12.6092 10.8837 2.10961 
36 1 10.882 10.875 0.442793 
39 1 10.8845 12.6089 2.1095 
44 1 8.61705 8.61726 4.37172 
45 1 9.50162 9.50186 3.49 
46 1 8.81544 7.09293 4.17644 
56 1 8.81579 8.8159 5.89307 
59 1 7.09326 8.81547 4.1765 
1 1 11.0578 11.1091 11.1037 
2 1 10.1614 10.1436 10.1443 
3 1 10.9146 12.6771 10.8521 
13 1 10.8916 10.8561 12.6616 
17 1 12.6493 10.8663 10.869 
61 1 8.60097 8.59987 8.60021 
62 1 9.45373 9.45744 9.45735 
63 1 7.08643 8.81684 8.81688 
73 1 8.81686 8.81676 7.08615 
77 1 8.81684 7.08662 8.81681 
81 2 9.80856 11.3803 11.2924 
82 2 8.23723 11.3784 11.4768 
83 3 7.8938 12.1833 11.571 
ITEM: TIMESTEP
20
ITEM: NUMBER OF ATOMS
83
ITEM: BOX BOUNDS pp pp pp
0.0000000000000000e+00 1.3416000000000000e+01
0.0000000000000000e+00 1.3416000000000000e+01
0.0000000000000000e+00 1.3414999999999999e+01
ITEM: ATOMS id type x y z 
21 1 1.9108 1.91024 1.91108 
22 1 2.79622 2.79645 2.7965 
23 1 0.385086 2.10912 2.10919 
33 1 2.10823 2.10916 0.385196 
37 1 2.10918 0.384411 2.10915 
41 1 4.37329 4.37393 4.37395 
42 1 3.48712 3.4879 3.4875 
43 1 4.17456 5.89868 4.17507 
53 1 4.17514 4.17505 5.89876 
57 1 5.89821 4.17514 4.17525 
4 1 1.91355 1.91081 11.0812 
5 1 2.7971 2.79669 10.1953 
6 1 2.10838 0.386721 10.8809 
16 1 2.1085 2.10909 12.6067 
19 1 0.390695 2.1076 10.8797 
64 1 4.37252 4.37323 8.61816 
65 1 3.48768 3.48796 9.50376 
66 1 5.89714 4.17495 8.81723 
76 1 4.17482 4.17488 7.09159 
79 1 4.174 5.89822 8.81716 
10 1 1.91197 11.0814 1.91176 
11 1 2.79681 10.195 2.79636 
12 1 2.10909 12.6068 2.10918 
15 1 2.10805 10.8809 0.387648 
18 1 0.388605 10.8803 2.10788 
67 1 4.37294 8.6182 4.37319 
68 1 3.48767 9.50353 3.48742 
69 1 5.89782 8.81713 4.17492 
74 1 4.17469 8.81695 5.89801 
80 1 4.17462 7.09101 4.17503 
30 1 1.94029 11.0854 11.085 
31 1 2.80189 10.1944 10.1942 
32 1 0.413902 10.8755 10.8766 
35 1 2.11265 10.8823 12.6095 
38 1 2.1126 12.6096 10.8822 
47 1 4.36914 8.61684 8.61676 
48 1 3.48982 9.50117 9.50105 
49 1 4.17364 7.09132 8.81706 
54 1 4.17402 8.81717 7.09115 
60 1 5.89003 8.81832 8.81829 
7 1 11.0819 1.91184 1.914 
8 1 10.1957 2.79692 2.79767 
9 1 10.8814 0.388766 2.10804 
14 1 10.8808 2.10772 0.39231 
20 1 12.6077 2.10921 2.10942 
70 1 8.61782 4.37287 4.37259 
71 1 9.50372 3.48801 3.48795 
72 1 7.0912 4.17494 4.17484 
75 1 8.81725 4.17487 5.89742 
78 1 8.81715 5.89814 4.1749 
27 1 11.0849 1.96317 11.0897 
28 1 10.1914 2.80679 10.1918 
29 1 12.6144 2.11678 10.8821 
34 1 10.882 2.11611 12.6143 
40 1 10.8962 0.447688 10.859 
50 1 8.61525 4.37057 8.61526 
51 1 9.4975 3.49346 9.49746 
52 1 8.81837 5.89072 8.81842 
55 1 8.81719 4.17435 7.09051 
58 1 7.09013 4.17432 8.81718 
24 1 11.0859 11.0883 1.95475 
25 1 10.1934 10.1936 2.80416 
26 1 12.6119 10.8823 2.11425 
36 1 10.8828 10.8679 0.437168 
39 1 10.8828 12.6119 2.11398 
44 1 8.61647 8.61665 4.36992 
45 1 9.49983 9.49986 3.49143 
46 1 8.81717 7.0913 4.17443 
56 1 8.81828 8.81838 5.89034 
59 1 7.09088 8.81718 4.17443 
1 1 11.0497 11.1048 11.0993 
2 1 10.1667 10.1459 10.1466 
3 1 10.9117 12.6778 10.8516 
13 1 10.8892 10.8564 12.6662 
17 1 12.6444 10.8668 10.869 
61 1 8.58921 8.58958 8.58968 
62 1 9.46681 9.46731 9.4672 
63 1 7.08252 8.81841 8.81845 
73 1 8.81846 8.81835 7.08275 
77 1 8.81849 7.08309 8.81845 
81 2 9.82334 11.3788 11.2897 
82 2 8.23575 11.3642 11.476 
83 3 7.889 12.1966 11.5726 
ITEM: TIMESTEP
30
ITEM: NUMBER OF ATOMS
83
ITEM: BOX BOUNDS pp pp pp
0.0000000000000000e+00 1.3416000000000000e+01
0.0000000000000000e+00 1.3416000000000000e+01
0.0000000000000000e+00 1.3414999999999999e+01
ITEM: ATOMS id type x y z 
21 1 1.91182 1.91094 1.91159 
22 1 2.79617 2.79614 2.79645 
23 1 0.387975 2.11548 2.11556 
33 1 2.1146 2.11552 0.386921 
37 1 2.11536 0.386157 2.11555 
41 1 4.37183 4.37294 4.37317 
42 1 3.48746 3.48753 3.48802 
43 1 4.16827 5.89925 4.16867 
53 1 4.16879 4.16869 5.89727 
57 1 5.89629 4.1688 4.16882 
4 1 1.91677 1.91162 11.0812 
5 1 2.79831 2.79633 10.1958 
6 1 2.11602 0.387938 10.8742 
16 1 2.1158 2.11576 12.6078 
19 1 0.39433 2.11478 10.8723 
64 1 4.36985 4.37191 8.61764 
65 1 3.48825 3.48812 9.50317 
66 1 5.8939 4.16798 8.82459 
76 1 4.16797 4.16822 7.09049 
79 1 4.16715 5.89687 8.82421 
10 1 1.91543 11.0813 1.91261 
11 1 2.7977 10.1954 2.7966 
12 1 2.11614 12.6078 2.11587 
15 1 2.11554 10.8743 0.388625 
18 1 0.393172 10.8728 2.11461 
67 1 4.37134 8.61681 4.37125 
68 1 3.48827 9.50301 3.48808 
69 1 5.895 8.82414 4.1683 
74 1 4.16802 8.8239 5.8943 
80 1 4.16803 7.0904 4.16854 
30 1 1.9347 11.085 11.085 
31 1 2.80558 10.1975 10.1974 
32 1 0.404647 10.867 10.869 
35 1 2.12245 10.8761 12.6087 
38 1 2.12241 12.6085 10.8759 
47 1 4.36215 8.61497 8.61498 
48 1 3.48864 9.50214 9.50194 
49 1 4.16534 7.08867 8.82354 
54 1 4.16572 8.82363 7.08981 
60 1 5.87978 8.82799 8.828 
7 1 11.0824 1.91503 1.91766 
8 1 10.1958 2.79787 2.79893 
9 1 10.8734 0.393187 2.11542 
14 1 10.8725 2.11476 0.396154 
20 1 12.6092 2.1164 2.11698 
70 1 8.61663 4.37137 4.37033 
71 1 9.50305 3.48866 3.4893 
72 1 7.09112 4.16822 4.16804 
75 1 8.82449 4.16782 5.89351 
78 1 8.82427 5.89477 4.16781 
27 1 11.09 1.97361 11.0909 
28 1 10.1933 2.8169 10.1945 
29 1 12.6169 2.13307 10.8761 
34 1 10.8747 2.13081 12.6162 
40 1 10.9007 0.455519 10.8437 
50 1 8.61087 4.36566 8.61104 
51 1 9.49505 3.49421 9.49562 
52 1 8.82803 5.88252 8.82787 
55 1 8.82362 4.16599 7.08707 
58 1 7.08621 4.16599 8.82354 
24 1 11.0888 11.09 1.96272 
25 1 10.1949 10.1956 2.8135 
26 1 12.6141 10.8762 2.12907 
36 1 10.8833 10.8493 0.441721 
39 1 10.8757 12.614 2.12785 
44 1 8.61264 8.61282 4.36453 
45 1 9.49751 9.49785 3.4925 
46 1 8.82371 7.08867 4.16606 
56 1 8.82808 8.82792 5.88189 
59 1 7.08596 8.82369 4.16605 
1 1 11.0396 11.1018 11.0988 
2 1 10.182 10.1407 10.1424 
3 1 10.9058 12.6869 10.8418 
13 1 10.8819 10.851 12.6732 
17 1 12.6338 10.8667 10.8683 
61 1 8.58127 8.58431 8.58378 
62 1 9.47198 9.46014 9.46039 
63 1 7.07492 8.82257 8.82255 
73 1 8.82195 8.82235 7.07636 
77 1 8.82217 7.07736 8.82255 
81 2 9.86555 11.375 11.2901 
82 2 8.21531 11.3494 11.477 
83 3 7.88884 12.207 11.5738 
ITEM: TIMESTEP
40
ITEM: NUMBER OF ATOMS
83
ITEM: BOX BOUNDS pp pp pp
0.0000000000000000e+00 1.3416000000000000e+01
0.0000000000000000e+00 1.3416000000000000e+01
0.0000000000000000e+00 1.3414999999999999e+01
ITEM: ATOMS id type x y z 
21 1 1.9129 1.91119 1.91247 
22 1 2.79592 2.79656 2.79553 
23 1 0.387139 2.11896 2.11912 
33 1 2.11811 2.119 0.386622 
37 1 2.11876 0.385764 2.11902 
41 1 4.37091 4.37216 4.37122 
42 1 3.48752 3.48692 3.48879 
43 1 4.16457 5.89773 4.16514 
53 1 4.16501 4.165 5.89771 
57 1 5.89654 4.16515 4.16516 
4 1 1.91823 1.91159 11.0815 
5 1 2.7986 2.79527 10.196 
6 1 2.12101 0.386044 10.8714 
16 1 2.11972 2.11912 12.6082 
19 1 0.396083 2.12008 10.8693 
64 1 4.36804 4.37141 8.61707 
65 1 3.48835 3.48751 9.50286 
66 1 5.89181 4.16397 8.82844 
76 1 4.1643 4.16471 7.09111 
79 1 4.16317 5.89581 8.82784 
10 1 1.91686 11.0814 1.91274 
11 1 2.79782 10.1959 2.79571 
12 1 2.11986 12.6084 2.11926 
15 1 2.12046 10.8715 0.386947 
18 1 0.393406 10.8697 2.11957 
67 1 4.36865 8.6174 4.37102 
68 1 3.48844 9.5028 3.48736 
69 1 5.89322 8.828 4.16416 
74 1 4.16406 8.82754 5.89511 
80 1 4.16434 7.09106 4.16473 
30 1 1.93262 11.0849 11.0853 
31 1 2.80417 10.199 10.1984 
32 1 0.401148 10.864 10.8661 
35 1 2.12597 10.8727 12.6086 
38 1 2.12593 12.6086 10.8726 
47 1 4.35847 8.615 8.6148 
48 1 3.48871 9.50332 9.50327 
49 1 4.1608 7.08923 8.82678 
54 1 4.1612 8.82685 7.08872 
60 1 5.87772 8.83235 8.83234 
7 1 11.0828 1.91605 1.91836 
8 1 10.198 2.79753 2.80069 
9 1 10.8699 0.392852 2.12048 
14 1 10.8688 2.11967 0.395997 
20 1 12.6104 2.12014 2.12087 
70 1 8.61655 4.37029 4.36963 
71 1 9.50114 3.48891 3.48744 
72 1 7.09009 4.16456 4.16425 
75 1 8.82833 4.16367 5.89241 
78 1 8.82805 5.89391 4.16364 
27 1 11.0924 1.97948 11.0921 
28 1 10.1953 2.82185 10.1964 
29 1 12.6185 2.14111 10.8726 
34 1 10.871 2.13761 12.6177 
40 1 10.9028 0.459067 10.8374 
50 1 8.60931 4.36346 8.60961 
51 1 9.49399 3.4946 9.49496 
52 1 8.83214 5.88143 8.83197 
55 1 8.82673 4.16149 7.08583 
58 1 7.08528 4.16153 8.82663 
24 1 11.091 11.0906 1.96676 
25 1 10.1968 10.1976 2.81764 
26 1 12.6158 10.8729 2.13592 
36 1 10.8823 10.8423 0.44586 
39 1 10.872 12.6153 2.13402 
44 1 8.61091 8.61182 4.36197 
45 1 9.49686 9.49747 3.49267 
46 1 8.82692 7.08748 4.16146 
56 1 8.8323 8.83211 5.88042 
59 1 7.08667 8.82684 4.1616 
1 1 11.0378 11.1016 11.0965 
2 1 10.184 10.1362 10.1382 
3 1 10.9057 12.6904 10.8355 
13 1 10.8802 10.8464 12.6754 
17 1 12.6313 10.866 10.8676 
61 1 8.57806 8.58217 8.58139 
62 1 9.47939 9.45944 9.46001 
63 1 7.07111 8.82421 8.82416 
73 1 8.82299 8.82379 7.07397 
77 1 8.82328 7.07496 8.82396 
81 2 9.87733 11.3698 11.2902 
82 2 8.20328 11.3454 11.4778 
83 3 7.89103 12.2084 11.5739 
ITEM: TIMESTEP
46
ITEM: NUMBER OF ATOMS
83
ITEM: BOX BOUNDS pp pp pp
0.0000000000000000e+00 1.3416000000000000e+01
0.0000000000000000e+00 1.3416000000000000e+01
0.0000000000000000e+00 1.3414999999999999e+01
ITEM: ATOMS id type x y z 
21 1 1.9129 1.91119 1.91247 
22 1 2.79592 2.79656 2.79554 
23 1 0.387153 2.11896 2.11912 
33 1 2.11811 2.119 0.386632 
37 1 2.11877 0.385774 2.11902 
41 1 4.37091 4.37216 4.37122 
42 1 3.48752 3.48692 3.48879 
43 1 4.16456 5.89771 4.16513 
53 1 4.165 4.165 5.8977 
57 1 5.89653 4.16514 4.16516 
4 1 1.91823 1.91159 11.0815 
5 1 2.7986 2.79527 10.196 
6 1 2.12102 0.386048 10.8714 
16 1 2.11972 2.11912 12.6082 
19 1 0.396078 2.12009 10.8693 
64 1 4.36804 4.37141 8.61708 
65 1 3.48835 3.48751 9.50286 
66 1 5.8918 4.16397 8.82844 
76 1 4.16429 4.16471 7.09112 
79 1 4.16316 5.89581 8.82785 
10 1 1.91686 11.0814 1.91274 
11 1 2.79782 10.1959 2.79571 
12 1 2.11987 12.6084 2.11927 
15 1 2.12046 10.8715 0.386955 
18 1 0.393406 10.8697 2.11958 
67 1 4.36865 8.6174 4.37101 
68 1 3.48844 9.5028 3.48736 
69 1 5.89322 8.828 4.16415 
74 1 4.16406 8.82754 5.8951 
80 1 4.16434 7.09107 4.16473 
30 1 1.93262 11.0849 11.0853 
31 1 2.80417 10.199 10.1984 
32 1 0.401142 10.864 10.8661 
35 1 2.12598 10.8727 12.6086 
38 1 2.12593 12.6086 10.8726 
47 1 4.35847 8.61501 8.6148 
48 1 3.4887 9.50331 9.50326 
49 1 4.16079 7.08924 8.82678 
54 1 4.1612 8.82685 7.08872 
60 1 5.87771 8.83235 8.83235 
7 1 11.0828 1.91605 1.91836 
8 1 10.198 2.79754 2.80068 
9 1 10.8699 0.392848 2.12049 
14 1 10.8688 2.11968 0.395994 
20 1 12.6104 2.12014 2.12088 
70 1 8.61655 4.37029 4.36962 
71 1 9.50114 3.48891 3.48745 
72 1 7.0901 4.16456 4.16424 
75 1 8.82834 4.16367 5.8924 
78 1 8.82805 5.89391 4.16363 
27 1 11.0924 1.97949 11.0921 
28 1 10.1953 2.82185 10.1964 
29 1 12.6185 2.14112 10.8726 
34 1 10.871 2.13762 12.6177 
40 1 10.9028 0.459072 10.8374 
50 1 8.6093 4.36346 8.6096 
51 1 9.49399 3.4946 9.49496 
52 1 8.83214 5.88143 8.83198 
55 1 8.82674 4.16148 7.08583 
58 1 7.08528 4.16152 8.82663 
24 1 11.091 11.0906 1.96676 
25 1 10.1968 10.1976 2.81764 
26 1 12.6158 10.8729 2.13593 
36 1 10.8823 10.8422 0.445856 
39 1 10.872 12.6153 2.13403 
44 1 8.61091 8.61182 4.36197 
45 1 9.49685 9.49747 3.49267 
46 1 8.82692 7.08748 4.16146 
56 1 8.8323 8.83211 5.88043 
59 1 7.08667 8.82684 4.16159 
1 1 11.0378 11.1016 11.0965 
2 1 10.184 10.1362 10.1382 
3 1 10.9057 12.6904 10.8355 
13 1 10.8802 10.8464 12.6754 
17 1 12.6313 10.866 10.8676 
61 1 8.57806 8.58217 8.58139 
62 1 9.47939 9.45944 9.46 
63 1 7.0711 8.82421 8.82416 
73 1 8.82299 8.82379 7.07396 
77 1 8.82328 7.07495 8.82396 
81 2 9.87734 11.3698 11.2902 
82 2 8.20327 11.3454 11.4778 
83 3 7.89103 12.2084 11.5739 
ITEM: TIMESTEP
47
ITEM: NUMBER OF ATOMS
83
ITEM: BOX BOUNDS pp pp pp
0.0000000000000000e+00 1.3416000000000000e+01
0.0000000000000000e+00 1.3416000000000000e+01
0.0000000000000000e+00 1.3414999999999999e+01
ITEM: ATOMS id type x y z 
21 1 1.9129 1.91119 1.91247 
22 1 2.79592 2.79656 2.79554 
23 1 0.387153 2.11896 2.11912 
33 1 2.11811 2.119 0.386632 
37 1 2.11877 0.385774 2.11902 
41 1 4.37091 4.37216 4.37122 
42 1 3.48752 3.48692 3.48879 
43 1 4.16456 5.89771 4.16513 
53 1 4.165 4.165 5.8977 
57 1 5.89653 4.16514 4.16516 
4 1 1.91823 1.91159 11.0815 
5 1 2.7986 2.79527 10.196 
6 1 2.12102 0.386048 10.8714 
16 1 2.11972 2.11912 12.6082 
19 1 0.396078 2.12009 10.8693 
64 1 4.36804 4.37141 8.61708 
65 1 3.48835 3.48751 9.50286 
66 1 5.8918 4.16397 8.82844 
76 1 4.16429 4.16471 7.09112 
79 1 4.16316 5.89581 8.82785 
10 1 1.91686 11.0814 1.91274 
11 1 2.79782 10.1959 2.79571 
12 1 2.11987 12.6084 2.11927 
15 1 2.12046 10.8715 0.386955 
18 1 0.393406 10.8697 2.11958 
67 1 4.36865 8.6174 4.37101 
68 1 3.48844 9.5028 3.48736 
69 1 5.89322 8.828 4.16415 
74 1 4.16406 8.82754 5.8951 
80 1 4.16434 7.09107 4.16473 
30 1 1.93262 11.0849 11.0853 
31 1 2.80417 10.199 10.1984 
32 1 0.401141 10.864 10.8661 
35 1 2.12598 10.8727 12.6086 
38 1 2.12593 12.6086 10.8726 
47 1 4.35847 8.61501 8.6148 
48 1 3.4887 9.50331 9.50326 
49 1 4.16079 7.08924 8.82678 
54 1 4.1612 8.82685 7.08872 
60 1 5.87771 8.83235 8.83235 
7 1 11.0828 1.91605 1.91836 
8 1 10.198 2.79754 2.80068 
9 1 10.8699 0.392848 2.12049 
14 1 10.8688 2.11968 0.395994 
20 1 12.6104 2.12014 2.12088 
70 1 8.61655 4.37029 4.36962 
71 1 9.50114 3.48891 3.48745 
72 1 7.0901 4.16456 4.16424 
75 1 8.82834 4.16367 5.8924 
78 1 8.82805 5.89391 4.16363 
27 1 11.0924 1.97949 11.0921 
28 1 10.1953 2.82185 10.1964 
29 1 12.6185 2.14112 10.8726 
34 1 10.871 2.13762 12.6177 
40 1 10.9028 0.459072 10.8374 
50 1 8.6093 4.36346 8.6096 
51 1 9.49399 3.4946 9.49496 
52 1 8.83214 5.88143 8.83198 
55 1 8.82674 4.16148 7.08583 
58 1 7.08528 4.16152 8.82663 
24 1 11.091 11.0906 1.96676 
25 1 10.1968 10.1976 2.81764 
26 1 12.6158 10.8729 2.13593 
36 1 10.8823 10.8422 0.445855 
39 1 10.872 12.6153 2.13403 
44 1 8.61091 8.61182 4.36197 
45 1 9.49685 9.49747 3.49267 
46 1 8.82692 7.08748 4.16146 
56 1 8.8323 8.83211 5.88043 
59 1 7.08667 8.82684 4.16159 
1 1 11.0378 11.1016 11.0965 
2 1 10.184 10.1362 10.1382 
3 1 10.9057 12.6904 10.8355 
13 1 10.8802 10.8464 12.6754 
17 1 12.6313 10.866 10.8676 
61 1 8.57807 8.58217 8.58139 
62 1 9.47939 9.45944 9.46 
63 1 7.0711 8.82421 8.82416 
73 1 8.82299 8.82379 7.07396 
77 1 8.82328 7.07495 8.82396 
81 2 9.87734 11.3698 11.2902 
82 2 8.20327 11.3454 11.4778 
83 3 7.89103 12.2084 11.5739 
ITEM: TIMESTEP
50
ITEM: NUMBER OF ATOMS
83
ITEM: BOX BOUNDS pp pp pp
-1.8221983368561870e-03 1.3417822198336856e+01
-1.9442268573843652e-03 1.3417944226857385e+01
-1.9330270474128206e-03 1.3416933027047412e+01
ITEM: ATOMS id type x y z 
21 1 1.91159 1.9098 1.91109 
22 1 2.79486 2.79542 2.79441 
23 1 0.385441 2.11763 2.1178 
33 1 2.11687 2.11767 0.384804 
37 1 2.11752 0.383927 2.1177 
41 1 4.37028 4.37148 4.37055 
42 1 3.48664 3.48599 3.48786 
43 1 4.16387 5.89749 4.1644 
53 1 4.16431 4.16426 5.89748 
57 1 5.89632 4.1644 4.16443 
4 1 1.91693 1.91019 11.0827 
5 1 2.79754 2.79413 10.197 
6 1 2.11978 0.384213 10.8726 
16 1 2.11848 2.11779 12.6099 
19 1 0.394362 2.11876 10.8705 
64 1 4.3674 4.37073 8.61763 
65 1 3.48747 3.48658 9.50366 
66 1 5.89158 4.16323 8.82905 
76 1 4.1636 4.16397 7.09121 
79 1 4.16247 5.89557 8.82846 
10 1 1.91556 11.0827 1.91136 
11 1 2.79676 10.1969 2.79459 
12 1 2.11862 12.6101 2.11794 
15 1 2.11922 10.8727 0.385126 
18 1 0.391683 10.8709 2.11826 
67 1 4.36802 8.61795 4.37034 
68 1 3.48756 9.50361 3.48644 
69 1 5.893 8.82862 4.16342 
74 1 4.16337 8.82816 5.89487 
80 1 4.16365 7.09117 4.164 
30 1 1.93132 11.0862 11.0866 
31 1 2.80311 10.2 10.1994 
32 1 0.399426 10.8652 10.8673 
35 1 2.12473 10.8739 12.6103 
38 1 2.12469 12.6103 10.8738 
47 1 4.35783 8.61556 8.61535 
48 1 3.48783 9.50412 9.50407 
49 1 4.1601 7.08935 8.82739 
54 1 4.16051 8.82746 7.08883 
60 1 5.87749 8.83297 8.83296 
7 1 11.084 1.91466 1.91698 
8 1 10.1989 2.7964 2.79955 
9 1 10.871 0.391016 2.11917 
14 1 10.8699 2.11835 0.394174 
20 1 12.612 2.11882 2.11956 
70 1 8.61707 4.36961 4.36895 
71 1 9.5019 3.48798 3.48652 
72 1 7.09019 4.16382 4.16351 
75 1 8.82892 4.16293 5.89217 
78 1 8.82863 5.89367 4.1629 
27 1 11.0936 1.97812 11.0934 
28 1 10.1962 2.82073 10.1974 
29 1 12.6201 2.1398 10.8738 
34 1 10.8721 2.1363 12.6194 
40 1 10.9039 0.457262 10.8386 
50 1 8.60982 4.36278 8.61015 
51 1 9.49474 3.49367 9.49576 
52 1 8.83272 5.88119 8.83259 
55 1 8.82732 4.16074 7.08594 
58 1 7.08538 4.16078 8.82724 
24 1 11.0922 11.0919 1.96539 
25 1 10.1978 10.1986 2.81652 
26 1 12.6174 10.8741 2.13461 
36 1 10.8834 10.8434 0.444049 
39 1 10.8731 12.617 2.13272 
44 1 8.61143 8.61237 4.36129 
45 1 9.49761 9.49828 3.49174 
46 1 8.8275 7.08758 4.16072 
56 1 8.83288 8.83273 5.88019 
59 1 7.08677 8.82746 4.16086 
1 1 11.039 11.1029 11.0978 
2 1 10.185 10.1372 10.1392 
3 1 10.9068 12.6921 10.8367 
13 1 10.8813 10.8476 12.6772 
17 1 12.6329 10.8672 10.8688 
61 1 8.57857 8.58272 8.58193 
62 1 9.48015 9.46023 9.46079 
63 1 7.0712 8.82483 8.82477 
73 1 8.82357 8.8244 7.07406 
77 1 8.82386 7.07505 8.82457 
81 2 9.8782 11.3712 11.2916 
82 2 8.20367 11.3467 11.4792 
83 3 7.89135 12.21 11.5753 
ITEM: TIMESTEP
60
ITEM: NUMBER OF ATOMS
83
ITEM: BOX BOUNDS pp pp pp
-2.3524630495036845e-03 1.3418352463049501e+01
-3.1974802145271915e-03 1.3419197480214528e+01
-2.9864529414483964e-03 1.3417986452941449e+01
ITEM: ATOMS id type x y z 
21 1 1.91121 1.90889 1.91031 
22 1 2.79456 2.79469 2.7938 
23 1 0.384933 2.11678 2.11708 
33 1 2.11651 2.11682 0.383625 
37 1 2.11716 0.382582 2.11698 
41 1 4.37013 4.37107 4.37022 
42 1 3.48638 3.48539 3.48735 
43 1 4.16368 5.89753 4.164 
53 1 4.16411 4.16379 5.89753 
57 1 5.89643 4.16393 4.16403 
4 1 1.91652 1.90927 11.0834 
5 1 2.79724 2.79341 10.1975 
6 1 2.11941 0.382953 10.8732 
16 1 2.11811 2.11693 12.611 
19 1 0.393778 2.11791 10.8712 
64 1 4.36724 4.37032 8.61791 
65 1 3.48721 3.48597 9.5041 
66 1 5.89159 4.16275 8.82939 
76 1 4.1634 4.16349 7.09107 
79 1 4.16227 5.89555 8.82879 
10 1 1.91515 11.0835 1.91057 
11 1 2.79646 10.1976 2.79398 
12 1 2.11826 12.6114 2.11722 
15 1 2.11886 10.8735 0.384054 
18 1 0.391097 10.8717 2.11754 
67 1 4.36786 8.61829 4.37 
68 1 3.4873 9.50414 3.48593 
69 1 5.89303 8.82901 4.16302 
74 1 4.16317 8.82855 5.89488 
80 1 4.16345 7.09104 4.1636 
30 1 1.93093 11.087 11.0873 
31 1 2.80281 10.2006 10.1999 
32 1 0.398916 10.866 10.8679 
35 1 2.12438 10.8747 12.6113 
38 1 2.12433 12.6115 10.8744 
47 1 4.35764 8.6159 8.61563 
48 1 3.48756 9.50465 9.50451 
49 1 4.15989 7.08927 8.82773 
54 1 4.1603 8.82786 7.08873 
60 1 5.87741 8.83337 8.8333 
7 1 11.0843 1.91377 1.91623 
8 1 10.1992 2.79568 2.79894 
9 1 10.8713 0.389826 2.11845 
14 1 10.8702 2.1175 0.393176 
20 1 12.6125 2.11796 2.11884 
70 1 8.61719 4.36919 4.36858 
71 1 9.50213 3.48737 3.48602 
72 1 7.09002 4.16334 4.16311 
75 1 8.82909 4.16245 5.89206 
78 1 8.8288 5.89359 4.1625 
27 1 11.0939 1.97724 11.0941 
28 1 10.1965 2.82002 10.198 
29 1 12.6207 2.13896 10.8745 
34 1 10.8724 2.13546 12.6203 
40 1 10.9043 0.456092 10.8392 
50 1 8.60997 4.36234 8.61045 
51 1 9.49497 3.49306 9.4962 
52 1 8.83289 5.88105 8.83293 
55 1 8.82749 4.16026 7.08596 
58 1 7.0853 4.1603 8.82758 
24 1 11.0926 11.0927 1.96465 
25 1 10.1981 10.1993 2.81592 
26 1 12.6181 10.8749 2.1339 
36 1 10.8838 10.8442 0.443054 
39 1 10.8735 12.6181 2.13201 
44 1 8.61157 8.61272 4.36092 
45 1 9.49783 9.4988 3.49124 
46 1 8.82767 7.08757 4.16032 
56 1 8.83305 8.83313 5.88007 
59 1 7.08666 8.82786 4.16045 
1 1 11.0393 11.1037 11.0985 
2 1 10.1853 10.1378 10.1397 
3 1 10.9072 12.6933 10.8373 
13 1 10.8816 10.8484 12.6781 
17 1 12.6334 10.868 10.8695 
61 1 8.57872 8.58307 8.58223 
62 1 9.48038 9.46075 9.46122 
63 1 7.07123 8.82523 8.8251 
73 1 8.82373 8.8248 7.07411 
77 1 8.82403 7.07511 8.82491 
81 2 9.87846 11.3721 11.2923 
82 2 8.20377 11.3476 11.4799 
83 3 7.89145 12.211 11.5761 
ITEM: TIMESTEP
61
ITEM: NUMBER OF ATOMS
83
ITEM: BOX BOUNDS pp pp pp
-2.3524630495036845e-03 1.3418352463049501e+01
-3.1974802145271915e-03 1.3419197480214528e+01
-2.9864529414483964e-03 1.3417986452941449e+01
ITEM: ATOMS id type x y z 
21 1 1.91121 1.90889 1.91031 
22 1 2.79456 2.79469 2.7938 
23 1 0.384933 2.11678 2.11708 
33 1 2.11651 2.11682 0.383625 
37 1 2.11716 0.382582 2.11698 
41 1 4.37013 4.37107 4.37022 
42 1 3.48638 3.48539 3.48735 
43 1 4.16368 5.89753 4.164 
53 1 4.16411 4.16379 5.89753 
57 1 5.89643 4.16393 4.16403 
4 1 1.91652 1.90927 11.0834 
5 1 2.79724 2.79341 10.1975 
6 1 2.11941 0.382953 10.8732 
16 1 2.11811 2.11693 12.611 
19 1 0.393778 2.11791 10.8712 
64 1 4.36724 4.37032 8.61791 
65 1 3.48721 3.48597 9.5041 
66 1 5.89159 4.16275 8.82939 
76 1 4.1634 4.16349 7.09107 
79 1 4.16227 5.89555 8.82879 
10 1 1.91515 11.0835 1.91057 
11 1 2.79646 10.1976 2.79398 
12 1 2.11826 12.6114 2.11722 
15 1 2.11886 10.8735 0.384054 
18 1 0.391097 10.8717 2.11754 
67 1 4.36786 8.61829 4.37 
68 1 3.4873 9.50414 3.48593 
69 1 5.89303 8.82901 4.16302 
74 1 4.16317 8.82855 5.89488 
80 1 4.16345 7.09104 4.1636 
30 1 1.93093 11.087 11.0873 
31 1 2.80281 10.2006 10.1999 
32 1 0.398916 10.866 10.8679 
35 1 2.12438 10.8747 12.6113 
38 1 2.12433 12.6115 10.8744 
47 1 4.35764 8.6159 8.61563 
48 1 3.48756 9.50465 9.50451 
49 1 4.15989 7.08927 8.82773 
54 1 4.1603 8.82786 7.08873 
60 1 5.87741 8.83337 8.8333 
7 1 11.0843 1.91377 1.91623 
8 1 10.1992 2.79568 2.79894 
9 1 10.8713 0.389826 2.11845 
14 1 10.8702 2.1175 0.393176 
20 1 12.6125 2.11796 2.11884 
70 1 8.61719 4.36919 4.36858 
71 1 9.50213 3.48737 3.48602 
72 1 7.09002 4.16334 4.16311 
75 1 8.82909 4.16245 5.89206 
78 1 8.8288 5.89359 4.1625 
27 1 11.0939 1.97724 11.0941 
28 1 10.1965 2.82002 10.198 
29 1 12.6207 2.13896 10.8745 
34 1 10.8724 2.13546 12.6203 
40 1 10.9043 0.456092 10.8392 
50 1 8.60997 4.36234 8.61045 
51 1 9.49497 3.49306 9.4962 
52 1 8.83289 5.88105 8.83293 
55 1 8.82749 4.16026 7.08596 
58 1 7.0853 4.1603 8.82758 
24 1 11.0926 11.0927 1.96465 
25 1 10.1981 10.1993 2.81592 
26 1 12.6181 10.8749 2.1339 
36 1 10.8838 10.8442 0.443054 
39 1 10.8735 12.6181 2.13201 
44 1 8.61157 8.61272 4.36092 
45 1 9.49783 9.4988 3.49124 
46 1 8.82767 7.08757 4.16032 
56 1 8.83305 8.83313 5.88007 
59 1 7.08666 8.82786 4.16045 
1 1 11.0393 11.1037 11.0985 
2 1 10.1853 10.1378 10.1397 
3 1 10.9072 12.6933 10.8373 
13 1 10.8816 10.8484 12.6781 
17 1 12.6334 10.868 10.8695 
61 1 8.57872 8.58307 8.58223 
62 1 9.48038 9.46075 9.46122 
63 1 7.07123 8.82523 8.8251 
73 1 8.82373 8.8248 7.07411 
77 1 8.82403 7.07511 8.82491 
81 2 9.87846 11.3721 11.2923 
82 2 8.20377 11.3476 11.4799 
83 3 7.89145 12.211 11.5761 
ITEM: TIMESTEP
62
ITEM: NUMBER OF ATOMS
83
ITEM: BOX BOUNDS pp pp pp
-2.3523829525631513e-03 1.3418352382952561e+01
-3.1973373161503318e-03 1.3419197337316151e+01
-2.9862891112127287e-03 1.3417986289111212e+01
ITEM: ATOMS id type x y z 
21 1 1.91121 1.90889 1.91031 
22 1 2.79456 2.79469 2.7938 
23 1 0.384933 2.11678 2.11708 
33 1 2.11651 2.11682 0.383625 
37 1 2.11716 0.382582 2.11698 
41 1 4.37013 4.37107 4.37022 
42 1 3.48638 3.48539 3.48735 
43 1 4.16368 5.89753 4.164 
53 1 4.16411 4.16379 5.89753 
57 1 5.89643 4.16393 4.16403 
4 1 1.91652 1.90927 11.0834 
5 1 2.79724 2.79341 10.1975 
6 1 2.11941 0.382953 10.8732 
16 1 2.11811 2.11693 12.611 
19 1 0.393778 2.11791 10.8712 
64 1 4.36724 4.37032 8.61791 
65 1 3.48721 3.48597 9.5041 
66 1 5.89159 4.16275 8.82939 
76 1 4.1634 4.16349 7.09107 
79 1 4.16227 5.89555 8.82879 
10 1 1.91515 11.0835 1.91057 
11 1 2.79646 10.1976 2.79398 
12 1 2.11826 12.6114 2.11722 
15 1 2.11886 10.8735 0.384055 
18 1 0.391097 10.8717 2.11754 
67 1 4.36786 8.61829 4.37 
68 1 3.4873 9.50414 3.48593 
69 1 5.89303 8.82901 4.16302 
74 1 4.16317 8.82855 5.89488 
80 1 4.16345 7.09104 4.1636 
30 1 1.93093 11.087 11.0873 
31 1 2.80281 10.2006 10.1999 
32 1 0.398916 10.866 10.8679 
35 1 2.12438 10.8747 12.6113 
38 1 2.12433 12.6115 10.8744 
47 1 4.35764 8.6159 8.61563 
48 1 3.48756 9.50465 9.50451 
49 1 4.15989 7.08927 8.82773 
54 1 4.1603 8.82786 7.08873 
60 1 5.87741 8.83337 8.8333 
7 1 11.0843 1.91377 1.91623 
8 1 10.1992 2.79568 2.79894 
9 1 10.8713 0.389826 2.11845 
14 1 10.8702 2.1175 0.393176 
20 1 12.6125 2.11796 2.11884 
70 1 8.61719 4.36919 4.36858 
71 1 9.50213 3.48737 3.48602 
72 1 7.09002 4.16334 4.16311 
75 1 8.82909 4.16245 5.89206 
78 1 8.8288 5.89359 4.1625 
27 1 11.0939 1.97724 11.0941 
28 1 10.1965 2.82002 10.198 
29 1 12.6207 2.13896 10.8745 
34 1 10.8724 2.13546 12.6203 
40 1 10.9043 0.456092 10.8392 
50 1 8.60997 4.36234 8.61045 
51 1 9.49497 3.49306 9.4962 
52 1 8.83289 5.88105 8.83293 
55 1 8.82749 4.16026 7.08596 
58 1 7.0853 4.1603 8.82758 
24 1 11.0926 11.0927 1.96465 
25 1 10.1981 10.1993 2.81592 
26 1 12.6181 10.8749 2.1339 
36 1 10.8838 10.8442 0.443054 
39 1 10.8735 12.6181 2.13201 
44 1 8.61157 8.61272 4.36092 
45 1 9.49783 9.4988 3.49124 
46 1 8.82767 7.08757 4.16032 
56 1 8.83305 8.83313 5.88007 
59 1 7.08666 8.82786 4.16045 
1 1 11.0393 11.1037 11.0985 
2 1 10.1853 10.1378 10.1397 
3 1 10.9072 12.6933 10.8373 
13 1 10.8816 10.8484 12.6781 
17 1 12.6334 10.868 10.8695 
61 1 8.57872 8.58307 8.58223 
62 1 9.48038 9.46075 9.46122 
63 1 7.07123 8.82523 8.8251 
73 1 8.82373 8.8248 7.07411 
77 1 8.82403 7.07511 8.82491 
81 2 9.87846 11.3721 11.2923 
82 2 8.20377 11.3476 11.4799 
83 3 7.89145 12.211 11.5761 
ITEM: TIMESTEP
63
ITEM: NUMBER OF ATOMS
83
ITEM: BOX BOUNDS pp pp pp
-2.3523829525631513e-03 1.3418352382952561e+01
-3.1973373161503318e-03 1.3419197337316151e+01
-2.9862891112127287e-03 1.3417986289111212e+01
ITEM: ATOMS id type x y z 
21 1 1.91121 1.90889 1.91031 
22 1 2.79456 2.79469 2.7938 
23 1 0.384933 2.11678 2.11708 
33 1 2.11651 2.11682 0.383625 
37 1 2.11716 0.382582 2.11698 
41 1 4.37013 4.37107 4.37022 
42 1 3.48638 3.48539 3.48735 
43 1 4.16368 5.89753 4.164 
53 1 4.16411 4.16379 5.89753 
57 1 5.89643 4.16393 4.16403 
4 1 1.91652 1.90927 11.0834 
5 1 2.79724 2.79341 10.1975 
6 1 2.11941 0.382953 10.8732 
16 1 2.11811 2.11693 12.611 
19 1 0.393778 2.11791 10.8712 
64 1 4.36724 4.37032 8.61791 
65 1 3.48721 3.48597 9.5041 