ITEM: TIMESTEP
0
ITEM: NUMBER OF ATOMS
321
ITEM: BOX BOUNDS pp pp pp
0.0000000000000000e+00 1.9018000000000001e+01
0.0000000000000000e+00 1.9018000000000001e+01
0.0000000000000000e+00 1.9018000000000001e+01
ITEM: ATOMS id type x y z 
90 1 1.962 4.752 0.945 
98 1 4.752 3.716 2.699 
106 1 3.716 2.699 4.752 
122 1 4.752 0.945 1.962 
127 1 0.422 4.239 4.239 
130 1 4.239 0.422 4.239 
133 1 0.422 0.422 0.422 
136 1 4.239 4.239 0.422 
158 1 0.945 1.962 4.752 
166 1 2.699 4.752 3.716 
277 1 4.752 1.962 0.945 
284 1 3.716 4.752 2.699 
297 1 2.699 3.716 4.752 
306 1 0.945 4.752 1.962 
315 1 1.962 0.945 4.752 
319 1 4.752 2.699 3.716 
97 1 4.982 3.299 1.363 
121 1 4.982 1.362 3.299 
89 1 3.299 4.982 1.363 
165 1 1.363 4.982 3.299 
10 1 6.117 6.117 0.228 
125 1 8.053 8.053 0.228 
105 1 3.299 1.362 4.982 
157 1 1.363 3.299 4.982 
34 1 6.117 0.228 6.117 
207 1 8.053 0.228 8.053 
22 1 0.228 6.117 6.117 
189 1 0.228 8.053 8.053 
95 1 9.187 3.299 12.807 
96 1 9.418 3.716 11.47 
119 1 9.187 1.362 10.871 
120 1 9.418 0.945 12.208 
279 1 9.418 1.962 13.224 
317 1 9.418 2.699 10.454 
85 1 3.299 9.187 12.807 
86 1 1.962 9.418 13.224 
161 1 1.363 9.187 10.871 
162 1 2.699 9.418 10.454 
281 1 3.716 9.418 11.47 
307 1 0.945 9.418 12.208 
179 1 6.117 8.053 13.942 
180 1 7.454 8.47 14.173 
215 1 8.053 6.117 13.942 
216 1 6.716 5.7 14.173 
264 1 8.47 7.454 14.173 
288 1 5.7 6.716 14.173 
43 1 1.363 1.362 18.696 
44 1 0.945 2.699 18.927 
79 1 3.299 3.299 18.696 
80 1 3.716 1.962 18.927 
227 1 2.699 0.945 18.927 
274 1 1.962 3.716 18.927 
25 1 6.117 4.433 17.562 
26 1 5.7 4.664 16.225 
201 1 8.053 4.433 15.626 
202 1 8.47 4.664 16.963 
242 1 7.454 4.664 17.979 
266 1 6.716 4.664 15.209 
16 1 4.433 6.117 17.562 
17 1 4.664 7.454 17.979 
185 1 4.433 8.053 15.626 
186 1 4.664 6.716 15.209 
245 1 4.664 5.7 16.225 
293 1 4.664 8.47 16.963 
11 1 7.454 5.7 19.015 
39 1 8.994 8.994 18.502 
42 1 5.176 5.176 18.502 
45 1 5.176 8.994 14.685 
48 1 8.994 5.176 14.685 
126 1 6.716 8.47 19.015 
144 1 9.506 6.716 17.979 
148 1 8.47 9.506 16.225 
200 1 5.7 9.506 16.963 
220 1 9.506 7.454 15.209 
240 1 5.7 7.454 19.015 
252 1 8.47 6.716 19.015 
254 1 6.716 9.506 17.979 
257 1 9.506 8.47 16.225 
269 1 9.506 5.7 16.963 
290 1 7.454 9.506 15.209 
93 1 9.187 10.871 1.363 
94 1 9.418 10.454 2.699 
117 1 9.187 12.807 3.299 
118 1 9.418 13.224 1.962 
280 1 9.418 12.208 0.945 
318 1 9.418 11.47 3.716 
55 1 1.363 18.696 1.363 
56 1 2.699 18.927 0.945 
113 1 3.299 18.696 3.299 
114 1 1.962 18.927 3.716 
235 1 0.945 18.927 2.699 
311 1 3.716 18.927 1.962 
4 1 6.117 17.562 4.433 
5 1 7.454 17.979 4.664 
131 1 8.053 15.626 4.433 
132 1 6.716 15.209 4.664 
237 1 5.7 16.225 4.664 
249 1 8.47 16.963 4.664 
103 1 3.299 12.807 9.187 
104 1 3.716 11.47 9.418 
155 1 1.363 10.871 9.187 
156 1 0.945 12.208 9.418 
299 1 2.699 10.454 9.418 
313 1 1.962 13.224 9.418 
149 1 8.053 13.942 6.117 
150 1 8.47 14.173 7.454 
193 1 6.117 13.942 8.053 
194 1 5.7 14.173 6.716 
256 1 6.716 14.173 5.7 
292 1 7.454 14.173 8.47 
13 1 4.433 17.562 6.117 
14 1 4.664 16.225 5.7 
187 1 4.433 15.626 8.053 
188 1 4.664 16.963 8.47 
246 1 4.664 17.979 7.454 
294 1 4.664 15.209 6.716 
35 1 5.7 19.015 7.454 
51 1 8.994 18.502 8.994 
54 1 5.176 18.502 5.176 
57 1 8.994 14.685 5.176 
60 1 5.176 14.685 8.994 
142 1 9.506 16.963 5.7 
184 1 7.454 15.209 9.506 
208 1 8.47 19.015 6.716 
212 1 6.716 17.979 9.506 
218 1 9.506 16.225 8.47 
244 1 7.454 19.015 5.7 
258 1 9.506 15.209 7.454 
261 1 8.47 16.225 9.506 
268 1 6.716 19.015 8.47 
270 1 9.506 17.979 6.716 
285 1 5.7 16.963 9.506 
15 1 0.422 9.931 9.931 
18 1 0.422 13.748 13.748 
21 1 4.239 9.931 13.748 
24 1 4.239 13.748 9.931 
41 1 0.945 11.47 14.26 
50 1 2.699 14.26 13.224 
77 1 3.716 12.208 14.26 
100 1 4.752 10.454 11.47 
110 1 1.962 14.26 10.454 
124 1 4.752 13.224 12.208 
225 1 2.699 13.224 14.26 
234 1 0.945 14.26 11.47 
276 1 1.962 10.454 14.26 
278 1 4.752 12.208 13.224 
310 1 3.716 14.26 12.208 
320 1 4.752 11.47 10.454 
99 1 4.982 10.871 12.807 
123 1 4.982 12.807 10.871 
49 1 1.363 14.491 12.807 
109 1 3.299 14.491 10.871 
183 1 6.117 15.626 9.737 
211 1 8.053 17.562 9.737 
40 1 1.363 12.807 14.491 
76 1 3.299 10.871 14.491 
147 1 8.053 9.737 17.562 
199 1 6.117 9.737 15.626 
19 1 0.228 17.562 17.562 
191 1 0.228 15.626 15.626 
67 1 18.696 1.362 1.363 
68 1 18.927 0.945 2.699 
173 1 18.696 3.299 3.299 
174 1 18.927 3.716 1.962 
231 1 18.927 2.699 0.945 
304 1 18.927 1.962 3.716 
87 1 10.871 9.187 1.363 
88 1 12.208 9.418 0.945 
163 1 12.807 9.187 3.299 
164 1 11.47 9.418 3.716 
282 1 10.454 9.418 2.699 
308 1 13.224 9.418 1.962 
1 1 17.562 6.117 4.433 
2 1 16.225 5.7 4.664 
134 1 15.626 8.053 4.433 
135 1 16.963 8.47 4.664 
238 1 17.979 7.454 4.664 
250 1 15.209 6.716 4.664 
321 2 16.225 5.7 3.564 
101 1 10.871 1.362 9.187 
102 1 10.454 2.699 9.418 
153 1 12.807 3.299 9.187 
154 1 13.224 1.962 9.418 
300 1 11.47 3.716 9.418 
314 1 12.208 0.945 9.418 
28 1 17.562 4.433 6.117 
29 1 17.979 4.664 7.454 
203 1 15.626 4.433 8.053 
204 1 15.209 4.664 6.716 
241 1 16.225 4.664 5.7 
265 1 16.963 4.664 8.47 
139 1 13.942 8.053 6.117 
140 1 14.173 6.716 5.7 
223 1 13.942 6.117 8.053 
224 1 14.173 7.454 8.47 
260 1 14.173 8.47 7.454 
272 1 14.173 5.7 6.716 
23 1 19.015 7.454 5.7 
63 1 18.502 8.994 8.994 
66 1 18.502 5.176 5.176 
69 1 14.685 5.176 8.994 
72 1 14.685 8.994 5.176 
146 1 15.209 9.506 7.454 
182 1 16.225 8.47 9.506 
190 1 19.015 6.716 8.47 
198 1 17.979 9.506 6.716 
210 1 16.963 5.7 9.506 
248 1 19.015 5.7 7.454 
253 1 16.963 9.506 5.7 
262 1 15.209 7.454 9.506 
286 1 17.979 6.716 9.506 
289 1 16.225 9.506 8.47 
296 1 19.015 8.47 6.716 
27 1 9.931 0.422 9.931 
30 1 13.748 0.422 13.748 
33 1 13.748 4.239 9.931 
36 1 9.931 4.239 13.748 
38 1 13.224 2.699 14.26 
65 1 14.26 0.945 11.47 
74 1 10.454 1.962 14.26 
92 1 12.208 4.752 13.224 
168 1 11.47 4.752 10.454 
172 1 14.26 3.716 12.208 
226 1 11.47 0.945 14.26 
229 1 14.26 2.699 13.224 
275 1 12.208 3.716 14.26 
283 1 10.454 4.752 11.47 
302 1 14.26 1.962 10.454 
305 1 13.224 4.752 12.208 
64 1 14.491 1.362 12.807 
171 1 14.491 3.299 10.871 
91 1 10.871 4.982 12.807 
167 1 12.807 4.982 10.871 
181 1 17.562 8.053 9.737 
209 1 15.626 6.117 9.737 
37 1 12.807 1.362 14.491 
73 1 10.871 3.299 14.491 
31 1 17.562 0.228 17.562 
205 1 15.626 0.228 15.626 
143 1 9.737 8.053 17.562 
219 1 9.737 6.117 15.626 
3 1 9.931 9.931 0.422 
6 1 13.748 13.748 0.422 
9 1 9.931 13.748 4.239 
12 1 13.748 9.931 4.239 
53 1 11.47 14.26 0.945 
62 1 14.26 13.224 2.699 
108 1 10.454 11.47 4.752 
112 1 12.208 14.26 3.716 
160 1 13.224 12.208 4.752 
170 1 14.26 10.454 1.962 
230 1 14.26 11.47 0.945 
233 1 13.224 14.26 2.699 
298 1 11.47 10.454 4.752 
301 1 14.26 12.208 3.716 
309 1 10.454 14.26 1.962 
316 1 12.208 13.224 4.752 
61 1 14.491 12.807 1.363 
169 1 14.491 10.871 3.299 
52 1 12.807 14.491 1.363 
111 1 10.871 14.491 3.299 
7 1 17.562 17.562 0.228 
128 1 15.626 15.626 0.228 
107 1 10.871 12.807 4.982 
159 1 12.807 10.871 4.982 
145 1 15.626 9.737 6.117 
197 1 17.562 9.737 8.053 
141 1 9.737 15.626 6.117 
217 1 9.737 17.562 8.053 
70 1 18.696 12.807 12.807 
71 1 18.927 13.224 11.47 
175 1 18.696 10.871 10.871 
176 1 18.927 10.454 12.208 
232 1 18.927 11.47 13.224 
303 1 18.927 12.208 10.454 
58 1 12.807 18.696 12.807 
59 1 11.47 18.927 13.224 
115 1 10.871 18.696 10.871 
116 1 12.208 18.927 10.454 
236 1 13.224 18.927 11.47 
312 1 10.454 18.927 12.208 
177 1 17.562 15.626 13.942 
178 1 16.225 15.209 14.173 
213 1 15.626 17.562 13.942 
214 1 16.963 17.979 14.173 
263 1 15.209 16.225 14.173 
287 1 17.979 16.963 14.173 
46 1 12.807 12.807 18.696 
47 1 13.224 11.47 18.927 
82 1 10.871 10.871 18.696 
83 1 10.454 12.208 18.927 
228 1 11.47 13.224 18.927 
273 1 12.208 10.454 18.927 
151 1 15.626 13.942 17.562 
152 1 15.209 14.173 16.225 
195 1 17.562 13.942 15.626 
196 1 17.979 14.173 16.963 
255 1 16.963 14.173 17.979 
291 1 16.225 14.173 15.209 
137 1 13.942 15.626 17.562 
138 1 14.173 16.963 17.979 
221 1 13.942 17.562 15.626 
222 1 14.173 16.225 15.209 
259 1 14.173 15.209 16.225 
271 1 14.173 17.979 16.963 
8 1 16.225 17.979 19.015 
20 1 19.015 16.225 17.979 
32 1 17.979 19.015 16.225 
75 1 14.685 14.685 18.502 
78 1 18.502 18.502 18.502 
81 1 18.502 14.685 14.685 
84 1 14.685 18.502 14.685 
129 1 16.963 15.209 19.015 
192 1 19.015 16.963 15.209 
206 1 15.209 19.015 16.963 
239 1 17.979 16.225 19.015 
243 1 16.225 19.015 17.979 
247 1 19.015 17.979 16.225 
251 1 15.209 16.963 19.015 
267 1 16.963 19.015 15.209 
295 1 19.015 15.209 16.963 
ITEM: TIMESTEP
10
ITEM: NUMBER OF ATOMS
321
ITEM: BOX BOUNDS pp pp pp
0.0000000000000000e+00 1.9018000000000001e+01
0.0000000000000000e+00 1.9018000000000001e+01
0.0000000000000000e+00 1.9018000000000001e+01
ITEM: ATOMS id type x y z 
90 1 1.9623 4.75142 0.944482 
98 1 4.7518 3.71552 2.69951 
106 1 3.71672 2.69862 4.75168 
122 1 4.75123 0.945485 1.96161 
127 1 0.436393 4.22431 4.22522 
130 1 4.23944 0.421277 4.23919 
133 1 0.421916 0.421447 0.421653 
136 1 4.23944 4.23918 0.421487 
158 1 0.945466 1.96077 4.75289 
166 1 2.70022 4.75319 3.71569 
277 1 4.75121 1.96161 0.945573 
284 1 3.71678 4.75171 2.69892 
297 1 2.70051 3.71567 4.7531 
306 1 0.945538 4.75288 1.96105 
315 1 1.96232 0.944358 4.75153 
319 1 4.75178 2.69914 3.71554 
97 1 4.98272 3.2984 1.36251 
121 1 4.98277 1.36226 3.2984 
89 1 3.29887 4.98283 1.36223 
165 1 1.3694 4.98798 3.29168 
10 1 6.11669 6.1167 0.228082 
125 1 8.0533 8.0533 0.228071 
105 1 3.29892 1.36198 4.98289 
157 1 1.36967 3.29147 4.98838 
34 1 6.11672 0.228102 6.11672 
207 1 8.05327 0.22809 8.05327 
22 1 0.230289 6.12845 6.13291 
189 1 0.229822 8.05406 8.05654 
95 1 9.18689 3.29886 12.807 
96 1 9.41816 3.71552 11.4701 
119 1 9.18677 1.3622 10.8712 
120 1 9.41824 0.945447 12.208 
279 1 9.41832 1.96188 13.2237 
317 1 9.41834 2.69913 10.4542 
85 1 3.29887 9.18688 12.807 
86 1 1.96191 9.41829 13.2238 
161 1 1.36244 9.18677 10.8712 
162 1 2.69941 9.41821 10.4542 
281 1 3.71566 9.41808 11.4702 
307 1 0.945501 9.41822 12.2079 
179 1 6.11677 8.05323 13.9418 
180 1 7.45368 8.47 14.173 
215 1 8.05323 6.11677 13.9418 
216 1 6.71632 5.7 14.173 
264 1 8.47 7.45368 14.173 
288 1 5.7 6.71632 14.173 
43 1 1.36266 1.36222 18.6961 
44 1 0.945683 2.699 18.9274 
79 1 3.29869 3.2985 18.6959 
80 1 3.7155 1.96168 18.9276 
227 1 2.69949 0.945488 18.9277 
274 1 1.96179 3.71536 18.9273 
25 1 6.11684 4.43262 17.5621 
26 1 5.7 4.66398 16.2252 
201 1 8.05323 4.43282 15.6258 
202 1 8.46999 4.66401 16.9627 
242 1 7.45378 4.66402 17.979 
266 1 6.71635 4.66399 15.209 
16 1 4.43262 6.11684 17.5621 
17 1 4.66402 7.45378 17.979 
185 1 4.43282 8.05323 15.6258 
186 1 4.66399 6.71635 15.209 
245 1 4.66398 5.7 16.2252 
293 1 4.66401 8.46999 16.9627 
11 1 7.45372 5.70002 19.015 
39 1 8.99394 8.99394 18.5027 
42 1 5.17608 5.17607 18.5027 
45 1 5.17608 8.99391 14.6851 
48 1 8.99391 5.17608 14.6851 
126 1 6.71629 8.46998 19.015 
144 1 9.50598 6.71622 17.979 
148 1 8.46999 9.50602 16.2252 
200 1 5.70001 9.50599 16.9627 
220 1 9.50601 7.45365 15.209 
240 1 5.70002 7.45371 19.015 
252 1 8.46998 6.71629 19.015 
254 1 6.71622 9.50598 17.979 
257 1 9.50602 8.46999 16.2252 
269 1 9.50599 5.70001 16.9627 
290 1 7.45365 9.50601 15.209 
93 1 9.18681 10.8711 1.36239 
94 1 9.41821 10.4541 2.69941 
117 1 9.18688 12.807 3.29887 
118 1 9.41829 13.2238 1.9619 
280 1 9.41823 12.2079 0.945501 
318 1 9.41806 11.4702 3.71566 
55 1 1.36268 18.6961 1.36243 
56 1 2.69949 18.9276 0.945538 
113 1 3.29873 18.6958 3.29848 
114 1 1.96186 18.9272 3.71546 
235 1 0.945589 18.9273 2.69931 
311 1 3.71554 18.9276 1.96168 
4 1 6.11687 17.5621 4.43259 
5 1 7.45378 17.979 4.66401 
131 1 8.05323 15.6258 4.43282 
132 1 6.71635 15.209 4.66399 
237 1 5.7 16.2252 4.66397 
249 1 8.47 16.9627 4.664 
103 1 3.29887 12.807 9.18688 
104 1 3.71566 11.4702 9.41808 
155 1 1.36244 10.8712 9.18677 
156 1 0.945503 12.2079 9.41822 
299 1 2.69941 10.4542 9.4182 
313 1 1.96191 13.2238 9.41829 
149 1 8.05323 13.9418 6.11677 
150 1 8.47 14.173 7.45368 
193 1 6.11677 13.9418 8.05323 
194 1 5.7 14.173 6.71632 
256 1 6.71632 14.173 5.7 
292 1 7.45368 14.173 8.47 
13 1 4.4326 17.5621 6.11687 
14 1 4.66397 16.2252 5.7 
187 1 4.43282 15.6258 8.05323 
188 1 4.66401 16.9627 8.47 
246 1 4.66401 17.979 7.45378 
294 1 4.66399 15.209 6.71635 
35 1 5.70001 19.015 7.45371 
51 1 8.99391 18.5026 8.99391 
54 1 5.17611 18.5026 5.17611 
57 1 8.99391 14.6851 5.17608 
60 1 5.17608 14.6851 8.99391 
142 1 9.506 16.9627 5.70001 
184 1 7.45365 15.209 9.50601 
208 1 8.46998 19.015 6.71629 
212 1 6.71623 17.979 9.50599 
218 1 9.50603 16.2252 8.46999 
244 1 7.45371 19.015 5.70001 
258 1 9.50601 15.209 7.45365 
261 1 8.46999 16.2252 9.50603 
268 1 6.71629 19.015 8.46998 
270 1 9.50599 17.979 6.71623 
285 1 5.70001 16.9627 9.506 
15 1 0.421875 9.93064 9.93064 
18 1 0.421694 13.7479 13.7479 
21 1 4.23926 9.9304 13.7479 
24 1 4.23926 13.7479 9.9304 
41 1 0.945495 11.4702 14.2598 
50 1 2.69926 14.2598 13.2239 
77 1 3.71566 12.208 14.26 
100 1 4.75173 10.4538 11.4702 
110 1 1.9618 14.2597 10.4542 
124 1 4.75178 13.2242 12.2078 
225 1 2.69926 13.2239 14.2598 
234 1 0.945495 14.2598 11.4702 
276 1 1.9618 10.4542 14.2597 
278 1 4.75178 12.2078 13.2242 
310 1 3.71566 14.26 12.208 
320 1 4.75173 11.4702 10.4538 
99 1 4.9827 10.8709 12.8071 
123 1 4.9827 12.8071 10.8709 
49 1 1.36231 14.491 12.807 
109 1 3.2987 14.4915 10.8712 
183 1 6.11677 15.6258 9.73719 
211 1 8.05313 17.5621 9.73739 
40 1 1.36231 12.807 14.491 
76 1 3.2987 10.8712 14.4915 
147 1 8.05316 9.73737 17.5621 
199 1 6.11677 9.73718 15.6258 
19 1 0.22837 17.5622 17.5622 
191 1 0.227964 15.6256 15.6256 
67 1 18.696 1.36196 1.36215 
68 1 18.9274 0.944381 2.69877 
173 1 18.6904 3.2918 3.29174 
174 1 18.926 3.71541 1.96102 
231 1 18.9275 2.69848 0.944555 
304 1 18.9259 1.96104 3.71552 
87 1 10.8711 9.18679 1.36239 
88 1 12.2079 9.41824 0.945467 
163 1 12.8066 9.18666 3.29845 
164 1 11.4703 9.41792 3.71556 
282 1 10.4541 9.41822 2.69938 
308 1 13.2237 9.41815 1.96205 
1 1 17.6088 6.14485 4.39665 
2 1 16.1823 5.66668 4.6184 
134 1 15.6246 8.06698 4.42517 
135 1 16.9619 8.48032 4.66187 
238 1 17.9869 7.47525 4.66504 
250 1 15.1627 6.76803 4.68527 
321 2 16.2561 5.64762 3.50252 
101 1 10.8711 1.36219 9.18677 
102 1 10.4542 2.69913 9.41834 
153 1 12.8069 3.29883 9.18685 
154 1 13.2237 1.96187 9.4183 
300 1 11.4701 3.71552 9.41816 
314 1 12.2079 0.945438 9.41824 
28 1 17.537 4.42952 6.13339 
29 1 17.9778 4.6604 7.45546 
203 1 15.6247 4.43104 8.06457 
204 1 15.2105 4.65482 6.71377 
241 1 16.2313 4.6254 5.74149 
265 1 16.9628 4.66156 8.47162 
139 1 13.9334 8.06967 6.12162 
140 1 14.1467 6.71387 5.71102 
223 1 13.9377 6.11639 8.05395 
224 1 14.1733 7.45248 8.47193 
260 1 14.17 8.47304 7.45876 
272 1 14.1672 5.69688 6.7261 
23 1 19.0278 7.45476 5.70804 
63 1 18.5025 8.99489 8.99513 
66 1 18.5256 5.16286 5.17607 
69 1 14.6869 5.17352 8.99616 
72 1 14.6794 9.00542 5.18089 
146 1 15.2104 9.50878 7.45503 
182 1 16.2255 8.47005 9.5066 
190 1 19.0161 6.71845 8.47254 
198 1 17.9793 9.50762 6.71738 
210 1 16.9623 5.70165 9.50835 
248 1 19.0199 5.7008 7.45469 
253 1 16.9642 9.51002 5.70019 
262 1 15.2081 7.45419 9.50621 
286 1 17.979 6.71591 9.50718 
289 1 16.2251 9.50697 8.47076 
296 1 19.0186 8.47332 6.71903 
27 1 9.93055 0.421606 9.93056 
30 1 13.7479 0.421485 13.7479 
33 1 13.7477 4.2391 9.93065 
36 1 9.93041 4.23926 13.7479 
38 1 13.2238 2.69898 14.2597 
65 1 14.2598 0.945422 11.4702 
74 1 10.4543 1.96178 14.2597 
92 1 12.2079 4.7517 13.2242 
168 1 11.4701 4.75165 10.4538 
172 1 14.2599 3.71554 12.2081 
226 1 11.4702 0.945436 14.2598 
229 1 14.2597 2.69898 13.2238 
275 1 12.208 3.71552 14.2599 
283 1 10.4538 4.75165 11.4702 
302 1 14.2597 1.96174 10.4543 
305 1 13.2242 4.75171 12.2079 
64 1 14.4911 1.36209 12.807 
171 1 14.4915 3.29862 10.8713 
91 1 10.8709 4.98266 12.8071 
167 1 12.807 4.98273 10.871 
181 1 17.5616 8.054 9.73825 
209 1 15.6262 6.1167 9.73836 
37 1 12.807 1.3621 14.4911 
73 1 10.8712 3.29869 14.4915 
31 1 17.5622 0.228365 17.5622 
205 1 15.6257 0.22798 15.6257 
143 1 9.73737 8.05316 17.5621 
219 1 9.73718 6.11677 15.6258 
3 1 9.93054 9.93057 0.421796 
6 1 13.7478 13.7479 0.421678 
9 1 9.93038 13.7479 4.23926 
12 1 13.7478 9.93057 4.23937 
53 1 11.4702 14.2598 0.945491 
62 1 14.2598 13.2239 2.69923 
108 1 10.4538 11.4702 4.75173 
112 1 12.2079 14.26 3.71566 
160 1 13.2242 12.2078 4.75189 
170 1 14.2598 10.4543 1.96191 
230 1 14.2598 11.4703 0.945456 
233 1 13.2239 14.2598 2.69926 
298 1 11.4702 10.4539 4.75183 
301 1 14.2601 12.2079 3.71557 
309 1 10.4542 14.2597 1.9618 
316 1 12.2078 13.2243 4.75179 
61 1 14.4911 12.807 1.36229 
169 1 14.4917 10.8716 3.29826 
52 1 12.807 14.4911 1.36229 
111 1 10.8711 14.4915 3.2987 
7 1 17.5622 17.5622 0.228369 
128 1 15.6256 15.6256 0.227964 
107 1 10.8709 12.8071 4.98272 
159 1 12.8065 10.8715 4.98297 
145 1 15.6246 9.74088 6.11702 
197 1 17.5628 9.73836 8.05351 
141 1 9.73719 15.6258 6.11677 
217 1 9.73739 17.5621 8.05313 
70 1 18.6963 12.8073 12.8073 
71 1 18.9273 13.2241 11.4704 
175 1 18.6958 10.871 10.871 
176 1 18.9273 10.4539 12.2079 
232 1 18.9273 11.4704 13.2241 
303 1 18.9273 12.2079 10.4539 
58 1 12.8073 18.6962 12.8073 
59 1 11.4704 18.9273 13.2241 
115 1 10.871 18.6958 10.871 
116 1 12.2079 18.9272 10.4539 
236 1 13.2241 18.9273 11.4704 
312 1 10.4539 18.9272 12.2079 
177 1 17.5622 15.6258 13.9417 
178 1 16.2253 15.209 14.173 
213 1 15.6258 17.5622 13.9417 
214 1 16.9627 17.979 14.173 
263 1 15.209 16.2253 14.1729 
287 1 17.979 16.9627 14.173 
46 1 12.8073 12.8073 18.6963 
47 1 13.2241 11.4704 18.9273 
82 1 10.871 10.871 18.6958 
83 1 10.4539 12.2079 18.9273 
228 1 11.4704 13.2241 18.9273 
273 1 12.2079 10.4539 18.9273 
151 1 15.6258 13.9417 17.5622 
152 1 15.209 14.173 16.2253 
195 1 17.5622 13.9417 15.6258 
196 1 17.979 14.173 16.9627 
255 1 16.9627 14.173 17.979 
291 1 16.2253 14.173 15.209 
137 1 13.9417 15.6258 17.5622 
138 1 14.173 16.9627 17.979 
221 1 13.9417 17.5622 15.6258 
222 1 14.1729 16.2253 15.209 
259 1 14.173 15.209 16.2253 
271 1 14.173 17.979 16.9627 
8 1 16.2251 17.979 19.015 
20 1 19.015 16.2251 17.979 
32 1 17.979 19.015 16.2251 
75 1 14.685 14.685 18.5027 
78 1 18.5027 18.5027 18.5027 
81 1 18.5027 14.685 14.685 
84 1 14.6851 18.5027 14.6851 
129 1 16.9626 15.209 19.015 
192 1 19.015 16.9626 15.209 
206 1 15.209 19.015 16.9626 
239 1 17.979 16.2251 19.015 
243 1 16.2251 19.015 17.979 
247 1 19.015 17.979 16.2251 
251 1 15.209 16.9626 19.015 
267 1 16.9626 19.015 15.209 
295 1 19.015 15.209 16.9626 
ITEM: TIMESTEP
20
ITEM: NUMBER OF ATOMS
321
ITEM: BOX BOUNDS pp pp pp
0.0000000000000000e+00 1.9018000000000001e+01
0.0000000000000000e+00 1.9018000000000001e+01
0.0000000000000000e+00 1.9018000000000001e+01
ITEM: ATOMS id type x y z 
90 1 1.96283 4.75203 0.943638 
98 1 4.75251 3.71512 2.69888 
106 1 3.71782 2.69813 4.75239 
122 1 4.75148 0.945436 1.96174 
127 1 0.443615 4.21697 4.22024 
130 1 4.23973 0.4211 4.23939 
133 1 0.421634 0.421075 0.421191 
136 1 4.23974 4.23933 0.421208 
158 1 0.944366 1.95748 4.7529 
166 1 2.70315 4.75323 3.7167 
277 1 4.75141 1.96177 0.945531 
284 1 3.71771 4.75232 2.69822 
297 1 2.7036 3.71664 4.75316 
306 1 0.944485 4.75278 1.95829 
315 1 1.96288 0.943201 4.75225 
319 1 4.75263 2.69868 3.71508 
97 1 4.98351 3.29865 1.36197 
121 1 4.98356 1.36179 3.29864 
89 1 3.29975 4.98281 1.36134 
165 1 1.37001 4.9859 3.29136 
10 1 6.11665 6.11665 0.228428 
125 1 8.05333 8.05333 0.228431 
105 1 3.29986 1.36111 4.98277 
157 1 1.37069 3.2903 4.98803 
34 1 6.11666 0.228429 6.11666 
207 1 8.05332 0.228428 8.05332 
22 1 0.218881 6.12939 6.12962 
189 1 0.231564 8.05578 8.0613 
95 1 9.18662 3.29896 12.8073 
96 1 9.4182 3.71548 11.4704 
119 1 9.18663 1.362 10.8708 
120 1 9.41832 0.945465 12.2077 
279 1 9.41834 1.96204 13.2237 
317 1 9.41828 2.69893 10.4543 
85 1 3.29901 9.18663 12.8073 
86 1 1.9621 9.41831 13.2238 
161 1 1.3624 9.18656 10.871 
162 1 2.69918 9.41824 10.4542 
281 1 3.71563 9.41818 11.4704 
307 1 0.945553 9.4183 12.2077 
179 1 6.11666 8.05334 13.9415 
180 1 7.45357 8.46983 14.1732 
215 1 8.05334 6.11666 13.9415 
216 1 6.71643 5.70017 14.1732 
264 1 8.46983 7.45357 14.1732 
288 1 5.70017 6.71643 14.1732 
43 1 1.36241 1.36176 18.6955 
44 1 0.945964 2.69862 18.9267 
79 1 3.29914 3.29865 18.6954 
80 1 3.71556 1.96175 18.9274 
227 1 2.69933 0.945419 18.9275 
274 1 1.96224 3.71503 18.9266 
25 1 6.11667 4.43245 17.5623 
26 1 5.70017 4.66419 16.2254 
201 1 8.05336 4.43248 15.6256 
202 1 8.46985 4.6642 16.9625 
242 1 7.45359 4.66418 17.9788 
266 1 6.71645 4.66419 15.2091 
16 1 4.43246 6.11666 17.5623 
17 1 4.66418 7.45358 17.9788 
185 1 4.43248 8.05336 15.6256 
186 1 4.6642 6.71645 15.2091 
245 1 4.66419 5.70017 16.2254 
293 1 4.6642 8.46985 16.9626 
11 1 7.45358 5.70019 19.0147 
39 1 8.99394 8.99394 18.5028 
42 1 5.17609 5.17606 18.5027 
45 1 5.17603 8.99396 14.685 
48 1 8.99396 5.17602 14.685 
126 1 6.71642 8.46981 19.0147 
144 1 9.50582 6.71643 17.9788 
148 1 8.46982 9.50581 16.2254 
200 1 5.70015 9.5058 16.9625 
220 1 9.5058 7.45354 15.2091 
240 1 5.70019 7.45358 19.0147 
252 1 8.46981 6.71642 19.0147 
254 1 6.71642 9.50582 17.9788 
257 1 9.50581 8.46982 16.2254 
269 1 9.5058 5.70016 16.9625 
290 1 7.45354 9.5058 15.2091 
93 1 9.18664 10.8708 1.36219 
94 1 9.41823 10.4542 2.69909 
117 1 9.18657 12.8073 3.29896 
118 1 9.41831 13.2238 1.96206 
280 1 9.41835 12.2077 0.945549 
318 1 9.41805 11.4704 3.71553 
55 1 1.36242 18.6954 1.36191 
56 1 2.6993 18.9274 0.945482 
113 1 3.29918 18.6952 3.29863 
114 1 1.9623 18.9263 3.71504 
235 1 0.945915 18.9265 2.69876 
311 1 3.7156 18.9273 1.96175 
4 1 6.11669 17.5622 4.43244 
5 1 7.4536 17.9788 4.66418 
131 1 8.05336 15.6256 4.43248 
132 1 6.71645 15.2091 4.66419 
237 1 5.70016 16.2253 4.66419 
249 1 8.46986 16.9625 4.6642 
103 1 3.29901 12.8073 9.18663 
104 1 3.71563 11.4704 9.41818 
155 1 1.36238 10.871 9.18658 
156 1 0.945562 12.2077 9.4183 
299 1 2.69916 10.4543 9.41823 
313 1 1.9621 13.2238 9.41831 
149 1 8.05334 13.9415 6.11666 
150 1 8.46983 14.1732 7.45357 
193 1 6.11666 13.9415 8.05334 
194 1 5.70017 14.1732 6.71643 
256 1 6.71643 14.1732 5.70017 
292 1 7.45357 14.1732 8.46983 
13 1 4.43245 17.5622 6.11668 
14 1 4.66418 16.2253 5.70017 
187 1 4.43248 15.6256 8.05336 
188 1 4.6642 16.9625 8.46986 
246 1 4.66418 17.9788 7.45359 
294 1 4.66419 15.2091 6.71645 
35 1 5.70018 19.0147 7.45358 
51 1 8.99391 18.5028 8.99392 
54 1 5.17614 18.5027 5.1761 
57 1 8.99395 14.685 5.17603 
60 1 5.17603 14.685 8.99396 
142 1 9.50581 16.9625 5.70015 
184 1 7.45354 15.2091 9.50581 
208 1 8.46982 19.0147 6.71642 
212 1 6.71642 17.9788 9.50582 
218 1 9.50581 16.2254 8.46983 
244 1 7.45359 19.0147 5.70018 
258 1 9.50581 15.2091 7.45354 
261 1 8.46983 16.2254 9.50581 
268 1 6.71642 19.0147 8.46981 
270 1 9.50583 17.9788 6.71642 
285 1 5.70015 16.9625 9.50581 
15 1 0.421941 9.93088 9.93092 
18 1 0.421448 13.7481 13.7481 
21 1 4.23945 9.93026 13.748 
24 1 4.23945 13.748 9.93027 
41 1 0.945537 11.4705 14.2597 
50 1 2.69904 14.2598 13.2238 
77 1 3.7156 12.2077 14.2599 
100 1 4.75155 10.4542 11.4704 
110 1 1.96204 14.2598 10.4543 
124 1 4.75151 13.2238 12.2077 
225 1 2.69904 13.2238 14.2598 
234 1 0.945537 14.2597 11.4705 
276 1 1.96204 10.4543 14.2598 
278 1 4.75151 12.2077 13.2238 
310 1 3.7156 14.2599 12.2077 
320 1 4.75154 11.4704 10.4542 
99 1 4.98312 10.8708 12.8073 
123 1 4.98312 12.8073 10.8708 
49 1 1.36211 14.4914 12.8074 
109 1 3.29895 14.4915 10.8708 
183 1 6.11663 15.6256 9.73752 
211 1 8.05331 17.5622 9.73755 
40 1 1.36211 12.8074 14.4914 
76 1 3.29895 10.8708 14.4915 
147 1 8.05333 9.73754 17.5623 
199 1 6.11663 9.73752 15.6256 
19 1 0.228462 17.5623 17.5623 
191 1 0.228407 15.6256 15.6256 
67 1 18.6961 1.36114 1.36127 
68 1 18.9268 0.943426 2.69819 
173 1 18.6924 3.29133 3.2916 
174 1 18.926 3.71639 1.95834 
231 1 18.9269 2.69812 0.943699 
304 1 18.9257 1.95808 3.71654 
87 1 10.8707 9.18661 1.36212 
88 1 12.2076 9.41832 0.94548 
163 1 12.8066 9.18673 3.29833 
164 1 11.4704 9.41781 3.71544 
282 1 10.4541 9.4182 2.69901 
308 1 13.2236 9.41806 1.9622 
1 1 17.6159 6.13806 4.40146 
2 1 16.1503 5.64177 4.56234 
134 1 15.6182 8.06631 4.43309 
135 1 16.9635 8.47954 4.66646 
238 1 17.9847 7.46912 4.67133 
250 1 15.1576 6.78392 4.70338 
321 2 16.3051 5.6051 3.46329 
101 1 10.8708 1.36199 9.18662 
102 1 10.4542 2.69891 9.41829 
153 1 12.807 3.29864 9.18645 
154 1 13.2237 1.96202 9.41822 
300 1 11.4704 3.71547 9.41813 
314 1 12.2077 0.945401 9.4183 
28 1 17.5341 4.44223 6.13328 
29 1 17.9796 4.66382 7.46232 
203 1 15.6251 4.42825 8.07007 
204 1 15.2099 4.65135 6.71697 
241 1 16.2358 4.62946 5.75521 
265 1 16.9632 4.66031 8.47747 
139 1 13.9206 8.08144 6.12741 
140 1 14.1399 6.72451 5.71375 
223 1 13.9385 6.11492 8.05 
224 1 14.1736 7.45257 8.47194 
260 1 14.1696 8.47737 7.46485 
272 1 14.1725 5.69869 6.72808 
23 1 19.0305 7.45989 5.71209 
63 1 18.5025 8.99583 8.99694 
66 1 18.516 5.17875 5.15724 
69 1 14.6867 5.17386 8.99862 
72 1 14.6721 9.01252 5.19298 
146 1 15.2111 9.51176 7.45704 
182 1 16.2251 8.47037 9.50645 
190 1 19.017 6.71844 8.47402 
198 1 17.9789 9.50787 6.71949 
210 1 16.9625 5.70297 9.51078 
248 1 19.016 5.69872 7.45866 
253 1 16.9653 9.50742 5.69719 
262 1 15.2075 7.45424 9.5061 
286 1 17.9791 6.71708 9.50829 
289 1 16.2263 9.50773 8.47261 
296 1 19.0221 8.47855 6.7225 
27 1 9.93032 0.421451 9.93035 
30 1 13.7481 0.421287 13.7481 
33 1 13.7471 4.23869 9.93143 
36 1 9.93026 4.23943 13.748 
38 1 13.2238 2.69885 14.2598 
65 1 14.2598 0.945316 11.4705 
74 1 10.4543 1.96199 14.2598 
92 1 12.2077 4.75149 13.224 
168 1 11.4703 4.75154 10.4542 
172 1 14.2599 3.71552 12.2079 
226 1 11.4704 0.945425 14.2597 
229 1 14.2598 2.69882 13.2239 
275 1 12.2077 3.71547 14.2599 
283 1 10.4541 4.75149 11.4704 
302 1 14.2598 1.96186 10.4543 
305 1 13.2239 4.75158 12.2078 
64 1 14.4915 1.36187 12.8074 
171 1 14.4918 3.29838 10.8714 
91 1 10.8708 4.98308 12.8073 
167 1 12.8069 4.98348 10.8712 
181 1 17.5612 8.05455 9.74002 
209 1 15.6256 6.11748 9.74004 
37 1 12.8073 1.36188 14.4915 
73 1 10.8708 3.2989 14.4915 
31 1 17.5623 0.228441 17.5623 
205 1 15.6256 0.228407 15.6256 
143 1 9.73754 8.05333 17.5623 
219 1 9.73752 6.11663 15.6256 
3 1 9.93029 9.93038 0.421556 
6 1 13.748 13.7481 0.421397 
9 1 9.93022 13.748 4.23944 
12 1 13.7473 9.93172 4.23943 
53 1 11.4705 14.2597 0.945509 
62 1 14.2599 13.224 2.69892 
108 1 10.4539 11.4705 4.75165 
112 1 12.2077 14.26 3.71552 
160 1 13.2239 12.2083 4.75172 
170 1 14.2599 10.4543 1.96193 
230 1 14.2598 11.4706 0.945379 
233 1 13.2238 14.2599 2.699 
298 1 11.4699 10.4541 4.75166 
301 1 14.2602 12.2079 3.71551 
309 1 10.4543 14.2598 1.962 
316 1 12.2076 13.2242 4.75166 
61 1 14.4915 12.8074 1.36198 
169 1 14.4918 10.8718 3.29795 
52 1 12.8073 14.4915 1.36207 
111 1 10.8708 14.4916 3.2989 
7 1 17.5623 17.5623 0.228448 
128 1 15.6256 15.6256 0.228409 
107 1 10.8707 12.8074 4.98311 
159 1 12.8057 10.8724 4.98341 
145 1 15.6244 9.74465 6.11876 
197 1 17.5632 9.74024 8.05331 
141 1 9.73752 15.6256 6.11663 
217 1 9.73755 17.5622 8.05331 
70 1 18.6958 12.8074 12.8074 
71 1 18.9275 13.2239 11.4705 
175 1 18.6956 10.8711 10.8711 
176 1 18.9274 10.4542 12.2079 
232 1 18.9275 11.4705 13.2239 
303 1 18.9274 12.2079 10.4542 
58 1 12.8074 18.6957 12.8074 
59 1 11.4704 18.9274 13.2239 
115 1 10.8708 18.6957 10.8709 
116 1 12.2077 18.9274 10.4542 
236 1 13.2238 18.9274 11.4705 
312 1 10.4542 18.9274 12.2077 
177 1 17.5623 15.6256 13.9415 
178 1 16.2254 15.2091 14.1732 
213 1 15.6256 17.5623 13.9415 
214 1 16.9625 17.9788 14.1732 
263 1 15.2091 16.2254 14.1732 
287 1 17.9788 16.9625 14.1732 
46 1 12.8074 12.8074 18.6958 
47 1 13.2238 11.4705 18.9274 
82 1 10.8708 10.8708 18.6957 
83 1 10.4542 12.2077 18.9275 
228 1 11.4704 13.2239 18.9275 
273 1 12.2077 10.4542 18.9274 
151 1 15.6256 13.9415 17.5623 
152 1 15.2092 14.1732 16.2254 
195 1 17.5623 13.9415 15.6256 
196 1 17.9788 14.1732 16.9625 
255 1 16.9625 14.1732 17.9788 
291 1 16.2254 14.1732 15.2092 
137 1 13.9415 15.6256 17.5623 
138 1 14.1732 16.9625 17.9788 
221 1 13.9415 17.5623 15.6256 
222 1 14.1732 16.2254 15.2091 
259 1 14.1732 15.2091 16.2254 
271 1 14.1732 17.9788 16.9625 
8 1 16.2254 17.9788 19.0148 
20 1 19.0148 16.2253 17.9788 
32 1 17.9788 19.0148 16.2254 
75 1 14.6849 14.6849 18.5029 
78 1 18.5029 18.5028 18.5028 
81 1 18.5029 14.6849 14.6849 
84 1 14.6849 18.5029 14.6849 
129 1 16.9625 15.2091 19.0147 
192 1 19.0147 16.9625 15.2091 
206 1 15.2091 19.0147 16.9625 
239 1 17.9788 16.2253 19.0148 
243 1 16.2254 19.0148 17.9788 
247 1 19.0148 17.9788 16.2253 
251 1 15.2091 16.9625 19.0147 
267 1 16.9625 19.0147 15.2091 
295 1 19.0147 15.2091 16.9625 
ITEM: TIMESTEP
30
ITEM: NUMBER OF ATOMS
321
ITEM: BOX BOUNDS pp pp pp
0.0000000000000000e+00 1.9018000000000001e+01
0.0000000000000000e+00 1.9018000000000001e+01
0.0000000000000000e+00 1.9018000000000001e+01
ITEM: ATOMS id type x y z 
90 1 1.96314 4.75214 0.942874 
98 1 4.75292 3.7149 2.6986 
106 1 3.71867 2.69773 4.75247 
122 1 4.75152 0.945375 1.96169 
127 1 0.444472 4.21606 4.2194 
130 1 4.23995 0.42092 4.23918 
133 1 0.421807 0.420957 0.421049 
136 1 4.23991 4.23917 0.421045 
158 1 0.944904 1.95685 4.75318 
166 1 2.70398 4.75293 3.71642 
277 1 4.75147 1.9617 0.94547 
284 1 3.71851 4.75239 2.69789 
297 1 2.70416 3.71607 4.75341 
306 1 0.944903 4.75272 1.95766 
315 1 1.96327 0.942314 4.75234 
319 1 4.75306 2.69845 3.71485 
97 1 4.98381 3.29855 1.3617 
121 1 4.98389 1.36157 3.29853 
89 1 3.29994 4.98259 1.36113 
165 1 1.37198 4.98487 3.28965 
10 1 6.11662 6.11662 0.228515 
125 1 8.05337 8.05337 0.228517 
105 1 3.30008 1.36088 4.98257 
157 1 1.37238 3.28856 4.98766 
34 1 6.11664 0.228511 6.11663 
207 1 8.05336 0.228509 8.05336 
22 1 0.215484 6.1306 6.13084 
189 1 0.23213 8.0561 8.06234 
95 1 9.18653 3.29895 12.8074 
96 1 9.41822 3.71534 11.4705 
119 1 9.18654 1.36201 10.8708 
120 1 9.41836 0.945576 12.2077 
279 1 9.41841 1.96203 13.2237 
317 1 9.41834 2.69892 10.4543 
85 1 3.29905 9.18655 12.8074 
86 1 1.96213 9.41836 13.2238 
161 1 1.36247 9.1865 10.8711 
162 1 2.69921 9.41831 10.4543 
281 1 3.71555 9.41823 11.4705 
307 1 0.945652 9.41832 12.2078 
179 1 6.11661 8.05339 13.9414 
180 1 7.45351 8.4698 14.1732 