
     Program PWSCF v.7.1 starts on 29Apr2025 at 16:46: 4 

     This program is part of the open-source Quantum ESPRESSO suite
     for quantum simulation of materials; please cite
         "P. Giannozzi et al., J. Phys.:Condens. Matter 21 395502 (2009);
         "P. Giannozzi et al., J. Phys.:Condens. Matter 29 465901 (2017);
         "P. Giannozzi et al., J. Chem. Phys. 152 154105 (2020);
          URL http://www.quantum-espresso.org", 
     in publications or presentations arising from this work. More details at
     http://www.quantum-espresso.org/quote

     Parallel version (MPI), running on    16 processors

     MPI processes distributed on     1 nodes
     250258 MiB available memory on the printing compute node when the environment starts

     Reading input from input.pwi
Warning: card &CELL ignored
Warning: card / ignored
Warning: card &FCP ignored
Warning: card / ignored
Warning: card &RISM ignored
Warning: card / ignored

     Current dimensions of program PWSCF are:
     Max number of different atomic species (ntypx) = 10
     Max number of k-points (npk) =  40000
     Max angular momentum in pseudopotentials (lmaxx) =  4
     file C.pbe-n-kjpaw_psl.1.0.0.UPF: wavefunction(s)  2S 2P renormalized

     IMPORTANT: XC functional enforced from input :
     Exchange-correlation= PBE
                           (   1   4   3   4   0   0   0)
     Any further DFT definition will be discarded
     Please, verify this is what you really want


     gamma-point specific algorithms are used
     Message from routine  set_nelup_neldw :
     BEWARE: non-integer number of up and down electrons!

     R & G space division:  proc/nbgrp/npool/nimage =      16
     Subspace diagonalization in iterative solution of the eigenvalue problem:
     a serial algorithm will be used


     Parallelization info
     --------------------
     sticks:   dense  smooth     PW     G-vecs:    dense   smooth      PW
     Min         356     177     43                70548    24945    3112
     Max         358     180     46                70590    24972    3130
     Sum        5721    2869    717              1129231   399349   49901

     Using Slab Decomposition



     bravais-lattice index     =            0
     lattice parameter (alat)  =      13.4114  a.u.
     unit-cell volume          =    8357.3659 (a.u.)^3
     number of atoms/cell      =           33
     number of atomic types    =            2
     number of electrons       =       129.00 (up:  64.50, down:  64.50)
     number of Kohn-Sham states=           77
     kinetic-energy cutoff     =      50.0000  Ry
     charge density cutoff     =     400.0000  Ry
     scf convergence threshold =      1.0E-06
     mixing beta               =       0.3000
     number of iterations used =            8  plain     mixing
     energy convergence thresh.=      1.0E-04
     force convergence thresh. =      1.0E-03
     Exchange-correlation= PBE
                           (   1   4   3   4   0   0   0)
     nstep                     =         1000


     celldm(1)=  13.411386  celldm(2)=   0.000000  celldm(3)=   0.000000
     celldm(4)=   0.000000  celldm(5)=   0.000000  celldm(6)=   0.000000

     crystal axes: (cart. coord. in units of alat)
               a(1) = (   1.000000   0.000000   0.000000 )  
               a(2) = (   0.000000   1.000000   0.000000 )  
               a(3) = (   0.000000   0.000000   3.464562 )  

     reciprocal axes: (cart. coord. in units 2 pi/alat)
               b(1) = (  1.000000  0.000000  0.000000 )  
               b(2) = (  0.000000  1.000000  0.000000 )  
               b(3) = (  0.000000  0.000000  0.288637 )  


     PseudoPot. # 1 for C  read from file:
     /home/ana.bisette/espresso/pseudo/C.pbe-n-kjpaw_psl.1.0.0.UPF
     MD5 check sum: 5d2aebdfa2cae82b50a7e79e9516da0f
     Pseudo is Projector augmented-wave + core cor, Zval =  4.0
     Generated using "atomic" code by A. Dal Corso  v.5.1
     Shape of augmentation charge: PSQ
     Using radial grid of 1073 points,  4 beta functions with: 
                l(1) =   0
                l(2) =   0
                l(3) =   1
                l(4) =   1
     Q(r) pseudized with 0 coefficients 


     PseudoPot. # 2 for H  read from file:
     /home/ana.bisette/espresso/pseudo/H.pbe-rrkjus_psl.1.0.0.UPF
     MD5 check sum: f52b6d4d1c606e5624b1dc7b2218f220
     Pseudo is Ultrasoft, Zval =  1.0
     Generated using "atomic" code by A. Dal Corso  v.5.1
     Using radial grid of  929 points,  2 beta functions with: 
                l(1) =   0
                l(2) =   0
     Q(r) pseudized with 0 coefficients 


     atomic species   valence    mass     pseudopotential
        C              4.00    12.01100     C ( 1.00)
        H              1.00     1.00800     H ( 1.00)

     Starting magnetic structure 
     atomic species   magnetization
        C            0.000
        H            0.000

     No symmetry found



   Cartesian axes

     site n.     atom                  positions (alat units)
         1           C   tau(   1) = (   0.6547837   0.7372129   0.9093983  )
         2           C   tau(   2) = (   0.4704805   0.2299563   1.8767085  )
         3           C   tau(   3) = (   0.4773848   0.7342539   1.2126251  )
         4           C   tau(   4) = (   0.3047767   0.7372129   0.9093983  )
         5           C   tau(   5) = (   0.6553473   0.2227702   2.5550232  )
         6           C   tau(   6) = (   0.4703396   0.7301677   1.5878540  )
         7           C   tau(   7) = (   0.4778075   0.2257292   2.2517965  )
         8           C   tau(   8) = (   0.3051994   0.2227702   2.5551642  )
         9           C   tau(   9) = (   0.4703396   0.5550232   1.6888826  )
        10           C   tau(  10) = (   0.9798506   0.7372129   0.7217134  )
        11           C   tau(  11) = (   0.4741440   0.7318585   1.3856559  )
        12           C   tau(  12) = (   0.4703396   0.9050303   1.6890235  )
        13           C   tau(  13) = (  -0.0104269   0.5548823   0.0432577  )
        14           C   tau(  14) = (   0.4796393   0.7372129   1.0104269  )
        15           C   tau(  15) = (  -0.0145132   0.7318585   0.3464844  )
        16           C   tau(  16) = (  -0.0104269   0.9050303   0.0432577  )
        17           C   tau(  17) = (  -0.0104269   0.4051007   3.4211639  )
        18           C   tau(  18) = (   0.4802029   0.2227702   2.4539946  )
        19           C   tau(  19) = (  -0.0140905   0.2281246   3.1180781  )
        20           C   tau(  20) = (  -0.0104269   0.0549528   3.4213048  )
        21           C   tau(  21) = (   0.4703396   0.4051007   1.7756799  )
        22           C   tau(  22) = (  -0.0197266   0.2227702   2.7428491  )
        23           C   tau(  23) = (   0.4744258   0.2281246   2.0787657  )
        24           C   tau(  24) = (   0.4703396   0.0549528   1.7755390  )
        25           C   tau(  25) = (   0.8051289   0.2227702   2.6416796  )
        26           C   tau(  26) = (  -0.0105678   0.7300268   0.1444272  )
        27           C   tau(  27) = (  -0.0173313   0.2257292   2.9449063  )
        28           C   tau(  28) = (   0.1552769   0.2227702   2.6416796  )
        29           C   tau(  29) = (   0.8047062   0.7372129   0.8227420  )
        30           C   tau(  30) = (  -0.0102860   0.2298154   3.3201353  )
        31           C   tau(  31) = (  -0.0178949   0.7342539   0.5196562  )
        32           C   tau(  32) = (   0.1547133   0.7372129   0.8228829  )
        33           H   tau(  33) = (   0.3223897   0.7342539   1.2126251  )

     number of k points=     1  Gaussian smearing, width (Ry)=  0.0001
                       cart. coord. in units 2pi/alat
        k(    1) = (   0.0000000   0.0000000   0.0000000), wk =   1.0000000

     Dense  grid:   564616 G-vectors     FFT dimensions: (  90,  90, 300)

     Smooth grid:   199675 G-vectors     FFT dimensions: (  64,  64, 216)

     Estimated max dynamical RAM per process >     129.71 MB

     Estimated total dynamical RAM >       2.03 GB

     Check: negative core charge=   -0.000003
     Generating pointlists ...
     new r_m :   0.0639 (alat units)  0.8575 (a.u.) for type    1
     new r_m :   0.0639 (alat units)  0.8575 (a.u.) for type    2

     Initial potential from superposition of free atoms

     starting charge     128.9987, renormalised to     129.0000

     negative rho (up, down):  4.608E-08 4.608E-08
     Starting wfcs are  129 randomized atomic wfcs
     Checking if some PAW data can be deallocated... 

     total cpu time spent up to now is        2.0 secs

     Self-consistent Calculation

     iteration #  1     ecut=    50.00 Ry     beta= 0.30
     Davidson diagonalization with overlap
     ethr =  1.00E-02,  avg # of iterations =  2.0

     negative rho (up, down):  2.681E-07 2.696E-07

     total cpu time spent up to now is        3.3 secs

     total energy              =    -589.50116710 Ry
     estimated scf accuracy    <       3.88190201 Ry

     total magnetization       =    -0.00 Bohr mag/cell
     absolute magnetization    =     0.04 Bohr mag/cell

     iteration #  2     ecut=    50.00 Ry     beta= 0.30
     Davidson diagonalization with overlap
     ethr =  3.01E-03,  avg # of iterations =  1.0

     negative rho (up, down):  2.309E-06 2.304E-06

     total cpu time spent up to now is        4.4 secs

     total energy              =    -588.84193880 Ry
     estimated scf accuracy    <       1.58634617 Ry

     total magnetization       =     0.00 Bohr mag/cell
     absolute magnetization    =     0.03 Bohr mag/cell

     iteration #  3     ecut=    50.00 Ry     beta= 0.30
     Davidson diagonalization with overlap
     ethr =  1.23E-03,  avg # of iterations = 14.5

     negative rho (up, down):  8.214E-06 8.184E-06

     total cpu time spent up to now is        6.1 secs

     total energy              =    -588.90183404 Ry
     estimated scf accuracy    <       2.61956815 Ry

     total magnetization       =    -0.00 Bohr mag/cell
     absolute magnetization    =     0.04 Bohr mag/cell

     iteration #  4     ecut=    50.00 Ry     beta= 0.30
     Davidson diagonalization with overlap
     ethr =  1.23E-03,  avg # of iterations =  2.5

     negative rho (up, down):  9.028E-06 8.973E-06

     total cpu time spent up to now is        7.4 secs

     total energy              =    -589.12710236 Ry
     estimated scf accuracy    <       0.16812832 Ry

     total magnetization       =    -0.00 Bohr mag/cell
     absolute magnetization    =     0.03 Bohr mag/cell

     iteration #  5     ecut=    50.00 Ry     beta= 0.30
     Davidson diagonalization with overlap
     ethr =  1.30E-04,  avg # of iterations = 15.0

     negative rho (up, down):  1.146E-05 1.130E-05

     total cpu time spent up to now is        9.1 secs

     total energy              =    -589.12117151 Ry
     estimated scf accuracy    <       0.06833062 Ry

     total magnetization       =    -0.00 Bohr mag/cell
     absolute magnetization    =     0.02 Bohr mag/cell

     iteration #  6     ecut=    50.00 Ry     beta= 0.30
     Davidson diagonalization with overlap
     ethr =  5.30E-05,  avg # of iterations =  2.0

     negative rho (up, down):  1.799E-05 1.782E-05

     total cpu time spent up to now is       10.4 secs

     total energy              =    -589.12151925 Ry
     estimated scf accuracy    <       0.02065293 Ry

     total magnetization       =    -0.00 Bohr mag/cell
     absolute magnetization    =     0.01 Bohr mag/cell

     iteration #  7     ecut=    50.00 Ry     beta= 0.30
     Davidson diagonalization with overlap
     ethr =  1.60E-05,  avg # of iterations =  6.0

     negative rho (up, down):  3.012E-05 3.000E-05

     total cpu time spent up to now is       11.8 secs

     total energy              =    -589.12149295 Ry
     estimated scf accuracy    <       0.00517296 Ry

     total magnetization       =    -0.00 Bohr mag/cell
     absolute magnetization    =     0.01 Bohr mag/cell

     iteration #  8     ecut=    50.00 Ry     beta= 0.30
     Davidson diagonalization with overlap
     ethr =  4.01E-06,  avg # of iterations = 14.0

     negative rho (up, down):  4.221E-05 4.213E-05

     total cpu time spent up to now is       13.6 secs

     total energy              =    -589.12188850 Ry
     estimated scf accuracy    <       0.00068216 Ry

     total magnetization       =    -0.00 Bohr mag/cell
     absolute magnetization    =     0.01 Bohr mag/cell

     iteration #  9     ecut=    50.00 Ry     beta= 0.30
     Davidson diagonalization with overlap
     ethr =  5.29E-07,  avg # of iterations =  4.0

     negative rho (up, down):  4.708E-05 4.703E-05

     total cpu time spent up to now is       14.9 secs

     total energy              =    -589.12198601 Ry
     estimated scf accuracy    <       0.00012208 Ry

     total magnetization       =     0.00 Bohr mag/cell
     absolute magnetization    =     0.01 Bohr mag/cell

     iteration # 10     ecut=    50.00 Ry     beta= 0.30
     Davidson diagonalization with overlap
     ethr =  9.46E-08,  avg # of iterations =  4.0

     negative rho (up, down):  4.872E-05 4.868E-05

     total cpu time spent up to now is       16.3 secs

     total energy              =    -589.12198699 Ry
     estimated scf accuracy    <       0.00004815 Ry

     total magnetization       =    -0.00 Bohr mag/cell
     absolute magnetization    =     0.01 Bohr mag/cell

     iteration # 11     ecut=    50.00 Ry     beta= 0.30
     Davidson diagonalization with overlap
     ethr =  3.73E-08,  avg # of iterations =  2.0

     negative rho (up, down):  4.907E-05 4.904E-05

     total cpu time spent up to now is       17.6 secs

     total energy              =    -589.12199365 Ry
     estimated scf accuracy    <       0.00000886 Ry

     total magnetization       =    -0.00 Bohr mag/cell
     absolute magnetization    =     0.00 Bohr mag/cell

     iteration # 12     ecut=    50.00 Ry     beta= 0.30
     Davidson diagonalization with overlap
     ethr =  6.86E-09,  avg # of iterations =  4.0

     negative rho (up, down):  4.969E-05 4.968E-05

     total cpu time spent up to now is       18.9 secs

     total energy              =    -589.12199381 Ry
     estimated scf accuracy    <       0.00000330 Ry

     total magnetization       =     0.00 Bohr mag/cell
     absolute magnetization    =     0.00 Bohr mag/cell

     iteration # 13     ecut=    50.00 Ry     beta= 0.30
     Davidson diagonalization with overlap
     ethr =  2.56E-09,  avg # of iterations =  3.0

     negative rho (up, down):  4.997E-05 4.998E-05

     Magnetic moment per site  (integrated on atomic sphere of radius R)
     atom   1 (R=0.064)  charge=  0.8805  magn= -0.0001
     atom   2 (R=0.064)  charge=  0.8454  magn=  0.0000
     atom   3 (R=0.064)  charge=  0.9189  magn= -0.0000
     atom   4 (R=0.064)  charge=  0.8827  magn= -0.0000
     atom   5 (R=0.064)  charge=  0.8807  magn= -0.0000
     atom   6 (R=0.064)  charge=  0.8429  magn= -0.0000
     atom   7 (R=0.064)  charge=  0.8837  magn=  0.0000
     atom   8 (R=0.064)  charge=  0.8799  magn= -0.0000
     atom   9 (R=0.064)  charge=  0.8815  magn=  0.0000
     atom  10 (R=0.064)  charge=  0.8397  magn= -0.0000
     atom  11 (R=0.064)  charge=  0.8791  magn=  0.0000
     atom  12 (R=0.064)  charge=  0.8832  magn= -0.0000
     atom  13 (R=0.064)  charge=  0.8803  magn=  0.0000
     atom  14 (R=0.064)  charge=  0.8418  magn=  0.0000
     atom  15 (R=0.064)  charge=  0.8796  magn=  0.0000
     atom  16 (R=0.064)  charge=  0.8797  magn= -0.0000
     atom  17 (R=0.064)  charge=  0.8795  magn= -0.0000
     atom  18 (R=0.064)  charge=  0.8396  magn=  0.0000
     atom  19 (R=0.064)  charge=  0.8824  magn=  0.0000
     atom  20 (R=0.064)  charge=  0.8806  magn=  0.0000
     atom  21 (R=0.064)  charge=  0.8789  magn= -0.0000
     atom  22 (R=0.064)  charge=  0.8416  magn=  0.0000
     atom  23 (R=0.064)  charge=  0.8793  magn= -0.0000
     atom  24 (R=0.064)  charge=  0.8789  magn=  0.0000
     atom  25 (R=0.064)  charge=  0.8798  magn=  0.0000
     atom  26 (R=0.064)  charge=  0.8418  magn=  0.0000
     atom  27 (R=0.064)  charge=  0.8797  magn= -0.0000
     atom  28 (R=0.064)  charge=  0.8807  magn=  0.0000
     atom  29 (R=0.064)  charge=  0.8813  magn=  0.0001
     atom  30 (R=0.064)  charge=  0.8402  magn= -0.0000
     atom  31 (R=0.064)  charge=  0.8828  magn= -0.0000
     atom  32 (R=0.064)  charge=  0.8794  magn=  0.0000
     atom  33 (R=0.064)  charge=  0.4806  magn=  0.0000

     total cpu time spent up to now is       20.2 secs

     End of self-consistent calculation

 ------ SPIN UP ------------


          k = 0.0000 0.0000 0.0000 ( 24951 PWs)   bands (ev):

   -20.2421 -19.4017 -19.1975 -18.8818 -18.7578 -18.4728 -18.2729 -17.9790
   -17.5190 -17.4722 -17.0543 -16.7613 -16.6898 -16.4777 -16.3797 -15.8585
   -15.4809 -14.8552 -14.6249 -14.1507 -13.0940 -12.6785 -12.4033 -12.1811
   -12.0332 -11.9278 -11.9016 -11.4335 -11.2116 -11.1291 -10.8507 -10.5777
   -10.5319 -10.2069 -10.1214 -10.0701  -8.8863  -8.4300  -7.9325  -7.5645
    -7.2973  -7.2342  -6.7303  -6.3556  -6.1323  -5.8852  -5.8643  -5.8339
    -5.6465  -5.4777  -5.4017  -5.2844  -5.1651  -5.1560  -5.1387  -5.0377
    -4.8874  -4.8542  -4.6460  -4.4635  -4.2957  -4.0766  -3.8835  -3.5992
    -1.5744  -1.5406  -1.1097  -0.7445   0.1527   0.5118   0.6686   0.9838
     1.0400   1.1546   1.1785   1.3970   1.6049

 ------ SPIN DOWN ----------


          k = 0.0000 0.0000 0.0000 ( 24951 PWs)   bands (ev):

   -20.2422 -19.4017 -19.1975 -18.8817 -18.7579 -18.4728 -18.2729 -17.9790
   -17.5191 -17.4721 -17.0543 -16.7613 -16.6898 -16.4777 -16.3797 -15.8585
   -15.4809 -14.8553 -14.6249 -14.1507 -13.0941 -12.6785 -12.4032 -12.1811
   -12.0332 -11.9279 -11.9016 -11.4335 -11.2116 -11.1291 -10.8506 -10.5777
   -10.5319 -10.2068 -10.1214 -10.0701  -8.8863  -8.4301  -7.9324  -7.5645
    -7.2974  -7.2342  -6.7303  -6.3556  -6.1323  -5.8852  -5.8643  -5.8338
    -5.6464  -5.4777  -5.4017  -5.2844  -5.1651  -5.1560  -5.1386  -5.0378
    -4.8874  -4.8542  -4.6461  -4.4635  -4.2956  -4.0766  -3.8835  -3.5991
    -1.5742  -1.5406  -1.1098  -0.7444   0.1527   0.5118   0.6686   0.9839
     1.0400   1.1546   1.1784   1.3971   1.6046

     the spin up/dw Fermi energies are    -1.5744   -1.5742 ev

!    total energy              =    -589.12199418 Ry
     estimated scf accuracy    <       0.00000057 Ry
     smearing contrib. (-TS)   =      -0.00005642 Ry
     internal energy E=F+TS    =    -589.12193777 Ry

     The total energy is F=E-TS. E is the sum of the following terms:
     one-electron contribution =    -714.42410146 Ry
     hartree contribution      =     381.87869052 Ry
     xc contribution           =    -145.80838162 Ry
     ewald contribution        =      86.62213118 Ry
     one-center paw contrib.   =    -197.39027638 Ry

     total magnetization       =    -0.00 Bohr mag/cell
     absolute magnetization    =     0.00 Bohr mag/cell

     convergence has been achieved in  13 iterations

     negative rho (up, down):  4.997E-05 4.998E-05

     Forces acting on atoms (cartesian axes, Ry/au):

     atom    1 type  1   force =    -0.08293211    0.00008587    0.03778021
     atom    2 type  1   force =     0.00259704   -0.00096771   -0.03811659
     atom    3 type  1   force =    -0.10374119    0.00342546   -0.16424370
     atom    4 type  1   force =     0.08691503    0.00071199    0.04690383
     atom    5 type  1   force =    -0.08766638   -0.00031550   -0.05141772
     atom    6 type  1   force =     0.00654352    0.00040916   -0.03522739
     atom    7 type  1   force =     0.00171407   -0.00142148    0.00817937
     atom    8 type  1   force =     0.08668179   -0.00038712   -0.04832009
     atom    9 type  1   force =    -0.00183076    0.03630038   -0.02853821
     atom   10 type  1   force =    -0.00070538   -0.00252347    0.06811907
     atom   11 type  1   force =     0.08452744   -0.00464608    0.30255989
     atom   12 type  1   force =    -0.00189265   -0.03795129   -0.02801871
     atom   13 type  1   force =     0.00016122    0.08538514    0.05413866
     atom   14 type  1   force =     0.07576146   -0.00099835   -0.12634081
     atom   15 type  1   force =     0.00133803   -0.00109951    0.00877406
     atom   16 type  1   force =     0.00026563   -0.08412550    0.05149508
     atom   17 type  1   force =     0.00059713   -0.08712888   -0.05098052
     atom   18 type  1   force =    -0.00155593    0.00249140    0.06464007
     atom   19 type  1   force =     0.00145237    0.00092281   -0.00752073
     atom   20 type  1   force =     0.00067491    0.08476975   -0.04800925
     atom   21 type  1   force =     0.00008709   -0.05183532    0.03250047
     atom   22 type  1   force =     0.00113737    0.00229455   -0.07502642
     atom   23 type  1   force =    -0.00198267    0.00132805   -0.01686468
     atom   24 type  1   force =    -0.00044633    0.05459481    0.03230392
     atom   25 type  1   force =     0.08697458   -0.00026866    0.05519842
     atom   26 type  1   force =    -0.00272753    0.00079749   -0.07361899
     atom   27 type  1   force =    -0.00132087   -0.00114015    0.00973762
     atom   28 type  1   force =    -0.08560304   -0.00031546    0.05162464
     atom   29 type  1   force =     0.08652943   -0.00001507   -0.05025850
     atom   30 type  1   force =    -0.00348677    0.00054226    0.06541321
     atom   31 type  1   force =    -0.00055304    0.00120150   -0.00719163
     atom   32 type  1   force =    -0.08153676    0.00049173   -0.04910858
     atom   33 type  2   force =    -0.06597669   -0.00061279    0.00943402

     Total force =     0.565571     Total SCF correction =     0.000864

     BFGS Geometry Optimization
     Energy error            =      0.0E+00 Ry
     Gradient error          =      3.0E-01 Ry/Bohr

     number of scf cycles    =   1
     number of bfgs steps    =   0

     energy             new  =    -589.1219941847 Ry

     new trust radius        =       0.3141798240 bohr
     new conv_thr            =       0.0000010000 Ry


ATOMIC_POSITIONS (angstrom)
C             4.6031142196        5.2320454398        6.4739924283
C             3.3403742938        1.6314879093       13.2988295680
C             3.3331025257        5.2128126749        8.5190859788
C             2.2089934506        5.2323767671        6.4788204366
C             4.6046089478        1.5808330422       18.1057909122
C             3.3414626807        5.1822165167       11.2503584698
C             3.3919070461        1.6012477836       15.9853283379
C             2.2118700265        1.5807951445       18.1084301110
C             3.3370312059        3.9582093316       11.9708982273
C             6.9536267273        5.2306646389        5.1580470572
C             3.4097299928        5.1915413984        9.9941077998
C             3.3369984522        6.4029170406       11.9721731346
C            -0.0739146837        3.9831838702        0.3356489446
C             3.4440912382        5.2314716965        7.1041433250
C            -0.1022919476        5.1934181655        2.4636430302
C            -0.0738594359        6.3784827020        0.3342500251
C            -0.0736840108        2.8288933826       24.2530222717
C             3.4071766371        1.5823183946       17.4502060509
C            -0.0992314386        1.6194883281       22.1250201991
C            -0.0736428506        0.4348582224       24.2555945968
C             3.3380460867        2.8475699311       12.6191985060
C            -0.1393981278        1.5822142243       19.4262977296
C             3.3659508170        1.6197027761       14.7440755945
C             3.3377638109        0.4188903299       12.6180945008
C             5.7600249663        1.5808578322       18.7772097455
C            -0.0764433443        5.1814220110        0.9860425085
C            -0.1236989739        1.6013966609       20.9051529272
C             1.0567008213        1.5808330640       18.7753185810
C             5.7567894023        5.2319920234        5.8124043453
C            -0.0748451210        1.6312869520       23.5976151801
C            -0.1272926571        5.2116358081        3.6841943536
C             1.0548526037        5.2322602109        5.8140128565
H             2.2530866388        5.2106757267        8.6109922663



     Writing config-only to output data dir ./pwscf.save/
     NEW-OLD atomic charge density approx. for the potential

     Check: negative core charge=   -0.000003

     negative rho (up, down):  5.149E-05 5.157E-05
     Generating pointlists ...
     new r_m :   0.0630 (alat units)  0.8449 (a.u.) for type    1
     new r_m :   0.0630 (alat units)  0.8449 (a.u.) for type    2

     total cpu time spent up to now is       23.2 secs

     Self-consistent Calculation

     iteration #  1     ecut=    50.00 Ry     beta= 0.30
     Davidson diagonalization with overlap
     c_bands:  1 eigenvalues not converged
     c_bands:  2 eigenvalues not converged
     ethr =  1.00E-06,  avg # of iterations = 20.0

     negative rho (up, down):  4.738E-05 4.742E-05

     total cpu time spent up to now is       26.6 secs

     total energy              =    -588.94824432 Ry
     estimated scf accuracy    <       0.26158544 Ry

     total magnetization       =    -0.00 Bohr mag/cell
     absolute magnetization    =     0.00 Bohr mag/cell

     iteration #  2     ecut=    50.00 Ry     beta= 0.30
     Davidson diagonalization with overlap
     ethr =  2.03E-04,  avg # of iterations =  2.0

     negative rho (up, down):  4.821E-05 4.823E-05

     total cpu time spent up to now is       27.9 secs

     total energy              =    -588.95281724 Ry
     estimated scf accuracy    <       0.04610251 Ry

     total magnetization       =     0.00 Bohr mag/cell
     absolute magnetization    =     0.00 Bohr mag/cell

     iteration #  3     ecut=    50.00 Ry     beta= 0.30
     Davidson diagonalization with overlap
     ethr =  3.57E-05,  avg # of iterations =  2.0

     negative rho (up, down):  4.798E-05 4.800E-05

     total cpu time spent up to now is       29.3 secs

     total energy              =    -588.95712519 Ry
     estimated scf accuracy    <       0.00968314 Ry

     total magnetization       =    -0.00 Bohr mag/cell
     absolute magnetization    =     0.00 Bohr mag/cell

     iteration #  4     ecut=    50.00 Ry     beta= 0.30
     Davidson diagonalization with overlap
     ethr =  7.51E-06,  avg # of iterations = 10.0

     negative rho (up, down):  5.491E-05 5.492E-05

     total cpu time spent up to now is       30.7 secs

     total energy              =    -588.95697495 Ry
     estimated scf accuracy    <       0.00341092 Ry

     total magnetization       =     0.00 Bohr mag/cell
     absolute magnetization    =     0.00 Bohr mag/cell

     iteration #  5     ecut=    50.00 Ry     beta= 0.30
     Davidson diagonalization with overlap
     ethr =  2.64E-06,  avg # of iterations =  5.0

     negative rho (up, down):  5.187E-05 5.187E-05

     total cpu time spent up to now is       32.1 secs

     total energy              =    -588.95740554 Ry
     estimated scf accuracy    <       0.00027440 Ry

     total magnetization       =    -0.00 Bohr mag/cell
     absolute magnetization    =     0.00 Bohr mag/cell

     iteration #  6     ecut=    50.00 Ry     beta= 0.30
     Davidson diagonalization with overlap
     ethr =  2.13E-07,  avg # of iterations =  2.0

     negative rho (up, down):  5.048E-05 5.049E-05

     total cpu time spent up to now is       33.5 secs

     total energy              =    -588.95743855 Ry
     estimated scf accuracy    <       0.00007690 Ry

     total magnetization       =    -0.00 Bohr mag/cell
     absolute magnetization    =     0.00 Bohr mag/cell

     iteration #  7     ecut=    50.00 Ry     beta= 0.30
     Davidson diagonalization with overlap
     ethr =  5.96E-08,  avg # of iterations =  2.0

     negative rho (up, down):  5.011E-05 5.011E-05

     total cpu time spent up to now is       34.8 secs

     total energy              =    -588.95744512 Ry
     estimated scf accuracy    <       0.00002184 Ry

     total magnetization       =    -0.00 Bohr mag/cell
     absolute magnetization    =     0.00 Bohr mag/cell

     iteration #  8     ecut=    50.00 Ry     beta= 0.30
     Davidson diagonalization with overlap
     ethr =  1.69E-08,  avg # of iterations =  2.0

     negative rho (up, down):  4.948E-05 4.948E-05

     total cpu time spent up to now is       36.1 secs

     total energy              =    -588.95744762 Ry
     estimated scf accuracy    <       0.00000262 Ry

     total magnetization       =    -0.00 Bohr mag/cell
     absolute magnetization    =     0.00 Bohr mag/cell

     iteration #  9     ecut=    50.00 Ry     beta= 0.30
     Davidson diagonalization with overlap
     ethr =  2.03E-09,  avg # of iterations =  4.0

     negative rho (up, down):  4.860E-05 4.860E-05

     Magnetic moment per site  (integrated on atomic sphere of radius R)
     atom   1 (R=0.063)  charge=  0.8369  magn= -0.0000
     atom   2 (R=0.063)  charge=  0.8279  magn=  0.0000
     atom   3 (R=0.063)  charge=  0.8167  magn= -0.0000
     atom   4 (R=0.063)  charge=  0.8194  magn= -0.0000
     atom   5 (R=0.063)  charge=  0.8200  magn=  0.0000
     atom   6 (R=0.063)  charge=  0.8656  magn= -0.0000
     atom   7 (R=0.063)  charge=  0.8368  magn=  0.0000
     atom   8 (R=0.063)  charge=  0.8204  magn=  0.0000
     atom   9 (R=0.063)  charge=  0.8274  magn=  0.0000
     atom  10 (R=0.063)  charge=  0.8320  magn= -0.0000
     atom  11 (R=0.063)  charge=  0.8249  magn=  0.0000
     atom  12 (R=0.063)  charge=  0.8276  magn=  0.0000
     atom  13 (R=0.063)  charge=  0.8209  magn=  0.0000
     atom  14 (R=0.063)  charge=  0.8511  magn=  0.0000
     atom  15 (R=0.063)  charge=  0.8421  magn=  0.0000
     atom  16 (R=0.063)  charge=  0.8218  magn= -0.0000
     atom  17 (R=0.063)  charge=  0.8202  magn= -0.0000
     atom  18 (R=0.063)  charge=  0.8332  magn=  0.0000
     atom  19 (R=0.063)  charge=  0.8444  magn=  0.0000
     atom  20 (R=0.063)  charge=  0.8212  magn=  0.0000
     atom  21 (R=0.063)  charge=  0.8290  magn= -0.0000
     atom  22 (R=0.063)  charge=  0.8333  magn= -0.0000
     atom  23 (R=0.063)  charge=  0.8371  magn= -0.0000
     atom  24 (R=0.063)  charge=  0.8293  magn= -0.0000
     atom  25 (R=0.063)  charge=  0.8203  magn= -0.0000
     atom  26 (R=0.063)  charge=  0.8328  magn=  0.0000
     atom  27 (R=0.063)  charge=  0.8423  magn= -0.0000
     atom  28 (R=0.063)  charge=  0.8219  magn= -0.0000
     atom  29 (R=0.063)  charge=  0.8229  magn=  0.0000
     atom  30 (R=0.063)  charge=  0.8321  magn= -0.0000
     atom  31 (R=0.063)  charge=  0.8437  magn= -0.0000
     atom  32 (R=0.063)  charge=  0.8214  magn=  0.0000
     atom  33 (R=0.063)  charge=  0.4926  magn=  0.0000

     total cpu time spent up to now is       37.5 secs

     End of self-consistent calculation

 ------ SPIN UP ------------


          k = 0.0000 0.0000 0.0000 ( 24951 PWs)   bands (ev):

   -20.0453 -19.6146 -19.5306 -19.3504 -19.2248 -18.8984 -18.7639 -18.5736
   -16.9303 -16.7183 -16.6066 -16.4381 -16.4330 -16.4253 -16.4131 -16.0517
   -15.0401 -14.4624 -14.2967 -13.9524 -13.5391 -13.1758 -13.0154 -12.7686
   -12.6192 -12.2223 -12.0040 -11.5118 -11.2422 -11.1326 -10.8826 -10.7555
   -10.7150 -10.6059 -10.5471 -10.3444  -8.3655  -8.3314  -8.0560  -7.8889
    -7.4476  -7.0934  -6.8684  -6.6973  -6.4001  -5.4608  -5.2868  -5.2802
    -5.2350  -5.2201  -5.1781  -5.0326  -5.0150  -5.0017  -4.8798  -4.8461
    -4.8316  -4.7694  -4.5097  -4.3344  -4.2413  -4.1429  -3.9215  -3.7717
    -2.0368  -1.1346  -0.5763  -0.4094  -0.3225  -0.0824   0.1132   0.5656
     0.6502   0.8195   1.0554   1.1314   1.4483

 ------ SPIN DOWN ----------


          k = 0.0000 0.0000 0.0000 ( 24951 PWs)   bands (ev):

   -20.0453 -19.6146 -19.5306 -19.3504 -19.2248 -18.8984 -18.7639 -18.5736
   -16.9303 -16.7183 -16.6066 -16.4381 -16.4330 -16.4253 -16.4131 -16.0517
   -15.0401 -14.4624 -14.2967 -13.9524 -13.5391 -13.1758 -13.0154 -12.7686
   -12.6192 -12.2223 -12.0040 -11.5118 -11.2422 -11.1326 -10.8826 -10.7555
   -10.7150 -10.6059 -10.5471 -10.3444  -8.3655  -8.3314  -8.0560  -7.8889
    -7.4476  -7.0934  -6.8684  -6.6973  -6.4001  -5.4608  -5.2868  -5.2802
    -5.2350  -5.2201  -5.1781  -5.0326  -5.0150  -5.0017  -4.8798  -4.8461
    -4.8316  -4.7694  -4.5097  -4.3344  -4.2413  -4.1429  -3.9215  -3.7717
    -2.0367  -1.1346  -0.5763  -0.4094  -0.3225  -0.0824   0.1132   0.5656
     0.6502   0.8195   1.0554   1.1314   1.4484

     the spin up/dw Fermi energies are    -2.0368   -2.0367 ev

!    total energy              =    -588.95744810 Ry
     estimated scf accuracy    <       0.00000062 Ry
     smearing contrib. (-TS)   =      -0.00005642 Ry
     internal energy E=F+TS    =    -588.95739168 Ry

     The total energy is F=E-TS. E is the sum of the following terms:
     one-electron contribution =    -714.81149293 Ry
     hartree contribution      =     381.77479145 Ry
     xc contribution           =    -145.48241777 Ry
     ewald contribution        =      86.92972031 Ry
     one-center paw contrib.   =    -197.36799274 Ry

     total magnetization       =    -0.00 Bohr mag/cell
     absolute magnetization    =     0.00 Bohr mag/cell

     convergence has been achieved in   9 iterations

     negative rho (up, down):  4.860E-05 4.860E-05

     Forces acting on atoms (cartesian axes, Ry/au):

     atom    1 type  1   force =     0.31047652    0.00056685   -0.18802428
     atom    2 type  1   force =     0.00211821    0.00155417    0.02737271
     atom    3 type  1   force =    -0.09498032   -0.00367890    0.33905710
     atom    4 type  1   force =    -0.21831178    0.00045997   -0.15610645
     atom    5 type  1   force =     0.24155759   -0.00013713    0.13770999
     atom    6 type  1   force =    -0.00736337   -0.00340653    0.25779118
     atom    7 type  1   force =    -0.00009343   -0.00033153   -0.03613884
     atom    8 type  1   force =    -0.23912594   -0.00014861    0.13736805
     atom    9 type  1   force =    -0.00240652   -0.15268556    0.09040699
     atom   10 type  1   force =    -0.00684388   -0.00211203   -0.05015905
     atom   11 type  1   force =     0.08245608    0.00489664   -0.51655008
     atom   12 type  1   force =    -0.00250181    0.15641468    0.09321358
     atom   13 type  1   force =     0.00015878   -0.24100742   -0.13712912
     atom   14 type  1   force =    -0.03161711   -0.00143332    0.00242751
     atom   15 type  1   force =     0.00165031   -0.00097513   -0.02789421
     atom   16 type  1   force =     0.00017713    0.23804790   -0.13639899
     atom   17 type  1   force =     0.00018439    0.23826168    0.13612746
     atom   18 type  1   force =    -0.00012954    0.00199654   -0.04526617
     atom   19 type  1   force =     0.00152209    0.00086640    0.02627524
     atom   20 type  1   force =     0.00019714   -0.23453609    0.13471790
     atom   21 type  1   force =    -0.00029825    0.14718584   -0.08600307
     atom   22 type  1   force =     0.00072127    0.00212984    0.05851232
     atom   23 type  1   force =    -0.00036109    0.00014296    0.03664672
     atom   24 type  1   force =    -0.00026043   -0.15121295   -0.08932393
     atom   25 type  1   force =    -0.24474807   -0.00013664   -0.13898759
     atom   26 type  1   force =    -0.00272662    0.00011977    0.05586165
     atom   27 type  1   force =    -0.00124379   -0.00130314   -0.03054150
     atom   28 type  1   force =     0.24219793   -0.00016404   -0.13872145
     atom   29 type  1   force =    -0.22684733    0.00015653    0.12546105
     atom   30 type  1   force =    -0.00277912   -0.00102376   -0.04974409
     atom   31 type  1   force =    -0.00058514    0.00121097    0.02680669
     atom   32 type  1   force =     0.24777850    0.00021999    0.13756416
     atom   33 type  2   force =    -0.04797239    0.00006206    0.00366850

     Total force =     1.254847     Total SCF correction =     0.000871
     Energy error            =      1.6E-01 Ry
     Gradient error          =      5.2E-01 Ry/Bohr

     number of scf cycles    =   2
     number of bfgs steps    =   1

     energy             old  =    -589.1219941847 Ry
     energy             new  =    -588.9574480997 Ry

     CASE: energy            _new > energy            _old

     new trust radius        =       0.1037297771 bohr
     new conv_thr            =       0.0000010000 Ry


ATOMIC_POSITIONS (angstrom)
C             4.6325106475        5.2320150024        6.4606007107
C             3.3394537376        1.6318309279       13.3123405195
C             3.3698750208        5.2115984737        8.5773044207
C             2.1781852220        5.2321243936        6.4621947285
C             4.6356835056        1.5809448771       18.1240166332
C             3.3391432405        5.1820714853       11.2628453025
C             3.3912994708        1.6017516478       15.9824290463
C             2.1811444722        1.5809323648       18.1255578319
C             3.3376801424        3.9453421631       11.9810139907
C             6.9538767601        5.2315591165        5.1339013155
C             3.3797680781        5.1931882668        9.8868612760
C             3.3376693285        6.4163693995       11.9821047543
C            -0.0739718319        3.9529179305        0.3164587507
C             3.4172365444        5.2318255750        7.1489265648
C            -0.1027662290        5.1938079012        2.4605329453
C            -0.0739535913        6.4083021453        0.3159968827
C            -0.0738956728        2.8597774148       24.2710930189
C             3.4077281581        1.5814352819       17.4272934879
C            -0.0997462514        1.6191612267       22.1276860268
C            -0.0738820834        0.4048104145       24.2726121386
C             3.3380152160        2.8659436739       12.6076782678
C            -0.1398012855        1.5814008889       19.4528918774
C             3.3666536012        1.6192320289       14.7500535136
C             3.3379220197        0.3995384466       12.6066439294
C             5.7291956273        1.5809530618       18.7576439050
C            -0.0754765353        5.1811393314        1.0121377740
C            -0.1232307736        1.6018008012       20.9017012932
C             1.0870439992        1.5809448843       18.7570195172
C             5.7261178533        5.2319973664        5.8302191646
C            -0.0736091861        1.6310947402       23.5744285662
C            -0.1270966238        5.2112099187        3.6867435258
C             1.0837544328        5.2320859114        5.8314200710
H             2.2764729862        5.2108929378        8.6076482493



     Writing config-only to output data dir ./pwscf.save/
     NEW-OLD atomic charge density approx. for the potential

     Check: negative core charge=   -0.000003

     negative rho (up, down):  4.812E-05 4.812E-05
     Generating pointlists ...

     total cpu time spent up to now is       40.6 secs

     Self-consistent Calculation

     iteration #  1     ecut=    50.00 Ry     beta= 0.30
     Davidson diagonalization with overlap
     ethr =  1.00E-06,  avg # of iterations = 15.0

     negative rho (up, down):  4.944E-05 4.944E-05

     total cpu time spent up to now is       43.8 secs

     total energy              =    -589.16406686 Ry
     estimated scf accuracy    <       0.12120470 Ry

     total magnetization       =    -0.00 Bohr mag/cell
     absolute magnetization    =     0.00 Bohr mag/cell

     iteration #  2     ecut=    50.00 Ry     beta= 0.30
     Davidson diagonalization with overlap
     ethr =  9.40E-05,  avg # of iterations =  2.0

     negative rho (up, down):  5.113E-05 5.113E-05

     total cpu time spent up to now is       45.1 secs

     total energy              =    -589.16773459 Ry
     estimated scf accuracy    <       0.01959579 Ry

     total magnetization       =     0.00 Bohr mag/cell
     absolute magnetization    =     0.00 Bohr mag/cell

     iteration #  3     ecut=    50.00 Ry     beta= 0.30
     Davidson diagonalization with overlap
     ethr =  1.52E-05,  avg # of iterations =  2.0

     negative rho (up, down):  5.066E-05 5.066E-05

     total cpu time spent up to now is       46.5 secs

     total energy              =    -589.16974083 Ry
     estimated scf accuracy    <       0.00449001 Ry

     total magnetization       =     0.00 Bohr mag/cell
     absolute magnetization    =     0.00 Bohr mag/cell

     iteration #  4     ecut=    50.00 Ry     beta= 0.30
     Davidson diagonalization with overlap
     ethr =  3.48E-06,  avg # of iterations =  7.0

     negative rho (up, down):  5.357E-05 5.357E-05

     total cpu time spent up to now is       47.9 secs

     total energy              =    -589.16964616 Ry
     estimated scf accuracy    <       0.00159320 Ry

     total magnetization       =     0.00 Bohr mag/cell
     absolute magnetization    =     0.00 Bohr mag/cell

     iteration #  5     ecut=    50.00 Ry     beta= 0.30
     Davidson diagonalization with overlap
     ethr =  1.24E-06,  avg # of iterations =  2.0

     negative rho (up, down):  5.173E-05 5.173E-05

     total cpu time spent up to now is       49.2 secs

     total energy              =    -589.16984662 Ry
     estimated scf accuracy    <       0.00012086 Ry

     total magnetization       =    -0.00 Bohr mag/cell
     absolute magnetization    =     0.00 Bohr mag/cell

     iteration #  6     ecut=    50.00 Ry     beta= 0.30
     Davidson diagonalization with overlap
     ethr =  9.37E-08,  avg # of iterations =  2.0

     negative rho (up, down):  5.067E-05 5.067E-05

     total cpu time spent up to now is       50.5 secs

     total energy              =    -589.16985841 Ry
     estimated scf accuracy    <       0.00003556 Ry

     total magnetization       =    -0.00 Bohr mag/cell
     absolute magnetization    =     0.00 Bohr mag/cell

     iteration #  7     ecut=    50.00 Ry     beta= 0.30
     Davidson diagonalization with overlap
     ethr =  2.76E-08,  avg # of iterations =  4.0

     negative rho (up, down):  5.024E-05 5.024E-05

     total cpu time spent up to now is       51.9 secs

     total energy              =    -589.16986224 Ry
     estimated scf accuracy    <       0.00001003 Ry

     total magnetization       =    -0.00 Bohr mag/cell
     absolute magnetization    =     0.00 Bohr mag/cell

     iteration #  8     ecut=    50.00 Ry     beta= 0.30
     Davidson diagonalization with overlap
     ethr =  7.77E-09,  avg # of iterations =  2.0

     negative rho (up, down):  4.928E-05 4.928E-05

     Magnetic moment per site  (integrated on atomic sphere of radius R)
     atom   1 (R=0.063)  charge=  0.8398  magn= -0.0000
     atom   2 (R=0.063)  charge=  0.8159  magn=  0.0000
     atom   3 (R=0.063)  charge=  0.8530  magn= -0.0000
     atom   4 (R=0.063)  charge=  0.8365  magn= -0.0000
     atom   5 (R=0.063)  charge=  0.8344  magn=  0.0000
     atom   6 (R=0.063)  charge=  0.8234  magn= -0.0000
     atom   7 (R=0.063)  charge=  0.8447  magn=  0.0000
     atom   8 (R=0.063)  charge=  0.8348  magn=  0.0000
     atom   9 (R=0.063)  charge=  0.8396  magn=  0.0000
     atom  10 (R=0.063)  charge=  0.8137  magn= -0.0000
     atom  11 (R=0.063)  charge=  0.8262  magn=  0.0000
     atom  12 (R=0.063)  charge=  0.8406  magn= -0.0000
     atom  13 (R=0.063)  charge=  0.8342  magn=  0.0000
     atom  14 (R=0.063)  charge=  0.8215  magn=  0.0000
     atom  15 (R=0.063)  charge=  0.8435  magn=  0.0000
     atom  16 (R=0.063)  charge=  0.8353  magn= -0.0000
     atom  17 (R=0.063)  charge=  0.8345  magn= -0.0000
     atom  18 (R=0.063)  charge=  0.8143  magn= -0.0000
     atom  19 (R=0.063)  charge=  0.8463  magn=  0.0000
     atom  20 (R=0.063)  charge=  0.8347  magn=  0.0000
     atom  21 (R=0.063)  charge=  0.8382  magn= -0.0000
     atom  22 (R=0.063)  charge=  0.8152  magn=  0.0000
     atom  23 (R=0.063)  charge=  0.8419  magn= -0.0000
     atom  24 (R=0.063)  charge=  0.8383  magn=  0.0000
     atom  25 (R=0.063)  charge=  0.8346  magn= -0.0000
     atom  26 (R=0.063)  charge=  0.8150  magn=  0.0000
     atom  27 (R=0.063)  charge=  0.8437  magn= -0.0000
     atom  28 (R=0.063)  charge=  0.8352  magn= -0.0000
     atom  29 (R=0.063)  charge=  0.8362  magn=  0.0000
     atom  30 (R=0.063)  charge=  0.8139  magn= -0.0000
     atom  31 (R=0.063)  charge=  0.8460  magn= -0.0000
     atom  32 (R=0.063)  charge=  0.8347  magn=  0.0000
     atom  33 (R=0.063)  charge=  0.4765  magn=  0.0000

     total cpu time spent up to now is       53.2 secs

     End of self-consistent calculation

 ------ SPIN UP ------------


          k = 0.0000 0.0000 0.0000 ( 24951 PWs)   bands (ev):

   -20.0599 -19.4012 -19.2467 -19.0211 -18.9357 -18.6033 -18.3990 -18.1418
   -17.3527 -17.2212 -16.9087 -16.6899 -16.6001 -16.4590 -16.3855 -15.9450
   -15.2724 -14.7076 -14.6242 -14.1368 -13.2302 -12.6812 -12.6657 -12.3628
   -12.1984 -12.1456 -11.9663 -11.4692 -11.2047 -11.1854 -10.8451 -10.7021
   -10.5703 -10.3938 -10.2251 -10.2031  -8.6326  -8.3653  -7.9731  -7.6666
    -7.3185  -7.1613  -6.7685  -6.4581  -6.0144  -5.8993  -5.6254  -5.6148
    -5.5178  -5.3913  -5.2771  -5.2249  -5.1406  -5.0820  -5.0290  -4.9693
    -4.8653  -4.8477  -4.6083  -4.4020  -4.2439  -4.2057  -3.9270  -3.7148
    -1.7436  -1.3636  -0.9465  -0.6428  -0.0025   0.3960   0.6032   0.7117
     0.9699   0.9924   1.0543   1.4053   1.4227

 ------ SPIN DOWN ----------


          k = 0.0000 0.0000 0.0000 ( 24951 PWs)   bands (ev):

   -20.0599 -19.4012 -19.2467 -19.0211 -18.9357 -18.6033 -18.3990 -18.1418
   -17.3527 -17.2212 -16.9087 -16.6899 -16.6001 -16.4590 -16.3855 -15.9450
   -15.2724 -14.7076 -14.6242 -14.1368 -13.2302 -12.6812 -12.6657 -12.3628
   -12.1984 -12.1456 -11.9663 -11.4692 -11.2047 -11.1854 -10.8451 -10.7021
   -10.5703 -10.3938 -10.2251 -10.2031  -8.6326  -8.3653  -7.9731  -7.6666
    -7.3185  -7.1613  -6.7685  -6.4581  -6.0144  -5.8993  -5.6254  -5.6148
    -5.5178  -5.3913  -5.2771  -5.2249  -5.1406  -5.0820  -5.0290  -4.9693
    -4.8653  -4.8477  -4.6083  -4.4020  -4.2439  -4.2057  -3.9270  -3.7148
    -1.7436  -1.3636  -0.9465  -0.6428  -0.0025   0.3960   0.6032   0.7117
     0.9699   0.9924   1.0543   1.4053   1.4227

     the spin up/dw Fermi energies are    -1.7436   -1.7436 ev

!    total energy              =    -589.16986352 Ry
     estimated scf accuracy    <       0.00000081 Ry
     smearing contrib. (-TS)   =      -0.00005642 Ry
     internal energy E=F+TS    =    -589.16980710 Ry

     The total energy is F=E-TS. E is the sum of the following terms:
     one-electron contribution =    -713.98333448 Ry
     hartree contribution      =     381.53590308 Ry
     xc contribution           =    -145.63736290 Ry
     ewald contribution        =      86.28894377 Ry
     one-center paw contrib.   =    -197.37395658 Ry

     total magnetization       =     0.00 Bohr mag/cell
     absolute magnetization    =     0.00 Bohr mag/cell

     convergence has been achieved in   8 iterations

     negative rho (up, down):  4.928E-05 4.928E-05

     Forces acting on atoms (cartesian axes, Ry/au):

     atom    1 type  1   force =     0.04937338    0.00046216   -0.04011201
     atom    2 type  1   force =     0.00244959   -0.00028376   -0.01796486
     atom    3 type  1   force =    -0.10751732    0.00002873    0.08005964
     atom    4 type  1   force =    -0.02700411    0.00042624   -0.03021153
     atom    5 type  1   force =     0.03381741   -0.00026404    0.01968586
     atom    6 type  1   force =     0.00540611   -0.00069904    0.02508360
     atom    7 type  1   force =     0.00112758   -0.00107970   -0.00714005
     atom    8 type  1   force =    -0.03293716   -0.00029249    0.02111329
     atom    9 type  1   force =    -0.00173405   -0.03048908    0.01296520
     atom   10 type  1   force =    -0.00262047   -0.00237893    0.03185601
     atom   11 type  1   force =     0.08628742   -0.00065212   -0.00935495
     atom   12 type  1   force =    -0.00176835    0.03095664    0.01440354
     atom   13 type  1   force =     0.00017524   -0.03418438   -0.01723337
     atom   14 type  1   force =     0.05013883   -0.00147914   -0.08911058
     atom   15 type  1   force =     0.00147361   -0.00106259   -0.00264468
     atom   16 type  1   force =     0.00020685    0.03325763   -0.01820993
     atom   17 type  1   force =     0.00047655    0.03246590    0.01892444
     atom   18 type  1   force =    -0.00109501    0.00229737    0.03135234
     atom   19 type  1   force =     0.00149047    0.00087427    0.00274200
     atom   20 type  1   force =     0.00050270   -0.03195446    0.02000937
     atom   21 type  1   force =    -0.00017107    0.01790991   -0.00906864
     atom   22 type  1   force =     0.00098591    0.00223276   -0.03349231
     atom   23 type  1   force =    -0.00140426    0.00090716    0.00209604
     atom   24 type  1   force =    -0.00024010   -0.01757970   -0.01043739
     atom   25 type  1   force =    -0.03510499   -0.00022780   -0.01739889
     atom   26 type  1   force =    -0.00272106    0.00055979   -0.03369192
     atom   27 type  1   force =    -0.00126713   -0.00121776   -0.00317565
     atom   28 type  1   force =     0.03423681   -0.00025707   -0.01922524
     atom   29 type  1   force =    -0.02798701    0.00018033    0.01517865
     atom   30 type  1   force =    -0.00322457    0.00023272    0.03063044
     atom   31 type  1   force =    -0.00053921    0.00117492    0.00320396
     atom   32 type  1   force =     0.03874988    0.00029542    0.02068422
     atom   33 type  2   force =    -0.05956246   -0.00015990    0.00848340

     Total force =     0.263645     Total SCF correction =     0.001099
     Energy error            =      4.8E-02 Ry
     Gradient error          =      1.1E-01 Ry/Bohr

     number of scf cycles    =   3
     number of bfgs steps    =   1

     energy             old  =    -589.1219941847 Ry
     energy             new  =    -589.1698635206 Ry

     CASE: energy            _new < energy            _old

     new trust radius        =       0.1302658590 bohr
     new conv_thr            =       0.0000010000 Ry


ATOMIC_POSITIONS (angstrom)
C             4.6470130406        5.2322550973        6.4452367710
C             3.3409855394        1.6315727754       13.2987985243
C             3.3038815111        5.2120273269        8.5972175082
C             2.1752827893        5.2324224121        6.4528557087
C             4.6418813333        1.5807754613       18.1275779063
C             3.3426221159        5.1817735717       11.2710488210
C             3.3920673453        1.6010429783       15.9798702417
C             2.1752649824        1.5807401411       18.1302034635
C             3.3365967159        3.9345818862       11.9840040202
C             6.9524889715        5.2300713367        5.1579785774
C             3.4328845653        5.1923018493        9.9188296872
C             3.3365613666        6.4271622528       11.9858725405
C            -0.0738652204        3.9462616186        0.3144457172
C             3.4513256248        5.2309695879        7.0893463587
C            -0.1018718817        5.1931467035        2.4602803936
C            -0.0738186349        6.4146502964        0.3131785325
C            -0.0735865493        2.8653685692       24.2743287675
C             3.4069956095        1.5828786449       17.4506993602
C            -0.0988296863        1.6197074409       22.1281386338
C            -0.0735505516        0.3991879352       24.2767467186
C             3.3379407298        2.8685717281       12.6071044366
C            -0.1391736164        1.5827883124       19.4271653719
C             3.3657157012        1.6198436338       14.7490541963
C             3.3377486687        0.3974084850       12.6053660173
C             5.7222741226        1.5808073283       18.7556768616
C            -0.0771590550        5.1815140753        0.9864823930
C            -0.1240204183        1.6010575661       20.9013014574
C             1.0936999945        1.5807789356       18.7537122201
C             5.7226802359        5.2320851710        5.8316805735
C            -0.0756338479        1.6312760348       23.5975692161
C            -0.1274315540        5.2119392890        3.6874655674
C             1.0931456345        5.2322922526        5.8357570175
H             2.2388844176        5.2107393021        8.6130064194



     Writing config-only to output data dir ./pwscf.save/
     NEW-OLD atomic charge density approx. for the potential

     Check: negative core charge=   -0.000003

     negative rho (up, down):  5.070E-05 5.070E-05
     Generating pointlists ...
     new r_m :   0.0619 (alat units)  0.8303 (a.u.) for type    1
     new r_m :   0.0619 (alat units)  0.8303 (a.u.) for type    2

     total cpu time spent up to now is       56.4 secs

     Self-consistent Calculation

     iteration #  1     ecut=    50.00 Ry     beta= 0.30
     Davidson diagonalization with overlap
     ethr =  1.00E-06,  avg # of iterations = 12.0

     negative rho (up, down):  5.111E-05 5.111E-05

     total cpu time spent up to now is       58.9 secs

     total energy              =    -589.20348108 Ry
     estimated scf accuracy    <       0.02019801 Ry

     total magnetization       =     0.00 Bohr mag/cell
     absolute magnetization    =     0.00 Bohr mag/cell

     iteration #  2     ecut=    50.00 Ry     beta= 0.30
     Davidson diagonalization with overlap
     ethr =  1.57E-05,  avg # of iterations =  3.0

     negative rho (up, down):  5.175E-05 5.175E-05

     total cpu time spent up to now is       60.2 secs

     total energy              =    -589.20465469 Ry
     estimated scf accuracy    <       0.00416817 Ry

     total magnetization       =    -0.00 Bohr mag/cell
     absolute magnetization    =     0.00 Bohr mag/cell

     iteration #  3     ecut=    50.00 Ry     beta= 0.30
     Davidson diagonalization with overlap
     ethr =  3.23E-06,  avg # of iterations =  2.0

     negative rho (up, down):  5.214E-05 5.214E-05

     total cpu time spent up to now is       61.5 secs

     total energy              =    -589.20487743 Ry
     estimated scf accuracy    <       0.00140238 Ry

     total magnetization       =     0.00 Bohr mag/cell
     absolute magnetization    =     0.00 Bohr mag/cell

     iteration #  4     ecut=    50.00 Ry     beta= 0.30
     Davidson diagonalization with overlap
     ethr =  1.09E-06,  avg # of iterations =  7.0

     negative rho (up, down):  5.312E-05 5.312E-05

     total cpu time spent up to now is       62.9 secs

     total energy              =    -589.20495855 Ry
     estimated scf accuracy    <       0.00029288 Ry

     total magnetization       =    -0.00 Bohr mag/cell
     absolute magnetization    =     0.00 Bohr mag/cell

     iteration #  5     ecut=    50.00 Ry     beta= 0.30
     Davidson diagonalization with overlap
     ethr =  2.27E-07,  avg # of iterations =  4.0

     negative rho (up, down):  5.280E-05 5.280E-05

     total cpu time spent up to now is       64.3 secs

     total energy              =    -589.20498759 Ry
     estimated scf accuracy    <       0.00004268 Ry

     total magnetization       =     0.00 Bohr mag/cell
     absolute magnetization    =     0.00 Bohr mag/cell

     iteration #  6     ecut=    50.00 Ry     beta= 0.30
     Davidson diagonalization with overlap
     ethr =  3.31E-08,  avg # of iterations =  3.0

     negative rho (up, down):  5.254E-05 5.254E-05

     total cpu time spent up to now is       65.6 secs

     total energy              =    -589.20499349 Ry
     estimated scf accuracy    <       0.00000891 Ry

     total magnetization       =     0.00 Bohr mag/cell
     absolute magnetization    =     0.00 Bohr mag/cell

     iteration #  7     ecut=    50.00 Ry     beta= 0.30
     Davidson diagonalization with overlap
     ethr =  6.91E-09,  avg # of iterations =  2.0

     negative rho (up, down):  5.230E-05 5.230E-05

     total cpu time spent up to now is       66.9 secs

     total energy              =    -589.20499453 Ry
     estimated scf accuracy    <       0.00000219 Ry

     total magnetization       =    -0.00 Bohr mag/cell
     absolute magnetization    =     0.00 Bohr mag/cell

     iteration #  8     ecut=    50.00 Ry     beta= 0.30
     Davidson diagonalization with overlap
     ethr =  1.70E-09,  avg # of iterations =  2.0

     negative rho (up, down):  5.194E-05 5.194E-05

     Magnetic moment per site  (integrated on atomic sphere of radius R)
     atom   1 (R=0.062)  charge=  0.8177  magn= -0.0000
     atom   2 (R=0.062)  charge=  0.7766  magn=  0.0000
     atom   3 (R=0.062)  charge=  0.7962  magn= -0.0000
     atom   4 (R=0.062)  charge=  0.7999  magn= -0.0000
     atom   5 (R=0.062)  charge=  0.8003  magn=  0.0000
     atom   6 (R=0.062)  charge=  0.7866  magn= -0.0000
     atom   7 (R=0.062)  charge=  0.7998  magn=  0.0000
     atom   8 (R=0.062)  charge=  0.8021  magn=  0.0000
     atom   9 (R=0.062)  charge=  0.8043  magn=  0.0000
     atom  10 (R=0.062)  charge=  0.7735  magn= -0.0000
     atom  11 (R=0.062)  charge=  0.7884  magn=  0.0000
     atom  12 (R=0.062)  charge=  0.8042  magn= -0.0000
     atom  13 (R=0.062)  charge=  0.8002  magn= -0.0000
     atom  14 (R=0.062)  charge=  0.7762  magn=  0.0000
     atom  15 (R=0.062)  charge=  0.7985  magn=  0.0000
     atom  16 (R=0.062)  charge=  0.8023  magn= -0.0000
     atom  17 (R=0.062)  charge=  0.8010  magn=  0.0000
     atom  18 (R=0.062)  charge=  0.7723  magn= -0.0000
     atom  19 (R=0.062)  charge=  0.8016  magn=  0.0000
     atom  20 (R=0.062)  charge=  0.8008  magn=  0.0000
     atom  21 (R=0.062)  charge=  0.8042  magn= -0.0000
     atom  22 (R=0.062)  charge=  0.7736  magn=  0.0000
     atom  23 (R=0.062)  charge=  0.8005  magn= -0.0000
     atom  24 (R=0.062)  charge=  0.8054  magn= -0.0000
     atom  25 (R=0.062)  charge=  0.8018  magn= -0.0000
     atom  26 (R=0.062)  charge=  0.7739  magn=  0.0000
     atom  27 (R=0.062)  charge=  0.7993  magn= -0.0000
     atom  28 (R=0.062)  charge=  0.8018  magn= -0.0000
     atom  29 (R=0.062)  charge=  0.8072  magn=  0.0000
     atom  30 (R=0.062)  charge=  0.7732  magn= -0.0000
     atom  31 (R=0.062)  charge=  0.8011  magn= -0.0000
     atom  32 (R=0.062)  charge=  0.8018  magn=  0.0000
     atom  33 (R=0.062)  charge=  0.4836  magn=  0.0000

     total cpu time spent up to now is       68.2 secs

     End of self-consistent calculation

 ------ SPIN UP ------------


          k = 0.0000 0.0000 0.0000 ( 24951 PWs)   bands (ev):

   -19.7271 -19.3357 -19.2088 -19.0624 -18.8495 -18.5255 -18.4085 -18.1503
   -17.3823 -17.0706 -17.0127 -16.7817 -16.6128 -16.6099 -16.3934 -15.9844
   -15.2078 -14.6926 -14.6828 -14.2268 -13.2240 -12.7175 -12.4790 -12.4182
   -12.2131 -12.0695 -11.8354 -11.3992 -11.1566 -10.9337 -10.7790 -10.5504
   -10.5397 -10.4691 -10.3360 -10.1571  -8.6891  -8.2617  -7.9826  -7.7466
    -7.4354  -6.8729  -6.6831  -6.4406  -6.1156  -5.8117  -5.6681  -5.5308
    -5.4990  -5.4024  -5.3575  -5.3123  -5.2209  -5.1268  -5.1139  -5.1014
    -4.9863  -4.9328  -4.7240  -4.4637  -4.2972  -4.2488  -3.9993  -3.8014
    -1.9217  -1.1572  -0.8858  -0.6495   0.0930   0.4394   0.5888   0.6988
     0.9625   1.0268   1.1574   1.4585   1.5973

 ------ SPIN DOWN ----------


          k = 0.0000 0.0000 0.0000 ( 24951 PWs)   bands (ev):

   -19.7271 -19.3357 -19.2088 -19.0624 -18.8495 -18.5255 -18.4085 -18.1503
   -17.3823 -17.0706 -17.0127 -16.7817 -16.6128 -16.6099 -16.3934 -15.9844
   -15.2078 -14.6926 -14.6828 -14.2268 -13.2240 -12.7175 -12.4790 -12.4182
   -12.2131 -12.0695 -11.8354 -11.3992 -11.1566 -10.9337 -10.7790 -10.5504
   -10.5397 -10.4691 -10.3360 -10.1571  -8.6891  -8.2617  -7.9826  -7.7466
    -7.4354  -6.8729  -6.6831  -6.4406  -6.1156  -5.8117  -5.6681  -5.5308
    -5.4990  -5.4024  -5.3575  -5.3123  -5.2209  -5.1268  -5.1139  -5.1014
    -4.9863  -4.9328  -4.7240  -4.4637  -4.2972  -4.2488  -3.9993  -3.8014
    -1.9217  -1.1572  -0.8858  -0.6495   0.0930   0.4394   0.5888   0.6988
     0.9625   1.0268   1.1574   1.4585   1.5973

     the spin up/dw Fermi energies are    -1.9217   -1.9217 ev

!    total energy              =    -589.20499487 Ry
     estimated scf accuracy    <       0.00000040 Ry
     smearing contrib. (-TS)   =      -0.00005642 Ry
     internal energy E=F+TS    =    -589.20493845 Ry

     The total energy is F=E-TS. E is the sum of the following terms:
     one-electron contribution =    -713.82826417 Ry
     hartree contribution      =     381.51446409 Ry
     xc contribution           =    -145.72998010 Ry
     ewald contribution        =      86.22261610 Ry
     one-center paw contrib.   =    -197.38377438 Ry

     total magnetization       =     0.00 Bohr mag/cell
     absolute magnetization    =     0.00 Bohr mag/cell

     convergence has been achieved in   8 iterations

     negative rho (up, down):  5.194E-05 5.194E-05

     Forces acting on atoms (cartesian axes, Ry/au):

     atom    1 type  1   force =     0.01394307    0.00017821   -0.01965856
     atom    2 type  1   force =     0.00184406    0.00059556    0.00443238
     atom    3 type  1   force =    -0.04966720   -0.00006521    0.04280257
     atom    4 type  1   force =     0.03942868    0.00014227   -0.01420872
     atom    5 type  1   force =    -0.00589210    0.00006378    0.00300377
     atom    6 type  1   force =     0.00937004   -0.00015105    0.05697918
     atom    7 type  1   force =     0.00077367   -0.00087092    0.02142872
     atom    8 type  1   force =     0.00759419    0.00004187    0.00305283
     atom    9 type  1   force =    -0.00201530    0.01516496   -0.00598695
     atom   10 type  1   force =     0.00187597   -0.00163550   -0.00120322
     atom   11 type  1   force =     0.06933328    0.00050372   -0.08747081
     atom   12 type  1   force =    -0.00212124   -0.01674423   -0.00593771
     atom   13 type  1   force =    -0.00012964    0.00209729   -0.00461706
     atom   14 type  1   force =    -0.03294333   -0.00181365    0.02599504
     atom   15 type  1   force =     0.00114341   -0.00068716   -0.01969410
     atom   16 type  1   force =    -0.00011272   -0.00377580   -0.00459124
     atom   17 type  1   force =     0.00000298   -0.00325168    0.00454212
     atom   18 type  1   force =     0.00026921    0.00161280   -0.00389343
     atom   19 type  1   force =     0.00100746    0.00062176    0.01845023
     atom   20 type  1   force =     0.00002309    0.00605864    0.00389513
     atom   21 type  1   force =    -0.00005690   -0.01717995    0.00725843
     atom   22 type  1   force =     0.00004730    0.00161307    0.00532839
     atom   23 type  1   force =    -0.00114711    0.00064063   -0.01333054
     atom   24 type  1   force =    -0.00003120    0.01774586    0.00647435
     atom   25 type  1   force =     0.00371591    0.00005769   -0.00352873
     atom   26 type  1   force =    -0.00201303   -0.00039215    0.00531025
     atom   27 type  1   force =    -0.00077397   -0.00089627   -0.02116375
     atom   28 type  1   force =    -0.00576226    0.00003665   -0.00375762
     atom   29 type  1   force =     0.04299050   -0.00007014   -0.01903646
     atom   30 type  1   force =    -0.00218770   -0.00048908   -0.00197924
     atom   31 type  1   force =    -0.00027897    0.00080390    0.01808128
     atom   32 type  1   force =    -0.01034233   -0.00004288   -0.00029075
     atom   33 type  2   force =    -0.07788783    0.00008698    0.00331418

     Total force =     0.191001     Total SCF correction =     0.000608
     Energy error            =      3.5E-02 Ry
     Gradient error          =      8.7E-02 Ry/Bohr

     number of scf cycles    =   4
     number of bfgs steps    =   2

     energy             old  =    -589.1698635206 Ry
     energy             new  =    -589.2049948728 Ry

     CASE: energy            _new < energy            _old

     new trust radius        =       0.1697873325 bohr
     new conv_thr            =       0.0000008747 Ry


ATOMIC_POSITIONS (angstrom)
C             4.6626806642        5.2325434730        6.4234551751
C             3.3433547377        1.6317180932       13.2901838764
C             3.2207893517        5.2124413129        8.6313951407
C             2.2015476079        5.2327566612        6.4392181062
C             4.6389457539        1.5806797507       18.1298445685
C             3.3512725188        5.1814814879       11.3111238537
C             3.3931781774        1.5999264324       15.9917790166
C             2.1794534353        1.5806112256       18.1334146256
C             3.3344763930        3.9378477294       11.9812041249
C             6.9526315537        5.2278675157        5.1774879798
C             3.5181756744        5.1917803129        9.9000051311
C             3.3343544262        6.4228617127       11.9836866398
C            -0.0738625761        3.9463952119        0.3124021373
C             3.4585231776        5.2291748564        7.0572633838
C            -0.1004544175        5.1921930502        2.4481481194
C            -0.0737805186        6.4132975967        0.3104578955
C            -0.0733363155        2.8636701841       24.2773416522
C             3.4065694998        1.5850348551       17.4678934769
C            -0.0974764020        1.6205297181       22.1396901599
C            -0.0732682653        0.4025198893       24.2801293823
C             3.3378550810        2.8575185807       12.6126112859
C            -0.1386429019        1.5848959787       19.4087540147
C             3.3642371412        1.6207420924       14.7392766645
C             3.3375851362        0.4092921991       12.6098659502
C             5.7232965985        1.5807268818       18.7543923959
C            -0.0797482554        5.1815729243        0.9681707316
C            -0.1251304572        1.5999121630       20.8881842664
C             1.0912637825        1.5806687492       18.7511659041
C             5.7507711655        5.2321039935        5.8186910259
C            -0.0786114045        1.6311238346       23.6158024833
C            -0.1278712201        5.2130195016        3.6989946043
C             1.0899896775        5.2324351613        5.8366199564
H             2.1602311804        5.2106568703        8.6193462711



     Writing config-only to output data dir ./pwscf.save/
     NEW-OLD atomic charge density approx. for the potential

     Check: negative core charge=   -0.000003

     negative rho (up, down):  4.947E-05 4.947E-05
     Generating pointlists ...

     total cpu time spent up to now is       71.4 secs

     Self-consistent Calculation

     iteration #  1     ecut=    50.00 Ry     beta= 0.30
     Davidson diagonalization with overlap
     ethr =  1.00E-06,  avg # of iterations = 19.0

     negative rho (up, down):  4.777E-05 4.777E-05

     total cpu time spent up to now is       74.2 secs

     total energy              =    -589.22178638 Ry
     estimated scf accuracy    <       0.02451214 Ry

     total magnetization       =    -0.00 Bohr mag/cell
     absolute magnetization    =     0.00 Bohr mag/cell

     iteration #  2     ecut=    50.00 Ry     beta= 0.30
     Davidson diagonalization with overlap
     ethr =  1.90E-05,  avg # of iterations =  3.0

     negative rho (up, down):  4.724E-05 4.724E-05

     total cpu time spent up to now is       75.5 secs

     total energy              =    -589.22298246 Ry
     estimated scf accuracy    <       0.00547204 Ry

     total magnetization       =     0.00 Bohr mag/cell
     absolute magnetization    =     0.00 Bohr mag/cell

     iteration #  3     ecut=    50.00 Ry     beta= 0.30
     Davidson diagonalization with overlap
     ethr =  4.24E-06,  avg # of iterations =  2.0

     negative rho (up, down):  4.725E-05 4.725E-05

     total cpu time spent up to now is       76.8 secs

     total energy              =    -589.22315998 Ry
     estimated scf accuracy    <       0.00175356 Ry

     total magnetization       =    -0.00 Bohr mag/cell
     absolute magnetization    =     0.00 Bohr mag/cell

     iteration #  4     ecut=    50.00 Ry     beta= 0.30
     Davidson diagonalization with overlap
     ethr =  1.36E-06,  avg # of iterations = 14.0

     negative rho (up, down):  4.772E-05 4.772E-05

     total cpu time spent up to now is       78.5 secs

     total energy              =    -589.22330662 Ry
     estimated scf accuracy    <       0.00031551 Ry

     total magnetization       =     0.00 Bohr mag/cell
     absolute magnetization    =     0.00 Bohr mag/cell

     iteration #  5     ecut=    50.00 Ry     beta= 0.30
     Davidson diagonalization with overlap
     ethr =  2.45E-07,  avg # of iterations =  2.0

     negative rho (up, down):  4.769E-05 4.769E-05

     total cpu time spent up to now is       79.8 secs

     total energy              =    -589.22334201 Ry
     estimated scf accuracy    <       0.00005528 Ry

     total magnetization       =    -0.00 Bohr mag/cell
     absolute magnetization    =     0.00 Bohr mag/cell

     iteration #  6     ecut=    50.00 Ry     beta= 0.30
     Davidson diagonalization with overlap
     ethr =  4.28E-08,  avg # of iterations =  4.0

     negative rho (up, down):  4.761E-05 4.761E-05

     total cpu time spent up to now is       81.1 secs

     total energy              =    -589.22335014 Ry
     estimated scf accuracy    <       0.00001116 Ry

     total magnetization       =     0.00 Bohr mag/cell
     absolute magnetization    =     0.00 Bohr mag/cell

     iteration #  7     ecut=    50.00 Ry     beta= 0.30
     Davidson diagonalization with overlap
     ethr =  8.65E-09,  avg # of iterations =  2.0

     negative rho (up, down):  4.754E-05 4.754E-05

     total cpu time spent up to now is       82.4 secs

     total energy              =    -589.22335170 Ry
     estimated scf accuracy    <       0.00000267 Ry

     total magnetization       =    -0.00 Bohr mag/cell
     absolute magnetization    =     0.00 Bohr mag/cell

     iteration #  8     ecut=    50.00 Ry     beta= 0.30
     Davidson diagonalization with overlap
     ethr =  2.07E-09,  avg # of iterations =  4.0

     negative rho (up, down):  4.718E-05 4.718E-05

     Magnetic moment per site  (integrated on atomic sphere of radius R)
     atom   1 (R=0.062)  charge=  0.8134  magn= -0.0000
     atom   2 (R=0.062)  charge=  0.7831  magn=  0.0000
     atom   3 (R=0.062)  charge=  0.7952  magn= -0.0000
     atom   4 (R=0.062)  charge=  0.7978  magn= -0.0000
     atom   5 (R=0.062)  charge=  0.8019  magn=  0.0000
     atom   6 (R=0.062)  charge=  0.7811  magn= -0.0000
     atom   7 (R=0.062)  charge=  0.7891  magn=  0.0000
     atom   8 (R=0.062)  charge=  0.8032  magn=  0.0000
     atom   9 (R=0.062)  charge=  0.8013  magn=  0.0000
     atom  10 (R=0.062)  charge=  0.7842  magn= -0.0000
     atom  11 (R=0.062)  charge=  0.7835  magn=  0.0000
     atom  12 (R=0.062)  charge=  0.8012  magn= -0.0000
     atom  13 (R=0.062)  charge=  0.8024  magn= -0.0000
     atom  14 (R=0.062)  charge=  0.7735  magn=  0.0000
     atom  15 (R=0.062)  charge=  0.7877  magn=  0.0000
     atom  16 (R=0.062)  charge=  0.8038  magn= -0.0000
     atom  17 (R=0.062)  charge=  0.8033  magn=  0.0000
     atom  18 (R=0.062)  charge=  0.7761  magn= -0.0000
     atom  19 (R=0.062)  charge=  0.7895  magn=  0.0000
     atom  20 (R=0.062)  charge=  0.8030  magn=  0.0000
     atom  21 (R=0.062)  charge=  0.8013  magn=  0.0000
     atom  22 (R=0.062)  charge=  0.7770  magn=  0.0000
     atom  23 (R=0.062)  charge=  0.7919  magn= -0.0000
     atom  24 (R=0.062)  charge=  0.8015  magn= -0.0000
     atom  25 (R=0.062)  charge=  0.8029  magn= -0.0000
     atom  26 (R=0.062)  charge=  0.7763  magn=  0.0000
     atom  27 (R=0.062)  charge=  0.7879  magn= -0.0000
     atom  28 (R=0.062)  charge=  0.8030  magn= -0.0000
     atom  29 (R=0.062)  charge=  0.8142  magn=  0.0000
     atom  30 (R=0.062)  charge=  0.7763  magn= -0.0000
     atom  31 (R=0.062)  charge=  0.7895  magn= -0.0000
     atom  32 (R=0.062)  charge=  0.7972  magn=  0.0000
     atom  33 (R=0.062)  charge=  0.4857  magn=  0.0000

     total cpu time spent up to now is       83.8 secs

     End of self-consistent calculation

 ------ SPIN UP ------------


          k = 0.0000 0.0000 0.0000 ( 24951 PWs)   bands (ev):

   -19.5625 -19.3359 -19.2541 -19.1672 -18.8188 -18.5445 -18.4915 -18.2822
   -17.2265 -17.0134 -16.9657 -16.8829 -16.7068 -16.5061 -16.3111 -15.9552
   -15.0747 -14.6241 -14.6021 -14.2022 -13.2260 -12.7915 -12.6763 -12.5351
   -12.3255 -12.0335 -11.8618 -11.4704 -11.0918 -10.8320 -10.8073 -10.7100
   -10.5697 -10.4683 -10.3017 -10.0870  -8.7913  -8.1594  -7.9882  -7.8667
    -7.6355  -6.6973  -6.6236  -6.5015  -6.2488  -5.6039  -5.5193  -5.4760
    -5.4145  -5.3589  -5.3470  -5.3002  -5.2412  -5.2173  -5.1083  -5.0695
    -5.0614  -4.9558  -4.6980  -4.4518  -4.3155  -4.2494  -3.9556  -3.8393
    -2.1182  -0.8747  -0.8376  -0.6814   0.0150   0.3078   0.4244   0.5803
     0.7848   1.0205   1.2227   1.4492   1.5823

 ------ SPIN DOWN ----------


          k = 0.0000 0.0000 0.0000 ( 24951 PWs)   bands (ev):

   -19.5625 -19.3359 -19.2541 -19.1672 -18.8188 -18.5445 -18.4915 -18.2822
   -17.2265 -17.0134 -16.9657 -16.8829 -16.7068 -16.5061 -16.3111 -15.9552
   -15.0747 -14.6241 -14.6021 -14.2022 -13.2260 -12.7915 -12.6763 -12.5351
   -12.3255 -12.0335 -11.8618 -11.4704 -11.0918 -10.8320 -10.8073 -10.7100
   -10.5697 -10.4683 -10.3017 -10.0870  -8.7913  -8.1594  -7.9882  -7.8667
    -7.6355  -6.6973  -6.6236  -6.5015  -6.2488  -5.6039  -5.5193  -5.4760
    -5.4145  -5.3589  -5.3470  -5.3002  -5.2412  -5.2173  -5.1083  -5.0695
    -5.0614  -4.9558  -4.6980  -4.4518  -4.3155  -4.2494  -3.9556  -3.8393
    -2.1182  -0.8747  -0.8376  -0.6814   0.0150   0.3078   0.4244   0.5803
     0.7848   1.0205   1.2227   1.4492   1.5823

     the spin up/dw Fermi energies are    -2.1182   -2.1182 ev

!    total energy              =    -589.22335214 Ry
     estimated scf accuracy    <       0.00000029 Ry
     smearing contrib. (-TS)   =      -0.00005642 Ry
     internal energy E=F+TS    =    -589.22329572 Ry

     The total energy is F=E-TS. E is the sum of the following terms:
     one-electron contribution =    -712.48701822 Ry
     hartree contribution      =     380.77167810 Ry
     xc contribution           =    -145.62436247 Ry
     ewald contribution        =      85.49670321 Ry
     one-center paw contrib.   =    -197.38029634 Ry

     total magnetization       =    -0.00 Bohr mag/cell
     absolute magnetization    =     0.00 Bohr mag/cell

     convergence has been achieved in   8 iterations

     negative rho (up, down):  4.718E-05 4.718E-05

     Forces acting on atoms (cartesian axes, Ry/au):

     atom    1 type  1   force =     0.01553302   -0.00032766   -0.01139015
     atom    2 type  1   force =     0.00053043    0.00086933    0.01476371
     atom    3 type  1   force =    -0.00778262    0.00036209   -0.04102408
     atom    4 type  1   force =    -0.03062444   -0.00028835   -0.05451144
     atom    5 type  1   force =     0.00956819    0.00045496    0.01360873
     atom    6 type  1   force =     0.02221260    0.00004513   -0.04349464
     atom    7 type  1   force =    -0.00155950    0.00099780   -0.04990964
     atom    8 type  1   force =    -0.01244961    0.00043720    0.01518323
     atom    9 type  1   force =    -0.00138929   -0.03524105    0.03200333
     atom   10 type  1   force =     0.04378883   -0.00049561   -0.04385503
     atom   11 type  1   force =     0.03972689   -0.00047883    0.03073648
     atom   12 type  1   force =    -0.00159365    0.03642244    0.03289498
     atom   13 type  1   force =    -0.00053885   -0.00310068   -0.01155689
     atom   14 type  1   force =    -0.02617710   -0.00096102    0.06436665
     atom   15 type  1   force =    -0.00134250    0.00097911    0.05580057
     atom   16 type  1   force =    -0.00052362    0.00707123   -0.01404186
     atom   17 type  1   force =    -0.00060770    0.00399123    0.01081122
     atom   18 type  1   force =     0.00204482    0.00034203   -0.02314161
     atom   19 type  1   force =    -0.00156380   -0.00102643   -0.05877278
     atom   20 type  1   force =    -0.00058665   -0.00766263    0.01316747
     atom   21 type  1   force =     0.00000023    0.04025061   -0.02656796
     atom   22 type  1   force =    -0.00193845    0.00042338    0.02716151
     atom   23 type  1   force =     0.00080244   -0.00099377    0.06862453
     atom   24 type  1   force =     0.00009568   -0.04225586   -0.02809209
     atom   25 type  1   force =    -0.00981943    0.00041999   -0.01523172
     atom   26 type  1   force =    -0.00069021   -0.00121201    0.02642146
     atom   27 type  1   force =     0.00151701    0.00105070    0.05736864
     atom   28 type  1   force =     0.01253931    0.00039755   -0.01704767
     atom   29 type  1   force =    -0.03049400   -0.00027026    0.02337371
     atom   30 type  1   force =    -0.00047229    0.00111823   -0.02267610
     atom   31 type  1   force =     0.00340402   -0.00115812   -0.06136638
     atom   32 type  1   force =     0.05133488   -0.00043238    0.03179636
     atom   33 type  2   force =    -0.07294462    0.00027163    0.00459745

     Total force =     0.255759     Total SCF correction =     0.000501
     Energy error            =      1.8E-02 Ry
     Gradient error          =      7.3E-02 Ry/Bohr

     number of scf cycles    =   5
     number of bfgs steps    =   3

     energy             old  =    -589.2049948728 Ry
     energy             new  =    -589.2233521428 Ry

     CASE: energy            _new < energy            _old

     new trust radius        =       0.1781820730 bohr
     new conv_thr            =       0.0000007294 Ry


ATOMIC_POSITIONS (angstrom)
C             4.6765521016        5.2325969327        6.4045775677
C             3.3453856289        1.6322491150       13.2908900571
C             3.1566804789        5.2129910906        8.6320685132
C             2.2148437725        5.2328777140        6.4073881153
C             4.6358154380        1.5808240671       18.1349989820
C             3.3679817781        5.1813329271       11.3234768619
C             3.3933427068        1.5995074182       15.9810577867
C             2.1822909152        1.5807215004       18.1399472498
C             3.3322089024        3.9290648969       11.9910654440
C             6.9723064790        5.2259878754        5.1721372074
C             3.6004874157        5.1911453153        9.9013833836
C             3.3319253177        6.4311965793       11.9943117886
C            -0.0741157918        3.9499602733        0.3080886750
C             3.4482482134        5.2273570315        7.0667379691
C            -0.0999724371        5.1919083130        2.4625672039
C            -0.0739988658        6.4105417687        0.3045503172
C            -0.0734354878        2.8593207687       24.2820047443
C             3.4072096741        1.5868147635       17.4696675433
C            -0.0971481323        1.6206996802       22.1234623284
C            -0.0733326157        0.4065874175       24.2860545550
C             3.3378015573        2.8630458103       12.6070778414
C            -0.1391373610        1.5866750185       19.4078330352
C             3.3634501233        1.6209927995       14.7605672494
C             3.3375085797        0.4035931587       12.6029452983
C             5.7247997043        1.5808653527       18.7491506908
C            -0.0820101335        5.1810345997        0.9670481146
C            -0.1252928821        1.5995101890       20.9025103909
C             1.0898456344        1.5807744706       18.7442058656
C             5.7658165865        5.2319805237        5.8154490841
C            -0.0810637783        1.6314624268       23.6187729332
C            -0.1266988343        5.2133233026        3.6815568604
C             1.1045302412        5.2323398672        5.8484646773
[...]
C             1.0155447952        5.1812570975        5.8082323062
H             1.9020349495        5.2002567340        8.7490600516
End final coordinates



     Writing config-only to output data dir ./pwscf.save/

     lsda relaxation :  a final configuration with zero
                        absolute magnetization has been found

     the program is checking if it is really the minimum energy structure
     by performing a new scf iteration without any "electronic" history

     Initial potential from superposition of free atoms

     starting charge     128.9987, renormalised to     129.0000

     negative rho (up, down):  9.912E-08 9.912E-08

     total cpu time spent up to now is      659.0 secs

     Self-consistent Calculation

     iteration #  1     ecut=    50.00 Ry     beta= 0.30
     Davidson diagonalization with overlap
     c_bands:  2 eigenvalues not converged
     c_bands:  2 eigenvalues not converged
     ethr =  1.00E-06,  avg # of iterations = 20.0

     negative rho (up, down):  5.472E-07 5.472E-07

     total cpu time spent up to now is      662.2 secs

     total energy              =    -589.52469320 Ry
     estimated scf accuracy    <       3.97161158 Ry

     total magnetization       =     0.00 Bohr mag/cell
     absolute magnetization    =     0.03 Bohr mag/cell

     iteration #  2     ecut=    50.00 Ry     beta= 0.30
     Davidson diagonalization with overlap
     ethr =  3.08E-03,  avg # of iterations =  1.0

     negative rho (up, down):  9.337E-06 9.338E-06

     total cpu time spent up to now is      663.4 secs

     total energy              =    -589.07491657 Ry
     estimated scf accuracy    <       1.09236219 Ry

     total magnetization       =     0.00 Bohr mag/cell
     absolute magnetization    =     0.02 Bohr mag/cell

     iteration #  3     ecut=    50.00 Ry     beta= 0.30
     Davidson diagonalization with overlap
     ethr =  8.47E-04,  avg # of iterations =  2.0

     negative rho (up, down):  1.000E-05 1.000E-05

     total cpu time spent up to now is      664.8 secs

     total energy              =    -589.26117108 Ry
     estimated scf accuracy    <       0.07411960 Ry

     total magnetization       =     0.00 Bohr mag/cell
     absolute magnetization    =     0.01 Bohr mag/cell

     iteration #  4     ecut=    50.00 Ry     beta= 0.30
     Davidson diagonalization with overlap
     ethr =  5.75E-05,  avg # of iterations = 18.0

     negative rho (up, down):  1.972E-05 1.970E-05

     total cpu time spent up to now is      666.6 secs

     total energy              =    -589.26309423 Ry
     estimated scf accuracy    <       0.02338607 Ry

     total magnetization       =     0.00 Bohr mag/cell
     absolute magnetization    =     0.01 Bohr mag/cell

     iteration #  5     ecut=    50.00 Ry     beta= 0.30
     Davidson diagonalization with overlap
     ethr =  1.81E-05,  avg # of iterations =  2.0

     negative rho (up, down):  2.083E-05 2.081E-05

     total cpu time spent up to now is      668.0 secs

     total energy              =    -589.26687447 Ry
     estimated scf accuracy    <       0.00605857 Ry

     total magnetization       =     0.00 Bohr mag/cell
     absolute magnetization    =     0.01 Bohr mag/cell

     iteration #  6     ecut=    50.00 Ry     beta= 0.30
     Davidson diagonalization with overlap
     ethr =  4.70E-06,  avg # of iterations =  5.0

     negative rho (up, down):  4.318E-05 4.319E-05

     total cpu time spent up to now is      669.3 secs

     total energy              =    -589.26697510 Ry
     estimated scf accuracy    <       0.00200093 Ry

     total magnetization       =     0.00 Bohr mag/cell
     absolute magnetization    =     0.01 Bohr mag/cell

     iteration #  7     ecut=    50.00 Ry     beta= 0.30
     Davidson diagonalization with overlap
     ethr =  1.55E-06,  avg # of iterations = 12.0

     negative rho (up, down):  4.340E-05 4.340E-05

     total cpu time spent up to now is      671.1 secs

     total energy              =    -589.26729186 Ry
     estimated scf accuracy    <       0.00132234 Ry

     total magnetization       =    -0.00 Bohr mag/cell
     absolute magnetization    =     0.00 Bohr mag/cell

     iteration #  8     ecut=    50.00 Ry     beta= 0.30
     Davidson diagonalization with overlap
     ethr =  1.03E-06,  avg # of iterations =  2.0

     negative rho (up, down):  4.556E-05 4.557E-05

     total cpu time spent up to now is      672.4 secs

     total energy              =    -589.26766540 Ry
     estimated scf accuracy    <       0.00003556 Ry

     total magnetization       =    -0.00 Bohr mag/cell
     absolute magnetization    =     0.00 Bohr mag/cell

     iteration #  9     ecut=    50.00 Ry     beta= 0.30
     Davidson diagonalization with overlap
     ethr =  2.76E-08,  avg # of iterations =  4.0

     negative rho (up, down):  4.634E-05 4.634E-05

     total cpu time spent up to now is      673.9 secs

     total energy              =    -589.26767125 Ry
     estimated scf accuracy    <       0.00005080 Ry

     total magnetization       =     0.00 Bohr mag/cell
     absolute magnetization    =     0.00 Bohr mag/cell

     iteration # 10     ecut=    50.00 Ry     beta= 0.30
     Davidson diagonalization with overlap
     ethr =  2.76E-08,  avg # of iterations =  2.0

     negative rho (up, down):  4.662E-05 4.662E-05

     total cpu time spent up to now is      675.3 secs

     total energy              =    -589.26768868 Ry
     estimated scf accuracy    <       0.00000081 Ry

     total magnetization       =    -0.00 Bohr mag/cell
     absolute magnetization    =     0.00 Bohr mag/cell

     iteration # 11     ecut=    50.00 Ry     beta= 0.30
     Davidson diagonalization with overlap
     ethr =  6.26E-10,  avg # of iterations =  4.0

     negative rho (up, down):  4.681E-05 4.681E-05

     total cpu time spent up to now is      676.9 secs

     total energy              =    -589.26769373 Ry
     estimated scf accuracy    <       0.00000022 Ry

     total magnetization       =     0.00 Bohr mag/cell
     absolute magnetization    =     0.00 Bohr mag/cell

     iteration # 12     ecut=    50.00 Ry     beta= 0.30
     Davidson diagonalization with overlap
     ethr =  1.68E-10,  avg # of iterations =  3.0

     negative rho (up, down):  4.687E-05 4.687E-05

     total cpu time spent up to now is      678.2 secs

     total energy              =    -589.26769565 Ry
     estimated scf accuracy    <       0.00000011 Ry

     total magnetization       =    -0.00 Bohr mag/cell
     absolute magnetization    =     0.00 Bohr mag/cell

     iteration # 13     ecut=    50.00 Ry     beta= 0.30
     Davidson diagonalization with overlap
     ethr =  8.41E-11,  avg # of iterations =  2.0

     negative rho (up, down):  4.688E-05 4.688E-05

     total cpu time spent up to now is      679.6 secs

     total energy              =    -589.26769654 Ry
     estimated scf accuracy    <       0.00000001 Ry

     total magnetization       =     0.00 Bohr mag/cell
     absolute magnetization    =     0.00 Bohr mag/cell

     iteration # 14     ecut=    50.00 Ry     beta= 0.30
     Davidson diagonalization with overlap
     ethr =  9.31E-12,  avg # of iterations =  5.0

     negative rho (up, down):  4.688E-05 4.688E-05

     total cpu time spent up to now is      681.2 secs

     total energy              =    -589.26769691 Ry
     estimated scf accuracy    <       0.00000002 Ry

     total magnetization       =    -0.00 Bohr mag/cell
     absolute magnetization    =     0.00 Bohr mag/cell

     iteration # 15     ecut=    50.00 Ry     beta= 0.30
     Davidson diagonalization with overlap
     ethr =  9.31E-12,  avg # of iterations =  3.0

     negative rho (up, down):  4.684E-05 4.684E-05

     Magnetic moment per site  (integrated on atomic sphere of radius R)
     atom   1 (R=0.062)  charge=  0.8014  magn= -0.0000
     atom   2 (R=0.062)  charge=  0.7728  magn= -0.0000
     atom   3 (R=0.062)  charge=  0.7842  magn= -0.0000
     atom   4 (R=0.062)  charge=  0.8024  magn= -0.0000
     atom   5 (R=0.062)  charge=  0.8020  magn= -0.0000
     atom   6 (R=0.062)  charge=  0.7739  magn=  0.0000
     atom   7 (R=0.062)  charge=  0.7963  magn= -0.0000
     atom   8 (R=0.062)  charge=  0.8013  magn=  0.0000
     atom   9 (R=0.062)  charge=  0.7992  magn= -0.0000
     atom  10 (R=0.062)  charge=  0.7732  magn= -0.0000
     atom  11 (R=0.062)  charge=  0.7796  magn=  0.0000
     atom  12 (R=0.062)  charge=  0.8003  magn=  0.0000
     atom  13 (R=0.062)  charge=  0.8016  magn= -0.0000
     atom  14 (R=0.062)  charge=  0.7697  magn=  0.0000
     atom  15 (R=0.062)  charge=  0.7971  magn= -0.0000
     atom  16 (R=0.062)  charge=  0.8012  magn= -0.0000
     atom  17 (R=0.062)  charge=  0.8015  magn=  0.0000
     atom  18 (R=0.062)  charge=  0.7740  magn=  0.0000
     atom  19 (R=0.062)  charge=  0.7970  magn= -0.0000
     atom  20 (R=0.062)  charge=  0.8015  magn=  0.0000
     atom  21 (R=0.062)  charge=  0.7994  magn=  0.0000
     atom  22 (R=0.062)  charge=  0.7741  magn= -0.0000
     atom  23 (R=0.062)  charge=  0.7971  magn=  0.0000
     atom  24 (R=0.062)  charge=  0.8008  magn= -0.0000
     atom  25 (R=0.062)  charge=  0.8020  magn=  0.0000
     atom  26 (R=0.062)  charge=  0.7740  magn=  0.0000
     atom  27 (R=0.062)  charge=  0.7974  magn=  0.0000
     atom  28 (R=0.062)  charge=  0.8013  magn=  0.0000
     atom  29 (R=0.062)  charge=  0.7994  magn=  0.0000
     atom  30 (R=0.062)  charge=  0.7734  magn= -0.0000
     atom  31 (R=0.062)  charge=  0.7970  magn=  0.0000
     atom  32 (R=0.062)  charge=  0.8018  magn=  0.0000
     atom  33 (R=0.062)  charge=  0.4531  magn=  0.0000

     total cpu time spent up to now is      682.5 secs

     End of self-consistent calculation

 ------ SPIN UP ------------


          k = 0.0000 0.0000 0.0000 ( 24951 PWs)   bands (ev):

   -19.3496 -19.2730 -19.2304 -19.1055 -18.7124 -18.4712 -18.4295 -18.2049
   -16.9791 -16.9391 -16.9294 -16.8570 -16.8267 -16.5071 -16.4074 -16.0132
   -15.1007 -14.6557 -14.5678 -14.1959 -12.8245 -12.6223 -12.6093 -12.4281
   -12.3165 -12.0266 -11.8590 -11.4628 -10.8935 -10.7535 -10.6745 -10.6586
   -10.5259 -10.5215 -10.3826  -9.9631  -8.8735  -7.9138  -7.9064  -7.9011
    -7.7046  -6.6064  -6.6002  -6.5539  -6.3302  -5.5549  -5.4686  -5.4535
    -5.3974  -5.3747  -5.3014  -5.2877  -5.2818  -5.2697  -5.2097  -5.1178
    -5.0135  -4.9548  -4.6924  -4.5233  -4.4513  -4.1348  -3.9785  -3.9062
    -2.4375  -0.9183  -0.8345  -0.7780   0.0178   0.3448   0.4909   0.5769
     0.7519   1.0051   1.2684   1.4972   1.5579

 ------ SPIN DOWN ----------


          k = 0.0000 0.0000 0.0000 ( 24951 PWs)   bands (ev):

   -19.3496 -19.2730 -19.2304 -19.1055 -18.7124 -18.4712 -18.4295 -18.2049
   -16.9791 -16.9391 -16.9294 -16.8570 -16.8267 -16.5071 -16.4075 -16.0132
   -15.1007 -14.6557 -14.5678 -14.1959 -12.8245 -12.6223 -12.6093 -12.4281
   -12.3165 -12.0266 -11.8590 -11.4628 -10.8935 -10.7535 -10.6746 -10.6586
   -10.5259 -10.5215 -10.3826  -9.9631  -8.8735  -7.9138  -7.9064  -7.9011
    -7.7046  -6.6064  -6.6002  -6.5539  -6.3302  -5.5549  -5.4686  -5.4535
    -5.3974  -5.3747  -5.3014  -5.2877  -5.2819  -5.2697  -5.2097  -5.1178
    -5.0135  -4.9548  -4.6924  -4.5233  -4.4513  -4.1348  -3.9785  -3.9062
    -2.4375  -0.9183  -0.8345  -0.7780   0.0178   0.3448   0.4909   0.5769
     0.7519   1.0051   1.2684   1.4972   1.5579

     the spin up/dw Fermi energies are    -2.4375   -2.4375 ev

!    total energy              =    -589.26769698 Ry
     estimated scf accuracy    <          1.3E-09 Ry
     smearing contrib. (-TS)   =      -0.00005642 Ry
     internal energy E=F+TS    =    -589.26764056 Ry

     The total energy is F=E-TS. E is the sum of the following terms:
     one-electron contribution =    -708.62186307 Ry
     hartree contribution      =     378.88710024 Ry
     xc contribution           =    -145.49546742 Ry
     ewald contribution        =      83.33845092 Ry
     one-center paw contrib.   =    -197.37586123 Ry

     total magnetization       =     0.00 Bohr mag/cell
     absolute magnetization    =     0.00 Bohr mag/cell

     convergence has been achieved in  15 iterations

     negative rho (up, down):  4.684E-05 4.684E-05

     Forces acting on atoms (cartesian axes, Ry/au):

     atom    1 type  1   force =     0.00067516    0.00001718    0.00086136
     atom    2 type  1   force =     0.00006977   -0.00007555   -0.00028777
     atom    3 type  1   force =    -0.00015674   -0.00013191   -0.00011453
     atom    4 type  1   force =    -0.00015640   -0.00000672    0.00035139
     atom    5 type  1   force =     0.00075162    0.00001908   -0.00070375
     atom    6 type  1   force =    -0.00009818    0.00020647   -0.00002039
     atom    7 type  1   force =     0.00014668    0.00005616   -0.00008989
     atom    8 type  1   force =     0.00003679    0.00001527   -0.00042919
     atom    9 type  1   force =    -0.00062336   -0.00048177    0.00015594
     atom   10 type  1   force =    -0.00000260    0.00009936    0.00000092
     atom   11 type  1   force =    -0.00011806    0.00003021    0.00004945
     atom   12 type  1   force =    -0.00063525   -0.00055983   -0.00048528
     atom   13 type  1   force =    -0.00025119   -0.00007947   -0.00033726
     atom   14 type  1   force =     0.00030340    0.00002014    0.00013965
     atom   15 type  1   force =    -0.00028080    0.00001700    0.00008061
     atom   16 type  1   force =    -0.00028957   -0.00017250   -0.00026939
     atom   17 type  1   force =    -0.00020024   -0.00037427    0.00032281
     atom   18 type  1   force =     0.00048184   -0.00003776   -0.00008182
     atom   19 type  1   force =     0.00003628   -0.00002076   -0.00015254
     atom   20 type  1   force =    -0.00015708    0.00020115    0.00039104
     atom   21 type  1   force =     0.00006631    0.00030510   -0.00070886
     atom   22 type  1   force =     0.00062716   -0.00002782    0.00025945
     atom   23 type  1   force =     0.00025276    0.00000316   -0.00020758
     atom   24 type  1   force =     0.00008461    0.00068380   -0.00013650
     atom   25 type  1   force =     0.00014485    0.00002346    0.00024373
     atom   26 type  1   force =    -0.00012289    0.00019525   -0.00013830
     atom   27 type  1   force =     0.00026505    0.00003568    0.00002183
     atom   28 type  1   force =     0.00006081    0.00002166    0.00092437
     atom   29 type  1   force =     0.00002395    0.00003264   -0.00021729
     atom   30 type  1   force =     0.00002545    0.00018177   -0.00028166
     atom   31 type  1   force =    -0.00043203    0.00004167    0.00002104
     atom   32 type  1   force =    -0.00029579    0.00001990    0.00079813
     atom   33 type  2   force =    -0.00023232   -0.00025776    0.00004027

     Total force =     0.003119     Total SCF correction =     0.000033
     Energy error            =      1.9E-05 Ry
     Gradient error          =      9.2E-04 Ry/Bohr

     bfgs converged in  46 scf cycles and  44 bfgs steps
     (criteria: energy <  1.0E-04 Ry, force <  1.0E-03 Ry/Bohr)

     End of BFGS Geometry Optimization

     Final energy             =    -589.2676969795 Ry

     File ./pwscf.bfgs deleted, as requested
Begin final coordinates

ATOMIC_POSITIONS (angstrom)
C             4.5711340677        5.1819232064        6.5177596442
C             3.5713192807        1.6321400270       13.2851429843
C             3.0032460118        5.1885407782        8.6443166138
C             2.1337062118        5.1823961489        6.3670423710
C             4.6452785024        1.6298477158       18.1438341776
C             3.6154374140        5.1807233058       11.2433814683
C             3.4586705552        1.6302073191       15.9785447785
C             2.1890820484        1.6299032925       18.1222779344
C             3.6141854254        3.9398517078       11.9592686245
C             6.8621445111        5.1802222741        5.1656793605
C             3.5992333017        5.1814144746        9.8304251971
C             3.6164077125        6.4216996711       11.9595189574
C            -0.1800521550        3.9542574613        0.3052565673
C             3.3134362401        5.1837515014        7.1334449780
C            -0.2225801425        5.1811177094        2.4604926681
C            -0.1800353980        6.4125398918        0.3071707259
C            -0.1695475155        2.8641855246       24.2826461516
C             3.4238071901        1.6299455824       17.4490130383
C            -0.1412623518        1.6328482728       22.1288318435
C            -0.1697101423        0.4055171034       24.2843939466
C             3.5944460071        2.8665328048       12.5881270774
C            -0.1264978732        1.6304106697       19.4234820300
C             3.5154921500        1.6312862568       14.7432911347
C             3.5957468201        0.3980763281       12.5875474650
C             5.7400942958        1.6299866287       18.7449703029
C            -0.1936896221        5.1827222316        0.9892031815
C            -0.1292305291        1.6313968173       20.8955864693
C             1.1000015512        1.6300364332       18.7349940092
C             5.6492337562        5.1809244080        5.8810822123
C            -0.1597688088        1.6342419796       23.6006206726
C            -0.2483082597        5.1798386425        3.6933610566
C             1.0155447952        5.1812570975        5.8082323062
H             1.9020349495        5.2002567340        8.7490600516
End final coordinates



     Writing all to output data dir ./pwscf.save/

     init_run     :      1.82s CPU      1.90s WALL (       1 calls)
     electrons    :    514.76s CPU    546.86s WALL (      47 calls)
     update_pot   :     55.09s CPU     55.81s WALL (      45 calls)
     forces       :     48.67s CPU     50.77s WALL (      47 calls)

     Called by init_run:
     wfcinit      :      0.33s CPU      0.35s WALL (       1 calls)
     potinit      :      1.61s CPU      1.65s WALL (       2 calls)
     hinit0       :      0.49s CPU      0.50s WALL (       1 calls)

     Called by electrons:
     c_bands      :    248.34s CPU    257.49s WALL (     382 calls)
     sum_band     :     63.09s CPU     66.07s WALL (     382 calls)
     v_of_rho     :     88.17s CPU     91.50s WALL (     422 calls)
     newd         :     26.40s CPU     27.37s WALL (     422 calls)
     PAW_pot      :    106.58s CPU    107.24s WALL (     467 calls)
     mix_rho      :      7.90s CPU      8.65s WALL (     382 calls)

     Called by c_bands:
     init_us_2    :      4.02s CPU      4.13s WALL (    1714 calls)
     init_us_2:cp :      4.01s CPU      4.13s WALL (    1714 calls)
     regterg      :    241.94s CPU    250.89s WALL (     764 calls)

     Called by *egterg:
     rdiaghg      :     12.96s CPU     13.06s WALL (    3156 calls)
     h_psi        :    158.84s CPU    166.77s WALL (    3264 calls)
     s_psi        :     20.47s CPU     20.63s WALL (    3264 calls)
     g_psi        :      0.56s CPU      0.56s WALL (    2498 calls)

     Called by h_psi:
     h_psi:calbec :     18.72s CPU     19.08s WALL (    3264 calls)
     vloc_psi     :    117.80s CPU    125.18s WALL (    3264 calls)
     add_vuspsi   :     21.19s CPU     21.37s WALL (    3264 calls)

     General routines
     calbec       :     28.94s CPU     29.49s WALL (    4494 calls)
     fft          :     33.92s CPU     38.52s WALL (    9295 calls)
     ffts         :      2.46s CPU      2.76s WALL (    1608 calls)
     fftw         :    122.31s CPU    130.04s WALL (  181654 calls)
     interpolate  :      4.74s CPU      5.36s WALL (     844 calls)

     Parallel routines

     PWSCF        :  10m41.89s CPU  11m25.25s WALL


   This run was terminated on:  16:57:29  29Apr2025            

=------------------------------------------------------------------------------=
   JOB DONE.
=------------------------------------------------------------------------------=
