ITEM: TIMESTEP
0
ITEM: NUMBER OF ATOMS
74
ITEM: BOX BOUNDS pp pp pp
0.0000000000000000e+00 1.3600000000000000e+01
0.0000000000000000e+00 1.3600000000000000e+01
0.0000000000000000e+00 1.3600000000000000e+01
ITEM: ATOMS id type x y z 
1 1 6.672 0.882 7.682 
2 1 6.673 1.896 8.696 
3 1 6.672 2.763 9.563 
7 1 6.673 5.663 12.463 
8 1 6.672 4.65 11.449 
9 1 6.672 3.783 10.582 
49 1 5.663 6.673 12.463 
50 1 4.65 6.672 11.449 
51 1 3.783 6.672 10.582 
55 1 0.882 6.672 7.682 
56 1 1.896 6.673 8.696 
57 1 2.763 6.672 9.563 
25 1 0.882 7.682 6.672 
26 1 1.896 8.696 6.673 
27 1 2.763 9.563 6.672 
31 1 5.663 12.463 6.673 
32 1 4.65 11.449 6.672 
33 1 3.783 10.582 6.672 
37 1 6.673 12.463 5.663 
38 1 6.672 11.449 4.65 
39 1 6.672 10.582 3.783 
43 1 6.672 7.682 0.882 
44 1 6.673 8.696 1.896 
45 1 6.672 9.563 2.763 
28 1 5.662 7.683 13.473 
29 1 4.649 8.696 13.472 
30 1 3.781 9.563 13.471 
34 1 0.882 12.462 13.473 
35 1 1.896 11.449 13.472 
36 1 2.763 10.582 13.472 
52 1 5.662 13.473 7.683 
53 1 4.649 13.472 8.696 
54 1 3.781 13.472 9.563 
58 1 0.882 13.472 12.462 
59 1 1.896 13.472 11.449 
60 1 2.763 13.472 10.582 
13 1 7.682 6.672 0.882 
14 1 8.696 6.673 1.896 
15 1 9.563 6.672 2.763 
19 1 12.463 6.673 5.663 
20 1 11.449 6.672 4.65 
21 1 10.582 6.672 3.783 
61 1 12.463 5.663 6.673 
62 1 11.449 4.65 6.672 
63 1 10.582 3.783 6.672 
67 1 7.682 0.882 6.672 
68 1 8.696 1.896 6.673 
69 1 9.563 2.763 6.672 
4 1 13.473 5.662 7.683 
5 1 13.472 4.649 8.696 
6 1 13.471 3.781 9.563 
10 1 13.473 0.883 12.462 
11 1 13.473 1.896 11.449 
12 1 13.472 2.763 10.582 
64 1 7.683 5.662 13.473 
65 1 8.696 4.649 13.472 
66 1 9.563 3.781 13.471 
70 1 12.462 0.883 13.473 
71 1 11.449 1.896 13.473 
72 1 10.582 2.763 13.472 
73 2 7.677 0.22 8.328 
74 3 8.653 0.22 8.328 
16 1 7.683 13.473 5.662 
17 1 8.696 13.472 4.649 
18 1 9.563 13.471 3.781 
22 1 12.462 13.473 0.882 
23 1 11.449 13.473 1.896 
24 1 10.582 13.472 2.763 
40 1 13.473 7.683 5.662 
41 1 13.472 8.696 4.649 
42 1 13.471 9.563 3.781 
46 1 13.473 12.462 0.882 
47 1 13.473 11.449 1.896 
48 1 13.472 10.582 2.763 
ITEM: TIMESTEP
10
ITEM: NUMBER OF ATOMS
74
ITEM: BOX BOUNDS pp pp pp
0.0000000000000000e+00 1.3600000000000000e+01
0.0000000000000000e+00 1.3600000000000000e+01
0.0000000000000000e+00 1.3600000000000000e+01
ITEM: ATOMS id type x y z 
1 1 6.70554 0.850656 7.70592 
2 1 6.66209 1.91384 8.7008 
3 1 6.66938 2.77847 9.57382 
7 1 6.67239 5.67116 12.4706 
8 1 6.67185 4.66155 11.4604 
9 1 6.6723 3.7955 10.595 
49 1 5.65968 6.6761 12.463 
50 1 4.64908 6.67247 11.4481 
51 1 3.78157 6.67177 10.5811 
55 1 0.881809 6.67181 7.68282 
56 1 1.89613 6.67266 8.69474 
57 1 2.76242 6.67229 9.56286 
25 1 0.881292 7.68128 6.6728 
26 1 1.89408 8.69261 6.67283 
27 1 2.76073 9.56118 6.67222 
31 1 5.65687 12.4606 6.67601 
32 1 4.6462 11.4443 6.67077 
33 1 3.7783 10.577 6.6715 
37 1 6.66014 12.4447 5.65866 
38 1 6.66934 11.4466 4.65071 
39 1 6.67204 10.579 3.77956 
43 1 6.67293 7.68373 0.883919 
44 1 6.67285 8.69554 1.89695 
45 1 6.67232 9.5643 2.76377 
28 1 5.66198 7.68409 13.4738 
29 1 4.64839 8.69696 13.4727 
30 1 3.78085 9.56346 13.4711 
34 1 0.882569 12.4627 13.4715 
35 1 1.89567 11.4492 13.4726 
36 1 2.76263 10.5821 13.4714 
52 1 5.61308 13.4416 7.67933 
53 1 4.64169 13.4674 8.69275 
54 1 3.77869 13.4729 9.56839 
58 1 0.883139 13.4725 12.4605 
59 1 1.8959 13.4717 11.4495 
60 1 2.76387 13.4721 10.5815 
13 1 7.68282 6.67398 0.884111 
14 1 8.6958 6.67324 1.89752 
15 1 9.5639 6.67217 2.76343 
19 1 12.4624 6.67259 5.66294 
20 1 11.4492 6.67165 4.65022 
21 1 10.5822 6.67206 3.78294 
61 1 12.4606 5.66107 6.67248 
62 1 11.4501 4.65093 6.67206 
63 1 10.5819 3.78127 6.67267 
67 1 7.69392 0.934714 6.59172 
68 1 8.69348 1.91015 6.65398 
69 1 9.57341 2.77062 6.67551 
4 1 13.4727 5.66228 7.68266 
5 1 13.4722 4.64916 8.69583 
6 1 13.4712 3.78176 9.56265 
10 1 13.4738 0.882307 12.462 
11 1 13.4729 1.89566 11.4488 
12 1 13.4719 2.76269 10.5822 
64 1 7.68633 5.66331 13.4765 
65 1 8.69605 4.64756 13.4728 
66 1 9.56425 3.78104 13.471 
70 1 12.4637 0.884177 13.4704 
71 1 11.4493 1.89558 13.4725 
72 1 10.5818 2.76293 13.4719 
73 2 7.67282 0.216134 8.35328 
74 3 8.67619 0.190953 8.37145 
16 1 7.68291 13.471 5.65357 
17 1 8.70542 13.4702 4.63555 
18 1 9.57398 13.4703 3.77109 
22 1 12.4652 13.4724 0.879786 
23 1 11.4532 13.4729 1.89128 
24 1 10.5861 13.4718 2.75894 
40 1 13.4718 7.68201 5.66197 
41 1 13.4721 8.696 4.64897 
42 1 13.4712 9.56284 3.78161 
46 1 13.4741 12.4611 0.88192 
47 1 13.4735 11.4487 1.89562 
48 1 13.4715 10.5817 2.76316 
ITEM: TIMESTEP
20
ITEM: NUMBER OF ATOMS
74
ITEM: BOX BOUNDS pp pp pp
0.0000000000000000e+00 1.3600000000000000e+01
0.0000000000000000e+00 1.3600000000000000e+01
0.0000000000000000e+00 1.3600000000000000e+01
ITEM: ATOMS id type x y z 
1 1 6.7514 0.790164 7.73052 
2 1 6.65753 1.92181 8.70798 
3 1 6.66082 2.78697 9.56998 
7 1 6.67252 5.68066 12.4817 
8 1 6.67291 4.67004 11.4669 
9 1 6.67199 3.8036 10.6032 
49 1 5.65436 6.68219 12.4635 
50 1 4.64604 6.67402 11.4474 
51 1 3.77956 6.67151 10.5785 
55 1 0.882483 6.67059 7.68429 
56 1 1.89515 6.67219 8.69519 
57 1 2.76299 6.67233 9.56246 
25 1 0.879877 7.67998 6.67228 
26 1 1.89108 8.6905 6.67295 
27 1 2.75836 9.55794 6.67221 
31 1 5.65607 12.461 6.67322 
32 1 4.64319 11.4411 6.66892 
33 1 3.77564 10.5736 6.67082 
37 1 6.669 12.451 5.65864 
38 1 6.66861 11.4469 4.65285 
39 1 6.67132 10.5809 3.78232 
43 1 6.67263 7.68632 0.88676 
44 1 6.67313 8.69696 1.89739 
45 1 6.67252 9.56501 2.76493 
28 1 5.66004 7.68929 13.4771 
29 1 4.64701 8.69868 13.4727 
30 1 3.77916 9.56576 13.4717 
34 1 0.884338 12.4614 13.4713 
35 1 1.89525 11.4491 13.4723 
36 1 2.76299 10.5818 13.4714 
52 1 5.60416 13.4394 7.67356 
53 1 4.63403 13.4621 8.68697 
54 1 3.77764 13.4722 9.56994 
58 1 0.884369 13.4729 12.4597 
59 1 1.89612 13.4701 11.45 
60 1 2.765 13.4737 10.5819 
13 1 7.68533 6.67697 0.889919 
14 1 8.69722 6.67478 1.89971 
15 1 9.56611 6.672 2.76597 
19 1 12.461 6.6733 5.66081 
20 1 11.4491 6.67175 4.6499 
21 1 10.5817 6.67192 3.78215 
61 1 12.4626 5.66244 6.67283 
62 1 11.4521 4.65273 6.67252 
63 1 10.5855 3.78196 6.67572 
67 1 7.67767 0.950402 6.54496 
68 1 8.68855 1.92026 6.62538 
69 1 9.57555 2.77151 6.6759 
4 1 13.4725 5.66038 7.68475 
5 1 13.4724 4.64833 8.69642 
6 1 13.4714 3.78089 9.56379 
10 1 13.4744 0.883812 12.4593 
11 1 13.4717 1.89763 11.449 
12 1 13.4726 2.76343 10.5801 
64 1 7.69062 5.66347 13.4821 
65 1 8.69928 4.64729 13.4731 
66 1 9.56554 3.77847 13.4716 
70 1 12.4637 0.88564 13.4689 
71 1 11.4504 1.89564 13.4714 
72 1 10.582 2.76253 13.4722 
73 2 7.66252 0.23059 8.35172 
74 3 8.68072 0.162019 8.41399 
16 1 7.67928 13.4717 5.63933 
17 1 8.70047 13.4652 4.62992 
18 1 9.57421 13.4689 3.77234 
22 1 12.4677 13.4724 0.877454 
23 1 11.4569 13.4728 1.88789 
24 1 10.5905 13.4717 2.75512 
40 1 13.4709 7.68303 5.66024 
41 1 13.4714 8.69596 4.64822 
42 1 13.4715 9.56373 3.78141 
46 1 13.4759 12.4589 0.882083 
47 1 13.4747 11.4479 1.89573 
48 1 13.4713 10.581 2.76372 
ITEM: TIMESTEP
30
ITEM: NUMBER OF ATOMS
74
ITEM: BOX BOUNDS pp pp pp
0.0000000000000000e+00 1.3600000000000000e+01
0.0000000000000000e+00 1.3600000000000000e+01
0.0000000000000000e+00 1.3600000000000000e+01
ITEM: ATOMS id type x y z 
1 1 6.80056 0.745405 7.76139 
2 1 6.66774 1.91069 8.72105 
3 1 6.64306 2.79915 9.55341 
7 1 6.66885 5.68388 12.4912 
8 1 6.68164 4.67738 11.4638 
9 1 6.65776 3.8116 10.6049 
49 1 5.65779 6.68542 12.4698 
50 1 4.64526 6.67757 11.4495 
51 1 3.78015 6.67211 10.5795 
55 1 0.881414 6.66885 7.68531 
56 1 1.8945 6.67204 8.69419 
57 1 2.76242 6.67097 9.56163 
25 1 0.875442 7.67782 6.67371 
26 1 1.89201 8.6862 6.67228 
27 1 2.75542 9.55657 6.67247 
31 1 5.65008 12.4651 6.66962 
32 1 4.63992 11.4412 6.66568 
33 1 3.77593 10.5723 6.66847 
37 1 6.67025 12.4544 5.66143 
38 1 6.66906 11.4497 4.65758 
39 1 6.67098 10.5827 3.78754 
43 1 6.67116 7.68855 0.890548 
44 1 6.67709 8.70375 1.90044 
45 1 6.67006 9.56869 2.77088 
28 1 5.6601 7.69429 13.4821 
29 1 4.64676 8.70136 13.4748 
30 1 3.77852 9.56722 13.4729 
34 1 0.885375 12.463 13.4681 
35 1 1.89496 11.4511 13.4709 
36 1 2.76149 10.5829 13.4713 
52 1 5.61975 13.4444 7.6723 
53 1 4.63898 13.4576 8.6805 
54 1 3.7764 13.4689 9.55605 
58 1 0.888802 13.4741 12.4565 
59 1 1.90137 13.4698 11.4442 
60 1 2.7724 13.4752 10.5787 
13 1 7.68513 6.68153 0.894681 
14 1 8.69776 6.67741 1.90193 
15 1 9.5663 6.67242 2.76801 
19 1 12.4615 6.67038 5.66219 
20 1 11.4495 6.675 4.65228 
21 1 10.584 6.67012 3.78269 
61 1 12.4598 5.65996 6.67353 
62 1 11.45 4.64532 6.67745 
63 1 10.5826 3.7753 6.68151 
67 1 7.65156 0.964399 6.53421 
68 1 8.66975 1.92358 6.59235 
69 1 9.56534 2.77179 6.65424 
4 1 13.4725 5.65804 7.68155 
5 1 13.4703 4.65313 8.70123 
6 1 13.4732 3.77831 9.56091 
10 1 13.4773 0.88226 12.4571 
11 1 13.4732 1.89773 11.448 
12 1 13.4718 2.76415 10.5793 
64 1 7.68808 5.67049 13.485 
65 1 8.70059 4.64908 13.4775 
66 1 9.5651 3.77895 13.4719 
70 1 12.4649 0.886956 13.4664 
71 1 11.4518 1.89558 13.4694 
72 1 10.5829 2.76129 13.4714 
73 2 7.68677 0.244119 8.34155 
74 3 8.65827 0.110709 8.48423 
16 1 7.66611 13.494 5.62178 
17 1 8.69315 13.4653 4.61764 
18 1 9.57531 13.4619 3.76814 
22 1 12.4736 13.4735 0.872004 
23 1 11.46 13.4719 1.88448 
24 1 10.5957 13.4711 2.7539 
40 1 13.4727 7.67952 5.65482 
41 1 13.4667 8.70505 4.65709 
42 1 13.4756 9.5589 3.77553 
46 1 13.4802 12.4577 0.882056 
47 1 13.4714 11.4463 1.8938 
48 1 13.4723 10.5821 2.76453 
ITEM: TIMESTEP
40
ITEM: NUMBER OF ATOMS
74
ITEM: BOX BOUNDS pp pp pp
0.0000000000000000e+00 1.3600000000000000e+01
0.0000000000000000e+00 1.3600000000000000e+01
0.0000000000000000e+00 1.3600000000000000e+01
ITEM: ATOMS id type x y z 
1 1 6.80803 0.743847 7.76758 
2 1 6.66961 1.90799 8.72071 
3 1 6.63899 2.79714 9.55098 
7 1 6.67243 5.68683 12.4887 
8 1 6.6749 4.67447 11.4724 
9 1 6.65936 3.81932 10.5986 
49 1 5.65442 6.68708 12.4688 
50 1 4.64529 6.67803 11.4504 
51 1 3.78107 6.67249 10.5805 
55 1 0.880746 6.66877 7.68465 
56 1 1.89537 6.67099 8.69568 
57 1 2.76314 6.67129 9.56194 
25 1 0.876446 7.67706 6.6724 
26 1 1.88957 8.68747 6.67361 
27 1 2.75651 9.55475 6.67162 
31 1 5.64991 12.467 6.66976 
32 1 4.63877 11.4412 6.66493 
33 1 3.77527 10.5723 6.66779 
37 1 6.66993 12.4569 5.66167 
38 1 6.66893 11.4505 4.65779 
39 1 6.67081 10.5827 3.78852 
43 1 6.67282 7.69221 0.892077 
44 1 6.67405 8.70182 1.90317 
45 1 6.67206 9.57018 2.77043 
28 1 5.66034 7.694 13.4818 
29 1 4.64699 8.70227 13.4764 
30 1 3.77758 9.56813 13.4727 
34 1 0.885696 12.4641 13.467 
35 1 1.89502 11.4514 13.47 
36 1 2.76168 10.5829 13.4715 
52 1 5.62182 13.4413 7.67346 
53 1 4.64005 13.4576 8.67666 
54 1 3.77818 13.4686 9.55485 
58 1 0.889978 13.4735 12.4544 
59 1 1.90307 13.4721 11.4452 
60 1 2.7713 13.4736 10.5767 
13 1 7.6848 6.68206 0.894337 
14 1 8.69764 6.67789 1.90352 
15 1 9.56734 6.67271 2.76885 
19 1 12.461 6.67026 5.66353 
20 1 11.4514 6.67241 4.65116 
21 1 10.5835 6.67145 3.78394 
61 1 12.4581 5.65777 6.67371 
62 1 11.4501 4.6442 6.67947 
63 1 10.5823 3.77517 6.67983 
67 1 7.64854 0.964528 6.53114 
68 1 8.66784 1.92484 6.58898 
69 1 9.56105 2.77199 6.64865 
4 1 13.47 5.65943 7.68316 
5 1 13.4734 4.64937 8.69697 
6 1 13.4714 3.78097 9.56323 
10 1 13.478 0.882889 12.4569 
11 1 13.4734 1.89642 11.4468 
12 1 13.472 2.76405 10.5797 
64 1 7.6912 5.66879 13.4873 
65 1 8.7001 4.65021 13.478 
66 1 9.56431 3.7801 13.4725 
70 1 12.4666 0.886339 13.4652 
71 1 11.4513 1.89635 13.4688 
72 1 10.5823 2.76179 13.4711 
73 2 7.68814 0.245244 8.33936 
74 3 8.66213 0.0964492 8.50197 
16 1 7.66028 13.4987 5.61936 
17 1 8.69237 13.4668 4.61488 
18 1 9.57578 13.4611 3.76508 
22 1 12.4728 13.4728 0.872861 
23 1 11.462 13.473 1.88422 
24 1 10.5966 13.4693 2.75303 
40 1 13.4691 7.68227 5.6593 
41 1 13.4736 8.6979 4.64959 
42 1 13.4711 9.56343 3.78087 
46 1 13.4788 12.4581 0.880645 
47 1 13.4733 11.4478 1.8951 
48 1 13.472 10.5804 2.76246 
ITEM: TIMESTEP
50
ITEM: NUMBER OF ATOMS
74
ITEM: BOX BOUNDS pp pp pp
0.0000000000000000e+00 1.3600000000000000e+01
0.0000000000000000e+00 1.3600000000000000e+01
0.0000000000000000e+00 1.3600000000000000e+01
ITEM: ATOMS id type x y z 
1 1 6.85005 0.725032 7.79515 
2 1 6.6802 1.90045 8.7381 
3 1 6.62066 2.81173 9.54161 
7 1 6.67222 5.69102 12.4965 
8 1 6.6634 4.69218 11.4624 
9 1 6.62811 3.84402 10.5833 
49 1 5.65694 6.69119 12.4758 
50 1 4.6466 6.68303 11.4562 
51 1 3.78328 6.67723 10.586 
55 1 0.88119 6.66612 7.68644 
56 1 1.89577 6.66686 8.69848 
57 1 2.76486 6.6697 9.56365 
25 1 0.871176 7.67357 6.67535 
26 1 1.88629 8.68502 6.67076 
27 1 2.75562 9.54975 6.66854 
31 1 5.64411 12.4747 6.66741 
32 1 4.63243 11.4444 6.66049 
33 1 3.77171 10.5732 6.66189 
37 1 6.65997 12.4777 5.65235 
38 1 6.66563 11.4597 4.66017 
39 1 6.67446 10.5841 3.79937 
43 1 6.67457 7.69966 0.89894 
44 1 6.66961 8.709 1.90921 
45 1 6.67363 9.57264 2.78153 
28 1 5.66322 7.69906 13.4889 
29 1 4.64863 8.70796 13.4848 
30 1 3.77728 9.57127 13.4779 
34 1 0.888235 12.4692 13.4601 
35 1 1.89627 11.4557 13.464 
36 1 2.76052 10.5852 13.4688 
52 1 5.65474 13.4323 7.68557 
53 1 4.65458 13.4462 8.6696 
54 1 3.78385 13.4644 9.53863 
58 1 0.901514 13.4774 12.4461 
59 1 1.91 13.4761 11.431 
60 1 2.77621 13.4747 10.5605 
13 1 7.68523 6.68698 0.900209 
14 1 8.70064 6.68116 1.9084 
15 1 9.56904 6.67927 2.77471 
19 1 12.4607 6.66419 5.67177 
20 1 11.4516 6.66602 4.65893 
21 1 10.5872 6.67161 3.78802 
61 1 12.4506 5.64914 6.68003 
62 1 11.4463 4.63061 6.68239 
63 1 10.5686 3.77135 6.66176 
67 1 7.62471 0.972092 6.52752 
68 1 8.64179 1.93611 6.54884 
69 1 9.53238 2.78436 6.60019 
4 1 13.4669 5.65971 7.68384 
5 1 13.4663 4.64412 8.69124 
6 1 13.4709 3.78341 9.56527 
10 1 13.4837 0.881192 12.4524 
11 1 13.4803 1.89458 11.4432 
12 1 13.4758 2.76471 10.5786 
64 1 7.69131 5.67474 13.4942 
65 1 8.70184 4.65582 13.4871 
66 1 9.56305 3.78348 13.4769 
70 1 12.4702 0.88741 13.4588 
71 1 11.4554 1.90022 13.4603 
72 1 10.5823 2.7615 13.4684 
73 2 7.76233 0.234363 8.34222 
74 3 8.65733 -0.0477239 8.67344 
16 1 7.62585 13.539 5.57968 
17 1 8.67235 13.4867 4.5861 
18 1 9.56637 13.4581 3.75019 
22 1 12.4812 13.4764 0.867072 
23 1 11.4707 13.4657 1.88238 
24 1 10.6036 13.4592 2.74857 
40 1 13.4667 7.67693 5.66054 
41 1 13.4663 8.69146 4.64492 
42 1 13.4753 9.55924 3.77847 
46 1 13.4829 12.4589 0.873769 
47 1 13.4804 11.4462 1.8904 
48 1 13.4703 10.5872 2.76486 
ITEM: TIMESTEP
60
ITEM: NUMBER OF ATOMS
74
ITEM: BOX BOUNDS pp pp pp
0.0000000000000000e+00 1.3600000000000000e+01
0.0000000000000000e+00 1.3600000000000000e+01
0.0000000000000000e+00 1.3600000000000000e+01
ITEM: ATOMS id type x y z 
1 1 6.85431 0.722466 7.79737 
2 1 6.6821 1.90105 8.7368 
3 1 6.61967 2.81001 9.54254 
7 1 6.67411 5.69236 12.4943 
8 1 6.65827 4.69082 11.4641 
9 1 6.62995 3.84639 10.581 
49 1 5.65647 6.69144 12.4764 
50 1 4.6466 6.68405 11.4558 
51 1 3.78265 6.67671 10.5859 
55 1 0.881174 6.66644 7.68635 
56 1 1.89603 6.66767 8.69851 
57 1 2.76464 6.66974 9.564 
25 1 0.871552 7.67335 6.67433 
26 1 1.88695 8.6849 6.67144 
27 1 2.75491 9.55039 6.66758 
31 1 5.64523 12.4752 6.66841 
32 1 4.63267 11.4449 6.66105 
33 1 3.77183 10.574 6.66147 
37 1 6.65765 12.4793 5.65067 
38 1 6.66484 11.461 4.65888 
39 1 6.67411 10.5839 3.79921 
43 1 6.67498 7.69871 0.898906 
44 1 6.6715 8.70791 1.91023 
45 1 6.67337 9.57237 2.78161 
28 1 5.6628 7.69898 13.4887 
29 1 4.6491 8.70745 13.4847 
30 1 3.77783 9.57123 13.4781 
34 1 0.888184 12.4696 13.4597 
35 1 1.89643 11.4557 13.464 
36 1 2.76108 10.5853 13.4689 
52 1 5.65678 13.4316 7.68699 
53 1 4.65765 13.4469 8.67182 
54 1 3.7845 13.464 9.53849 
58 1 0.901319 13.4775 12.4456 
59 1 1.90983 13.4763 11.4303 
60 1 2.77566 13.4744 10.5595 
13 1 7.68562 6.68693 0.900063 
14 1 8.6998 6.68213 1.90861 
15 1 9.5692 6.67873 2.77417 
19 1 12.461 6.66394 5.67156 
20 1 11.4516 6.66681 4.65869 
21 1 10.5865 6.6714 3.78876 
61 1 12.4515 5.64895 6.67929 
62 1 11.4443 4.63308 6.68087 
63 1 10.5682 3.77259 6.65845 
67 1 7.62648 0.971832 6.52732 
68 1 8.64194 1.93629 6.54958 
69 1 9.53161 2.78584 6.5986 
4 1 13.468 5.65923 7.68333 
5 1 13.4665 4.64676 8.69405 
6 1 13.471 3.78146 9.56357 
10 1 13.4837 0.88092 12.4531 
11 1 13.4802 1.89478 11.4437 
12 1 13.4762 2.76463 10.5786 
64 1 7.69104 5.67395 13.4938 
65 1 8.70161 4.65484 13.4861 
66 1 9.564 3.78343 13.4776 
70 1 12.4702 0.887636 13.4593 
71 1 11.4543 1.8991 13.4615 
72 1 10.5834 2.76236 13.4677 
73 2 7.76016 0.232904 8.34393 
74 3 8.65381 -0.0561306 8.68018 
16 1 7.62506 13.5395 5.57963 
17 1 8.67118 13.4884 4.58542 
18 1 9.56475 13.4604 3.74825 
22 1 12.4815 13.4759 0.867413 
23 1 11.4699 13.4655 1.88182 
24 1 10.6028 13.4585 2.74831 
40 1 13.4667 7.67783 5.66031 
41 1 13.4675 8.69148 4.64508 
42 1 13.4726 9.56017 3.7797 
46 1 13.4831 12.4591 0.874369 
47 1 13.479 11.4477 1.89201 
48 1 13.4733 10.5844 2.76256 
ITEM: TIMESTEP
70
ITEM: NUMBER OF ATOMS
74
ITEM: BOX BOUNDS pp pp pp
0.0000000000000000e+00 1.3600000000000000e+01
0.0000000000000000e+00 1.3600000000000000e+01
0.0000000000000000e+00 1.3600000000000000e+01
ITEM: ATOMS id type x y z 
1 1 6.86344 0.718487 7.80056 
2 1 6.68698 1.90078 8.73584 
3 1 6.61994 2.80803 9.54294 
7 1 6.67424 5.69354 12.4923 
8 1 6.65129 4.69467 11.4595 
9 1 6.62843 3.84675 10.5795 
49 1 5.65732 6.69313 12.4758 
50 1 4.64528 6.68065 11.4567 
51 1 3.78234 6.67874 10.5859 
55 1 0.88109 6.66715 7.68582 
56 1 1.89609 6.66956 8.69826 
57 1 2.76391 6.67032 9.56452 
25 1 0.873389 7.67293 6.67273 
26 1 1.88888 8.68474 6.67186 
27 1 2.75409 9.5529 6.66564 
31 1 5.64745 12.4756 6.67099 
32 1 4.63319 11.4467 6.66257 
33 1 3.77173 10.5764 6.66028 
37 1 6.65173 12.4844 5.64562 
38 1 6.66196 11.4643 4.65512 
39 1 6.6725 10.5845 3.79823 
43 1 6.676 7.69697 0.899267 
44 1 6.67542 8.70469 1.91248 
45 1 6.67402 9.57066 2.78227 
28 1 5.66308 7.69867 13.4896 
29 1 4.6493 8.70742 13.4846 
30 1 3.77875 9.57183 13.4784 
34 1 0.888231 12.4699 13.4588 
35 1 1.89729 11.4567 13.4634 
36 1 2.76178 10.5862 13.4695 
52 1 5.66488 13.4294 7.69255 
53 1 4.66515 13.4487 8.67732 
54 1 3.7875 13.4634 9.53946 
58 1 0.900751 13.4773 12.4448 
59 1 1.9099 13.4742 11.4292 
60 1 2.77355 13.4746 10.5564 
13 1 7.68647 6.68534 0.8984 
14 1 8.69882 6.68354 1.90897 
15 1 9.56891 6.67794 2.77383 
19 1 12.4619 6.66427 5.67036 
20 1 11.4512 6.66766 4.65852 
21 1 10.5848 6.67146 3.7899 
61 1 12.4529 5.64962 6.67864 
62 1 11.4422 4.63788 6.67376 
63 1 10.5647 3.77874 6.64987 
67 1 7.63045 0.969739 6.53 
68 1 8.64264 1.93761 6.55058 
69 1 9.52996 2.78969 6.59373 
4 1 13.4683 5.65972 7.68413 
5 1 13.4723 4.64938 8.69695 
6 1 13.4693 3.7797 9.5621 
10 1 13.4842 0.881265 12.4546 
11 1 13.4796 1.89493 11.4447 
12 1 13.4765 2.76356 10.5785 
64 1 7.6905 5.67184 13.4923 
65 1 8.7012 4.6534 13.484 
66 1 9.5656 3.78383 13.4781 
70 1 12.47 0.886809 13.4605 
71 1 11.4538 1.89772 13.4648 
72 1 10.5853 2.7635 13.4668 
73 2 7.75929 0.224679 8.35246 
74 3 8.64052 -0.082477 8.70125 
16 1 7.62288 13.5411 5.57832 
17 1 8.66711 13.4937 4.58229 
18 1 9.55933 13.4665 3.74363 
22 1 12.4813 13.475 0.86823 
23 1 11.4679 13.4645 1.88095 
24 1 10.5995 13.4577 2.74617 
40 1 13.4672 7.67834 5.66018 
41 1 13.4693 8.69416 4.64734 
42 1 13.4685 9.56097 3.7801 
46 1 13.4849 12.4601 0.875803 
47 1 13.4778 11.4486 1.89289 
48 1 13.4778 10.5801 2.7585 
ITEM: TIMESTEP
80
ITEM: NUMBER OF ATOMS
74
ITEM: BOX BOUNDS pp pp pp
0.0000000000000000e+00 1.3600000000000000e+01
0.0000000000000000e+00 1.3600000000000000e+01
0.0000000000000000e+00 1.3600000000000000e+01
ITEM: ATOMS id type x y z 
1 1 6.86926 0.714948 7.80444 
2 1 6.69196 1.89838 8.73833 
3 1 6.62183 2.80898 9.54154 
7 1 6.67318 5.69401 12.491 
8 1 6.65007 4.69507 11.4582 
9 1 6.62373 3.84894 10.5767 
49 1 5.65697 6.69402 12.4762 
50 1 4.64599 6.68256 11.4561 
51 1 3.78199 6.67957 10.5864 
55 1 0.882733 6.66683 7.68464 
56 1 1.89365 6.67033 8.70077 
57 1 2.76395 6.67075 9.56462 
25 1 0.875493 7.67363 6.67293 
26 1 1.88834 8.68791 6.66781 
27 1 2.7557 9.55402 6.66595 
31 1 5.64875 12.4766 6.67173 
32 1 4.63357 11.4488 6.66332 
33 1 3.77162 10.579 6.66053 
37 1 6.64846 12.4882 5.64229 
38 1 6.65876 11.4665 4.65287 
39 1 6.67044 10.5865 3.79657 
43 1 6.67673 7.69574 0.900103 
44 1 6.67612 8.70384 1.9131 
45 1 6.67573 9.56882 2.78386 
28 1 5.66334 7.69876 13.4911 
29 1 4.64998 8.70809 13.4863 
30 1 3.77926 9.57237 13.479 
34 1 0.889294 12.4706 13.4591 
35 1 1.89816 11.4575 13.4613 
36 1 2.76293 10.5872 13.4703 
52 1 5.66998 13.4261 7.69718 
53 1 4.66861 13.4467 8.68028 
54 1 3.79078 13.4645 9.54217 
58 1 0.900165 13.4768 12.4433 
59 1 1.90854 13.4756 11.4269 
60 1 2.77431 13.473 10.5562 
13 1 7.68687 6.6835 0.897166 
14 1 8.69811 6.68348 1.90933 
15 1 9.56813 6.67779 2.77419 
19 1 12.4629 6.66598 5.66995 
20 1 11.451 6.6673 4.65877 
21 1 10.5848 6.67183 3.79007 
61 1 12.4545 5.65119 6.67804 
62 1 11.4413 4.64131 6.66925 
63 1 10.5621 3.78422 6.64243 
67 1 7.63454 0.967126 6.53386 
68 1 8.64366 1.93849 6.54914 
69 1 9.52821 2.79401 6.5892 
4 1 13.4685 5.66 7.68418 
5 1 13.4697 4.64792 8.69532 
6 1 13.4725 3.78122 9.56347 
10 1 13.4843 0.881032 12.4548 
11 1 13.4816 1.89397 11.4438 
12 1 13.4749 2.76316 10.5783 
64 1 7.69013 5.67121 13.4904 
65 1 8.70212 4.65368 13.4832 
66 1 9.56583 3.78349 13.4766 
70 1 12.4707 0.886584 13.4614 
71 1 11.4555 1.89854 13.4639 
72 1 10.5857 2.76293 13.469 
73 2 7.75934 0.213997 8.36055 
74 3 8.62899 -0.11026 8.72418 
16 1 7.61946 13.5445 5.57603 
17 1 8.66272 13.4977 4.57889 
18 1 9.55417 13.4702 3.73951 
22 1 12.481 13.4744 0.868556 
23 1 11.4667 13.4635 1.88053 
24 1 10.5951 13.46 2.74249 
40 1 13.468 7.67991 5.66117 
41 1 13.468 8.69329 4.64594 
42 1 13.4709 9.56089 3.77954 
46 1 13.486 12.4607 0.875949 
47 1 13.4819 11.4454 1.88913 
48 1 13.4754 10.582 2.75974 
ITEM: TIMESTEP
90
ITEM: NUMBER OF ATOMS
74
ITEM: BOX BOUNDS pp pp pp
0.0000000000000000e+00 1.3600000000000000e+01
0.0000000000000000e+00 1.3600000000000000e+01
0.0000000000000000e+00 1.3600000000000000e+01
ITEM: ATOMS id type x y z 
1 1 6.87827 0.708441 7.81042 
2 1 6.69865 1.89617 8.73976 
3 1 6.623 2.80832 9.5404 
7 1 6.67389 5.69412 12.49 
8 1 6.64589 4.69791 11.4548 
9 1 6.62181 3.85057 10.5743 
49 1 5.65766 6.69264 12.475 
50 1 4.64098 6.69288 11.4613 
51 1 3.7832 6.67554 10.5856 
55 1 0.881121 6.66649 7.68583 
56 1 1.89626 6.67349 8.69771 
57 1 2.76191 6.67155 9.56626 
25 1 0.876084 7.67482 6.67097 
26 1 1.89211 8.68546 6.67292 
27 1 2.7529 9.55827 6.66058 
31 1 5.64967 12.4779 6.67226 
32 1 4.63386 11.4506 6.66482 
33 1 3.77154 10.5808 6.66121 
37 1 6.64465 12.4935 5.63784 
38 1 6.65625 11.4701 4.65014 
39 1 6.66843 10.5881 3.79567 
43 1 6.67533 7.69602 0.89929 
44 1 6.67912 8.6994 1.91746 
45 1 6.67467 9.57002 2.78255 
28 1 5.66373 7.6986 13.4911 
29 1 4.65123 8.70828 13.4879 
30 1 3.78076 9.57274 13.4809 
34 1 0.890834 12.4716 13.4564 
35 1 1.89773 11.4556 13.4662 
36 1 2.76649 10.5893 13.4668 
52 1 5.67772 13.4262 7.7034 
53 1 4.67485 13.4437 8.68396 
54 1 3.79568 13.4641 9.5445 
58 1 0.89976 13.4766 12.441 
59 1 1.90972 13.4743 11.4259 
60 1 2.77502 13.4737 10.5548 
13 1 7.68705 6.6829 0.896986 
14 1 8.70029 6.67749 1.90659 
15 1 9.56602 6.68015 2.77581 
19 1 12.4628 6.66637 5.66973 
20 1 11.4519 6.67094 4.65706 
21 1 10.5834 6.67053 3.79071 
61 1 12.4546 5.65261 6.67569 
62 1 11.439 4.64547 6.66395 
63 1 10.5586 3.78957 6.63409 
67 1 7.63934 0.963824 6.53858 
68 1 8.64436 1.93866 6.54927 
69 1 9.52533 2.79825 6.58211 
4 1 13.47 5.66085 7.68349 
5 1 13.474 4.65036 8.69707 
6 1 13.4694 3.78023 9.56167 
10 1 13.4837 0.881583 12.4538 
11 1 13.4763 1.897 11.4459 
12 1 13.4797 2.76252 10.5766 
64 1 7.69162 5.67205 13.4908 
65 1 8.6999 4.65121 13.4786 
66 1 9.56737 3.78485 13.4778 
70 1 12.4724 0.885974 13.4623 
71 1 11.4551 1.89705 13.4674 
72 1 10.5877 2.76368 13.4676 
73 2 7.76024 0.198007 8.37211 
74 3 8.61086 -0.14688 8.75358 
16 1 7.6167 13.5489 5.57397 
17 1 8.65752 13.503 4.57412 
18 1 9.54703 13.4761 3.73265 
22 1 12.4819 13.4731 0.868459 
23 1 11.4644 13.4642 1.8781 
24 1 10.5907 13.4616 2.73785 
40 1 13.47 7.68106 5.66095 
41 1 13.4708 8.69587 4.64687 
42 1 13.4686 9.5613 3.77824 
46 1 13.4878 12.4605 0.874346 
47 1 13.478 11.4488 1.89077 
48 1 13.4806 10.5795 2.7556 
ITEM: TIMESTEP
100
ITEM: NUMBER OF ATOMS
74
ITEM: BOX BOUNDS pp pp pp
0.0000000000000000e+00 1.3600000000000000e+01
0.0000000000000000e+00 1.3600000000000000e+01
0.0000000000000000e+00 1.3600000000000000e+01
ITEM: ATOMS id type x y z 
1 1 6.8808 0.706985 7.81203 
2 1 6.70039 1.89529 8.74085 
3 1 6.62391 2.80857 9.54008 
7 1 6.67259 5.69503 12.4888 
8 1 6.64686 4.69714 11.455 
9 1 6.6206 3.85151 10.5731 
49 1 5.65646 6.69499 12.4765 
50 1 4.64352 6.6885 11.4588 
51 1 3.78044 6.67945 10.5881 
55 1 0.881644 6.66795 7.6855 
56 1 1.8957 6.67082 8.6984 
57 1 2.76298 6.67246 9.56527 
25 1 0.877252 7.67468 6.67179 
26 1 1.89046 8.68832 6.66933 
27 1 2.75504 9.55726 6.66354 
31 1 5.65007 12.4784 6.67315 
32 1 4.63361 11.4517 6.66479 
33 1 3.77125 10.5823 6.66011 
37 1 6.64409 12.4943 5.63709 
38 1 6.65513 11.471 4.64944 
39 1 6.66729 10.5892 3.79483 
43 1 6.67754 7.6942 0.901164 
44 1 6.67836 8.701 1.9163 
45 1 6.67564 9.56886 2.78408 
28 1 5.66443 7.69897 13.4929 
29 1 4.65165 8.70886 13.4879 
30 1 3.78143 9.57358 13.4803 
34 1 0.890052 12.4713 13.4571 
35 1 1.89957 11.4581 13.4628 
36 1 2.76504 10.5886 13.4696 
52 1 5.67845 13.4232 7.70367 
53 1 4.67581 13.4447 8.68449 
54 1 3.79659 13.4629 9.54502 
58 1 0.89942 13.4761 12.441 
59 1 1.90904 13.4759 11.4252 
60 1 2.77625 13.473 10.556 
13 1 7.6873 6.68143 0.895976 
14 1 8.69875 6.67989 1.90797 
15 1 9.56684 6.6773 2.77478 
19 1 12.4638 6.66768 5.66932 
20 1 11.4521 6.67112 4.65734 
21 1 10.5835 6.67205 3.79111 
61 1 12.4552 5.65313 6.67606 
62 1 11.4389 4.64638 6.66247 
63 1 10.5578 3.79104 6.63204 
67 1 7.64067 0.962655 6.54033 
68 1 8.64475 1.93911 6.54867 
69 1 9.52484 2.79905 6.58133 
4 1 13.4698 5.66085 7.68324 
5 1 13.4708 4.64922 8.69533 
6 1 13.4732 3.78109 9.56206 
10 1 13.4841 0.881302 12.4542 
11 1 13.4794 1.89511 11.444 
12 1 13.4761 2.76364 10.5777 
64 1 7.69006 5.67059 13.488 
65 1 8.70171 4.65278 13.4804 
66 1 9.56662 3.78378 13.4753 
70 1 12.4721 0.886419 13.462 
71 1 11.4562 1.89838 13.4658 
72 1 10.5872 2.76341 13.4697 
73 2 7.75916 0.193727 8.37492 
74 3 8.60681 -0.157362 8.76178 
16 1 7.61588 13.5496 5.5734 
17 1 8.65605 13.5043 4.57282 
18 1 9.5453 13.4775 3.73103 
22 1 12.4812 13.4736 0.868564 
23 1 11.4639 13.4638 1.87783 
24 1 10.5889 13.4628 2.7363 
40 1 13.4701 7.68178 5.66128 
41 1 13.4697 8.69464 4.64538 
42 1 13.4715 9.56159 3.77838 
46 1 13.487 12.4608 0.874445 
47 1 13.4824 11.447 1.88891 
48 1 13.477 10.5807 2.75674 
ITEM: TIMESTEP
110
ITEM: NUMBER OF ATOMS
74
ITEM: BOX BOUNDS pp pp pp
0.0000000000000000e+00 1.3600000000000000e+01
0.0000000000000000e+00 1.3600000000000000e+01
0.0000000000000000e+00 1.3600000000000000e+01
ITEM: ATOMS id type x y z 
1 1 6.88943 0.700406 7.8172 
2 1 6.70704 1.89179 8.74335 
3 1 6.62734 2.80745 9.53894 
7 1 6.67153 5.69542 12.4873 
8 1 6.64417 4.69989 11.4513 
9 1 6.61971 3.85273 10.571 
49 1 5.6558 6.69573 12.4778 
50 1 4.64457 6.68799 11.4586 
51 1 3.77957 6.68338 10.5898 
55 1 0.882684 6.66922 7.68501 
56 1 1.89191 6.66081 8.70171 
57 1 2.76272 6.67886 9.56417 
25 1 0.878726 7.67546 6.67225 
26 1 1.88996 8.69149 6.66695 
27 1 2.75641 9.55901 6.66417 
31 1 5.65062 12.4795 6.67275 
32 1 4.63389 11.454 6.6645 
33 1 3.77086 10.5849 6.6607 
37 1 6.6426 12.4983 5.63293 
38 1 6.6523 11.4742 4.64734 
39 1 6.6647 10.5923 3.79345 
43 1 6.67949 7.69453 0.900761 
44 1 6.67663 8.6967 1.92086 
45 1 6.67704 9.57074 2.78278 
28 1 5.66518 7.69971 13.4949 
29 1 4.65291 8.71059 13.4902 
30 1 3.7828 9.5752 13.4814 
34 1 0.890454 12.472 13.4557 
35 1 1.90051 11.4592 13.4624 
36 1 2.76654 10.59 13.4697 
52 1 5.6842 13.4232 7.70967 
53 1 4.6813 13.4434 8.68863 
54 1 3.8012 13.4619 9.54777 
58 1 0.899004 13.4764 12.4392 
59 1 1.91078 13.4759 11.4255 
60 1 2.77765 13.4724 10.5559 
13 1 7.68724 6.67836 0.895803 
14 1 8.69953 6.67905 1.90664 
15 1 9.5661 6.67522 2.77529 
19 1 12.4646 6.67079 5.66756 
20 1 11.4502 6.66984 4.65945 
21 1 10.5847 6.6749 3.78972 
61 1 12.4566 5.65515 6.67546 
62 1 11.4378 4.6501 6.6577 
63 1 10.5547 3.79531 6.62516 
67 1 7.64584 0.958493 6.5464 
68 1 8.64595 1.93917 6.54905 
69 1 9.52279 2.80202 6.57678 
4 1 13.4709 5.66041 7.6799 
5 1 13.4672 4.65268 8.69651 
6 1 13.4741 3.78053 9.55902 
10 1 13.4837 0.881547 12.4529 
11 1 13.4816 1.8953 11.4425 
12 1 13.4766 2.76501 10.5777 
64 1 7.68991 5.67076 13.4859 
65 1 8.70157 4.65282 13.4794 
66 1 9.56661 3.78394 13.4741 
70 1 12.4725 0.886374 13.4608 
71 1 11.4574 1.89951 13.4694 
72 1 10.5873 2.76343 13.4675 
73 2 7.75714 0.176489 8.38654 
74 3 8.5885 -0.19559 8.79096 
16 1 7.61339 13.5529 5.57282 
17 1 8.65127 13.5092 4.56816 
18 1 9.53828 13.4831 3.72442 
22 1 12.4809 13.4736 0.867631 
23 1 11.4614 13.4649 1.87526 
24 1 10.5833 13.4659 2.73046 
40 1 13.4708 7.68321 5.6601 
41 1 13.4728 8.6958 4.64504 
42 1 13.4719 9.56186 3.77663 
46 1 13.4872 12.4612 0.872853 
47 1 13.4834 11.4476 1.8875 
48 1 13.478 10.5812 2.75548 
ITEM: TIMESTEP
120
ITEM: NUMBER OF ATOMS
74
ITEM: BOX BOUNDS pp pp pp
0.0000000000000000e+00 1.3600000000000000e+01
0.0000000000000000e+00 1.3600000000000000e+01
0.0000000000000000e+00 1.3600000000000000e+01
ITEM: ATOMS id type x y z 
57 1 2.74979 6.67843 9.57612 
2 1 6.75912 1.86628 8.7628 
3 1 6.65357 2.79925 9.53534 
7 1 6.66645 5.69966 12.4773 
8 1 6.62977 4.71273 11.4301 
9 1 6.61419 3.86322 10.5515 
49 1 5.65154 6.70005 12.4842 
50 1 4.64126 6.70642 11.4618 
51 1 3.77949 6.70748 10.5904 
55 1 0.887126 6.66606 7.67866 
56 1 1.88533 6.66206 8.70728 
25 1 0.888598 7.68 6.67392 
26 1 1.89433 8.7021 6.66611 
27 1 2.75439 9.57494 6.66088 
31 1 5.65646 12.4946 6.67422 
32 1 4.63562 11.4701 6.66807 
33 1 3.77111 10.6029 6.66293 
37 1 6.625 12.5278 5.6142 
38 1 6.63376 11.498 4.62943 
39 1 6.64647 10.6124 3.78018 
43 1 6.68042 7.68276 0.912667 
44 1 6.69183 8.6949 1.92723 
45 1 6.66965 9.56867 2.78827 
28 1 5.66933 7.70049 13.5035 
29 1 4.66344 8.71966 13.5036 
30 1 3.79572 9.5865 13.4916 
34 1 0.891857 12.4764 13.4479 
35 1 1.9079 11.4673 13.4574 
36 1 2.77621 10.601 13.4719 
52 1 5.72399 13.4077 7.73482 
53 1 4.71991 13.4371 8.71487 