LAMMPS (3 Mar 2020)
Reading data file ...
  orthogonal box = (0 0 0) to (13.6 13.6 13.6)
  2 by 2 by 2 MPI processor grid
  reading atoms ...
  74 atoms
  read_data CPU = 0.259998 secs
WARNING: Using 'neigh_modify every 1 delay 0 check yes' setting during minimization (../min.cpp:190)
WARNING: Total cutoff < 2*bond cutoff. May need to use an increased neighbor list skin. (../pair_reaxc.cpp:413)
Neighbor list info ...
  update every 1 steps, delay 0 steps, check yes
  max neighbors/atom: 2000, page size: 100000
  master list distance cutoff = 9.5
  ghost atom cutoff = 9.5
  binsize = 4.75, bins = 3 3 3
  2 neighbor lists, perpetual/occasional/extra = 2 0 0
  (1) pair reax/c, perpetual
      attributes: half, newton off, ghost
      pair build: half/bin/newtoff/ghost
      stencil: half/ghost/bin/3d/newtoff
      bin: standard
  (2) fix qeq/reax, perpetual, copy from (1)
      attributes: half, newton off, ghost
      pair build: copy
      stencil: none
      bin: none
Setting up cg style minimization ...
  Unit style    : real
  Current step  : 0
Per MPI rank memory allocation (min/avg/max) = 15.94 | 16.9 | 17.22 Mbytes
Step Temp E_pair E_mol TotEng Press 
       0            0   -13538.011            0   -13538.011    9140.2804 
     150            0   -13595.808            0   -13595.808   -1410.4261 
Loop time of 2.83228 on 8 procs for 150 steps with 74 atoms

99.6% CPU use with 8 MPI tasks x no OpenMP threads

Minimization stats:
  Stopping criterion = energy tolerance
  Energy initial, next-to-last, final = 
         -13538.010745     -13595.8077269     -13595.8078055
  Force two-norm initial, final = 379.63 21.722
  Force max component initial, final = 135.397 6.56555
  Final line search alpha, max atom move = 0.00770757 0.0506044
  Iterations, force evaluations = 150 870

MPI task timing breakdown:
Section |  min time  |  avg time  |  max time  |%varavg| %total
---------------------------------------------------------------
Pair    | 1.3866     | 1.512      | 1.5648     |   5.8 | 53.38
Neigh   | 0.00050273 | 0.00051297 | 0.0005208  |   0.0 |  0.02
Comm    | 0.038306   | 0.091293   | 0.21743    |  23.7 |  3.22
Output  | 0.00029853 | 0.00037328 | 0.00048592 |   0.0 |  0.01
Modify  | 1.2199     | 1.2204     | 1.2209     |   0.0 | 43.09
Other   |            | 0.007696   |            |       |  0.27

Nlocal:    9.25 ave 14 max 0 min
Histogram: 2 0 0 0 0 0 0 1 4 1
Nghost:    501.75 ave 504 max 499 min
Histogram: 1 0 2 0 1 0 1 0 0 3
Neighs:    846.5 ave 1283 max 0 min
Histogram: 2 0 0 0 0 0 0 1 4 1

Total # of neighbors = 6772
Ave neighs/atom = 91.5135
Neighbor list builds = 1
Dangerous builds = 0
WARNING: Using 'neigh_modify every 1 delay 0 check yes' setting during minimization (../min.cpp:190)
WARNING: Total cutoff < 2*bond cutoff. May need to use an increased neighbor list skin. (../pair_reaxc.cpp:413)
Setting up cg style minimization ...
  Unit style    : real
  Current step  : 150
Per MPI rank memory allocation (min/avg/max) = 15.94 | 16.9 | 17.22 Mbytes
Step Temp E_pair E_mol TotEng Press 
     150            0   -13595.808            0   -13595.808   -1410.4261 
     167            0   -13595.894            0   -13595.894   -1081.1988 
Loop time of 0.47662 on 8 procs for 17 steps with 74 atoms

99.6% CPU use with 8 MPI tasks x no OpenMP threads

Minimization stats:
  Stopping criterion = energy tolerance
  Energy initial, next-to-last, final = 
        -13595.8078055     -13595.8939933     -13595.8940035
  Force two-norm initial, final = 21.722 22.296
  Force max component initial, final = 6.56555 7.30196
  Final line search alpha, max atom move = 0.000106997 0.000781287
  Iterations, force evaluations = 17 150

MPI task timing breakdown:
Section |  min time  |  avg time  |  max time  |%varavg| %total
---------------------------------------------------------------
Pair    | 0.24194    | 0.26302    | 0.27474    |   2.4 | 55.18
Neigh   | 0          | 0          | 0          |   0.0 |  0.00
Comm    | 0.0048051  | 0.01653    | 0.037698   |   9.5 |  3.47
Output  | 2.0088e-05 | 2.5883e-05 | 3.9504e-05 |   0.0 |  0.01
Modify  | 0.19573    | 0.19581    | 0.19589    |   0.0 | 41.08
Other   |            | 0.001239   |            |       |  0.26

Nlocal:    9.25 ave 14 max 0 min
Histogram: 2 0 0 0 0 0 0 1 4 1
Nghost:    501.75 ave 504 max 499 min
Histogram: 1 0 2 0 1 0 1 0 0 3
Neighs:    846.75 ave 1282 max 0 min
Histogram: 2 0 0 0 0 0 0 1 4 1

Total # of neighbors = 6774
Ave neighs/atom = 91.5405
Neighbor list builds = 0
Dangerous builds = 0
WARNING: Using 'neigh_modify every 1 delay 0 check yes' setting during minimization (../min.cpp:190)
WARNING: Total cutoff < 2*bond cutoff. May need to use an increased neighbor list skin. (../pair_reaxc.cpp:413)
Setting up cg style minimization ...
  Unit style    : real
  Current step  : 167
WARNING: Energy due to 3 extra global DOFs will be included in minimizer energies
Per MPI rank memory allocation (min/avg/max) = 15.94 | 16.9 | 17.22 Mbytes
Step Temp E_pair E_mol TotEng Press Volume 
     167            0   -13595.894            0   -13595.894   -1081.1988     2515.456 
     216            0   -13596.084            0   -13596.084   -169.39145    2514.6082 
Loop time of 0.187858 on 8 procs for 49 steps with 74 atoms

99.6% CPU use with 8 MPI tasks x no OpenMP threads

Minimization stats:
  Stopping criterion = energy tolerance
  Energy initial, next-to-last, final = 
        -13595.8940035     -13596.0835315     -13596.0835794
  Force two-norm initial, final = 97.7116 20.2701
  Force max component initial, final = 91.2329 10.9877
  Final line search alpha, max atom move = 9.90549e-06 0.000108839
  Iterations, force evaluations = 49 74

MPI task timing breakdown:
Section |  min time  |  avg time  |  max time  |%varavg| %total
---------------------------------------------------------------
Pair    | 0.12137    | 0.13179    | 0.13758    |   1.7 | 70.15
Neigh   | 0          | 0          | 0          |   0.0 |  0.00
Comm    | 0.0022117  | 0.0080112  | 0.018426   |   6.8 |  4.26
Output  | 9.4547e-05 | 0.00011674 | 0.00014557 |   0.0 |  0.06
Modify  | 0.046285   | 0.046306   | 0.046331   |   0.0 | 24.65
Other   |            | 0.001638   |            |       |  0.87

Nlocal:    9.25 ave 14 max 0 min
Histogram: 2 0 0 0 0 0 0 1 4 1
Nghost:    501.75 ave 504 max 499 min
Histogram: 1 0 2 0 1 0 1 0 0 3
Neighs:    846.5 ave 1282 max 0 min
Histogram: 2 0 0 0 0 0 0 1 4 1

Total # of neighbors = 6772
Ave neighs/atom = 91.5135
Neighbor list builds = 0
Dangerous builds = 0
WARNING: Using 'neigh_modify every 1 delay 0 check yes' setting during minimization (../min.cpp:190)
WARNING: Total cutoff < 2*bond cutoff. May need to use an increased neighbor list skin. (../pair_reaxc.cpp:413)
Setting up cg style minimization ...
  Unit style    : real
  Current step  : 216
Per MPI rank memory allocation (min/avg/max) = 15.94 | 16.9 | 17.22 Mbytes
Step Temp E_pair E_mol TotEng Press 
     216            0   -13596.084            0   -13596.084   -169.39145 
     277            0   -13596.382            0   -13596.382    1775.9495 
Loop time of 1.54568 on 8 procs for 61 steps with 74 atoms

99.6% CPU use with 8 MPI tasks x no OpenMP threads

Minimization stats:
  Stopping criterion = energy tolerance
  Energy initial, next-to-last, final = 
        -13596.0835794     -13596.3816829      -13596.381723
  Force two-norm initial, final = 15.3813 41.6678
  Force max component initial, final = 6.84628 18.3217
  Final line search alpha, max atom move = 0.00113935 0.0208749
  Iterations, force evaluations = 61 508

MPI task timing breakdown:
Section |  min time  |  avg time  |  max time  |%varavg| %total
---------------------------------------------------------------
Pair    | 0.82109    | 0.89403    | 0.93389    |   4.3 | 57.84
Neigh   | 0          | 0          | 0          |   0.0 |  0.00
Comm    | 0.01573    | 0.055544   | 0.1277     |  17.3 |  3.59
Output  | 0.0001222  | 0.00014778 | 0.00018531 |   0.0 |  0.01
Modify  | 0.59179    | 0.59209    | 0.59234    |   0.0 | 38.31
Other   |            | 0.003877   |            |       |  0.25

Nlocal:    9.25 ave 14 max 0 min
Histogram: 2 0 0 0 0 0 0 1 4 1
Nghost:    503.25 ave 508 max 500 min
Histogram: 2 1 0 1 0 2 0 1 0 1
Neighs:    847.5 ave 1282 max 0 min
Histogram: 2 0 0 0 0 0 0 1 4 1

Total # of neighbors = 6780
Ave neighs/atom = 91.6216
Neighbor list builds = 0
Dangerous builds = 0
WARNING: Using 'neigh_modify every 1 delay 0 check yes' setting during minimization (../min.cpp:190)
WARNING: Total cutoff < 2*bond cutoff. May need to use an increased neighbor list skin. (../pair_reaxc.cpp:413)
Setting up cg style minimization ...
  Unit style    : real
  Current step  : 277
WARNING: Energy due to 3 extra global DOFs will be included in minimizer energies
Per MPI rank memory allocation (min/avg/max) = 15.94 | 16.9 | 17.22 Mbytes
Step Temp E_pair E_mol TotEng Press Volume 
     277            0   -13596.382            0   -13596.382    1775.9495    2514.6082 
     325            0   -13596.501            0   -13596.501    149.63215    2515.2219 
Loop time of 0.218694 on 8 procs for 48 steps with 74 atoms

99.5% CPU use with 8 MPI tasks x no OpenMP threads

Minimization stats:
  Stopping criterion = energy tolerance
  Energy initial, next-to-last, final = 
         -13596.381723     -13596.5005232     -13596.5005934
  Force two-norm initial, final = 120.933 11.3794
  Force max component initial, final = 75.5328 6.0104
  Final line search alpha, max atom move = 3.15984e-05 0.000189919
  Iterations, force evaluations = 48 84

MPI task timing breakdown:
Section |  min time  |  avg time  |  max time  |%varavg| %total
---------------------------------------------------------------
Pair    | 0.13341    | 0.14518    | 0.15129    |   1.8 | 66.38
Neigh   | 0          | 0          | 0          |   0.0 |  0.00
Comm    | 0.003758   | 0.0098691  | 0.021697   |   6.7 |  4.51
Output  | 0.00010354 | 0.00012617 | 0.00015709 |   0.0 |  0.06
Modify  | 0.061525   | 0.061573   | 0.061626   |   0.0 | 28.15
Other   |            | 0.001949   |            |       |  0.89

Nlocal:    9.25 ave 14 max 0 min
Histogram: 2 0 0 0 0 0 0 1 4 1
Nghost:    501.75 ave 504 max 499 min
Histogram: 1 0 2 0 1 0 1 0 0 3
Neighs:    848 ave 1280 max 0 min
Histogram: 2 0 0 0 0 0 0 1 4 1

Total # of neighbors = 6784
Ave neighs/atom = 91.6757
Neighbor list builds = 0
Dangerous builds = 0
WARNING: Using 'neigh_modify every 1 delay 0 check yes' setting during minimization (../min.cpp:190)
WARNING: Total cutoff < 2*bond cutoff. May need to use an increased neighbor list skin. (../pair_reaxc.cpp:413)
Setting up cg style minimization ...
  Unit style    : real
  Current step  : 325
Per MPI rank memory allocation (min/avg/max) = 15.94 | 16.9 | 17.22 Mbytes
Step Temp E_pair E_mol TotEng Press 
     325            0   -13596.501            0   -13596.501    149.63215 
     428            0   -13597.321            0   -13597.321    -531.2013 
Loop time of 3.04292 on 8 procs for 103 steps with 74 atoms

99.6% CPU use with 8 MPI tasks x no OpenMP threads

Minimization stats:
  Stopping criterion = energy tolerance
  Energy initial, next-to-last, final = 
        -13596.5005934     -13597.3210343     -13597.3211246
  Force two-norm initial, final = 6.21364 3.19456
  Force max component initial, final = 1.58672 0.811823
  Final line search alpha, max atom move = 5.64986e-05 4.58669e-05
  Iterations, force evaluations = 103 988

MPI task timing breakdown:
Section |  min time  |  avg time  |  max time  |%varavg| %total
---------------------------------------------------------------
Pair    | 1.5636     | 1.7015     | 1.7764     |   6.1 | 55.92
Neigh   | 0          | 0          | 0          |   0.0 |  0.00
Comm    | 0.035846   | 0.11085    | 0.24947    |  23.8 |  3.64
Output  | 0.00021632 | 0.00026899 | 0.00034501 |   0.0 |  0.01
Modify  | 1.2214     | 1.2219     | 1.2225     |   0.0 | 40.16
Other   |            | 0.008395   |            |       |  0.28

Nlocal:    9.25 ave 14 max 0 min
Histogram: 2 0 0 0 0 0 0 1 4 1
Nghost:    501.75 ave 504 max 499 min
Histogram: 1 0 2 0 1 0 1 0 0 3
Neighs:    848.25 ave 1282 max 0 min
Histogram: 2 0 0 0 0 0 0 1 4 1

Total # of neighbors = 6786
Ave neighs/atom = 91.7027
Neighbor list builds = 0
Dangerous builds = 0
WARNING: Total cutoff < 2*bond cutoff. May need to use an increased neighbor list skin. (../pair_reaxc.cpp:413)
Setting up Verlet run ...
  Unit style    : real
  Current step  : 0
  Time step     : 0.25
Per MPI rank memory allocation (min/avg/max) = 14.82 | 15.9 | 16.1 Mbytes
Step Temp TotEng KinEng PotEng Press 
       0          300   -13532.041     65.27974   -13597.321    655.20915 
     200    162.12201   -13507.279    35.277608   -13542.557    8926.3625 
     400    334.98029   -13467.157     72.89142   -13540.049   -6381.8045 
     600    321.33292   -13453.105    69.921766   -13523.027    1085.3124 
     800    314.67969   -13460.515    68.474027   -13528.989    1272.8317 
    1000    252.90616   -13472.793    55.032161   -13527.825    -14652.96 
    1200     332.7674   -13453.569    72.409898   -13525.978   -2908.1588 
    1400    289.55876   -13469.182    63.007736   -13532.189    19678.731 
    1600     322.9287   -13466.919    70.269005   -13537.188    1533.0145 
    1800    284.46789   -13470.978    61.899966   -13532.878    820.46972 
    2000    310.79629   -13449.287    67.629004   -13516.916   -5532.7194 
    2200    278.23032   -13463.274    60.542676   -13523.816   -1744.3901 
    2400    269.76578   -13461.835      58.7008   -13520.536    12635.025 
    2600    328.33747    -13438.88    71.445949   -13510.326   -1766.6742 
    2800    281.73485   -13461.707     61.30526   -13523.013   -24828.019 
    3000    283.72661   -13471.729    61.738665   -13533.467    16935.582 
    3200    279.55719   -13452.809    60.831402    -13513.64   -14436.002 
    3400    285.13181   -13459.944    62.044435   -13521.989    9171.2372 
    3600      307.961   -13463.454    67.012047   -13530.466    1065.6763 
    3800    300.22782   -13444.397    65.329314   -13509.726   -6218.1602 
    4000    352.79468   -13456.931    76.767816   -13533.699   -13398.949 
    4200     279.4323   -13469.228    60.804226   -13530.032   -871.48407 
    4400    347.01038   -13455.165    75.509157   -13530.674    11680.301 
    4600    338.15683   -13453.182    73.582633   -13526.765    22167.232 
    4800    314.40482   -13463.039    68.414217   -13531.453    6244.6653 
    5000    292.62961   -13465.244     63.67595    -13528.92   -8545.2235 
    5200    339.96375   -13448.413    73.975817   -13522.389    9830.3216 
    5400    310.53881   -13467.633    67.572975   -13535.206   -4432.5114 
    5600    302.07168   -13467.513    65.730535   -13533.243    16962.573 
    5800    325.91492   -13451.059    70.918805   -13521.977    8798.2282 
    6000    328.56124   -13459.864    71.494642   -13531.358    1004.7798 
    6200    268.25618   -13464.989    58.372312   -13523.362    2790.7299 
    6400    283.84857   -13449.387    61.765202   -13511.153     -15622.2 
    6600    283.13335   -13468.848    61.609571   -13530.458    16645.041 
    6800    331.29242   -13462.523    72.088943   -13534.612    2922.3963 
    7000    348.73489   -13437.093    75.884409   -13512.978   -3727.2323 
    7200    306.37934   -13464.016    66.667879   -13530.684    4545.5865 
    7400    292.72433   -13473.135    63.696561   -13536.831    17276.124 
    7600    351.82708   -13452.144    76.557268   -13528.701   -3647.7356 
    7800    280.60577   -13458.025    61.059573   -13519.085     3216.183 
    8000    247.92918   -13480.294    53.949175   -13534.243    15760.169 
    8200    264.46142   -13467.637    57.546577   -13525.183     4710.032 
    8400    298.68419   -13460.849     64.99342   -13525.843    2551.5103 
    8600    268.51934   -13479.092    58.429575   -13537.522   -4944.0675 
    8800     314.2278   -13460.387    68.375696   -13528.762   -558.38703 
    9000      299.213   -13458.737     65.10849   -13523.845    14237.447 
    9200    317.85608   -13463.922    69.165208   -13533.087    4249.6347 
    9400    251.88982   -13470.785    54.811006   -13525.596   -5574.2956 
    9600    345.30441   -13453.322     75.13794    -13528.46   -4834.8643 
    9800    278.36048   -13468.321    60.570998   -13528.892        11053 
   10000    306.79403    -13468.26    66.758115   -13535.018   -4081.6834 
   10200    280.74328   -13456.947    61.089495   -13518.037    3145.7007 
   10400      298.992   -13440.375    65.060401   -13505.436    14580.994 
   10600    352.95106   -13462.549    76.801846   -13539.351   -7242.2804 
   10800    302.07404   -13460.027     65.73105   -13525.758   -9779.2476 
   11000    314.74087   -13457.445    68.487341   -13525.932   -1996.4157 
   11200     266.2043   -13477.218    57.925825   -13535.144   -5576.0394 
   11400    308.34788   -13457.463    67.096232    -13524.56   -7698.4985 
   11600    315.77417   -13458.191    68.712185   -13526.903    5224.8794 
   11800    285.11894   -13471.831    62.041635   -13533.873    14319.942 
   12000    279.07646   -13469.285    60.726795   -13530.012   -7412.6917 
   12200    323.53192   -13451.845    70.400265   -13522.245    355.99153 
   12400    282.70361   -13471.595    61.516061   -13533.111   -8632.5094 
   12600    287.24889   -13470.873    62.505109   -13533.378   -12359.312 
   12800    269.45309   -13464.782    58.632758   -13523.415    15322.522 
   13000    263.76163   -13463.597    57.394303   -13520.991    18996.637 
   13200    278.74502   -13477.308    60.654675   -13537.962   -7856.2314 
   13400    294.02041   -13456.384    63.978586   -13520.362    8914.9259 
   13600    287.43615   -13464.444    62.545858    -13526.99    14114.424 
   13800    243.83852   -13484.046    53.059051   -13537.105    1938.3011 
   14000    259.06902   -13475.269    56.373195   -13531.642   -2189.6894 
   14200    290.74737   -13462.206    63.266376   -13525.473   -7638.4303 
   14400    335.12539   -13451.755    72.922995   -13524.678    2027.6282 
   14600     250.7167    -13465.28    54.555737   -13519.836   -9317.2737 
   14800     296.2396   -13466.892    64.461481   -13531.354   -19244.411 
   15000     352.4223   -13450.663    76.686787    -13527.35    1505.8567 
   15200    249.18341   -13466.113    54.222093   -13520.335    1499.5023 
   15400    298.52405     -13462.9    64.958574   -13527.858    16076.529 
   15600    292.01641    -13451.13    63.542518   -13514.672   -10627.045 
   15800    318.42387   -13467.094    69.288758   -13536.382    748.66808 
   16000    298.18851   -13457.094    64.885561    -13521.98   -16779.779 
   16200    353.58432   -13437.338    76.939642   -13514.277   -4795.4836 
   16400     326.3083   -13462.077    71.004403   -13533.081   -3653.3579 
   16600     256.6602   -13470.609    55.849038   -13526.458   -3951.2725 
   16800    348.85318   -13447.594    75.910149   -13523.504    14224.398 
   17000    306.06904   -13459.825    66.600358   -13526.426    7904.2662 
   17200    294.32761   -13465.787    64.045433   -13529.832     14020.34 
   17400     304.9328   -13455.317    66.353113    -13521.67    11084.359 
   17600    318.19796   -13449.163    69.239601   -13518.402    4681.9643 
   17800    286.85615   -13470.054     62.41965   -13532.473    675.61026 
   18000    287.82384   -13457.636    62.630219   -13520.267   -9207.7159 
   18200    324.63284   -13449.786    70.639824   -13520.426    7588.6442 
   18400    287.20895   -13472.816    62.496419   -13535.312   -9135.1192 
   18600    287.13667   -13455.915    62.480691   -13518.395   -13026.822 
   18800    307.67248   -13453.328    66.949266   -13520.277   -1056.3259 
   19000      290.895   -13465.771    63.298499   -13529.069   -8997.1094 
   19200    333.33994   -13463.281    72.534483   -13535.816    2184.6622 
   19400    340.71289   -13449.404     74.13883   -13523.543    5262.8782 
   19600    297.37737   -13466.905    64.709058   -13531.614   -15778.483 
   19800    320.07782   -13460.473    69.648655   -13530.122   -3744.5866 
   20000    335.09728   -13442.174    72.916878   -13515.091   -5319.1128 
   20200    281.10329   -13462.767    61.167833   -13523.934    84.801088 
   20400    294.70091   -13466.769    64.126663   -13530.896   -5870.8415 
   20600    342.22087   -13448.471    74.466965   -13522.938     8971.263 
   20800    314.05583   -13459.735    68.338277   -13528.074    2516.2988 
   21000    290.12197   -13467.737    63.130289   -13530.867    6453.3624 
   21200    350.67872   -13446.701    76.307385   -13523.008    2429.2701 
   21400    284.18851   -13459.507    61.839174   -13521.346    19893.804 
   21600    259.42283   -13466.565    56.450182   -13523.016    10599.214 
   21800    302.06955   -13458.113    65.730072   -13523.843   -1043.8993 
   22000    313.50454   -13452.855    68.218316   -13521.073   -22457.907 
   22200    304.32809   -13470.037    66.221528   -13536.259   -6729.1205 
   22400     344.1202   -13451.255    74.880258   -13526.135    12085.545 
   22600    343.39046   -13451.831    74.721466   -13526.553    -5517.669 
   22800    310.02307   -13461.024    67.460752   -13528.485    20832.648 
   23000      255.209    -13468.95    55.533258   -13524.483    15859.493 
   23200    327.93647   -13459.752    71.358692   -13531.111    1771.7635 
   23400    296.83723   -13459.271    64.591523   -13523.863   -14625.019 
   23600    256.02971   -13476.276    55.711843   -13531.988   -455.14879 
   23800     308.5268   -13459.095    67.135163    -13526.23   -13473.949 
   24000     318.7918   -13456.591    69.368819    -13525.96    -8189.062 
   24200    305.78272   -13476.358    66.538056   -13542.896   -2836.1507 
   24400    299.11757   -13467.847    65.087725   -13532.935   -15184.324 
   24600     303.7385    -13461.84    66.093235   -13527.933     5996.619 
   24800    348.53349   -13445.085    75.840587   -13520.926    7670.2803 
   25000    291.31211   -13466.815    63.389263   -13530.205    4806.7214 
   25200     350.4572   -13455.463    76.259182   -13531.722    18903.952 
   25400    296.80277   -13457.628    64.584025   -13522.212    -5393.985 
   25600    288.39648   -13462.323    62.754825   -13525.078    117.15006 
   25800    263.18571   -13475.142    57.268983   -13532.411   -29480.116 
   26000    307.02351   -13471.137    66.808049   -13537.945   -8116.2972 
   26200    299.02714   -13458.421    65.068048   -13523.489    18481.314 
   26400     304.2219    -13467.18    66.198423   -13533.379   -7248.7164 
   26600    260.57806   -13473.436    56.701561   -13530.137    -12552.26 
   26800    287.53178   -13458.918    62.566666   -13521.485    23729.984 
   27000    312.50886   -13460.017    68.001658   -13528.019    16149.207 
   27200    268.50613    -13477.96    58.426702   -13536.387   -5692.7298 
   27400    292.33359   -13455.191    63.611537   -13518.802   -8311.5573 
   27600    319.85701    -13460.59    69.600608   -13530.191    23220.291 
   27800    244.91058   -13478.231    53.292331   -13531.523   -13570.126 
   28000     294.3564   -13452.493    64.051697   -13516.545    153.42731 
   28200    284.14125   -13461.288     61.82889   -13523.117    514.35706 
   28400     261.3847   -13473.413    56.877085    -13530.29      1953.24 
   28600    301.26421   -13461.972    65.554831   -13527.527   -14029.958 
   28800    327.00281   -13452.299    71.155529   -13523.455    13294.474 
   29000    269.98538   -13472.359    58.748585   -13531.108    6625.8899 
   29200     279.0812   -13462.595    60.727828   -13523.323   -11519.653 
   29400    339.39315   -13450.115    73.851655   -13523.967   -9518.1282 
   29600    276.23884    -13462.24    60.109332   -13522.349    23429.416 
   29800    307.85268   -13472.045    66.988477   -13539.033   -24229.422 
   30000    355.72446   -13451.952    77.405335   -13529.357     2998.516 
   30200    289.90245   -13468.686    63.082522   -13531.768    5419.5248 
   30400    270.89124   -13476.746    58.945698   -13535.691   -3774.5158 
   30600     331.7842   -13454.267    72.195954   -13526.463   -12727.148 
   30800    346.26944   -13458.942    75.347929    -13534.29    8254.6043 
   31000    269.25272   -13470.279    58.589158   -13528.869    547.41151 
   31200    294.65686   -13461.515    64.117077   -13525.632   -9733.3048 
   31400    317.22761   -13448.647    69.028453   -13517.676    17463.843 
   31600    345.60203   -13463.625    75.202703   -13538.828    4596.2747 
   31800    253.19001   -13474.042    55.093926   -13529.136    2090.7226 
   32000    317.80016     -13453.1    69.153039   -13522.253    1355.5218 
   32200    265.85279   -13461.873    57.849337   -13519.723   -8524.8898 
   32400    272.66214   -13478.284    59.331045   -13537.615   -821.75077 
   32600    283.02712   -13465.907    61.586456   -13527.493    9506.7262 
   32800    303.78729   -13464.074    66.103852   -13530.178   -4268.4514 
   33000    306.03938   -13475.342    66.593905   -13541.936    2224.2845 
   33200    308.20787   -13467.665    67.065765   -13534.731    8007.5951 
   33400    296.05696   -13457.802    64.421737   -13522.224   -8072.6516 
   33600    297.82408   -13463.508    64.806262   -13528.315    1266.0779 
   33800    281.19888   -13473.231    61.188633    -13534.42    1226.0939 
   34000    347.00659   -13457.101    75.508333   -13532.609   -15983.148 
   34200    248.97684   -13465.365    54.177144   -13519.542    21477.162 
   34400    299.23284   -13467.212    65.112806   -13532.325    9972.6115 
   34600    328.74522   -13461.748    71.534675   -13533.282    15307.678 
   34800    311.46812   -13447.431    67.775194   -13515.206   -4935.4614 
   35000    307.26607       -13460     66.86083   -13526.861   -5692.2526 
   35200    304.19924   -13465.473    66.193492   -13531.667   -10821.074 
   35400    310.46335   -13459.894    67.556557    -13527.45   -5126.0065 
   35600    255.35487   -13464.062    55.564997   -13519.627    9204.6911 
   35800    244.23005   -13476.694    53.144247   -13529.838    2829.6931 
   36000    297.76205   -13454.545    64.792765   -13519.337   -3416.1222 
   36200    294.95902   -13463.083    64.182827   -13527.266    6094.0717 
   36400    265.53029   -13470.909    57.779161   -13528.688   -4125.9277 
   36600    321.11516   -13446.817    69.874382   -13516.691    10530.574 
   36800    318.22582   -13465.074    69.245663   -13534.319   -12694.752 
   37000    278.61846   -13468.291    60.627136   -13528.919   -12007.236 
   37200    322.90582   -13454.033    70.264026   -13524.297   -17124.529 
   37400    292.08823   -13459.866    63.558146   -13523.424    2599.5014 
   37600    284.39602   -13463.456    61.884328   -13525.341    26732.142 
   37800    368.41477   -13445.115    80.166735   -13525.282   -11755.906 
   38000     312.1414   -13450.148    67.921698   -13518.069    13058.913 
   38200    287.08174   -13465.324    62.468738   -13527.793    20650.345 
   38400    239.72769   -13473.557    52.164538   -13525.721   -9554.6118 
   38600    328.64925   -13455.113    71.513793   -13526.627   -8216.7066 
   38800    303.41308   -13459.969    66.022423   -13525.991   -12222.223 
   39000    257.55981   -13477.876    56.044791   -13533.921   -112.60033 
   39200     291.7695   -13465.471     63.48879    -13528.96      6530.54 
   39400     302.0126   -13461.881    65.717679   -13527.598   -27013.075 
   39600      290.592   -13476.922    63.232567   -13540.155    15058.234 
   39800    253.51109   -13472.605    55.163793   -13527.768    340.87821 
   40000    336.93794   -13453.873    73.317403   -13527.191    -2614.592 
   40200    262.09716   -13469.602    57.032115   -13526.634    -5690.817 
   40400    276.60958   -13472.688    60.190006   -13532.878   -18713.673 
   40600    291.20562   -13461.779     63.36609   -13525.145    16567.216 
   40800    323.51747   -13458.282    70.397121   -13528.679     12661.12 
   41000    290.69838   -13475.902    63.255716   -13539.158    27400.705 
   41200    328.92936   -13456.354    71.574744   -13527.928      14747.7 
   41400    337.82646   -13457.175    73.510745   -13530.686    12140.469 
   41600    250.48072   -13477.746    54.504388    -13532.25    11580.126 
   41800    310.56476   -13459.872    67.578624   -13527.451    27833.825 
   42000    298.83967   -13456.822    65.027253   -13521.849   -4701.0384 
   42200    301.42577    -13473.62    65.589986    -13539.21    12439.493 
   42400    322.18458   -13458.694    70.107085   -13528.802    11053.749 
   42600    316.79471   -13455.732    68.934254   -13524.666     15562.82 
   42800    306.66961   -13467.471    66.731042   -13534.202   -5372.2824 
   43000    272.22791   -13464.483    59.236557    -13523.72   -20239.105 
   43200    333.82909   -13456.222     72.64092   -13528.863   -3901.6727 
   43400    282.88608   -13455.059    61.555765   -13516.615   -6181.3124 
   43600    283.95085    -13473.55    61.787459   -13535.337     7700.922 
   43800    341.32213   -13458.338    74.271399   -13532.609    8006.3302 
   44000    320.10382   -13453.986    69.654314    -13523.64    -7566.681 
   44200    282.37271   -13472.809    61.444058   -13534.253    12622.041 
   44400    319.34965   -13458.784    69.490207   -13528.274   -2559.5826 
   44600    310.74751   -13456.516    67.618388   -13524.134    2228.4734 
   44800    264.19017   -13466.323    57.487553   -13523.811   -2365.5556 
   45000    331.91398    -13461.97    72.224195   -13534.194   -1324.1618 
   45200    250.34277   -13478.672    54.474369   -13533.147   -5599.3625 
   45400    335.54327   -13460.683    73.013924   -13533.697   -13009.682 
   45600    267.64791   -13460.891    58.239954   -13519.131   -9471.2203 
   45800    351.80929   -13454.125    76.553398   -13530.679    2793.3131 
   46000    264.52556   -13461.315    57.560533   -13518.876   -11486.747 
   46200    268.23908   -13477.797    58.368592   -13536.166    21642.667 
   46400    320.89599   -13473.088    69.826689   -13542.915   -2734.8152 
   46600    291.53415   -13458.427    63.437579   -13521.864    18008.231 
   46800    274.00507   -13472.088    59.623266   -13531.712   -7699.4004 
   47000    299.21159    -13462.76    65.108182   -13527.868     717.3637 
   47200    278.17743   -13458.934    60.531167   -13519.465   -13588.315 
   47400    282.44875    -13458.31    61.460604   -13519.771   -12782.752 
   47600    264.85089   -13476.304    57.631325   -13533.936    10870.257 
   47800    313.22628   -13458.625    68.157766   -13526.783    6780.9552 
   48000    275.85405   -13467.567    60.025603   -13527.592   -1006.8401 
   48200    288.93606   -13455.638    62.872236    -13518.51    17971.292 
   48400    309.45584   -13457.913    67.337322    -13525.25    3132.9659 
   48600    286.35818   -13466.682    62.311293   -13528.993    615.91628 
   48800    298.63928   -13457.602    64.983648   -13522.586    -8291.654 
   49000    343.39237   -13450.203    74.721882   -13524.925    2116.7294 
   49200    280.19259   -13469.785    60.969666   -13530.755   -3407.1304 
   49400    362.14108   -13456.339    78.801585    -13535.14   -4655.1554 
   49600     268.9957   -13465.086    58.533231   -13523.619   -6023.3414 
   49800    308.19656   -13468.928    67.063305   -13535.991   -5325.4565 
   50000    347.31466   -13450.191     75.57537   -13525.767    11413.946 
   50200     358.6664   -13457.206    78.045497   -13535.252    -14757.73 
   50400     268.7581    -13473.44     58.48153   -13531.922    -3278.543 
   50600    337.24681   -13452.847    73.384613   -13526.232    7232.0559 
   50800    309.39028   -13459.779    67.323056   -13527.102    9745.8763 
   51000    303.07395   -13467.634    65.948629   -13533.582    3674.2759 
   51200    245.91911   -13482.357    53.511786   -13535.868     15632.65 
   51400    309.56545    -13461.13    67.361175   -13528.491    1737.2364 
   51600      339.733   -13462.729    73.925606   -13536.655    22686.395 
   51800    275.14816   -13479.037    59.872001   -13538.909     4963.659 
   52000    314.13866    -13456.18    68.356299   -13524.536    11989.238 
   52200    310.33212   -13461.566       67.528   -13529.094    2045.3202 
   52400    289.12728   -13477.444    62.913845   -13540.358   -4840.5657 
   52600    296.39324   -13455.767    64.494912   -13520.262    17884.051 
   52800     287.5539   -13463.678    62.571479    -13526.25    8629.1963 
   53000    302.51857   -13471.879    65.827779   -13537.707     18721.19 
   53200    328.37721   -13446.188    71.454597   -13517.643    6373.5329 
   53400    310.10441   -13461.985    67.478452   -13529.463    17029.709 
   53600    288.31511   -13469.692    62.737119    -13532.43    102.45815 
   53800    308.39434   -13460.016    67.106342   -13527.122   -16855.236 
   54000    299.10114   -13464.603    65.084148   -13529.687   -11503.276 
   54200    272.04061   -13467.637    59.195801   -13526.833    14296.094 
   54400    292.92896   -13466.309    63.741088    -13530.05   -4554.5723 
   54600    312.60758   -13457.836    68.023138   -13525.859   -7611.2252 
   54800    281.77831   -13456.631    61.314716   -13517.946   -3538.0161 
   55000    273.74443   -13474.961     59.56655   -13534.527    5119.2607 
   55200    308.05388   -13465.464    67.032258   -13532.496   -7820.9093 
   55400    309.07222   -13462.722    67.253847   -13529.976   -6543.2408 
   55600    273.08829   -13467.605    59.423776   -13527.029    4610.5836 
   55800    323.95255   -13466.558    70.491794   -13537.049   -3954.3268 
   56000    326.70445   -13455.478    71.090606   -13526.569    29236.788 
   56200    300.02231   -13461.225    65.284594    -13526.51     16420.13 
   56400    342.02767   -13464.039    74.424924   -13538.464     4427.736 
   56600    246.33568    -13479.62     53.60243   -13533.223   -17467.015 
   56800    313.68108   -13463.607    68.256732   -13531.863   -1041.4736 
   57000     384.0774   -13447.828    83.574908   -13531.403    204.18101 
   57200    310.43007   -13453.306    67.549315   -13520.855     10387.35 
   57400    269.30013   -13464.616    58.599474   -13523.215   -21889.199 
   57600    322.75324   -13464.464    70.230826   -13534.695   -2207.2436 
   57800      280.447   -13466.031    61.025025   -13527.056   -11969.769 
   58000    344.22709   -13454.041    74.903516   -13528.945    15751.739 
   58200    304.08045   -13466.117    66.167643   -13532.285    19342.256 
   58400    238.71649   -13489.028      51.9445   -13540.973    2663.1504 
   58600    305.63125   -13472.264    66.505096   -13538.769    4133.3672 
   58800    294.33347   -13458.027    64.046708   -13522.074   -5816.8727 
   59000    344.03266   -13447.381    74.861209   -13522.242    -1514.846 
   59200    257.65062   -13472.073    56.064551   -13528.138     -11297.6 
   59400    282.19187   -13457.751    61.404706   -13519.156   -2953.5767 
   59600    279.92828   -13462.329     60.91215   -13523.241    7667.2519 
   59800    285.14869   -13477.786    62.048107   -13539.834    -1238.528 
   60000    280.67126   -13477.537    61.073823   -13538.611    11743.638 
   60200    294.57795   -13458.149    64.099906   -13522.249    11032.235 
   60400    330.26662   -13457.871    71.865731   -13529.737    10567.794 
   60600    259.55724    -13474.28     56.47943    -13530.76    16299.414 
   60800    283.87944   -13463.793     61.77192   -13525.565   -2699.7156 
   61000    338.98443   -13459.507    73.762718    -13533.27    11299.048 
   61200    246.45519   -13478.503    53.628436   -13532.131    -23851.65 
   61400    327.08551   -13463.233    71.173524   -13534.407    10167.311 
   61600    282.03506   -13463.147    61.370585   -13524.517    6545.3823 
   61800    267.16038   -13472.148    58.133866   -13530.282   -11757.563 
   62000    328.70417   -13455.438    71.525743   -13526.964   -6387.8533 
   62200    270.53406   -13460.851    58.867977   -13519.719   -18966.408 
   62400    266.81387   -13478.636    58.058467   -13536.695    8503.0826 
   62600    268.16553   -13466.552    58.352588   -13524.904    12624.425 
   62800     297.8316   -13454.779    64.807898   -13519.587    2141.1563 
   63000    305.67796   -13468.545    66.515259    -13535.06     525.2279 
   63200    273.51944   -13468.126    59.517593   -13527.643   -5052.7474 
   63400    305.70821   -13454.052    66.521842   -13520.573    15116.169 
   63600    269.13401   -13476.266    58.563327   -13534.829   -1662.3149 
   63800    268.34915   -13467.257    58.392542   -13525.649   -4143.6236 
   64000    327.12394   -13457.447    71.181885   -13528.629    1437.2441 
   64200    248.70924   -13474.957    54.118914   -13529.076   -27788.432 
   64400    268.47858   -13484.703    58.420707   -13543.123    1316.7406 
   64600    290.42672   -13461.845    63.196603   -13525.042   -4122.8436 
   64800    318.68441   -13453.932    69.345452   -13523.278    4877.2186 
   65000    261.02709   -13472.669    56.799268   -13529.468   -2588.0826 
   65200    353.97937   -13460.403    77.025604   -13537.429    -11244.41 
   65400    337.32918   -13455.686    73.402538   -13529.089    2584.8258 
   65600     279.2419    -13470.06    60.762795   -13530.823   -5897.1451 
   65800    272.42622   -13466.598     59.27971   -13525.878   -401.92253 
   66000    309.78822   -13454.246    67.409649   -13521.656    11239.104 
   66200    307.99732   -13471.061     67.01995   -13538.081   -15466.064 
   66400    323.35629   -13451.651    70.362049   -13522.013    12517.457 
   66600    317.57946   -13454.995    69.105015     -13524.1    19795.475 
   66800     264.1702   -13471.763    57.483207   -13529.247   -14019.528 
   67000    285.69341    -13459.75    62.166639   -13521.917   -6491.0152 
   67200    323.60955   -13450.719    70.417157   -13521.136    2912.5668 
   67400    264.60632   -13468.492    57.578105    -13526.07    7726.7008 
   67600    350.56744   -13455.885    76.283171   -13532.168   -5011.8566 
   67800    293.26702    -13445.05     63.81465   -13508.865    -1789.275 
   68000    332.79041   -13466.395    72.414905    -13538.81   -8136.3864 
   68200    317.33201   -13456.882    69.051171   -13525.933    -11348.34 
   68400    315.83885   -13453.642    68.726259   -13522.368    7766.4893 
   68600    299.47467   -13471.536    65.165429   -13536.701   -5085.9134 
   68800    294.89264   -13452.477    64.168382   -13516.646    13841.046 
   69000    322.90535   -13459.684    70.263924   -13529.948   -18372.836 
   69200    278.13292   -13473.489    60.521482   -13534.011    6449.4741 
   69400    303.32993   -13461.233     66.00433   -13527.237     14130.24 
   69600    295.42027   -13452.786    64.283195    -13517.07    13370.361 
   69800    325.76547   -13461.428    70.886284   -13532.314   -13622.145 
   70000    296.51781   -13467.833    64.522018   -13532.355    2298.4625 
   70200     283.3917   -13465.351    61.665788   -13527.017   -21344.847 
   70400    284.25034   -13445.969    61.852628   -13507.822   -984.45514 
   70600    282.74731   -13462.863    61.525569   -13524.389   -18068.457 
   70800    296.11553   -13463.815    64.434484   -13528.249    35251.674 
   71000      284.185   -13453.402    61.838411   -13515.241    4465.0394 
   71200    299.90451   -13462.336    65.258962   -13527.595     14283.68 
   71400    300.51574   -13475.499    65.391965   -13540.891   -3289.0552 
   71600    325.02586   -13451.856    70.725346   -13522.582   -6531.6668 
   71800    295.69478   -13464.338    64.342927   -13528.681    -1011.893 
   72000    285.56809   -13465.552     62.13937   -13527.691   -3467.1748 
   72200    311.96627   -13448.844    67.883589   -13516.728    7846.7217 
   72400    272.06755   -13469.201    59.201663   -13528.402    5537.4656 
   72600    297.92581   -13464.019    64.828397   -13528.848     972.6576 
   72800    366.07653   -13445.205    79.657935   -13524.863    -2638.525 
   73000    286.77597   -13461.909    62.402202   -13524.311     9603.731 
   73200     328.6227   -13466.244    71.508015   -13537.752    4990.8068 
   73400    313.53224    -13460.52    68.224345   -13528.744    -8913.501 
   73600    322.92065   -13450.282    70.267254    -13520.55   -5075.3905 
   73800    278.39141   -13470.329     60.57773   -13530.907    29840.066 
   74000    255.62679   -13466.384    55.624169   -13522.008     16498.92 
   74200    314.90057   -13463.329    68.522091   -13531.851   -9014.6266 
   74400    293.38944   -13463.198    63.841288   -13527.039   -3788.5699 
   74600    279.91547     -13472.6    60.909363    -13533.51   -22670.339 
   74800    346.80557   -13455.485    75.464591    -13530.95   -12096.173 
   75000    313.20318   -13460.635    68.152742   -13528.788   -1130.1257 
   75200    251.56928   -13484.943    54.741257   -13539.684   -8009.1016 
   75400    311.20925   -13474.972    67.718863   -13542.691    29612.305 
   75600    288.95175   -13461.953    62.875651   -13524.829   -1525.6723 
   75800    342.52921   -13464.015     74.53406   -13538.549    -807.8338 
   76000    300.67593    -13447.85    65.426822   -13513.277    -18430.83 
   76200    297.63168    -13460.68    64.764397   -13525.444    9600.4583 
   76400    257.00806   -13468.454    55.924732   -13524.379   -2175.4233 
   76600    336.28504   -13453.634    73.175333    -13526.81    14560.875 
   76800    298.97196     -13453.7     65.05604   -13518.756   -9915.3682 
   77000    305.99502   -13466.349     66.58425   -13532.933   -2637.3822 
   77200    295.70219   -13467.358    64.344541   -13531.702   -10144.656 
   77400    271.21433   -13460.826    59.016004   -13519.842    6196.0035 
   77600     285.1899     -13449.3    62.057076   -13511.357    12863.439 
   77800    260.95175   -13472.573    56.782874   -13529.356   -7074.6825 
   78000    311.06007   -13466.731    67.686403   -13534.418   -1421.6522 
   78200     337.2388   -13455.929    73.382872   -13529.312   -10355.476 
   78400     323.3453   -13460.637    70.359658   -13530.997   -7683.4265 
   78600    256.88032   -13465.225    55.896934   -13521.122   -2559.4019 
   78800    314.76787   -13455.378    68.493216   -13523.871   -8454.5836 
   79000    262.36795   -13470.671    57.091039   -13527.762   -17834.252 
   79200    308.62925   -13447.231    67.157457   -13514.388   -7106.1902 
   79400    356.38239   -13451.793    77.548499   -13529.342    -1426.316 
   79600    255.83129   -13470.308    55.668668   -13525.977    22124.383 
   79800    327.75205   -13459.257    71.318562   -13530.576   -1347.2933 
   80000    300.06265   -13455.622    65.293373   -13520.916    28159.416 
   80200    249.88669   -13466.804    54.375128    -13521.18   -6912.9961 
   80400    315.54075    -13462.15    68.661394   -13530.811    5915.5939 
   80600    330.97015   -13450.611    72.018818    -13522.63    4337.4076 
   80800    293.44335   -13469.924     63.85302   -13533.777   -1870.6896 
   81000    282.78612   -13470.981    61.534015   -13532.515    8632.1102 
   81200    313.50102   -13469.505     68.21755   -13537.722     11115.36 
   81400    347.18749   -13455.299    75.547697   -13530.847   -6867.1279 
   81600    323.74103   -13448.502    70.445768   -13518.947    4512.2844 
   81800     265.4961    -13475.05    57.771721   -13532.822   -6339.2775 
   82000    309.78595   -13459.706    67.409154   -13527.115    16007.604 
   82200    342.90107   -13460.765    74.614975    -13535.38    -13541.81 
   82400    253.07027   -13476.399    55.067871   -13531.466   -7738.9982 
   82600    335.25018   -13455.468    72.950149   -13528.418    11242.726 
   82800    308.00608   -13468.542    67.021857   -13535.564   -1884.0694 
   83000    320.63902    -13463.51    69.770774   -13533.281     5843.664 
   83200    315.14712   -13445.079     68.57574   -13513.655    6127.5985 
   83400    280.82602    -13464.88    61.107499   -13525.988    2957.8794 
   83600    304.12282   -13472.563    66.176862    -13538.74    9890.3159 
   83800    342.52536    -13449.79    74.533222   -13524.324    4556.2599 
   84000    306.82962   -13464.545    66.765859    -13531.31   -13991.433 
   84200    261.88287   -13483.723    56.985486   -13540.708   -12671.098 
   84400    272.71232   -13475.027    59.341964   -13534.369    347.72259 
   84600    292.04871   -13458.754    63.549546   -13522.303    5453.2462 
   84800     290.3345   -13455.405    63.176535   -13518.581   -1322.9197 
   85000    278.39807   -13475.383     60.57918   -13535.962   -9404.6062 
   85200    286.03482   -13468.246     62.24093   -13530.487   -1417.4815 
   85400    265.87733   -13462.825    57.854677    -13520.68   -9888.7099 
   85600    361.49544    -13438.05    78.661095   -13516.712   -9962.7845 
   85800    330.88301   -13451.171    71.999856   -13523.171   -11275.544 
   86000    298.30574    -13468.32    64.911071   -13533.231   -9909.4632 
   86200    337.45909   -13452.527    73.430805   -13525.958   -4022.5662 
   86400    316.34964   -13450.992    68.837407   -13519.829    9845.4647 
   86600    314.23703   -13465.882    68.377705    -13534.26   -16806.312 
   86800    255.90461   -13469.749    55.684621   -13525.434   -3902.9217 
   87000    297.63203   -13468.745    64.764471   -13533.509   -6197.5827 
   87200    349.65952   -13449.586    76.085608   -13525.671    2554.7863 
   87400    305.75891   -13467.477    66.532874    -13534.01    9372.1815 
   87600    291.98761   -13469.591    63.536252   -13533.128    8682.7419 
   87800    301.03956   -13462.302    65.505947   -13527.808   -145.11963 
   88000    347.34189    -13440.09    75.581295   -13515.671   -2722.3051 
   88200    334.79396   -13459.585    72.850876   -13532.435    2258.0682 
   88400    266.53224   -13474.896    57.997185   -13532.893    11143.307 
   88600    319.78217   -13450.349    69.584322   -13519.934     1144.827 
   88800    286.76177    -13459.98    62.399113   -13522.379    18957.104 
   89000    316.61836    -13468.58    68.895881   -13537.476    8901.1232 
   89200    350.67859   -13443.364    76.307357   -13519.672   -22038.168 
   89400    348.32689   -13460.068    75.795629   -13535.864   -2160.0393 
   89600    254.06627   -13467.679    55.284601   -13522.964   -22175.204 
   89800    324.47711   -13450.382    70.605937   -13520.988     98.49815 
   90000    350.18523   -13449.908    76.200003   -13526.108    9781.2345 
   90200    276.53422   -13467.666    60.173607    -13527.84    2520.7588 
   90400    320.83524   -13453.294     69.81347   -13523.107    3018.7309 
   90600    388.54802   -13441.611    84.547711   -13526.158   -7306.6879 
   90800    293.41372   -13464.318    63.846571   -13528.165   -1572.0802 
   91000    278.40957   -13471.242    60.581681   -13531.823    4137.2368 
   91200     342.6735   -13450.942    74.565457   -13525.507   -6909.3185 
   91400    278.45456   -13461.799    60.591471    -13522.39   -886.59402 
   91600    258.77747   -13480.837    56.309754   -13537.147    7088.6708 
   91800    317.37772   -13460.216    69.061118   -13529.277   -4330.0993 
   92000    262.02722   -13470.488    57.016896   -13527.505   -7964.6725 
   92200    295.83735   -13479.744     64.37395   -13544.118   -8861.8483 
   92400    339.90928   -13457.491    73.963965   -13531.455    18087.809 
   92600    307.22368   -13459.244    66.851607   -13526.096    15190.567 
   92800    266.05954   -13478.069    57.894326   -13535.963   -3373.1961 
   93000    328.66315   -13460.936    71.516816   -13532.453   -7696.9963 
   93200     342.7057   -13459.967    74.572463   -13534.539    8591.0878 
   93400    254.03098   -13478.552    55.276921   -13533.829   -74.816683 
   93600    301.16594   -13462.949    65.533447   -13528.483   -6638.2868 
   93800    328.37812   -13460.614    71.454795   -13532.069   -297.31848 
   94000    258.12247   -13468.561    56.167226   -13524.728   -2289.4255 
   94200    266.03364   -13471.108    57.888689   -13528.997    5201.8465 
   94400    312.03467   -13456.637    67.898474   -13524.535     7919.796 
   94600    305.88356   -13464.936    66.559999   -13531.496    17054.477 
   94800    247.80743   -13480.164    53.922681   -13534.086    3517.9399 
   95000    286.17661    -13468.47    62.271782   -13530.742   -136.99723 
   95200    304.12408   -13460.826    66.177136   -13527.003   -34261.311 
   95400    299.35806   -13466.567    65.140055   -13531.707    5648.3075 
   95600    335.51276   -13463.676    73.007287   -13536.683   -16805.201 
   95800    309.96199    -13446.45    67.447461   -13513.897   -8602.9613 
   96000    301.30159   -13463.488    65.562964   -13529.051    10982.243 
   96200    304.23172    -13464.63    66.200558    -13530.83    6020.0715 
   96400    263.20223   -13481.588    57.272576    -13538.86   -5427.7191 
   96600    280.90793   -13465.384    61.125322   -13526.509   -8888.6962 
   96800    281.55402   -13458.046    61.265912   -13519.312   -883.12824 
   97000    275.56238   -13461.083    59.962135   -13521.045    7416.2888 
   97200    276.24243   -13477.798    60.110113   -13537.908   -645.98823 
   97400    281.26387   -13457.146    61.202775   -13518.348   -13702.471 
   97600    316.25121   -13457.883    68.815989   -13526.699   -4794.6852 
   97800    268.38346    -13474.18    58.400007    -13532.58   -1631.1876 
   98000    307.76661   -13467.786    66.969749   -13534.756    79.353745 
   98200     324.2859   -13455.707     70.56433   -13526.271    198.38248 
   98400    275.05546   -13469.734     59.85183   -13529.586   -784.78629 
   98600    296.17601   -13471.459    64.447643   -13535.907    18189.128 
   98800    304.59003   -13464.792    66.278526    -13531.07   -3193.3788 
   99000    313.22026   -13457.613    68.156457   -13525.769    15005.437 
   99200    276.33127   -13455.783    60.129445   -13515.912   -8322.3247 
   99400     303.6121   -13468.538    66.065731   -13534.604   -17428.179 
   99600    233.65787   -13477.902    50.843749   -13528.746    7082.7319 
   99800    308.15282   -13457.255    67.053787   -13524.309    2818.2616 
  100000     303.9797   -13462.434    66.145719    -13528.58    58.613932 
  100200    290.21327   -13474.662    63.150156   -13537.812   -12279.459 
  100400    320.40026   -13462.182     69.71882   -13531.901   -9048.8023 
  100600    324.91667   -13455.683    70.701586   -13526.385    2929.5406 
  100800    290.58392   -13469.956     63.23081   -13533.186    12633.839 
  101000    298.03203   -13466.953    64.851511   -13531.804   -3405.9551 
  101200     320.9431    -13456.97    69.836941   -13526.807    9818.6363 
  101400    277.23622   -13465.485     60.32636   -13525.811   -3529.8353 
  101600    310.35893   -13461.491    67.533835   -13529.025    10725.273 
  101800    316.37753   -13463.955    68.843477   -13532.798     -12989.2 
  102000     253.4952   -13482.955    55.160335   -13538.115   -13506.708 
  102200    277.83762   -13463.469    60.457225   -13523.926    1701.5616 
  102400    288.31009   -13457.601    62.736026   -13520.338    -19767.95 
  102600    270.96398   -13475.338    58.961528   -13534.299    -14688.11 
  102800    276.42766   -13473.261    60.150419   -13533.412    18497.694 
  103000    304.02575   -13456.519    66.155739   -13522.675   -10050.389 
  103200    324.01029   -13465.805    70.504359   -13536.309      14415.9 
  103400    295.67974   -13475.923    64.339655   -13540.262   -1458.8651 
  103600    369.45339   -13451.561    80.392738   -13531.954   -9993.0866 
  103800     272.0473   -13462.643    59.197257    -13521.84   -11429.645 
  104000     295.2254    -13467.38    64.240792   -13531.621    21600.672 
  104200    318.27952   -13464.766    69.257348   -13534.023   -9661.6446 
  104400    269.19832   -13464.549    58.577322   -13523.127   -8567.3834 
  104600    254.94087   -13457.721    55.474914   -13513.196   -708.74066 
  104800    320.56898   -13452.571    69.755532   -13522.326    3930.6626 
  105000     282.1567   -13468.537    61.397053   -13529.934   -7430.5731 
  105200    317.33807   -13462.442    69.052489   -13531.494    29652.814 
  105400    324.86153   -13439.593    70.689587   -13510.282     4177.911 
  105600    322.95449   -13460.492    70.274616   -13530.766    4813.4343 
  105800    265.49619    -13470.51    57.771741   -13528.282   -24029.398 
  106000    319.52301   -13453.034     69.52793   -13522.562    23830.731 
  106200    356.65793    -13450.34    77.608456   -13527.948   -16814.546 
  106400    280.66508    -13472.65    61.072477   -13533.722   -7542.1768 
  106600    321.11974   -13459.846    69.875378   -13529.721    -7437.066 
  106800    362.69572    -13455.38    78.922274   -13534.303    3013.4913 
  107000    254.75398   -13462.312    55.434244   -13517.746   -19403.816 
  107200    258.80533   -13473.352    56.315816   -13529.667   -2601.2213 
  107400    330.66235   -13461.564    71.951841   -13533.516     17256.82 
  107600    319.81946   -13451.831    69.592436   -13521.423   -5286.5256 
  107800    269.70265    -13472.85    58.687063   -13531.537    17165.728 
  108000    320.65895   -13461.854    69.775109   -13531.629   -6067.4646 
  108200    263.70466   -13462.656    57.381905   -13520.038   -9741.4581 
  108400    288.39743   -13460.968    62.755032   -13523.723    3182.3872 
  108600    297.51977   -13460.277    64.740044   -13525.017   -18737.583 
  108800    296.64423   -13463.857    64.549528   -13528.407    6370.0888 
  109000    247.41362   -13479.346    53.836989   -13533.183    8976.1198 
  109200    322.57059   -13457.247    70.191081   -13527.438   -22474.316 
  109400    308.34528   -13453.433    67.095666   -13520.529   -6235.3793 
  109600    319.74839    -13470.52    69.576972   -13540.097    6220.5688 
  109800    278.90786   -13472.716     60.69011   -13533.406    6578.2267 
  110000    327.63506   -13457.948    71.293104   -13529.241    20794.914 
  110200    342.54429   -13461.439    74.537341   -13535.977   -7995.7391 
  110400    281.98613   -13474.029    61.359938   -13535.389   -4861.3825 
  110600    326.72693   -13459.581    71.095496   -13530.677    21515.605 
  110800    303.73685   -13457.479    66.092874   -13523.572    19434.099 
  111000    295.70998   -13463.604    64.346235    -13527.95    16711.048 
  111200    333.24152   -13464.465    72.513067   -13536.978   -14030.355 
  111400       276.59    -13461.36    60.185744   -13521.546    7698.5048 
  111600    276.45869   -13469.082    60.157173   -13529.239   -20256.757 
  111800    290.82004   -13455.698    63.282189    -13518.98    13152.986 
  112000    328.34078   -13454.907    71.446669   -13526.354    33243.439 
  112200    296.74363   -13476.213    64.571157   -13540.784   -5428.0893 
  112400    289.53696   -13455.616    63.002992   -13518.619    6315.5929 
  112600    312.32603   -13461.508    67.961874    -13529.47   -10298.002 
  112800     254.2553    -13475.12    55.325734   -13530.445    5316.8581 
  113000    297.53738    -13466.74    64.743875   -13531.484    14347.352 
  113200     305.2424   -13451.051    66.420481   -13517.472    5152.2675 
  113400    299.82816   -13452.662    65.242349   -13517.904    12981.599 
  113600    301.86555   -13467.818    65.685682   -13533.503   -2873.3706 
  113800    327.88514   -13455.755    71.347523   -13527.102    3317.8776 
  114000    262.52119   -13460.188    57.124384   -13517.312     4137.243 
  114200    292.87521   -13475.555    63.729393   -13539.284    3837.9499 
  114400    334.51593   -13454.447    72.790377   -13527.238    -9741.977 
  114600    295.89441   -13462.602    64.386368   -13526.989   -6926.0815 
  114800    256.74703   -13479.311    55.867931   -13535.179   -2033.0283 
  115000    329.00194   -13452.328    71.590538   -13523.919    2612.0376 
  115200    302.98639   -13463.806    65.929576   -13529.736    9668.8537 
  115400    280.29922   -13465.829    60.992868   -13526.822   -21868.667 
  115600    379.46588   -13443.074    82.571447   -13525.646    18460.445 
  115800     319.2054    -13462.47    69.458819   -13531.929     6677.957 
  116000    309.52045    -13468.42    67.351382   -13535.771    19024.085 
  116200    279.52227   -13476.908    60.823803   -13537.731     11678.19 
  116400    309.05474   -13456.631    67.250043   -13523.881    6731.0512 
  116600     294.8331   -13466.273    64.155428   -13530.428    6605.0986 
  116800    286.09547   -13470.055    62.254127   -13532.309   -9124.3702 
  117000    303.26826   -13461.397    65.990911   -13527.388    20152.086 
  117200     256.5938    -13471.07    55.834589   -13526.905    1482.9141 
  117400    324.97486   -13446.928    70.714249   -13517.642    15179.936 
  117600    253.74818   -13466.666    55.215385   -13521.881   -22130.776 
  117800    338.18133   -13457.922    73.587965    -13531.51     17267.88 
  118000    357.64497   -13450.414    77.823237   -13528.237    20544.271 
  118200    271.52807   -13465.481    59.084273   -13524.565    6341.4089 
  118400    275.85063   -13468.732    60.024858   -13528.757    29302.275 
  118600    343.33256   -13451.971    74.708867   -13526.679    -2404.075 
  118800    332.32361   -13445.728     72.31333   -13518.041   -1055.6557 
  119000    270.17917   -13468.395    58.790754   -13527.186    -16975.45 
  119200    287.83672   -13460.974    62.633021   -13523.607    2054.4206 
  119400    314.39005    -13446.73    68.411004   -13515.141    8730.7818 
  119600    302.28873   -13464.026    65.777765   -13529.803    4155.5042 
  119800    283.01605   -13462.487    61.584048   -13524.071    23831.211 
  120000    337.46337    -13451.88    73.431738   -13525.312    12406.694 
  120200     270.9844   -13473.014     58.96597    -13531.98    2072.7271 
  120400    299.21966    -13463.04    65.109938    -13528.15    3498.5756 
  120600    311.88908   -13454.123    67.866795    -13521.99    20096.299 
  120800    273.98942   -13465.241    59.619861    -13524.86    8523.1521 
  121000    271.03011   -13474.456    58.975916   -13533.432    26681.579 
  121200    294.49989   -13467.923    64.082921   -13532.005   -1497.0332 
  121400    317.74026   -13456.118    69.140006   -13525.258   -4061.4176 
  121600    269.97483   -13476.825     58.74629   -13535.572    8391.7899 
  121800    274.11555   -13469.001    59.647306   -13528.648    12618.244 
  122000    319.32782   -13458.436    69.485456   -13527.922    6100.3006 
  122200    258.59326   -13471.173    56.269668   -13527.442    29862.549 
  122400    304.03763   -13473.225    66.158324   -13539.384   -17680.533 
  122600    285.69564   -13455.578    62.167124   -13517.745   -11639.115 
  122800    309.37203   -13468.965    67.319085   -13536.284    16435.069 
  123000    277.42629   -13475.064    60.367721   -13535.431    508.59057 
  123200    336.70467   -13457.769    73.266644   -13531.036   -9051.8592 
  123400    342.28739   -13454.352    74.481439   -13528.834    13654.456 
  123600     282.0174   -13476.006    61.366743   -13537.372   -4513.7104 
  123800     322.3153   -13459.423    70.135531   -13529.558   -4279.0312 
  124000    309.88564   -13459.813    67.430847   -13527.244    282.32555 
  124200    307.10763   -13464.846    66.826353   -13531.673    3191.2253 
  124400    280.53287    -13451.52    61.043708   -13512.563   -8840.2747 
  124600    275.83117   -13469.655    60.020624   -13529.675   -14687.277 
  124800    297.23776   -13464.722     64.67868     -13529.4    -5237.321 
  125000    278.91254   -13457.102    60.691128   -13517.793    6575.1919 
  125200    306.31947    -13464.47    66.654851   -13531.125   -6106.5703 
  125400    270.82887   -13485.245    58.932127   -13544.177   -7611.1957 
  125600    299.93938   -13469.955    65.266549   -13535.222    7183.0139 
  125800    360.79978   -13450.241    78.509719    -13528.75   -1731.7419 
  126000    294.97689   -13466.836    64.186716   -13531.023   -6436.1932 
  126200    297.27018     -13472.9    64.685733   -13537.586   -244.43714 
  126400    319.13839   -13460.167    69.444237   -13529.611   -7739.2933 
  126600    305.09295   -13469.314    66.387961   -13535.702   -8114.0812 
  126800    272.52136   -13474.104    59.300412   -13533.405    -18491.25 
  127000    302.43117   -13462.393    65.808761   -13528.202    22039.039 
  127200     314.1762   -13455.561    68.364469   -13523.925   -6401.4611 
  127400    257.20121   -13461.228     55.96676   -13517.195    -27799.51 
  127600    285.99334   -13466.378    62.231903    -13528.61   -21924.455 
  127800    319.87101   -13449.272    69.603654   -13518.875   -12311.651 
  128000    280.49216   -13474.384    61.034852   -13535.419   -7989.9102 
  128200    337.44518    -13465.88    73.427779   -13539.308   -2923.8139 
  128400     280.8688   -13452.223    61.116808    -13513.34    2844.2824 
  128600     262.6585   -13472.428    57.154263   -13529.582    8778.3682 
  128800    277.94983   -13464.742    60.481642   -13525.223   -540.85988 
  129000    280.52652   -13460.733    61.042327   -13521.775    5825.7391 
  129200    292.25334   -13457.829    63.594074   -13521.423    14515.953 
  129400    355.26519   -13454.783    77.305398   -13532.088    -3371.324 
  129600    265.86265   -13472.674    57.851482   -13530.525     3445.701 
  129800    310.38697   -13454.814    67.539936   -13522.354   -5793.4915 
  130000    329.97882   -13458.703    71.803106   -13530.506   -4849.9091 
  130200    283.22053   -13465.505    61.628543   -13527.134    7551.8547 
  130400    306.63792   -13471.879    66.724146   -13538.604   -7984.1815 
  130600    308.96659   -13458.378    67.230862   -13525.609   -2771.8036 
  130800    305.43456   -13457.506    66.462295   -13523.968    8976.1937 
  131000    269.38639   -13472.864    58.618245   -13531.483    6714.9813 
  131200    338.20404   -13462.105    73.592906   -13535.698    6521.7549 
  131400    306.46315    -13451.83    66.686117   -13518.516     1700.868 
  131600    251.05405   -13474.676    54.629144   -13529.305   -8366.6686 
  131800     319.3501   -13464.542    69.490305   -13534.032   -12923.205 
  132000    343.46518   -13452.503    74.737726    -13527.24    3725.1211 
  132200    275.15834   -13473.752    59.874216   -13533.627   -8821.5727 
  132400    320.51724   -13459.828    69.744273   -13529.572   -2908.1972 
  132600    288.91218    -13455.31    62.867041   -13518.177    11916.074 
  132800    266.01625   -13474.314    57.884906   -13532.199    3048.0253 
  133000    269.03882   -13470.738    58.542615   -13529.281    3568.0141 
  133200    265.17522   -13456.797    57.701898   -13514.499    18090.764 
  133400    280.57456   -13473.231    61.052781   -13534.284   -9330.5577 
  133600    277.23163   -13474.444    60.325363   -13534.769    5828.5456 
  133800    294.25115   -13455.764    64.028796   -13519.793    1217.1081 
  134000     315.1497   -13456.403    68.576302    -13524.98     21759.77 
  134200    312.12367    -13464.59     67.91784   -13532.507    2342.8345 
  134400    273.35884   -13462.319    59.482647   -13521.802    7481.9064 
  134600    312.98144   -13466.019     68.10449   -13534.124   -26099.757 
  134800    307.02374   -13457.397    66.808099   -13524.206    -25067.94 
  135000     319.8594   -13461.249    69.601128    -13530.85     -2498.64 
  135200    267.03222   -13473.698     58.10598   -13531.804    880.50313 
  135400    293.97388   -13459.508    63.968461   -13523.476   -4677.2438 
  135600    412.60603   -13430.168    89.782714    -13519.95    167.43094 
  135800    336.20393   -13460.928    73.157683   -13534.086   -10921.943 
  136000    298.26602   -13466.139    64.902428   -13531.041    1341.5784 
  136200    351.03799   -13455.431    76.385563   -13531.817     7737.677 
  136400    277.44498   -13469.963    60.371787   -13530.335   -2448.8671 
  136600    262.23674   -13470.155    57.062488   -13527.217   -3188.7619 
  136800    321.10802   -13449.543    69.872828   -13519.415   -8503.9748 
  137000    328.85819   -13460.915    71.559257   -13532.474   -19281.173 
  137200    314.46952   -13464.459    68.428296   -13532.887    8468.2903 
  137400     325.4239   -13450.125    70.811959   -13520.937    20650.316 
  137600     318.5824   -13469.417    69.323255    -13538.74   -543.77407 
  137800    286.19907   -13464.246    62.276671   -13526.523   -2385.4839 
  138000    373.58627   -13442.803     81.29205   -13524.095    12295.265 
  138200    330.14034    -13460.24    71.838253   -13532.078   -5945.6787 
  138400     283.8222   -13465.363    61.759464   -13527.122   -13017.353 
  138600    317.95609   -13463.351    69.186971   -13532.538    7786.4017 
  138800    325.98562   -13454.641    70.934188   -13525.575   -2425.0919 
  139000     242.6625   -13475.404    52.803149   -13528.207    26526.158 
  139200    285.78589   -13465.963    62.186762   -13528.149   -1064.3445 
  139400    314.18146   -13457.599    68.365613   -13525.965    17870.265 
  139600    268.99587   -13465.128    58.533268   -13523.661    23663.782 
  139800    255.82546   -13482.464    55.667398   -13538.131   -11144.349 
  140000     309.5834   -13459.184    67.365079    -13526.55   -4361.9106 
  140200    276.80295   -13462.935    60.232082   -13523.167    4457.0411 
  140400    278.15455   -13467.615    60.526189   -13528.141    7049.5518 
  140600    269.57807    -13472.91    58.659955    -13531.57    9882.4848 
  140800    325.18464   -13453.033    70.759897   -13523.793    14404.675 
  141000    256.61265   -13462.628     55.83869   -13518.466    -2987.937 
  141200    300.92535   -13463.019    65.481096     -13528.5   -11464.073 
  141400    269.11548   -13463.059    58.559295   -13521.618    -1579.296 
  141600    348.24787   -13453.407    75.778435   -13529.186   -5059.2255 
  141800    327.66317   -13459.341    71.299222    -13530.64    792.77283 
  142000    321.97865   -13473.687    70.062275    -13543.75    7006.5094 
  142200    337.88387   -13453.096    73.523238   -13526.619   -18056.901 
  142400    299.67408   -13454.306    65.208821   -13519.515   -10170.645 
  142600    308.31574   -13468.659    67.089238   -13535.748   -9875.3984 
  142800    326.44315   -13444.679    71.033747   -13515.713    19197.466 
  143000    342.69739   -13462.264    74.570654   -13536.835   -6485.5154 
  143200    291.44506    -13467.12    63.418193   -13530.538    4090.8173 
  143400    373.36822   -13450.125    81.244601    -13531.37   -9816.9848 
  143600    317.12745   -13461.569    69.006658   -13530.575    30671.488 
  143800    309.07246   -13467.747      67.2539   -13535.001    31999.747 
  144000    321.15495   -13458.147    69.883039    -13528.03   -5160.9416 
  144200    325.05149   -13459.287    70.730923   -13530.018    7743.4231 
  144400    308.07344    -13470.25    67.036513   -13537.287    3767.4461 
  144600    350.03104   -13460.996    76.166451   -13537.162   -7744.1116 
  144800    300.55867   -13451.525    65.401307   -13516.926   -6087.2529 
  145000    269.08624    -13468.55    58.552932   -13527.103   -4150.1776 
  145200    293.55789   -13468.157    63.877942   -13532.035    -3543.331 
  145400    357.88239   -13457.634    77.874897   -13535.509   -6724.8037 
  145600    288.39713   -13455.314    62.754965   -13518.069    -22849.57 
  145800    282.12508   -13473.998    61.390174   -13535.388    -7827.955 
  146000    313.56569   -13452.346    68.231623   -13520.578    11946.006 
  146200    294.75819   -13459.145    64.139128   -13523.284    7176.8177 
  146400    266.29514   -13471.527    57.945592   -13529.472   -7124.9545 
  146600    278.44216   -13478.557    60.588773   -13539.146    1717.0596 
  146800    317.59392   -13461.876    69.108163   -13530.984   -11832.828 
  147000    293.89664   -13458.273    63.951655   -13522.225    11002.073 
  147200    296.12379   -13457.504    64.436279    -13521.94   -16161.257 
  147400    283.81154   -13474.407    61.757144   -13536.164    -7778.233 
  147600    339.82847   -13455.494    73.946382    -13529.44   -8234.3912 
  147800    303.57677   -13456.962    66.058043    -13523.02   -2837.2584 
  148000    259.58343   -13479.362    56.485129   -13535.847    -518.0381 
  148200    300.00777   -13461.041     65.28143   -13526.323     14306.22 
  148400    284.56356   -13463.246    61.920784   -13525.167    1421.0411 
  148600    250.63214   -13476.286    54.537336   -13530.823   -10325.982 
  148800    317.92865   -13457.005    69.180998   -13526.186   -837.75806 
  149000    276.62889   -13466.252    60.194207   -13526.446   -99.225125 
  149200    273.17631   -13473.583    59.442928   -13533.026    14723.709 
  149400    279.84053   -13460.026    60.893056   -13520.919    19416.458 
  149600    351.55659   -13460.398    76.498408   -13536.897    -3977.724 
  149800    261.89429   -13477.982     56.98797    -13534.97   -6265.8247 
  150000    308.39638   -13464.926    67.106786   -13532.033    11425.007 
  150200    253.72075   -13454.358    55.209415   -13509.567    9664.4071 
  150400    312.27737   -13461.469    67.951285    -13529.42    9226.5131 
  150600    260.20068   -13464.958    56.619442   -13521.577    -16773.23 
  150800    356.17103   -13463.637    77.502508   -13541.139   -18585.483 
  151000    308.78678   -13452.078    67.191736    -13519.27   -11374.867 
  151200    326.98216   -13466.556    71.151034   -13537.707   -2951.4381 
  151400    265.22654   -13468.704    57.713066   -13526.417    12041.492 
  151600    332.53652     -13458.6    72.359658    -13530.96    1928.7305 
  151800     289.5258    -13462.83    63.000564    -13525.83    -1976.459 
  152000    311.40209   -13458.755    67.760824   -13526.515    7194.8159 
  152200    275.56548   -13472.599    59.962809   -13532.562   -3224.3693 
  152400    277.62841   -13478.943    60.411701   -13539.354   -11398.044 
  152600    276.43454   -13459.249    60.151916   -13519.401   -11006.242 
  152800    304.68162   -13459.808    66.298457   -13526.107   -8515.9166 
  153000    278.41379   -13478.051    60.582599   -13538.633   -8188.9572 
  153200    318.07786   -13462.087    69.213468     -13531.3    4786.8791 
  153400    295.01416   -13459.119    64.194825   -13523.314   -23508.878 
  153600    364.57331   -13441.099    79.330836    -13520.43   -1668.4913 
  153800    303.17896   -13462.374     65.97148   -13528.346    13283.398 
  154000    315.25869   -13462.122    68.600018   -13530.722    5284.3763 
  154200    268.71207   -13466.331    58.471513   -13524.803    11195.049 
  154400     319.8689   -13462.762    69.603196   -13532.365   -5454.1593 
  154600    305.99331   -13455.839     66.58388   -13522.423   -8353.5626 
  154800    292.87938   -13473.058      63.7303   -13536.788   -2901.6704 
  155000    302.35632   -13458.001    65.792474   -13523.793    5242.3398 
  155200    349.50837   -13440.129    76.052718   -13516.182   -3802.7161 
  155400     327.7939   -13461.306    71.327668   -13532.633    15857.844 
  155600    311.36551   -13464.738    67.752866   -13532.491    14636.514 
  155800    358.03467   -13448.359    77.908034   -13526.267    2732.5929 
  156000    303.19464   -13461.446    65.974891    -13527.42   -10247.685 
  156200    245.03183   -13473.441    53.318715    -13526.76    5991.0931 
  156400    314.14112   -13461.993    68.356835   -13530.349    203.49599 
  156600    287.97078    -13464.97    62.662193   -13527.632   -24328.799 
  156800    226.69476   -13487.484    49.328583   -13536.812    9359.6878 
  157000    281.21844    -13471.05     61.19289   -13532.243    13780.738 
  157200    334.81717   -13459.552    72.855926   -13532.408    15870.762 
  157400     305.2759     -13464.8     66.42777   -13531.228   -14295.835 
  157600    274.31383   -13468.255    59.690453   -13527.945    12066.558 
  157800    331.68585   -13456.493    72.174554   -13528.668    16196.772 
  158000    285.83442   -13469.169    62.197323   -13531.367    -20796.52 
  158200    278.49484   -13467.223    60.600237   -13527.824    21012.779 
  158400    350.45524   -13452.608    76.258756   -13528.866    14195.597 
  158600    287.47369   -13470.731    62.554027   -13533.285    7426.7057 
  158800       295.32   -13469.229    64.261376   -13533.491   -14841.638 
  159000     290.6974   -13454.518    63.255503   -13517.773    7170.5138 
  159200    248.74602    -13468.42    54.126919   -13522.547    15983.202 
  159400    305.81024   -13471.263    66.544042   -13537.807    13593.978 
  159600     316.9937   -13452.883    68.977555   -13521.861   -9334.4295 
  159800    323.20062   -13459.368    70.328176   -13529.696    20660.221 
  160000    334.26045   -13464.089    72.734783   -13536.824    23043.665 
  160200     249.1085    -13480.43    54.205794   -13534.636   -2115.5717 
  160400    317.68349   -13459.783    69.127652    -13528.91    294.03961 
  160600    317.65373   -13456.455    69.121177   -13525.576   -1894.4792 
  160800    339.90905   -13446.344    73.963915   -13520.308   -9662.6824 
  161000    299.17863   -13468.987     65.10101   -13534.088   -8952.8042 
  161200    266.65446   -13471.349     58.02378   -13529.373    2755.5137 
  161400    294.87377   -13450.058    64.164276   -13514.222    16393.683 
  161600    285.86746   -13464.033    62.204511   -13526.238    22736.373 
  161800    286.38715   -13467.829    62.317596   -13530.147   -9074.7651 
  162000    307.55737   -13454.483    66.924218   -13521.407    14620.315 
  162200    287.33131   -13448.951    62.523044   -13511.474   -8362.5716 
  162400    302.23453   -13471.962    65.765971   -13537.728   -2881.9052 
  162600    316.17899   -13463.608    68.800273   -13532.408    15411.602 
  162800    328.64273   -13448.899    71.512373   -13520.411   -7398.8816 
  163000    285.65794   -13459.635    62.158919   -13521.794    13720.208 
  163200    347.09512   -13464.915    75.527598   -13540.442    396.54237 
  163400    345.48702   -13454.256    75.177675   -13529.434   -9804.3959 
  163600    286.44452   -13466.817     62.33008   -13529.147    106.13354 
  163800    339.25423   -13455.537    73.821427   -13529.358   -301.88822 
  164000    297.26043   -13458.298    64.683612   -13522.982    13725.981 
  164200    254.09132   -13472.435    55.290051   -13527.725   -11607.773 
  164400    305.02782   -13456.707    66.373789   -13523.081   -22376.842 
  164600    350.87014   -13455.757    76.349039   -13532.106   -1510.3471 
  164800    282.41551   -13466.508     61.45337   -13527.962   -12548.362 
  165000    342.64134    -13458.54    74.558459   -13533.098     5624.378 
  165200    295.52449   -13444.161    64.305874   -13508.467    -19022.49 
  165400    301.71391   -13466.009    65.652686   -13531.661   -1248.4781 
  165600    264.65171   -13472.483    57.587984   -13530.071   -9463.7446 
  165800    316.10736   -13453.306    68.784687    -13522.09    18537.024 
  166000    310.74359   -13458.567    67.617536   -13526.184     4727.401 
  166200    320.82844   -13464.682    69.811991   -13534.494    3059.0737 
  166400    287.65252   -13462.117    62.592939    -13524.71   -11104.622 
  166600    271.25936   -13477.145    59.025802   -13536.171    -8196.475 
  166800    321.19789   -13456.647    69.892383   -13526.539    3509.7003 
  167000    294.04323   -13458.484    63.983552   -13522.467    14133.003 
  167200    278.27928     -13477.3     60.55333   -13537.854   -9215.3099 
  167400    288.84007   -13465.582    62.851348   -13528.434   -21123.145 
  167600    317.26614   -13455.892    69.036836   -13524.928    4153.4147 
  167800    327.89394    -13461.91    71.349437   -13533.259    9618.9146 
  168000    276.33174   -13475.784    60.129547   -13535.914   -16963.176 
  168200    334.46803   -13457.736    72.779953   -13530.516   -5351.1939 
  168400    294.25513   -13458.229    64.029662   -13522.259    6219.2815 
  168600     288.1718   -13475.513    62.705934   -13538.219    11753.037 
  168800    289.75036   -13477.821    63.049428   -13540.871    -19879.14 
  169000    295.43447   -13458.323    64.286285    -13522.61    11058.392 
  169200    310.39025    -13462.35     67.54065   -13529.891    1538.1642 
  169400    266.77161   -13477.307    58.049271   -13535.357    -1318.525 
  169600    318.45178   -13455.642    69.294832   -13524.937   -945.70463 
  169800    292.82405   -13460.217    63.718261   -13523.935    9891.6647 
  170000    253.51181   -13478.207     55.16395   -13533.371   -8519.9217 
  170200      368.414   -13454.167    80.166567   -13534.334   -11315.022 
  170400    248.59693   -13467.136    54.094477    -13521.23   -8236.8717 
  170600    299.28784   -13459.239    65.124774   -13524.363    32138.826 
  170800    325.24179   -13453.131    70.772333   -13523.904    6130.5101 
  171000    298.73518   -13469.862    65.004516   -13534.867    28486.653 
  171200    332.63955   -13461.742    72.382078   -13534.124   -16139.492 
  171400    339.13473   -13446.568    73.795423   -13520.363   -12572.036 
  171600    288.11061   -13470.152    62.692619   -13532.844    -11069.23 
  171800    275.78338   -13470.574    60.010224   -13530.584   -1133.2468 
  172000    320.44602   -13451.326    69.728777   -13521.055    1077.2371 
  172200    262.80176   -13476.866    57.185435   -13534.051   -7861.3721 
  172400    327.87976    -13461.44    71.346353   -13532.786    4185.9971 
  172600    298.93391   -13459.647     65.04776   -13524.694   -29552.557 
  172800    262.38813    -13472.75    57.095429   -13529.846   -9809.5774 
  173000    265.06784    -13461.53    57.678533   -13519.209   -1529.3602 
  173200    330.77447   -13457.186    71.976239   -13529.162   -4069.7481 
  173400    250.50567   -13471.579    54.509817   -13526.088    1300.7857 
  173600    297.68036   -13461.139    64.774988   -13525.914   -22720.664 
  173800    310.30317   -13448.215    67.521702   -13515.737   -8906.6349 
  174000    265.89445   -13471.228    57.858403   -13529.086   -12128.739 
  174200    292.76459   -13468.679    63.705321   -13532.384    2326.2715 
  174400    319.85324   -13447.327    69.599787   -13516.926   -3088.0641 
  174600    296.97784   -13463.441     64.62212   -13528.063    5286.9454 
  174800    323.33749   -13471.512    70.357959    -13541.87    5986.0041 
  175000    288.45111   -13455.377    62.766711   -13518.144   -9551.7247 
  175200    307.49809   -13457.323    66.911319   -13524.234    3559.8252 
  175400    296.38693   -13462.116    64.493539   -13526.609   -125.88115 
  175600    289.51986   -13464.749    62.999271   -13527.749    11285.875 
  175800    272.02375   -13478.583    59.192132   -13537.775   -968.27183 
  176000    298.21389   -13459.933    64.891085   -13524.824    3361.2459 
  176200    326.73454   -13451.421    71.097153   -13522.518   -13487.946 
  176400    265.98883    -13473.59    57.878939   -13531.469    25.158587 
  176600    304.39966   -13464.668    66.237103   -13530.906   -4105.2178 
  176800    318.79645   -13450.339    69.369832   -13519.709    16050.049 
  177000    294.03761   -13473.703    63.982329   -13537.685   -13053.263 
  177200     326.8221   -13464.716    71.116206   -13535.832    8961.9331 
  177400    321.60059   -13461.554     69.98001   -13531.534   -2384.2902 
  177600    315.22099   -13464.545    68.591814   -13533.137    43.549538 
  177800    308.02258   -13460.619    67.025446   -13527.645   -596.22116 
  178000    299.03972   -13443.952    65.070783   -13509.022    11098.817 
  178200    300.32659    -13460.14    65.350805   -13525.491   -16329.553 
  178400    290.67572    -13461.67    63.250785   -13524.921    7085.5047 
  178600    322.10191   -13459.346    70.089096   -13529.435    17157.751 
  178800    280.53534   -13474.829    61.044247   -13535.874   -7200.1728 
  179000    283.59638   -13468.155    61.710327   -13529.865    6234.2382 
  179200    333.26103   -13451.304    72.517311   -13523.821    -21086.85 
  179400    276.46766   -13467.195    60.159123   -13527.354    -7012.443 
[...]
  950000    294.14296   -13457.392    64.005254   -13521.397    9783.3714 
  950200     257.5177   -13474.833    56.035629   -13530.868   -2723.4494 
  950400     279.9854   -13471.409    60.924581   -13532.334     6790.107 
  950600    286.61563   -13459.208    62.367313   -13521.575   -10167.471 
  950800    299.57909   -13454.134    65.188149   -13519.323    4932.3751 
  951000    293.27565   -13473.493    63.816527   -13537.309    7090.9878 
  951200    318.41522   -13465.004    69.286876   -13534.291    3487.8617 
  951400    308.13083   -13454.019    67.049003   -13521.068   -22241.721 
  951600    281.14416   -13471.727    61.176725   -13532.904   -30129.311 
  951800    265.09838   -13462.762    57.685179   -13520.448    -26.68215 
  952000    303.61028   -13451.484    66.065334   -13517.549    6451.4928 
  952200    290.06766   -13468.195    63.118471   -13531.314   -1986.6999 
  952400     260.3036   -13468.867    56.641837   -13525.508   -13593.745 
  952600     284.1718   -13450.852    61.835537   -13512.688    13870.016 
  952800    339.34842   -13466.321    73.841923   -13540.163    4902.4376 
  953000    318.65219   -13461.312    69.338441    -13530.65    -6511.671 
  953200    326.43769   -13445.064    71.032559   -13516.096    14622.783 
  953400    349.94213   -13458.213    76.147104    -13534.36    530.78077 
  953600    333.13566   -13463.577    72.490031   -13536.067   -5858.1193 
  953800    279.58609   -13476.113    60.837692    -13536.95    5937.5893 
  954000    329.56285    -13462.71    71.712591   -13534.422    6078.8027 
  954200    284.32197       -13470    61.868214   -13531.868   -7296.5851 
  954400    311.26172     -13463.4    67.730282   -13531.131   -17933.556 
  954600    310.34605   -13452.253    67.531033   -13519.784    30356.706 
  954800    299.84097    -13461.39    65.245135   -13526.635    11939.655 
  955000    283.52709   -13475.786    61.695248   -13537.481     8830.852 
  955200    324.90041   -13454.393    70.698048   -13525.091   -2887.1292 
  955400    260.49892   -13464.571     56.68434   -13521.256    26839.437 
  955600    278.49478   -13471.952    60.600223   -13532.553   -20333.943 
  955800    285.13548   -13465.254    62.045234   -13527.299    8654.1073 
  956000    358.09024   -13450.373    77.920125   -13528.293    4678.5026 
  956200    258.39327   -13465.409    56.226152   -13521.635    2107.2263 
  956400    283.93634   -13474.758    61.784302   -13536.543   -10267.199 
  956600    324.60537   -13453.054    70.633847   -13523.688   -12830.225 
  956800    275.49653   -13472.472    59.947807    -13532.42    26355.672 
  957000    304.70384   -13461.658    66.303291   -13527.962    4579.9136 
  957200    271.66772   -13456.207    59.114661   -13515.321   -4948.8016 
  957400    301.51754   -13463.155    65.609956   -13528.765   -4865.4326 
  957600    311.46536   -13479.008    67.774593   -13546.783    2021.6315 
  957800    324.24048   -13459.589    70.554446   -13530.144    6371.1396 
  958000     353.5272   -13460.904    76.927213   -13537.831   -14898.494 
  958200    265.76031   -13477.537    57.829213   -13535.366    3453.4619 
  958400    290.37482   -13461.026     63.18531   -13524.212    9812.7862 
  958600    314.66873   -13454.503    68.471642   -13522.975   -8150.8241 
  958800    280.14107   -13474.422    60.958454   -13535.381   -3355.7966 
  959000     274.8919   -13469.602    59.816238   -13529.418   -9391.9596 
  959200    277.16775   -13464.387    60.311462   -13524.699   -16305.453 
  959400    268.40068   -13465.244    58.403755   -13523.647    14111.196 
  959600    302.50056   -13473.795    65.823861   -13539.618    4422.6386 
  959800    255.73601   -13459.606    55.647935   -13515.254      26714.5 
  960000    352.30203    -13450.15    76.660617   -13526.811    -4897.569 
  960200    312.53328   -13463.988    68.006972   -13531.995    8561.2599 
  960400    305.30822   -13462.311    66.434804   -13528.746    18616.752 
  960600    312.91944   -13461.873    68.090999   -13529.964   -6552.0142 
  960800    287.98671   -13476.681    62.665658   -13539.346   -10244.367 
  961000     295.9836   -13461.985    64.405775   -13526.391   -23901.422 
  961200    295.36939   -13460.298    64.272123    -13524.57    7763.3769 
  961400    255.21804   -13476.368    55.535224   -13531.903    33117.095 
  961600    292.40259   -13458.482    63.626549   -13522.109   -2394.1223 
  961800    309.24962   -13464.364    67.292449   -13531.656    10438.093 
  962000    295.87594   -13468.361    64.382348   -13532.743    5524.8577 
  962200    295.43034   -13451.769    64.285387   -13516.055    7117.5223 
  962400    276.33123   -13472.559    60.129435   -13532.688   -4023.4025 
  962600    267.85994   -13465.087    58.286091   -13523.373    22201.527 
  962800    291.76877    -13456.98    63.488632   -13520.468    13882.424 
  963000    339.60203   -13446.469    73.897108   -13520.366    9604.2789 
  963200    322.51072   -13466.067    70.178053   -13536.245   -4868.4696 
  963400    298.27044   -13471.999    64.903389   -13536.902   -8607.0655 
  963600    359.59153   -13449.447    78.246806   -13527.694    23353.701 
  963800    242.91619   -13468.654    52.858353   -13521.512   -11712.056 
  964000    322.24924   -13458.836    70.121156   -13528.957    13588.063 
  964200    329.46825   -13457.503    71.692007   -13529.195   -1772.1752 
  964400    242.73685   -13484.593    52.819328   -13537.413   -1258.2955 
  964600    284.06698    -13467.54    61.812729   -13529.353    1725.6422 
  964800    325.86715   -13458.879     70.90841   -13529.787   -6699.7802 
  965000    247.32898    -13480.08    53.818573   -13533.898      2899.09 
  965200     266.5072   -13463.891    57.991735   -13521.883   -11733.502 
  965400    310.90514   -13458.177    67.652689   -13525.829   -16030.242 
  965600    288.09453   -13469.948     62.68912   -13532.637   -1502.2156 
  965800    276.13049   -13473.719    60.085756   -13533.804      3131.97 
  966000    318.07273   -13459.975     69.21235   -13529.187    2237.8299 
  966200    292.00049   -13473.551    63.539055   -13537.091    8093.4664 
  966400    253.04844    -13481.05    55.063122   -13536.113     9519.446 
  966600    322.24106   -13456.527    70.119375   -13526.647    572.85419 
  966800    282.08505   -13466.772    61.381463   -13528.153   -18429.331 
  967000    324.98718   -13460.926    70.716929   -13531.643    30738.835 
  967200    273.89691   -13462.945    59.599729   -13522.544    14065.204 
  967400    302.29333   -13477.471    65.778766    -13543.25    14103.441 
  967600    326.85797   -13451.975    71.124011   -13523.099    2775.7675 
  967800    304.46589   -13461.572    66.251514   -13527.823   -5833.3575 
  968000    306.82148   -13478.224    66.764087   -13544.988    3859.5645 
  968200     273.1492   -13474.969    59.437029   -13534.406    14212.586 
  968400    323.12065   -13459.359    70.310774    -13529.67    1032.3183 
  968600    272.91317    -13474.66    59.385668   -13534.046   -10282.448 
  968800    272.16702   -13476.719    59.223309   -13535.943    16596.925 
  969000    329.95771   -13457.774    71.798511   -13529.572    18268.493 
  969200    290.82459   -13471.398    63.283179   -13534.681   -7595.9496 
  969400     317.7587   -13464.727    69.144018   -13533.871    -10603.73 
  969600    304.72053   -13460.382    66.306924   -13526.689    7300.1205 
  969800    269.48591   -13471.562    58.639901   -13530.202     8431.071 
  970000    274.88241   -13475.035    59.814173    -13534.85   -16552.416 
  970200    287.74521   -13456.664    62.613109   -13519.277   -10257.033 
  970400    272.69017   -13471.989    59.337144   -13531.326    5285.1953 
  970600    270.25282   -13473.525     58.80678   -13532.332    -7813.691 
  970800    310.84358   -13457.788    67.639295   -13525.428   -3891.2237 
  971000    293.86638   -13466.611    63.945069   -13530.557    1357.3945 
  971200    292.32193   -13473.226    63.608998   -13536.835   -7403.1872 
  971400    349.29512   -13448.712    76.006315   -13524.719   -9468.4004 
  971600     303.3901   -13462.187    66.017423   -13528.205    2188.3646 
  971800     262.0969   -13471.219    57.032059   -13528.251    17987.787 
  972000     295.0561   -13451.789    64.203952   -13515.993    18662.451 
  972200    298.77076   -13464.079    65.012258   -13529.091    1452.0052 
  972400    273.42092   -13473.659    59.496156   -13533.155   -2402.3108 
  972600    324.99915   -13458.736    70.719533   -13529.456   -384.96524 
  972800    298.63048   -13465.605    64.981733   -13530.586   -5075.4998 
  973000    234.83695    -13470.84    51.100317    -13521.94    1780.6992 
  973200    290.76579   -13455.656    63.270384   -13518.926   -4066.4418 
  973400    356.12701   -13452.021     77.49293   -13529.514    4157.9434 
  973600    264.50008   -13472.659    57.554989   -13530.214    14937.785 
  973800    294.27187   -13462.242    64.033304   -13526.275   -10077.356 
  974000    376.52583   -13450.047    81.931695   -13531.979    20992.211 
  974200    279.98347   -13465.402     60.92416   -13526.326   -4984.6355 
  974400    316.79334   -13449.526    68.933956    -13518.46   -2736.1321 
  974600     299.7833    -13456.93    65.232587   -13522.163   -20958.162 
  974800    287.27825   -13466.343    62.511498   -13528.854   -8343.9083 
  975000    350.26953   -13450.854    76.218346   -13527.073   -15453.191 
  975200     297.5928   -13455.017    64.755935   -13519.773    24644.039 
  975400    292.71669   -13468.372    63.694899   -13532.067    1943.2526 
  975600    295.75265    -13471.58    64.355519   -13535.936    13176.735 
  975800    319.32402   -13450.512    69.484629   -13519.996   -27959.783 
  976000     321.7963   -13454.414    70.022596   -13524.437   -6648.4782 
  976200    311.88885   -13467.843    67.866743    -13535.71   -8576.1771 
  976400     298.3267   -13457.672    64.915632   -13522.588    17706.909 
  976600     335.8728   -13466.507    73.085631   -13539.593   -5585.1066 
  976800    246.46648   -13474.726    53.630892   -13528.357     29493.86 
  977000    333.62538   -13458.851    72.596595   -13531.447    24541.426 
  977200    286.78587   -13466.284    62.404356   -13528.689    13320.115 
  977400    308.28632   -13443.615    67.082837   -13510.698    17191.832 
  977600    259.71755   -13459.328    56.514313   -13515.842    863.49721 
  977800    315.30483   -13466.058    68.610059   -13534.669   -11348.773 
  978000    291.47722   -13478.781    63.425191   -13542.206    10959.767 
  978200    242.86548   -13483.139    52.847317   -13535.986   -3783.8399 
  978400      294.675   -13461.986    64.121026   -13526.107   -19520.471 
  978600    294.01754   -13456.921    63.977962   -13520.899    10900.894 
  978800    299.57332   -13459.328    65.186896   -13524.515   -5795.0015 
  979000    309.07341   -13449.392    67.254106   -13516.646   -13807.153 
  979200    323.06329   -13469.473    70.298291   -13539.771   -359.46071 
  979400    296.79352   -13474.714    64.582012   -13539.296    13195.802 
  979600    283.63878   -13469.358    61.719554   -13531.078   -11707.041 
  979800    285.71791    -13459.05     62.17197   -13521.222    6332.4405 
  980000    374.67515   -13438.241    81.528988    -13519.77   -7813.7822 
  980200    285.53358   -13465.802    62.131859   -13527.933   -4862.0051 
  980400    307.21598   -13467.044    66.849932   -13533.894    1605.1734 
  980600    315.63893   -13456.276    68.682757   -13524.959   -14697.875 
  980800    283.55523   -13477.242    61.701373   -13538.944   -1289.0349 
  981000    303.86205   -13463.866    66.120119   -13529.986    21199.701 
  981200    326.96168   -13463.743    71.146578   -13534.889    -692.6075 
  981400    319.03968   -13452.686    69.422758   -13522.109    6906.0871 
  981600    293.67374   -13446.244    63.903152   -13510.147     11674.05 
  981800      270.451   -13462.241    58.849903   -13521.091   -1739.7094 
  982000    288.12372   -13473.222    62.695473   -13535.918   -10659.079 
  982200    274.24409   -13472.206    59.675277   -13531.881   -27576.856 
  982400    284.39382   -13455.878    61.883849   -13517.762    16200.036 
  982600    237.26198    -13476.38    51.628002   -13528.008   -10241.957 
  982800    254.48053   -13467.981    55.374743   -13523.355   -478.45292 
  983000    324.38838   -13459.433    70.586631   -13530.019    10041.021 
  983200    253.01593   -13474.833    55.056048   -13529.889   -16664.617 
  983400    320.31616   -13465.441    69.700519   -13535.142    4954.8194 
  983600    287.48213   -13457.607    62.555862   -13520.163   -2481.9619 
  983800    280.76864    -13479.45    61.095012   -13540.545    25421.418 
  984000    280.96365    -13465.41    61.137446   -13526.547    -10080.12 
  984200    284.86472   -13457.917    61.986317   -13519.903    3808.4675 
  984400    307.69728    -13462.79    66.954662   -13529.745    822.39323 
  984600    263.59989   -13461.241    57.359108     -13518.6   -7802.0031 
  984800    299.49462   -13470.911    65.169771   -13536.081   -1328.3494 
  985000    277.79244   -13479.332    60.447394    -13539.78    4919.7721 
  985200     295.4388   -13456.722    64.287227   -13521.009    7551.5271 
  985400    353.16337   -13448.375    76.848042   -13525.223     6438.607 
  985600     283.3998   -13463.378     61.66755   -13525.046   -8033.4464 
  985800    281.86255    -13468.05    61.333046   -13529.383   -7645.3441 
  986000    340.44332   -13450.458    74.080171   -13524.538   -16677.782 
  986200    282.36808   -13464.245     61.44305   -13525.688   -3359.8983 
  986400    260.18353   -13471.103     56.61571   -13527.718    9009.6156 
  986600    336.34846   -13450.288    73.189134   -13523.477    -8956.344 
  986800    294.95308   -13459.122    64.181534   -13523.304   -1901.3086 
  987000    259.55697   -13465.549    56.479372   -13522.029   -15820.491 
  987200    266.42167   -13479.555    57.973124   -13537.528    1727.5966 
  987400    328.27644   -13461.276    71.432669   -13532.709   -6989.5363 
  987600    259.99423    -13474.61     56.57452   -13531.184    23531.865 
  987800    328.74158   -13453.424    71.533883   -13524.958    -4432.695 
  988000    277.67614   -13463.245    60.422088   -13523.668    6364.8712 
  988200    254.91134   -13470.686    55.468487   -13526.154   -16975.334 
  988400    342.47319   -13449.216     74.52187   -13523.738   -14023.577 
  988600    284.86305   -13470.829    61.985953   -13532.815   -7507.8334 
  988800    250.08768   -13466.906    54.418862   -13521.325   -9177.0845 
  989000      324.425   -13454.924    70.594599   -13525.519   -14788.299 
  989200    254.75816   -13474.593    55.435155   -13530.028   -16313.084 
  989400    294.15406   -13458.992     64.00767       -13523   -8895.2179 
  989600    318.52917   -13458.544     69.31167   -13527.855    3270.5655 
  989800    285.89089   -13474.013     62.20961   -13536.222    3391.4314 
  990000    326.86646   -13458.268    71.125859   -13529.394    -7919.378 
  990200    342.02529   -13458.476    74.424407     -13532.9   -7900.0908 
  990400    251.08075   -13483.024    54.634954   -13537.659    6469.2458 
  990600     279.6096   -13468.567    60.842807    -13529.41   -22221.331 
  990800    287.86464   -13456.175    62.639097   -13518.814    16212.954 
  991000    275.46586   -13451.899    59.941132    -13511.84   -6112.2093 
  991200    286.87707   -13473.588    62.424201   -13536.012    440.19348 
  991400    324.15454   -13458.602    70.535748   -13529.138    3228.9754 
  991600    246.56925   -13479.047    53.653256     -13532.7   -2873.6226 
  991800    273.88159   -13470.649    59.596397   -13530.245   -6338.9865 
  992000    321.62807   -13458.134    69.985989    -13528.12   -12410.959 
  992200    310.86173   -13460.467    67.643243    -13528.11    809.19061 
  992400    325.95822   -13457.797    70.928227   -13528.725   -1884.9359 
  992600    305.73377   -13460.667    66.527403   -13527.194   -6320.3011 
  992800    289.67907   -13468.061    63.033915   -13531.094     -4453.69 
  993000    317.42839   -13457.752    69.072142   -13526.824    6786.1743 
  993200     250.9485   -13459.853    54.606177   -13514.459   -4314.5455 
  993400    282.33998   -13475.423    61.436936    -13536.86   -4853.7118 
  993600    247.95975   -13472.743    53.955827   -13526.699    952.14957 
  993800    318.12716   -13455.225    69.224195   -13524.449    9775.0054 
  994000    298.71681   -13464.688    65.000519   -13529.689   -4659.3013 
  994200    262.40074    -13479.01    57.098174   -13536.108   -16489.652 
  994400    313.14537   -13455.064    68.140162   -13523.204   -18407.681 
  994600    246.83712   -13464.514    53.711544   -13518.225    11386.882 
  994800    221.24398   -13476.913    48.142498   -13525.055    1516.6206 
  995000    328.18968   -13459.181    71.413789   -13530.595   -11887.902 
  995200    263.78972   -13473.423    57.400415   -13530.824    8858.0947 
  995400    293.25849   -13463.296    63.812794   -13527.109     20003.98 
  995600    307.41552   -13456.959    66.893352   -13523.852   -2120.9179 
  995800     275.5281   -13468.698    59.954676   -13528.653    8946.9503 
  996000    288.24326   -13476.253    62.721483   -13538.974   -2719.4282 
  996200    283.89133   -13460.782    61.774508   -13522.556   -5401.5837 
  996400    340.59104   -13453.511    74.112316   -13527.623     11137.59 
  996600    303.44661   -13475.226    66.029719   -13541.256    6341.1364 
  996800       253.58   -13472.131    55.178788    -13527.31    21933.674 
  997000    332.45198   -13463.721    72.341262   -13536.062    11693.252 
  997200    292.33708   -13470.466    63.612295   -13534.078    20597.737 
  997400    334.56115    -13457.46    72.800216    -13530.26    894.51291 
  997600    316.85274   -13455.502    68.946881   -13524.449   -830.97548 
  997800    243.62337   -13473.537    53.012234   -13526.549    17579.353 
  998000     314.0617   -13459.692    68.339554   -13528.031   -2108.8184 
  998200    336.30838   -13465.829    73.180413    -13539.01   -10846.189 
  998400    284.16014   -13470.645       61.833   -13532.478   -11573.649 
  998600    332.52131   -13453.082    72.356349   -13525.439   -14867.672 
  998800    294.73119   -13458.015    64.133252   -13522.149    23960.785 
  999000    278.91358   -13481.606    60.691352   -13542.297   -13341.714 
  999200    316.09592   -13466.983    68.782199   -13535.765    7987.2501 
  999400    326.83026   -13456.416    71.117981   -13527.534    10757.431 
  999600    274.41106   -13478.568    59.711608   -13538.279     1924.659 
  999800     291.7786   -13474.001     63.49077   -13537.492    2979.1783 
 1000000    313.42889   -13462.141    68.201854   -13530.343    352.92568 
Loop time of 3430.01 on 8 procs for 1000000 steps with 74 atoms

Performance: 6.297 ns/day, 3.811 hours/ns, 291.544 timesteps/s
96.2% CPU use with 8 MPI tasks x no OpenMP threads

MPI task timing breakdown:
Section |  min time  |  avg time  |  max time  |%varavg| %total
---------------------------------------------------------------
Pair    | 1678.5     | 1801.1     | 1878.4     | 168.5 | 52.51
Neigh   | 0.19328    | 0.20014    | 0.20468    |   0.7 |  0.01
Comm    | 64.641     | 145.64     | 277.83     | 609.9 |  4.25
Output  | 0.12939    | 0.1344     | 0.15707    |   2.4 |  0.00
Modify  | 1468.5     | 1476.6     | 1480.2     |  11.9 | 43.05
Other   |            | 6.353      |            |       |  0.19

Nlocal:    9.25 ave 15 max 0 min
Histogram: 1 1 0 0 0 0 1 1 3 1
Nghost:    513.25 ave 516 max 510 min
Histogram: 1 0 0 3 0 1 0 0 1 2
Neighs:    871.75 ave 1374 max 0 min
Histogram: 1 1 0 0 0 0 1 1 3 1

Total # of neighbors = 6974
Ave neighs/atom = 94.2432
Neighbor list builds = 369
Dangerous builds = 0

Please see the log.cite file for references relevant to this simulation

Total wall time: 0:57:18
