ITEM: TIMESTEP
0
ITEM: NUMBER OF ATOMS
161
ITEM: BOX BOUNDS xy xz yz pp pp pp
-6.7755000000000001e+00 1.3552000000000000e+01 -6.7755000000000001e+00
0.0000000000000000e+00 1.1735510246683001e+01 0.0000000000000000e+00
0.0000000000000000e+00 2.2149999999999999e+01 0.0000000000000000e+00
ITEM: ATOMS id type x y z 
8 1 -2.486 5.297 9.849 
87 1 3.001 4.231 10.696 
90 1 2.733 5.481 9.824 
109 1 -2.486 5.297 0.765 
158 1 2.733 5.481 0.79 
11 1 4.24 4.139 20.131 
14 1 3.031 4.094 19.728 
18 1 1.299 5.827 18.554 
33 1 2.266 4.151 20.924 
43 1 4.343 3.96 21.647 
47 1 3.32 5.732 17.88 
52 1 4.24 4.139 12.633 
76 1 2.552 4.924 14.209 
85 1 4.343 3.96 11.117 
89 1 3.32 5.732 14.883 
91 1 1.036 5.037 11.84 
102 1 3.031 4.094 13.035 
105 1 1.299 5.827 14.209 
114 1 2.266 4.151 11.84 
150 1 2.552 4.924 18.554 
156 1 3.001 4.231 22.068 
159 1 1.036 5.037 20.924 
5 1 -5.049 10.63 8.653 
9 1 -3.317 8.897 7.479 
19 1 -1.707 7.414 10.572 
21 1 -2.66 8.795 10.993 
23 1 -3.31 7.532 6.805 
25 1 -4.284 10.573 9.849 
32 1 1.503 6.367 0.79 
36 1 -1.869 7.426 9.056 
38 1 -2.209 6.086 8.653 
54 1 0.3 8.576 10.696 
57 1 1.291 8.001 9.824 
60 1 -1.707 7.414 0.042 
65 1 -3.31 7.532 3.808 
78 1 -1.869 7.426 1.558 
80 1 -2.566 8.842 1.961 
84 1 -4.57 9.799 3.135 
99 1 -3.054 9.687 0.765 
100 1 -2.96 6.142 3.135 
107 1 -5.049 10.63 1.961 
110 1 -3.317 8.897 3.135 
111 1 0.642 5.929 10.696 
113 1 1.503 6.367 9.824 
119 1 -4.284 10.573 0.765 
127 1 -2.209 6.086 1.961 
131 1 -2.318 6.148 10.993 
138 1 1.291 8.001 0.79 
142 1 -2.566 8.842 8.653 
145 1 -4.57 9.799 7.479 
151 1 -5.019 10.493 10.993 
154 1 -3.054 9.687 9.849 
155 1 -2.96 6.142 7.479 
161 2 -6.258 11.685 9.056 
12 1 2.53 7.1 17.202 
17 1 0.468 9.427 20.924 
24 1 -3.52 8.357 11.865 
27 1 -0.31 7.31 21.647 
29 1 0.642 5.929 22.068 
31 1 1.292 7.192 17.88 
44 1 -0.148 7.298 20.131 
46 1 0.191 8.638 19.728 
51 1 -0.31 7.31 11.117 
53 1 2.53 7.1 15.561 
56 1 1.292 7.192 14.883 
63 1 -2.318 6.148 21.771 
66 1 -3.309 6.723 20.899 
70 1 -0.148 7.298 12.633 
72 1 0.548 5.882 13.035 
92 1 0.942 8.582 14.209 
95 1 -5.019 10.493 21.771 
98 1 -4.751 9.243 20.899 
104 1 0.468 9.427 11.84 
116 1 -2.66 8.795 21.771 
118 1 -3.52 8.357 20.899 
122 1 0.191 8.638 13.035 
133 1 -3.309 6.723 11.865 
136 1 0.3 8.576 22.068 
147 1 0.548 5.882 19.728 
153 1 -4.751 9.243 11.865 
160 1 0.942 8.582 18.554 
1 1 7.976 4.694 10.572 
4 1 9.274 4.77 10.993 
20 1 8.034 4.861 9.056 
42 1 9.55 5.41 7.479 
67 1 10.043 4.578 0.765 
77 1 7.976 4.694 0.042 
94 1 8.035 4.861 1.558 
96 1 9.278 4.635 1.961 
121 1 4.688 5.417 10.696 
130 1 9.55 5.41 3.135 
134 1 10.043 4.578 9.849 
152 1 9.278 4.635 8.653 
45 1 4.688 5.417 22.068 
55 1 4.788 5.329 13.035 
106 1 9.274 4.77 21.771 
137 1 4.788 5.329 19.728 
2 1 7.294 10.585 9.056 
3 1 9.004 7.624 6.127 
6 1 8.556 6.347 6.805 
16 1 2.314 8.72 0.79 
22 1 7.166 6.156 8.653 
26 1 7.226 8.565 7.479 
35 1 7.191 10.764 10.572 
37 1 6.846 9.307 10.993 
39 1 8.214 8.992 6.805 
41 1 6.677 7.002 9.849 
48 1 3.775 6.213 0.79 
61 1 7.294 10.585 1.558 
62 1 9.004 7.624 4.487 
64 1 6.747 9.395 1.961 
68 1 7.437 6.931 3.135 
71 1 4.29 8.493 10.696 
74 1 3.567 7.818 9.824 
81 1 8.556 6.347 3.808 
83 1 6.47 8.606 0.765 
93 1 7.191 10.764 0.042 
97 1 8.214 8.992 3.808 
101 1 2.261 9.954 10.696 
103 1 2.314 8.72 9.824 
117 1 7.166 6.156 1.961 
120 1 7.226 8.565 3.135 
123 1 3.775 6.213 9.824 
129 1 6.677 7.002 0.765 
132 1 6.747 9.395 8.653 
135 1 7.437 6.931 7.479 
141 1 7.244 6.231 10.993 
144 1 6.47 8.606 9.849 
148 1 3.567 7.818 0.79 
7 1 9.22 6.004 11.865 
10 1 3.558 10.029 21.647 
13 1 2.261 9.954 22.068 
15 1 2.978 8.376 17.88 
28 1 3.5 9.862 20.131 
30 1 4.369 8.568 19.728 
34 1 4.308 6.159 18.554 
40 1 7.76 8.511 11.865 
49 1 4.857 7.722 20.924 
50 1 1.984 9.314 18.554 
58 1 1.491 10.146 11.84 
59 1 4.097 7.793 14.209 
69 1 3.558 10.029 11.117 
73 1 2.978 8.376 14.883 
75 1 5.064 6.118 11.84 
79 1 7.244 6.231 21.771 
82 1 7.967 6.906 20.899 
86 1 3.5 9.862 12.633 
88 1 2.256 10.089 13.035 
108 1 9.22 6.004 20.899 
112 1 4.369 8.568 13.035 
115 1 4.308 6.159 14.209 
124 1 4.857 7.722 11.84 
125 1 1.984 9.314 14.209 
126 1 6.846 9.307 21.771 
128 1 7.76 8.511 20.899 
139 1 1.491 10.146 20.924 
140 1 4.097 7.793 18.554 
143 1 7.967 6.906 11.865 
146 1 4.29 8.493 22.068 
149 1 5.064 6.118 20.924 
157 1 2.256 10.089 19.728 
ITEM: TIMESTEP
10
ITEM: NUMBER OF ATOMS
161
ITEM: BOX BOUNDS xy xz yz pp pp pp
-6.7755000000000001e+00 1.3552000000000000e+01 -6.7755000000000001e+00
0.0000000000000000e+00 1.1735510246683001e+01 0.0000000000000000e+00
0.0000000000000000e+00 2.2149999999999999e+01 0.0000000000000000e+00
ITEM: ATOMS id type x y z 
8 1 -2.40654 5.363 9.83982 
87 1 2.99833 4.25328 10.6288 
90 1 2.64396 5.46447 9.75549 
109 1 -2.40725 5.36329 0.775687 
158 1 2.65009 5.45675 0.847073 
11 1 4.29173 4.18117 20.1455 
14 1 2.9189 4.12915 19.6989 
18 1 1.31438 5.85715 18.5962 
33 1 2.14776 4.22146 20.8892 
43 1 4.32702 4.13162 21.5772 
47 1 3.27334 5.79744 17.8328 
52 1 4.29436 4.18945 12.6273 
76 1 2.43173 4.92017 14.1866 
85 1 4.35339 4.11512 11.1892 
89 1 3.27739 5.79583 14.9341 
91 1 1.00055 5.03773 11.8553 
102 1 2.92229 4.12317 13.0645 
105 1 1.32225 5.85669 14.185 
114 1 2.14601 4.21661 11.881 
150 1 2.43427 4.91929 18.5831 
156 1 2.98714 4.25079 22.1195 
159 1 1.00107 5.05643 20.8955 
5 1 -4.85687 10.5787 8.62433 
9 1 -3.34529 8.88257 7.48403 
19 1 -1.76832 7.49954 10.5565 
21 1 -2.59084 8.75857 10.91 
23 1 -3.30812 7.50914 6.8124 
25 1 -4.14893 10.4791 9.82726 
32 1 1.5952 6.34988 0.788978 
36 1 -1.89851 7.52087 9.06745 
38 1 -2.15139 6.20043 8.65004 
54 1 0.283689 8.55124 10.6596 
57 1 1.36722 7.98706 9.77271 
60 1 -1.76078 7.50489 0.0605614 
65 1 -3.31849 7.53014 3.77633 
78 1 -1.91038 7.53357 1.55684 
80 1 -2.55945 8.78473 1.88681 
84 1 -4.46186 9.80737 3.1225 
99 1 -3.00654 9.64089 0.794138 
100 1 -2.91064 6.26112 3.17582 
107 1 -4.92449 10.6107 1.98993 
110 1 -3.32359 8.87001 3.09588 
111 1 0.582978 5.95805 10.826 
113 1 1.5957 6.3516 9.82768 
119 1 -4.13354 10.4816 0.809351 
127 1 -2.15721 6.20286 1.96599 
131 1 -2.30916 6.2004 11.0152 
138 1 1.35599 7.98938 0.833719 
142 1 -2.53514 8.78828 8.75177 
145 1 -4.481 9.83755 7.48501 
151 1 -4.9959 10.4435 11.0618 
154 1 -3.00047 9.63963 9.83765 
155 1 -2.92087 6.24542 7.4341 
161 2 -6.31932 11.7896 8.97961 
12 1 2.57021 7.05404 17.1296 
17 1 0.391573 9.37318 20.9103 
24 1 -3.5537 8.38268 11.8703 
27 1 -0.272771 7.2344 21.6258 
29 1 0.58016 5.95523 21.9398 
31 1 1.29617 7.17398 17.9151 
44 1 -0.11895 7.20872 20.1382 
46 1 0.137453 8.52477 19.7134 
51 1 -0.286298 7.23107 11.1425 
53 1 2.57528 7.06198 15.6333 
56 1 1.29803 7.17581 14.8487 
63 1 -2.31166 6.19719 21.7472 
66 1 -3.36261 6.70109 20.8617 
70 1 -0.123122 7.21504 12.6138 
72 1 0.521279 5.93588 12.9274 
92 1 0.906276 8.47102 14.2541 
95 1 -5.00165 10.4702 21.6975 
98 1 -4.70405 9.28178 20.8293 
104 1 0.394986 9.37614 11.8555 
116 1 -2.58443 8.77009 21.8834 
118 1 -3.61659 8.37013 20.8697 
122 1 0.131607 8.52804 13.0498 
133 1 -3.36982 6.74929 11.9043 
136 1 0.289155 8.5365 22.0995 
147 1 0.537612 5.93035 19.8389 
153 1 -4.67833 9.21362 11.9092 
160 1 0.901084 8.47325 18.5152 
1 1 7.86962 4.93456 10.5135 
4 1 9.19172 4.75934 11.0589 
20 1 7.8863 4.94358 9.07519 
42 1 9.45951 5.41492 7.43149 
67 1 9.98553 4.54091 0.770541 
77 1 7.88344 4.92609 0.104049 
94 1 7.89088 4.95112 1.53541 
96 1 9.19159 4.63871 1.97926 
121 1 4.65785 5.40086 10.7408 
130 1 9.4629 5.40769 3.18555 
134 1 9.99571 4.53796 9.83342 
152 1 9.19833 4.64452 8.62176 
45 1 4.67591 5.40158 22.034 
55 1 4.81141 5.47521 13.0541 
106 1 9.18763 4.76161 21.7219 
137 1 4.81184 5.47165 19.7006 
2 1 7.1987 10.6463 9.07589 
3 1 8.96861 7.63732 6.04256 
6 1 8.5274 6.40057 6.82973 
16 1 2.34371 8.69576 0.838707 
22 1 7.16757 6.18339 8.71214 
26 1 7.14931 8.43612 7.54583 
35 1 7.2215 10.5787 10.6004 
37 1 6.85281 9.26819 11.0019 
39 1 8.29358 8.89517 6.78623 
41 1 6.72973 7.01462 9.8272 
48 1 3.73579 6.364 0.844993 
61 1 7.23188 10.549 1.54816 
62 1 8.95931 7.65823 4.54063 
64 1 6.70977 9.23789 1.9885 
68 1 7.40698 6.96434 3.05608 
71 1 4.28387 8.55286 10.7791 
74 1 3.62723 7.81134 9.84748 
81 1 8.53623 6.41552 3.78832 
83 1 6.54808 8.44011 0.782976 
93 1 7.16991 10.6139 0.113327 
97 1 8.2625 8.92147 3.84384 
101 1 2.35352 9.94411 10.6606 
103 1 2.34557 8.70139 9.77738 
117 1 7.16175 6.18765 1.87992 
120 1 7.18298 8.43088 3.07229 
123 1 3.73587 6.36759 9.76406 
129 1 6.74214 7.02655 0.786071 
132 1 6.69832 9.18876 8.63881 
135 1 7.42079 6.96015 7.55757 
141 1 7.25385 6.17939 10.9172 
144 1 6.54589 8.45801 9.79939 
148 1 3.62608 7.80485 0.768739 
7 1 9.20033 6.04762 11.9175 
10 1 3.6442 9.80308 21.6103 
13 1 2.34756 9.95188 22.106 
15 1 3.00613 8.32992 17.8963 
28 1 3.65584 9.78279 20.1333 
30 1 4.36799 8.53468 19.788 
34 1 4.35766 6.29123 18.6279 
40 1 7.73643 8.37005 11.8836 
49 1 4.80721 7.71052 20.9026 
50 1 2.05799 9.31435 18.5154 
58 1 1.55634 10.1825 11.8344 
59 1 4.13156 7.76251 14.1216 
69 1 3.64035 9.80059 11.1716 
73 1 2.9999 8.32332 14.8581 
75 1 4.99149 6.25715 11.8639 
79 1 7.23961 6.1776 21.8682 
82 1 7.90525 6.91967 20.9184 
86 1 3.6412 9.76938 12.6151 
88 1 2.34262 10.0765 13.0609 
108 1 9.19621 6.03495 20.845 
112 1 4.3613 8.54519 12.967 
115 1 4.35976 6.29269 14.1327 
124 1 4.80309 7.70254 11.8604 
125 1 2.06669 9.31122 14.2502 
126 1 6.86809 9.31721 21.8102 
128 1 7.82065 8.36157 20.8419 
139 1 1.55594 10.1813 20.928 
140 1 4.14022 7.7584 18.6461 
143 1 7.89613 6.96841 11.8432 
146 1 4.28382 8.5525 21.9939 
149 1 4.99912 6.25603 20.8995 
157 1 2.32018 10.081 19.6981 
ITEM: TIMESTEP
20
ITEM: NUMBER OF ATOMS
161
ITEM: BOX BOUNDS xy xz yz pp pp pp
-6.7755000000000001e+00 1.3552000000000000e+01 -6.7755000000000001e+00
0.0000000000000000e+00 1.1735510246683001e+01 0.0000000000000000e+00
0.0000000000000000e+00 2.2149999999999999e+01 0.0000000000000000e+00
ITEM: ATOMS id type x y z 
8 1 -2.41668 5.38139 9.84256 
87 1 2.97856 4.26941 10.6518 
90 1 2.6595 5.45754 9.76726 
109 1 -2.41717 5.38294 0.773288 
158 1 2.6575 5.45755 0.848004 
11 1 4.28917 4.19528 20.1226 
14 1 2.9088 4.13714 19.6896 
18 1 1.31772 5.8622 18.5939 
33 1 2.1372 4.22012 20.9071 
43 1 4.3068 4.15923 21.5772 
47 1 3.26026 5.79918 17.8354 
52 1 4.28323 4.20564 12.6378 
76 1 2.43586 4.9288 14.1801 
85 1 4.32462 4.13659 11.1794 
89 1 3.25741 5.79674 14.928 
91 1 0.985469 5.05792 11.8552 
102 1 2.90913 4.13595 13.0737 
105 1 1.31916 5.86151 14.1718 
114 1 2.14031 4.22557 11.8531 
150 1 2.43518 4.93181 18.5849 
156 1 2.97782 4.26264 22.1128 
159 1 0.987328 5.0578 20.9102 
5 1 -4.86773 10.5525 8.63053 
9 1 -3.32008 8.86107 7.5045 
19 1 -1.76516 7.49879 10.5539 
21 1 -2.61023 8.76986 10.9422 
23 1 -3.3015 7.53663 6.8262 
25 1 -4.13795 10.4636 9.82735 
32 1 1.58873 6.3555 0.759345 
36 1 -1.89688 7.5436 9.06197 
38 1 -2.15754 6.2184 8.64236 
54 1 0.306331 8.52171 10.6726 
57 1 1.35979 7.97934 9.79148 
60 1 -1.76817 7.51924 0.0575126 
65 1 -3.3048 7.53593 3.7779 
78 1 -1.89705 7.54754 1.55481 
80 1 -2.55321 8.78803 1.88939 
84 1 -4.46531 9.80726 3.10578 
99 1 -2.99032 9.62405 0.781839 
100 1 -2.93077 6.26316 3.17596 
107 1 -4.91771 10.587 1.9914 
110 1 -3.32703 8.87007 3.10763 
111 1 0.609428 5.96187 10.8156 
113 1 1.59008 6.36086 9.85554 
119 1 -4.14136 10.4697 0.782521 
127 1 -2.15909 6.21567 1.96899 
131 1 -2.32454 6.21074 11.0121 
138 1 1.35673 7.97686 0.824091 
142 1 -2.55448 8.78936 8.72192 
145 1 -4.46314 9.81194 7.50225 
151 1 -4.98209 10.4203 11.0581 
154 1 -2.98338 9.61382 9.83333 
155 1 -2.93108 6.26079 7.43799 
161 2 -6.33396 11.7774 8.96938 
12 1 2.56553 7.06763 17.1477 
17 1 0.395091 9.3488 20.9171 
24 1 -3.53533 8.37462 11.8485 
27 1 -0.268712 7.23775 21.6251 
29 1 0.604314 5.96251 21.9498 
31 1 1.29098 7.17052 17.9166 
44 1 -0.138004 7.2009 20.1454 
46 1 0.138239 8.51799 19.7125 
51 1 -0.272767 7.23942 11.1339 
53 1 2.56689 7.06997 15.6188 
56 1 1.29138 7.17177 14.8484 
63 1 -2.32235 6.20981 21.7527 
66 1 -3.3646 6.70874 20.8659 
70 1 -0.133697 7.20041 12.6163 
72 1 0.529586 5.92942 12.9179 
92 1 0.916728 8.45648 14.249 
95 1 -4.99468 10.4584 21.7353 
98 1 -4.69909 9.28899 20.8292 
104 1 0.398961 9.34691 11.8447 
116 1 -2.6326 8.75336 21.8374 
118 1 -3.60631 8.3841 20.9081 
122 1 0.139368 8.51813 13.0521 
133 1 -3.37902 6.76519 11.8977 
136 1 0.306121 8.52114 22.09 
147 1 0.530779 5.93095 19.8494 
153 1 -4.6754 9.20076 11.9062 
160 1 0.91474 8.45738 18.5121 
1 1 7.86867 4.91052 10.5347 
4 1 9.17697 4.8011 11.022 
20 1 7.8753 4.9424 9.07065 
42 1 9.46077 5.43854 7.43954 
67 1 9.97867 4.55604 0.762126 
77 1 7.87405 4.91999 0.0838837 
94 1 7.87018 4.94199 1.54203 
96 1 9.1894 4.6561 2.0004 
121 1 4.65577 5.45243 10.722 
130 1 9.46284 5.43519 3.17446 
134 1 9.97677 4.55758 9.85555 
152 1 9.18967 4.65753 8.61561 
45 1 4.66928 5.45353 22.0485 
55 1 4.81595 5.49471 13.0663 
106 1 9.17091 4.78162 21.7464 
137 1 4.81663 5.49508 19.6993 
2 1 7.21538 10.6341 9.06863 
3 1 8.98055 7.641 6.06459 
6 1 8.51473 6.38368 6.82098 
16 1 2.35299 8.68238 0.85751 
22 1 7.13679 6.19026 8.71076 
26 1 7.16499 8.43328 7.55301 
35 1 7.24779 10.541 10.5867 
37 1 6.84951 9.24603 11.0161 
39 1 8.28535 8.9046 6.78251 
41 1 6.72875 6.99885 9.82959 
48 1 3.71058 6.36076 0.832623 
61 1 7.24961 10.5199 1.56113 
62 1 8.97047 7.65404 4.53414 
64 1 6.71672 9.22807 1.98986 
68 1 7.40208 6.97045 3.05951 
71 1 4.3096 8.53001 10.7682 
74 1 3.60643 7.79255 9.82896 
81 1 8.52294 6.38956 3.78837 
83 1 6.55046 8.44294 0.784054 
93 1 7.2123 10.5764 0.111798 
97 1 8.27531 8.93374 3.84584 
101 1 2.36457 9.93984 10.6695 
103 1 2.351 8.69354 9.76338 
117 1 7.13313 6.19632 1.90054 
120 1 7.18558 8.4226 3.06733 
123 1 3.70797 6.36474 9.77722 
129 1 6.73414 7.00941 0.778469 
132 1 6.72427 9.19379 8.63756 
135 1 7.4086 6.96385 7.55427 
141 1 7.23242 6.21228 10.9253 
144 1 6.54615 8.4389 9.78765 
148 1 3.60396 7.79145 0.78772 
7 1 9.18333 6.04933 11.9118 
10 1 3.6729 9.82189 21.6017 
13 1 2.35668 9.95184 22.1011 
15 1 3.01393 8.33049 17.9 
28 1 3.6634 9.77855 20.1294 
30 1 4.39104 8.53294 19.7974 
34 1 4.34531 6.29887 18.6244 
40 1 7.74171 8.37415 11.8841 
49 1 4.80811 7.71611 20.9077 
50 1 2.0717 9.28243 18.5121 
58 1 1.55822 10.1699 11.8372 
59 1 4.13229 7.75367 14.1333 
69 1 3.65862 9.80571 11.1622 
73 1 3.01112 8.33074 14.8645 
75 1 4.98838 6.28228 11.8575 
79 1 7.22682 6.19713 21.8436 
82 1 7.92903 6.93434 20.9047 
86 1 3.6634 9.78293 12.6195 
88 1 2.34322 10.0665 13.0752 
108 1 9.17903 6.02439 20.8388 
112 1 4.39876 8.52745 12.9706 
115 1 4.34479 6.30136 14.1407 
124 1 4.80523 7.71353 11.8543 
125 1 2.07034 9.28436 14.2501 
126 1 6.8702 9.27364 21.7925 
128 1 7.84362 8.35952 20.8624 
139 1 1.55346 10.171 20.9222 
140 1 4.13361 7.75684 18.6313 
143 1 7.91769 6.96009 11.8545 
146 1 4.31466 8.51849 21.9945 
149 1 4.99193 6.27925 20.9035 
157 1 2.34565 10.0648 19.6875 
ITEM: TIMESTEP
30
ITEM: NUMBER OF ATOMS
161
ITEM: BOX BOUNDS xy xz yz pp pp pp
-6.7755000000000001e+00 1.3552000000000000e+01 -6.7755000000000001e+00
0.0000000000000000e+00 1.1735510246683001e+01 0.0000000000000000e+00
0.0000000000000000e+00 2.2149999999999999e+01 0.0000000000000000e+00
ITEM: ATOMS id type x y z 
8 1 -2.43108 5.4059 9.83708 
87 1 2.96453 4.2747 10.6412 
90 1 2.64083 5.45747 9.7812 
109 1 -2.43256 5.40824 0.780201 
158 1 2.63783 5.45505 0.836637 
11 1 4.28118 4.22255 20.1143 
14 1 2.89765 4.14854 19.696 
18 1 1.30634 5.86188 18.6008 
33 1 2.11724 4.2181 20.9074 
43 1 4.28915 4.21234 21.56 
47 1 3.24742 5.80302 17.826 
52 1 4.27751 4.22842 12.6409 
76 1 2.42716 4.93947 14.1783 
85 1 4.29822 4.19983 11.1916 
89 1 3.24733 5.80315 14.9384 
91 1 0.96991 5.0485 11.8464 
102 1 2.89781 4.15066 13.0685 
105 1 1.30615 5.861 14.1637 
114 1 2.11729 4.22068 11.8578 
150 1 2.42822 4.94119 18.5859 
156 1 2.96433 4.2751 22.1229 
159 1 0.971086 5.04927 20.919 
5 1 -4.85783 10.5253 8.64194 
9 1 -3.30051 8.86455 7.49036 
19 1 -1.76011 7.51579 10.5567 
21 1 -2.58427 8.7787 10.9619 
23 1 -3.29552 7.5373 6.82058 
25 1 -4.11326 10.4403 9.82549 
32 1 1.60446 6.37787 0.751487 
36 1 -1.87577 7.56226 9.06183 
38 1 -2.15789 6.2367 8.63989 
54 1 0.321113 8.50737 10.6672 
57 1 1.37403 7.95836 9.80179 
60 1 -1.77162 7.53278 0.0552825 
65 1 -3.29801 7.54094 3.78761 
78 1 -1.8786 7.56674 1.55018 
80 1 -2.53807 8.79711 1.89761 
84 1 -4.4577 9.79527 3.10772 
99 1 -2.97812 9.60474 0.770733 
100 1 -2.93544 6.27936 3.1709 
107 1 -4.90292 10.571 1.98448 
110 1 -3.31212 8.87619 3.11639 
111 1 0.608099 5.96518 10.8103 
113 1 1.60534 6.38087 9.86299 
119 1 -4.11237 10.4521 0.784306 
127 1 -2.15761 6.23725 1.97182 
131 1 -2.33603 6.22846 11.014 
138 1 1.37262 7.95822 0.814032 
142 1 -2.53543 8.79384 8.7129 
145 1 -4.45328 9.79241 7.5071 
151 1 -4.96655 10.3871 11.0589 
154 1 -2.96408 9.6027 9.83976 
155 1 -2.93486 6.27567 7.44255 
161 2 -6.35893 11.7601 8.95188 
12 1 2.56502 7.07164 17.1515 
17 1 0.413821 9.32622 20.914 
24 1 -3.52545 8.34666 11.8601 
27 1 -0.274038 7.2333 21.627 
29 1 0.6056 5.96479 21.9554 
31 1 1.2818 7.16821 17.9145 
44 1 -0.165405 7.18991 20.1467 
46 1 0.135317 8.50068 19.7104 
51 1 -0.276283 7.23177 11.1336 
53 1 2.56565 7.07212 15.6125 
56 1 1.28236 7.1676 14.8503 
63 1 -2.33488 6.22752 21.7507 
66 1 -3.37976 6.72927 20.8684 
70 1 -0.162322 7.18988 12.6169 
72 1 0.517787 5.93018 12.9084 
92 1 0.920937 8.44123 14.2462 
95 1 -4.97286 10.4477 21.7271 
98 1 -4.66983 9.28742 20.8392 
104 1 0.41586 9.3269 11.8493 
116 1 -2.63462 8.75958 21.8077 
118 1 -3.6212 8.36522 20.9025 
122 1 0.137105 8.50059 13.0519 
133 1 -3.38581 6.78164 11.894 
136 1 0.319103 8.50627 22.0952 
147 1 0.51802 5.9303 19.8571 
153 1 -4.66775 9.18871 11.9161 
160 1 0.919888 8.44189 18.5168 
1 1 7.82391 4.91262 10.5399 
4 1 9.15181 4.83985 11.0126 
20 1 7.84221 4.94544 9.07219 
42 1 9.44964 5.45365 7.44381 
67 1 9.96653 4.57826 0.773305 
77 1 7.8344 4.92318 0.0825032 
94 1 7.83606 4.94765 1.54787 
96 1 9.16628 4.67995 1.99754 
121 1 4.65134 5.50006 10.6934 
130 1 9.4509 5.45427 3.17202 
134 1 9.96549 4.58159 9.84503 
152 1 9.16898 4.67988 8.61817 
45 1 4.65167 5.49994 22.0741 
55 1 4.8154 5.51988 13.0659 
106 1 9.14922 4.80712 21.7598 
137 1 4.81747 5.51795 19.6982 
2 1 7.21665 10.6261 9.05674 
3 1 8.96917 7.64621 6.07286 
6 1 8.50909 6.38935 6.81056 
16 1 2.35897 8.6943 0.856963 
22 1 7.10993 6.17761 8.70021 
26 1 7.17942 8.42717 7.5521 
35 1 7.26227 10.5027 10.5758 
37 1 6.85121 9.22032 11.0243 
39 1 8.28755 8.90443 6.76644 
41 1 6.71248 6.98755 9.82768 
48 1 3.69779 6.35099 0.826594 
61 1 7.25939 10.4949 1.57011 
62 1 8.97048 7.6469 4.53219 
64 1 6.71826 9.20628 1.99079 
68 1 7.38908 6.9625 3.06346 
71 1 4.31818 8.52295 10.746 
74 1 3.59325 7.7984 9.81131 
81 1 8.51055 6.3895 3.80133 
83 1 6.54551 8.4174 0.790717 
93 1 7.2349 10.5269 0.1247 
97 1 8.28524 8.92621 3.8575 
101 1 2.38592 9.90983 10.6782 
103 1 2.35954 8.69535 9.75809 
117 1 7.10633 6.18299 1.90822 
120 1 7.19558 8.4172 3.07715 
123 1 3.69897 6.3519 9.78727 
129 1 6.71697 6.9912 0.774797 
132 1 6.74966 9.18722 8.6433 
135 1 7.39286 6.95535 7.55142 
141 1 7.22076 6.21279 10.932 
144 1 6.5475 8.42088 9.77791 
148 1 3.59494 7.79838 0.801083 
7 1 9.16806 6.05682 11.9148 
10 1 3.71955 9.83678 21.6163 
13 1 2.38574 9.89776 22.0723 
15 1 3.02216 8.3256 17.8864 
28 1 3.68775 9.77289 20.14 
30 1 4.42143 8.54206 19.7816 
34 1 4.3363 6.30904 18.6137 
40 1 7.74203 8.37337 11.8975 
49 1 4.82331 7.73136 20.9175 
50 1 2.08565 9.26524 18.5152 
58 1 1.57204 10.1482 11.8468 
59 1 4.1446 7.7623 14.1372 
69 1 3.69737 9.79812 11.1601 
73 1 3.02076 8.32846 14.8775 
75 1 4.99033 6.30593 11.8671 
79 1 7.22181 6.20546 21.8211 
82 1 7.94267 6.92771 20.8892 
86 1 3.69775 9.77842 12.6233 
88 1 2.36765 10.0433 13.0732 
108 1 9.17398 6.02256 20.8271 
112 1 4.42671 8.53982 12.9824 
115 1 4.33646 6.30735 14.1516 
124 1 4.81981 7.73373 11.8496 
125 1 2.08288 9.26636 14.2476 
126 1 6.8841 9.22688 21.768 
128 1 7.83335 8.3729 20.8666 
139 1 1.56695 10.1515 20.9204 
140 1 4.14646 7.76229 18.6262 
143 1 7.91908 6.95101 11.8755 
146 1 4.31757 8.5097 22.0141 
149 1 4.99251 6.30471 20.8973 
157 1 2.3681 10.0417 19.6877 
ITEM: TIMESTEP
40
ITEM: NUMBER OF ATOMS
161
ITEM: BOX BOUNDS xy xz yz pp pp pp
-6.7755000000000001e+00 1.3552000000000000e+01 -6.7755000000000001e+00
0.0000000000000000e+00 1.1735510246683001e+01 0.0000000000000000e+00
0.0000000000000000e+00 2.2149999999999999e+01 0.0000000000000000e+00
ITEM: ATOMS id type x y z 
8 1 -2.45174 5.44861 9.83495 
87 1 2.95258 4.29735 10.6378 
90 1 2.61786 5.45411 9.77086 
109 1 -2.45527 5.45175 0.785786 
158 1 2.61644 5.45552 0.845296 
11 1 4.26823 4.27208 20.0995 
14 1 2.87254 4.16533 19.7089 
18 1 1.29156 5.86752 18.6091 
33 1 2.08941 4.21744 20.9096 
43 1 4.26766 4.27649 21.5366 
47 1 3.2318 5.79914 17.8268 
52 1 4.26957 4.2705 12.6602 
76 1 2.4047 4.94454 14.1783 
85 1 4.2707 4.27632 11.2212 
89 1 3.23183 5.79784 14.9382 
91 1 0.937532 5.03669 11.8362 
102 1 2.87361 4.16812 13.0528 
105 1 1.29111 5.8667 14.1564 
114 1 2.08998 4.21516 11.8551 
150 1 2.40393 4.94312 18.587 
156 1 2.95115 4.29872 22.1261 
159 1 0.938683 5.03889 20.9281 
5 1 -4.83707 10.4879 8.66078 
9 1 -3.28194 8.86244 7.4714 
19 1 -1.75131 7.54609 10.5583 
21 1 -2.53939 8.79789 10.9911 
23 1 -3.30036 7.53015 6.80984 
25 1 -4.08372 10.4069 9.83564 
32 1 1.58906 6.40533 0.756075 
36 1 -1.84066 7.59014 9.05185 
38 1 -2.14573 6.2714 8.64046 
54 1 0.336945 8.48828 10.6701 
57 1 1.39177 7.94335 9.80269 
60 1 -1.77573 7.56449 0.0450821 
65 1 -3.30039 7.53862 3.7948 
78 1 -1.84896 7.59881 1.55391 
80 1 -2.50495 8.8132 1.91477 
84 1 -4.43239 9.79006 3.11667 
99 1 -2.94779 9.58149 0.759661 
100 1 -2.93494 6.29139 3.16502 
107 1 -4.8738 10.5433 1.9741 
110 1 -3.28988 8.87729 3.13392 
111 1 0.582354 5.95206 10.8092 
113 1 1.5912 6.40501 9.85862 
119 1 -4.08441 10.4354 0.785116 
127 1 -2.14665 6.2759 1.97143 
131 1 -2.34866 6.25498 11.0109 
138 1 1.39031 7.94402 0.810665 
142 1 -2.50161 8.80646 8.69235 
145 1 -4.42592 9.79044 7.50811 
151 1 -4.94739 10.3355 11.0528 
154 1 -2.9151 9.57952 9.84797 
155 1 -2.93502 6.28159 7.44688 
161 2 -6.40592 11.7323 8.91721 
12 1 2.56714 7.05472 17.1479 
17 1 0.43587 9.28931 20.9108 
24 1 -3.49235 8.33001 11.881 
27 1 -0.283682 7.21281 21.6259 
29 1 0.578535 5.95793 21.9552 
31 1 1.2836 7.17207 17.9148 
44 1 -0.20807 7.16776 20.1445 
46 1 0.121509 8.47333 19.7143 
51 1 -0.278045 7.21175 11.1375 
53 1 2.56791 7.05699 15.6142 
56 1 1.28245 7.17072 14.8493 
63 1 -2.35422 6.25334 21.7528 
66 1 -3.40232 6.74984 20.8594 
70 1 -0.205909 7.16809 12.6227 
72 1 0.489274 5.92065 12.9057 
92 1 0.917728 8.43609 14.2385 
95 1 -4.95612 10.4207 21.7239 
98 1 -4.65253 9.28195 20.82 
104 1 0.438781 9.28954 11.8515 
116 1 -2.60459 8.766 21.7777 
118 1 -3.611 8.33198 20.8801 
122 1 0.122623 8.47342 13.0504 
133 1 -3.39307 6.7932 11.9011 
136 1 0.33479 8.48467 22.0951 
147 1 0.490183 5.91956 19.8584 
153 1 -4.65407 9.15373 11.9476 
160 1 0.917567 8.43737 18.5251 
1 1 7.7546 4.89846 10.5405 
4 1 9.10122 4.88381 10.9947 
20 1 7.79011 4.94541 9.07704 
42 1 9.43516 5.47246 7.44996 
67 1 9.93823 4.62112 0.7823 
77 1 7.76822 4.9042 0.0793003 
94 1 7.78327 4.95247 1.55118 
96 1 9.11418 4.71343 1.99821 
121 1 4.62889 5.54668 10.6741 
130 1 9.43662 5.47416 3.16618 
134 1 9.93529 4.63113 9.84125 
152 1 9.11849 4.7108 8.62234 
45 1 4.62854 5.54659 22.0864 
55 1 4.81449 5.56136 13.0687 
106 1 9.11143 4.84559 21.7793 
137 1 4.81788 5.56158 19.694 
2 1 7.22533 10.6062 9.04368 
3 1 8.95638 7.66481 6.07137 
6 1 8.4982 6.39447 6.81187 
16 1 2.38008 8.6904 0.861926 
22 1 7.05283 6.15666 8.67779 
26 1 7.19538 8.40609 7.54466 
35 1 7.28449 10.4562 10.5653 
37 1 6.86032 9.18052 11.0287 
39 1 8.30666 8.91463 6.75865 
41 1 6.68096 6.96361 9.82368 
48 1 3.68184 6.35666 0.854641 
61 1 7.27718 10.4523 1.58201 
62 1 8.95978 7.6587 4.53897 
64 1 6.71999 9.16455 1.9931 
68 1 7.36812 6.94749 3.07413 
71 1 4.34471 8.51985 10.7216 
74 1 3.60332 7.81625 9.77617 
81 1 8.50108 6.39521 3.80657 
83 1 6.53541 8.38325 0.79708 
93 1 7.27198 10.456 0.148166 
97 1 8.30056 8.92534 3.86312 
101 1 2.42961 9.87713 10.6939 
103 1 2.38017 8.6939 9.74396 
117 1 7.05075 6.16671 1.92911 
120 1 7.20128 8.39202 3.0947 
123 1 3.68435 6.35864 9.75958 
129 1 6.6815 6.96117 0.773816 
132 1 6.77901 9.16615 8.64315 
135 1 7.37204 6.94486 7.53901 
141 1 7.18636 6.21899 10.9437 
144 1 6.54877 8.39744 9.77975 
148 1 3.60551 7.81474 0.832461 
7 1 9.14146 6.07329 11.922 
10 1 3.78877 9.83928 21.6201 
13 1 2.43849 9.86665 22.0615 
15 1 3.03033 8.32134 17.8801 
28 1 3.74658 9.76648 20.1519 
30 1 4.47958 8.55675 19.764 
34 1 4.33264 6.33084 18.5929 
40 1 7.74252 8.35918 11.9284 
49 1 4.85259 7.76507 20.9126 
50 1 2.09905 9.24499 18.5201 
58 1 1.60474 10.1091 11.8563 
59 1 4.16518 7.77616 14.1508 
69 1 3.76143 9.80613 11.1576 
73 1 3.02859 8.32138 14.8815 
75 1 4.99898 6.34406 11.8701 
79 1 7.19908 6.21463 21.7987 
82 1 7.93698 6.91668 20.8598 
86 1 3.75501 9.77543 12.6265 
88 1 2.41905 10.0104 13.073 
108 1 9.15871 6.0211 20.8108 
112 1 4.4834 8.55764 13.0043 
115 1 4.33108 6.33105 14.1704 
124 1 4.85427 7.76268 11.8532 
125 1 2.09809 9.24859 14.2421 
126 1 6.90557 9.184 21.7584 
128 1 7.84523 8.36936 20.8294 
139 1 1.60367 10.1043 20.9021 
140 1 4.16301 7.77534 18.6124 
143 1 7.89489 6.93704 11.9119 
146 1 4.33687 8.52303 22.0382 
149 1 4.9972 6.34127 20.8952 
157 1 2.41364 10.0122 19.6914 
ITEM: TIMESTEP
50
ITEM: NUMBER OF ATOMS
161
ITEM: BOX BOUNDS xy xz yz pp pp pp
-6.7755000000000001e+00 1.3552000000000000e+01 -6.7755000000000001e+00
0.0000000000000000e+00 1.1735510246683001e+01 0.0000000000000000e+00
0.0000000000000000e+00 2.2149999999999999e+01 0.0000000000000000e+00
ITEM: ATOMS id type x y z 
8 1 -2.46381 5.46611 9.82811 
87 1 2.94693 4.3118 10.6422 
90 1 2.61257 5.4708 9.75506 
109 1 -2.46676 5.46833 0.789948 
158 1 2.61107 5.46952 0.859367 
11 1 4.25616 4.29215 20.091 
14 1 2.86582 4.17031 19.7081 
18 1 1.28541 5.87181 18.6097 
33 1 2.08383 4.22103 20.9197 
43 1 4.26188 4.28923 21.5337 
47 1 3.22816 5.79676 17.8329 
52 1 4.2569 4.2914 12.6695 
76 1 2.39351 4.94169 14.175 
85 1 4.26509 4.28646 11.2277 
89 1 3.22769 5.79775 14.9318 
91 1 0.923588 5.02744 11.8387 
102 1 2.86663 4.17107 13.0562 
105 1 1.28586 5.87084 14.1545 
114 1 2.08415 4.22071 11.8426 
150 1 2.39354 4.9429 18.5873 
156 1 2.94501 4.31057 22.1211 
159 1 0.922252 5.03179 20.9285 
5 1 -4.82857 10.4781 8.66516 
9 1 -3.27151 8.85918 7.46871 
19 1 -1.74931 7.55565 10.551 
21 1 -2.52462 8.7935 10.9959 
23 1 -3.29641 7.53221 6.81059 
25 1 -4.06732 10.3898 9.83943 
32 1 1.5768 6.39128 0.758865 
36 1 -1.82358 7.60038 9.05224 
38 1 -2.14576 6.27538 8.63913 
54 1 0.346964 8.4742 10.6676 
57 1 1.39679 7.95322 9.79947 
60 1 -1.77114 7.57217 0.0517587 
65 1 -3.30081 7.53839 3.79877 
78 1 -1.83515 7.61229 1.55646 
80 1 -2.49229 8.81987 1.91769 
84 1 -4.41866 9.79375 3.12011 
99 1 -2.93454 9.58674 0.758898 
100 1 -2.9342 6.29125 3.16291 
107 1 -4.86527 10.5372 1.97683 
110 1 -3.28199 8.87543 3.13772 
111 1 0.572151 5.94898 10.8064 
113 1 1.57802 6.3884 9.8562 
119 1 -4.0798 10.4227 0.770905 
127 1 -2.14536 6.28486 1.97133 
131 1 -2.3569 6.27107 11.013 
138 1 1.39351 7.95097 0.813413 
142 1 -2.48328 8.81199 8.68946 
145 1 -4.41462 9.79166 7.50895 
151 1 -4.93918 10.3132 11.0616 
154 1 -2.89784 9.58315 9.84946 
155 1 -2.93538 6.28264 7.44844 
161 2 -6.42857 11.7144 8.89953 
12 1 2.56732 7.05556 17.1512 
17 1 0.449406 9.27576 20.9065 
24 1 -3.48151 8.33242 11.8936 
27 1 -0.288088 7.20797 21.6199 
29 1 0.569189 5.95068 21.9583 
31 1 1.2815 7.17043 17.9163 
44 1 -0.221638 7.15843 20.139 
46 1 0.116462 8.46685 19.7146 
51 1 -0.281244 7.20587 11.144 
53 1 2.56665 7.05562 15.6128 
56 1 1.281 7.171 14.8482 
63 1 -2.36614 6.2662 21.7495 
66 1 -3.40533 6.73936 20.8533 
70 1 -0.218336 7.15891 12.6247 
72 1 0.474788 5.91106 12.9035 
92 1 0.917166 8.43789 14.2362 
95 1 -4.94579 10.4003 21.7229 
98 1 -4.64477 9.26995 20.8012 
104 1 0.451947 9.2779 11.8589 
116 1 -2.60356 8.77043 21.7728 
118 1 -3.59855 8.34912 20.8665 
122 1 0.118229 8.46744 13.0494 
133 1 -3.39497 6.79491 11.905 
136 1 0.342217 8.47365 22.0957 
147 1 0.473164 5.91224 19.861 
153 1 -4.64333 9.14172 11.9535 
160 1 0.916207 8.438 18.5276 
1 1 7.72856 4.90175 10.5452 
4 1 9.08079 4.89866 11.0002 
20 1 7.75993 4.94821 9.07038 
42 1 9.42831 5.47894 7.4572 
67 1 9.92423 4.64414 0.792249 
77 1 7.73871 4.89038 0.0727505 
94 1 7.7604 4.95751 1.54437 
96 1 9.10007 4.72273 1.99828 
121 1 4.61907 5.56408 10.6844 
130 1 9.43058 5.48189 3.16264 
134 1 9.91588 4.65733 9.83657 
152 1 9.10235 4.72267 8.62451 
45 1 4.618 5.56249 22.0803 
55 1 4.81653 5.57953 13.0748 
106 1 9.08392 4.85817 21.7819 
137 1 4.81695 5.57919 19.6889 
2 1 7.2413 10.5966 9.04717 
3 1 8.95381 7.66219 6.0772 
6 1 8.49156 6.39806 6.80789 
16 1 2.39532 8.69076 0.863038 
22 1 7.02993 6.14806 8.67096 
26 1 7.20305 8.40691 7.53726 
35 1 7.29457 10.4394 10.5649 
37 1 6.86604 9.1668 11.035 
39 1 8.30818 8.92262 6.76439 
41 1 6.66743 6.9535 9.81921 
48 1 3.67092 6.36926 0.870041 
61 1 7.28941 10.4309 1.5984 
62 1 8.96024 7.65746 4.53822 
64 1 6.72187 9.1508 2.00032 
68 1 7.35701 6.93731 3.08089 
71 1 4.36148 8.51469 10.7209 
74 1 3.61616 7.82155 9.76658 
81 1 8.49438 6.39762 3.80973 
83 1 6.53707 8.37532 0.785874 
93 1 7.27607 10.4469 0.157134 
97 1 8.3042 8.92893 3.8552 
101 1 2.44825 9.86218 10.697 
103 1 2.39128 8.69737 9.74319 
117 1 7.02725 6.15658 1.93423 
120 1 7.20374 8.38776 3.10002 
123 1 3.67067 6.37102 9.74022 
129 1 6.66682 6.95093 0.773572 
132 1 6.77975 9.14999 8.64269 
135 1 7.36162 6.93298 7.53772 
141 1 7.17205 6.21019 10.9479 
144 1 6.55019 8.38782 9.77661 
148 1 3.61779 7.82093 0.843793 
7 1 9.12607 6.07993 11.9185 
10 1 3.80385 9.83702 21.6179 
13 1 2.45766 9.86571 22.0627 
15 1 3.03494 8.31527 17.8761 
28 1 3.77422 9.77106 20.1425 
30 1 4.49924 8.56671 19.7525 
34 1 4.33109 6.33657 18.5868 
40 1 7.7412 8.35415 11.9354 
49 1 4.86713 7.77703 20.9214 
50 1 2.106 9.24072 18.5269 
58 1 1.61891 10.0876 11.8576 
59 1 4.17596 7.78651 14.1572 
69 1 3.7948 9.82592 11.1557 
73 1 3.03451 8.31703 14.8856 
75 1 4.99716 6.34924 11.8616 
79 1 7.18733 6.20889 21.7994 
82 1 7.92342 6.90834 20.8487 
86 1 3.77467 9.76703 12.6262 