ITEM: TIMESTEP
0
ITEM: NUMBER OF ATOMS
323
ITEM: BOX BOUNDS pp pp pp
0.0000000000000000e+00 1.9018000000000001e+01
0.0000000000000000e+00 1.9018000000000001e+01
0.0000000000000000e+00 1.9018000000000001e+01
ITEM: ATOMS id type x y z 
10 1 6.117 6.117 0.228 
22 1 0.228 6.117 6.117 
34 1 6.117 0.228 6.117 
89 1 3.299 4.982 1.363 
90 1 1.962 4.752 0.945 
97 1 4.982 3.299 1.363 
98 1 4.752 3.716 2.699 
105 1 3.299 1.362 4.982 
106 1 3.716 2.699 4.752 
121 1 4.982 1.362 3.299 
122 1 4.752 0.945 1.962 
125 1 8.053 8.053 0.228 
127 1 0.422 4.239 4.239 
130 1 4.239 0.422 4.239 
133 1 0.422 0.422 0.422 
136 1 4.239 4.239 0.422 
157 1 1.363 3.299 4.982 
158 1 0.945 1.962 4.752 
165 1 1.363 4.982 3.299 
166 1 2.699 4.752 3.716 
189 1 0.228 8.053 8.053 
207 1 8.053 0.228 8.053 
277 1 4.752 1.962 0.945 
284 1 3.716 4.752 2.699 
297 1 2.699 3.716 4.752 
306 1 0.945 4.752 1.962 
315 1 1.962 0.945 4.752 
319 1 4.752 2.699 3.716 
11 1 7.454 5.7 19.015 
16 1 4.433 6.117 17.562 
17 1 4.664 7.454 17.979 
25 1 6.117 4.433 17.562 
26 1 5.7 4.664 16.225 
39 1 8.994 8.994 18.502 
42 1 5.176 5.176 18.502 
43 1 1.363 1.362 18.696 
44 1 0.945 2.699 18.927 
45 1 5.176 8.994 14.685 
48 1 8.994 5.176 14.685 
79 1 3.299 3.299 18.696 
80 1 3.716 1.962 18.927 
85 1 3.299 9.187 12.807 
86 1 1.962 9.418 13.224 
95 1 9.187 3.299 12.807 
96 1 9.418 3.716 11.47 
119 1 9.187 1.362 10.871 
120 1 9.418 0.945 12.208 
126 1 6.716 8.47 19.015 
144 1 9.506 6.716 17.979 
148 1 8.47 9.506 16.225 
161 1 1.363 9.187 10.871 
162 1 2.699 9.418 10.454 
179 1 6.117 8.053 13.942 
180 1 7.454 8.47 14.173 
185 1 4.433 8.053 15.626 
186 1 4.664 6.716 15.209 
200 1 5.7 9.506 16.963 
201 1 8.053 4.433 15.626 
202 1 8.47 4.664 16.963 
215 1 8.053 6.117 13.942 
216 1 6.716 5.7 14.173 
220 1 9.506 7.454 15.209 
227 1 2.699 0.945 18.927 
240 1 5.7 7.454 19.015 
242 1 7.454 4.664 17.979 
245 1 4.664 5.7 16.225 
252 1 8.47 6.716 19.015 
254 1 6.716 9.506 17.979 
257 1 9.506 8.47 16.225 
264 1 8.47 7.454 14.173 
266 1 6.716 4.664 15.209 
269 1 9.506 5.7 16.963 
274 1 1.962 3.716 18.927 
279 1 9.418 1.962 13.224 
281 1 3.716 9.418 11.47 
288 1 5.7 6.716 14.173 
290 1 7.454 9.506 15.209 
293 1 4.664 8.47 16.963 
307 1 0.945 9.418 12.208 
317 1 9.418 2.699 10.454 
4 1 6.117 17.562 4.433 
5 1 7.454 17.979 4.664 
13 1 4.433 17.562 6.117 
14 1 4.664 16.225 5.7 
35 1 5.7 19.015 7.454 
51 1 8.994 18.502 8.994 
54 1 5.176 18.502 5.176 
55 1 1.363 18.696 1.363 
56 1 2.699 18.927 0.945 
57 1 8.994 14.685 5.176 
60 1 5.176 14.685 8.994 
93 1 9.187 10.871 1.363 
94 1 9.418 10.454 2.699 
103 1 3.299 12.807 9.187 
104 1 3.716 11.47 9.418 
113 1 3.299 18.696 3.299 
114 1 1.962 18.927 3.716 
117 1 9.187 12.807 3.299 
118 1 9.418 13.224 1.962 
131 1 8.053 15.626 4.433 
132 1 6.716 15.209 4.664 
142 1 9.506 16.963 5.7 
149 1 8.053 13.942 6.117 
150 1 8.47 14.173 7.454 
155 1 1.363 10.871 9.187 
156 1 0.945 12.208 9.418 
184 1 7.454 15.209 9.506 
187 1 4.433 15.626 8.053 
188 1 4.664 16.963 8.47 
193 1 6.117 13.942 8.053 
194 1 5.7 14.173 6.716 
208 1 8.47 19.015 6.716 
212 1 6.716 17.979 9.506 
218 1 9.506 16.225 8.47 
235 1 0.945 18.927 2.699 
237 1 5.7 16.225 4.664 
244 1 7.454 19.015 5.7 
246 1 4.664 17.979 7.454 
249 1 8.47 16.963 4.664 
256 1 6.716 14.173 5.7 
258 1 9.506 15.209 7.454 
261 1 8.47 16.225 9.506 
268 1 6.716 19.015 8.47 
270 1 9.506 17.979 6.716 
280 1 9.418 12.208 0.945 
285 1 5.7 16.963 9.506 
292 1 7.454 14.173 8.47 
294 1 4.664 15.209 6.716 
299 1 2.699 10.454 9.418 
311 1 3.716 18.927 1.962 
313 1 1.962 13.224 9.418 
318 1 9.418 11.47 3.716 
15 1 0.422 9.931 9.931 
18 1 0.422 13.748 13.748 
19 1 0.228 17.562 17.562 
21 1 4.239 9.931 13.748 
24 1 4.239 13.748 9.931 
40 1 1.363 12.807 14.491 
41 1 0.945 11.47 14.26 
49 1 1.363 14.491 12.807 
50 1 2.699 14.26 13.224 
76 1 3.299 10.871 14.491 
77 1 3.716 12.208 14.26 
99 1 4.982 10.871 12.807 
100 1 4.752 10.454 11.47 
109 1 3.299 14.491 10.871 
110 1 1.962 14.26 10.454 
123 1 4.982 12.807 10.871 
124 1 4.752 13.224 12.208 
147 1 8.053 9.737 17.562 
183 1 6.117 15.626 9.737 
191 1 0.228 15.626 15.626 
199 1 6.117 9.737 15.626 
211 1 8.053 17.562 9.737 
225 1 2.699 13.224 14.26 
234 1 0.945 14.26 11.47 
276 1 1.962 10.454 14.26 
278 1 4.752 12.208 13.224 
310 1 3.716 14.26 12.208 
320 1 4.752 11.47 10.454 
1 1 17.562 6.117 4.433 
2 1 16.225 5.7 4.664 
23 1 19.015 7.454 5.7 
28 1 17.562 4.433 6.117 
29 1 17.979 4.664 7.454 
63 1 18.502 8.994 8.994 
66 1 18.502 5.176 5.176 
67 1 18.696 1.362 1.363 
68 1 18.927 0.945 2.699 
69 1 14.685 5.176 8.994 
72 1 14.685 8.994 5.176 
87 1 10.871 9.187 1.363 
88 1 12.208 9.418 0.945 
101 1 10.871 1.362 9.187 
102 1 10.454 2.699 9.418 
134 1 15.626 8.053 4.433 
135 1 16.963 8.47 4.664 
139 1 13.942 8.053 6.117 
140 1 14.173 6.716 5.7 
146 1 15.209 9.506 7.454 
153 1 12.807 3.299 9.187 
154 1 13.224 1.962 9.418 
163 1 12.807 9.187 3.299 
164 1 11.47 9.418 3.716 
173 1 18.696 3.299 3.299 
174 1 18.927 3.716 1.962 
182 1 16.225 8.47 9.506 
190 1 19.015 6.716 8.47 
198 1 17.979 9.506 6.716 
203 1 15.626 4.433 8.053 
204 1 15.209 4.664 6.716 
210 1 16.963 5.7 9.506 
223 1 13.942 6.117 8.053 
224 1 14.173 7.454 8.47 
231 1 18.927 2.699 0.945 
238 1 17.979 7.454 4.664 
241 1 16.225 4.664 5.7 
248 1 19.015 5.7 7.454 
250 1 15.209 6.716 4.664 
253 1 16.963 9.506 5.7 
260 1 14.173 8.47 7.454 
262 1 15.209 7.454 9.506 
265 1 16.963 4.664 8.47 
272 1 14.173 5.7 6.716 
282 1 10.454 9.418 2.699 
286 1 17.979 6.716 9.506 
289 1 16.225 9.506 8.47 
296 1 19.015 8.47 6.716 
300 1 11.47 3.716 9.418 
304 1 18.927 1.962 3.716 
308 1 13.224 9.418 1.962 
314 1 12.208 0.945 9.418 
321 2 16.225 5.7 3.314 
322 2 16.974 5.74 2.007 
323 3 16.49 6.185 1.285 
27 1 9.931 0.422 9.931 
30 1 13.748 0.422 13.748 
31 1 17.562 0.228 17.562 
33 1 13.748 4.239 9.931 
36 1 9.931 4.239 13.748 
37 1 12.807 1.362 14.491 
38 1 13.224 2.699 14.26 
64 1 14.491 1.362 12.807 
65 1 14.26 0.945 11.47 
73 1 10.871 3.299 14.491 
74 1 10.454 1.962 14.26 
91 1 10.871 4.982 12.807 
92 1 12.208 4.752 13.224 
143 1 9.737 8.053 17.562 
167 1 12.807 4.982 10.871 
168 1 11.47 4.752 10.454 
171 1 14.491 3.299 10.871 
172 1 14.26 3.716 12.208 
181 1 17.562 8.053 9.737 
205 1 15.626 0.228 15.626 
209 1 15.626 6.117 9.737 
219 1 9.737 6.117 15.626 
226 1 11.47 0.945 14.26 
229 1 14.26 2.699 13.224 
275 1 12.208 3.716 14.26 
283 1 10.454 4.752 11.47 
302 1 14.26 1.962 10.454 
305 1 13.224 4.752 12.208 
3 1 9.931 9.931 0.422 
6 1 13.748 13.748 0.422 
7 1 17.562 17.562 0.228 
9 1 9.931 13.748 4.239 
12 1 13.748 9.931 4.239 
52 1 12.807 14.491 1.363 
53 1 11.47 14.26 0.945 
61 1 14.491 12.807 1.363 
62 1 14.26 13.224 2.699 
107 1 10.871 12.807 4.982 
108 1 10.454 11.47 4.752 
111 1 10.871 14.491 3.299 
112 1 12.208 14.26 3.716 
128 1 15.626 15.626 0.228 
141 1 9.737 15.626 6.117 
145 1 15.626 9.737 6.117 
159 1 12.807 10.871 4.982 
160 1 13.224 12.208 4.752 
169 1 14.491 10.871 3.299 
170 1 14.26 10.454 1.962 
197 1 17.562 9.737 8.053 
217 1 9.737 17.562 8.053 
230 1 14.26 11.47 0.945 
233 1 13.224 14.26 2.699 
298 1 11.47 10.454 4.752 
301 1 14.26 12.208 3.716 
309 1 10.454 14.26 1.962 
316 1 12.208 13.224 4.752 
8 1 16.225 17.979 19.015 
20 1 19.015 16.225 17.979 
32 1 17.979 19.015 16.225 
46 1 12.807 12.807 18.696 
47 1 13.224 11.47 18.927 
58 1 12.807 18.696 12.807 
59 1 11.47 18.927 13.224 
70 1 18.696 12.807 12.807 
71 1 18.927 13.224 11.47 
75 1 14.685 14.685 18.502 
78 1 18.502 18.502 18.502 
81 1 18.502 14.685 14.685 
82 1 10.871 10.871 18.696 
83 1 10.454 12.208 18.927 
84 1 14.685 18.502 14.685 
115 1 10.871 18.696 10.871 
116 1 12.208 18.927 10.454 
129 1 16.963 15.209 19.015 
137 1 13.942 15.626 17.562 
138 1 14.173 16.963 17.979 
151 1 15.626 13.942 17.562 
152 1 15.209 14.173 16.225 
175 1 18.696 10.871 10.871 
176 1 18.927 10.454 12.208 
177 1 17.562 15.626 13.942 
178 1 16.225 15.209 14.173 
192 1 19.015 16.963 15.209 
195 1 17.562 13.942 15.626 
196 1 17.979 14.173 16.963 
206 1 15.209 19.015 16.963 
213 1 15.626 17.562 13.942 
214 1 16.963 17.979 14.173 
221 1 13.942 17.562 15.626 
222 1 14.173 16.225 15.209 
228 1 11.47 13.224 18.927 
232 1 18.927 11.47 13.224 
236 1 13.224 18.927 11.47 
239 1 17.979 16.225 19.015 
243 1 16.225 19.015 17.979 
247 1 19.015 17.979 16.225 
251 1 15.209 16.963 19.015 
255 1 16.963 14.173 17.979 
259 1 14.173 15.209 16.225 
263 1 15.209 16.225 14.173 
267 1 16.963 19.015 15.209 
271 1 14.173 17.979 16.963 
273 1 12.208 10.454 18.927 
287 1 17.979 16.963 14.173 
291 1 16.225 14.173 15.209 
295 1 19.015 15.209 16.963 
303 1 18.927 12.208 10.454 
312 1 10.454 18.927 12.208 
ITEM: TIMESTEP
10
ITEM: NUMBER OF ATOMS
323
ITEM: BOX BOUNDS pp pp pp
0.0000000000000000e+00 1.9018000000000001e+01
0.0000000000000000e+00 1.9018000000000001e+01
0.0000000000000000e+00 1.9018000000000001e+01
ITEM: ATOMS id type x y z 
10 1 6.11707 6.11707 0.250545 
22 1 0.262542 6.12003 6.12485 
34 1 6.1171 0.25057 6.1171 
89 1 3.29811 5.00473 1.36288 
90 1 1.94356 4.80399 0.906284 
97 1 5.00486 3.29849 1.36292 
98 1 4.80401 3.75488 2.71756 
105 1 3.29824 1.36259 5.00488 
106 1 3.7551 2.71727 4.80413 
121 1 5.00494 1.36259 3.29834 
122 1 4.80414 0.906186 1.94369 
125 1 8.05289 8.05288 0.250558 
127 1 0.424765 4.23484 4.2379 
130 1 4.23953 0.421188 4.23961 
133 1 0.421256 0.421148 0.42137 
136 1 4.23954 4.23968 0.421403 
157 1 1.36563 3.29546 5.00752 
158 1 0.906079 1.9428 4.80406 
165 1 1.36412 5.005 3.29682 
166 1 2.71748 4.80411 3.75489 
189 1 0.25206 8.0525 8.05739 
207 1 8.05286 0.250582 8.05286 
277 1 4.80414 1.94363 0.906288 
284 1 3.75496 4.804 2.71739 
297 1 2.71813 3.75495 4.80423 
306 1 0.90582 4.8042 1.9436 
315 1 1.94386 0.905916 4.80399 
319 1 4.80421 2.71744 3.75481 
11 1 7.4719 5.6607 19.0675 
16 1 4.41035 6.11712 17.5618 
17 1 4.61145 7.47193 18.0183 
25 1 6.11712 4.41035 17.5618 
26 1 5.66071 4.61148 16.207 
39 1 8.99423 8.99423 18.5031 
42 1 5.17566 5.17566 18.5032 
43 1 1.3627 1.36258 18.674 
44 1 0.906154 2.71741 18.8751 
45 1 5.1757 8.99429 14.6847 
48 1 8.99429 5.17569 14.6847 
79 1 3.29819 3.29853 18.6738 
80 1 3.75489 1.94363 18.8747 
85 1 3.29843 9.16443 12.8069 
86 1 1.94384 9.3656 13.2633 
95 1 9.16447 3.29846 12.8068 
96 1 9.36544 3.75494 11.452 
119 1 9.16452 1.36258 10.8713 
120 1 9.36557 0.90602 12.2261 
126 1 6.69809 8.50929 19.0675 
144 1 9.55857 6.69806 18.0182 
148 1 8.50929 9.55853 16.207 
161 1 1.36305 9.1645 10.8714 
162 1 2.71736 9.36567 10.4147 
179 1 6.11712 8.05287 13.9193 
180 1 7.47193 8.50931 14.1205 
185 1 4.41034 8.05289 15.6261 
186 1 4.61146 6.6981 15.1697 
200 1 5.6607 9.55854 16.9809 
201 1 8.05289 4.41034 15.6261 
202 1 8.50931 4.61147 16.9809 
215 1 8.05288 6.11712 13.9193 
216 1 6.69807 5.6607 14.1205 
220 1 9.55854 7.47189 15.1697 
227 1 2.71739 0.906124 18.8749 
240 1 5.6607 7.4719 19.0675 
242 1 7.47193 4.61145 18.0183 
245 1 4.61148 5.66071 16.207 
252 1 8.50929 6.69809 19.0675 
254 1 6.69807 9.55856 18.0182 
257 1 9.55853 8.50928 16.207 
264 1 8.50931 7.47193 14.1205 
266 1 6.6981 4.61146 15.1697 
269 1 9.55854 5.6607 16.9809 
274 1 1.94358 3.75488 18.875 
279 1 9.36562 1.94378 13.2632 
281 1 3.7551 9.36539 11.4519 
288 1 5.6607 6.69807 14.1205 
290 1 7.4719 9.55854 15.1697 
293 1 4.61146 8.50931 16.9809 
307 1 0.906053 9.36558 12.2261 
317 1 9.36558 2.71724 10.4148 
4 1 6.11717 17.5618 4.41032 
5 1 7.47194 18.0183 4.61144 
13 1 4.41032 17.5618 6.11717 
14 1 4.61148 16.207 5.66069 
35 1 5.66069 19.0675 7.47191 
51 1 8.99421 18.503 8.99421 
54 1 5.1757 18.5031 5.1757 
55 1 1.36266 18.6739 1.36277 
56 1 2.71737 18.8749 0.906146 
57 1 8.99428 14.6847 5.1757 
60 1 5.1757 14.6847 8.99429 
93 1 9.16454 10.8713 1.36281 
94 1 9.36563 10.4147 2.71733 
103 1 3.29843 12.8069 9.16444 
104 1 3.7551 11.4519 9.3654 
113 1 3.29833 18.6737 3.29843 
114 1 1.94368 18.8747 3.75488 
117 1 9.16444 12.807 3.29838 
118 1 9.36562 13.2633 1.94387 
131 1 8.05289 15.6261 4.41034 
132 1 6.6981 15.1697 4.61145 
142 1 9.55856 16.9809 5.6607 
149 1 8.05287 13.9193 6.11712 
150 1 8.50931 14.1205 7.47192 
155 1 1.36305 10.8714 9.16448 
156 1 0.906054 12.2261 9.36558 
184 1 7.47189 15.1697 9.55855 
187 1 4.41033 15.6261 8.05289 
188 1 4.61145 16.9809 8.50931 
193 1 6.11712 13.9193 8.05287 
194 1 5.6607 14.1204 6.69808 
208 1 8.5093 19.0675 6.69808 
212 1 6.69805 18.0183 9.55857 
218 1 9.55853 16.207 8.5093 
235 1 0.906125 18.875 2.71744 
237 1 5.66069 16.207 4.61148 
244 1 7.47191 19.0675 5.66069 
246 1 4.61144 18.0183 7.47194 
249 1 8.50931 16.9809 4.61145 
256 1 6.69807 14.1204 5.6607 
258 1 9.55855 15.1697 7.47189 
261 1 8.5093 16.207 9.55853 
268 1 6.69808 19.0675 8.5093 
270 1 9.55857 18.0183 6.69805 
280 1 9.36557 12.2261 0.906086 
285 1 5.6607 16.9809 9.55855 
292 1 7.47192 14.1205 8.50931 
294 1 4.61145 15.1697 6.6981 
299 1 2.71736 10.4147 9.36566 
311 1 3.75496 18.8747 1.94372 
313 1 1.94384 13.2633 9.3656 
318 1 9.36536 11.452 3.75515 
15 1 0.421323 9.93009 9.93009 
18 1 0.421148 13.7484 13.7484 
19 1 0.250557 17.5618 17.5618 
21 1 4.23969 9.93002 13.7482 
24 1 4.23968 13.7482 9.93002 
40 1 1.36272 12.807 14.5135 
41 1 0.906102 11.452 14.3125 
49 1 1.36271 14.5135 12.807 
50 1 2.71729 14.3124 13.2633 
76 1 3.29833 10.8713 14.5137 
77 1 3.75506 12.2262 14.3126 
99 1 5.00518 10.8713 12.8068 
100 1 4.80437 10.4148 11.452 
109 1 3.29834 14.5137 10.8713 
110 1 1.94382 14.3125 10.4148 
123 1 5.00518 12.8068 10.8713 
124 1 4.80429 13.2633 12.2261 
147 1 8.05285 9.75968 17.5618 
183 1 6.1171 15.6261 9.75968 
191 1 0.250545 15.626 15.626 
199 1 6.1171 9.75968 15.6261 
211 1 8.0528 17.5618 9.75971 
225 1 2.71729 13.2633 14.3124 
234 1 0.906101 14.3125 11.452 
276 1 1.94383 10.4148 14.3125 
278 1 4.80429 12.2261 13.2633 
310 1 3.75506 14.3126 12.2262 
320 1 4.80437 11.452 10.4148 
1 1 17.6521 6.14571 4.42016 
2 1 16.1938 5.66454 4.46363 
23 1 19.0963 7.47871 5.68366 
28 1 17.5392 4.40743 6.11692 
29 1 18.0192 4.60958 7.47246 
63 1 18.5011 8.99468 8.99626 
66 1 18.5209 5.18411 5.17788 
67 1 18.674 1.36269 1.36283 
68 1 18.875 0.906162 2.71731 
69 1 14.6894 5.17027 8.99928 
72 1 14.6757 9.01223 5.18864 
87 1 10.8713 9.16447 1.36283 
88 1 12.2261 9.36548 0.905848 
101 1 10.8713 1.36257 9.16451 
102 1 10.4148 2.71727 9.36558 
134 1 15.6264 8.07618 4.41036 
135 1 16.9753 8.52668 4.60496 
139 1 13.8958 8.07937 6.12836 
140 1 14.0858 6.70794 5.68334 
146 1 15.1735 9.56473 7.47695 
153 1 12.806 3.2977 9.16398 
154 1 13.2633 1.94387 9.36566 
163 1 12.8052 9.16272 3.29653 
164 1 11.4518 9.36499 3.755 
173 1 18.6713 3.29709 3.29684 
174 1 18.8743 3.75494 1.94366 
182 1 16.2077 8.50766 9.55807 
190 1 19.0662 6.69827 8.51347 
198 1 18.0208 9.56158 6.70176 
203 1 15.6279 4.40725 8.05711 
204 1 15.1871 4.60311 6.68672 
210 1 16.9809 5.66438 9.56311 
223 1 13.9142 6.11081 8.05125 
224 1 14.1211 7.47644 8.51823 
231 1 18.8748 2.71747 0.906241 
238 1 18.0397 7.4991 4.6204 
241 1 16.207 4.58329 5.65124 
248 1 19.068 5.65702 7.4785 
250 1 15.1213 6.75897 4.64755 
253 1 16.9816 9.56237 5.65727 
260 1 14.1175 8.51693 7.48177 
262 1 15.1722 7.47199 9.55941 
265 1 16.9822 4.61001 8.51467 
272 1 14.11 5.65115 6.70631 
282 1 10.4145 9.36563 2.7173 
286 1 18.0183 6.7 9.55912 
289 1 16.2104 9.5577 8.51316 
296 1 19.0727 8.5162 6.70529 
300 1 11.4521 3.75503 9.36555 
304 1 18.8745 1.9436 3.75473 
308 1 13.2634 9.36511 1.94355 
314 1 12.2262 0.906023 9.36554 
321 2 16.154 5.49138 3.34385 
322 2 17.0078 5.74995 1.93654 
323 3 16.4937 6.17766 1.28957 
27 1 9.93013 0.421181 9.93014 
30 1 13.7483 0.420929 13.7484 
31 1 17.5619 0.250563 17.5619 
33 1 13.7481 4.23947 9.93022 
36 1 9.93001 4.2397 13.7482 
37 1 12.8069 1.36241 14.5135 
38 1 13.2632 2.71715 14.3125 
64 1 14.5136 1.36241 12.8069 
65 1 14.3125 0.906009 11.452 
73 1 10.8713 3.29836 14.5136 
74 1 10.4148 1.94372 14.3124 
91 1 10.8713 5.00515 12.8068 
92 1 12.2261 4.80423 13.2633 
143 1 9.75968 8.05284 17.5618 
167 1 12.8061 5.0057 10.8719 
168 1 11.4522 4.80419 10.4147 
171 1 14.514 3.29752 10.8722 
172 1 14.3125 3.75502 12.2261 
181 1 17.5596 8.05355 9.75874 
205 1 15.626 0.250566 15.626 
209 1 15.6265 6.11917 9.76006 
219 1 9.75968 6.1171 15.6261 
226 1 11.452 0.906025 14.3125 
229 1 14.3124 2.71717 13.2632 
275 1 12.2262 3.75493 14.3126 
283 1 10.4148 4.80427 11.4519 
302 1 14.3124 1.94376 10.4148 
305 1 13.2633 4.80416 12.2259 
3 1 9.93 9.93016 0.42129 
6 1 13.7483 13.7485 0.421047 
7 1 17.5618 17.5618 0.250556 
9 1 9.92992 13.7483 4.23958 
12 1 13.7462 9.93269 4.23773 
52 1 12.8069 14.5135 1.36264 
53 1 11.452 14.3125 0.906087 
61 1 14.5136 12.807 1.36267 
62 1 14.3124 13.2635 2.71719 
107 1 10.8712 12.8068 5.00527 
108 1 10.4144 11.4521 4.80437 
111 1 10.8712 14.5137 3.29828 
112 1 12.2261 14.3127 3.75513 
128 1 15.626 15.626 0.250543 
141 1 9.75968 15.6261 6.1171 
145 1 15.6249 9.76738 6.12016 
159 1 12.8042 10.8739 5.00644 
160 1 13.2634 12.2268 4.80454 
169 1 14.5156 10.8733 3.29611 
170 1 14.3128 10.4146 1.94338 
197 1 17.5616 9.75968 8.0543 
217 1 9.7597 17.5618 8.0528 
230 1 14.3125 11.4521 0.905851 
233 1 13.2634 14.3124 2.71724 
298 1 11.4513 10.4147 4.80457 
301 1 14.313 12.2265 3.75502 
309 1 10.4148 14.3124 1.94381 
316 1 12.2259 13.2636 4.80433 
8 1 16.207 18.0182 19.0675 
20 1 19.0675 16.207 18.0182 
32 1 18.0182 19.0675 16.207 
46 1 12.8069 12.807 18.6736 
47 1 13.2634 11.4521 18.8746 
58 1 12.8069 18.6735 12.807 
59 1 11.4521 18.8746 13.2633 
70 1 18.6736 12.807 12.807 
71 1 18.8746 13.2633 11.4521 
75 1 14.6846 14.6846 18.5032 
78 1 18.5032 18.5032 18.5032 
81 1 18.5032 14.6846 14.6846 
82 1 10.8713 10.8714 18.6735 
83 1 10.4148 12.2261 18.8747 
84 1 14.6846 18.5032 14.6846 
115 1 10.8714 18.6735 10.8714 
116 1 12.2261 18.8746 10.4147 
129 1 16.9808 15.1697 19.0675 
137 1 13.9193 15.6261 17.5619 
138 1 14.1204 16.9809 18.0183 
151 1 15.6261 13.9193 17.5619 
152 1 15.1697 14.1205 16.2071 
175 1 18.6735 10.8715 10.8715 
176 1 18.8747 10.4147 12.2261 
177 1 17.5619 15.6261 13.9193 
178 1 16.2071 15.1697 14.1205 
192 1 19.0675 16.9808 15.1697 
195 1 17.5619 13.9193 15.6261 
196 1 18.0183 14.1205 16.9809 
206 1 15.1697 19.0675 16.9808 
213 1 15.6261 17.5619 13.9193 
214 1 16.9809 18.0183 14.1205 
221 1 13.9193 17.5619 15.6261 
222 1 14.1205 16.207 15.1697 
228 1 11.4521 13.2633 18.8747 
232 1 18.8746 11.4521 13.2633 
236 1 13.2633 18.8746 11.4521 
239 1 18.0182 16.207 19.0675 
243 1 16.207 19.0675 18.0182 
247 1 19.0675 18.0182 16.207 
251 1 15.1697 16.9808 19.0675 
255 1 16.9809 14.1204 18.0183 
259 1 14.1205 15.1697 16.2071 
263 1 15.1697 16.207 14.1205 
267 1 16.9808 19.0675 15.1697 
271 1 14.1205 18.0183 16.9809 
273 1 12.2261 10.4147 18.8746 
287 1 18.0183 16.9809 14.1204 
291 1 16.2071 14.1205 15.1697 
295 1 19.0675 15.1697 16.9808 
303 1 18.8747 12.2261 10.4147 
312 1 10.4147 18.8746 12.2261 
ITEM: TIMESTEP
20
ITEM: NUMBER OF ATOMS
323
ITEM: BOX BOUNDS pp pp pp
0.0000000000000000e+00 1.9018000000000001e+01
0.0000000000000000e+00 1.9018000000000001e+01
0.0000000000000000e+00 1.9018000000000001e+01
ITEM: ATOMS id type x y z 
10 1 6.12573 6.12573 0.233763 
22 1 0.254931 6.13194 6.14176 
34 1 6.12579 0.233761 6.12578 
89 1 3.28897 4.98833 1.37156 
90 1 1.93678 4.80914 0.901084 
97 1 4.98824 3.28947 1.37136 
98 1 4.80921 3.76045 2.72295 
105 1 3.28958 1.37124 4.98843 
106 1 3.76074 2.72325 4.80932 
121 1 4.98846 1.3713 3.28931 
122 1 4.80914 0.900661 1.93804 
125 1 8.04411 8.04411 0.233749 
127 1 0.425133 4.23456 4.23687 
130 1 4.23495 0.425957 4.23448 
133 1 0.426242 0.426335 0.426217 
136 1 4.23459 4.23471 0.426203 
157 1 1.37132 3.2889 4.98862 
158 1 0.900371 1.93769 4.80872 
165 1 1.37121 4.98504 3.28967 
166 1 2.72262 4.80788 3.76076 
189 1 0.239104 8.0412 8.05946 
207 1 8.04405 0.233775 8.04405 
277 1 4.80906 1.93816 0.900686 
284 1 3.76011 4.80904 2.72353 
297 1 2.72269 3.75992 4.80967 
306 1 0.899339 4.80831 1.93849 
315 1 1.93763 0.900152 4.80901 
319 1 4.80946 2.72292 3.76031 
11 1 7.47755 5.65509 19.0726 
16 1 4.42717 6.12574 17.5532 
17 1 4.60632 7.47757 18.0238 
25 1 6.12571 4.42718 17.5532 
26 1 5.65512 4.60634 16.2014 
39 1 8.98904 8.98905 18.4981 
42 1 5.18072 5.18075 18.4982 
43 1 1.37149 1.37168 18.6909 
44 1 0.900273 2.72315 18.8704 
45 1 5.18077 8.98919 14.6897 
48 1 8.98923 5.18073 14.6897 
79 1 3.28937 3.28947 18.6908 
80 1 3.76017 1.9382 18.8699 
85 1 3.28978 9.18126 12.7982 
86 1 1.93817 9.36036 13.2691 
95 1 9.1813 3.28973 12.7981 
96 1 9.36053 3.76044 11.4464 
119 1 9.18136 1.37137 10.88 
120 1 9.36049 0.90055 12.2318 
126 1 6.69235 8.51485 19.0726 
144 1 9.56371 6.69236 18.0238 
148 1 8.51487 9.56368 16.2013 
161 1 1.37217 9.18146 10.8808 
162 1 2.72352 9.3604 10.4091 
179 1 6.12587 8.04411 13.9361 
180 1 7.47759 8.51486 14.1153 
185 1 4.42713 8.04418 15.6348 
186 1 4.6063 6.69243 15.1641 
200 1 5.65513 9.56372 16.9865 
201 1 8.04417 4.42712 15.6348 
202 1 8.51484 4.60629 16.9865 
215 1 8.04411 6.12588 13.9361 
216 1 6.69242 5.65516 14.1153 
220 1 9.56371 7.47752 15.1641 
227 1 2.72273 0.900804 18.8699 
240 1 5.65509 7.47755 19.0726 
242 1 7.47756 4.60633 18.0238 
245 1 4.60634 5.65511 16.2014 
252 1 8.51486 6.69235 19.0726 
254 1 6.69236 9.5637 18.0238 
257 1 9.56369 8.51486 16.2013 
264 1 8.51485 7.47757 14.1153 
266 1 6.69245 4.60629 15.1641 
269 1 9.56372 5.65514 16.9865 
274 1 1.93778 3.76041 18.8702 
279 1 9.36048 1.93793 13.2689 
281 1 3.76067 9.36028 11.4466 
288 1 5.65516 6.6924 14.1153 
290 1 7.47753 9.56371 15.1641 
293 1 4.60628 8.51484 16.9865 
307 1 0.900496 9.36044 12.2321 
317 1 9.36045 2.72307 10.4093 
4 1 6.12578 17.5532 4.42718 
5 1 7.47759 18.0238 4.60631 
13 1 4.42718 17.5532 6.12578 
14 1 4.60633 16.2014 5.65512 
35 1 5.65508 19.0726 7.47758 
51 1 8.9891 18.4981 8.9891 
54 1 5.18081 18.4981 5.1808 
55 1 1.37152 18.6907 1.37137 
56 1 2.72281 18.8699 0.900637 
57 1 8.9891 14.6898 5.18083 
60 1 5.18077 14.6897 8.98918 
93 1 9.1813 10.88 1.37145 
94 1 9.36003 10.4093 2.72287 
103 1 3.28976 12.7982 9.18127 
104 1 3.76061 11.4466 9.36028 
113 1 3.28975 18.6903 3.28928 
114 1 1.93808 18.8693 3.76018 
117 1 9.18098 12.7983 3.28954 
118 1 9.36029 13.269 1.93793 
131 1 8.04417 15.6348 4.42714 
132 1 6.6924 15.1641 4.60628 
142 1 9.56373 16.9865 5.65512 
149 1 8.04413 13.9361 6.12585 
150 1 8.51488 14.1153 7.47761 
155 1 1.37195 10.8806 9.18139 
156 1 0.900517 12.232 9.36041 
184 1 7.47753 15.1641 9.56372 
187 1 4.42712 15.6348 8.04418 
188 1 4.60628 16.9865 8.51487 
193 1 6.12587 13.9361 8.04411 
194 1 5.65515 14.1153 6.69241 
208 1 8.51485 19.0726 6.69238 
212 1 6.69238 18.0238 9.56372 
218 1 9.56369 16.2013 8.51486 
235 1 0.900474 18.87 2.7229 
237 1 5.6551 16.2014 4.60633 
244 1 7.47758 19.0726 5.65509 
246 1 4.60632 18.0238 7.47759 
249 1 8.51488 16.9866 4.60628 
256 1 6.69238 14.1153 5.65515 
258 1 9.56372 15.1641 7.47756 
261 1 8.51485 16.2013 9.56369 
268 1 6.69238 19.0726 8.51486 
270 1 9.56372 18.0238 6.69239 
280 1 9.36037 12.2316 0.900493 
285 1 5.65512 16.9865 9.56373 
292 1 7.47758 14.1153 8.51487 
294 1 4.60628 15.1641 6.69244 
299 1 2.7234 10.4092 9.36034 
311 1 3.76035 18.8697 1.93801 
313 1 1.93815 13.269 9.36037 
318 1 9.35928 11.4467 3.75999 
15 1 0.427017 9.93623 9.93647 
18 1 0.426119 13.7433 13.7433 
19 1 0.233737 17.5532 17.5532 
21 1 4.23477 9.93492 13.7432 
24 1 4.23477 13.7432 9.93492 
40 1 1.37129 12.7983 14.4969 
41 1 0.90067 11.4466 14.3178 
49 1 1.37129 14.4969 12.7983 
50 1 2.72305 14.3177 13.2689 
76 1 3.28967 10.88 14.4969 
77 1 3.76046 12.2317 14.3177 
99 1 4.98855 10.8799 12.7982 
100 1 4.80949 10.4092 11.4465 
109 1 3.28966 14.4969 10.88 
110 1 1.93799 14.3178 10.4093 
123 1 4.98854 12.7982 10.8799 
124 1 4.80937 13.2689 12.2316 
147 1 8.04411 9.74283 17.5531 
183 1 6.12581 15.6348 9.7429 
191 1 0.233838 15.6347 15.6347 
199 1 6.1258 9.74289 15.6348 
211 1 8.04406 17.553 9.74285 
225 1 2.72305 13.2689 14.3177 
234 1 0.900673 14.3178 11.4466 
276 1 1.93799 10.4094 14.3178 
278 1 4.80937 12.2317 13.2689 
310 1 3.76046 14.3177 12.2317 
320 1 4.80947 11.4465 10.4092 
1 1 17.6055 6.18433 4.46292 
2 1 16.1891 5.63981 4.39602 
23 1 19.1144 7.48772 5.6855 
28 1 17.5202 4.45671 6.10798 
29 1 18.0106 4.61209 7.46511 
63 1 18.4979 8.9902 8.996 
66 1 18.51 5.21224 5.17526 
67 1 18.6905 1.37186 1.37151 
68 1 18.87 0.90123 2.72361 
69 1 14.701 5.16843 8.98125 
72 1 14.6618 9.02443 5.21809 
87 1 10.88 9.18141 1.37117 
88 1 12.2316 9.36003 0.900206 
101 1 10.88 1.3714 9.18143 
102 1 10.4094 2.72305 9.36046 
134 1 15.6322 8.08095 4.4555 
135 1 16.997 8.54983 4.60406 
139 1 13.9069 8.08101 6.14868 
140 1 14.1058 6.71946 5.67748 
146 1 15.1648 9.5716 7.49076 
153 1 12.799 3.29034 9.18185 
154 1 13.2689 1.93794 9.36051 
163 1 12.7972 9.18157 3.28843 
164 1 11.4454 9.35965 3.76067 
173 1 18.6889 3.29069 3.29125 
174 1 18.8683 3.76063 1.93951 
182 1 16.1983 8.51432 9.56827 
190 1 19.0715 6.68791 8.51982 
198 1 18.0288 9.56858 6.6957 
203 1 15.6421 4.4339 8.02781 
204 1 15.1943 4.62391 6.65905 
210 1 16.9866 5.65314 9.56723 
223 1 13.9415 6.11939 8.0408 
224 1 14.1149 7.47379 8.5175 
231 1 18.8693 2.72421 0.901259 
238 1 18.0491 7.51874 4.63918 
241 1 16.2008 4.6387 5.61889 
248 1 19.0645 5.64626 7.48304 
250 1 15.146 6.75915 4.65503 
253 1 16.9881 9.57632 5.65873 
260 1 14.1086 8.52903 7.5008 
262 1 15.1626 7.47295 9.56469 
265 1 16.9862 4.60856 8.50995 
272 1 14.1181 5.65511 6.69307 
282 1 10.4088 9.35998 2.72267 
286 1 18.0226 6.69206 9.56937 
289 1 16.2052 9.56741 8.52208 
296 1 19.0888 8.52835 6.70862 
300 1 11.4467 3.76039 9.36065 
304 1 18.8696 1.93892 3.76058 
308 1 13.2696 9.35993 1.9369 
314 1 12.2316 0.900587 9.36045 
321 2 16.0849 5.17 3.37182 
322 2 17.0574 5.76097 1.88558 
323 3 16.4844 6.17483 1.29088 
27 1 9.93511 0.426341 9.93503 
30 1 13.7434 0.426087 13.7433 
31 1 17.5532 0.23376 17.5532 
33 1 13.7449 4.23432 9.93381 
36 1 9.935 4.23478 13.7432 
37 1 12.7983 1.37118 14.4968 
38 1 13.2688 2.72294 14.3178 
64 1 14.4968 1.37117 12.7983 
65 1 14.3177 0.9004 11.4467 
73 1 10.88 3.28966 14.4968 
74 1 10.4093 1.93787 14.3176 
91 1 10.88 4.98834 12.7981 
92 1 12.2317 4.80923 13.2686 
143 1 9.74284 8.04412 17.5531 
167 1 12.8001 4.9877 10.8781 
168 1 11.4472 4.80922 10.4093 
171 1 14.4962 3.28982 10.8797 
172 1 14.3174 3.76034 12.2319 
181 1 17.5525 8.04334 9.74816 
205 1 15.6347 0.233832 15.6347 
209 1 15.6361 6.12153 9.7426 
219 1 9.74289 6.1258 15.6348 
226 1 11.4465 0.900518 14.3177 
229 1 14.3177 2.72283 13.269 
275 1 12.2317 3.76037 14.3176 
283 1 10.4095 4.80924 11.4464 
302 1 14.3175 1.93761 10.4093 
305 1 13.2688 4.80926 12.231 
3 1 9.9351 9.93512 0.426328 
6 1 13.7432 13.7433 0.42603 
7 1 17.5532 17.5532 0.233739 
9 1 9.93479 13.7433 4.23459 
12 1 13.738 9.942 4.23236 
52 1 12.7982 14.4969 1.37122 
53 1 11.4465 14.3178 0.900446 
61 1 14.4968 12.7983 1.37089 
62 1 14.3182 13.2697 2.72235 
107 1 10.8795 12.7986 4.98856 
108 1 10.4074 11.4474 4.8099 
111 1 10.8798 14.4971 3.28948 
112 1 12.2314 14.3189 3.75994 
128 1 15.6347 15.6347 0.23381 
141 1 9.74287 15.6348 6.12579 
145 1 15.6334 9.75967 6.13908 
159 1 12.7926 10.8858 4.98736 
160 1 13.2697 12.2355 4.80908 
169 1 14.4975 10.8823 3.28742 
170 1 14.3182 10.4086 1.93638 
197 1 17.5559 9.74512 8.04672 
217 1 9.74285 17.553 8.04406 
230 1 14.318 11.4467 0.899901 
233 1 13.2687 14.3183 2.72271 
298 1 11.4429 10.4086 4.8091 
301 1 14.3186 12.2336 3.76068 
309 1 10.4091 14.3178 1.93785 
316 1 12.2307 13.2708 4.8099 
8 1 16.2014 18.0238 19.0726 
20 1 19.0726 16.2014 18.0238 
32 1 18.0238 19.0726 16.2014 
46 1 12.7982 12.7982 18.6903 
47 1 13.2687 11.4467 18.8692 
58 1 12.7983 18.6903 12.7983 
59 1 11.4465 18.8696 13.269 
70 1 18.6905 12.7984 12.7984 
71 1 18.8696 13.2692 11.4467 
75 1 14.6897 14.6897 18.4983 
78 1 18.4982 18.4982 18.4982 
81 1 18.4983 14.6896 14.6896 
82 1 10.8801 10.8801 18.6905 
83 1 10.4092 12.2316 18.8696 
84 1 14.6896 18.4983 14.6896 
115 1 10.88 18.6905 10.88 
116 1 12.2317 18.8696 10.4092 
129 1 16.9865 15.1641 19.0726 
137 1 13.9361 15.6347 17.5532 
138 1 14.1153 16.9865 18.0238 
151 1 15.6347 13.9361 17.5532 
152 1 15.1641 14.1153 16.2014 
175 1 18.6903 10.8811 10.881 
176 1 18.8696 10.4091 12.2323 
177 1 17.5532 15.6347 13.9361 
178 1 16.2014 15.1641 14.1153 
192 1 19.0726 16.9865 15.1641 
195 1 17.5532 13.9361 15.6348 
196 1 18.0238 14.1153 16.9865 
206 1 15.1641 19.0726 16.9865 
213 1 15.6348 17.5532 13.9361 
214 1 16.9865 18.0238 14.1153 
221 1 13.9361 17.5532 15.6348 
222 1 14.1153 16.2014 15.1641 
228 1 11.4466 13.269 18.8695 
232 1 18.8696 11.4467 13.2692 
236 1 13.2689 18.8695 11.4466 
239 1 18.0238 16.2014 19.0726 
243 1 16.2014 19.0726 18.0238 
247 1 19.0726 18.0238 16.2014 
251 1 15.1641 16.9865 19.0726 
255 1 16.9865 14.1153 18.0238 
259 1 14.1153 15.1641 16.2014 
263 1 15.1641 16.2014 14.1153 
267 1 16.9865 19.0726 15.1641 
271 1 14.1153 18.0238 16.9865 
273 1 12.2316 10.4093 18.8694 
287 1 18.0238 16.9865 14.1153 
291 1 16.2014 14.1153 15.1641 
295 1 19.0726 15.1641 16.9865 
303 1 18.8696 12.2323 10.4091 
312 1 10.4092 18.8696 12.2318 
ITEM: TIMESTEP
30
ITEM: NUMBER OF ATOMS
323
ITEM: BOX BOUNDS pp pp pp
0.0000000000000000e+00 1.9018000000000001e+01
0.0000000000000000e+00 1.9018000000000001e+01
0.0000000000000000e+00 1.9018000000000001e+01
ITEM: ATOMS id type x y z 
10 1 6.12392 6.12394 0.237429 
22 1 0.264328 6.14287 6.13282 
34 1 6.12399 0.237422 6.124 
89 1 3.29039 4.99178 1.37003 
90 1 1.93799 4.8074 0.903141 
97 1 4.99154 3.29152 1.36961 
98 1 4.80735 3.75871 2.72197 
105 1 3.29081 1.36951 4.99165 
106 1 3.75669 2.72221 4.8074 
121 1 4.99158 1.3698 3.29141 
122 1 4.80751 0.902244 1.93936 
125 1 8.04583 8.04583 0.237336 
127 1 0.419043 4.24285 4.23874 
130 1 4.23498 0.425712 4.23515 
133 1 0.425118 0.426424 0.42635 
136 1 4.23448 4.23555 0.426143 
157 1 1.36256 3.29751 4.99337 
158 1 0.901763 1.94308 4.80677 
165 1 1.36772 4.99027 3.29222 
166 1 2.72009 4.80538 3.75888 
189 1 0.244779 8.04374 8.06695 
207 1 8.04582 0.237373 8.04582 
277 1 4.80744 1.93957 0.902059 
284 1 3.75796 4.80679 2.72207 
297 1 2.71746 3.75782 4.80812 
306 1 0.900245 4.80637 1.9401 
315 1 1.93798 0.904307 4.80672 
319 1 4.80654 2.72173 3.75952 
11 1 7.47612 5.65644 19.0712 
16 1 4.4235 6.12398 17.555 
17 1 4.6077 7.47619 18.0225 
25 1 6.12388 4.42355 17.5551 
26 1 5.65649 4.60774 16.2028 
39 1 8.98953 8.98952 18.4985 
42 1 5.18008 5.18022 18.4988 