LAMMPS (3 Mar 2020)
Reading data file ...
  triclinic box = (0 0 0) to (13.552 11.7355 22.15) with tilt (-6.7755 0 0)
  2 by 2 by 2 MPI processor grid
  reading atoms ...
  163 atoms
  read_data CPU = 0.0250057 secs
WARNING: Using 'neigh_modify every 1 delay 0 check yes' setting during minimization (../min.cpp:190)
WARNING: Total cutoff < 2*bond cutoff. May need to use an increased neighbor list skin. (../pair_reaxc.cpp:413)
Neighbor list info ...
  update every 1 steps, delay 0 steps, check yes
  max neighbors/atom: 2000, page size: 100000
  master list distance cutoff = 9.5
  ghost atom cutoff = 9.5
  binsize = 4.75, bins = 5 3 5
  2 neighbor lists, perpetual/occasional/extra = 2 0 0
  (1) pair reax/c, perpetual
      attributes: half, newton off, ghost
      pair build: half/bin/newtoff/ghost
      stencil: half/ghost/bin/3d/newtoff
      bin: standard
  (2) fix qeq/reax, perpetual, copy from (1)
      attributes: half, newton off, ghost
      pair build: copy
      stencil: none
      bin: none
Setting up cg style minimization ...
  Unit style    : real
  Current step  : 0
Per MPI rank memory allocation (min/avg/max) = 22.53 | 23.58 | 24.64 Mbytes
Step Temp E_pair E_mol TotEng Press 
       0            0   -25582.357            0   -25582.357    99177.157 
     258            0   -29278.151            0   -29278.151    37519.638 
Loop time of 53.0342 on 8 procs for 258 steps with 163 atoms

99.9% CPU use with 8 MPI tasks x no OpenMP threads

Minimization stats:
  Stopping criterion = energy tolerance
  Energy initial, next-to-last, final = 
        -25582.3569848     -29278.1513434      -29278.151374
  Force two-norm initial, final = 4773.48 95.5532
  Force max component initial, final = 692.707 22.2586
  Final line search alpha, max atom move = 4.69982e-05 0.00104611
  Iterations, force evaluations = 258 1713

MPI task timing breakdown:
Section |  min time  |  avg time  |  max time  |%varavg| %total
---------------------------------------------------------------
Pair    | 37.446     | 39.99      | 42.121     |  26.7 | 75.40
Neigh   | 0          | 0          | 0          |   0.0 |  0.00
Comm    | 0.26229    | 2.3851     | 4.9213     | 109.2 |  4.50
Output  | 0.0044218  | 0.0056636  | 0.0080023  |   1.5 |  0.01
Modify  | 10.573     | 10.575     | 10.58      |   0.1 | 19.94
Other   |            | 0.07855    |            |       |  0.15

Nlocal:    20.375 ave 32 max 4 min
Histogram: 2 0 1 0 1 0 0 0 0 4
Nghost:    852.125 ave 903 max 795 min
Histogram: 1 2 1 0 0 0 0 0 2 2
Neighs:    2834.12 ave 4396 max 602 min
Histogram: 2 0 0 1 1 0 0 0 0 4

Total # of neighbors = 22673
Ave neighs/atom = 139.098
Neighbor list builds = 0
Dangerous builds = 0
WARNING: Using 'neigh_modify every 1 delay 0 check yes' setting during minimization (../min.cpp:190)
WARNING: Total cutoff < 2*bond cutoff. May need to use an increased neighbor list skin. (../pair_reaxc.cpp:413)
Setting up cg style minimization ...
  Unit style    : real
  Current step  : 258
Per MPI rank memory allocation (min/avg/max) = 22.53 | 23.58 | 24.64 Mbytes
Step Temp E_pair E_mol TotEng Press 
     258            0   -29278.151            0   -29278.151    37519.638 
     305            0   -29280.665            0   -29280.665    33620.451 
Loop time of 11.3269 on 8 procs for 47 steps with 163 atoms

99.8% CPU use with 8 MPI tasks x no OpenMP threads

Minimization stats:
  Stopping criterion = energy tolerance
  Energy initial, next-to-last, final = 
        -29278.1513741     -29280.6642257     -29280.6645073
  Force two-norm initial, final = 95.5532 50.0292
  Force max component initial, final = 22.2586 17.7043
  Final line search alpha, max atom move = 1.92267e-05 0.000340396
  Iterations, force evaluations = 47 362

MPI task timing breakdown:
Section |  min time  |  avg time  |  max time  |%varavg| %total
---------------------------------------------------------------
Pair    | 8.1363     | 8.6266     | 9.0786     |  12.5 | 76.16
Neigh   | 0          | 0          | 0          |   0.0 |  0.00
Comm    | 0.054791   | 0.50557    | 0.99443    |  51.3 |  4.46
Output  | 0.00083841 | 0.0010377  | 0.001407   |   0.5 |  0.01
Modify  | 2.177      | 2.1774     | 2.1786     |   0.0 | 19.22
Other   |            | 0.01631    |            |       |  0.14

Nlocal:    20.375 ave 33 max 4 min
Histogram: 2 0 1 1 0 0 0 0 0 4
Nghost:    876.625 ave 935 max 816 min
Histogram: 1 1 2 0 0 0 0 1 2 1
Neighs:    2818.25 ave 4545 max 596 min
Histogram: 2 0 1 1 0 0 0 0 1 3

Total # of neighbors = 22546
Ave neighs/atom = 138.319
Neighbor list builds = 0
Dangerous builds = 0
WARNING: Using 'neigh_modify every 1 delay 0 check yes' setting during minimization (../min.cpp:190)
WARNING: Total cutoff < 2*bond cutoff. May need to use an increased neighbor list skin. (../pair_reaxc.cpp:413)
Setting up cg style minimization ...
  Unit style    : real
  Current step  : 305
WARNING: Energy due to 3 extra global DOFs will be included in minimizer energies
Per MPI rank memory allocation (min/avg/max) = 22.53 | 23.58 | 24.64 Mbytes
Step Temp E_pair E_mol TotEng Press Volume 
     305            0   -29280.665            0   -29280.665    33620.451    3522.7279 
     346            0   -29289.005            0   -29289.005   -749.59729    3526.7497 
Loop time of 2.1505 on 8 procs for 41 steps with 163 atoms

99.9% CPU use with 8 MPI tasks x no OpenMP threads

Minimization stats:
  Stopping criterion = energy tolerance
  Energy initial, next-to-last, final = 
        -29280.6645073     -29289.0054712     -29289.0054712
  Force two-norm initial, final = 3814.89 536.498
  Force max component initial, final = 3294.07 261.108
  Final line search alpha, max atom move = 4.56551e-14 1.19209e-11
  Iterations, force evaluations = 41 75

MPI task timing breakdown:
Section |  min time  |  avg time  |  max time  |%varavg| %total
---------------------------------------------------------------
Pair    | 1.6981     | 1.8019     | 1.8893     |   5.5 | 83.79
Neigh   | 0          | 0          | 0          |   0.0 |  0.00
Comm    | 0.012203   | 0.099497   | 0.20315    |  23.5 |  4.63
Output  | 0.00065704 | 0.00082827 | 0.0011787  |   0.0 |  0.04
Modify  | 0.23901    | 0.23909    | 0.23932    |   0.0 | 11.12
Other   |            | 0.009162   |            |       |  0.43

Nlocal:    20.375 ave 33 max 4 min
Histogram: 2 0 1 1 0 0 0 0 0 4
Nghost:    878.625 ave 935 max 820 min
Histogram: 1 1 2 0 0 0 0 1 2 1
Neighs:    2816.25 ave 4541 max 595 min
Histogram: 2 0 1 1 0 0 0 0 1 3

Total # of neighbors = 22530
Ave neighs/atom = 138.221
Neighbor list builds = 0
Dangerous builds = 0
WARNING: Using 'neigh_modify every 1 delay 0 check yes' setting during minimization (../min.cpp:190)
WARNING: Total cutoff < 2*bond cutoff. May need to use an increased neighbor list skin. (../pair_reaxc.cpp:413)
Setting up cg style minimization ...
  Unit style    : real
  Current step  : 346
Per MPI rank memory allocation (min/avg/max) = 22.53 | 23.58 | 24.64 Mbytes
Step Temp E_pair E_mol TotEng Press 
     346            0   -29289.005            0   -29289.005   -749.59729 
     401            0   -29292.819            0   -29292.819    35157.898 
Loop time of 13.8278 on 8 procs for 55 steps with 163 atoms

99.8% CPU use with 8 MPI tasks x no OpenMP threads

Minimization stats:
  Stopping criterion = energy tolerance
  Energy initial, next-to-last, final = 
        -29289.0054712       -29292.81865     -29292.8188376
  Force two-norm initial, final = 427.137 34.3067
  Force max component initial, final = 48.2645 5.85974
  Final line search alpha, max atom move = 0.000130587 0.000765208
  Iterations, force evaluations = 55 444

MPI task timing breakdown:
Section |  min time  |  avg time  |  max time  |%varavg| %total
---------------------------------------------------------------
Pair    | 9.9284     | 10.54      | 11.091     |  13.6 | 76.22
Neigh   | 0          | 0          | 0          |   0.0 |  0.00
Comm    | 0.064544   | 0.61402    | 1.2252     |  56.4 |  4.44
Output  | 0.0011645  | 0.0014376  | 0.0019354  |   0.6 |  0.01
Modify  | 2.6521     | 2.6526     | 2.6539     |   0.0 | 19.18
Other   |            | 0.01986    |            |       |  0.14

Nlocal:    20.375 ave 33 max 4 min
Histogram: 2 0 1 1 0 0 0 0 0 4
Nghost:    875.625 ave 935 max 814 min
Histogram: 1 1 2 0 0 0 0 1 2 1
Neighs:    2812 ave 4536 max 589 min
Histogram: 2 0 1 1 0 0 0 0 1 3

Total # of neighbors = 22496
Ave neighs/atom = 138.012
Neighbor list builds = 0
Dangerous builds = 0
WARNING: Using 'neigh_modify every 1 delay 0 check yes' setting during minimization (../min.cpp:190)
WARNING: Total cutoff < 2*bond cutoff. May need to use an increased neighbor list skin. (../pair_reaxc.cpp:413)
Setting up cg style minimization ...
  Unit style    : real
  Current step  : 401
WARNING: Energy due to 3 extra global DOFs will be included in minimizer energies
Per MPI rank memory allocation (min/avg/max) = 22.53 | 23.58 | 24.64 Mbytes
Step Temp E_pair E_mol TotEng Press Volume 
     401            0   -29292.819            0   -29292.819    35157.898    3526.7497 
     473            0   -29304.534            0   -29304.534    7714.2386     3532.506 
Loop time of 3.88249 on 8 procs for 72 steps with 163 atoms

99.8% CPU use with 8 MPI tasks x no OpenMP threads

Minimization stats:
  Stopping criterion = linesearch alpha is zero
  Energy initial, next-to-last, final = 
        -29292.8188376     -29304.5342142     -29304.5342142
  Force two-norm initial, final = 3881.07 837.432
  Force max component initial, final = 3318.44 631.303
  Final line search alpha, max atom move = 9.01865e-15 5.6935e-12
  Iterations, force evaluations = 72 136

MPI task timing breakdown:
Section |  min time  |  avg time  |  max time  |%varavg| %total
---------------------------------------------------------------
Pair    | 3.06       | 3.2474     | 3.4142     |   7.6 | 83.64
Neigh   | 0          | 0          | 0          |   0.0 |  0.00
Comm    | 0.018687   | 0.18512    | 0.37237    |  31.6 |  4.77
Output  | 0.0012359  | 0.0015103  | 0.0021085  |   0.7 |  0.04
Modify  | 0.43185    | 0.43199    | 0.43247    |   0.0 | 11.13
Other   |            | 0.01646    |            |       |  0.42

Nlocal:    20.375 ave 33 max 4 min
Histogram: 2 0 1 1 0 0 0 0 0 4
Nghost:    875.625 ave 935 max 814 min
Histogram: 1 1 2 0 0 0 0 1 2 1
Neighs:    2812 ave 4534 max 590 min
Histogram: 2 0 1 1 0 0 0 0 1 3

Total # of neighbors = 22496
Ave neighs/atom = 138.012
Neighbor list builds = 0
Dangerous builds = 0
WARNING: Using 'neigh_modify every 1 delay 0 check yes' setting during minimization (../min.cpp:190)
WARNING: Total cutoff < 2*bond cutoff. May need to use an increased neighbor list skin. (../pair_reaxc.cpp:413)
Setting up cg style minimization ...
  Unit style    : real
  Current step  : 473
Per MPI rank memory allocation (min/avg/max) = 22.53 | 23.58 | 24.64 Mbytes
Step Temp E_pair E_mol TotEng Press 
     473            0   -29304.534            0   -29304.534    7714.2386 
     569            0   -29323.418            0   -29323.418    32024.496 
Loop time of 21.9252 on 8 procs for 96 steps with 163 atoms

99.8% CPU use with 8 MPI tasks x no OpenMP threads

Minimization stats:
  Stopping criterion = energy tolerance
  Energy initial, next-to-last, final = 
        -29304.5342142     -29323.4173549     -29323.4175744
  Force two-norm initial, final = 332.619 28.3741
  Force max component initial, final = 39.6169 10.5544
  Final line search alpha, max atom move = 0.000294581 0.00310912
  Iterations, force evaluations = 96 712

MPI task timing breakdown:
Section |  min time  |  avg time  |  max time  |%varavg| %total
---------------------------------------------------------------
Pair    | 15.845     | 16.797     | 17.645     |  17.2 | 76.61
Neigh   | 0          | 0          | 0          |   0.0 |  0.00
Comm    | 0.10993    | 0.95458    | 1.9046     |  72.2 |  4.35
Output  | 0.0015238  | 0.0018569  | 0.0025597  |   0.7 |  0.01
Modify  | 4.139      | 4.1397     | 4.1422     |   0.0 | 18.88
Other   |            | 0.03151    |            |       |  0.14

Nlocal:    20.375 ave 33 max 4 min
Histogram: 2 0 1 1 0 0 0 0 0 4
Nghost:    875.375 ave 934 max 814 min
Histogram: 1 1 2 0 0 0 0 1 2 1
Neighs:    2807.88 ave 4529 max 588 min
Histogram: 2 0 1 1 0 0 0 0 1 3

Total # of neighbors = 22463
Ave neighs/atom = 137.81
Neighbor list builds = 0
Dangerous builds = 0
WARNING: Total cutoff < 2*bond cutoff. May need to use an increased neighbor list skin. (../pair_reaxc.cpp:413)
Setting up Verlet run ...
  Unit style    : real
  Current step  : 0
  Time step     : 0.25
Per MPI rank memory allocation (min/avg/max) = 21.42 | 22.47 | 23.53 Mbytes
Step Temp TotEng KinEng PotEng Press 
       0          300    -29178.55    144.86737   -29323.418    33899.147 
     200     326.4302   -29210.037    157.63028   -29367.668    20084.649 
     400    343.42527   -29244.784    165.83705   -29410.621    1152.6273 
     600    288.22245   -29273.482    139.18009   -29412.662    20196.798 
     800    299.57837   -29269.732    144.66377   -29414.396    10961.149 
    1000    295.26928   -29246.298    142.58295   -29388.881    19479.542 
    1200    308.04986   -29245.919    148.75457   -29394.674    12556.825 
    1400    310.54296   -29230.026    149.95847   -29379.984   -10969.675 
    1600    313.59769   -29235.361    151.43357   -29386.794   -16918.413 
    1800    241.40898   -29256.106    116.57428   -29372.681   -14193.387 
    2000    299.17694    -29215.73    144.46992     -29360.2   -26018.389 
    2200    311.70937   -29212.884    150.52172   -29363.405    24225.696 
    2400    273.21393   -29235.024    131.93261   -29366.957   -21238.799 
    2600    313.59004   -29198.684    151.42988   -29350.114    11962.121 
    2800     333.2519   -29186.435    160.92442   -29347.359    8227.2191 
    3000    265.78776   -29219.326    128.34658   -29347.672   -2242.3422 
    3200    302.25739   -29200.104    145.95744   -29346.061    5899.1606 
    3400    294.41619   -29188.359      142.171    -29330.53   -5522.4405 
    3600    295.74155   -29185.258      142.811   -29328.069   -14910.952 
    3800    302.47993   -29195.778    146.06491   -29341.843   -10248.117 
    4000    273.68262   -29216.158    132.15893   -29348.317   -5942.2059 
    4200    305.41901   -29189.061    147.48416   -29336.545   -15562.898 
    4400    312.33103    -29192.88    150.82192   -29343.702    2455.1436 
    4600    296.09519   -29218.117    142.98177   -29361.099   -18149.322 
    4800    303.16759   -29201.728    146.39697   -29348.125   -1913.7616 
    5000    346.40777   -29168.049    167.27728   -29335.326    8385.1634 
    5200    315.87013   -29202.394    152.53092   -29354.925    16324.589 
    5400    275.29739   -29235.564     132.9387   -29368.503    3874.4674 
    5600    315.32769   -29215.357    152.26898   -29367.626   -13383.689 
    5800       334.27    -29209.74    161.41605   -29371.156   -23192.596 
    6000    323.89133   -29228.889    156.40428   -29385.294    12975.726 
    6200    285.35002   -29246.626    137.79302   -29384.419     18806.43 
    6400     289.5098   -29252.924    139.80174   -29392.726   -9359.7219 
    6600    324.76184   -29227.292    156.82465   -29384.117    10412.191 
    6800    288.32626   -29258.234    139.23022   -29397.464    1022.3996 
    7000    278.77963   -29247.477    134.62024   -29382.097    11868.517 
    7200    288.61164   -29225.245    139.36803   -29364.613   -51766.826 
    7400    293.49123   -29211.367    141.72434   -29353.092   -1257.9205 
    7600    291.89624   -29244.399    140.95413   -29385.353    14811.091 
    7800    310.42591   -29226.545    149.90195   -29376.447    9689.7508 
    8000    290.05853   -29235.989    140.06672   -29376.056    10445.529 
    8200    279.40675   -29238.535    134.92307   -29373.458   -23800.411 
    8400    312.47145   -29208.205    150.88972   -29359.095   -22120.731 
    8600     299.4507   -29235.559    144.60211   -29380.161    36475.775 
    8800    310.68235   -29230.922    150.02578   -29380.948    27392.842 
    9000    286.50967   -29221.579    138.35301   -29359.932    -46.64915 
    9200    277.34294   -29214.486    133.92647   -29348.413    7911.5284 
    9400    315.38656   -29221.653     152.2974    -29373.95   -33246.873 
    9600    266.68092   -29245.278    128.77788   -29374.056    5814.8871 
    9800     308.3626     -29227.2    148.90559   -29376.105    13247.978 
   10000    295.65818   -29219.634    142.77074   -29362.404    21722.375 
   10200    259.11935   -29250.779    125.12646   -29375.906    12626.037 
   10400    288.01413    -29236.81     139.0795   -29375.889    15242.314 
   10600    297.80555   -29231.024    143.80769   -29374.831     1892.572 
   10800    311.88702   -29240.925    150.60751   -29391.532    1842.9082 
   11000    274.10422   -29271.594    132.36252   -29403.957    14730.977 
   11200    308.29239   -29242.358    148.87169    -29391.23   -22969.317 
   11400    305.04538   -29240.301    147.30374   -29387.604    -48790.12 
   11600    330.47397     -29217.6    159.58298   -29377.183    41300.609 
   11800    306.32637   -29247.734    147.92232   -29395.657    18432.017 
   12000    291.65306   -29246.417     140.8367   -29387.254    26652.471 
   12200    305.25312   -29220.609    147.40405   -29368.013   -13014.488 
   12400      305.464   -29234.998    147.50589   -29382.504   -24584.129 
   12600    282.76274   -29251.256    136.54365     -29387.8   -19466.254 
   12800    267.46743   -29265.875    129.15768   -29395.033   -10793.331 
   13000    298.38153   -29240.647    144.08583   -29384.733    3540.8809 
   13200    293.61842   -29252.217    141.78576   -29394.003    30233.697 
   13400    310.30445   -29257.637     149.8433   -29407.481   -18924.714 
   13600     305.1416   -29238.945     147.3502   -29386.295    35617.052 
   13800    305.14451   -29227.341    147.35161   -29374.693    7942.0795 
   14000    319.29714    -29224.71    154.18579   -29378.896   -23601.802 
   14200    283.80112   -29254.057    137.04507   -29391.102     20199.91 
   14400    297.24057   -29226.891    143.53487   -29370.426    3135.0679 
   14600    293.55733   -29218.395    141.75626   -29360.151   -1990.5381 
   14800    282.44127   -29245.729    136.38841   -29382.117    32901.939 
   15000    291.66751   -29242.648    140.84368   -29383.492   -1787.9283 
   15200    313.60238   -29225.901    151.43584   -29377.336    42291.449 
   15400    307.96764   -29236.068    148.71487   -29384.783    23185.292 
   15600    269.42351   -29258.347    130.10225   -29388.449   -31614.229 
   15800    330.98957   -29225.431    159.83196   -29385.263    14869.772 
   16000    301.62197   -29246.493     145.6506   -29392.144    36762.639 
   16200    321.45872   -29219.943     155.2296   -29375.173    10726.092 
   16400    314.03452   -29221.145    151.64452   -29372.789   -41494.483 
   16600    306.29504   -29241.495    147.90719   -29389.402   -7511.3173 
   16800     327.6294   -29208.514    158.20937   -29366.724    -28763.31 
   17000    316.95532   -29224.196    153.05495   -29377.251    35823.957 
   17200    292.63163   -29231.296    141.30925   -29372.605   -9019.3039 
   17400    320.90414   -29197.718    154.96179    -29352.68   -37943.816 
   17600    329.08894   -29229.358    158.91416   -29388.272    41328.186 
   17800    295.79042   -29230.919     142.8346   -29373.754   -3844.7432 
   18000    296.12043   -29227.229    142.99396   -29370.223    19885.603 
   18200    312.92758   -29212.244    151.10998   -29363.354    7326.7624 
   18400    290.87003   -29242.098    140.45858   -29382.556    37365.834 
   18600    302.74285   -29236.505    146.19187   -29382.697    36110.229 
   18800    288.53103   -29224.532     139.3291   -29363.861   -46283.223 
   19000    291.95123   -29242.891    140.98069   -29383.872   -13275.259 
   19200    254.15822   -29259.084    122.73078   -29381.815   -25417.088 
   19400    305.76136   -29226.922    147.64948   -29374.572    23635.777 
   19600    317.95546   -29222.735     153.5379   -29376.273    -10818.41 
   19800     290.1517   -29253.198    140.11171    -29393.31     37469.94 
   20000    305.39426   -29229.941    147.47221   -29377.413    -3186.056 
   20200    315.58252   -29224.377    152.39203   -29376.769   -32622.206 
   20400    300.37717   -29234.672     145.0495   -29379.722   -10867.275 
   20600    312.81965   -29241.035    151.05786   -29392.093   -23278.541 
   20800    315.01291   -29255.696    152.11697   -29407.813    44072.953 
   21000    320.53253   -29225.173    154.78235   -29379.955   -1262.2117 
   21200    302.14184   -29234.569    145.90164    -29380.47     20706.63 
   21400    281.63991   -29268.296    136.00144   -29404.297    4564.4813 
   21600    305.80571    -29240.04    147.67089    -29387.71   -36886.873 
   21800    310.53001   -29233.112    149.95222   -29383.064    502.03781 
   22000    278.41858   -29255.132    134.44589   -29389.578    11171.119 
   22200    296.57186    -29232.22    143.21195   -29375.432   -13723.225 
   22400    297.97169   -29230.267    143.88792   -29374.155   -34798.159 
   22600    284.29276   -29252.723    137.28248   -29390.005    22581.916 
   22800    309.38833   -29237.724    149.40091   -29387.125    21049.021 
   23000    312.51053   -29230.909    150.90859   -29381.817    2136.0329 
   23200     283.1197   -29263.791    136.71602   -29400.507    13709.008 
   23400    286.28116   -29254.853    138.24266   -29393.096     16777.16 
   23600    290.54738   -29221.148    140.30278   -29361.451    22342.268 
   23800    323.67143   -29219.245    156.29809   -29375.543    12063.632 
   24000    280.76465   -29247.452    135.57879   -29383.031    6583.8164 
   24200    323.21265   -29230.744    156.07655   -29386.821    5624.5179 
   24400    309.08643   -29226.155    149.25513    -29375.41    9585.1669 
   24600    295.09245   -29214.856    142.49755   -29357.353     29170.97 
   24800    314.53089   -29218.711    151.88421   -29370.595    14592.246 
   25000    276.64019   -29239.495    133.58712   -29373.082   -23873.146 
   25200    314.18268     -29221.1    151.71606   -29372.816   -15140.762 
   25400    326.97272    -29221.42    157.89226   -29379.312    6292.7706 
   25600    339.02278   -29242.864    163.71113   -29406.575   -7182.2296 
   25800    274.96265   -29228.136    132.77705   -29360.913   -19014.196 
   26000    334.67001   -29220.597    161.60921   -29382.207    15083.783 
   26200    282.02993    -29249.41    136.18978     -29385.6   -24985.788 
   26400    298.40543   -29235.163    144.09737    -29379.26   -34112.871 
   26600    317.15412   -29215.946    153.15094   -29369.097   -9742.9499 
   26800    280.06702   -29252.009    135.24191   -29387.251   -32358.277 
   27000    322.30801   -29226.775    155.63971   -29382.414   -11445.445 
   27200    295.67518   -29231.437    142.77895   -29374.216    5030.5055 
   27400    261.24768   -29270.347    126.15422   -29396.501   -11669.338 
   27600    312.73742    -29248.48    151.01816   -29399.498   -10390.031 
   27800    326.09266    -29230.42    157.46728   -29387.887    28823.464 
   28000    303.15238   -29204.016    146.38963   -29350.406    33447.293 
   28200    325.69562   -29206.835    157.27556   -29364.111   -9408.3236 
   28400     295.5494   -29234.042    142.71821   -29376.761   -3912.1951 
   28600    294.52363   -29235.792    142.22288   -29378.015    -29594.86 
   28800       331.16    -29212.44    159.91426   -29372.355   -33380.336 
   29000    293.56111   -29246.501    141.75808   -29388.259    29679.629 
   29200    339.54487   -29230.316    163.96324   -29394.279   -17940.637 
   29400    312.92345   -29223.162    151.10799    -29374.27    23135.148 
   29600    288.57859   -29252.117    139.35207   -29391.469   -18752.728 
   29800    333.81234   -29226.806    161.19505   -29388.001    4163.5025 
   30000    298.54051   -29259.781    144.16259   -29403.943   -8223.8259 
   30200    286.33072   -29255.661    138.26659   -29393.927   -41488.422 
   30400    336.57786   -29231.761     162.5305   -29394.292   -19347.448 
   30600    306.75492   -29245.345    148.12926   -29393.474   -11817.643 
   30800    279.29065   -29256.978      134.867   -29391.845   -56762.517 
   31000    291.07735   -29235.955     140.5587   -29376.513    14872.455 
   31200    297.22208    -29244.95    143.52594   -29388.476   -28763.653 
   31400    269.93243   -29275.555      130.348   -29405.903   -4894.4136 
   31600     294.8238   -29251.104    142.36783   -29393.472    26628.559 
   31800    292.42749   -29229.867    141.21067   -29371.077    2434.3612 
   32000    291.85862    -29238.16    140.93597   -29379.096    755.30549 
   32200    294.71403   -29255.307    142.31482   -29397.622   -8955.9668 
   32400    324.72444    -29233.06    156.80659   -29389.867    26000.611 
   32600     279.0054   -29239.978    134.72926   -29374.707    3902.1706 
   32800    281.30957   -29262.948    135.84192    -29398.79    3933.3077 
   33000    293.38069    -29231.16    141.67096   -29372.831    18666.247 
   33200    317.67835   -29224.504    153.40409   -29377.908   -26541.546 
   33400    264.34027   -29261.325     127.6476   -29388.972   -2439.4166 
   33600     291.4522   -29242.908    140.73971   -29383.648   -21697.911 
   33800    291.75709   -29229.281    140.88694   -29370.168     14076.24 
   34000    318.65834   -29234.033    153.87732    -29387.91   -7132.3296 
   34200    282.35857   -29255.364    136.34847   -29391.713    2536.0866 
   34400    260.05178   -29263.561    125.57672   -29389.138    30832.469 
   34600    308.25858   -29235.933    148.85537   -29384.789    27093.977 
   34800    303.49859   -29240.206    146.55681   -29386.763   -16576.652 
   35000     279.1179    -29242.56    134.78359   -29377.343    11757.036 
   35200    341.95444   -29214.185     165.1268   -29379.312    1379.4285 
   35400    310.23851   -29241.377    149.81146   -29391.189   -43657.725 
   35600    308.03717     -29236.3    148.74845   -29385.048   -11087.424 
   35800    302.00877   -29219.546    145.83738   -29365.383   -7092.8921 
   36000    331.13275   -29190.933     159.9011   -29350.834    18820.143 
   36200     314.8416    -29229.37    152.03425   -29381.405    -33746.26 
   36400    275.08923   -29237.373    132.83818   -29370.211      1455.97 
   36600    319.44899    -29205.71    154.25912   -29359.969    10961.871 
   36800    292.11939   -29231.912    141.06189   -29372.974   -36982.233 
   37000    287.93585   -29228.134    139.04169   -29367.175    51265.095 
   37200    334.57803   -29201.377     161.5648   -29362.942    10897.343 
   37400    307.04089   -29241.269    148.26735   -29389.536   -17534.891 
   37600    320.73676   -29227.701    154.88097   -29382.582    9834.8008 
   37800    310.59686   -29214.341     149.9845   -29364.325   -25246.122 
   38000    276.62686    -29240.79    133.58068   -29374.371    27182.851 
   38200    299.40737   -29226.569    144.58119    -29371.15   -24299.264 
   38400    324.13567   -29215.529    156.52227   -29372.051    15148.738 
   38600     304.9517   -29238.221     147.2585   -29385.479    15946.123 
   38800    286.19744   -29236.493    138.20224   -29374.695    14147.578 
   39000    284.14254   -29220.991    137.20994   -29358.201    37676.121 
   39200    322.70008   -29180.502    155.82904   -29336.331    19226.211 
   39400    324.14943   -29223.951    156.52892   -29380.479   -1964.8602 
   39600    302.28126   -29248.213    145.96897   -29394.182    11691.301 
   39800    314.67594   -29219.128    151.95425   -29371.082    21591.476 
   40000    321.02758   -29225.615     155.0214   -29380.636    20275.213 
   40200    296.30301   -29230.965    143.08213   -29374.047   -11843.487 
   40400    303.80035   -29231.375    146.70253   -29378.077    -21140.28 
   40600     290.1471   -29235.117    140.10949   -29375.226    -17257.88 
   40800    278.96987   -29244.825     134.7121   -29379.537   -4263.9964 
   41000     312.4043   -29215.224     150.8573   -29366.081   -33651.169 
   41200    304.62963   -29237.259    147.10298   -29384.362   -11151.873 
   41400    283.47877   -29236.213    136.88941   -29373.102   -4941.4396 
   41600    296.89938   -29223.364    143.37011   -29366.734    60721.605 
   41800    304.24425   -29228.572    146.91688   -29375.489    36438.873 
   42000     264.2562   -29252.376      127.607   -29379.983   -24802.416 
   42200    348.05695   -29218.624    168.07365   -29386.697   -13510.632 
   42400     310.5636   -29223.863    149.96844   -29373.831    -995.9644 
   42600     276.5935   -29251.886    133.56458   -29385.451   -700.35005 
   42800    316.83999   -29228.069    152.99925   -29381.068   -20192.126 
   43000    298.14381   -29222.542    143.97103   -29366.513   -3723.6784 
   43200    276.02246   -29251.639    133.28883   -29384.928   -10494.599 
   43400    315.07129   -29231.077    152.14516   -29383.222   -42261.988 
   43600    329.86125   -29215.525     159.2871   -29374.812     47827.13 
   43800    282.28042   -29244.855    136.31074   -29381.165   -36474.756 
   44000    283.75469   -29237.891    137.02265   -29374.914   -5353.9793 
   44200     300.4189    -29229.31    145.06965    -29374.38    66097.286 
   44400    313.25524   -29220.451    151.26821   -29371.719    67243.132 
   44600    337.73016   -29211.944    163.08693   -29375.031    -32917.86 
   44800    264.22204   -29241.294     127.5905   -29368.885   -27430.749 
   45000    337.03023   -29221.292    162.74894   -29384.041   -3831.0719 
   45200    295.65721   -29231.436    142.77027   -29374.207   -6034.3097 
   45400     297.3332   -29240.785    143.57959   -29384.364   -38391.643 
   45600    309.10324   -29219.223    149.26324   -29368.487    47322.651 
   45800    294.26556   -29229.771    142.09826   -29371.869    25313.101 
   46000    296.46959   -29231.719    143.16256   -29374.882    18891.263 
   46200    326.60457   -29195.262    157.71448   -29352.976    22039.019 
   46400    301.52959   -29225.887      145.606   -29371.493   -25960.732 
   46600     267.1965   -29234.873    129.02684     -29363.9   -14765.374 
   46800      316.103    -29200.82    152.64337   -29353.463    33481.527 
   47000     293.9718   -29222.152    141.95641   -29364.108    33142.531 
   47200    302.18692   -29233.326    145.92341    -29379.25    16640.635 
   47400    268.88902   -29246.621    129.84415   -29376.465   -23398.213 
   47600    333.71592   -29223.988    161.14849   -29385.136   -21522.295 
   47800    303.13628   -29234.181    146.38185   -29380.563   -26060.151 
   48000    276.14385   -29245.929    133.34744   -29379.277    37784.435 
   48200    320.01932   -29227.843    154.53452   -29382.377    12465.123 
   48400    305.18818       -29211     147.3727   -29358.373   -6661.5159 
   48600    294.35098   -29232.673    142.13951   -29374.813    32922.294 
   48800    296.31583   -29237.576    143.08831   -29380.664    36730.297 
   49000    322.27945   -29213.023    155.62592   -29368.649    9195.0676 
   49200    280.51636   -29230.494    135.45889   -29365.953    8624.0065 
   49400    300.19354   -29224.225    144.96083   -29369.186    28409.677 
   49600    328.06552   -29192.532    158.41996   -29350.952   -23724.505 
   49800    274.75254   -29219.866    132.67559   -29352.542   -19169.471 
   50000     298.5941   -29229.379    144.18847   -29373.568   -7818.5165 
   50200    308.24228   -29236.102    148.84749    -29384.95    15018.382 
   50400    319.28619   -29213.919     154.1805     -29368.1    6689.2607 
   50600    281.64081   -29230.621    136.00188   -29366.623   -18499.053 
   50800    303.72321   -29241.665    146.66527   -29388.331   -61847.615 
   51000    309.79557   -29216.028    149.59756   -29365.626    21888.225 
   51200    337.52819   -29220.399     162.9894   -29383.388   -39614.061 
   51400    278.27017   -29245.835    134.37422   -29380.209    8612.5241 
   51600    292.37601   -29256.534    141.18581    -29397.72   -6516.7084 
   51800    307.08316   -29222.459    148.28777   -29370.747    9667.3104 
   52000    302.57742   -29229.764    146.11198   -29375.876    2938.2032 
   52200    270.40676   -29251.236    130.57705   -29381.813    37538.469 
   52400    310.53259   -29221.024    149.95346   -29370.977   -3841.0482 
   52600    316.49794   -29239.013    152.83408   -29391.847    8580.4212 
   52800    303.88343   -29251.407    146.74264    -29398.15   -48305.154 
   53000    330.27568   -29216.401    159.48723   -29375.888   -599.65209 
   53200    298.24406   -29237.747    144.01944   -29381.766     12843.21 
   53400    294.84382   -29238.983     142.3775   -29381.361    15844.623 
   53600    311.76782   -29234.564    150.54994   -29385.114     2738.581 
   53800     307.0575   -29228.312    148.27537   -29376.587   -21272.582 
   54000    279.66507   -29239.526    135.04781   -29374.574   -47617.754 
   54200    270.88778   -29247.241    130.80933    -29378.05     9323.528 
   54400    319.00773   -29218.174    154.04604    -29372.22    24407.206 
   54600    312.07041   -29241.973    150.69607   -29392.669   -16173.027 
   54800    320.22598    -29231.01    154.63432   -29385.644    19796.044 
   55000    336.36591   -29213.085    162.42815   -29375.513   -964.99377 
   55200    288.08804   -29239.275    139.11519    -29378.39   -22993.575 
   55400    298.04619   -29235.499    143.92389   -29379.422    29332.126 
   55600    327.99883   -29213.073    158.38776   -29371.461   -19149.198 
   55800    299.42606   -29244.912    144.59022   -29389.502   -19267.666 
   56000    287.78101   -29239.004    138.96693    -29377.97   -32893.819 
   56200    297.30914   -29222.439    143.56798   -29366.007   -5748.0007 
   56400    296.98202   -29237.085    143.41001   -29380.495   -15304.128 
   56600    318.05793    -29243.39    153.58738   -29396.978    14205.935 
   56800     314.2318   -29225.175    151.73978   -29376.915    15408.901 
   57000    309.84107   -29237.712    149.61954   -29387.331   -10310.399 
   57200     301.9643   -29249.018    145.81591   -29394.834   -23972.586 
   57400    302.06103    -29215.87    145.86262   -29361.733   -28472.058 
   57600    290.39669    -29232.43    140.23002    -29372.66   -31237.555 
   57800    283.30319   -29240.616    136.80462   -29377.421   -21665.164 
   58000    289.51492   -29224.358    139.80422   -29364.163    13317.279 
   58200     270.3256   -29242.807    130.53786   -29373.345   -3611.1461 
   58400    277.79311   -29239.705    134.14386   -29373.849    18193.248 
   58600    292.25996   -29221.915    141.12977   -29363.044   -14133.103 
   58800    259.64108   -29247.418     125.3784   -29372.797   -57776.521 
   59000     323.8702   -29235.552    156.39408   -29391.946    26290.067 
   59200    329.36746   -29222.119    159.04866   -29381.167   -2174.9473 
   59400    270.61708   -29244.247    130.67861   -29374.926    15233.683 
   59600    304.60612   -29221.899    147.09162   -29368.991    25321.313 
   59800    295.20367   -29234.526    142.55126   -29377.077   -26828.572 
   60000    298.68793   -29256.044    144.23378   -29400.278   -2662.4669 
   60200    261.25214    -29270.45    126.15637   -29396.606   -13805.613 
   60400    325.08572   -29233.999    156.98104    -29390.98    22623.623 
   60600    300.46463   -29228.616    145.09173   -29373.707    -4335.086 
   60800    268.46395   -29257.517    129.63889   -29387.156   -18320.334 
   61000    332.59191   -29227.758    160.60572   -29388.363   -21449.444 
   61200    298.99318   -29233.778    144.38118   -29378.159   -3302.2176 
   61400     290.4164   -29253.755    140.23953   -29393.995   -11222.674 
   61600    322.85188   -29222.593    155.90234   -29378.496   -29095.079 
   61800    289.92912   -29236.074    140.00423   -29376.079    8406.9811 
   62000    292.83378   -29249.233    141.40686    -29390.64    12717.742 
   62200    318.19264   -29216.197    153.65244    -29369.85   -54655.236 
   62400    310.34347   -29236.499    149.86214   -29386.361   -25244.215 
   62600    293.63391   -29238.014    141.79324   -29379.807    306.25363 
   62800    307.02481   -29226.496    148.25959   -29374.756    5461.9804 
   63000     282.3325   -29248.063    136.33589   -29384.399   -5266.4144 
   63200     305.8356   -29244.255    147.68533    -29391.94    6751.0954 
   63400     318.7086   -29221.795    153.90159   -29375.697   -12024.425 
   63600    291.50026   -29242.092    140.76292   -29382.855   0.97181826 
   63800     313.2309   -29216.648    151.25646   -29367.905   -21062.898 
   64000    291.66619    -29224.22    140.84304   -29365.063    69971.591 
   64200    281.52583   -29239.491    135.94635   -29375.437   -19167.321 
   64400    320.63524   -29222.224    154.83194   -29377.056    832.91351 
   64600    287.27002   -29214.413    138.72017   -29353.133    75.560432 
   64800    289.86248   -29233.733    139.97205   -29373.705    1015.6514 
   65000    292.81374   -29239.121    141.39719   -29380.518    40905.508 
   65200    332.84885   -29207.069    160.72979   -29367.798   -45337.236 
   65400    297.12108   -29236.018    143.47717   -29379.496    465.13186 
   65600     286.8546   -29231.813    138.51957   -29370.333   -8738.5933 
   65800    323.10129   -29214.289    156.02278   -29370.312     3887.033 
   66000    284.73809   -29238.667    137.49752   -29376.164   -20364.678 
   66200     281.1508   -29234.904    135.76525   -29370.669   -824.32238 
   66400    308.98991   -29210.354    149.20852   -29359.562    18427.605 
   66600    284.58291   -29230.515    137.42259   -29367.938    21812.431 
   66800    287.83339   -29249.853    138.99222   -29388.845    15083.862 
   67000    314.61951    -29223.81      151.927   -29375.737    11479.911 
   67200    296.57259   -29236.644     143.2123   -29379.857   -3176.0649 
   67400    314.65669   -29217.238    151.94495   -29369.182   -19027.853 
   67600    299.27394   -29220.505    144.51676   -29365.022   -11136.277 
   67800    268.36981   -29244.457    129.59343   -29374.051    1256.5949 
   68000    297.33666   -29220.739    143.58127    -29364.32   -6935.8424 
   68200    326.27951   -29199.111    157.55751   -29356.669    2037.3291 
   68400    288.99474   -29240.191    139.55302   -29379.744    14396.845 
   68600    294.38601   -29229.767    142.15642   -29371.924   -1583.9418 
   68800     307.1834   -29210.881    148.33617   -29359.217     11274.75 
   69000    293.98727   -29230.463    141.96387   -29372.427    13865.594 
   69200    307.10051   -29239.458    148.29614   -29387.754   -7915.9584 
   69400    292.54125   -29236.713     141.2656   -29377.978    2223.9148 
   69600    315.05735   -29219.798    152.13843   -29371.937   -31236.025 
   69800    278.82222   -29248.113     134.6408   -29382.753   -7485.2738 
   70000    301.99769   -29238.127    145.83203   -29383.959    -29878.52 
   70200    269.33027   -29230.198    130.05722   -29360.255    2103.4522 
   70400    292.19861   -29247.782    141.10015   -29388.882   -14439.475 
   70600    309.61301   -29240.537    149.50941   -29390.047   -56265.701 
   70800     298.3694   -29218.531    144.07997   -29362.611    1071.6418 
   71000    299.10247   -29245.405    144.43396   -29389.839     13630.87 
   71200    302.19105   -29236.013    145.92541   -29381.938   -25506.561 
   71400    295.51256   -29231.272    142.70042   -29373.973   -31766.186 
   71600    287.95836   -29237.313    139.05257   -29376.365   -26140.444 
   71800    308.68354   -29207.179    149.06057   -29356.239    19460.921 
   72000     284.0487   -29227.786    137.16462   -29364.951    19727.583 
   72200    308.02669   -29232.206    148.74339    -29380.95    5179.9543 
   72400    317.32093   -29216.021    153.23149   -29369.252    3944.8375 
   72600    271.31402   -29251.837    131.01516   -29382.853    22916.175 
   72800    305.99922    -29231.37    147.76434   -29379.135    14191.227 
   73000    318.70876    -29217.69    153.90167   -29371.592   -38370.026 
   73200     278.5147   -29225.489     134.4923   -29359.981    56372.579 
   73400    313.84299   -29226.108    151.55203    -29377.66    289.07702 
   73600    306.32124   -29232.319    147.91984   -29380.239   -3301.9658 
   73800    281.78862   -29257.958    136.07325   -29394.031   -3194.8845 
   74000    322.18569   -29227.682    155.58065   -29383.262    30425.457 
   74200     298.6074   -29221.611    144.19489   -29365.806    30473.417 
   74400    305.92649   -29236.124    147.72922   -29383.853   -13924.585 
   74600    271.74052   -29249.324    131.22111   -29380.545   -20993.355 
   74800    353.27629   -29211.337    170.59402   -29381.931   -25653.101 
   75000    296.89551   -29227.729    143.36824   -29371.097    3649.7941 
   75200    283.34958    -29243.72    136.82703   -29380.547   -10622.368 
   75400    320.25847   -29210.245    154.65001   -29364.895    26763.313 
   75600     300.8949   -29234.093    145.29951   -29379.393    25404.724 
   75800    300.70542   -29237.028    145.20801   -29382.236    21262.911 
   76000    323.39697   -29209.857    156.16556   -29366.022    2718.5843 
   76200    273.54543   -29210.662    132.09269   -29342.755   -15458.397 
   76400    299.48212   -29228.256    144.61729   -29372.873   -21720.461 
   76600    296.84509   -29242.413    143.34389   -29385.756   -4229.4623 
   76800    303.58636   -29249.764    146.59919   -29396.363   -28159.171 
   77000    315.22735   -29219.567    152.22052   -29371.788   -24231.026 
   77200    307.53052   -29236.258    148.50379   -29384.762    4822.5704 
   77400    287.23126   -29273.946    138.70146   -29412.648    10929.818 
   77600    305.08219   -29252.126    147.32151   -29399.447    1949.7504 
   77800    298.87439   -29239.767    144.32382   -29384.091   -25394.952 
   78000    344.60104   -29212.533    166.40482   -29378.938    -375.9323 
   78200    323.57576   -29231.285     156.2519   -29387.537    -36217.19 
   78400    298.93712   -29241.578    144.35412   -29385.932    6108.0161 
   78600     299.8764    -29244.27    144.80768   -29389.077    4174.5221 
   78800     323.7958   -29223.007    156.35815   -29379.365   -15719.903 
   79000     275.2102   -29243.969    132.89659   -29376.866    41108.282 
   79200    304.83786   -29254.421    147.20353   -29401.625    6628.4519 
   79400    295.73352    -29227.64    142.80712   -29370.447   -28176.781 
   79600    295.13752   -29228.497    142.51932   -29371.017   -18999.599 
   79800    285.23676   -29257.687    137.73833   -29395.425    109.15282 
   80000    277.29833   -29247.445    133.90493    -29381.35   -4724.5618 
   80200    300.76729   -29229.723    145.23788   -29374.961    8903.5077 
   80400    321.86404    -29207.91    155.42532   -29363.335   -5414.5748 
   80600    275.13438   -29229.573    132.85998   -29362.433    34686.135 
   80800    264.10762   -29241.714    127.53525    -29369.25   -33425.978 
   81000    305.45382   -29215.266    147.50097   -29362.767    3740.9719 
   81200    280.02374    -29243.02    135.22101   -29378.241    16625.669 
   81400    289.22359   -29239.881    139.66353   -29379.545    16050.471 
   81600    317.33776   -29218.045    153.23962   -29371.285    9418.2613 
   81800    317.86232   -29212.811    153.49292   -29366.304   -32076.019 
   82000    274.22333   -29243.522    132.42004   -29375.942    12522.919 
   82200    294.58918   -29254.441    142.25453   -29396.696    3819.7349 
   82400    325.52178   -29219.064    157.19161   -29376.256   -56703.742 
   82600    322.95349    -29228.41    155.95141   -29384.361     -23618.3 
   82800    278.42334   -29253.649    134.44819   -29388.098    34491.526 
   83000    314.79331   -29220.479    152.01093    -29372.49   -21472.951 
   83200    310.22877   -29218.964    149.80675   -29368.771    -11305.06 
   83400    260.84357   -29244.359    125.95907   -29370.319   -5376.0957 
   83600    303.32845   -29210.535    146.47465   -29357.009   -33121.374 
   83800    306.15804   -29214.166    147.84103   -29362.007    13241.606 
   84000    269.07198   -29232.093     129.9325   -29362.026   -589.62875 
   84200    353.94812   -29202.959    170.91844   -29373.878    4628.2261 
   84400    269.91566   -29240.919     130.3399   -29371.259    16594.731 
   84600    337.50168   -29232.436     162.9766   -29395.413   -549.68407 
   84800    320.82784   -29215.136    154.92495   -29370.061      14798.9 
   85000    281.33309   -29249.026    135.85328    -29384.88    9593.7392 
   85200    283.29189   -29235.089    136.79917   -29371.888    51456.682 
   85400    315.13116    -29203.43    152.17407   -29355.604    11854.813 
   85600    318.43562   -29202.624    153.76977   -29356.394    12859.896 
   85800    293.12837   -29238.646    141.54912   -29380.195    11974.417 
   86000     292.5136   -29245.362    141.25225   -29386.614   -7611.9993 
   86200    335.83036   -29210.594    162.16954   -29372.763   -11660.371 
   86400    298.88723   -29222.398    144.33002   -29366.728   -437.53387 
   86600     312.4131    -29230.87    150.86155   -29381.732   -4719.0271 
   86800    294.33402   -29234.174    142.13132   -29376.305    6382.8646 
   87000    308.61223   -29233.101    149.02614   -29382.127   -28817.619 
   87200    300.12538   -29224.294    144.92791   -29369.221   -25301.704 
   87400    287.20888   -29249.123    138.69065   -29387.814   -9810.7465 
   87600    305.43661   -29242.501    147.49266   -29389.993    14721.294 
   87800    298.73883   -29223.206    144.25836   -29367.464    20231.374 
   88000     303.4506   -29242.566    146.53363     -29389.1   -19296.745 
   88200    292.12415   -29258.949    141.06419   -29400.013    25018.141 
   88400    297.11804   -29219.785     143.4757   -29363.261    10492.826 
   88600    307.91348   -29218.192    148.68872    -29366.88    39737.491 
   88800     287.8069   -29246.455    138.97943   -29385.435   -2948.9528 
   89000    320.25568   -29221.644    154.64866   -29376.293   -4909.1157 
   89200     295.5647    -29219.68     142.7256   -29362.406     10018.27 
   89400    297.91752   -29241.683    143.86176   -29385.544    -4100.626 
   89600    279.69887   -29249.592    135.06413   -29384.656   -11262.691 
   89800    308.83426   -29227.054    149.13335   -29376.188   -2961.0989 
   90000    305.46914   -29219.871    147.50837    -29367.38    20150.323 
   90200    291.84011   -29229.884    140.92703   -29370.811   -7155.9967 
   90400    279.68008   -29246.401    135.05506   -29381.456    11630.129 
   90600    309.41348   -29228.536    149.41305   -29377.949   -44148.872 
   90800    304.50899   -29225.998    147.04472   -29373.043   -2995.1641 
   91000    284.98918   -29240.171    137.61877    -29377.79    32870.899 
   91200    329.19074   -29237.933    158.96332   -29396.897   -31827.024 
   91400    288.49869   -29245.843    139.31349   -29385.156    27954.296 
   91600    297.28822    -29225.03    143.55788   -29368.588   -5307.4946 
   91800    290.89276   -29227.697    140.46956   -29368.166   -3070.1598 
   92000    291.79503   -29242.614    140.90526   -29383.519    5741.2027 
   92200    286.95515   -29229.775    138.56812   -29368.343    9416.3372 
   92400    332.41378   -29193.996     160.5197   -29354.516    12563.659 
   92600    309.95646   -29230.628    149.67526   -29380.304   -5123.8993 
   92800    294.42142   -29240.336    142.17352    -29382.51   -15549.435 
   93000    309.58795   -29219.154    149.49731   -29368.652    3693.9993 
   93200    286.87681    -29220.71    138.53029   -29359.241   -41164.206 
   93400    313.93613   -29243.672      151.597   -29395.269    -7186.785 
   93600    324.35179   -29219.155    156.62663   -29375.782   -8091.2349 
   93800    288.08846   -29240.157    139.11539   -29379.272   -31510.998 
   94000     274.7473   -29241.666    132.67306   -29374.339     -33918.7 
   94200    337.96786   -29222.527    163.20171   -29385.728   -20950.854 
   94400    302.82635   -29238.094    146.23219   -29384.326    23812.087 
   94600     302.3926   -29229.446    146.02273   -29375.468   -11143.458 
   94800     336.4109    -29200.75    162.44987     -29363.2   -19440.358 
   95000    323.67205   -29240.436     156.2984   -29396.735    -11495.96 
   95200    309.16396   -29244.567    149.29256    -29393.86    13169.094 
   95400    289.24952   -29215.892    139.67606   -29355.568    3104.5635 
   95600    298.57753   -29226.531    144.18047   -29370.711   -18321.312 
   95800    299.42733   -29247.118    144.59083   -29391.709   -17576.633 
   96000     294.1441   -29226.043    142.03961   -29368.082    3650.5485 
   96200    333.10821   -29203.189    160.85503   -29364.044    270.47799 
   96400     267.9483   -29243.886    129.38989   -29373.276    12843.948 
   96600    294.58312   -29235.603     142.2516   -29377.855    10652.792 
   96800    294.18973   -29213.894    142.06164   -29355.956    -23168.63 
   97000     300.0053   -29241.965    144.86993   -29386.835   -20615.156 
   97200    309.19461   -29237.961    149.30736   -29387.268    7815.7695 
   97400    307.30204   -29216.885    148.39346   -29365.279   -3195.9298 
   97600    302.61203   -29229.335     146.1287   -29375.464   -21265.002 
   97800    288.52598   -29243.461    139.32667   -29382.788    3360.3745 
   98000    293.24189   -29265.525    141.60394   -29407.129    3807.5715 
   98200    284.25008   -29228.307    137.26187   -29365.569   -40841.428 
   98400     282.6675   -29237.184    136.49766   -29373.682    3793.3216 
   98600    283.31252   -29256.114    136.80913   -29392.923   -33335.425 
   98800    298.60105   -29222.676    144.19183   -29366.868   -4201.6644 
   99000    310.42344    -29234.01    149.90076   -29383.911   -46812.485 
   99200    265.90483   -29264.804    128.40311   -29393.207    43305.785 
   99400    287.43907   -29238.442    138.80181   -29377.244   -1451.1595 
   99600    318.93938   -29222.277    154.01303    -29376.29   -5391.4585 
   99800    286.01581   -29252.839    138.11453   -29390.954     1387.429 
  100000    294.44328   -29243.322    142.18408   -29385.506    12809.558 
  100200     310.3274   -29234.389    149.85438   -29384.244    7255.4019 
  100400    306.12035   -29227.643    147.82283   -29375.465    11196.509 
  100600    281.39482   -29255.466    135.88309   -29391.349    19002.785 
  100800    292.02556   -29231.812    141.01658   -29372.829   -24363.025 
  101000    320.30226    -29228.65    154.67115   -29383.321   -20756.073 
  101200    290.96851   -29252.355    140.50614   -29392.861    20145.437 
  101400    285.55763   -29259.432    137.89327   -29397.325   -55917.604 
  101600    325.09587   -29225.107    156.98594   -29382.093   -40297.416 
  101800    276.13605    -29236.44    133.34368   -29369.784    -28410.39 
  102000    294.90822   -29252.216    142.40859   -29394.624    60602.629 
  102200    343.82636   -29218.062    166.03073   -29384.093   -22953.732 
  102400    281.46668   -29240.307    135.91779   -29376.225   -20556.869 
  102600    279.18211    -29247.43    134.81459   -29382.244   -27126.119 
  102800    289.08887   -29225.959    139.59848   -29365.557   -24807.324 
  103000    285.89797   -29234.188    138.05762   -29372.246    4805.6054 
  103200    262.56925   -29252.147    126.79239   -29378.939    19860.295 
  103400    305.53136   -29217.974    147.53842   -29365.513   -19096.886 
  103600    300.58051    -29233.57    145.14769   -29378.718    38183.116 
  103800    307.02544   -29229.717    148.25989   -29377.977   -34358.135 
  104000    318.91031   -29227.249    153.99899   -29381.248   -2578.3223 
  104200    264.79816   -29248.839    127.86871   -29376.708    4063.7696 
  104400    308.35937   -29221.861    148.90403   -29370.765   -7182.6571 
  104600    313.67446   -29234.313    151.47065   -29385.784    1969.2403 
  104800    273.51527   -29253.293    132.07813   -29385.371   -22247.814 
  105000    319.94058   -29217.773     154.4965   -29372.269    6542.9731 
  105200    291.14091   -29244.066    140.58939   -29384.655    20924.403 
  105400    307.75594    -29237.62    148.61264   -29386.233    6142.1069 
  105600    354.20142    -29215.66    171.04076   -29386.701   -12040.713 
  105800    283.14543   -29241.398    136.72844   -29378.127    19546.374 
  106000    278.52058   -29236.795    134.49515    -29371.29     3811.516 
  106200    338.95017   -29212.046    163.67606   -29375.723   -9335.9701 
  106400    301.70387   -29243.157    145.69015   -29388.848    36455.828 
  106600    305.87993   -29231.808    147.70674   -29379.514    27770.953 
  106800    298.32351   -29201.474     144.0578   -29345.532    6507.5381 
  107000    311.60309   -29214.139     150.4704   -29364.609   -31876.231 
  107200    314.45267   -29243.833    151.84643    -29395.68    7715.3817 
  107400     292.0466   -29220.635    141.02674   -29361.661    36554.921 
  107600     286.1184   -29234.559    138.16407   -29372.723   -13227.166 
  107800    285.14525    -29245.96    137.69414   -29383.654    19595.213 
  108000    286.36949   -29221.865    138.28531   -29360.151    3419.8532 
  108200    287.10794   -29243.351    138.64191   -29381.993    41226.843 
  108400    264.48052   -29247.394    127.71532   -29375.109     6931.412 
  108600    337.15383   -29229.137    162.80863   -29391.945    37026.319 
  108800    270.86771   -29228.839    130.79964   -29359.638   -8011.8062 
  109000    300.63929   -29214.344    145.17608    -29359.52    5418.8745 
  109200      298.228   -29235.886    144.01168   -29379.898    11684.403 
  109400    270.62374   -29238.612    130.68183   -29369.293    13244.792 
  109600    305.32731   -29206.721    147.43988   -29354.161   -9814.2983 
  109800    332.69104   -29226.074    160.65359   -29386.728    3825.7654 
  110000    279.38758   -29244.214    134.91381   -29379.128   -36996.873 
  110200    289.49291   -29260.606    139.79359     -29400.4    7892.5039 
  110400    286.16308   -29229.497    138.18564   -29367.683      8769.59 
  110600    316.07081   -29233.563    152.62782   -29386.191    46459.249 
  110800     256.5321   -29264.825     123.8771   -29388.702    31273.554 
  111000    303.78599   -29228.828    146.69559   -29375.524   -25187.367 
  111200     299.7269   -29235.933    144.73549   -29380.668   -23511.622 
  111400    297.93923   -29234.379    143.87224   -29378.251   -22028.384 
  111600    317.08921   -29229.221     153.1196   -29382.341    21952.132 
  111800    271.35311   -29254.118    131.03404   -29385.152   -17407.762 
  112000    327.42463   -29220.629    158.11048   -29378.739   -18476.544 
  112200    298.03467   -29238.271    143.91833   -29382.189   -44577.013 
  112400    313.51675   -29239.085    151.39449    -29390.48    1344.6967 
  112600    341.81711   -29203.872    165.06049   -29368.932    15919.925 
  112800    297.11406   -29234.014    143.47377   -29377.487   -18589.659 
  113000    305.07272   -29246.352    147.31694   -29393.669   -28960.599 
  113200    326.70019   -29226.256    157.76066   -29384.017    16481.196 
  113400    289.37717   -29226.931     139.7377   -29366.669   -48494.597 
  113600     294.0989   -29251.884    142.01778   -29393.902    3429.5915 
  113800    309.70675   -29231.026    149.55467   -29380.581    56887.819 
  114000    303.22095   -29230.672    146.42274   -29377.095   -12899.705 
  114200    301.03809   -29232.467    145.36865   -29377.836    10657.985 
  114400    277.64691   -29259.455    134.07326   -29393.528    3050.0016 
  114600    300.72899   -29236.673    145.21939   -29381.893    34544.677 
  114800    287.76462   -29235.243    138.95901   -29374.202     -7775.66 
  115000    284.08676   -29259.489      137.183   -29396.672    44295.899 
  115200     277.1649   -29237.554     133.8405   -29371.395   -18614.336 
  115400    323.24708   -29220.943    156.09318   -29377.036   -6176.8707 
  115600    279.87102   -29248.167    135.14726   -29383.314    20026.806 
  115800    336.67855   -29220.192    162.57912   -29382.771   -46411.559 
  116000    313.59376   -29223.998    151.43168    -29375.43    2501.9831 
  116200    307.30693   -29247.332    148.39582   -29395.728    38271.234 
  116400    303.95442   -29217.486    146.77692   -29364.263    22281.862 
  116600    287.22529   -29217.775    138.69857   -29356.473    15551.573 
  116800    311.41912   -29243.402    150.38156   -29393.784   -6212.0107 
  117000    302.59594   -29241.954    146.12093   -29388.075    -38779.62 
  117200    329.32924   -29210.779     159.0302   -29369.809    21905.239 
  117400     282.9264   -29237.105    136.62268   -29373.728    -32813.79 
  117600     278.7203   -29241.125    134.59159   -29375.717   -71017.824 
  117800    317.92907    -29224.46    153.52516   -29377.985   -55138.061 
  118000    329.36904   -29225.558    159.04942   -29384.608   -17224.382 
  118200    254.84278   -29255.233    123.06134   -29378.294    13643.756 
  118400    281.00914    -29242.31    135.69685   -29378.007   -56530.167 
  118600    308.66267   -29224.671    149.05049   -29373.721    92.473788 
  118800    324.89309   -29226.579    156.88802   -29383.467    10335.624 
  119000    258.98455   -29248.761    125.06137   -29373.823   -18001.205 
  119200    322.78169   -29215.692    155.86845    -29371.56    7530.0642 
  119400    322.97542   -29230.388      155.962    -29386.35    2735.7937 
  119600    289.07563   -29234.745    139.59208   -29374.337    18253.394 
  119800    294.50667   -29228.454    142.21469   -29370.669   -26054.855 
  120000    335.48085    -29207.49    162.00076   -29369.491   -27415.552 
  120200    285.87595   -29236.027    138.04699   -29374.074    4989.0389 
  120400    289.14951   -29232.253    139.62776   -29371.881   -13595.128 
  120600    352.22338   -29197.114    170.08558     -29367.2    14689.722 
  120800    318.45191   -29233.664    153.77763   -29387.442   -14884.807 
  121000    288.83399   -29231.669     139.4754   -29371.144   -22794.223 
  121200    321.89652   -29210.561      155.441   -29366.002    10344.541 
  121400    286.22649   -29245.734    138.21626    -29383.95    39992.476 
  121600    319.09937   -29227.905    154.09029   -29381.995   -7897.1858 
  121800    275.84448   -29234.751    133.20288   -29367.953    -19780.44 
  122000     292.7344   -29249.624    141.35888   -29390.983   -2858.9734 
  122200     306.1076   -29223.003    147.81667    -29370.82    18271.856 
  122400    288.01526   -29238.668    139.08004   -29377.749   -23022.367 
  122600    265.59512   -29254.784    128.25355   -29383.037    9643.2778 
  122800    316.85867   -29236.152    153.00827    -29389.16    15701.414 
  123000    321.73173   -29240.738    155.36143     -29396.1    27122.923 
  123200    307.77646   -29218.522    148.62255   -29367.145    20850.954 
  123400    327.56949    -29217.96    158.18044    -29376.14     13956.49 
  123600    293.51768   -29244.686    141.73711   -29386.423   -30590.336 
  123800    313.05024   -29227.403    151.16921   -29378.572    20832.094 
  124000      290.097   -29254.516     140.0853   -29394.601   -6295.0549 
  124200    285.77977   -29241.198    138.00055   -29379.198   -4181.7986 
  124400    291.68263   -29226.222    140.85098   -29367.073    16079.859 
  124600    295.82191   -29236.606    142.84981   -29379.456   -20951.383 
  124800    281.45789   -29254.021    135.91355   -29389.934    7956.1099 
  125000    323.78556   -29227.893    156.35321   -29384.246   -38035.937 
  125200    295.66398   -29235.812    142.77354   -29378.586   -2596.3071 
  125400    289.47439   -29244.071    139.78464   -29383.856   -33284.911 
  125600    279.32698   -29234.252    134.88455   -29369.136   -4623.6481 
  125800    330.66489   -29227.767    159.67518   -29387.443   -26413.329 
  126000    292.18344   -29259.601    141.09282   -29400.694   -24367.466 
  126200    288.21075   -29240.649    139.17444   -29379.824    72545.405 
  126400    335.29437   -29229.103    161.91071   -29391.013    12918.471 
  126600    273.11299   -29239.492    131.88387   -29371.376    8499.9721 
  126800    296.74314   -29229.054    143.29466   -29372.349    42210.806 
  127000    280.24348   -29223.603    135.32712    -29358.93    18149.252 
  127200    289.66803   -29252.662    139.87815    -29392.54    23605.339 
  127400    294.76218   -29239.968    142.33807   -29382.306   -6882.6144 
  127600    291.42175    -29233.28      140.725   -29374.005     31282.52 
  127800     297.8798   -29220.545    143.84354   -29364.388   -53663.023 
  128000    288.30385   -29250.178     139.2194   -29389.397    -15392.05 
  128200    290.11053   -29244.149    140.09183   -29384.241   -38460.192 
  128400    330.99538   -29217.322    159.83477   -29377.157    44425.524 
  128600    312.75073   -29243.434    151.02459   -29394.458    9804.2477 
  128800    306.57929   -29236.012    148.04445   -29384.057    10323.076 
  129000    360.25755   -29205.545    173.96521    -29379.51    19684.689 
  129200    296.94038   -29238.097     143.3899   -29381.487   -22051.503 
  129400    285.16389   -29235.161    137.70314   -29372.864    51354.507 
  129600    309.99589   -29231.168     149.6943   -29380.862    1108.6692 
  129800    270.19042   -29248.647    130.47258    -29379.12    13390.592 
  130000    313.86929   -29229.292    151.56472   -29380.857    5764.1786 
  130200    276.68538    -29222.08    133.60894   -29355.689    38163.943 
  130400    311.70014   -29237.411    150.51726   -29387.929     14058.43 
  130600    311.56623    -29229.54     150.4526   -29379.993    32664.775 
  130800    311.29655   -29204.073    150.32237   -29354.395    39907.479 
  131000    315.46072   -29196.693    152.33322   -29349.026   -20461.957 
  131200    282.58158   -29221.138    136.45617   -29357.595    -7072.749 
  131400    281.75703   -29233.837      136.058   -29369.895    18850.512 
  131600     293.8755   -29225.311     141.9099   -29367.221    47957.819 
  131800    305.85324   -29203.505    147.69385   -29351.199    14398.941 
  132000    318.70847   -29237.519    153.90152   -29391.421     37413.71 
  132200    326.96613   -29225.424    157.88907   -29383.313    29250.617 
  132400    326.76325   -29195.096    157.79111   -29352.887    37573.092 
  132600    303.81633   -29219.136    146.71024   -29365.846   -28620.162 
  132800    296.44665    -29244.44    143.15149   -29387.592   -12314.928 
  133000      287.007   -29237.453    138.59316   -29376.046   -4598.8951 
  133200    326.31597   -29219.384    157.57512   -29376.959   -12184.777 
  133400    284.36127   -29243.414    137.31556    -29380.73    25481.631 
  133600    354.97607   -29207.157    171.41483   -29378.572    -3624.389 
  133800    309.85553   -29222.818    149.62652   -29372.445    10783.722 
  134000    275.48516   -29237.842    133.02937   -29370.872     1126.428 
  134200    312.19162   -29202.177    150.75459   -29352.931   -28431.511 
  134400    313.74117   -29224.589    151.50286   -29376.092    18302.595 
  134600    290.49929   -29241.185    140.27956   -29381.464    22982.838 
  134800     282.4152   -29252.106    136.37582   -29388.482    35289.597 
  135000    292.30793   -29232.117    141.15293    -29373.27   -37260.374 
  135200    343.31873   -29218.434     165.7856    -29384.22    53382.528 
  135400    273.27349   -29249.576    131.96137   -29381.537   -2777.3533 
  135600    290.22898   -29238.204    140.14903   -29378.353    12477.517 
  135800    298.95097   -29227.431     144.3608   -29371.792    27087.634 
  136000    269.92481    -29261.78    130.34432   -29392.125    7965.7274 
  136200    285.09107    -29239.99    137.66798   -29377.658    38365.363 
  136400    288.80417   -29225.593      139.461   -29365.054    20551.611 
  136600    301.92633   -29252.266    145.79757   -29398.064   -30866.725 
  136800    279.84585   -29248.792     135.1351   -29383.927    5355.2705 
  137000    298.01803   -29238.013    143.91029   -29381.924   -6614.6412 
  137200    319.50858    -29231.25    154.28789   -29385.538    -29173.58 
  137400    335.13379   -29233.452    161.83317   -29395.286    40332.365 
  137600     283.1304   -29255.863    136.72119   -29392.584    2746.2793 
  137800    332.87071    -29223.09    160.74035    -29383.83    38744.921 
  138000    292.37947    -29239.68    141.18748   -29380.868    -11213.57 
  138200    277.54038   -29256.613    134.02182   -29390.635    33136.457 
  138400    302.35775   -29238.183    146.00591   -29384.189   -17956.487 
  138600    298.38383   -29226.171    144.08694   -29370.258    817.73734 
  138800    264.94978   -29257.589    127.94193   -29385.531   -41532.388 
  139000    269.46092   -29242.423    130.12031   -29372.543   -31728.379 
  139200    330.41849   -29223.092    159.55619   -29382.649   -7905.3929 
  139400    293.18549   -29237.219     141.5767   -29378.796   -4729.5176 
  139600    277.37577   -29244.005    133.94232   -29377.948   -12226.231 
  139800    320.07956   -29221.319    154.56361   -29375.882   -16407.756 
  140000    272.41909   -29239.122    131.54879   -29370.671    26972.945 
  140200    276.16095   -29263.295     133.3557    -29396.65   -16398.035 
  140400    295.21694    -29233.93    142.55767   -29376.488   -24608.956 
  140600    298.07277   -29228.479    143.93673   -29372.416    12089.474 
  140800    315.32538   -29230.963    152.26786   -29383.231   -4250.1553 
  141000    288.83929   -29233.047    139.47796   -29372.525   -22880.803 
  141200    301.37688    -29233.11    145.53225   -29378.642   -35404.233 
  141400    307.27805    -29224.43    148.38187   -29372.812    15429.328 
  141600    303.44899   -29243.673    146.53286   -29390.206   -12488.035 
  141800    265.35985    -29244.45    128.13995    -29372.59   -37503.163 
  142000    314.57007   -29220.188    151.90313   -29372.091   -16034.676 
  142200    286.71865   -29246.271    138.45392   -29384.725    33158.225 
  142400    319.77035   -29220.873     154.4143   -29375.287    26412.628 
  142600    307.16627   -29221.423     148.3279   -29369.751   -13448.806 
  142800    313.60612   -29242.226    151.43764   -29393.663     9996.098 
  143000    309.64093   -29204.354    149.52289   -29353.877   -35964.877 
  143200    315.60783   -29227.269    152.40425   -29379.674    16382.908 
  143400    274.53315    -29229.67    132.56965    -29362.24    -16050.61 
  143600    328.91385   -29202.013    158.82961   -29360.843   -35805.228 
  143800    294.71658   -29222.822    142.31605   -29365.138     6971.742 
  144000    298.64027   -29225.744    144.21077   -29369.955     8370.665 
  144200    292.83576   -29244.767    141.40782   -29386.175    63165.658 
  144400    299.65584   -29234.453    144.70118   -29379.154   -15106.663 
  144600    307.28766   -29221.207    148.38651   -29369.593    -36905.69 
  144800    313.50186    -29243.08     151.3873   -29394.468    2069.9325 
  145000    257.35486   -29278.091     124.2744   -29402.366   -1296.9309 
  145200    287.14966   -29242.713    138.66205   -29381.375    30684.141 
  145400     317.7945   -29214.426    153.46017   -29367.887   -44882.096 
  145600    273.55746   -29237.114     132.0985   -29369.212   -19219.037 
  145800    288.58225   -29241.196    139.35384    -29380.55    -16753.02 
  146000    284.99597   -29230.469    137.62205   -29368.091    27165.867 
  146200    292.75184   -29226.478     141.3673   -29367.846    16587.955 
  146400    336.24798   -29209.426     162.3712   -29371.797     37584.52 
  146600      293.372   -29238.872    141.66676   -29380.539    -18913.52 
  146800    283.63786    -29231.65    136.96624   -29368.616   -15104.325 
  147000    336.65586   -29195.579    162.56816   -29358.147   -35688.254 
  147200    337.30843   -29225.975    162.88328   -29388.858    -2227.279 
  147400    316.67017   -29239.533    152.91725   -29392.451    24879.765 
  147600    302.13541   -29227.663    145.89854   -29373.562    9469.4373 
  147800     311.5265   -29223.055    150.43342   -29373.488     13624.52 
  148000    292.55496    -29243.63    141.27222   -29384.902   -15850.975 
  148200    300.95065   -29228.038    145.32643   -29373.364   -5690.3778 
  148400    346.85916    -29210.75    167.49525   -29378.245   -15187.821 
  148600    304.24586   -29237.394    146.91766   -29384.311    6310.4282 
  148800    282.91063   -29238.848    136.61506   -29375.463    26273.789 
  149000    299.12758   -29207.692    144.44608   -29352.138    -3600.462 
  149200     303.1284   -29229.691    146.37805   -29376.069    23428.496 
  149400    308.89126   -29241.873    149.16088   -29391.034   -28229.336 
  149600    310.43171   -29241.298    149.90475   -29391.203    16048.266 
  149800    323.42955   -29213.098    156.18129   -29369.279   -15049.115 
  150000    314.06363   -29246.487    151.65857   -29398.146   -19084.351 
  150200    313.14512   -29239.601    151.21503   -29390.816   -8940.5341 
  150400     315.6163   -29223.038    152.40834   -29375.447   -4036.6698 
  150600       262.44   -29251.404    126.72997   -29378.134    950.63176 
  150800    316.51602   -29240.317    152.84281   -29393.159   -77829.781 
  151000    298.93594   -29225.865    144.35354   -29370.219   -16988.312 
  151200    295.49229   -29236.868    142.69063   -29379.559    40259.095 
  151400    258.25992   -29272.633    124.71145   -29397.344    56009.585 
  151600    284.23913   -29245.468    137.25658   -29382.724    34930.313 
  151800    290.90609   -29231.768      140.476   -29372.244   -8911.0198 
  152000    314.54769     -29229.6    151.89232   -29381.492   -2395.9099 
  152200    302.93153    -29256.66    146.28298   -29402.943    765.98167 
  152400    292.70689   -29231.819    141.34559   -29373.165    19768.473 
  152600    293.55698   -29234.528    141.75609   -29376.284   -23524.718 
  152800    288.35544   -29263.726    139.24431    -29402.97    19610.463 
  153000    325.39343   -29242.015    157.12963   -29399.144   -26489.221 
  153200    304.75729   -29224.608    147.16462   -29371.773   -20573.228 
  153400    277.49696   -29252.326    134.00085   -29386.327   -42108.524 
  153600     331.4783    -29229.11    160.06796   -29389.178    1504.2729 
  153800    325.38511   -29226.275    157.12561   -29383.401   -25684.683 
  154000    286.08994   -29250.267    138.15032   -29388.417    14225.591 
  154200    304.31785   -29216.258    146.95242    -29363.21   -12975.361 
  154400    342.34863   -29227.507    165.31715   -29392.825   -15141.492 
  154600     283.4857   -29241.579    136.89276   -29378.471     42855.75 
  154800    314.54165   -29213.787    151.88941   -29365.677    7557.9029 
  155000    296.01152   -29230.599    142.94136   -29373.541    12940.965 
  155200    290.02282   -29240.283    140.04948   -29380.333    14292.568 
  155400     297.9139   -29220.637    143.86001   -29364.497    24648.004 
  155600    312.52767   -29209.046    150.91687   -29359.963    31812.133 
  155800    290.15669    -29241.46    140.11412   -29381.574   -30038.862 
  156000    318.92681    -29232.74    154.00696   -29386.747   -7124.9996 
  156200    326.25659   -29210.106    157.54645   -29367.653   -14967.066 
  156400    307.87387   -29231.009    148.66959   -29379.678    17112.546 
  156600    293.14496   -29235.617    141.55713   -29377.174   -53035.063 
  156800    318.17108   -29213.168    153.64202    -29366.81   -41688.255 
  157000    312.51204    -29231.85    150.90932    -29382.76   -17505.445 
  157200     288.0516   -29238.661    139.09759   -29377.759    4220.4696 
  157400    312.00896   -29205.958    150.66639   -29356.624   -2302.8395 
  157600    347.37403   -29206.296    167.74387    -29374.04    1904.5606 
  157800    285.86423   -29234.622    138.04133   -29372.663   -17401.319 
  158000    282.73925   -29239.208    136.53231   -29375.741   -2643.2843 
  158200    317.60846   -29207.405    153.37034   -29360.776    744.11258 
  158400    302.52716   -29233.444    146.08771   -29379.532   -5113.0067 
  158600    283.69375   -29231.561    136.99322   -29368.554    27568.452 
  158800    344.35762   -29216.925    166.28728   -29383.212    48527.494 
  159000    358.36485   -29205.995    173.05124   -29379.046    17149.255 
  159200    280.30896   -29234.579    135.35874   -29369.937    56362.138 
  159400     329.9107   -29215.518    159.31098   -29374.829   -10465.414 
  159600    315.13764   -29200.382     152.1772   -29352.559   -2607.2339 
  159800    311.22723   -29234.215     150.2889   -29384.503   -45784.796 
  160000    314.10561    -29223.13    151.67884   -29374.809   -43427.344 
  160200    330.06053   -29203.371    159.38334   -29362.754     29494.77 
  160400    282.11725   -29238.989    136.23195   -29375.221   -7521.9339 
  160600    336.97784   -29221.838    162.72364   -29384.561     29767.44 
  160800    317.73708   -29209.197    153.43245    -29362.63    13867.677 
  161000     301.1713   -29242.496    145.43298   -29387.929    7085.4406 
  161200    299.14829   -29218.737    144.45608   -29363.193   -6227.9853 
  161400    340.54848   -29217.007    164.44787   -29381.454   -8919.6369 
  161600    291.09624   -29226.829    140.56782   -29367.396    9951.0118 
  161800    269.38828   -29231.506    130.08524   -29361.591    41629.298 
  162000    300.71608   -29232.522    145.21316   -29377.735    13656.301 
  162200    307.37178   -29227.551    148.42714   -29375.978    11269.842 
  162400    292.02296    -29249.53    141.01533   -29390.546    19850.221 
  162600    296.44038   -29234.066    143.14846   -29377.214    31027.202 
  162800    307.78769   -29222.125    148.62797   -29370.752    -6373.887 
  163000    283.33227   -29248.729    136.81867   -29385.548   -12347.094 
  163200     294.1692   -29233.556    142.05173   -29375.608   -24026.018 
  163400    324.02678   -29217.952    156.46969   -29374.422      47104.9 
  163600    278.48006    -29247.78    134.47558   -29382.255   -20213.694 
  163800    318.74139   -29226.386    153.91742   -29380.304    17515.013 
  164000    324.45156   -29225.316    156.67481   -29381.991    42177.852 
  164200    275.60704   -29243.571    133.08822   -29376.659   -28554.637 
  164400    317.66691   -29214.658    153.39856   -29368.057   -50952.591 
  164600    316.70256   -29225.686    152.93289   -29378.619    16951.309 
  164800    281.11469   -29235.382    135.74782    -29371.13    10774.496 
  165000    329.90858   -29226.024    159.30996   -29385.334    6276.2145 
  165200    337.12653   -29221.993    162.79544   -29384.788    1388.1102 
  165400    307.03714   -29248.301    148.26554   -29396.566    12527.344 
  165600    326.32234   -29216.439    157.57819   -29374.017     31836.36 
  165800    312.70184    -29219.87    151.00097   -29370.871   -4970.4372 
  166000    299.41258   -29241.685    144.58371   -29386.269    6105.0605 
  166200    325.93695   -29226.564    157.39209   -29383.956   -32567.344 
  166400    298.84556   -29222.694     144.3099   -29367.004    2323.9398 
  166600    291.39617   -29244.558    140.71266   -29385.271    -27139.16 
  166800    298.59938   -29230.287    144.19102   -29374.478   -6053.3892 
  167000    311.33672   -29222.853    150.34177   -29373.195    27333.307 
  167200    273.11285   -29251.023     131.8838   -29382.907    28998.273 
  167400    308.88473   -29225.879    149.15773   -29375.036   -4551.5261 
  167600    321.08168   -29226.943    155.04752    -29381.99    40728.176 
  167800    265.73142   -29244.737    128.31937   -29373.057   -6594.4049 
  168000    290.54906   -29245.615    140.30359   -29385.919    41282.137 
  168200    302.57637   -29224.217    146.11148   -29370.328    3781.7422 
  168400     303.5773   -29251.655    146.59482   -29398.249    42356.519 
  168600     274.6987   -29247.569    132.64959   -29380.218     8992.889 
  168800    287.26727   -29240.796    138.71885   -29379.515    17637.495 
  169000     306.7938    -29224.75    148.14803   -29372.898    8574.9001 
  169200     320.9278   -29222.807    154.97322    -29377.78   -20820.401 
  169400    296.63217   -29247.136    143.24107   -29390.377    -23171.31 
  169600    322.24495   -29225.933    155.60926   -29381.542   -16757.242 
  169800    299.05593    -29230.43    144.41148   -29374.841    -21334.53 
  170000    257.63509   -29251.776    124.40973   -29376.185    5939.4086 
  170200    326.71184   -29224.462    157.76628   -29382.228    6170.4532 
  170400    277.99378   -29251.663    134.24076   -29385.903    17683.295 
  170600    303.59602   -29246.982    146.60386   -29393.586   -14063.791 
  170800    297.62582   -29229.022     143.7209   -29372.743    30856.793 
  171000    300.28352    -29233.36    145.00428   -29378.364    31671.379 
  171200    323.04091   -29236.592    155.99362   -29392.586    -27617.61 
  171400    290.40015   -29230.204    140.23169   -29370.435   -32709.195 
  171600    342.63167   -29214.279    165.45383   -29379.733    26022.689 
  171800    309.21342   -29239.992    149.31645   -29389.309    9008.3442 
  172000    308.12303   -29234.688    148.78991   -29383.477   -12683.461 
  172200    302.77758   -29205.145    146.20864   -29351.353   -34583.753 
  172400    298.54124   -29240.404    144.16295   -29384.567    14854.913 
  172600    302.52185   -29242.617    146.08515   -29388.703    9412.5898 
  172800    317.02208   -29212.355    153.08718   -29365.443   -20750.103 
  173000    312.10083   -29233.131    150.71075   -29383.842   -550.14771 
  173200    282.03529   -29234.986    136.19237   -29371.178    9646.9576 
  173400    305.69243   -29215.204    147.61619    -29362.82   -10628.919 
  173600    313.50713   -29213.341    151.38985   -29364.731   -16125.803 
  173800    300.88238    -29240.62    145.29346   -29385.914   -38226.697 
  174000    296.44907   -29213.373    143.15266   -29356.526   -28840.935 
  174200    286.21049   -29233.869    138.20854   -29372.077   -7704.0003 
  174400    264.66681   -29236.519    127.80528   -29364.324    7929.0941 
  174600    279.74939     -29215.5    135.08853   -29350.589    19136.128 
  174800    263.71766   -29249.229    127.34694   -29376.576   -8250.9123 
  175000    275.31233   -29241.787    132.94591   -29374.733   -27076.965 
  175200    332.08419   -29222.541    160.36054   -29382.902   -32016.462 
  175400    251.42942   -29239.752    121.41306   -29361.165     20024.11 
  175600    278.56122   -29251.813    134.51477   -29386.327     13808.07 
  175800    317.31558    -29228.43    153.22891   -29381.659    520.18997 
  176000    322.16897   -29233.524    155.57257   -29389.097   -5604.8426 
  176200    266.32633   -29248.421    128.60665   -29377.028    4027.2298 
  176400    315.20126   -29220.433    152.20792   -29372.641    42225.699 
  176600    318.53815   -29228.918    153.81928   -29382.738   -19449.665 
  176800    260.59412   -29264.259    125.83861   -29390.097   -5319.5441 
  177000    269.10651   -29265.897    129.94917   -29395.846    14061.986 
  177200    291.63892    -29225.66    140.82988    -29366.49    11902.928 
  177400    324.83195   -29219.357     156.8585   -29376.216    9613.3861 
  177600    298.20994   -29245.545    144.00296   -29389.548     35706.13 
  177800    312.34293   -29232.557    150.82766   -29383.385    2593.6414 
  178000    300.60467   -29229.075    145.15936   -29374.234    1291.5175 
  178200    306.68116   -29239.677    148.09364   -29387.771   -5732.6166 
  178400    310.43141   -29237.287    149.90461   -29387.191    11427.503 
  178600    324.36448   -29213.812    156.63276   -29370.445   -6160.6932 
  178800    288.67805   -29230.923     139.4001   -29370.323     28463.02 
  179000    289.37221   -29229.911     139.7353   -29369.647    19466.874 
  179200    291.91327   -29231.205    140.96236   -29372.168    18969.851 
[...]
  950000    299.93764   -29227.286    144.83725   -29372.123    14439.454 
  950200     294.9517   -29243.253    142.42959   -29385.683    5113.6544 
  950400    287.04398   -29228.515    138.61102   -29367.126   -8864.8748 
  950600    343.04335   -29200.624    165.65262   -29366.277    37061.665 
  950800    310.21849    -29230.09    149.80179   -29379.891    18836.273 
  951000    288.86942   -29251.585    139.49251   -29391.077   -4440.2831 
  951200    322.60067   -29226.578    155.78103   -29382.359   -46073.571 
  951400    312.56372    -29227.38    150.93428   -29378.314   -27762.951 
  951600    292.22004   -29239.689    141.11049     -29380.8    14574.011 
  951800    279.58941   -29239.134    135.01127   -29374.145   -983.40687 
  952000    296.51098   -29235.965    143.18255   -29379.148    -12094.67 
  952200    322.92658   -29212.658    155.93841   -29368.597   -58898.236 
  952400    289.80535   -29245.294    139.94446   -29385.238    52830.207 
  952600    309.38235   -29235.281    149.39802   -29384.679    659.06007 
  952800    341.29056   -29214.538    164.80622   -29379.345   -23542.798 
  953000    301.00384   -29234.734    145.35211   -29380.086     21781.38 
  953200    268.42271   -29247.715    129.61897   -29377.334   -14364.643 
  953400    324.93062   -29213.378    156.90615   -29370.284    30080.973 
  953600    297.48966   -29239.094    143.65515    -29382.75   -29362.538 
  953800    287.35787   -29234.489    138.76259   -29373.252   -36667.742 
  954000    322.87173   -29224.249    155.91193   -29380.161   -24402.787 
  954200    275.05324    -29253.48     132.8208   -29386.301   -25742.531 
  954400    310.52092   -29226.657    149.94783   -29376.605   -16593.431 
  954600    289.70475   -29231.549    139.89588   -29371.445    13590.856 
  954800    284.46941   -29256.899    137.36778   -29394.267   -24107.776 
  955000     286.5005   -29252.514    138.34858   -29390.862    16313.768 
  955200    305.94435   -29231.314    147.73784   -29379.052   -34860.155 
  955400    333.27345   -29217.919    160.93482   -29378.854    53709.372 
  955600    298.08462   -29249.451    143.94245   -29393.394   -14779.965 
  955800    299.90845   -29239.736    144.82316   -29384.559   -20947.444 
  956000    317.63357   -29222.467    153.38247   -29375.849    8341.0859 
  956200    282.49234   -29235.225    136.41307   -29371.638   -31838.116 
  956400     285.7717   -29261.133    137.99665    -29399.13    43232.825 
  956600    286.50016    -29248.86    138.34841   -29387.209   -22497.311 
  956800    325.26268   -29224.548    157.06649   -29381.615   -11113.803 
  957000    308.34338   -29232.601    148.89631   -29381.497     51187.22 
  957200    298.73875   -29252.296    144.25832   -29396.555   -12400.859 
  957400     305.4045   -29219.816    147.47716   -29367.294     22834.58 
  957600    289.87384   -29237.164    139.97754   -29377.142    37254.049 
  957800    313.83018   -29247.418    151.54584   -29398.964   -13962.244 
  958000    310.96614    -29214.43    150.16282   -29364.593   -25209.778 
  958200    295.92937   -29238.274     142.9017   -29381.176   -6840.5562 
  958400    303.58656   -29240.475    146.59929   -29387.074    13058.629 
  958600    339.13379   -29202.359    163.76473   -29366.124   -24943.601 
  958800    275.17838   -29232.636    132.88123   -29365.517    42758.051 
  959000    292.17129   -29237.731    141.08695   -29378.818    18091.314 
  959200    324.22098   -29201.279    156.56347   -29357.842   -12970.565 
  959400    294.65325    -29227.82    142.28547   -29370.105    -12509.92 
  959600    307.50196   -29233.921       148.49   -29382.411    4425.7315 
  959800    264.05948    -29246.71      127.512   -29374.222     13809.57 
  960000    299.91013   -29239.434    144.82397   -29384.258   -37967.336 
  960200    304.12489   -29219.343    146.85924   -29366.202   -3874.7378 
  960400     279.2767   -29243.554    134.86027   -29378.414    17162.673 
  960600    253.99364   -29253.263     122.6513   -29375.914    223.39878 
  960800    309.22839   -29231.577    149.32368     -29380.9    26319.417 
  961000    297.72677   -29219.467    143.76964   -29363.236   -26360.909 
  961200    316.62364   -29218.369    152.89478   -29371.263   -21504.042 
  961400    303.03682   -29245.839    146.33382   -29392.173     1902.613 
  961600    310.94715   -29219.009    150.15365   -29369.163    7590.2512 
  961800    337.75467   -29218.444    163.09877   -29381.543    8704.6109 
  962000    303.18447   -29239.108    146.40512   -29385.513   -3776.6183 
  962200    309.04769   -29238.071    149.23642   -29387.307    12194.916 
  962400    311.07146   -29196.034    150.21368   -29346.248    46981.967 
  962600    304.37605   -29225.053    146.98053   -29372.034    49293.125 
  962800    271.16975    -29242.15    130.94549   -29373.096    -46956.18 
  963000    305.30159   -29221.557    147.42746   -29368.985    43734.955 
  963200    299.70862   -29229.253    144.72666   -29373.979    27616.411 
  963400    288.85412   -29239.602    139.48512   -29379.087    28267.862 
  963600    295.92298   -29227.766    142.89861   -29370.665    15011.652 
  963800    303.14889    -29230.65    146.38794   -29377.037    1662.4882 
  964000    305.95193   -29244.863    147.74151   -29392.605    29476.686 
  964200    273.12912   -29226.171    131.89166   -29358.062   -52478.524 
  964400    319.18131   -29224.168    154.12986   -29378.298    48348.534 
  964600    286.34383   -29249.804    138.27292   -29388.077   -17051.823 
  964800    300.11303   -29230.296    144.92195   -29375.218   -34921.914 
  965000    324.98277   -29218.883    156.93133   -29375.814    30162.487 
  965200     277.1797   -29250.753    133.84765     -29384.6   -24886.364 
  965400    316.55678   -29238.471    152.86249   -29391.334    26018.658 
  965600    298.82463   -29223.291    144.29979   -29367.591    9570.5244 
  965800    301.57471   -29240.198    145.62778   -29385.825   -4306.1035 
  966000    299.06657   -29231.242    144.41662   -29375.658   -9448.7371 
  966200     295.9326   -29213.672    142.90326   -29356.576   -26831.602 
  966400     294.4378   -29238.738    142.18143   -29380.919   -10467.623 
  966600    313.66137   -29221.392    151.46433   -29372.856   -20327.813 
  966800    337.33406   -29212.234    162.89566    -29375.13   -40317.805 
  967000     284.7722   -29231.931      137.514   -29369.445    26562.472 
  967200    294.53577   -29223.738    142.22874   -29365.967    19986.204 
  967400    321.37802   -29229.271    155.19063   -29384.462    22048.255 
  967600     303.8832   -29241.564    146.74253   -29388.306    10121.036 
  967800    305.11685   -29217.872    147.33825   -29365.211   -39886.837 
  968000    314.50432   -29231.315    151.87138   -29383.187    18580.061 
  968200    261.62762   -29237.373    126.33769    -29363.71   -4173.9588 
  968400     290.4766   -29232.673     140.2686   -29372.941     6927.144 
  968600    314.34565   -29225.754    151.79475   -29377.549   -4906.7283 
  968800    306.93587   -29224.827    148.21664   -29373.044   -1128.4332 
  969000    298.94227   -29248.198     144.3566   -29392.555   -34083.294 
  969200    294.59806   -29224.203    142.25882   -29366.461   -6095.9906 
  969400    312.67133   -29223.285    150.98624   -29374.271   -13311.718 
  969600    280.18838   -29239.217    135.30051   -29374.518    13479.661 
  969800      298.906   -29233.974    144.33908   -29378.313   -16834.752 
  970000    319.06831   -29231.145    154.07529    -29385.22   -19581.761 
  970200    306.78142   -29215.954    148.14206   -29364.096   -9445.7384 
  970400     287.1854   -29244.526    138.67931   -29383.205    23586.929 
  970600    283.53257   -29236.114    136.91539   -29373.029    2462.0358 
  970800     322.6865   -29217.533    155.82248   -29373.356   -2349.3521 
  971000     298.4205   -29242.588    144.10464   -29386.692   -23087.836 
  971200    285.81243    -29238.64    138.01632   -29376.656    42582.945 
  971400    326.84958   -29209.809     157.8328   -29367.642    23762.366 
  971600     324.9681   -29237.453    156.92424   -29394.377   -355.39335 
  971800    271.58119    -29239.33    131.14417   -29370.475     45804.45 
  972000    319.50491   -29218.323    154.28612   -29372.609    32.436707 
  972200    288.09361   -29228.821    139.11788   -29367.939   -36940.629 
  972400    285.96192   -29246.552     138.0885    -29384.64   -23426.403 
  972600    297.80043   -29238.077    143.80522   -29381.882    17365.536 
  972800    296.39285   -29235.124    143.12551   -29378.249   -24067.619 
  973000    292.40586   -29237.282    141.20022   -29378.482    22423.013 
  973200    289.49177   -29250.529    139.79303   -29390.322    -4137.739 
  973400    296.67915   -29226.196    143.26376   -29369.459    -14711.34 
  973600    294.66839   -29224.528    142.29278    -29366.82    14001.641 
  973800    292.75965   -29237.996    141.37107   -29379.367   -440.42229 
  974000    279.89866   -29232.176    135.16061   -29367.336   -6364.5607 
  974200    313.35348    -29212.29    151.31565   -29363.606    38177.437 
  974400    315.88967   -29226.963    152.54035   -29379.503    520.86562 
  974600    278.04494   -29246.317    134.26546   -29380.583    12022.321 
  974800     328.6214   -29212.797    158.68839   -29371.486    5246.7685 
  975000    320.59383   -29223.208    154.81195    -29378.02   -3723.0295 
  975200    291.94779   -29235.586    140.97903   -29376.565   -9247.4989 
  975400    318.54631   -29232.173    153.82322   -29385.996   -20772.621 
  975600    290.49358   -29219.087     140.2768   -29359.363   -35111.215 
  975800    281.26313   -29247.147     135.8195   -29382.967    5438.7979 
  976000    314.68191   -29223.145    151.95713   -29375.102    18017.069 
  976200    314.46833   -29221.514      151.854   -29373.368    50249.646 
  976400    270.65415   -29240.749    130.69651   -29371.445    15681.119 
  976600     319.9885   -29215.761    154.51964    -29370.28   -4616.5116 
  976800     310.5919   -29219.295     149.9821   -29369.277   -15925.378 
  977000    295.33557   -29236.331    142.61495   -29378.946   -7570.3534 
  977200    305.76586   -29220.094    147.65165   -29367.746    46492.469 
  977400    299.89248   -29218.036    144.81545   -29362.851   -26078.756 
  977600    306.23231   -29234.704     147.8769   -29382.581    5442.3729 
  977800    325.47062    -29226.11    157.16691   -29383.276   -2731.3248 
  978000    301.01981   -29210.759    145.35982   -29356.118   -10221.239 
  978200    290.13894   -29238.545    140.10555    -29378.65    3438.8643 
  978400    315.86465   -29234.762    152.52827    -29387.29    14987.248 
  978600    321.41509   -29202.888    155.20853   -29358.097    22951.527 
  978800    334.61759   -29229.141     161.5839   -29390.725   -36259.974 
  979000    299.45923    -29245.27    144.60623   -29389.876    11556.206 
  979200    308.36944    -29224.95     148.9089   -29373.859   -14186.412 
  979400    306.79507   -29218.462    148.14865   -29366.611    -19685.08 
  979600    290.66798   -29245.338    140.36102   -29385.699   -21206.053 
  979800    288.07397   -29229.105    139.10839   -29368.214   -14226.521 
  980000    326.01167   -29210.228    157.42818   -29367.657      17444.8 
  980200     282.6504   -29237.169     136.4894   -29373.659    55031.821 
  980400    290.47146   -29235.684    140.26612    -29375.95    16584.347 
  980600    310.63509   -29204.372    150.00296   -29354.375   -29214.363 
  980800    312.15725   -29234.843      150.738   -29385.581   -30628.065 
  981000    313.43265   -29233.973    151.35388   -29385.327   -25134.933 
  981200    320.68421   -29213.857    154.85559   -29368.713   -34892.073 
  981400    317.38604   -29233.477    153.26294    -29386.74    12230.897 
  981600    297.81113   -29240.999    143.81038   -29384.809   -1015.9421 
  981800    310.64502   -29210.146    150.00775   -29360.154   -2245.1659 
  982000     354.2331   -29212.794    171.05606    -29383.85   -7706.7387 
  982200    323.73507   -29238.718    156.32883   -29395.046    18083.114 
  982400    279.38969   -29240.005    134.91483    -29374.92    1984.4555 
  982600    331.16167   -29213.006    159.91506   -29372.921    -8109.744 
  982800    301.82143   -29240.145    145.74692   -29385.892   -2397.4673 
  983000    273.41212   -29231.579    132.02831   -29363.607    18779.398 
  983200    333.40709    -29191.87    160.99936   -29352.869   -1298.3755 
  983400    270.49538   -29237.353    130.61985   -29367.973   -46150.593 
  983600    288.14406   -29231.978    139.14224   -29371.121    13545.387 
  983800    290.05141   -29216.775    140.06328   -29356.838   -7053.4939 
  984000    301.34438   -29249.598    145.51656   -29395.114    23142.054 
  984200    280.57694   -29229.259    135.48814   -29364.747   -16283.057 
  984400    305.73224    -29225.51    147.63542   -29373.146    663.67584 
  984600    309.86566   -29237.352    149.63141   -29386.983     48211.78 
  984800    293.32319   -29263.925    141.64319   -29405.569    86.850144 
  985000    291.70175    -29237.99    140.86021    -29378.85   -47096.095 
  985200    310.26869   -29227.361    149.82603   -29377.187    23500.308 
  985400    285.38567   -29252.898    137.81024   -29390.708    18858.403 
  985600    292.02862   -29240.592    141.01806    -29381.61   -37987.613 
  985800    308.41957   -29224.606    148.93311   -29373.539    6456.1593 
  986000    247.16798   -29242.342    119.35525   -29361.697    64594.204 
  986200    323.69694    -29250.16    156.31041    -29406.47   -1744.3552 
  986400    336.37782   -29219.715     162.4339   -29382.149    7613.5493 
  986600    284.98294   -29243.436    137.61576   -29381.052    3193.7914 
  986800    304.92586   -29229.978    147.24602   -29377.224   -27009.241 
  987000    275.05178   -29221.581    132.82009   -29354.401    52055.487 
  987200    293.66936   -29243.624    141.81036   -29385.434   -18469.984 
  987400    324.18165   -29217.043    156.54447   -29373.587    3183.5782 
  987600    306.26449    -29218.36    147.89243   -29366.253    18501.131 
  987800    279.14077   -29239.397    134.79463   -29374.191    4568.6694 
  988000    313.77671   -29224.069    151.52002   -29375.589    43242.491 
  988200    339.43396   -29215.797    163.90968   -29379.706     8294.949 
  988400    300.86285     -29237.9    145.28403   -29383.184    19321.918 
  988600    327.90802    -29223.47     158.3439   -29381.814   -19004.481 
  988800    302.90988   -29211.896    146.27252   -29358.169    13139.994 
  989000    278.97608   -29244.404     134.7151   -29379.119    29010.813 
  989200    314.96217   -29224.569    152.09247   -29376.662   -9683.2466 
  989400    335.74905   -29192.608    162.13027   -29354.738   -14470.781 
  989600     275.7095   -29231.747     133.1377   -29364.884     15330.17 
  989800    275.14683   -29242.115    132.86599   -29374.981    55268.765 
  990000     302.4113   -29215.381    146.03176   -29361.413   -24486.437 
  990200    316.64797   -29236.084    152.90653   -29388.991   -165.85136 
  990400    308.86165   -29242.036    149.14658   -29391.183   -9706.1466 
  990600    299.55912    -29219.54    144.65447   -29364.194    -21707.88 
  990800    305.81094   -29235.686    147.67342   -29383.359    25377.206 
  991000    289.76216    -29250.83     139.9236   -29390.753     13896.06 
  991200    312.23371   -29219.687    150.77492   -29370.462   -21421.354 
  991400     324.4723   -29228.395    156.68483   -29385.079   -8356.2241 
  991600    271.06428   -29240.611    130.89456   -29371.505   -25092.816 
  991800    294.67565   -29265.121    142.29629   -29407.417   -5405.0043 
  992000    313.14275   -29233.546    151.21389    -29384.76    13294.006 
  992200    298.55406   -29226.687    144.16914   -29370.856   -4928.6588 
  992400    270.14007   -29255.081    130.44827   -29385.529    10908.331 
  992600    291.91391   -29229.268    140.96266    -29370.23    28013.424 
  992800    267.44712   -29229.398    129.14787   -29358.546   -22585.389 
  993000    291.55447   -29250.842    140.78909   -29391.631   -29075.498 
  993200    303.03316   -29218.268    146.33206     -29364.6     20545.19 
  993400     323.3311   -29230.183    156.13375   -29386.317   -54760.955 
  993600    300.04524   -29245.118    144.88922   -29390.007     29629.18 
  993800     313.6736   -29233.931    151.47023   -29385.401    -7269.925 
  994000    296.93926    -29234.64    143.38936    -29378.03    15115.285 
  994200    267.20402   -29266.887    129.03048   -29395.918    7621.5775 
  994400    308.74233   -29241.541    149.08896    -29390.63    12225.269 
  994600     288.5891   -29232.551    139.35714   -29371.908   -17760.471 
  994800    332.19472    -29218.12    160.41392   -29378.534   -950.26524 
  995000    284.25434   -29243.304    137.26393   -29380.568    14823.156 
  995200     285.8791   -29237.836    138.04851   -29375.884    16916.119 
  995400     320.3523     -29217.5    154.69531   -29372.195    486.39848 
  995600    281.74848   -29242.387    136.05387   -29378.441   -35054.034 
  995800    282.83167   -29231.832    136.57693   -29368.409   -52730.541 
  996000     331.8014   -29212.771    160.22399   -29372.994    9016.3057 
  996200    266.07835    -29240.11     128.4869   -29368.597   -27558.596 
  996400    276.98946    -29231.66    133.75578   -29365.416   -20881.322 
  996600    312.02829   -29213.061    150.67572   -29363.737    16128.538 
  996800    289.74952   -29218.359     139.9175   -29358.277   -8474.6007 
  997000    296.49592   -29245.536    143.17528   -29388.711    10072.965 
  997200    307.66445   -29240.123    148.56847   -29388.692    8782.3169 
  997400    307.08146   -29214.534    148.28694   -29362.821    3641.8146 
  997600    287.80323   -29238.257    138.97766   -29377.234   -2715.9005 
  997800    283.69589   -29238.013    136.99425   -29375.007   -7279.0255 
  998000    363.97975   -29204.573    175.76263   -29380.336    -26353.83 
  998200    282.94141   -29230.782    136.62992   -29367.412   -34726.242 
  998400    295.18272   -29237.521    142.54115   -29380.062   -1799.6466 
  998600    316.23509   -29220.375    152.70715   -29373.082    13043.735 
  998800    290.25645   -29227.933     140.1623   -29368.095    5314.5374 
  999000    282.50188   -29244.922    136.41768    -29381.34   -2222.2329 
  999200    304.85491   -29224.122    147.21176   -29371.334    24379.061 
  999400    352.77587   -29203.977    170.35237   -29374.329    7760.5321 
  999600     318.0816   -29234.254    153.59882   -29387.852    14058.497 
  999800    284.95362   -29247.938    137.60161    -29385.54   -8851.4786 
 1000000    321.97912   -29216.147    155.48089   -29371.627     34900.52 
Loop time of 22858 on 8 procs for 1000000 steps with 163 atoms

Performance: 0.945 ns/day, 25.398 hours/ns, 43.748 timesteps/s
99.8% CPU use with 8 MPI tasks x no OpenMP threads

MPI task timing breakdown:
Section |  min time  |  avg time  |  max time  |%varavg| %total
---------------------------------------------------------------
Pair    | 17701      | 19012      | 19619      | 399.6 | 83.17
Neigh   | 19.212     | 19.576     | 19.893     |   5.3 |  0.09
Comm    | 254        | 857.65     | 2168.4     |1879.0 |  3.75
Output  | 0.51832    | 0.54571    | 0.71225    |   8.5 |  0.00
Modify  | 2943.7     | 2947.5     | 2950.6     |   5.4 | 12.89
Other   |            | 21.07      |            |       |  0.09

Nlocal:    20.375 ave 42 max 6 min
Histogram: 2 1 1 0 2 0 0 0 1 1
Nghost:    764.125 ave 780 max 744 min
Histogram: 2 0 0 0 0 2 1 0 2 1
Neighs:    2172.62 ave 4224 max 702 min
Histogram: 2 1 0 1 0 2 0 0 1 1

Total # of neighbors = 17381
Ave neighs/atom = 106.632
Neighbor list builds = 5040
Dangerous builds = 0

Please see the log.cite file for references relevant to this simulation

Total wall time: 6:22:44
