ITEM: TIMESTEP
0
ITEM: NUMBER OF ATOMS
203
ITEM: BOX BOUNDS pp pp pp
0.0000000000000000e+00 1.6114000000000001e+01
0.0000000000000000e+00 1.6113000000000000e+01
0.0000000000000000e+00 1.6111999999999998e+01
ITEM: ATOMS id type x y z 
5 1 5.384 5.384 5.384 
65 1 5.66 6.662 2.461 
66 1 5.336 7.323 3.711 
68 1 4.865 6.606 4.866 
79 1 5.364 7.322 1.219 
89 1 6.662 2.461 5.66 
90 1 7.323 3.711 5.336 
92 1 6.606 4.866 4.866 
101 1 7.322 1.219 5.364 
109 1 2.461 5.66 6.662 
110 1 3.71 5.336 7.323 
112 1 4.865 4.866 6.606 
121 1 1.218 5.364 7.322 
129 1 6.662 5.66 2.461 
130 1 7.323 5.336 3.711 
137 1 7.322 5.364 1.219 
141 1 2.461 6.662 5.66 
142 1 3.71 7.323 5.336 
149 1 1.218 7.322 5.364 
153 1 5.66 2.461 6.662 
154 1 5.336 3.711 7.323 
161 1 5.364 1.219 7.322 
7 1 6.662 5.66 13.616 
8 1 7.323 5.336 12.366 
10 1 6.606 4.866 11.211 
21 1 7.322 5.364 14.858 
32 1 1.218 7.322 10.713 
40 1 2.461 6.662 10.417 
41 1 3.71 7.323 10.741 
43 1 4.865 6.606 11.211 
47 1 5.364 1.219 8.755 
55 1 5.66 2.461 9.415 
56 1 5.336 3.711 8.754 
58 1 4.865 4.866 9.471 
64 1 5.629 6.643 16.094 
75 1 5.384 5.384 10.693 
118 1 6.643 5.629 16.094 
168 1 5.66 6.662 13.616 
169 1 5.336 7.323 12.366 
176 1 5.364 7.322 14.858 
182 1 7.322 1.219 10.713 
186 1 6.662 2.461 10.417 
187 1 7.323 3.711 10.741 
191 1 1.218 5.364 8.755 
195 1 2.461 5.66 9.415 
196 1 3.71 5.336 8.754 
9 1 7.322 10.713 1.219 
19 1 6.662 10.417 2.461 
20 1 7.323 10.741 3.711 
22 1 6.606 11.211 4.866 
27 1 1.218 8.755 5.364 
35 1 2.461 9.415 5.66 
36 1 3.71 8.754 5.336 
38 1 4.865 9.471 4.866 
44 1 6.643 16.095 5.63 
50 1 5.66 13.616 6.662 
51 1 5.336 12.366 7.323 
53 1 4.865 11.211 6.606 
62 1 5.364 14.858 7.322 
76 1 5.629 16.095 6.643 
81 1 5.384 10.693 5.384 
167 1 5.364 8.755 1.219 
171 1 5.66 9.415 2.461 
172 1 5.336 8.754 3.711 
180 1 6.662 13.616 5.66 
181 1 7.323 12.366 5.336 
188 1 7.322 14.858 5.364 
194 1 1.218 10.713 7.322 
198 1 2.461 10.417 6.662 
199 1 3.71 10.741 7.323 
17 1 5.384 10.693 10.693 
39 1 6.643 16.095 10.448 
49 1 5.629 9.434 16.095 
73 1 5.364 8.755 14.858 
82 1 5.629 16.095 9.434 
83 1 5.66 9.415 13.616 
84 1 5.336 8.754 12.366 
86 1 4.865 9.471 11.211 
91 1 7.322 14.858 10.713 
99 1 6.662 13.616 10.417 
100 1 7.323 12.366 10.741 
102 1 6.606 11.211 11.211 
113 1 6.643 10.448 16.094 
114 1 2.461 10.417 9.415 
115 1 3.71 10.741 8.754 
117 1 4.865 11.211 9.471 
126 1 1.218 10.713 8.755 
131 1 7.322 10.713 14.858 
135 1 6.662 10.417 13.616 
136 1 7.323 10.741 12.366 
144 1 2.461 9.415 10.417 
145 1 3.71 8.754 10.741 
152 1 1.218 8.755 10.713 
158 1 5.364 14.858 8.755 
162 1 5.66 13.616 9.415 
163 1 5.336 12.366 8.754 
3 1 8.755 5.364 1.219 
13 1 9.415 5.66 2.461 
14 1 8.754 5.336 3.711 
16 1 9.471 4.866 4.866 
24 1 16.095 5.629 6.643 
30 1 13.616 6.662 5.66 
31 1 12.367 7.323 5.336 
33 1 11.212 6.606 4.866 
42 1 14.859 7.322 5.364 
52 1 10.713 1.219 7.322 
60 1 10.417 2.461 6.662 
61 1 10.741 3.711 7.323 
63 1 11.212 4.866 6.606 
87 1 10.693 5.384 5.384 
98 1 16.095 6.643 5.63 
170 1 10.713 7.322 1.219 
174 1 10.417 6.662 2.461 
175 1 10.741 7.323 3.711 
179 1 8.755 1.219 5.364 
183 1 9.415 2.461 5.66 
184 1 8.754 3.711 5.336 
192 1 13.616 5.66 6.662 
193 1 12.367 5.336 7.323 
200 1 14.859 5.364 7.322 
201 2 8.755 4.014 1.219 
202 2 9.952 3.221 1.698 
203 3 9.386 2.435 1.459 
6 1 16.096 5.629 9.434 
23 1 10.693 5.384 10.693 
59 1 10.448 6.643 16.095 
67 1 10.713 7.322 14.858 
77 1 10.417 6.662 13.616 
78 1 10.741 7.323 12.366 
80 1 11.212 6.606 11.211 
93 1 16.096 6.643 10.448 
94 1 9.415 2.461 10.417 
95 1 8.754 3.711 10.741 
97 1 9.471 4.866 11.211 
106 1 8.755 1.219 10.713 
116 1 14.859 5.364 8.755 
123 1 9.434 5.629 16.094 
124 1 13.616 5.66 9.415 
125 1 12.367 5.336 8.754 
127 1 11.212 4.866 9.471 
134 1 8.755 5.364 14.858 
138 1 9.415 5.66 13.616 
139 1 8.754 5.336 12.366 
143 1 14.859 7.322 10.713 
147 1 13.616 6.662 10.417 
148 1 12.367 7.323 10.741 
156 1 10.417 2.461 9.415 
157 1 10.741 3.711 8.754 
164 1 10.713 1.219 8.755 
11 1 10.693 10.693 5.384 
18 1 16.096 10.448 6.643 
29 1 9.434 16.095 5.63 
70 1 10.448 16.095 6.643 
71 1 10.417 9.415 2.461 
72 1 10.741 8.754 3.711 
74 1 11.212 9.471 4.866 
85 1 10.713 8.755 1.219 
96 1 8.755 14.858 5.364 
103 1 16.095 9.434 5.63 
104 1 9.415 13.616 5.66 
105 1 8.754 12.366 5.336 
107 1 9.471 11.211 4.866 
111 1 14.859 10.713 7.322 
119 1 13.616 10.417 6.662 
120 1 12.367 10.741 7.323 
122 1 11.212 11.211 6.606 
132 1 9.415 10.417 2.461 
133 1 8.754 10.741 3.711 
140 1 8.755 10.713 1.219 
146 1 14.859 8.755 5.364 
150 1 13.616 9.415 5.66 
151 1 12.367 8.754 5.336 
155 1 10.713 14.858 7.322 
159 1 10.417 13.616 6.662 
160 1 10.741 12.366 7.323 
1 1 9.415 10.417 13.616 
2 1 8.754 10.741 12.366 
4 1 9.471 11.211 11.211 
12 1 16.096 10.448 9.434 
15 1 8.755 10.713 14.858 
25 1 13.616 9.415 10.417 
26 1 12.367 8.754 10.741 
28 1 11.212 9.471 11.211 
34 1 9.434 16.095 10.448 
37 1 14.859 8.755 10.713 
45 1 10.417 13.616 9.415 
46 1 10.741 12.366 8.754 
48 1 11.212 11.211 9.471 
54 1 10.448 9.434 16.094 
57 1 10.713 14.858 8.755 
69 1 10.693 10.693 10.693 
88 1 10.448 16.095 9.434 
108 1 16.096 9.434 10.448 
128 1 9.434 10.448 16.094 
165 1 10.417 9.415 13.616 
166 1 10.741 8.754 12.366 
173 1 10.713 8.755 14.858 
177 1 9.415 13.616 10.417 
178 1 8.754 12.366 10.741 
185 1 8.755 14.858 10.713 
189 1 13.616 10.417 9.415 
190 1 12.367 10.741 8.754 
197 1 14.859 10.713 8.755 
ITEM: TIMESTEP
10
ITEM: NUMBER OF ATOMS
203
ITEM: BOX BOUNDS pp pp pp
0.0000000000000000e+00 1.6114000000000001e+01
0.0000000000000000e+00 1.6113000000000000e+01
0.0000000000000000e+00 1.6111999999999998e+01
ITEM: ATOMS id type x y z 
5 1 5.34926 5.34633 5.34649 
65 1 5.58461 6.6003 2.43667 
66 1 5.373 7.32891 3.70035 
68 1 4.87581 6.61007 4.87781 
79 1 5.25062 7.30868 1.20636 
89 1 6.60291 2.43472 5.58674 
90 1 7.32971 3.70628 5.3706 
92 1 6.61587 4.87818 4.87026 
101 1 7.31014 1.20626 5.25133 
109 1 2.43341 5.58732 6.6017 
110 1 3.70499 5.37222 7.32939 
112 1 4.87527 4.87584 6.61296 
121 1 1.20469 5.25125 7.31064 
129 1 6.61221 5.60106 2.4393 
130 1 7.33073 5.36783 3.70164 
137 1 7.26769 5.32569 1.20761 
141 1 2.43383 6.60275 5.58705 
142 1 3.7021 7.33103 5.37249 
149 1 1.2053 7.31043 5.25159 
153 1 5.58735 2.43481 6.60204 
154 1 5.37253 3.70534 7.32917 
161 1 5.25134 1.20616 7.31045 
7 1 6.60924 5.5857 13.6453 
8 1 7.33224 5.37183 12.3749 
10 1 6.61208 4.87768 11.2022 
21 1 7.32085 5.25606 14.8693 
32 1 1.20552 7.31048 10.8255 
40 1 2.4342 6.60264 10.49 
41 1 3.70433 7.32975 10.7051 
43 1 4.87563 6.61222 11.2012 
47 1 5.25159 1.20561 8.76683 
55 1 5.58721 2.4348 9.47479 
56 1 5.37256 3.70504 8.74806 
58 1 4.87592 4.87677 9.46562 
64 1 5.54051 6.57298 16.0919 
75 1 5.34811 5.34839 10.7304 
118 1 6.58202 5.55512 16.0906 
168 1 5.58924 6.60101 13.6423 
169 1 5.3731 7.32826 12.3738 
176 1 5.25144 7.30951 14.8712 
182 1 7.31001 1.20587 10.8255 
186 1 6.6035 2.43618 10.4901 
187 1 7.33027 3.70357 10.7051 
191 1 1.20532 5.25166 8.76668 
195 1 2.43391 5.58729 9.47487 
196 1 3.7037 5.37236 8.74801 
9 1 7.31058 10.8255 1.20632 
19 1 6.60324 10.4903 2.4355 
20 1 7.32991 10.7047 3.70386 
22 1 6.61166 11.2004 4.8769 
27 1 1.20499 8.76688 5.25173 
35 1 2.43465 9.47423 5.58703 
36 1 3.70293 8.74792 5.37226 
38 1 4.87553 9.4652 4.87712 
44 1 6.57289 16.0949 5.54408 
50 1 5.58716 13.642 6.60283 
51 1 5.37246 12.3726 7.3303 
53 1 4.87588 11.2008 6.61219 
62 1 5.25152 14.8708 7.31062 
76 1 5.54324 16.0947 6.57314 
81 1 5.34759 10.7297 5.34777 
167 1 5.25047 8.76951 1.20593 
171 1 5.58706 9.47481 2.43507 
172 1 5.37249 8.7486 3.70451 
180 1 6.60252 13.6422 5.58729 
181 1 7.32962 12.373 5.37242 
188 1 7.31041 14.8707 5.25154 
194 1 1.20554 10.8256 7.31061 
198 1 2.43427 10.4901 6.60284 
199 1 3.70382 10.7048 7.33012 
17 1 5.34806 10.7293 10.7295 
39 1 6.57264 16.0948 10.5331 
49 1 5.5433 9.50457 16.0941 
73 1 5.25099 8.76774 14.8703 
82 1 5.54378 16.0948 9.50406 
83 1 5.58712 9.47379 13.6413 
84 1 5.37214 8.74594 12.3724 
86 1 4.87631 9.46492 11.201 
91 1 7.3103 14.8709 10.8253 
99 1 6.60297 13.6417 10.4898 
100 1 7.33021 12.3727 10.7048 
102 1 6.6114 11.2002 11.2 
113 1 6.57275 10.5338 16.0944 
114 1 2.43435 10.4897 9.47443 
115 1 3.70362 10.7049 8.74713 
117 1 4.87598 11.2005 9.46531 
126 1 1.20558 10.8253 8.76685 
131 1 7.31025 10.8255 14.8705 
135 1 6.60273 10.4897 13.6411 
136 1 7.33031 10.7048 12.3727 
144 1 2.43441 9.47438 10.4897 
145 1 3.70372 8.74714 10.705 
152 1 1.20554 8.76673 10.8254 
158 1 5.25178 14.871 8.76673 
162 1 5.58726 13.6419 9.47421 
163 1 5.37234 12.3725 8.7472 
3 1 8.78831 5.14132 1.20844 
13 1 9.47023 5.6313 2.42783 
14 1 8.75589 5.37352 3.69175 
16 1 9.45978 4.8759 4.87081 
24 1 16.0956 5.54341 6.57262 
30 1 13.6405 6.60325 5.58665 
31 1 12.3703 7.32921 5.36982 
33 1 11.1985 6.61534 4.86898 
42 1 14.8716 7.31008 5.25119 
52 1 10.8261 1.20577 7.3106 
60 1 10.4901 2.43472 6.60254 
61 1 10.7045 3.70368 7.32998 
63 1 11.199 4.87629 6.60974 
87 1 10.7255 5.34766 5.34538 
98 1 16.0956 6.57216 5.54438 
170 1 10.824 7.30959 1.2082 
174 1 10.4636 6.61197 2.43215 
175 1 10.7086 7.32967 3.69963 
179 1 8.7671 1.2062 5.2509 
183 1 9.47667 2.43337 5.5872 
184 1 8.75177 3.7104 5.37387 
192 1 13.6424 5.58719 6.60213 
193 1 12.3715 5.37163 7.32882 
200 1 14.872 5.25126 7.31083 
201 2 8.75776 4.00955 1.21431 
202 2 9.97428 3.14429 1.70703 
203 3 9.40887 2.43685 1.47112 
6 1 16.0956 5.54362 9.50435 
23 1 10.7265 5.34682 10.7311 
59 1 10.5104 6.58119 16.0964 
67 1 10.8215 7.3118 14.8687 
77 1 10.4828 6.60117 13.6464 
78 1 10.704 7.32786 12.3752 
80 1 11.201 6.6128 11.2027 
93 1 16.0957 6.57254 10.5333 
94 1 9.47338 2.43612 10.4904 
95 1 8.74749 3.70532 10.7059 
97 1 9.46538 4.87759 11.2026 
106 1 8.76682 1.20575 10.8256 
116 1 14.872 5.25156 8.76697 
123 1 9.4983 5.58312 16.0849 
124 1 13.6428 5.58712 9.47452 
125 1 12.373 5.3724 8.74733 
127 1 11.2015 4.87669 9.4649 
134 1 8.77315 5.26406 14.8799 
138 1 9.46885 5.59239 13.6454 
139 1 8.75 5.37204 12.3804 
143 1 14.8718 7.31045 10.8253 
147 1 13.6427 6.60275 10.49 
148 1 12.3727 7.32982 10.7052 
156 1 10.4898 2.43509 9.47529 
157 1 10.7047 3.70577 8.74889 
164 1 10.8257 1.20519 8.76701 
11 1 10.7297 10.729 5.34772 
18 1 16.0955 10.5336 6.57273 
29 1 9.50425 16.0947 5.54398 
70 1 10.5335 16.0944 6.57254 
71 1 10.4901 9.47048 2.43837 
72 1 10.7064 8.741 3.70327 
74 1 11.2012 9.46305 4.87419 
85 1 10.8265 8.76069 1.20453 
96 1 8.76648 14.8711 5.25142 
103 1 16.0961 9.50454 5.54429 
104 1 9.47469 13.6422 5.58721 
105 1 8.74703 12.3727 5.37254 
107 1 9.46468 11.2009 4.87673 
111 1 14.872 10.8256 7.3109 
119 1 13.6432 10.4899 6.60229 
120 1 12.3719 10.705 7.32992 
122 1 11.2011 11.2012 6.61244 
132 1 9.47541 10.4889 2.43461 
133 1 8.74725 10.7047 3.70554 
140 1 8.76683 10.8254 1.20534 
146 1 14.872 8.76705 5.25119 
150 1 13.6407 9.47344 5.58684 
151 1 12.3739 8.74554 5.37171 
155 1 10.8257 14.8706 7.31099 
159 1 10.4898 13.6425 6.60238 
160 1 10.7045 12.372 7.33005 
1 1 9.47516 10.4887 13.6415 
2 1 8.74689 10.7048 12.3728 
4 1 9.4656 11.2001 11.2001 
12 1 16.0955 10.5334 9.50425 
15 1 8.76725 10.8253 14.8707 
25 1 13.6426 9.47421 10.4897 
26 1 12.3731 8.74779 10.705 
28 1 11.2006 9.46502 11.2012 
34 1 9.50441 16.0946 10.5331 
37 1 14.8717 8.7668 10.8252 
45 1 10.4898 13.642 9.47439 
46 1 10.7046 12.3725 8.74783 
48 1 11.2011 11.2004 9.46547 
54 1 10.5331 9.50253 16.0925 
57 1 10.8253 14.8711 8.76672 
69 1 10.7292 10.7284 10.73 
88 1 10.5331 16.0944 9.50435 
108 1 16.0956 9.50437 10.5333 
128 1 9.50607 10.5317 16.0944 
165 1 10.4897 9.47235 13.6419 
166 1 10.705 8.74585 12.3733 
173 1 10.8247 8.76232 14.8706 
177 1 9.47388 13.6416 10.4899 
178 1 8.74672 12.373 10.7047 
185 1 8.76669 14.871 10.8253 
189 1 13.6427 10.4898 9.47415 
190 1 12.3735 10.7048 8.74756 
197 1 14.8717 10.8251 8.76664 
ITEM: TIMESTEP
20
ITEM: NUMBER OF ATOMS
203
ITEM: BOX BOUNDS pp pp pp
0.0000000000000000e+00 1.6114000000000001e+01
0.0000000000000000e+00 1.6113000000000000e+01
0.0000000000000000e+00 1.6111999999999998e+01
ITEM: ATOMS id type x y z 
5 1 5.36108 5.35841 5.35703 
65 1 5.57699 6.61303 2.42634 
66 1 5.36057 7.32766 3.69484 
68 1 4.87061 6.60676 4.87229 
79 1 5.24244 7.30902 1.2002 
89 1 6.60657 2.42944 5.59043 
90 1 7.33096 3.69735 5.36094 
92 1 6.61279 4.87288 4.86473 
101 1 7.31077 1.20222 5.24359 
109 1 2.42656 5.59064 6.60489 
110 1 3.69682 5.36191 7.32836 
112 1 4.87089 4.87099 6.60805 
121 1 1.2008 5.24339 7.31057 
129 1 6.61252 5.6218 2.43253 
130 1 7.33795 5.35615 3.69637 
137 1 7.27502 5.33833 1.19934 
141 1 2.42616 6.60479 5.59079 
142 1 3.69635 7.32804 5.36196 
149 1 1.20044 7.31089 5.24372 
153 1 5.59159 2.42769 6.60453 
154 1 5.36228 3.6972 7.32834 
161 1 5.24378 1.20214 7.3104 
7 1 6.61354 5.59285 13.6563 
8 1 7.33037 5.36006 12.3858 
10 1 6.6107 4.87268 11.2105 
21 1 7.32268 5.25454 14.8696 
32 1 1.20096 7.31044 10.8336 
40 1 2.42728 6.6051 10.4865 
41 1 3.69685 7.32833 10.7157 
43 1 4.87106 6.60914 11.2083 
47 1 5.24383 1.20166 8.76651 
55 1 5.59089 2.42764 9.4719 
56 1 5.36226 3.69711 8.74876 
58 1 4.87085 4.87127 9.46882 
64 1 5.52816 6.57774 16.0913 
75 1 5.36086 5.35937 10.7194 
118 1 6.57826 5.56816 16.0833 
168 1 5.59834 6.60225 13.652 
169 1 5.36377 7.32462 12.3861 
176 1 5.24419 7.31006 14.8723 
182 1 7.31077 1.20152 10.8333 
186 1 6.60574 2.42872 10.4865 
187 1 7.32916 3.69805 10.7164 
191 1 1.20081 5.24362 8.76649 
195 1 2.42683 5.59072 9.47212 
196 1 3.69654 5.36199 8.7487 
9 1 7.31262 10.8321 1.20151 
19 1 6.60643 10.4864 2.42645 
20 1 7.32971 10.7148 3.69569 
22 1 6.60948 11.2058 4.87036 
27 1 1.20075 8.76627 5.24382 
35 1 2.42671 9.47186 5.5906 
36 1 3.6953 8.74801 5.36185 
38 1 4.87106 9.46781 4.87021 
44 1 6.56882 16.0955 5.53969 
50 1 5.59075 13.6499 6.60496 
51 1 5.36236 12.3805 7.32885 
53 1 4.87049 11.2062 6.60915 
62 1 5.24344 14.8756 7.31068 
76 1 5.53928 16.0953 6.56881 
81 1 5.35941 10.7186 5.3588 
167 1 5.24392 8.76509 1.20069 
171 1 5.59082 9.47154 2.42643 
172 1 5.3616 8.74923 3.69581 
180 1 6.60486 13.6499 5.59075 
181 1 7.32861 12.3806 5.36226 
188 1 7.31064 14.8757 5.24358 
194 1 1.20084 10.8336 7.31053 
198 1 2.42648 10.4863 6.60491 
199 1 3.69577 10.7149 7.3287 
17 1 5.35874 10.717 10.7187 
39 1 6.56854 16.0952 10.5374 
49 1 5.53965 9.50699 16.0942 
73 1 5.24399 8.76577 14.8748 
82 1 5.53946 16.0951 9.50826 
83 1 5.59082 9.46996 13.6502 
84 1 5.36198 8.74538 12.3817 
86 1 4.8709 9.46641 11.2077 
91 1 7.31058 14.8758 10.8334 
99 1 6.60502 13.6498 10.4863 
100 1 7.32891 12.3806 10.7147 
102 1 6.6092 11.2056 11.2062 
113 1 6.56941 10.5371 16.0953 
114 1 2.42645 10.4861 9.47232 
115 1 3.69584 10.7149 8.74837 
117 1 4.87042 11.206 9.46813 
126 1 1.20082 10.8335 8.76656 
131 1 7.31205 10.8326 14.8758 
135 1 6.60492 10.4855 13.6498 
136 1 7.32957 10.7147 12.3811 
144 1 2.42699 9.47192 10.4863 
145 1 3.69629 8.74788 10.7153 
152 1 1.20097 8.76661 10.8335 
158 1 5.24367 14.8757 8.76663 
162 1 5.59071 13.6499 9.472 
163 1 5.36239 12.3805 8.74854 
3 1 8.78244 5.12734 1.20105 
13 1 9.45619 5.63712 2.41476 
14 1 8.75567 5.36165 3.68059 
16 1 9.46431 4.87198 4.86222 
24 1 16.095 5.53915 6.56867 
30 1 13.6474 6.60589 5.5904 
31 1 12.3797 7.32858 5.3602 
33 1 11.2042 6.60798 4.86698 
42 1 14.8755 7.31055 5.24371 
52 1 10.8336 1.20131 7.31093 
60 1 10.4862 2.4277 6.60524 
61 1 10.7149 3.6965 7.32877 
63 1 11.2039 4.87134 6.60607 
87 1 10.7155 5.35982 5.3576 
98 1 16.0953 6.56846 5.53974 
170 1 10.8292 7.31949 1.19927 
174 1 10.4495 6.62436 2.41989 
175 1 10.7185 7.33265 3.69729 
179 1 8.76719 1.20261 5.24335 
183 1 9.47265 2.42799 5.59079 
184 1 8.74989 3.69906 5.36298 
192 1 13.6489 5.59083 6.60516 
193 1 12.3794 5.36135 7.32754 
200 1 14.8757 5.24371 7.31083 
201 2 8.75177 3.98912 1.20909 
202 2 10.0003 3.09723 1.71804 
203 3 9.42872 2.39648 1.4817 
6 1 16.0954 5.5393 9.50846 
23 1 10.7153 5.35886 10.7196 
59 1 10.5085 6.58769 16.0941 
67 1 10.8241 7.31723 14.8684 
77 1 10.4777 6.60784 13.6549 
78 1 10.7144 7.32615 12.3844 
80 1 11.2056 6.60948 11.2098 
93 1 16.0953 6.56842 10.5376 
94 1 9.47111 2.42906 10.4866 
95 1 8.74877 3.69837 10.7166 
97 1 9.46896 4.8723 11.2094 
106 1 8.76629 1.20152 10.8333 
116 1 14.8758 5.24378 8.76637 
123 1 9.49499 5.58493 16.0892 
124 1 13.6498 5.59125 9.47189 
125 1 12.3802 5.36189 8.74745 
127 1 11.2062 4.87183 9.46911 
134 1 8.76965 5.26165 14.8839 
138 1 9.46629 5.60288 13.6528 
139 1 8.75056 5.36168 12.3879 
143 1 14.8757 7.31041 10.8332 
147 1 13.6495 6.60508 10.486 
148 1 12.3796 7.3283 10.7163 
156 1 10.486 2.42766 9.47237 
157 1 10.7152 3.69758 8.74884 
164 1 10.8333 1.2015 8.76643 
11 1 10.7187 10.716 5.35824 
18 1 16.0955 10.5378 6.56862 
29 1 9.50835 16.0954 5.53946 
70 1 10.5377 16.0952 6.5688 
71 1 10.4838 9.4672 2.42443 
72 1 10.7179 8.74714 3.69418 
74 1 11.2075 9.46782 4.87042 
85 1 10.8337 8.76217 1.19885 
96 1 8.76647 14.8759 5.24351 
103 1 16.0956 9.5086 5.53974 
104 1 9.4721 13.6497 5.59066 
105 1 8.74835 12.3804 5.36223 
107 1 9.46773 11.2056 4.87014 
111 1 14.8761 10.8334 7.31065 
119 1 13.6504 10.4862 6.60505 
120 1 12.3812 10.7149 7.32869 
122 1 11.2063 11.2061 6.60894 
132 1 9.47332 10.4823 2.42596 
133 1 8.74901 10.7144 3.69534 
140 1 8.76727 10.8308 1.2006 
146 1 14.8763 8.76611 5.24356 
150 1 13.6493 9.4714 5.59086 
151 1 12.3807 8.7464 5.3619 
155 1 10.8336 14.8754 7.31077 
159 1 10.4863 13.6498 6.605 
160 1 10.7146 12.3803 7.3289 
1 1 9.4735 10.4828 13.6506 
2 1 8.74941 10.7145 12.3819 
4 1 9.46827 11.2052 11.2065 
12 1 16.0954 10.5377 9.50844 
15 1 8.76846 10.8309 14.8757 
25 1 13.6498 9.47169 10.486 
26 1 12.3808 8.74822 10.7154 
28 1 11.2057 9.46672 11.2082 
34 1 9.50844 16.0953 10.5374 
37 1 14.876 8.76646 10.8332 
45 1 10.4863 13.6497 9.47207 
46 1 10.7148 12.38 8.74885 
48 1 11.2065 11.2056 9.46869 
54 1 10.5352 9.50319 16.0937 
57 1 10.8334 14.8756 8.76651 
69 1 10.7182 10.7163 10.7187 
88 1 10.5374 16.0949 9.50856 
108 1 16.0954 9.50859 10.5377 
128 1 9.51121 10.5321 16.0945 
165 1 10.4841 9.46884 13.6505 
166 1 10.7156 8.74575 12.3833 
173 1 10.8311 8.76255 14.8754 
177 1 9.47195 13.6496 10.4863 
178 1 8.74852 12.3801 10.715 
185 1 8.76639 14.8758 10.8335 
189 1 13.6506 10.4859 9.47198 
190 1 12.3812 10.715 8.7487 
197 1 14.876 10.8332 8.76654 
ITEM: TIMESTEP
30
ITEM: NUMBER OF ATOMS
203
ITEM: BOX BOUNDS pp pp pp
0.0000000000000000e+00 1.6114000000000001e+01
0.0000000000000000e+00 1.6113000000000000e+01
0.0000000000000000e+00 1.6111999999999998e+01
ITEM: ATOMS id type x y z 
5 1 5.36699 5.36266 5.36185 
65 1 5.57383 6.61699 2.42286 
66 1 5.35119 7.33029 3.69513 
68 1 4.86783 6.60633 4.87032 
79 1 5.23402 7.31408 1.19464 
89 1 6.60874 2.42658 5.5918 
90 1 7.3305 3.69483 5.35343 
92 1 6.61237 4.87009 4.86204 
101 1 7.31039 1.20037 5.2393 
109 1 2.42492 5.5917 6.60751 
110 1 3.6929 5.35464 7.32797 
112 1 4.86852 4.8689 6.60694 
121 1 1.19872 5.23901 7.31013 
129 1 6.6176 5.63119 2.42814 
130 1 7.33764 5.34962 3.69224 
137 1 7.27583 5.3491 1.19576 
141 1 2.42449 6.60727 5.59206 
142 1 3.69188 7.32749 5.35543 
149 1 1.19862 7.30989 5.23929 
153 1 5.59296 2.42576 6.60693 
154 1 5.3552 3.69309 7.328 
161 1 5.23951 1.20043 7.30992 
7 1 6.61397 5.59633 13.6581 
8 1 7.33088 5.35227 12.3895 
10 1 6.61021 4.87015 11.2136 
21 1 7.32194 5.25403 14.873 
32 1 1.19927 7.30993 10.8379 
40 1 2.42504 6.60725 10.4852 
41 1 3.6937 7.32716 10.7234 
43 1 4.86926 6.6084 11.2124 
47 1 5.2394 1.19985 8.76669 
55 1 5.59272 2.42553 9.4702 
56 1 5.35506 3.69361 8.74894 
58 1 4.86889 4.86914 9.46993 
64 1 5.52172 6.57803 16.089 
75 1 5.36571 5.36511 10.7146 
118 1 6.57668 5.57393 16.0842 
168 1 5.60116 6.60562 13.6563 
169 1 5.35687 7.32378 12.3905 
176 1 5.23901 7.31216 14.8719 
182 1 7.30993 1.20039 10.8376 
186 1 6.60823 2.42672 10.4852 
187 1 7.32865 3.69415 10.7238 
191 1 1.19907 5.2392 8.76693 
195 1 2.42497 5.59217 9.46981 
196 1 3.69265 5.35488 8.74877 
9 1 7.31336 10.8359 1.19862 
19 1 6.60749 10.4831 2.4244 
20 1 7.32956 10.7217 3.69043 
22 1 6.60932 11.2085 4.86753 
27 1 1.19858 8.76697 5.23927 
35 1 2.42507 9.46955 5.59175 
36 1 3.69254 8.74816 5.35414 
38 1 4.86767 9.46763 4.86757 
44 1 6.56639 16.0959 5.53566 
50 1 5.59188 13.6522 6.60726 
51 1 5.35527 12.3846 7.32834 
53 1 4.86801 11.2088 6.60868 
62 1 5.23898 14.8777 7.31008 
76 1 5.53555 16.0953 6.56599 
81 1 5.36455 10.7135 5.36365 
167 1 5.24097 8.76697 1.19867 
171 1 5.59304 9.46838 2.42207 
172 1 5.35408 8.75125 3.69031 
180 1 6.60732 13.652 5.59182 
181 1 7.32837 12.3845 5.35509 
188 1 7.31004 14.8778 5.23915 
194 1 1.19911 10.8381 7.31015 
198 1 2.42434 10.4851 6.60713 
199 1 3.6917 10.7219 7.32815 
17 1 5.36412 10.7116 10.7139 
39 1 6.56582 16.0953 10.5413 
49 1 5.53758 9.50877 16.0945 
73 1 5.24019 8.76616 14.8776 
82 1 5.53568 16.0954 9.51124 
83 1 5.59358 9.46786 13.6524 
84 1 5.35435 8.7447 12.3864 
86 1 4.86934 9.46608 11.212 
91 1 7.31014 14.8778 10.8379 
99 1 6.60733 13.6519 10.4852 
100 1 7.32814 12.3837 10.7221 
102 1 6.60945 11.208 11.2097 
113 1 6.56676 10.539 16.0933 
114 1 2.42432 10.4849 9.47009 
115 1 3.69214 10.722 8.7492 
117 1 4.86807 11.2082 9.46904 
126 1 1.19891 10.838 8.76696 
131 1 7.31216 10.8352 14.8778 
135 1 6.60846 10.4837 13.6532 
136 1 7.32891 10.7219 12.3861 
144 1 2.42496 9.46942 10.4852 
145 1 3.6924 8.74822 10.7227 
152 1 1.19902 8.76683 10.838 
158 1 5.23902 14.8777 8.76684 
162 1 5.59201 13.6522 9.47008 
163 1 5.35515 12.384 8.74927 
3 1 8.77803 5.11645 1.19544 
13 1 9.44921 5.63967 2.41183 
14 1 8.75853 5.35413 3.67235 
16 1 9.46794 4.8695 4.85993 
24 1 16.0953 5.53535 6.56597 
30 1 13.6512 6.60743 5.59189 
31 1 12.3829 7.32706 5.35292 
33 1 11.2062 6.60762 4.86385 
42 1 14.8772 7.30959 5.23964 
52 1 10.8379 1.19959 7.31022 
60 1 10.4849 2.42528 6.60748 
61 1 10.7224 3.69387 7.32795 
63 1 11.2067 4.86884 6.60628 
87 1 10.7079 5.36317 5.36144 
98 1 16.0946 6.5659 5.53579 
170 1 10.8299 7.32104 1.19585 
174 1 10.4409 6.63201 2.41644 
175 1 10.7246 7.33331 3.69397 
179 1 8.76733 1.2005 5.23888 
183 1 9.47042 2.42632 5.59198 
184 1 8.7514 3.69541 5.35503 
192 1 13.6511 5.59217 6.60737 
193 1 12.3823 5.35399 7.32661 
200 1 14.8769 5.23942 7.30995 
201 2 8.7539 3.97566 1.20772 
202 2 10.0163 3.06807 1.72499 
203 3 9.44074 2.37176 1.48829 
6 1 16.0953 5.53549 9.51115 
23 1 10.7117 5.36459 10.7143 
59 1 10.5069 6.58882 16.0939 
67 1 10.8256 7.3193 14.8712 
77 1 10.4757 6.61204 13.6568 
78 1 10.7216 7.32692 12.3885 
80 1 11.2081 6.60838 11.212 
93 1 16.0954 6.56583 10.5415 
94 1 9.46894 2.42669 10.4851 
95 1 8.74887 3.69432 10.7238 
97 1 9.46851 4.86947 11.213 
106 1 8.76699 1.20027 10.8376 
116 1 14.8776 5.23945 8.76709 
123 1 9.49421 5.58377 16.0921 
124 1 13.6512 5.59236 9.46902 
125 1 12.3841 5.35476 8.74802 
127 1 11.2087 4.86938 9.46936 
134 1 8.77228 5.25992 14.8865 
138 1 9.46388 5.60694 13.656 
139 1 8.75041 5.35437 12.3907 
143 1 14.8776 7.30997 10.8375 
147 1 13.6511 6.60762 10.4849 
148 1 12.3836 7.32802 10.7237 
156 1 10.4846 2.42589 9.46987 
157 1 10.7223 3.69322 8.74929 
164 1 10.8376 1.19992 8.76732 
11 1 10.7131 10.7114 5.36336 
18 1 16.0954 10.5416 6.56565 
29 1 9.51125 16.0956 5.53569 
70 1 10.5413 16.0951 6.56584 
71 1 10.48 9.46615 2.42046 
72 1 10.7254 8.74956 3.68891 
74 1 11.2099 9.46958 4.86819 
85 1 10.8383 8.76538 1.19664 
96 1 8.76715 14.8779 5.2391 
103 1 16.0955 9.51123 5.53575 
104 1 9.46979 13.6518 5.59185 
105 1 8.74924 12.3837 5.35469 
107 1 9.46796 11.2081 4.86672 
111 1 14.8782 10.838 7.31038 
119 1 13.6525 10.4847 6.60681 
120 1 12.3845 10.7223 7.32825 
122 1 11.209 11.2084 6.6086 
132 1 9.47072 10.4789 2.42211 
133 1 8.75091 10.7212 3.69006 
140 1 8.76994 10.8327 1.19804 
146 1 14.8777 8.76687 5.23942 
150 1 13.653 9.46937 5.5924 
151 1 12.385 8.74822 5.35549 
155 1 10.838 14.8776 7.31013 
159 1 10.485 13.6519 6.60719 
160 1 10.7218 12.384 7.3284 
1 1 9.47082 10.4803 13.654 
2 1 8.74993 10.7214 12.3866 
4 1 9.46816 11.2077 11.2101 
12 1 16.0955 10.5415 9.51132 
15 1 8.76839 10.8331 14.8789 
25 1 13.6519 9.46927 10.4849 
26 1 12.3839 8.74845 10.723 
28 1 11.2085 9.46658 11.2115 
34 1 9.51108 16.0953 10.5414 
37 1 14.8778 8.76669 10.8377 
45 1 10.485 13.6518 9.46989 
46 1 10.722 12.3839 8.74928 
48 1 11.2088 11.2081 9.46928 
54 1 10.537 9.50648 16.092 
57 1 10.8379 14.8776 8.76705 
69 1 10.7133 10.7107 10.714 
88 1 10.5414 16.0951 9.51113 
108 1 16.0955 9.5112 10.5416 
128 1 9.51295 10.5342 16.0946 
165 1 10.4812 9.4663 13.6538 
166 1 10.7229 8.74705 12.3881 
173 1 10.8342 8.76562 14.8773 
177 1 9.46946 13.6517 10.4853 
178 1 8.74916 12.3839 10.7223 
185 1 8.76701 14.8775 10.8379 
189 1 13.6526 10.4847 9.46993 
190 1 12.385 10.722 8.74894 
197 1 14.8781 10.8378 8.76676 
ITEM: TIMESTEP
40
ITEM: NUMBER OF ATOMS
203
ITEM: BOX BOUNDS pp pp pp
0.0000000000000000e+00 1.6114000000000001e+01
0.0000000000000000e+00 1.6113000000000000e+01
0.0000000000000000e+00 1.6111999999999998e+01
ITEM: ATOMS id type x y z 
5 1 5.37029 5.36638 5.36533 
65 1 5.57195 6.62235 2.41941 
66 1 5.34328 7.32994 3.69028 
68 1 4.86646 6.60458 4.86973 
79 1 5.22693 7.31498 1.1933 
89 1 6.61017 2.42506 5.59315 
90 1 7.33119 3.69102 5.34682 
92 1 6.61238 4.8694 4.85841 
101 1 7.31039 1.19875 5.23553 
109 1 2.42234 5.59281 6.60863 
110 1 3.68983 5.34813 7.32762 
112 1 4.8677 4.86752 6.60518 
121 1 1.19698 5.23533 7.30996 
129 1 6.61976 5.64271 2.42642 
130 1 7.33771 5.34429 3.68754 
137 1 7.27801 5.3587 1.19358 
141 1 2.42113 6.60762 5.59371 
142 1 3.68914 7.32682 5.34961 
149 1 1.19646 7.30974 5.23565 
153 1 5.59461 2.4234 6.60767 
154 1 5.34869 3.69028 7.3278 
161 1 5.23594 1.19846 7.30966 
7 1 6.61553 5.59834 13.6616 
8 1 7.33054 5.34547 12.3933 
10 1 6.6087 4.86901 11.2155 
21 1 7.32214 5.25493 14.8746 
32 1 1.19743 7.30965 10.8414 
40 1 2.42293 6.60831 10.4839 
41 1 3.6905 7.32704 10.7301 
43 1 4.86792 6.60668 11.2141 
47 1 5.23583 1.19829 8.76704 
55 1 5.59401 2.42314 9.46898 
56 1 5.34864 3.69049 8.74932 
58 1 4.86768 4.86811 9.4713 
64 1 5.51476 6.5792 16.0887 
75 1 5.36951 5.36847 10.7112 
118 1 6.57528 5.57908 16.0832 
168 1 5.60376 6.60725 13.6594 
169 1 5.35102 7.32326 12.3948 
176 1 5.23333 7.31457 14.8729 
182 1 7.30992 1.19841 10.8413 
186 1 6.60887 2.42401 10.4838 
187 1 7.32836 3.6914 10.7304 
191 1 1.19726 5.23563 8.76735 
195 1 2.42248 5.59355 9.46873 
196 1 3.68992 5.34834 8.7492 
9 1 7.3139 10.8374 1.19619 
19 1 6.61024 10.4813 2.41967 
20 1 7.32965 10.7283 3.68626 
22 1 6.6087 11.2094 4.86457 
27 1 1.19712 8.76699 5.23557 
35 1 2.42226 9.46858 5.593 
36 1 3.68917 8.74846 5.34783 
38 1 4.86703 9.47002 4.86593 
44 1 6.56327 16.0959 5.53238 
50 1 5.5933 13.6548 6.60801 
51 1 5.3488 12.3877 7.32834 
53 1 4.86678 11.21 6.60714 
62 1 5.23529 14.8798 7.30988 
76 1 5.53241 16.0955 6.56281 
81 1 5.36866 10.71 5.36706 
167 1 5.23806 8.76868 1.19547 
171 1 5.59595 9.46801 2.41825 
172 1 5.34734 8.75276 3.68615 
180 1 6.60819 13.6547 5.59319 
181 1 7.32821 12.3874 5.34834 
188 1 7.30997 14.8799 5.23545 
194 1 1.19702 10.8418 7.30996 
198 1 2.42173 10.4836 6.60773 
199 1 3.68895 10.7285 7.32804 
17 1 5.36814 10.7073 10.7109 
39 1 6.56298 16.0955 10.5448 
49 1 5.53621 9.51171 16.0936 
73 1 5.2376 8.7691 14.8793 
82 1 5.53224 16.0954 9.51412 
83 1 5.59655 9.46693 13.6563 
84 1 5.34795 8.74527 12.3914 
86 1 4.86806 9.46727 11.2137 
91 1 7.30986 14.8796 10.8416 
99 1 6.60841 13.6544 10.4839 
100 1 7.328 12.3868 10.7287 
102 1 6.60794 11.2088 11.2117 
113 1 6.5655 10.541 16.0944 
114 1 2.42178 10.4835 9.46928 
115 1 3.6891 10.7284 8.74953 
117 1 4.86714 11.2092 9.47104 
126 1 1.19709 10.8417 8.76719 
131 1 7.3138 10.8374 14.8803 
135 1 6.60971 10.481 13.6569 
136 1 7.32916 10.7283 12.3903 
144 1 2.42262 9.46832 10.484 
145 1 3.6899 8.74816 10.7296 
152 1 1.1972 8.76694 10.8416 
158 1 5.23535 14.8796 8.76718 
162 1 5.59333 13.6547 9.46918 
163 1 5.34866 12.387 8.74982 
3 1 8.77465 5.10608 1.19296 
13 1 9.44524 5.64203 2.40491 
14 1 8.75797 5.34655 3.66779 
16 1 9.46996 4.86764 4.85704 
24 1 16.0949 5.53199 6.56313 
30 1 13.653 6.60847 5.59304 
31 1 12.3855 7.32722 5.34599 
33 1 11.2072 6.60724 4.86105 
42 1 14.8788 7.30959 5.23594 
52 1 10.8414 1.19782 7.31014 
60 1 10.4836 2.42292 6.60856 
61 1 10.7286 3.69058 7.32763 
63 1 11.2074 4.86809 6.60424 
87 1 10.7043 5.36709 5.36406 
98 1 16.0948 6.56282 5.53246 
170 1 10.8293 7.32463 1.19417 
174 1 10.4318 6.6368 2.41339 
175 1 10.7298 7.33478 3.69087 
179 1 8.7677 1.1988 5.23521 
183 1 9.4695 2.42367 5.59312 
184 1 8.75161 3.69255 5.34785 
192 1 13.6535 5.59351 6.60823 
193 1 12.3854 5.34779 7.32631 
200 1 14.8788 5.23588 7.30971 
201 2 8.75977 3.96277 1.20719 
202 2 10.0316 3.04032 1.73178 
203 3 9.4515 2.34885 1.49439 
6 1 16.0953 5.53218 9.51406 
23 1 10.7083 5.36811 10.7109 
59 1 10.5053 6.58879 16.094 
67 1 10.8264 7.32174 14.8734 
77 1 10.4736 6.61484 13.66 
78 1 10.7285 7.32773 12.3909 
80 1 11.2091 6.60688 11.2137 
93 1 16.0955 6.56292 10.5448 
94 1 9.46825 2.42381 10.4837 
95 1 8.74931 3.69136 10.7302 
97 1 9.47039 4.8682 11.2145 
106 1 8.76714 1.19835 10.8412 
116 1 14.8793 5.23585 8.76704 
123 1 9.49402 5.58123 16.0948 
124 1 13.6539 5.59386 9.46818 
125 1 12.3868 5.34831 8.74791 
127 1 11.2097 4.86805 9.47075 
134 1 8.77145 5.25822 14.8886 
138 1 9.46242 5.6106 13.6585 
139 1 8.75101 5.34832 12.3946 
143 1 14.8793 7.30958 10.8412 
147 1 13.6538 6.60839 10.4835 
148 1 12.3868 7.32767 10.7301 
156 1 10.4832 2.42319 9.46892 
157 1 10.7288 3.69037 8.74917 
164 1 10.8413 1.19813 8.76736 
11 1 10.7092 10.7081 5.36693 
18 1 16.0956 10.545 6.5627 
29 1 9.51408 16.0957 5.53207 
70 1 10.5448 16.0952 6.56296 
71 1 10.4771 9.46507 2.41675 
72 1 10.7323 8.7511 3.68434 
74 1 11.212 9.4707 4.86633 
85 1 10.8414 8.76809 1.19384 
96 1 8.76736 14.8797 5.23544 
103 1 16.0953 9.51417 5.53229 
104 1 9.46879 13.6544 5.59309 
105 1 8.74954 12.3868 5.34799 
107 1 9.46938 11.2089 4.86417 
111 1 14.8799 10.8417 7.30988 
119 1 13.6552 10.4836 6.60811 
120 1 12.3881 10.7286 7.32793 
122 1 11.2099 11.2096 6.60691 
132 1 9.46904 10.4754 2.41831 
133 1 8.75083 10.7272 3.68528 
140 1 8.76839 10.834 1.19538 
146 1 14.88 8.76666 5.23567 
150 1 13.6551 9.46836 5.59383 
151 1 12.3879 8.74793 5.34927 
155 1 10.8416 14.8795 7.30989 
159 1 10.4836 13.6545 6.60817 
160 1 10.7282 12.3872 7.32817 
1 1 9.46836 10.4777 13.6585 