LAMMPS (3 Mar 2020)
Reading data file ...
  orthogonal box = (0 0 0) to (16.114 16.113 16.112)
  2 by 2 by 2 MPI processor grid
  reading atoms ...
  203 atoms
  read_data CPU = 0.00493303 secs
WARNING: Changed valency_val to valency_boc for X (../reaxc_ffield.cpp:315)
WARNING: Using 'neigh_modify every 1 delay 0 check yes' setting during minimization (../min.cpp:190)
Neighbor list info ...
  update every 1 steps, delay 0 steps, check yes
  max neighbors/atom: 2000, page size: 100000
  master list distance cutoff = 12
  ghost atom cutoff = 12
  binsize = 6, bins = 3 3 3
  2 neighbor lists, perpetual/occasional/extra = 2 0 0
  (1) pair reax/c, perpetual
      attributes: half, newton off, ghost
      pair build: half/bin/newtoff/ghost
      stencil: half/ghost/bin/3d/newtoff
      bin: standard
  (2) fix qeq/reax, perpetual, copy from (1)
      attributes: half, newton off, ghost
      pair build: copy
      stencil: none
      bin: none
Setting up cg style minimization ...
  Unit style    : real
  Current step  : 0
Per MPI rank memory allocation (min/avg/max) = 37.17 | 37.22 | 37.27 Mbytes
Step Temp E_pair E_mol TotEng Press 
       0            0    -37837.27            0    -37837.27     671163.2 
      98            0   -38799.195            0   -38799.195    62668.844 
Loop time of 6.90537 on 8 procs for 98 steps with 203 atoms

98.9% CPU use with 8 MPI tasks x no OpenMP threads

Minimization stats:
  Stopping criterion = energy tolerance
  Energy initial, next-to-last, final = 
        -37837.2704775     -38799.1942532     -38799.1945561
  Force two-norm initial, final = 1446.37 23.6835
  Force max component initial, final = 191.938 7.6359
  Final line search alpha, max atom move = 0.000597493 0.0045624
  Iterations, force evaluations = 98 454

MPI task timing breakdown:
Section |  min time  |  avg time  |  max time  |%varavg| %total
---------------------------------------------------------------
Pair    | 5.8279     | 6.0586     | 6.144      |   3.7 | 87.74
Neigh   | 0          | 0          | 0          |   0.0 |  0.00
Comm    | 0.036497   | 0.1222     | 0.35292    |  25.8 |  1.77
Output  | 0.00044318 | 0.00055501 | 0.00098485 |   0.0 |  0.01
Modify  | 0.71632    | 0.71657    | 0.71709    |   0.0 | 10.38
Other   |            | 0.007438   |            |       |  0.11

Nlocal:    25.375 ave 28 max 22 min
Histogram: 1 0 0 2 0 0 3 0 1 1
Nghost:    1596.62 ave 1600 max 1593 min
Histogram: 1 1 0 0 2 0 0 3 0 1
Neighs:    8503.38 ave 9383 max 7383 min
Histogram: 1 0 0 2 0 0 3 1 0 1

Total # of neighbors = 68027
Ave neighs/atom = 335.108
Neighbor list builds = 0
Dangerous builds = 0
WARNING: Using 'neigh_modify every 1 delay 0 check yes' setting during minimization (../min.cpp:190)
Setting up cg style minimization ...
  Unit style    : real
  Current step  : 98
Per MPI rank memory allocation (min/avg/max) = 37.17 | 37.22 | 37.27 Mbytes
Step Temp E_pair E_mol TotEng Press 
      98            0   -38799.195            0   -38799.195    62668.848 
     213            0    -38804.74            0    -38804.74    62273.426 
Loop time of 7.74522 on 8 procs for 115 steps with 203 atoms

99.0% CPU use with 8 MPI tasks x no OpenMP threads

Minimization stats:
  Stopping criterion = energy tolerance
  Energy initial, next-to-last, final = 
        -38799.1945525     -38804.7401139     -38804.7401152
  Force two-norm initial, final = 23.6834 19.6353
  Force max component initial, final = 7.63517 7.92596
  Final line search alpha, max atom move = 0.0114346 0.0906302
  Iterations, force evaluations = 115 516

MPI task timing breakdown:
Section |  min time  |  avg time  |  max time  |%varavg| %total
---------------------------------------------------------------
Pair    | 6.7682     | 6.852      | 6.8779     |   1.3 | 88.47
Neigh   | 0          | 0          | 0          |   0.0 |  0.00
Comm    | 0.086588   | 0.11282    | 0.1966     |   9.9 |  1.46
Output  | 0.00050357 | 0.00070056 | 0.0013023  |   0.0 |  0.01
Modify  | 0.77106    | 0.77138    | 0.77187    |   0.0 |  9.96
Other   |            | 0.008333   |            |       |  0.11

Nlocal:    25.375 ave 28 max 22 min
Histogram: 1 0 0 2 0 0 3 0 1 1
Nghost:    1598.62 ave 1602 max 1596 min
Histogram: 1 1 0 3 0 0 2 0 0 1
Neighs:    8515.62 ave 9409 max 7395 min
Histogram: 1 0 0 2 0 0 3 1 0 1

Total # of neighbors = 68125
Ave neighs/atom = 335.591
Neighbor list builds = 0
Dangerous builds = 0
WARNING: Using 'neigh_modify every 1 delay 0 check yes' setting during minimization (../min.cpp:190)
Setting up cg style minimization ...
  Unit style    : real
  Current step  : 213
WARNING: Energy due to 3 extra global DOFs will be included in minimizer energies
Per MPI rank memory allocation (min/avg/max) = 37.18 | 37.22 | 37.27 Mbytes
Step Temp E_pair E_mol TotEng Press Volume 
     213            0    -38804.74            0    -38804.74    62273.427    4183.3983 
    3112            0   -38978.957            0   -38978.957    59.571526    4499.0411 
Loop time of 50.1174 on 8 procs for 2899 steps with 203 atoms

99.1% CPU use with 8 MPI tasks x no OpenMP threads

Minimization stats:
  Stopping criterion = energy tolerance
  Energy initial, next-to-last, final = 
        -38804.7401145     -38978.9570176     -38978.9573824
  Force two-norm initial, final = 6580.78 13.2622
  Force max component initial, final = 3828.19 4.4856
  Final line search alpha, max atom move = 8.00958e-06 3.59278e-05
  Iterations, force evaluations = 2899 3565

MPI task timing breakdown:
Section |  min time  |  avg time  |  max time  |%varavg| %total
---------------------------------------------------------------
Pair    | 46.008     | 46.52      | 46.842     |   3.4 | 92.82
Neigh   | 0          | 0          | 0          |   0.0 |  0.00
Comm    | 0.38822    | 0.71364    | 1.2263     |  27.2 |  1.42
Output  | 0.010724   | 0.01375    | 0.025664   |   3.9 |  0.03
Modify  | 2.7114     | 2.7135     | 2.7163     |   0.1 |  5.41
Other   |            | 0.157      |            |       |  0.31

Nlocal:    25.375 ave 28 max 23 min
Histogram: 2 0 1 0 1 0 2 0 0 2
Nghost:    1598.62 ave 1601 max 1596 min
Histogram: 2 0 0 0 2 0 1 0 1 2
Neighs:    8504.5 ave 9383 max 7720 min
Histogram: 2 0 1 0 1 1 1 0 0 2

Total # of neighbors = 68036
Ave neighs/atom = 335.153
Neighbor list builds = 0
Dangerous builds = 0
WARNING: Using 'neigh_modify every 1 delay 0 check yes' setting during minimization (../min.cpp:190)
Setting up cg style minimization ...
  Unit style    : real
  Current step  : 3112
Per MPI rank memory allocation (min/avg/max) = 37.17 | 37.22 | 37.26 Mbytes
Step Temp E_pair E_mol TotEng Press 
    3112            0   -38978.957            0   -38978.957    59.578481 
    3140            0   -38979.293            0   -38979.293    4396.1963 
Loop time of 2.18005 on 8 procs for 28 steps with 203 atoms

99.2% CPU use with 8 MPI tasks x no OpenMP threads

Minimization stats:
  Stopping criterion = energy tolerance
  Energy initial, next-to-last, final = 
        -38978.9573766     -38979.2927922     -38979.2927912
  Force two-norm initial, final = 11.4444 8.71223
  Force max component initial, final = 3.22138 3.26318
  Final line search alpha, max atom move = 0.0199244 0.065017
  Iterations, force evaluations = 28 158

MPI task timing breakdown:
Section |  min time  |  avg time  |  max time  |%varavg| %total
---------------------------------------------------------------
Pair    | 1.8999     | 1.9219     | 1.9411     |   0.8 | 88.16
Neigh   | 0          | 0          | 0          |   0.0 |  0.00
Comm    | 0.014242   | 0.033504   | 0.055517   |   6.0 |  1.54
Output  | 0.00010371 | 0.00012893 | 0.00022913 |   0.0 |  0.01
Modify  | 0.22187    | 0.22195    | 0.22202    |   0.0 | 10.18
Other   |            | 0.002547   |            |       |  0.12

Nlocal:    25.375 ave 28 max 23 min
Histogram: 2 0 1 0 1 0 2 0 0 2
Nghost:    1500.62 ave 1504 max 1496 min
Histogram: 1 0 0 1 0 1 2 2 0 1
Neighs:    7959.75 ave 8751 max 7241 min
Histogram: 2 0 1 0 1 1 1 0 0 2

Total # of neighbors = 63678
Ave neighs/atom = 313.685
Neighbor list builds = 0
Dangerous builds = 0
WARNING: Using 'neigh_modify every 1 delay 0 check yes' setting during minimization (../min.cpp:190)
Setting up cg style minimization ...
  Unit style    : real
  Current step  : 3140
WARNING: Energy due to 3 extra global DOFs will be included in minimizer energies
Per MPI rank memory allocation (min/avg/max) = 37.17 | 37.22 | 37.26 Mbytes
Step Temp E_pair E_mol TotEng Press Volume 
    3140            0   -38979.293            0   -38979.293    4396.1989    4499.0411 
    3173            0   -38979.511            0   -38979.511    72.568048    4504.4533 
Loop time of 0.718623 on 8 procs for 33 steps with 203 atoms

99.1% CPU use with 8 MPI tasks x no OpenMP threads

Minimization stats:
  Stopping criterion = energy tolerance
  Energy initial, next-to-last, final = 
         -38979.292789     -38979.5109991     -38979.5110983
  Force two-norm initial, final = 500.074 11.0359
  Force max component initial, final = 304.385 4.89879
  Final line search alpha, max atom move = 2.10877e-05 0.000103304
  Iterations, force evaluations = 33 54

MPI task timing breakdown:
Section |  min time  |  avg time  |  max time  |%varavg| %total
---------------------------------------------------------------
Pair    | 0.65544    | 0.66321    | 0.67097    |   0.5 | 92.29
Neigh   | 0          | 0          | 0          |   0.0 |  0.00
Comm    | 0.0030132  | 0.010832   | 0.018615   |   3.9 |  1.51
Output  | 0.00011265 | 0.00014569 | 0.00027693 |   0.0 |  0.02
Modify  | 0.0421     | 0.042131   | 0.042204   |   0.0 |  5.86
Other   |            | 0.002304   |            |       |  0.32

Nlocal:    25.375 ave 28 max 23 min
Histogram: 2 0 1 0 1 0 2 0 0 2
Nghost:    1500.62 ave 1504 max 1496 min
Histogram: 1 0 0 1 0 1 2 2 0 1
Neighs:    7960 ave 8752 max 7243 min
Histogram: 2 0 1 0 1 1 1 0 0 2

Total # of neighbors = 63680
Ave neighs/atom = 313.695
Neighbor list builds = 0
Dangerous builds = 0
WARNING: Using 'neigh_modify every 1 delay 0 check yes' setting during minimization (../min.cpp:190)
Setting up cg style minimization ...
  Unit style    : real
  Current step  : 3173
Per MPI rank memory allocation (min/avg/max) = 37.17 | 37.22 | 37.26 Mbytes
Step Temp E_pair E_mol TotEng Press 
    3173            0   -38979.511            0   -38979.511    72.567816 
    3193            0   -38979.642            0   -38979.642    2402.9915 
Loop time of 1.48282 on 8 procs for 20 steps with 203 atoms

99.2% CPU use with 8 MPI tasks x no OpenMP threads

Minimization stats:
  Stopping criterion = energy tolerance
  Energy initial, next-to-last, final = 
        -38979.5110978     -38979.6421537     -38979.6421693
  Force two-norm initial, final = 7.32308 8.49171
  Force max component initial, final = 2.12813 1.92017
  Final line search alpha, max atom move = 0.0301115 0.0578193
  Iterations, force evaluations = 20 107

MPI task timing breakdown:
Section |  min time  |  avg time  |  max time  |%varavg| %total
---------------------------------------------------------------
Pair    | 1.2892     | 1.3048     | 1.3196     |   0.7 | 88.00
Neigh   | 0          | 0          | 0          |   0.0 |  0.00
Comm    | 0.0066017  | 0.021501   | 0.037144   |   5.5 |  1.45
Output  | 7.7304e-05 | 9.9418e-05 | 0.0001905  |   0.0 |  0.01
Modify  | 0.15462    | 0.15468    | 0.1548     |   0.0 | 10.43
Other   |            | 0.001715   |            |       |  0.12

Nlocal:    25.375 ave 28 max 23 min
Histogram: 2 0 1 0 1 0 2 0 0 2
Nghost:    1500.62 ave 1504 max 1496 min
Histogram: 1 0 0 1 0 1 2 2 0 1
Neighs:    7953 ave 8746 max 7239 min
Histogram: 2 0 1 0 1 1 1 0 0 2

Total # of neighbors = 63624
Ave neighs/atom = 313.419
Neighbor list builds = 0
Dangerous builds = 0
Setting up Verlet run ...
  Unit style    : real
  Current step  : 0
  Time step     : 0.25
Per MPI rank memory allocation (min/avg/max) = 36.05 | 36.09 | 36.14 Mbytes
Step Temp TotEng KinEng PotEng Press 
       0          300   -38799.005    180.63709   -38979.642    4236.1392 
     200     203.2476    -38741.38    122.38018   -38863.761    1527.3679 
     400    290.60095   -38648.734     174.9777   -38823.712   -1639.9515 
     600    325.57856    -38593.18    196.03854   -38789.218   -2741.6435 
     800    311.43302   -38617.493    187.52118   -38805.015   -10535.008 
    1000    293.60795   -38641.291    176.78829   -38818.079   -10413.897 
    1200    325.50491   -38608.278     195.9942   -38804.272   -5968.5792 
    1400    286.89458   -38618.726    172.74601   -38791.472    2736.0664 
    1600    290.92476   -38619.608    175.17267   -38794.781   -7484.9228 
    1800    314.07026   -38620.831    189.10912    -38809.94   -6911.8714 
    2000    315.23398   -38591.629    189.80983   -38781.439   -3488.8152 
    2200    280.90255   -38625.277    169.13807   -38794.415    2826.6269 
    2400    323.80829   -38612.424    194.97263   -38807.397    47.327169 
    2600     313.6918   -38596.483    188.88124   -38785.364   -2608.1205 
    2800    322.15917   -38598.494    193.97965   -38792.473    24172.988 
    3000    310.97529   -38617.476    187.24557   -38804.721    14064.269 
    3200    312.12576   -38603.423    187.93829   -38791.362    13446.513 
    3400    267.36393   -38630.332    160.98614   -38791.319    5356.1456 
    3600     320.6547    -38609.65    193.07377   -38802.724    14456.327 
    3800    329.32378   -38579.351    198.29363   -38777.644   -2072.7253 
    4000    306.03199   -38617.669    184.26909   -38801.938   -2185.9812 
    4200    295.00198   -38621.483    177.62766   -38799.111    18335.057 
    4400    309.36779   -38591.488    186.27765   -38777.765    6095.5619 
    4600    280.70478   -38630.099    169.01898   -38799.118   -8972.0465 
    4800    295.73887    -38616.88    178.07136   -38794.952   -2723.2705 
    5000    286.97173    -38616.34    172.79246   -38789.132    4640.6048 
    5200    272.19252   -38636.282    163.89355   -38800.176   -12731.254 
    5400    318.30556   -38608.954     191.6593   -38800.614   -1026.1811 
    5600    317.96868   -38611.963    191.45645    -38803.42   -4819.3156 
    5800    289.02428   -38631.403    174.02835   -38805.431   -3630.3458 
    6000    300.28071   -38609.709    180.80611   -38790.515    11912.589 
    6200    286.44563    -38607.16    172.47568   -38779.636     1735.122 
    6400    315.60889   -38619.574    190.03557   -38809.609    2395.7567 
    6600    287.76346   -38630.779    173.26918   -38804.048    15334.179 
    6800    315.27364    -38595.27    189.83371   -38785.104    4569.9272 
    7000    283.95356   -38620.205    170.97515   -38791.181     1765.348 
    7200    291.48355   -38619.016    175.50913   -38794.525   -3365.2781 
    7400    303.12011   -38590.892    182.51578   -38773.408    6599.0563 
    7600    309.79829   -38619.277    186.53687   -38805.814    765.46214 
    7800    291.84726   -38624.369    175.72813   -38800.097   -7319.7385 
    8000    311.57661   -38612.508    187.60764   -38800.116   -2070.7453 
    8200    302.50337   -38620.852    182.14443   -38802.996   -557.57727 
    8400    310.59151   -38606.825    187.01449    -38793.84   -1026.1982 
    8600    278.95092   -38633.529    167.96294   -38801.492   -1953.9359 
    8800    316.71011   -38604.446    190.69864   -38795.145    590.12604 
    9000    317.33066   -38607.722    191.07229   -38798.795    2927.7865 
    9200    274.63325   -38631.329    165.36317   -38796.692    209.73241 
    9400    295.75871   -38612.238    178.08331   -38790.321   -4172.1636 
    9600    299.62062   -38609.433    180.40865   -38789.842   -3394.4834 
    9800    299.95781   -38618.287    180.61168   -38798.899    -3055.066 
   10000    287.08536   -38638.442    172.86088   -38811.303   -2878.5005 
   10200    283.77189   -38629.507    170.86576   -38800.372   -9233.2511 
   10400    295.27427   -38611.017    177.79162   -38788.809   -15370.589 
   10600    281.98165   -38622.974    169.78781   -38792.762   -16783.439 
   10800    310.92986   -38604.265    187.21822   -38791.483   -317.74894 
   11000     289.9581   -38619.185    174.59062   -38793.775    384.56504 
   11200    284.72235   -38637.111    171.43806   -38808.549    -7775.952 
   11400    302.27564   -38588.889    182.00731   -38770.896   -1128.0877 
   11600    290.47089   -38622.922    174.89939   -38797.821    16679.656 
   11800    292.76361   -38614.443    176.27989   -38790.723    16121.227 
   12000      315.409    -38594.79    189.91521   -38784.705    11075.907 
   12200    313.14593   -38620.941    188.55257   -38809.493    7984.6678 
   12400    298.42676   -38627.179    179.68981   -38806.868    -1674.149 
   12600    299.97068   -38595.982    180.61944   -38776.601    5814.8083 
   12800    301.93699   -38619.678     181.8034   -38801.481   -609.97754 
   13000    290.96712     -38617.7    175.19818   -38792.898    -1211.604 
   13200    345.14977   -38586.235    207.82283   -38794.058   -9954.9214 
   13400    284.43639   -38626.466    171.26587   -38797.732     3862.888 
   13600    306.71446   -38614.891    184.68003   -38799.571      4182.33 
   13800    325.64602   -38602.411    196.07916    -38798.49   -4397.2516 
   14000    288.94949   -38622.821    173.98331   -38796.804   -14696.319 
   14200    284.94015   -38627.799    171.56919   -38799.369    513.55848 
   14400    324.58001   -38606.256    195.43729   -38801.693    2978.4078 
   14600    269.28721   -38628.634    162.14419   -38790.778    323.73504 
   14800    295.79134   -38625.994    178.10296   -38804.097   -3318.2901 
   15000    328.86449   -38597.961    198.01708   -38795.978   -2867.4885 
   15200    292.68143   -38631.671    176.23041   -38807.902   -6137.6698 
   15400    269.50139   -38627.747    162.27315    -38790.02    15227.398 
   15600    309.96996   -38610.763    186.64024   -38797.403    6587.6774 
   15800    283.96353   -38636.906    170.98115   -38807.887   -487.96131 
   16000     307.3948   -38624.609    185.08967   -38809.699    1107.9128 
   16200      302.307   -38603.854    182.02619    -38785.88   -5656.9655 
   16400    297.53732   -38623.383    179.15425   -38802.537   -3958.1693 
   16600    285.90624   -38631.278    172.15091   -38803.429   -3015.2171 
   16800    327.65591   -38605.526    197.28936   -38802.816    671.95007 
   17000    281.00618   -38623.833    169.20046   -38793.034    1795.9896 
   17200     295.3729   -38616.954      177.851   -38794.805    224.05643 
   17400    292.08649   -38607.458    175.87218   -38783.331    -6309.904 
   17600    288.42949   -38626.769    173.67021   -38800.439    6724.1982 
   17800      327.514   -38613.954    197.20392   -38811.157    3704.5416 
   18000    341.04565   -38589.498    205.35165   -38794.849   -2629.5297 
   18200    301.91895   -38616.436    181.79254   -38798.228   -5857.3925 
   18400    311.35424   -38617.453    187.47375   -38804.927   -11225.487 
   18600    318.16796   -38588.408    191.57645   -38779.984   -5109.2725 
   18800    292.05829   -38615.871     175.8552   -38791.726    5353.4305 
   19000    307.50004     -38628.1    185.15304   -38813.253   -143.37712 
   19200    293.99692   -38603.853    177.02249   -38780.876   -4297.0634 
   19400    294.81244    -38613.25    177.51353   -38790.763   -2960.2469 
   19600    269.91819   -38637.735    162.52412   -38800.259   -8980.4855 
   19800    266.94177   -38646.429    160.73195   -38807.161    2946.4391 
   20000    299.96021   -38614.072    180.61313   -38794.685   -3365.3959 
   20200    307.96876   -38606.435    185.43527    -38791.87   -4674.0366 
   20400     285.9711   -38641.497    172.18996   -38813.687   -1817.8358 
   20600     305.0331   -38621.695    183.66764   -38805.362    7472.8114 
   20800    324.23485   -38605.049    195.22947   -38800.279    19577.747 
   21000    283.35835   -38644.721    170.61676   -38815.338     6574.711 
   21200    290.22029   -38632.273     174.7485   -38807.021    560.39939 
   21400    294.23769   -38612.915    177.16747   -38790.083    10122.681 
   21600    321.16118   -38601.213    193.37873   -38794.591    7886.5084 
   21800    281.46912   -38632.854    169.47921   -38802.333    15411.755 
   22000    303.61745   -38611.747    182.81524   -38794.563    7328.3413 
   22200    269.75197   -38637.941    162.42404   -38800.365   -3911.3333 
   22400    282.65173   -38625.629    170.19129    -38795.82   -7293.2108 
   22600    327.17083   -38608.717    196.99729   -38805.715    1904.6598 
   22800    300.12294   -38628.851    180.71112   -38809.562     6872.504 
   23000    286.00175   -38639.482    172.20841    -38811.69    3643.6165 
   23200    322.22069   -38618.649    194.01669   -38812.666    5899.9987 
   23400    313.28919   -38607.579    188.63883   -38796.218    1435.7948 
   23600    298.16207   -38617.953    179.53043   -38797.484    3969.0553 
   23800    276.82801    -38629.77    166.68469   -38796.454   -4093.5189 
   24000    318.02529   -38597.586    191.49054   -38789.076    614.02575 
   24200    289.77575   -38624.431    174.48083   -38798.912    6849.9709 
   24400    298.57579   -38618.027    179.77954   -38797.806    2302.2257 
   24600    344.78204   -38577.915    207.60141   -38785.517   -2076.2392 
   24800    297.21176   -38617.458    178.95822   -38796.416   -1381.7458 
   25000    300.13723   -38618.201    180.71972   -38798.921    7159.1922 
   25200    308.36456   -38607.371    185.67359   -38793.045    772.04432 
   25400     277.5744   -38637.597     167.1341   -38804.731   -8022.4778 
   25600     327.0829   -38612.128    196.94434   -38809.072   -10101.042 
   25800    304.03367   -38613.252    183.06586   -38796.318    -102.7172 
   26000     310.2698    -38635.52    186.82078   -38822.341    682.76579 
   26200    293.73225   -38631.148    176.86313   -38808.011   -3663.0352 
   26400    328.14661   -38609.824    197.58483   -38807.409    4366.8832 
   26600    258.20649   -38638.067    155.47223   -38793.539    11650.635 
   26800     302.5757    -38623.71    182.18798   -38805.898    6722.7037 
   27000    295.09364   -38611.678    177.68285   -38789.361     7330.354 
   27200    311.19065   -38610.727    187.37524   -38798.103     7954.516 
   27400    292.22567   -38616.038    175.95598   -38791.994    4299.7494 
   27600    289.99567   -38632.159    174.61325   -38806.772   -7003.7551 
   27800    305.65693   -38616.057    184.04326     -38800.1   -3078.7016 
   28000    324.85393   -38604.314    195.60223   -38799.916   -6098.6435 
   28200    277.71078   -38633.202    167.21622   -38800.418    12059.658 
   28400    321.86072   -38612.861    193.79995   -38806.661     1312.193 
   28600    281.64182   -38620.738     169.5832   -38790.321   -12547.059 
   28800    271.77029   -38629.994    163.63931   -38793.633   -14416.433 
   29000    290.12086   -38618.892    174.68863    -38793.58    11228.235 
   29200    318.74771   -38600.997    191.92553   -38792.922    6524.0346 
   29400    296.69413   -38637.572    178.64655   -38816.218    269.89581 
   29600    288.12198   -38628.992    173.48505   -38802.477   -8166.3055 
   29800    313.09876   -38607.964    188.52416   -38796.488   -3403.1654 
   30000    296.33331   -38642.864    178.42929   -38821.293   -298.41048 
   30200    245.13299   -38680.381    147.60037   -38827.982    1531.1396 
   30400    295.24309   -38636.005    177.77284   -38813.777   -431.18086 
   30600    296.58611   -38604.041    178.58151   -38782.622     726.6064 
   30800    296.80039   -38616.429    178.71053    -38795.14     1000.546 
   31000    287.93566   -38637.477    173.37287    -38810.85    8814.0663 
   31200    314.86545   -38609.083    189.58793   -38798.671    10412.127 
   31400    313.32315   -38613.085    188.65927   -38801.744    4086.3129 
   31600    273.54413   -38633.013    164.70738    -38797.72    2160.1782 
   31800    276.83401   -38627.688     166.6883   -38794.376   -4010.5549 
   32000    327.04742   -38597.174    196.92298   -38794.097    8254.7515 
   32200    309.96896   -38623.877    186.63964   -38810.517     900.2823 
   32400    304.99202    -38620.56     183.6429   -38804.203    -2711.143 
   32600    304.61878   -38616.037    183.41817   -38799.456   -4558.6417 
   32800      298.368   -38619.812    179.65442   -38799.466   -681.66463 
   33000    333.00234   -38588.561    200.50858    -38789.07    6777.1407 
   33200    285.15206   -38623.088    171.69679   -38794.785   -1716.2592 
   33400    282.75758   -38626.988    170.25502   -38797.243   -4414.5586 
   33600    300.65448    -38600.15    181.03117   -38781.181   -331.66351 
   33800    289.56506   -38625.481    174.35396   -38799.835    6581.9677 
   34000    291.51581    -38623.33    175.52856   -38798.858     1661.531 
   34200    306.72706   -38611.643    184.68761    -38796.33   -109.45453 
   34400    279.57755   -38646.557    168.34025   -38814.897   -2745.9595 
   34600     274.3938   -38627.439    165.21899   -38792.658    396.24809 
   34800    309.90053   -38605.874    186.59843   -38792.472   -4638.5396 
   35000    287.45234   -38621.901    173.08185   -38794.982   -15728.429 
   35200    308.20482   -38619.849    185.57741   -38805.426   -11395.878 
   35400    311.83625   -38618.959    187.76397   -38806.723   -7393.3725 
   35600    329.46277   -38591.231    198.37732   -38789.608   -4918.7942 
   35800    290.67783   -38622.486    175.02399    -38797.51   -3813.1878 
   36000    300.64064   -38618.938    181.02283   -38799.961   -7076.5129 
   36200    300.60147   -38597.866    180.99925   -38778.865    5937.4449 
   36400    292.94122    -38635.65    176.38683   -38812.037     8771.664 
   36600    289.06951   -38618.825    174.05558   -38792.881    1266.2337 
   36800    311.08375   -38602.742    187.31088   -38790.053   -1574.3639 
   37000    279.69789   -38641.424    168.41271   -38809.836    2272.2768 
   37200    309.86895   -38610.328    186.57942   -38796.907    5265.3306 
   37400    280.07913   -38633.013    168.64226   -38801.655    3088.3371 
   37600    315.42032   -38590.942    189.92203   -38780.864   -9981.4907 
   37800    320.55479   -38611.286    193.01361     -38804.3   -17356.975 
   38000    306.97608   -38623.162    184.83755   -38807.999    -4549.069 
   38200    302.55347    -38618.02    182.17459   -38800.195   -2621.0128 
   38400    323.67191   -38601.168    194.89051   -38796.059   -19808.711 
   38600    276.35179   -38629.609    166.39794   -38796.007   -3005.0907 
   38800    319.86353   -38602.233    192.59739    -38794.83    5197.5825 
   39000    308.92117   -38598.707    186.00874   -38784.715   -5451.4257 
   39200    291.32584    -38624.32    175.41418   -38799.734    -1642.062 
   39400      271.122   -38621.069    163.24896   -38784.318    -26.75587 
   39600    299.82819    -38638.67    180.53364   -38819.203   -4047.9066 
   39800    303.55346   -38606.617    182.77671   -38789.394   -320.08637 
   40000    299.82536    -38616.93    180.53193   -38797.462   -6253.2255 
   40200     263.6202   -38653.934    158.73195   -38812.666   -2530.8272 
   40400    262.94446   -38652.744    158.32507   -38811.069   -4354.9594 
   40600    303.71815   -38618.273    182.87587   -38801.149   -1751.3501 
   40800    293.25078    -38603.76    176.57322   -38780.333   -2889.5705 
   41000    257.85016   -38639.438    155.25767   -38794.695   -4432.6651 
   41200    297.17709   -38618.935    178.93735   -38797.873   -5284.4024 
   41400    318.42292   -38600.023    191.72996   -38791.753   -1815.9926 
   41600    316.67055   -38634.477    190.67482   -38825.152    801.63479 
   41800    311.66594   -38618.351    187.66143   -38806.013     1886.255 
   42000    299.97255   -38606.795    180.62056   -38787.416    2018.2147 
   42200    261.79678   -38642.464    157.63403   -38800.098    11.150824 
   42400    305.19656   -38629.745    183.76606   -38813.512   -108.81121 
   42600    303.86403   -38605.518    182.96371   -38788.482    6268.2138 
   42800    292.91427   -38615.284     176.3706   -38791.654   -6810.7197 
   43000    299.02979   -38626.234     180.0529   -38806.287   -9030.6113 
   43200    285.13646   -38655.369     171.6874   -38827.057    -11125.07 
   43400    282.58184   -38615.272     170.1492   -38785.421    7680.3478 
   43600    305.09371   -38611.895    183.70413   -38795.599     2644.093 
   43800     281.6151   -38640.566    169.56711   -38810.133   -2858.3012 
   44000    315.30401   -38606.848    189.85199     -38796.7    4553.3314 
   44200     295.0709   -38620.417    177.66916   -38798.086    14831.737 
   44400    283.63785    -38643.25    170.78505   -38814.035    10147.048 
   44600    288.37372   -38620.093    173.63663    -38793.73    2931.7011 
   44800    327.26978   -38607.639    197.05687   -38804.696   -3855.5251 
   45000    302.78907   -38633.307    182.31646   -38815.624    -5823.826 
   45200    285.85287   -38619.257    172.11877   -38791.376   -4435.5793 
   45400    323.13537   -38607.346    194.56744   -38801.913   -517.73171 
   45600    288.92873   -38636.492    173.97082   -38810.463    6476.7806 
   45800    302.55557   -38619.347    182.17586   -38801.523   -369.81615 
   46000    298.96857   -38618.862    180.01604   -38798.878   -4886.8965 
   46200    335.85429   -38610.344    202.22581    -38812.57    1665.9086 
   46400    288.97374   -38630.012    173.99792    -38804.01   -13747.981 
   46600    298.79351   -38619.995    179.91063   -38799.905    2194.2403 
   46800    302.62351   -38599.839    182.21676   -38782.056   -11618.626 
   47000    292.80201   -38631.819    176.30301   -38808.122   -2426.3214 
   47200    280.19571   -38625.195    168.71246   -38793.908   -3023.7771 
   47400    315.87485   -38601.575    190.19571   -38791.771   -8786.8279 
   47600    317.07792   -38588.445    190.92011   -38779.366   -4142.4195 
   47800     279.3432   -38628.619    168.19914   -38796.818   -209.13183 
   48000    298.22305   -38615.615    179.56715   -38795.183   -2658.5469 
   48200    321.90415   -38590.779     193.8261   -38784.605    -18337.68 
   48400    309.35874   -38617.785    186.27221   -38804.057   -7371.5502 
   48600     283.2061   -38628.772    170.52509   -38799.297    6290.9783 
   48800    334.63839   -38589.081    201.49368   -38790.575    2536.3259 
   49000    305.12541   -38619.424    183.72322   -38803.147      2259.78 
   49200    295.01805   -38620.999    177.63734   -38798.636      3619.09 
   49400    315.31752   -38589.346    189.86013   -38779.206   -1507.2455 
   49600    301.76672   -38620.176    181.70087   -38801.877     6155.324 
   49800    293.91576   -38630.944    176.97362   -38807.917    -2273.003 
   50000    303.87731   -38600.781    182.97171   -38783.753   -4275.9508 
   50200    297.05416   -38616.801    178.86333   -38795.665    -2874.332 
   50400    313.50799   -38615.745    188.77057   -38804.516    1188.5111 
   50600     302.3479   -38613.714    182.05081   -38795.765   -5513.3669 
   50800    291.88442   -38630.233    175.75051   -38805.984    -5429.602 
   51000    288.82318   -38631.363    173.90726   -38805.271   -10095.287 
   51200    294.62745   -38610.033    177.40215   -38787.436    502.28244 
   51400    280.42351   -38624.442    168.84962   -38793.292   -4232.8739 
   51600     261.9182   -38647.451    157.70714   -38805.158    5480.3229 
   51800     299.3363   -38620.807    180.23746   -38801.044    6934.5954 
   52000    322.07615   -38599.688    193.92966   -38793.617    5915.2915 
   52200    328.09034   -38597.188    197.55095   -38794.739    6665.6297 
   52400    303.41709    -38628.34     182.6946   -38811.035   -3032.6497 
   52600    302.40309     -38606.3    182.08405   -38788.384     9384.175 
   52800    310.33294   -38591.967     186.8588   -38778.826    821.03704 
   53000    295.27403   -38630.812    177.79147   -38808.604    7301.8763 
   53200    311.45928   -38606.602    187.53699   -38794.139    1480.4955 
   53400    320.21117   -38608.012    192.80671   -38800.818   -777.00802 
   53600    295.17433   -38630.432    177.73144   -38808.164   -2046.3516 
   53800    307.70071   -38608.203    185.27387   -38793.477    4723.4023 
   54000    310.30189   -38616.483     186.8401   -38803.323    7277.5723 
   54200    293.05276   -38627.834    176.45399   -38804.288   -6002.1253 
   54400    304.13277   -38594.409    183.12553   -38777.535   -2763.0664 
   54600    283.04601   -38627.015    170.42869   -38797.443    4890.2133 
   54800    282.80954   -38624.484    170.28631    -38794.77    4202.5806 
   55000    337.86467   -38600.845     203.4363   -38804.281   -8246.9165 
   55200    274.83535   -38636.603    165.48486   -38802.088   -508.73883 
   55400    294.59374   -38617.341    177.38185   -38794.723    5227.8268 
   55600    324.35167   -38597.124     195.2998   -38792.423    13516.534 
   55800    293.53791    -38624.41    176.74611   -38801.156      1127.68 
   56000    273.24218   -38638.055    164.52557   -38802.581    6273.1801 
   56200    281.45741   -38627.817    169.47216   -38797.289    15010.238 
   56400    329.95195   -38611.085    198.67186   -38809.757    7214.2477 
   56600    310.44211    -38625.84    186.92453   -38812.764    4492.4066 
   56800    295.50006   -38591.297    177.92757   -38769.224    20332.729 
   57000    314.89043    -38621.13    189.60297   -38810.733    3954.4515 
   57200    282.59167   -38621.088    170.15512   -38791.243    6264.0996 
   57400    307.93047   -38608.696    185.41222   -38794.108    722.61339 
   57600    294.31199   -38622.195    177.21221   -38799.407    8820.6251 
   57800    312.74676    -38615.49    188.31221   -38803.802    1229.0777 
   58000    319.75683   -38601.793    192.53315   -38794.326     312.7302 
   58200    294.31148   -38619.252     177.2119   -38796.464     6900.439 
   58400    278.03746   -38635.417    167.41292    -38802.83   -3024.2448 
   58600    298.90838   -38601.286     179.9798   -38781.265    1992.7861 
   58800    306.31289    -38603.79    184.43823   -38788.228   -1355.8407 
   59000    265.60216   -38633.534    159.92533   -38793.459   -2173.2344 
   59200    319.15167   -38611.133    192.16876   -38803.302   -1860.5595 
   59400    261.05649   -38640.881    157.18828   -38798.069    2907.2719 
   59600    301.07535   -38620.932    181.28458   -38802.217    709.55312 
   59800    298.00987   -38604.478    179.43878   -38783.916    5101.5962 
   60000    300.02768   -38622.469    180.65376   -38803.122   -3384.3447 
   60200     315.6962   -38618.655    190.08814   -38808.743    -11977.55 
   60400    311.33281   -38600.848    187.46084   -38788.309    8906.2284 
   60600    299.72388   -38633.205    180.47083   -38813.676    13107.744 
   60800    292.44907   -38615.915     176.0905   -38792.006    16854.775 
   61000    305.68848   -38606.583    184.06226   -38790.645    9026.0313 
   61200    294.71881   -38630.989    177.45716   -38808.446   -4229.8086 
   61400    300.28187   -38615.091    180.80681   -38795.898    63.086364 
   61600    315.13133       -38601    189.74802   -38790.748    4881.7015 
   61800    326.31911   -38627.505    196.48445    -38823.99    2571.9452 
   62000    295.58996     -38619.4     177.9817   -38797.381   -4184.6056 
   62200    315.27108   -38616.702    189.83217   -38806.534    600.02912 
   62400    280.68955    -38624.73    169.00981    -38793.74   -425.62359 
   62600    279.08597   -38640.223    168.04426   -38808.267    -2643.207 
   62800    320.76624   -38621.522    193.14093   -38814.663   -14818.921 
   63000    276.57496   -38624.163    166.53232   -38790.696   -1688.9803 
   63200    324.07646   -38597.993    195.13409   -38793.127   -1502.0285 
   63400    291.21356   -38630.343    175.34657    -38805.69   -1849.1464 
   63600    288.72633   -38628.265    173.84894   -38802.114    4848.3858 
   63800    317.64977   -38611.305    191.26443   -38802.569    6274.3481 
   64000    305.93411   -38625.276    184.21016   -38809.486   -942.51032 
   64200    277.18689   -38643.819    166.90078    -38810.72    3633.5234 
   64400    338.19413   -38608.709    203.63468   -38812.344    7390.4842 
   64600    297.15926   -38621.049    178.92661   -38799.976   -992.42935 
   64800    280.29121    -38645.84    168.76996    -38814.61    -1450.463 
   65000    291.47253   -38613.945     175.5025   -38789.447   -1678.6125 
   65200    321.48273   -38602.006    193.57235   -38795.578    3603.0166 
   65400    285.42833   -38631.593    171.86314   -38803.456    9597.0548 
   65600    300.13268   -38615.435    180.71698   -38796.152    25635.622 
   65800    318.73006   -38604.035     191.9149    -38795.95    11483.553 
   66000    299.32156   -38622.951    180.22859   -38803.179    5780.0737 
   66200    317.44884   -38608.334    191.14345   -38799.477    -1751.635 
   66400     310.2614   -38599.965    186.81572   -38786.781    6913.8698 
   66600    272.69966   -38625.113    164.19891   -38789.312    13418.536 
   66800    291.83926   -38606.621    175.72332   -38782.344   -1403.4424 
   67000    325.93526   -38596.995    196.25332   -38793.248   -4664.1449 
   67200    284.11808   -38620.218    171.07421   -38791.292   -2430.1918 
   67400    321.97669   -38593.446    193.86977   -38787.316   -3300.5101 
   67600    308.52881    -38602.85    185.77249   -38788.622    13495.093 
   67800    301.29321   -38615.637    181.41576   -38797.053    10320.734 
   68000    316.56725   -38610.948    190.61262   -38801.561    -438.6693 
   68200    269.14114    -38621.42    162.05624   -38783.476    3254.8168 
   68400    300.38118   -38617.947    180.86661   -38798.814    3719.4889 
   68600    358.97142   -38588.014    216.14517   -38804.159    5695.7918 
   68800    290.64734    -38624.44    175.00563   -38799.445    999.89026 
   69000     307.2194   -38610.295    184.98406   -38795.279   -6152.6256 
   69200    296.50436   -38597.075    178.53228   -38775.607   -5993.2624 
   69400    288.92656   -38628.027    173.96951   -38801.996    7862.6165 
   69600    322.01145   -38601.679     193.8907    -38795.57   -6066.9477 
   69800    303.95969   -38590.321    183.02131   -38773.342    247.72176 
   70000    301.07462   -38627.146    181.28414    -38808.43   -4797.3486 
   70200    332.08831   -38604.464    199.95822   -38804.423   -214.05931 
   70400    294.13956   -38616.405    177.10838   -38793.514     7415.222 
   70600    281.62904   -38636.373     169.5755   -38805.949    6383.1768 
   70800    308.88379   -38606.715    185.98623   -38792.701   -6950.1771 
   71000     324.7375   -38573.622    195.53212   -38769.154   -5402.4256 
   71200     316.4581   -38600.014     190.5469   -38790.561    38.354259 
   71400    273.63212   -38629.169    164.76037    -38793.93   -3804.0485 
   71600    304.99073   -38611.545    183.64213   -38795.187   -58.394581 
   71800    318.76289   -38603.635    191.93467    -38795.57    4404.9879 
   72000    274.25682   -38641.938    165.13651   -38807.074   -2828.4991 
   72200     281.6949   -38618.405    169.61516    -38788.02   -418.92779 
   72400    303.22754   -38609.976    182.58047   -38792.557   -9690.5962 
   72600    270.52505   -38651.667    162.88952   -38814.556   -3700.4704 
   72800    305.76885   -38613.172    184.11065   -38797.283    6448.7618 
   73000    300.96614   -38616.188    181.21882   -38797.407    3208.4109 
   73200    272.53615   -38630.726    164.10046   -38794.826    2932.0679 
   73400    289.34579   -38626.228    174.22194    -38800.45   -5943.1136 
   73600    296.25836   -38603.182    178.38416   -38781.566    6358.6501 
   73800      273.064   -38637.525    164.41829   -38801.943   -4752.4487 
   74000    297.33628   -38633.338     179.0332   -38812.371   -4721.2113 
   74200    295.17141   -38613.616    177.72968   -38791.345    1620.0395 
   74400    339.80708   -38580.026    204.60588   -38784.632   -591.21728 
   74600    314.07347   -38619.576    189.11106   -38808.687   -605.41059 
   74800    295.28767   -38623.841    177.79969   -38801.641    17090.393 
   75000    331.99067   -38593.939    199.89943   -38793.839    12810.927 
   75200    280.81467   -38633.912    169.08515   -38802.998    8670.3208 
   75400    290.62567   -38622.106    174.99258   -38797.099    14937.138 
   75600    322.71138   -38609.259    194.31215   -38803.572    4722.6605 
   75800    282.40444   -38621.451    170.04239   -38791.493    1855.2157 
   76000    291.13702   -38625.504    175.30048   -38800.805   -3054.7955 
   76200    329.75169   -38598.365    198.55128   -38796.916    649.11049 
   76400    335.97579   -38604.388    202.29896   -38806.687    2203.2594 
   76600    294.56869   -38632.459    177.36677   -38809.826   -3294.3358 
   76800    284.50247   -38612.808    171.30566   -38784.114   -5261.6517 
   77000    342.28522   -38599.408    206.09802   -38805.506    3158.3397 
   77200    315.48849    -38618.88    189.96308   -38808.843   -1178.8869 
   77400      311.672   -38624.117    187.66508   -38811.782   -6674.0905 
   77600    326.41816    -38591.46    196.54409   -38788.005   -233.88351 
   77800     270.4334   -38627.295    162.83434   -38790.129   -3904.5714 
   78000    300.13806   -38618.284    180.72022   -38799.004   -1794.0932 
   78200    274.84292   -38634.821    165.48942    -38800.31    4408.6243 
   78400    302.90908   -38619.469    182.38871   -38801.858   -577.40951 
   78600    319.74764   -38600.276    192.52761   -38792.803    958.05422 
   78800    293.56262   -38635.423    176.76099   -38812.184    8124.6951 
   79000     310.2165   -38615.429    186.78868   -38802.217    12827.988 
   79200    304.48227    -38606.35    183.33597   -38789.686    7442.7644 
   79400    286.16501    -38626.06    172.30671   -38798.367    9938.1798 
   79600    294.49664   -38616.016    177.32339   -38793.339    5570.1409 
   79800    338.84244   -38586.024    204.02504   -38790.049    10096.862 
   80000    300.25064   -38622.701    180.78801   -38803.489    10748.424 
   80200    298.35175   -38610.882    179.64464   -38790.527    9926.4618 
   80400    309.69987   -38604.422    186.47761   -38790.899    4063.1785 
   80600     293.8726   -38634.427    176.94764   -38811.375   -1728.6419 
   80800    324.29677   -38607.596    195.26675   -38802.863    213.00707 
   81000    312.25225   -38601.919    188.01446   -38789.933   -1238.3048 
   81200    300.94732   -38626.204    181.20749   -38807.412   -4031.5424 
   81400    270.97441   -38662.416     163.1601   -38825.576   -5157.6718 
   81600    297.78992    -38617.73    179.30635   -38797.036     7124.087 
   81800    294.27442   -38606.069    177.18958   -38783.259    4650.0715 
   82000    304.52573   -38628.488    183.36214    -38811.85    6799.6225 
   82200    295.73731   -38607.689    178.07042    -38785.76   -6906.0426 
   82400     295.1732   -38608.675    177.73076   -38786.406   -7411.3757 
   82600    295.37323   -38622.444     177.8512   -38800.295   -2865.9589 
   82800    322.86228   -38583.434    194.40301   -38777.837    2200.5737 
   83000    283.69552   -38611.516    170.81978   -38782.336   -5894.4926 
   83200    308.97542   -38620.353     186.0414   -38806.394   -11015.369 
   83400    313.02703   -38628.026    188.48097   -38816.507   -8068.8482 
   83600    317.51864   -38594.396    191.18548   -38785.581   -303.95929 
   83800    296.99862   -38626.602    178.82989   -38805.432    12705.812 
   84000    302.20101   -38619.547    181.96237    -38801.51    3176.8624 
   84200    308.00445   -38607.374    185.45676   -38792.831    4615.8186 
   84400     305.7844   -38609.169    184.12001   -38793.289    7432.6123 
   84600    305.40859     -38601.8    183.89373   -38785.694    7906.5656 
   84800    279.84604   -38626.258    168.50192    -38794.76    8593.7252 
   85000    315.97878   -38609.139    190.25829   -38799.398   -3309.2017 
   85200    333.52072   -38598.069    200.82071    -38798.89   -5049.6923 
   85400    299.98523   -38618.869     180.6282   -38799.498    5113.1698 
   85600    321.18145   -38596.706    193.39094   -38790.097    15532.899 
   85800     323.7139   -38603.531    194.91579   -38798.447    1324.7325 
   86000    282.44997   -38622.202     170.0698   -38792.271   -8283.7179 
   86200    278.51045   -38606.508    167.69772   -38774.205    10117.952 
   86400    289.01812   -38601.911    174.02464   -38775.936    17323.871 
   86600    283.51207   -38625.013    170.70932   -38795.723    720.15127 
   86800    315.83483   -38596.851    190.17161   -38787.022   -675.25972 
   87000    309.78226   -38607.332    186.52722   -38793.859    1410.5664 
   87200    297.02503   -38616.342    178.84579   -38795.188   -639.47784 
   87400    287.12102   -38617.698    172.88235   -38790.581   -3047.3213 
   87600    278.73455   -38647.548    167.83266   -38815.381   -6562.4487 
   87800    302.88185    -38610.86    182.37232   -38793.232    2383.2197 
   88000    271.43608    -38610.88    163.43808   -38774.318    -7357.472 
   88200    260.70013   -38638.696    156.97371    -38795.67   -8370.8393 
   88400    298.00941   -38604.533    179.43851   -38783.972   -9676.8375 
   88600    310.29915   -38612.127    186.83845   -38798.966    9273.5363 
   88800    292.88258   -38633.072    176.35152   -38809.424   -2559.4529 
   89000    285.21068   -38601.958    171.73209    -38773.69   -8698.0744 
   89200    287.95456   -38607.261    173.38424   -38780.645   -7387.5723 
   89400    303.68025   -38621.476    182.85306    -38804.33    1382.6584 
   89600    315.10783   -38602.493    189.73387   -38792.226    7067.7641 
   89800    282.36495    -38611.77    170.01861   -38781.788   -6328.8164 
   90000    308.70607   -38627.885    185.87922   -38813.764    3790.2834 
   90200    327.14321   -38602.861    196.98066   -38799.842    12062.451 
   90400    320.20531   -38603.015    192.80319   -38795.818    3987.9878 
   90600    294.00791   -38624.487    177.02911   -38801.516   -3030.6658 
   90800    274.29724   -38649.128    165.16085   -38814.289    2580.8492 
   91000    302.52439    -38612.61    182.15708   -38794.767   -7983.0123 
   91200    323.75526   -38601.501    194.94069   -38796.442   -7591.4657 
   91400    283.92317   -38629.519    170.95685   -38800.476   -970.09891 
   91600    304.16846   -38605.956    183.14702   -38789.103    -1178.379 
   91800    296.36364   -38617.686    178.44755   -38796.134    1588.9101 
   92000    270.89122   -38623.939    163.11001   -38787.049   -10675.119 
   92200    336.18597   -38587.643    202.42552   -38790.069   -7299.9889 
   92400    276.69487    -38620.03    166.60452   -38786.635   -4802.3957 
   92600    297.25254   -38620.119    178.98278   -38799.101    2754.9369 
   92800    309.14047     -38603.1    186.14078   -38789.241    4085.5802 
   93000    304.69044   -38618.359    183.46132    -38801.82    -3830.042 
   93200    292.70716   -38607.718     176.2459   -38783.964   -1922.6012 
   93400    265.46943   -38619.125    159.84542    -38778.97   -1374.0185 
   93600    269.79659   -38646.267     162.4509   -38808.718   -3421.0178 
   93800    289.65659   -38610.083    174.40908   -38784.492   -3192.4385 
   94000    312.25698   -38610.817    188.01731   -38798.834   -639.96969 
   94200    273.00676   -38631.507    164.38382   -38795.891   -9586.5082 
   94400    309.85436   -38609.299    186.57063    -38795.87   -19601.043 
   94600    300.52226   -38610.524    180.95155   -38791.475    -3948.689 
   94800    269.08092   -38636.003    162.01998   -38798.023    2913.0839 
   95000    292.79867   -38620.225      176.301   -38796.526   -5997.3935 
   95200    309.31311   -38599.432    186.24473   -38785.677    -16069.11 
   95400    289.22918   -38630.409    174.15172   -38804.561   -994.30733 
   95600     289.2271   -38627.811    174.15047   -38801.961   -3529.7478 
   95800     294.6603   -38611.914    177.42193   -38789.336   -1328.2161 
   96000    312.31162   -38602.739    188.05021   -38790.789   -6750.4242 
   96200     299.4421   -38612.799    180.30117     -38793.1   -5577.7949 
   96400    298.52416   -38626.659    179.74845   -38806.407   -690.81673 
   96600    311.89939   -38608.505    187.80199   -38796.307    4678.4615 
   96800    297.69749   -38595.722    179.25069   -38774.972   -1771.5918 
   97000    268.51051   -38633.689    161.67652   -38795.366    2547.5902 
   97200    290.32633    -38611.66    174.81234   -38786.473    4367.5639 
   97400    321.09767   -38605.135     193.3405   -38798.475    12139.214 
   97600    290.84144   -38606.963     175.1225   -38782.086    9446.4549 
   97800    283.12236    -38635.36    170.47466   -38805.835   -2015.0925 
   98000    278.28339   -38624.522    167.56101   -38792.083    6580.8683 
   98200    323.78307   -38601.986    194.95743   -38796.943   -98.089228 
   98400    287.09732   -38627.204    172.86808   -38800.072   -8674.3491 
   98600    264.66453   -38642.265    159.36077   -38801.626    -8597.871 
   98800    297.55723   -38613.986    179.16624   -38793.152   -6444.1932 
   99000    326.30341   -38599.351      196.475   -38795.826   -6189.1876 
   99200    303.67605   -38632.081    182.85053   -38814.931   -54.711688 
   99400    299.98989   -38620.619      180.631    -38801.25    7487.7427 
   99600    331.25323    -38607.49     199.4554   -38806.945    6667.5193 
   99800    300.49912   -38621.404    180.93762   -38802.341   -127.19429 
  100000    284.99323   -38635.783    171.60116   -38807.384   -555.43564 
  100200     289.9965   -38604.717    174.61375   -38779.331   -4219.4621 
  100400    270.27265   -38620.755    162.73755   -38783.493    -2474.632 
  100600    282.32267   -38652.575    169.99315   -38822.568    1324.9866 
  100800    300.42136   -38610.426     180.8908   -38791.317   -2429.8343 
  101000    287.50479   -38613.063    173.11343   -38786.176   -225.32091 
  101200    310.77375   -38594.774    187.12422   -38781.898   -3394.5395 
  101400    276.42128   -38631.907    166.43978   -38798.347    -5494.057 
  101600    314.05433   -38608.718    189.09953   -38797.818   -1197.6698 
  101800    299.88656   -38604.609    180.56878   -38785.178    10739.962 
  102000    320.72362   -38608.946    193.11527   -38802.061    4899.3781 
  102200    280.97598   -38634.936    169.18228   -38804.119    -4192.832 
  102400    325.84672   -38623.775    196.20001   -38819.975    1000.0933 
  102600    313.03017   -38605.521    188.48286   -38794.004    6923.3048 
  102800    312.93547   -38610.797    188.42584   -38799.222    4000.8615 
  103000    277.56605   -38637.292    167.12908   -38804.421   -3016.3176 
  103200    279.03594   -38606.753    168.01413   -38774.767   -969.83795 
  103400    295.57321   -38613.056    177.97161   -38791.027    4855.9909 
  103600    298.35764   -38640.866    179.64819   -38820.514    10065.871 
  103800    281.14393   -38619.311     169.2834   -38788.594    13169.171 
  104000    289.73712   -38616.311    174.45756   -38790.768    7439.4882 
  104200    322.67223   -38586.716    194.28857   -38781.005    3792.7966 
  104400    307.39489   -38625.379    185.08973   -38810.468   -1011.3577 
  104600    297.42413   -38618.888     179.0861   -38797.974     4060.456 
  104800    314.29524   -38600.102    189.24459   -38789.346    257.26849 
  105000    283.22253   -38632.638    170.53498   -38803.173    1645.6187 
  105200    289.54939   -38630.451    174.34453   -38804.796    7270.3048 
  105400    317.44227   -38598.583    191.13949   -38789.723     7473.049 
  105600    310.42616   -38622.333    186.91493   -38809.248     9924.358 
  105800    275.54161   -38641.252    165.91011   -38807.162    6289.1376 
  106000     272.7185   -38656.219    164.21025   -38820.429   -10703.465 
  106200    283.51335   -38617.454    170.71009   -38788.164   -14930.611 
  106400    300.00316   -38610.879    180.63899   -38791.518   -1529.6603 
  106600    273.26671   -38645.382    164.54034   -38809.922   -2256.0855 
  106800    301.80496   -38625.593     181.7239   -38807.317     3871.685 
  107000    316.74147   -38611.037    190.71752   -38801.755   -901.47447 
  107200    290.14886    -38608.36    174.70548   -38783.065   -1156.3289 
  107400    310.91666    -38623.52    187.21027    -38810.73    5782.6279 
  107600    279.27524   -38620.765    168.15822   -38788.924    5505.6144 
  107800     329.6109   -38599.888    198.46651   -38798.354   -5695.9302 
  108000    298.47757   -38617.921     179.7204   -38797.641    -2556.464 
  108200     285.3292   -38651.384    171.80345   -38823.187    362.09674 
  108400    297.79964   -38618.139     179.3122   -38797.451   -2618.3701 
  108600    306.41836   -38608.896    184.50173   -38793.398    9894.5423 
  108800    266.14248   -38639.912    160.25067   -38800.163    4130.4135 
  109000    308.17806   -38611.411    185.56129   -38796.973   -5878.7595 
  109200     295.9316     -38612.5    178.18741   -38790.687   -2078.0911 
  109400    292.28271   -38624.586    175.99033   -38800.577    11022.915 
  109600    306.68738   -38626.931    184.66372   -38811.595    15211.869 
  109800     324.2932   -38599.836     195.2646     -38795.1    2536.2033 
  110000    288.38771   -38634.929    173.64505   -38808.574    -2092.975 
  110200    284.28323   -38627.998    171.17365   -38799.171    5947.7816 
  110400    297.42661   -38605.828    179.08759   -38784.915     6578.979 
  110600    279.47794   -38638.926    168.28027   -38807.207   -5177.3109 
  110800    281.54236   -38622.239    169.52331   -38791.762   -8617.2709 
  111000    298.19284   -38613.506    179.54895   -38793.055   -1122.1188 
  111200    301.58253   -38633.171    181.58997   -38814.761    2555.1253 
  111400    281.73066   -38641.773    169.63669    -38811.41    5253.7588 
  111600     312.9611   -38611.864    188.44128   -38800.305   -7657.5676 
  111800    290.79899   -38628.541    175.09695   -38803.638   -4866.8964 
  112000    265.25596   -38638.182    159.71688   -38797.898   -13512.141 
  112200    308.07424   -38604.159    185.49878   -38789.658   -5054.0846 
  112400    302.18637   -38624.537    181.95355    -38806.49   -1516.4839 
  112600    279.47667   -38646.197     168.2795   -38814.476    -3595.543 
  112800    301.93651   -38612.045    181.80311   -38793.848   -5579.0133 
  113000     307.4583   -38611.833    185.12791   -38796.961   -11438.519 
  113200    270.04877   -38642.369    162.60275   -38804.972   -1954.6789 
  113400    292.25047   -38610.805    175.97091   -38786.776    5350.2849 
  113600    302.24278   -38603.613    181.98752   -38785.601   -4636.1728 
  113800    304.43231   -38635.512    183.30589   -38818.818   -12870.008 
  114000    315.34509   -38615.351    189.87673   -38805.228    -15306.37 
  114200     300.0252   -38608.599    180.65226   -38789.251   -9366.1822 
  114400    284.70256   -38631.937    171.42614   -38803.363   -4155.4523 
  114600    317.10382   -38602.822    190.93571   -38793.758   -5931.7166 
  114800    332.79667   -38597.064    200.38474   -38797.449   -7189.8824 
  115000    303.72226   -38623.227    182.87835   -38806.105    81.283196 
  115200    305.27654   -38609.762    183.81422   -38793.576    5927.4857 
  115400    267.48889   -38627.102    161.06138   -38788.164    2482.6485 
  115600    305.76239   -38625.365    184.10676   -38809.472   -4457.8389 
  115800    304.19454   -38593.989    183.16272   -38777.152    3265.0781 
  116000    275.53285   -38626.332    165.90484   -38792.237    12564.168 
  116200    303.76037   -38624.852     182.9013   -38807.753     5178.243 
  116400    334.11796   -38594.653    201.18032   -38795.833   -1173.7799 
  116600    300.25026   -38629.817    180.78778   -38810.605   -4298.4971 
  116800    282.38072   -38629.697     170.0281   -38799.725    291.45455 
  117000    332.21632   -38605.882    200.03529   -38805.918    732.43218 
  117200    316.88759   -38612.361    190.80551   -38803.167   -7088.1475 
  117400    274.05658   -38638.734    165.01594    -38803.75   -12345.597 
  117600    293.62004   -38631.627    176.79557   -38808.423   -1726.1546 
  117800    287.80835   -38604.849    173.29621   -38778.145    1586.0162 
  118000    283.94144   -38624.995    170.96785   -38795.963    3268.6545 
  118200    291.82561   -38637.786     175.7151   -38813.501    4099.0359 
  118400    286.42964   -38616.328    172.46605   -38788.794     1356.401 
  118600    298.76203   -38610.012    179.89168   -38789.904    7364.1924 
  118800    292.18518    -38614.35     175.9316   -38790.282    393.75081 
  119000    282.04251   -38629.553    169.82446   -38799.377    3047.9286 
  119200    326.24899   -38600.634    196.44223   -38797.076    6295.3387 
  119400    313.11481   -38611.916    188.53382    -38800.45    2239.7277 
  119600    277.32878   -38626.765    166.98621   -38793.752   -7610.3989 
  119800    331.76976   -38581.925    199.76641   -38781.692   -3367.9881 
  120000    335.58946   -38608.364    202.06634    -38810.43    5804.0481 
  120200    276.64834   -38626.486     166.5765   -38793.062    114.20713 
  120400    297.46527   -38611.128    179.11087   -38790.239   -2345.8082 
  120600     284.7944   -38642.588    171.48144   -38814.069    2733.8414 
  120800    297.29191   -38613.963    179.00649   -38792.969    10542.527 
  121000    283.91354   -38609.692    170.95105   -38780.643   -1828.4236 
  121200    296.89292   -38615.344    178.76624   -38794.111   -14447.398 
  121400    267.50095   -38640.964    161.06865   -38802.033   -6191.9925 
  121600    299.62647   -38608.372    180.41218   -38788.784   -1605.7059 
  121800    308.21078   -38621.698    185.58099   -38807.279   -4249.9956 
  122000     291.2858    -38646.66    175.39006    -38822.05    4758.0465 
  122200    317.05498    -38619.75     190.9063   -38810.656    4355.1609 
  122400    296.18707   -38615.878    178.34123   -38794.219    9515.7769 
  122600    298.24448    -38614.89    179.58005    -38794.47     12515.05 
  122800    295.34307   -38620.476    177.83304   -38798.309    8420.0065 
  123000    282.40421   -38636.113    170.04225   -38806.155    2437.0105 
  123200    299.75602   -38604.226    180.49018   -38784.716   -4679.4613 
  123400    303.22738   -38628.032    182.58037   -38810.612    181.73213 
  123600    302.84412   -38628.007     182.3496   -38810.357    12072.474 
  123800    295.51651   -38602.945    177.93747   -38780.882     17030.33 
  124000    284.69906   -38627.643    171.42403   -38799.067    7129.6071 
  124200    281.17736   -38656.304    169.30353   -38825.608    9887.4222 
  124400    294.84454   -38624.542    177.53286   -38802.075    9190.7244 
  124600    323.47191   -38603.339    194.77008   -38798.109     1058.934 
  124800    272.75409   -38635.067    164.23169   -38799.299   -186.76263 
  125000    299.41827     -38622.9    180.28681   -38803.187    563.76839 
  125200    289.28369   -38605.644    174.18455   -38779.829   -2169.6546 
  125400    299.55111   -38619.903     180.3668    -38800.27   -5028.1477 
  125600    281.87352   -38639.446    169.72271   -38809.168    2336.9436 
  125800    298.37107   -38599.272    179.65627   -38778.928   -5647.0556 
  126000    301.82071   -38621.271    181.73338   -38803.004   -4859.2186 
  126200    299.51264   -38623.263    180.34364   -38803.606   -4212.0519 
  126400    284.02839   -38609.187    171.02021   -38780.207    1059.4847 
  126600    333.40981    -38596.05    200.75393   -38796.804   -9114.8164 
  126800    313.16619     -38624.8    188.56476   -38813.365   -2750.1248 
  127000     283.9989   -38608.024    171.00245   -38779.026    5603.7896 
  127200    315.11379   -38596.723    189.73746   -38786.461   -1150.3645 
  127400     297.3944   -38629.817     179.0682   -38808.885    1455.8978 
  127600    306.60357   -38604.902    184.61325   -38789.515   -6844.5817 
  127800    311.39082   -38623.908    187.49577   -38811.403     4948.995 
  128000      298.261   -38627.218       179.59   -38806.808    45.081064 
  128200    312.16353   -38602.535    187.96104   -38790.496     7743.166 
  128400    321.25196   -38597.083     193.4334   -38790.516    7313.7401 
  128600    284.92178   -38621.768    171.55813   -38793.326   -11272.022 
  128800    298.37394   -38630.689      179.658   -38810.347   -2686.6032 
  129000    317.80623   -38600.702    191.35864    -38792.06    236.00681 
  129200    305.81833   -38617.634    184.14044   -38801.775    3108.9985 
  129400    290.91822   -38646.313    175.16873   -38821.482    5709.5985 
  129600    286.07564   -38650.862     172.2529   -38823.115   -3073.6575 
  129800    298.93106   -38610.463    179.99346   -38790.457    3596.2137 
  130000    294.74164   -38626.724    177.47091   -38804.194   -233.86088 
  130200    278.46554   -38635.171    167.67068   -38802.842   -4018.4686 
  130400    324.96593   -38598.729    195.66967   -38794.399   -7084.7188 
  130600    291.80756   -38621.847    175.70423   -38797.551   -2393.2434 
  130800    282.98353   -38635.133    170.39107   -38805.524   -1637.6008 
  131000    312.20382   -38620.774    187.98529   -38808.759   -2030.3624 
  131200    308.17991   -38608.963     185.5624   -38794.525    10938.859 
  131400    311.79854   -38597.324    187.74127   -38785.065    12152.948 
  131600    303.02215   -38625.661     182.4568   -38808.118    12755.562 
  131800    289.28953   -38615.521    174.18806   -38789.709    2802.7455 
  132000    312.13279   -38583.983    187.94253   -38771.925     7748.674 
  132200    305.22733   -38610.371    183.78459   -38794.156    2495.6832 
  132400    293.69747   -38628.795    176.84219   -38805.638    3095.7097 
  132600    311.73414    -38619.79    187.70249   -38807.493    2331.7663 
  132800    286.41416   -38594.825    172.45673   -38767.281    6993.5998 
  133000     299.2598   -38635.124     180.1914   -38815.315   -2160.0706 
  133200    301.74972   -38620.483    181.69064   -38802.174   -5875.0467 
  133400    315.70158   -38599.428    190.09138    -38789.52    3048.1876 
  133600    291.37587    -38619.83     175.4443   -38795.275    8980.6672 
  133800    300.14759   -38625.123    180.72596   -38805.849   -2665.6875 
  134000     272.3845   -38648.637    164.00914   -38812.646   -10480.922 
  134200    313.83595   -38617.554    188.96804   -38806.522   -1136.5645 
  134400    318.99343   -38607.593    192.07348   -38799.666   -32.066909 
  134600     300.1349   -38637.748    180.71832   -38818.467   -801.21673 
  134800    286.31143   -38626.756    172.39488   -38799.151   -4427.9541 
  135000    331.96552   -38616.627    199.88429   -38816.511   -5914.7837 
  135200    309.94051   -38621.091    186.62251   -38807.713   -4245.4413 
  135400    311.23192   -38597.502     187.4001   -38784.902    1558.5103 
  135600     296.1112   -38630.824    178.29555    -38809.12    1620.8034 
  135800    306.86279   -38610.893    184.76934   -38795.662    1299.5197 
  136000    324.18731    -38600.34    195.20084   -38795.541    5256.9802 
  136200    307.61238   -38619.252    185.22069   -38804.472    1867.7207 
  136400    320.17271   -38625.479    192.78355   -38818.263   -4825.0162 
  136600    327.29789   -38589.343     197.0738   -38786.417   -7454.3831 
  136800    312.19265   -38611.824    187.97857   -38799.803    -5859.274 
  137000    293.15834   -38625.409    176.51757   -38801.926   -3996.7064 
  137200    303.58113   -38624.245    182.79337   -38807.039    4280.8071 
  137400    283.83396   -38609.024    170.90313   -38779.927    7406.9423 
  137600    270.15989   -38639.053    162.66965   -38801.722    6265.2817 
  137800    300.30039   -38603.869    180.81796   -38784.687     9818.912 
  138000    287.03285   -38610.314    172.82926   -38783.144    10974.542 
  138200    291.07208   -38623.691    175.26137   -38798.952     8611.952 
  138400    327.66595    -38605.69    197.29541   -38802.986    13352.358 
  138600    287.02786   -38634.025    172.82626   -38806.851    14971.048 
  138800    297.01801   -38619.573    178.84156   -38798.414    6882.0829 
  139000    305.88226   -38614.394    184.17894   -38798.573    -8302.101 
  139200    302.81339   -38632.722     182.3311   -38815.053    3375.9817 
  139400    309.54528   -38603.089    186.38453   -38789.474    3935.8602 
  139600    309.22221   -38620.829       186.19   -38807.019     5259.174 
  139800    301.93719   -38630.472    181.80352   -38812.275   -2075.2546 
  140000    324.96794   -38608.943    195.67087   -38804.614   -5132.9506 
  140200    324.53688   -38614.243    195.41132   -38809.654    3389.8847 
  140400    290.95397   -38617.746    175.19026   -38792.936   -6481.8963 
  140600     307.1018   -38614.238    184.91325   -38799.151   -12599.085 
  140800    285.62634    -38636.35    171.98237   -38808.333   -10942.731 
  141000    311.27822   -38605.805    187.42797   -38793.233    2685.5314 
  141200    297.25483    -38607.53    178.98416   -38786.514   -1781.2282 
  141400    286.92901   -38639.911    172.76674   -38812.678   -10794.617 
  141600    292.92318   -38613.851    176.37597   -38790.227   -1144.3229 
  141800    287.15716   -38629.527    172.90411   -38802.431    1903.8723 
  142000    293.36665    -38642.76    176.64299   -38819.403   -2960.9124 
  142200    299.63082    -38620.93     180.4148   -38801.345    3882.0094 
  142400     311.8046   -38604.067    187.74492   -38791.812   -1186.5561 
  142600    333.59154   -38599.142    200.86335   -38800.005     6058.896 
  142800    275.73476   -38631.439    166.02641   -38797.465    2499.1007 
  143000    314.51624   -38604.013    189.37766    -38793.39    2469.9706 
  143200    320.49202   -38608.438    192.97582   -38801.414    3859.6728 
  143400    279.78007   -38625.204    168.46219   -38793.667    2908.2692 
  143600    298.25565   -38606.318    179.58678   -38785.905   -7666.9222 
  143800    309.02598    -38619.51    186.07184   -38805.582    8024.2927 
  144000    310.14258   -38626.947    186.74417   -38813.691   -2018.6725 
  144200     309.4184   -38613.428    186.30813   -38799.736   -9883.9544 
  144400    329.14217   -38585.334    198.18428   -38783.519   -16259.489 
  144600    298.20976   -38617.764    179.55914   -38797.323    -4893.884 
  144800    298.10275   -38623.859    179.49471   -38803.354    10741.303 
  145000    277.94019   -38625.484    167.35436   -38792.839   -2957.1066 
  145200    308.11221   -38603.024    185.52164   -38788.546   -8792.1279 
  145400    292.85976   -38640.766    176.33778   -38817.103   -2158.4437 
  145600      296.574   -38623.995    178.57421    -38802.57    2502.5326 
  145800    309.71685   -38613.784    186.48783   -38800.272   -2801.2661 
  146000    317.57759   -38588.039    191.22097    -38779.26   -283.03839 
  146200    295.45885   -38619.015    177.90276   -38796.918   -6154.4686 
  146400     287.1627   -38633.649    172.90745   -38806.556   -3235.7328 
  146600    315.33145   -38595.478    189.86852   -38785.346   -6099.4276 
  146800    300.82102   -38613.069    181.13144     -38794.2     5867.014 
  147000    282.17891   -38637.064    169.90659   -38806.971   -2244.2351 
  147200    299.33164   -38616.929    180.23466   -38797.164   -1085.3085 
  147400    312.32141    -38614.45     188.0561   -38802.506      9464.73 
  147600    287.64899    -38630.31    173.20026   -38803.511    3528.5065 
  147800    302.22128   -38628.519    181.97458   -38810.493    3409.9165 
  148000    307.06085   -38604.633    184.88859   -38789.522   -5249.1721 
  148200    312.91923   -38620.445    188.41606   -38808.861   -5018.5266 
  148400    296.62263   -38653.997    178.60349     -38832.6   -1311.0754 
  148600    284.35186   -38618.318    171.21497   -38789.533    853.15314 
  148800    297.77275   -38608.687    179.29601   -38787.983   -4105.6914 
  149000     287.4992   -38644.461    173.11006   -38817.571   -7632.6393 
  149200    314.03423   -38618.161    189.08743   -38807.248   -1629.4253 
  149400    295.13767   -38615.659    177.70937   -38793.369   -3243.0298 
  149600    288.63119   -38636.014    173.79166   -38809.805   -6536.5023 
  149800    286.88428   -38636.326     172.7398   -38809.066   -4405.8309 
  150000    296.81555     -38611.7    178.71966   -38790.419    9142.0719 
  150200     284.6539   -38630.426    171.39684   -38801.823     3147.357 
  150400    339.94255   -38592.307    204.68744   -38796.995   -5749.6628 
  150600    296.85311   -38618.787    178.74227   -38797.529   -8239.1647 
  150800    306.48321   -38623.429    184.54078    -38807.97    -3185.511 
  151000    305.61018   -38598.325    184.01511    -38782.34   -640.49499 
  151200    308.98294   -38608.845    186.04593   -38794.891    235.25311 
  151400    284.33106   -38624.108    171.20245   -38795.311   -3820.3653 
  151600    326.22369   -38602.251    196.42699   -38798.678   -2528.8821 
  151800    292.37593   -38630.962    176.04646   -38807.009    6221.0201 
  152000    296.57912   -38634.102     178.5773   -38812.679     4550.858 
  152200    294.87997   -38607.003     177.5542   -38784.557   -3575.4187 
  152400     294.7615   -38618.674    177.48286   -38796.156    1550.0818 
  152600    291.44421   -38643.632    175.48545   -38819.118    14340.954 
  152800    318.41381   -38616.668    191.72448   -38808.392    13959.756 
  153000     280.2772   -38610.673    168.76152   -38779.434    10409.863 
  153200    310.84584   -38611.236    187.16762   -38798.403    6868.4054 
  153400    298.93334   -38634.083    179.99483   -38814.078    -1032.438 
  153600    296.07332   -38612.205    178.27274   -38790.478    7737.9087 
  153800    305.45931   -38608.475    183.92427     -38792.4    588.13325 
  154000    268.20987   -38644.782     161.4955   -38806.278   -5321.4719 
  154200    273.58013   -38635.497    164.72906   -38800.226   -9467.8295 
  154400    297.42059   -38616.642    179.08397   -38795.726   -6694.4034 
  154600    349.83048   -38585.786     210.6412   -38796.427    -7258.632 
  154800    306.23697   -38624.082    184.39252   -38808.474    2168.6672 
  155000     323.0537    -38610.43    194.51827   -38804.949   -46.260951 
  155200    308.35407    -38616.76    185.66727   -38802.427    8119.7972 
  155400    288.77516   -38636.199    173.87835   -38810.078   -5016.8809 
  155600    284.19813   -38616.801    171.12241   -38787.924   -684.29181 
  155800    301.22952   -38614.389    181.37741   -38795.766   -1602.6466 
  156000    297.89265   -38630.747    179.36821   -38810.115   -10429.551 
  156200    280.16436    -38639.58    168.69358   -38808.274   -1881.0686 
  156400    282.86309   -38620.058    170.31855   -38790.376   -2116.5489 
  156600    304.80431   -38614.036    183.52988   -38797.565   -1078.5295 
  156800    312.22554   -38594.986    187.99838   -38782.985    1191.5008 
  157000    305.74524   -38627.207    184.09643   -38811.304   -8329.8897 
  157200    304.12382   -38611.292    183.12014   -38794.412   -680.33367 
  157400     308.1868   -38600.958    185.56656   -38786.524    5908.4201 
  157600    299.22095   -38631.429      180.168   -38811.597   -6658.9275 
  157800     319.2085   -38608.422    192.20298   -38800.625   -12696.664 
  158000    319.05225   -38609.263     192.1089   -38801.372    -4785.651 
  158200    289.34563   -38637.894    174.22184   -38812.116     9149.152 
  158400    338.80391   -38602.941    204.00184   -38806.943    3291.1676 
  158600    317.92589   -38608.331    191.43069   -38799.761     12602.34 
  158800    298.74983   -38634.525    179.88433   -38814.409    7844.8092 
  159000    311.28149   -38619.799    187.42994   -38807.229     4871.212 
  159200     315.6965   -38616.622    190.08832    -38806.71    -2456.961 
  159400    301.91451    -38626.09    181.78986    -38807.88    3964.2945 
  159600    292.72241   -38638.776    176.25508   -38815.031   -2399.1848 
  159800    303.65955   -38604.533    182.84059   -38787.374   -3375.3088 
  160000    304.75433   -38622.428    183.49979   -38805.928   -2419.7554 
  160200    286.50178   -38627.705    172.50949   -38800.215    7982.8011 
  160400    308.09766   -38621.399    185.51288   -38806.912   -4029.5698 
  160600    327.29664    -38586.85    197.07304   -38783.923   -6056.6184 
  160800    308.89586   -38618.676    185.99349    -38804.67    3941.3784 
  161000    273.87624   -38617.817    164.90735   -38782.725    5206.5704 
  161200     328.4492   -38590.295    197.76702   -38788.062   -6813.0769 
  161400    288.50994   -38620.034    173.71865   -38793.753   -1056.2453 
  161600    280.18854   -38634.141    168.70814   -38802.849    8642.4581 
  161800    321.00322   -38603.124    193.28363   -38796.408    4349.2164 
  162000    335.65818   -38614.093    202.10772   -38816.201   -18323.623 
  162200    286.47582   -38636.295    172.49386   -38808.789    -9701.933 
  162400    311.87364   -38620.894    187.78649   -38808.681    8841.2687 
  162600    300.29592   -38605.114    180.81527   -38785.929    6541.7724 
  162800    295.04873   -38624.808    177.65581   -38802.463   -11251.754 
  163000    296.82205   -38627.206    178.72357   -38805.929   -1675.5426 
  163200     290.5227   -38605.677    174.93059   -38780.607    1854.1226 
  163400    289.97462   -38621.677    174.60057   -38796.278     7182.764 
  163600    319.48267   -38612.096    192.36807   -38804.464    6417.4031 
  163800     344.0978   -38583.095    207.18942   -38790.284    5645.7659 
  164000    279.36651   -38622.315    168.21318   -38790.528    14383.237 
  164200     304.5231   -38618.265    183.36056   -38801.625    3826.6528 
  164400    311.12327   -38594.101    187.33467   -38781.436   -834.09972 
  164600    293.19365   -38629.309    176.53882   -38805.848   -1911.0701 
  164800    278.25781   -38621.892     167.5456   -38789.437    -3114.965 
  165000    343.07591   -38602.226    206.57411     -38808.8   -5930.5377 
  165200     266.3548    -38643.47    160.37852   -38803.849    5033.3014 
  165400    273.83539   -38618.378    164.88276   -38783.261   -913.68705 
  165600    304.92617   -38609.126    183.60325   -38792.729   -21025.674 
  165800    303.78554   -38616.949    182.91645   -38799.866   -7349.5479 
  166000     298.2843   -38619.648    179.60402   -38799.252   -974.33735 
  166200    301.67225   -38620.566    181.64399    -38802.21     11224.06 
  166400    331.52939   -38620.311    199.62168   -38819.933    405.39688 
  166600      305.383   -38611.765    183.87832   -38795.644   -9227.0093 
  166800    302.57914   -38603.641    182.19005   -38785.831    2148.4793 
  167000    295.35029   -38633.197    177.83739   -38811.034    4669.0552 
  167200    316.83117   -38608.115    190.77153   -38798.886    11488.367 
  167400    297.92411   -38600.454    179.38715   -38779.841    4370.9455 
  167600    303.33662   -38614.035    182.64615   -38796.681    4901.1507 
  167800    302.94294   -38635.434     182.4091   -38817.843   -2590.0467 
  168000    282.92186   -38628.477    170.35393   -38798.831    7825.9444 
  168200    301.14741   -38599.557    181.32797   -38780.885    15904.279 
  168400    290.64589   -38629.797    175.00476   -38804.802    7551.7283 
  168600    276.83119   -38628.438     166.6866   -38795.124   -7441.6527 
  168800     281.5008   -38613.203    169.49828   -38782.701   -4166.2253 
  169000    290.69631   -38608.287    175.03512   -38783.322    15496.702 
  169200    291.41395   -38638.725    175.46723   -38814.193    12262.623 
  169400    318.15858   -38609.793     191.5708   -38801.364    2170.5143 
  169600    304.36202   -38604.019    183.26356   -38787.283    2668.1096 
  169800    284.51498   -38640.021    171.31319   -38811.334    -3575.236 
  170000    312.69338   -38608.555    188.28007   -38796.835    2625.4553 
  170200    297.26904   -38614.594    178.99272   -38793.587   -4702.0927 
  170400    293.90977    -38629.52    176.97002    -38806.49   -4918.6036 
  170600     270.3155   -38646.598    162.76335   -38809.361   -10604.584 
  170800    301.88042    -38614.78    181.76934   -38796.549   -6629.7137 
  171000     305.1909   -38619.251    183.76265   -38803.014    -904.4099 
  171200    276.96272   -38634.057     166.7658   -38800.823     3475.585 
  171400    302.09127    -38611.42    181.89629   -38793.316   -3894.9483 
  171600    304.98811    -38607.79    183.64055   -38791.431   -10955.419 
  171800    278.02228   -38634.907    167.40379   -38802.311   -10055.317 
  172000    281.28474   -38610.453    169.36819   -38779.821    2336.3963 
  172200    307.42578   -38619.644    185.10832   -38804.753   -52.835661 
  172400    313.20378   -38606.296     188.5874   -38794.884     971.0818 
  172600    280.53006   -38648.101    168.91378   -38817.015   -3561.5563 
  172800     319.6107   -38626.577    192.44515   -38819.022    3053.5828 
  173000    290.56085     -38611.4    174.95356   -38786.354    2867.2571 
  173200    319.53936   -38593.427     192.4022    -38785.83    3127.7125 
  173400     288.2529   -38631.808    173.56388   -38805.371   -5216.0043 
  173600    310.07806   -38618.327    186.70533   -38805.033   -5581.6222 
  173800    314.09058    -38608.34    189.12136   -38797.461    1798.8371 
  174000    278.09884   -38651.557    167.44988   -38819.007    -8753.571 
  174200     281.0736   -38636.761    169.24106   -38806.002   -1762.0928 
  174400    304.61372   -38609.604    183.41512   -38793.019   -3462.1223 
  174600    296.08464   -38615.375    178.27956   -38793.654    14931.571 
  174800    292.76713   -38640.049    176.28201   -38816.331    4414.1283 
  175000    296.62739   -38610.629    178.60636   -38789.235    4752.3033 
  175200    315.92667   -38604.621    190.22691   -38794.848    3300.3549 
  175400    311.44934   -38610.429    187.53101    -38797.96    8456.6684 
  175600    277.48916   -38641.731    167.08278   -38808.814    8839.5564 
  175800    279.77039    -38617.65    168.45636   -38786.106    3415.1273 
  176000     313.2082   -38610.991    188.59006   -38799.581    4572.5083 
  176200    311.15739   -38630.697    187.35522   -38818.052   -3134.7717 
  176400    273.83652   -38653.122    164.88344   -38818.006    2542.4324 
  176600    310.35636    -38620.56     186.8729   -38807.433    3015.4951 
  176800    320.20451   -38602.868     192.8027   -38795.671    2507.4673 
  177000    289.81194   -38637.234    174.50262   -38811.737   -6061.8134 
  177200    283.29397   -38621.001    170.57799   -38791.579   -5688.4804 
  177400    313.67353   -38616.396    188.87025   -38805.266   -2168.8318 
  177600    315.86935   -38614.118     190.1924    -38804.31   -804.42186 
  177800    313.66489   -38597.789    188.86504   -38786.654   -12922.702 
  178000    283.38304   -38630.284    170.63163   -38800.916   -12741.212 
  178200    280.83439   -38626.606    169.09702   -38795.703    11018.553 
  178400    296.57069   -38595.312    178.57222   -38773.884    11562.791 
  178600    291.34574   -38627.107    175.42615   -38802.533   -8345.7124 
  178800    322.72883   -38607.633    194.32265   -38801.956   -14854.452 
  179000    296.33009   -38605.342    178.42735   -38783.769   -6157.9799 
  179200    310.83986   -38626.199    187.16402   -38813.363    928.06075 
  179400    314.00374   -38599.585    189.06907   -38788.654   -7532.2335 
  179600      300.285   -38625.059     180.8087   -38805.867   -7981.2517 
  179800    288.73316    -38628.99    173.85306   -38802.843    5724.3342 
  180000    320.52333   -38599.875    192.99467    -38792.87   -9865.3225 
  180200    299.92647   -38621.575    180.59281   -38802.168   -7688.0333 
  180400    291.95669    -38638.25    175.79402   -38814.044    1160.7161 
  180600    295.84147    -38605.43    178.13314   -38783.563    6006.3565 
  180800    311.86961   -38610.813    187.78406   -38798.597   -3254.3712 
  181000    277.81322   -38649.289    167.27791   -38816.567   -7956.4733 
  181200    295.87673    -38619.66    178.15437   -38797.815    832.68327 
[...]
  950000    276.23358   -38706.137    166.32677   -38872.463   -2532.3872 
  950200    277.04739   -38680.671    166.81678   -38847.488   -14192.553 
  950400    295.87127   -38667.343    178.15108   -38845.494   -12981.894 
  950600    292.63714   -38672.761    176.20374   -38848.965    1519.2791 
  950800    286.45745   -38701.039     172.4828   -38873.521   -664.78505 
  951000    280.55883   -38665.958     168.9311   -38834.889    2925.4074 
  951200    282.97297   -38676.146    170.38471   -38846.531   -5530.4287 
  951400    296.76895    -38690.75     178.6916   -38869.442    255.42177 
  951600    337.52552   -38647.101    203.23209   -38850.333    3973.5549 
  951800     277.4025   -38674.515     167.0306   -38841.546   -3050.5509 
  952000    284.67772   -38688.465    171.41118   -38859.876   -4476.9383 
  952200    298.96308   -38683.373    180.01273   -38863.386   -9846.9873 
  952400    329.64258   -38659.884    198.48559    -38858.37    1054.0599 
  952600    284.66704    -38690.41    171.40475   -38861.815   -1385.7001 
  952800    290.06017   -38683.206    174.65208   -38857.858   -892.24774 
  953000     276.5375    -38672.52    166.50976    -38839.03   -2394.3658 
  953200    268.18808   -38678.418    161.48238     -38839.9   -784.98953 
  953400    291.85361   -38669.414    175.73196   -38845.146    6230.9855 
  953600    278.47514   -38681.989    167.67646   -38849.666     2258.527 
  953800    299.53986   -38696.281    180.36003   -38876.641   -6605.1265 
  954000    308.75157   -38658.913    185.90662    -38844.82   -3757.6598 
  954200     269.5532   -38687.357    162.30435   -38849.661   -7563.3751 
  954400     289.5713   -38689.205    174.35772   -38863.563   -73.995749 
  954600     314.6611   -38656.787    189.46488   -38846.252    11854.857 
  954800     280.7777   -38692.423    169.06289   -38861.485     6461.683 
  955000    296.21316   -38685.268    178.35694   -38863.625   -2295.1751 
  955200    307.52083   -38648.517    185.16556   -38833.683    5361.5218 
  955400    275.31887   -38695.699    165.77599   -38861.475    11973.815 
  955600    289.68513    -38677.61    174.42626   -38852.036    8829.8058 
  955800     315.7987   -38660.822    190.14986   -38850.972    1546.0319 
  956000    280.42271   -38693.283    168.84914   -38862.132   -3615.0546 
  956200    319.90386     -38678.1    192.62168   -38870.722   -5832.3579 
  956400    302.36823   -38663.064    182.06305   -38845.127   -9992.4539 
  956600    289.32144   -38680.953    174.20728   -38855.161   -11586.732 
  956800    280.05577   -38720.608     168.6282   -38889.236     2773.028 
  957000    291.34759   -38688.066    175.42727   -38863.494    6146.3897 
  957200    331.76725   -38668.037     199.7649   -38867.802    7356.5508 
  957400    285.66342   -38700.283     172.0047   -38872.288    6677.7639 
  957600    272.34075   -38681.665     163.9828   -38845.648    6835.9767 
  957800     287.7632   -38672.927    173.26902   -38846.196   -897.22216 
  958000    303.32284   -38691.159    182.63785   -38873.797    -10885.94 
  958200    320.16873   -38655.143    192.78116   -38847.924   -10865.438 
  958400    307.19842   -38685.414    184.97143   -38870.386    792.61939 
  958600    306.41484   -38680.457    184.49962   -38864.956   -5107.3667 
  958800    294.25324   -38677.078    177.17683   -38854.255   -3210.4756 
  959000    310.09233   -38672.344    186.71392   -38859.058    6372.2097 
  959200    299.28123   -38701.727     180.2043   -38881.932    7168.7103 
  959400     309.1752   -38672.189     186.1617   -38858.351    229.23394 
  959600    297.82404   -38674.131    179.32689   -38853.458   -14746.329 
  959800    273.41733   -38705.641    164.63103   -38870.272    1257.1314 
  960000    278.50762   -38686.932    167.69602   -38854.628     11129.51 
  960200    324.21931   -38670.367    195.22011   -38865.587   -835.95366 
  960400    298.16247   -38692.677    179.53067   -38872.207   -4757.6381 
  960600    288.13682   -38698.474    173.49399   -38871.968    2279.7381 
  960800    307.15677   -38674.583    184.94635   -38859.529    3716.5777 
  961000    285.02403   -38671.467     171.6197   -38843.086   -158.88402 
  961200    303.53489   -38693.615    182.76553   -38876.381   -12839.659 
  961400     294.8033    -38684.39    177.50803   -38861.898   -10470.995 
  961600    328.91323   -38661.807    198.04643   -38859.853   -918.34246 
  961800    304.35833   -38694.978    183.26135    -38878.24     22.64278 
  962000    267.81308   -38681.536    161.25658   -38842.793   -11358.481 
  962200    302.78726   -38667.025    182.31537   -38849.341     2420.759 
  962400    276.59025   -38707.614    166.54153   -38874.155    5420.2803 
  962600    306.83557   -38679.948    184.75295   -38864.701    2522.0658 
  962800    309.98026     -38668.6    186.64644   -38855.246    4874.1885 
  963000    275.29785   -38703.628    165.76334   -38869.391    1489.2112 
  963200    277.93865   -38678.909    167.35343   -38846.262    10014.258 
  963400    315.81363   -38668.817    190.15885   -38858.976    14097.104 
  963600    285.65432   -38682.842    171.99922   -38854.841   -2601.3345 
  963800     343.6374   -38664.269     206.9122   -38871.182    1114.1572 
  964000    325.18135   -38665.762    195.79937   -38861.562    9469.4785 
  964200    287.23235   -38685.146    172.94939   -38858.096    1119.3447 
  964400     298.2671   -38655.455    179.59367   -38835.049    858.41967 
  964600    321.03097   -38658.898    193.30033   -38852.198   -8203.6979 
  964800    309.91617   -38677.948    186.60785   -38864.556   -4706.4116 
  965000    294.48564   -38685.006    177.31676   -38862.323   -7619.0457 
  965200    317.87871    -38670.03    191.40228   -38861.432   -848.75222 
  965400    295.13679   -38671.315    177.70884   -38849.024   -7364.3675 
  965600    315.44513   -38695.814    189.93696   -38885.751   -2769.6957 
  965800    282.46761   -38672.188    170.08043   -38842.268   -5628.6813 
  966000    289.51231   -38675.477     174.3222   -38849.799   -4992.3436 
  966200    311.06086   -38680.179    187.29709   -38867.476    2859.2515 
  966400    296.43207   -38696.503    178.48875   -38874.992   -1732.5078 
  966600    316.11713   -38658.778     190.3416    -38849.12    -854.5282 
  966800    305.15516   -38680.044    183.74113   -38863.785   -5512.3883 
  967000    287.43243   -38692.496    173.06986   -38865.566    2915.6959 
  967200     321.3096   -38650.145    193.46811   -38843.613   -646.65961 
  967400    299.64827   -38686.468     180.4253   -38866.894    -3605.735 
  967600    277.73478   -38684.936    167.23067   -38852.167    5467.2873 
  967800    309.53041   -38659.001    186.37558   -38845.376    8651.4664 
  968000    308.70427   -38679.838    185.87814   -38865.716   -9118.3942 
  968200    267.15658   -38685.529    160.86129    -38846.39   -14352.327 
  968400    306.58976   -38672.547    184.60494   -38857.152   -7625.7153 
  968600    299.33759   -38675.988    180.23824   -38856.226    10488.311 
  968800    306.58862   -38680.594    184.60425   -38865.198    237.58698 
  969000    302.68975   -38672.581    182.25665   -38854.837    5571.9153 
  969200    298.42839   -38672.654    179.69079   -38852.345     13251.28 
  969400    252.89481   -38703.312    152.27394   -38855.586     4224.852 
  969600    305.35566   -38669.512    183.86186   -38853.374    5808.4508 
  969800    298.10429   -38681.095    179.49564    -38860.59    8232.9914 
  970000    319.73968   -38675.301    192.52282   -38867.824    5386.6437 
  970200    314.86884   -38665.735    189.58997   -38855.325    2317.9397 
  970400     290.1248   -38686.742      174.691   -38861.433   -2806.8537 
  970600    303.23301    -38675.62    182.58376   -38858.204   -8890.1894 
  970800    316.72661   -38658.177    190.70858   -38848.886     6394.607 
  971000     288.5519    -38685.42    173.74392   -38859.164    1836.5994 
  971200    272.83952   -38690.004    164.28312   -38854.287     803.8849 
  971400    309.40613   -38664.359    186.30074    -38850.66   -8023.7902 
  971600    281.46834   -38690.143    169.47874   -38859.622    5565.0623 
  971800    251.07081   -38732.738    151.17567   -38883.913    4894.3762 
  972000    274.84244   -38701.876    165.48913   -38867.365   -851.79761 
  972200    308.96726   -38667.614    186.03649    -38853.65    121.92459 
  972400    264.58544   -38677.448    159.31315   -38836.761   -1459.7463 
  972600    279.66217   -38696.927     168.3912   -38865.318    2004.7001 
  972800    296.50864   -38676.005    178.53486    -38854.54   -801.84267 
  973000     316.0551   -38679.482    190.30424   -38869.786   -5055.5144 
  973200    305.43422   -38670.945    183.90916   -38854.854   -7542.0744 
  973400    330.62298   -38665.764    199.07591   -38864.839   -4498.5035 
  973600    272.22752   -38696.519    163.91462   -38860.433   -878.01977 
  973800    311.57013   -38660.602    187.60374   -38848.206    7853.6947 
  974000    287.91607   -38674.532    173.36107   -38847.893    0.9554795 
  974200     288.1906   -38686.481    173.52637   -38860.008    -6133.434 
  974400    308.79295   -38655.245    185.93153   -38841.176   -23486.084 
  974600      294.216   -38680.496    177.15441    -38857.65    4098.9334 
  974800    300.38099   -38682.521    180.86649   -38863.387    9250.6052 
  975000    298.85339   -38678.358    179.94669   -38858.305    2173.7277 
  975200    308.82579   -38657.969     185.9513   -38843.921    834.56914 
  975400     271.3476   -38685.972     163.3848   -38849.357    5087.8011 
  975600    313.98746   -38682.063    189.05927   -38871.122    18008.238 
  975800     315.6036   -38643.644    190.03238   -38833.677    8018.7808 
  976000    301.03518   -38677.793    181.26039   -38859.053    3199.2623 
  976200    296.22705   -38686.447     178.3653   -38864.812   -3859.0436 
  976400    298.07129   -38658.845    179.47577   -38838.321   -474.25124 
  976600    286.27053   -38696.658    172.37025   -38869.028   -1643.6663 
  976800    317.83635   -38674.937    191.37678   -38866.314   -11348.814 
  977000    308.84055   -38674.418    185.96019   -38860.378   -6690.9339 
  977200    272.54682   -38704.121    164.10688   -38868.228    2470.3092 
  977400    333.00625   -38675.134    200.51093   -38875.645    803.12026 
  977600    321.30989   -38677.012    193.46828   -38870.481   -8679.0202 
  977800    273.49834   -38692.938    164.67981   -38857.617    1588.5663 
  978000    300.08572   -38676.245     180.6887   -38856.934    11994.575 
  978200    309.12313   -38661.918    186.13034   -38848.049     6269.657 
  978400    292.23041   -38699.767    175.95883   -38875.725   -1900.8063 
  978600    305.88012   -38674.247    184.17765   -38858.424    5105.2603 
  978800    317.60977   -38673.363    191.24035   -38864.603   -12185.846 
  979000    308.30515   -38673.798    185.63782   -38859.436   -3251.3247 
  979200    282.46755   -38683.614    170.08038   -38853.695    4084.2234 
  979400    300.38081   -38680.958    180.86638   -38861.824    7125.3807 
  979600    316.76821   -38660.989    190.73363   -38851.723   -1876.0937 
  979800    306.76568   -38679.019    184.71087    -38863.73   -9526.3855 
  980000     319.0428   -38672.089    192.10321   -38864.192    1663.1686 
  980200    306.72084   -38653.446    184.68387    -38838.13    8421.0218 
  980400    317.47604   -38685.372    191.15983   -38876.532   -1169.1089 
  980600    328.92916   -38672.256    198.05602   -38870.312   -5337.4271 
  980800    333.02732   -38644.718    200.52362   -38845.242   -5027.5593 
  981000    310.21456   -38680.824    186.78752   -38867.611    615.65748 
  981200    298.89947    -38686.21    179.97443   -38866.184    2386.9595 
  981400    274.34028   -38703.629    165.18677   -38868.816   -10369.146 
  981600    305.60383   -38666.632    184.01129   -38850.643   -1715.6533 
  981800     299.2686   -38690.689    180.19669   -38870.886    4954.0827 
  982000    292.05598   -38671.278    175.85381   -38847.131   -4348.7783 
  982200    316.76952   -38667.316    190.73441    -38858.05    206.79908 
  982400    296.50044   -38693.946    178.52992   -38872.476    3689.4176 
  982600    326.10695   -38662.392     196.3567   -38858.749    2342.7119 
  982800    317.76153   -38672.057    191.33172   -38863.389   -9680.7124 
  983000    262.65524   -38693.106    158.15092   -38851.257   -11816.327 
  983200    285.81056   -38675.683    172.09329   -38847.776   -2747.3441 
  983400    290.61079    -38682.77    174.98363   -38857.754    1757.4955 
  983600    267.98434   -38709.837     161.3597   -38871.197   -766.29451 
  983800    290.61346   -38673.444    174.98523   -38848.429    5052.9404 
  984000    313.89525     -38678.1    189.00375   -38867.104    6073.5586 
  984200    280.08749   -38697.308     168.6473   -38865.956    4125.4753 
  984400    304.55206   -38663.631    183.37799   -38847.009    15956.107 
  984600    308.67701   -38674.926    185.86172   -38860.788    12635.054 
  984800    278.16688   -38696.768    167.49085   -38864.259    156.72965 
  985000    286.03962   -38671.828    172.23121   -38844.059     3321.667 
  985200    315.35859   -38672.419    189.88486   -38862.304    -6571.247 
  985400    288.79547   -38682.543    173.89058   -38856.433   -1203.2851 
  985600     308.7856   -38671.622    185.92711   -38857.549   -10420.569 
  985800    328.57433    -38638.53    197.84237   -38836.373   -10062.502 
  986000    303.88208   -38682.186    182.97458   -38865.161   -15482.978 
  986200    287.94973   -38680.027    173.38134   -38853.408    -3857.324 
  986400    309.28354   -38661.597    186.22693   -38847.824    4972.9358 
  986600    285.31739   -38681.344    171.79634    -38853.14   -1505.0727 
  986800    305.48541   -38670.183    183.93998   -38854.123    5370.4776 
  987000    351.51681   -38640.252    211.65658   -38851.909    5025.0118 
  987200    287.49003   -38678.953    173.10454   -38852.058    -2439.949 
  987400     295.4318   -38680.645    177.88647   -38858.532   -10985.847 
  987600    308.14412   -38653.662    185.54085   -38839.202    6052.1617 
  987800    284.02003   -38695.981    171.01517   -38866.996     11804.79 
  988000    307.87593    -38672.28    185.37937   -38857.659   -5978.0541 
  988200    300.21661   -38678.908    180.76752   -38859.675   -770.93971 
  988400    286.90563   -38691.589    172.75266   -38864.341    1591.4359 
  988600     323.7006   -38667.175    194.90778   -38862.083    2454.8449 
  988800    287.91435    -38676.76    173.36003    -38850.12    -10109.55 
  989000    310.96084   -38675.196    187.23687   -38862.433   -6743.3882 
  989200    271.95305   -38708.793    163.74936   -38872.543    12867.261 
  989400    285.92523   -38686.464    172.16234   -38858.626    6643.6897 
  989600    299.43047   -38669.085    180.29416   -38849.379    -18473.15 
  989800    278.92712   -38698.186    167.94861   -38866.135     -14993.9 
  990000     299.6624    -38685.98    180.43381   -38866.414    90.912362 
  990200    304.30172   -38679.302    183.22726    -38862.53   -4305.5489 
  990400    292.88374    -38685.33    176.35222   -38861.682   -10180.608 
  990600    331.02261   -38654.886    199.31653   -38854.203   -3846.7486 
  990800    292.48433   -38694.555    176.11173   -38870.667    2379.4816 
  991000    291.33366   -38679.813    175.41888   -38855.232   -3761.9438 
  991200    293.99064   -38669.219    177.01871   -38846.237   -6990.2998 
  991400    281.91328   -38698.741    169.74665   -38868.488     1084.908 
  991600    267.88114   -38717.842    161.29757   -38879.139    3647.6282 
  991800     301.6219   -38684.084    181.61367   -38865.698   -451.46782 
  992000    292.75388   -38660.012    176.27403   -38836.286    612.80616 
  992200    296.48449    -38678.71    178.52032    -38857.23    10274.035 
  992400    283.82488   -38690.423    170.89766   -38861.321   -10009.911 
  992600    303.45377   -38653.524    182.71669   -38836.241   -541.76712 
  992800    290.29203   -38670.655    174.79169   -38845.447   -882.81011 
  993000    279.15148   -38684.863     168.0837   -38852.947   -887.56332 
  993200    277.82228   -38655.508    167.28336   -38822.792   -7173.1075 
  993400    320.03071    -38657.99    192.69806   -38850.688   -9783.0456 
  993600    312.50526   -38684.787     188.1668   -38872.954   -13138.835 
  993800    318.03934   -38664.317      191.499   -38855.816   -5809.9591 
  994000    290.15741   -38667.562    174.71063   -38842.272     -10788.3 
  994200    307.19568   -38673.408    184.96978   -38858.378    349.47742 
  994400     289.9754   -38705.126    174.60104   -38879.727     14110.86 
  994600    300.42296   -38691.336    180.89177   -38872.227    11788.277 
  994800    326.58924   -38669.095     196.6471   -38865.742    9067.3942 
  995000    322.50854   -38657.468    194.19001   -38851.658    3697.0899 
  995200    282.24221   -38695.562     169.9447   -38865.506    5632.1383 
  995400    339.40453   -38666.877    204.36349    -38871.24    2231.0081 
  995600     337.0888   -38671.294    202.96913   -38874.263   -4803.8504 
  995800    272.67878   -38677.661    164.18634   -38841.847    4096.2384 
  996000    298.19528   -38682.954    179.55043   -38862.504    4811.7346 
  996200    261.75046   -38710.937    157.60614   -38868.543    7787.6444 
  996400    307.06573   -38675.067    184.89153   -38859.959    2011.9269 
  996600    299.24791   -38684.662    180.18424   -38864.847   -3081.9491 
  996800    266.42089    -38711.93    160.41831   -38872.348   -2324.6631 
  997000    300.06718     -38670.9    180.67754   -38851.578   -1472.3611 
  997200    295.79422   -38683.237    178.10469   -38861.342   -924.46629 
  997400    278.39034   -38698.023     167.6254   -38865.648   -1909.1973 
  997600    311.65451   -38658.925    187.65454    -38846.58    2191.3944 
  997800    285.71287   -38676.615    172.03447   -38848.649    1930.1134 
  998000    284.24876   -38689.683     171.1529   -38860.836     9735.465 
  998200    324.47335   -38670.407    195.37307    -38865.78   -5248.6319 
  998400    305.78305   -38675.047     184.1192   -38859.166   -2507.8418 
  998600    309.65402   -38676.077       186.45   -38862.527   -11605.773 
  998800    299.92638    -38675.52    180.59276   -38856.113    -321.8753 
  999000    291.23843   -38678.364    175.36154   -38853.726   -3917.5668 
  999200    305.35532   -38676.079    183.86165    -38859.94   -11281.858 
  999400     296.2696   -38698.149    178.39093    -38876.54     1869.811 
  999600     304.8364    -38658.85     183.5492   -38842.399    1611.3575 
  999800    298.06373   -38674.816    179.47122   -38854.287    2156.1786 
 1000000    288.26227   -38682.191    173.56953    -38855.76     1278.013 
Loop time of 13196.9 on 8 procs for 1000000 steps with 203 atoms

Performance: 1.637 ns/day, 14.663 hours/ns, 75.775 timesteps/s
99.2% CPU use with 8 MPI tasks x no OpenMP threads

MPI task timing breakdown:
Section |  min time  |  avg time  |  max time  |%varavg| %total
---------------------------------------------------------------
Pair    | 12166      | 12257      | 12353      |  48.6 | 92.88
Neigh   | 9.2441     | 9.2758     | 9.3238     |   0.9 |  0.07
Comm    | 133.99     | 229.94     | 321.34     | 354.9 |  1.74
Output  | 0.1155     | 0.13574    | 0.26596    |  13.4 |  0.00
Modify  | 692.71     | 693.1      | 693.47     |   1.0 |  5.25
Other   |            | 7.266      |            |       |  0.06

Nlocal:    25.375 ave 27 max 22 min
Histogram: 1 0 0 0 1 0 2 0 1 3
Nghost:    1517.12 ave 1531 max 1501 min
Histogram: 1 0 0 1 2 1 0 1 1 1
Neighs:    7967.38 ave 8462 max 7020 min
Histogram: 1 0 0 1 0 2 0 1 0 3

Total # of neighbors = 63739
Ave neighs/atom = 313.985
Neighbor list builds = 2213
Dangerous builds = 0

Please see the log.cite file for references relevant to this simulation

Total wall time: 3:41:06
