ITEM: TIMESTEP
0
ITEM: NUMBER OF ATOMS
49
ITEM: BOX BOUNDS pp pp pp
0.0000000000000000e+00 1.1000000000000000e+01
0.0000000000000000e+00 1.1002000000000001e+01
0.0000000000000000e+00 1.1000000000000000e+01
ITEM: ATOMS id type x y z 
10 1 4.603 4.603 4.603 
11 1 3.085 3.085 3.085 
12 1 3.796 3.796 3.796 
46 1 0.726 0.725 0.725 
47 1 2.26 2.259 2.26 
48 1 1.551 1.55 1.55 
19 1 4.546 4.545 6.226 
20 1 3.013 3.013 7.764 
21 1 3.721 3.721 7.053 
31 1 0.668 0.667 10.103 
32 1 2.187 2.187 8.589 
33 1 1.476 1.475 9.298 
16 1 4.546 6.225 4.546 
17 1 3.013 7.765 3.013 
18 1 3.721 7.053 3.722 
25 1 0.668 10.103 0.668 
26 1 2.188 8.589 2.188 
27 1 1.476 9.298 1.476 
4 1 4.608 6.169 6.169 
5 1 3.086 7.684 7.684 
6 1 3.799 6.974 6.974 
37 1 0.729 10.046 10.046 
38 1 2.259 8.509 8.508 
39 1 1.552 9.219 9.219 
13 1 6.225 4.546 4.546 
14 1 7.764 3.013 3.013 
15 1 7.053 3.721 3.722 
28 1 10.102 0.667 0.668 
29 1 8.589 2.187 2.188 
30 1 9.298 1.475 1.476 
1 1 6.168 4.608 6.169 
2 1 7.684 3.086 7.684 
3 1 6.974 3.799 6.974 
40 1 10.045 0.728 10.046 
41 1 8.508 2.259 8.508 
42 1 9.218 1.551 9.218 
49 2 6.083 4.916 7.482 
7 1 6.169 6.169 4.608 
8 1 7.684 7.684 3.086 
9 1 6.974 6.974 3.799 
43 1 10.046 10.047 0.729 
44 1 8.508 8.509 2.259 
45 1 9.219 9.219 1.552 
22 1 6.229 6.229 6.229 
23 1 7.764 7.765 7.765 
24 1 7.055 7.056 7.055 
34 1 10.108 10.108 10.107 
35 1 8.59 8.59 8.59 
36 1 9.301 9.301 9.3 
ITEM: TIMESTEP
10
ITEM: NUMBER OF ATOMS
49
ITEM: BOX BOUNDS pp pp pp
0.0000000000000000e+00 1.1000000000000000e+01
0.0000000000000000e+00 1.1002000000000001e+01
0.0000000000000000e+00 1.1000000000000000e+01
ITEM: ATOMS id type x y z 
10 1 4.57191 4.58428 4.61355 
11 1 3.08425 3.08287 3.07789 
12 1 3.78385 3.78617 3.79588 
46 1 0.73499 0.734156 0.731722 
47 1 2.26863 2.26776 2.26853 
48 1 1.56341 1.56268 1.56246 
19 1 4.45096 4.53685 6.15982 
20 1 3.0184 3.01407 7.76483 
21 1 3.70938 3.72182 7.044 
31 1 0.676373 0.673651 10.0937 
32 1 2.19737 2.19607 8.57991 
33 1 1.48745 1.48891 9.28445 
16 1 4.53033 6.23918 4.5403 
17 1 3.00578 7.77223 3.00408 
18 1 3.7075 7.06588 3.71248 
25 1 0.672998 10.0963 0.672525 
26 1 2.19066 8.58509 2.19134 
27 1 1.48315 9.29333 1.48166 
4 1 4.56372 6.14897 6.17624 
5 1 3.08592 7.68956 7.68551 
6 1 3.78888 6.9715 6.98135 
37 1 0.74106 10.0396 10.037 
38 1 2.26803 8.49903 8.49867 
39 1 1.56543 9.20764 9.20583 
13 1 6.2352 4.53244 4.51486 
14 1 7.78045 2.99699 3.00059 
15 1 7.0674 3.70515 3.6998 
28 1 10.0951 0.673193 0.674803 
29 1 8.58807 2.18832 2.19051 
30 1 9.29319 1.47928 1.47791 
1 1 6.12476 4.56808 6.11046 
2 1 7.7333 3.03081 7.70679 
3 1 7.02148 3.75524 7.00639 
40 1 10.0332 0.745705 10.0313 
41 1 8.49221 2.27033 8.49428 
42 1 9.21106 1.55912 9.21157 
49 2 6.12287 4.89651 7.72563 
7 1 6.17876 6.1889 4.57362 
8 1 7.69203 7.68978 3.07955 
9 1 6.98047 6.98602 3.78791 
43 1 10.0369 10.0377 0.741154 
44 1 8.49952 8.49971 2.26732 
45 1 9.20715 9.20864 1.56408 
22 1 6.24619 6.32108 6.19766 
23 1 7.78639 7.78465 7.78561 
24 1 7.07638 7.11042 7.05312 
34 1 10.1004 10.1001 10.0984 
35 1 8.58644 8.58602 8.58601 
36 1 9.29562 9.29526 9.29487 
ITEM: TIMESTEP
20
ITEM: NUMBER OF ATOMS
49
ITEM: BOX BOUNDS pp pp pp
0.0000000000000000e+00 1.1000000000000000e+01
0.0000000000000000e+00 1.1002000000000001e+01
0.0000000000000000e+00 1.1000000000000000e+01
ITEM: ATOMS id type x y z 
10 1 4.59618 4.59412 4.55828 
11 1 3.07676 3.07118 3.07058 
12 1 3.77268 3.78506 3.78126 
46 1 0.740956 0.739201 0.732425 
47 1 2.26786 2.2661 2.26667 
48 1 1.56206 1.56081 1.55868 
19 1 4.39648 4.54011 6.14628 
20 1 3.01138 2.99884 7.78713 
21 1 3.6672 3.70302 7.05058 
31 1 0.706788 0.673679 10.0891 
32 1 2.19358 2.19143 8.58365 
33 1 1.48605 1.48323 9.29228 
16 1 4.51172 6.24938 4.52903 
17 1 2.99828 7.77919 2.99775 
18 1 3.69948 7.07623 3.7028 
25 1 0.6812 10.0932 0.674171 
26 1 2.1907 8.58766 2.19023 
27 1 1.4775 9.293 1.47762 
4 1 4.58633 6.18389 6.15931 
5 1 3.0865 7.68943 7.69133 
6 1 3.77789 6.97376 6.9764 
37 1 0.748429 10.0378 10.0311 
38 1 2.27016 8.49948 8.49972 
39 1 1.56316 9.21039 9.2057 
13 1 6.23237 4.52028 4.51196 
14 1 7.77805 2.99924 2.99939 
15 1 7.06379 3.70832 3.70784 
28 1 10.1004 0.672155 0.696132 
29 1 8.58524 2.19068 2.19094 
30 1 9.29535 1.47768 1.48307 
1 1 6.09889 4.66244 6.12977 
2 1 7.79535 2.95143 7.65958 
3 1 6.9898 3.80911 7.12035 
40 1 10.0396 0.740577 10.0316 
41 1 8.5034 2.25321 8.49986 
42 1 9.23281 1.54286 9.23526 
49 2 6.16707 4.74319 7.82961 
7 1 6.17619 6.17635 4.56139 
8 1 7.6963 7.69901 3.07788 
9 1 6.98443 6.98333 3.7672 
43 1 10.0353 10.0353 0.742893 
44 1 8.50271 8.50418 2.26533 
45 1 9.21531 9.21293 1.55772 
22 1 6.22221 6.41274 6.13431 
23 1 7.78267 7.78562 7.78142 
24 1 7.06499 7.13946 7.00939 
34 1 10.1124 10.0884 10.1018 
35 1 8.58871 8.59131 8.58547 
36 1 9.30237 9.28711 9.30574 
ITEM: TIMESTEP
30
ITEM: NUMBER OF ATOMS
49
ITEM: BOX BOUNDS pp pp pp
0.0000000000000000e+00 1.1000000000000000e+01
0.0000000000000000e+00 1.1002000000000001e+01
0.0000000000000000e+00 1.1000000000000000e+01
ITEM: ATOMS id type x y z 
10 1 4.59865 4.5937 4.54935 
11 1 3.06763 3.07239 3.07609 
12 1 3.79076 3.78462 3.76345 
46 1 0.739887 0.736108 0.734374 
47 1 2.26899 2.26673 2.2676 
48 1 1.56198 1.55943 1.55915 
19 1 4.40646 4.56001 6.14239 
20 1 3.01756 2.99965 7.78617 
21 1 3.65924 3.71767 7.03128 
31 1 0.702573 0.667466 10.0935 
32 1 2.19162 2.19378 8.58626 
33 1 1.49505 1.47594 9.29396 
16 1 4.51083 6.25351 4.51359 
17 1 2.99225 7.78878 2.99099 
18 1 3.6931 7.07499 3.7 
25 1 0.681871 10.0903 0.671589 
26 1 2.1837 8.58866 2.18646 
27 1 1.48206 9.30086 1.47402 
4 1 4.58537 6.18613 6.15675 
5 1 3.08122 7.6817 7.69003 
6 1 3.78974 6.98394 6.97327 
37 1 0.745284 10.035 10.0312 
38 1 2.27431 8.49437 8.49381 
39 1 1.57293 9.20426 9.20294 
13 1 6.23056 4.53062 4.55149 
14 1 7.77445 3.00593 3.00596 
15 1 7.05845 3.70629 3.70974 
28 1 10.0977 0.675461 0.699752 
29 1 8.58143 2.19319 2.1898 
30 1 9.29715 1.4794 1.49374 
1 1 6.09757 4.69536 6.16644 
2 1 7.83324 2.90976 7.58955 
3 1 6.95808 3.84043 7.17426 
40 1 10.0478 0.732698 10.0498 
41 1 8.52451 2.23478 8.50443 
42 1 9.23555 1.53181 9.23124 
49 2 6.15325 4.72434 7.88129 
7 1 6.1751 6.1645 4.5418 
8 1 7.69671 7.69856 3.07088 
9 1 6.98645 6.98384 3.76787 
43 1 10.0407 10.0368 0.737513 
44 1 8.5032 8.50145 2.26599 
45 1 9.20947 9.21327 1.56356 
22 1 6.20504 6.40897 6.11574 
23 1 7.78176 7.7819 7.76814 
24 1 7.05225 7.16079 7.00434 
34 1 10.1105 10.0726 10.1021 
35 1 8.58745 8.58137 8.59342 
36 1 9.30359 9.29294 9.29084 
ITEM: TIMESTEP
40
ITEM: NUMBER OF ATOMS
49
ITEM: BOX BOUNDS pp pp pp
0.0000000000000000e+00 1.1000000000000000e+01
0.0000000000000000e+00 1.1002000000000001e+01
0.0000000000000000e+00 1.1000000000000000e+01
ITEM: ATOMS id type x y z 
10 1 4.62465 4.59511 4.54041 
11 1 3.08121 3.07483 3.07092 
12 1 3.78536 3.79371 3.76797 
46 1 0.742185 0.734867 0.734275 
47 1 2.2696 2.2661 2.26995 
48 1 1.56266 1.5608 1.56162 
19 1 4.42008 4.57306 6.14439 
20 1 3.01288 3.00887 7.77312 
21 1 3.6514 3.72797 7.01534 
31 1 0.703332 0.665155 10.0915 
32 1 2.20573 2.19497 8.58808 
33 1 1.50337 1.48156 9.2897 
16 1 4.51425 6.24446 4.4804 
17 1 2.97922 7.79729 2.98926 
18 1 3.69505 7.07986 3.68101 
25 1 0.680802 10.1001 0.662651 
26 1 2.18863 8.60174 2.18405 
27 1 1.46121 9.28882 1.46603 
4 1 4.57472 6.20096 6.13153 
5 1 3.08886 7.68095 7.69056 
6 1 3.77996 6.98154 6.96007 
37 1 0.748527 10.0312 10.0244 
38 1 2.2821 8.49055 8.49549 
39 1 1.56938 9.19803 9.19693 
13 1 6.2466 4.52904 4.60316 
14 1 7.75422 3.01937 3.01468 
15 1 7.05996 3.71275 3.74715 
28 1 10.0965 0.675194 0.707573 
29 1 8.57374 2.2047 2.20469 
30 1 9.28155 1.48929 1.50026 
1 1 6.08924 4.71928 6.25791 
2 1 7.86335 2.88406 7.49948 
3 1 6.94904 3.84324 7.27156 
40 1 10.0503 0.725603 10.0609 
41 1 8.54609 2.20878 8.44698 
42 1 9.23551 1.52785 9.2171 
49 2 6.14609 4.70572 7.9498 
7 1 6.16606 6.14906 4.52973 
8 1 7.69968 7.70189 3.07865 
9 1 6.97604 6.96281 3.73078 
43 1 10.0399 10.0384 0.735664 
44 1 8.50497 8.50887 2.26933 
45 1 9.21573 9.20737 1.5585 
22 1 6.1986 6.39795 6.12091 
23 1 7.76662 7.7987 7.7507 
24 1 7.04964 7.15944 6.99077 
34 1 10.1129 10.0811 10.0955 
35 1 8.58709 8.57868 8.57987 
36 1 9.30032 9.26529 9.30675 
ITEM: TIMESTEP
50
ITEM: NUMBER OF ATOMS
49
ITEM: BOX BOUNDS pp pp pp
0.0000000000000000e+00 1.1000000000000000e+01
0.0000000000000000e+00 1.1002000000000001e+01
0.0000000000000000e+00 1.1000000000000000e+01
ITEM: ATOMS id type x y z 
10 1 4.62542 4.59376 4.54539 
11 1 3.07209 3.0809 3.07556 
12 1 3.80928 3.7846 3.75561 
46 1 0.736597 0.738264 0.730459 
47 1 2.26933 2.26366 2.26965 
48 1 1.56073 1.56081 1.56033 
19 1 4.41988 4.57476 6.14552 
20 1 3.00469 3.01016 7.768 
21 1 3.65491 3.72953 7.02005 
31 1 0.702201 0.666851 10.0927 
32 1 2.20975 2.19045 8.58964 
33 1 1.49685 1.48311 9.29284 
16 1 4.51612 6.24119 4.47312 
17 1 2.97934 7.79939 2.98897 
18 1 3.69418 7.07864 3.67698 
25 1 0.675054 10.0952 0.660186 
26 1 2.17383 8.59614 2.17958 
27 1 1.47678 9.30982 1.46483 
4 1 4.57469 6.20528 6.1228 
5 1 3.08912 7.67777 7.69169 
6 1 3.78101 6.98669 6.95216 
37 1 0.743418 10.0334 10.0178 
38 1 2.27754 8.48755 8.49568 
39 1 1.57664 9.20355 9.20041 
13 1 6.24933 4.5254 4.61671 
14 1 7.75175 3.02174 3.01923 
15 1 7.0612 3.71325 3.75782 
28 1 10.0949 0.683807 0.706915 
29 1 8.57115 2.20439 2.20549 
30 1 9.28103 1.49355 1.50206 
1 1 6.09013 4.72123 6.27992 
2 1 7.86626 2.88208 7.49653 
3 1 6.95315 3.83845 7.27881 
40 1 10.0469 0.731255 10.0609 
41 1 8.55887 2.19502 8.42435 
42 1 9.23843 1.52505 9.21253 
49 2 6.14839 4.70534 7.96507 
7 1 6.16961 6.13895 4.52308 
8 1 7.69355 7.69453 3.06711 
9 1 6.98161 6.96586 3.74832 
43 1 10.0359 10.0382 0.734289 
44 1 8.50788 8.50481 2.26939 
45 1 9.21196 9.21536 1.56275 
22 1 6.1968 6.39043 6.12269 
23 1 7.76602 7.80195 7.74295 
24 1 7.04322 7.15905 6.99296 
34 1 10.1095 10.0756 10.0972 
35 1 8.58703 8.57035 8.59013 
36 1 9.30106 9.27984 9.2907 
ITEM: TIMESTEP
60
ITEM: NUMBER OF ATOMS
49
ITEM: BOX BOUNDS pp pp pp
0.0000000000000000e+00 1.1000000000000000e+01
0.0000000000000000e+00 1.1002000000000001e+01
0.0000000000000000e+00 1.1000000000000000e+01
ITEM: ATOMS id type x y z 
10 1 4.63373 4.58935 4.54431 
11 1 3.07956 3.07979 3.07135 
12 1 3.80433 3.78662 3.76158 
46 1 0.734362 0.740245 0.731525 
47 1 2.26853 2.26433 2.27027 
48 1 1.56124 1.56103 1.56048 
19 1 4.42102 4.57758 6.14864 
20 1 3.00188 3.01176 7.76427 
21 1 3.65435 3.7323 7.02012 
31 1 0.699521 0.669749 10.0926 
32 1 2.20845 2.19351 8.58931 
33 1 1.50294 1.47813 9.29229 
16 1 4.52035 6.23794 4.4674 
17 1 2.97942 7.80006 2.98871 
18 1 3.69293 7.07644 3.67393 
25 1 0.674786 10.1002 0.657036 
26 1 2.17477 8.60096 2.17831 
27 1 1.47057 9.30683 1.46356 
4 1 4.57159 6.20823 6.11239 
5 1 3.09022 7.67852 7.69095 
6 1 3.77763 6.98597 6.94873 
37 1 0.743513 10.0367 10.0179 
38 1 2.28087 8.48912 8.49866 
39 1 1.57102 9.20074 9.19773 
13 1 6.25342 4.52169 4.62642 
14 1 7.75245 3.02133 3.02381 
15 1 7.06151 3.71283 3.76287 
28 1 10.0897 0.68394 0.707081 
29 1 8.56505 2.2062 2.20509 
30 1 9.28438 1.49774 1.50938 
1 1 6.08429 4.72299 6.29465 
2 1 7.86956 2.87851 7.4901 
3 1 6.9584 3.83294 7.2873 
40 1 10.044 0.73212 10.0628 
41 1 8.56816 2.18627 8.40445 
42 1 9.23995 1.52263 9.2048 
49 2 6.14746 4.70669 7.9794 
7 1 6.17165 6.13727 4.52462 
8 1 7.69312 7.69136 3.06499 
9 1 6.98197 6.96362 3.74792 
43 1 10.0346 10.0425 0.733806 
44 1 8.50817 8.50576 2.27021 
45 1 9.21157 9.21515 1.56151 
22 1 6.19515 6.39018 6.12419 
23 1 7.7645 7.80642 7.74122 
24 1 7.04298 7.15814 6.99332 
34 1 10.1089 10.0768 10.0951 
35 1 8.5875 8.57168 8.58622 
36 1 9.29902 9.27607 9.29465 
ITEM: TIMESTEP
70
ITEM: NUMBER OF ATOMS
49
ITEM: BOX BOUNDS pp pp pp
0.0000000000000000e+00 1.1000000000000000e+01
0.0000000000000000e+00 1.1002000000000001e+01
0.0000000000000000e+00 1.1000000000000000e+01
ITEM: ATOMS id type x y z 
10 1 4.6472 4.58084 4.54925 
11 1 3.08517 3.08127 3.07041 
12 1 3.82005 3.78086 3.75692 
46 1 0.729517 0.744429 0.731039 
47 1 2.27125 2.26459 2.2709 
48 1 1.55602 1.56713 1.56395 
19 1 4.4242 4.58474 6.15681 
20 1 2.99159 3.01451 7.75753 
21 1 3.64967 3.73794 7.02024 
31 1 0.696645 0.671994 10.0933 
32 1 2.21173 2.19155 8.58881 
33 1 1.50272 1.48044 9.29289 
16 1 4.52875 6.2278 4.44922 
17 1 2.97435 7.80206 2.98794 
18 1 3.69651 7.0731 3.65956 
25 1 0.670485 10.1082 0.651255 
26 1 2.171 8.60747 2.17619 
27 1 1.46575 9.31033 1.45964 
4 1 4.55986 6.2178 6.08582 
5 1 3.08832 7.67661 7.68835 
6 1 3.7768 6.99407 6.93823 
37 1 0.73679 10.0412 10.0128 
38 1 2.282 8.48766 8.5034 
39 1 1.57053 9.20257 9.19727 
13 1 6.2608 4.51565 4.65355 
14 1 7.74986 3.02343 3.03858 
15 1 7.06294 3.71171 3.78424 
28 1 10.0861 0.69112 0.712575 
29 1 8.5605 2.21369 2.21271 
30 1 9.27378 1.50334 1.51273 
1 1 6.07522 4.72926 6.33946 
2 1 7.87781 2.87056 7.46907 
3 1 6.96271 3.82829 7.31424 
40 1 10.0375 0.735026 10.0671 
41 1 8.598 2.1558 8.34979 
42 1 9.24881 1.51236 9.18245 
49 2 6.15286 4.70228 8.00957 
7 1 6.17917 6.12763 4.53171 
8 1 7.69136 7.68288 3.05877 
9 1 6.98513 6.95551 3.74677 
43 1 10.027 10.052 0.732615 
44 1 8.50573 8.5081 2.27023 
45 1 9.21488 9.21296 1.56283 
22 1 6.19076 6.38542 6.13016 
23 1 7.75934 7.81525 7.73318 
24 1 7.03789 7.15818 6.99398 
34 1 10.1049 10.0795 10.0954 
35 1 8.58678 8.57124 8.58377 
36 1 9.2982 9.2766 9.29082 
ITEM: TIMESTEP
80
ITEM: NUMBER OF ATOMS
49
ITEM: BOX BOUNDS pp pp pp
0.0000000000000000e+00 1.1000000000000000e+01
0.0000000000000000e+00 1.1002000000000001e+01
0.0000000000000000e+00 1.1000000000000000e+01
ITEM: ATOMS id type x y z 
10 1 4.64829 4.58091 4.5492 
11 1 3.08672 3.08103 3.06935 
12 1 3.81881 3.78085 3.75874 
46 1 0.728672 0.745274 0.731469 
47 1 2.27071 2.2656 2.27152 
48 1 1.55744 1.56621 1.56336 
19 1 4.4238 4.58573 6.15675 
20 1 2.99108 3.01512 7.75706 
21 1 3.65001 3.73794 7.02014 
31 1 0.696064 0.672222 10.0931 
32 1 2.21156 2.19131 8.589 
33 1 1.50236 1.48037 9.29292 
16 1 4.5297 6.2273 4.44781 
17 1 2.97539 7.80151 2.98721 
18 1 3.69544 7.07297 3.66058 
25 1 0.669626 10.1076 0.65097 
26 1 2.17052 8.60709 2.17599 
27 1 1.46628 9.31148 1.46015 
4 1 4.5591 6.21826 6.08469 
5 1 3.08828 7.67673 7.68793 
6 1 3.77666 6.99422 6.93783 
37 1 0.736512 10.0414 10.0126 
38 1 2.28179 8.48761 8.50332 
39 1 1.57092 9.20252 9.19776 
13 1 6.26104 4.51536 4.65496 
14 1 7.74999 3.02334 3.0396 
15 1 7.06305 3.71161 3.78484 
28 1 10.0855 0.691559 0.712582 
29 1 8.56079 2.21397 2.21312 
30 1 9.27286 1.50317 1.51236 
1 1 6.07479 4.72954 6.34126 
2 1 7.87821 2.87024 7.46834 
3 1 6.96284 3.82815 7.31501 
40 1 10.0377 0.735132 10.0672 
41 1 8.59953 2.15405 8.34755 
42 1 9.24971 1.51151 9.18088 
49 2 6.15316 4.70193 8.01059 
7 1 6.17938 6.12728 4.53173 
8 1 7.69153 7.68228 3.05862 
9 1 6.98501 6.95549 3.74664 
43 1 10.0278 10.0516 0.732824 
44 1 8.50661 8.50756 2.26999 
45 1 9.21351 9.21419 1.56264 
22 1 6.18993 6.38529 6.13056 
23 1 7.75947 7.81564 7.73312 
24 1 7.03731 7.15856 6.99403 
34 1 10.1049 10.0798 10.0956 
35 1 8.58723 8.57127 8.58345 
36 1 9.29745 9.27721 9.29111 
ITEM: TIMESTEP
90
ITEM: NUMBER OF ATOMS
49
ITEM: BOX BOUNDS pp pp pp
0.0000000000000000e+00 1.1000000000000000e+01
0.0000000000000000e+00 1.1002000000000001e+01
0.0000000000000000e+00 1.1000000000000000e+01
ITEM: ATOMS id type x y z 
10 1 4.6508 4.57873 4.55198 
11 1 3.09132 3.08005 3.06782 
12 1 3.821 3.77949 3.76022 
46 1 0.726894 0.747587 0.731858 
47 1 2.26996 2.26654 2.2712 
48 1 1.55857 1.56641 1.56373 
19 1 4.42268 4.58977 6.15848 
20 1 2.98839 3.01594 7.75581 
21 1 3.6473 3.74081 7.01942 
31 1 0.693814 0.672791 10.0938 
32 1 2.21021 2.19036 8.58847 
33 1 1.50183 1.48087 9.29425 
16 1 4.53245 6.22505 4.44153 
17 1 2.97547 7.80088 2.98496 
18 1 3.69641 7.07102 3.65777 
25 1 0.668294 10.1093 0.651017 
26 1 2.16993 8.60843 2.17657 
27 1 1.46548 9.31173 1.45982 
4 1 4.55581 6.222 6.07882 
5 1 3.08746 7.67797 7.68642 
6 1 3.77445 6.99664 6.93378 
37 1 0.735682 10.0429 10.0124 
38 1 2.28149 8.48731 8.50447 
39 1 1.57096 9.20271 9.19871 
13 1 6.26311 4.51451 4.66349 
14 1 7.75044 3.02346 3.04598 
15 1 7.06419 3.71017 3.79211 
28 1 10.0829 0.693572 0.713096 
29 1 8.55968 2.21521 2.21525 
30 1 9.27064 1.5049 1.51287 
1 1 6.07252 4.73272 6.35271 
2 1 7.88044 2.86821 7.4627 
3 1 6.96429 3.82673 7.32033 
40 1 10.0374 0.736507 10.0679 
41 1 8.60904 2.1434 8.32915 
42 1 9.25605 1.50536 9.16944 
49 2 6.15491 4.69972 8.01774 
7 1 6.18188 6.12396 4.53377 
8 1 7.69242 7.67856 3.05643 
9 1 6.98598 6.95387 3.74684 
43 1 10.0294 10.0508 0.734481 
44 1 8.50915 8.50483 2.26982 
45 1 9.20808 9.2191 1.56149 
22 1 6.18479 6.38492 6.13355 
23 1 7.75779 7.81742 7.73097 
24 1 7.03478 7.16085 6.99447 
34 1 10.1038 10.0821 10.0963 
35 1 8.5876 8.5737 8.58157 
36 1 9.29711 9.27721 9.29222 
ITEM: TIMESTEP
100
ITEM: NUMBER OF ATOMS
49
ITEM: BOX BOUNDS pp pp pp
0.0000000000000000e+00 1.1000000000000000e+01
0.0000000000000000e+00 1.1002000000000001e+01
0.0000000000000000e+00 1.1000000000000000e+01
ITEM: ATOMS id type x y z 
10 1 4.66445 4.56797 4.56982 
11 1 3.11534 3.07371 3.06125 
12 1 3.83817 3.76983 3.76384 
46 1 0.71611 0.756194 0.735756 
47 1 2.27327 2.2704 2.27127 
48 1 1.5564 1.57298 1.56438 
19 1 4.4165 4.61184 6.17169 
20 1 2.97324 3.02331 7.74833 
21 1 3.6275 3.75391 7.01604 
31 1 0.686319 0.677836 10.1018 
32 1 2.20567 2.18851 8.5869 
33 1 1.49569 1.48239 9.29404 
16 1 4.55044 6.20892 4.40871 
17 1 2.97739 7.7937 2.97475 
18 1 3.70397 7.06155 3.63614 
25 1 0.663109 10.118 0.650665 
26 1 2.16558 8.61362 2.17758 
27 1 1.46228 9.31844 1.46166 
4 1 4.53473 6.24224 6.04123 
5 1 3.08048 7.6883 7.67655 
6 1 3.75771 7.01002 6.91328 
37 1 0.729626 10.0496 10.0141 
38 1 2.27967 8.48812 8.51291 
39 1 1.5686 9.20464 9.20476 
13 1 6.27265 4.50901 4.71148 
14 1 7.75323 3.02081 3.08181 
15 1 7.07375 3.70539 3.83965 
28 1 10.0704 0.705132 0.71343 
29 1 8.55057 2.22351 2.22795 
30 1 9.25947 1.51551 1.52067 
1 1 6.05677 4.74807 6.41746 
2 1 7.89417 2.85519 7.43181 
3 1 6.97357 3.81775 7.34893 
40 1 10.0314 0.744428 10.0687 
41 1 8.66716 2.07957 8.22177 
42 1 9.29216 1.46948 9.09659 
49 2 6.16489 4.68616 8.05729 
7 1 6.19305 6.11004 4.54824 
8 1 7.69572 7.66036 3.04865 
9 1 6.99598 6.9312 3.7404 
43 1 10.0224 10.0634 0.738633 
44 1 8.5061 8.5023 2.26633 
45 1 9.20493 9.22028 1.56311 
22 1 6.16057 6.38777 6.15009 
23 1 7.75103 7.83307 7.72259 
24 1 7.01946 7.17365 6.9962 
34 1 10.0997 10.0887 10.1046 
35 1 8.58945 8.58291 8.5752 
36 1 9.29419 9.28732 9.28899 
ITEM: TIMESTEP
110
ITEM: NUMBER OF ATOMS
49
ITEM: BOX BOUNDS pp pp pp
0.0000000000000000e+00 1.1000000000000000e+01
0.0000000000000000e+00 1.1002000000000001e+01
0.0000000000000000e+00 1.1000000000000000e+01
ITEM: ATOMS id type x y z 
10 1 4.66529 4.5673 4.56963 
11 1 3.11688 3.0733 3.06141 
12 1 3.83882 3.76924 3.76445 
46 1 0.714718 0.756399 0.736427 
47 1 2.27362 2.27011 2.27047 
48 1 1.5563 1.57339 1.56463 
19 1 4.41586 4.61186 6.172 
20 1 2.97131 3.02364 7.74777 
21 1 3.62765 3.75502 7.01739 
31 1 0.685829 0.67849 10.1018 
32 1 2.20486 2.18832 8.58614 
33 1 1.4957 1.48294 9.29489 
16 1 4.55132 6.20806 4.40867 
17 1 2.97849 7.79273 2.97354 
18 1 3.70443 7.06074 3.636 
25 1 0.662648 10.1192 0.651515 
26 1 2.16559 8.6137 2.17729 
27 1 1.46167 9.31858 1.46241 
4 1 4.53349 6.24212 6.04129 
5 1 3.07857 7.68771 7.67553 
6 1 3.75897 7.0133 6.91172 
37 1 0.729411 10.0493 10.0163 
38 1 2.27949 8.48854 8.51426 
39 1 1.56713 9.20588 9.20408 
13 1 6.2728 4.50857 4.71341 
14 1 7.75371 3.02107 3.08467 
15 1 7.07392 3.70428 3.84121 
28 1 10.07 0.706323 0.712666 
29 1 8.5505 2.22347 2.22899 
30 1 9.25891 1.5161 1.52106 
1 1 6.05596 4.74889 6.41824 
2 1 7.89472 2.85476 7.43249 
3 1 6.97444 3.81686 7.34812 
40 1 10.0312 0.744052 10.067 
41 1 8.66969 2.07716 8.21782 
42 1 9.29424 1.46673 9.09201 
49 2 6.16557 4.6852 8.05661 
7 1 6.19359 6.10891 4.54834 
8 1 7.69575 7.65687 3.04667 
9 1 6.99681 6.93325 3.74493 
43 1 10.0225 10.0645 0.738653 
44 1 8.50622 8.50182 2.26592 
45 1 9.20438 9.22092 1.56287 
22 1 6.16076 6.38818 6.15017 
23 1 7.75025 7.83418 7.72273 
24 1 7.01891 7.17433 6.99606 
34 1 10.0989 10.0899 10.1041 
35 1 8.58888 8.58429 8.57415 
36 1 9.29437 9.28655 9.28948 
ITEM: TIMESTEP
120
ITEM: NUMBER OF ATOMS
49
ITEM: BOX BOUNDS pp pp pp
0.0000000000000000e+00 1.1000000000000000e+01
0.0000000000000000e+00 1.1002000000000001e+01
0.0000000000000000e+00 1.1000000000000000e+01
ITEM: ATOMS id type x y z 
10 1 4.66607 4.5666 4.57026 
11 1 3.11833 3.07228 3.06159 
12 1 3.8398 3.76876 3.76446 
46 1 0.71321 0.7571 0.737221 
47 1 2.27446 2.27011 2.27001 
48 1 1.55608 1.57384 1.56465 
19 1 4.41497 4.61242 6.17251 
20 1 2.96927 3.02454 7.74708 
21 1 3.6277 3.7559 7.01885 
31 1 0.685888 0.67905 10.1025 
32 1 2.2042 2.18845 8.58585 
33 1 1.49499 1.48306 9.29447 
16 1 4.55196 6.2071 4.40874 
17 1 2.97957 7.79139 2.97226 
18 1 3.70544 7.06007 3.63525 
25 1 0.661794 10.1202 0.652683 
26 1 2.16561 8.61337 2.17721 
27 1 1.46148 9.31895 1.46334 
4 1 4.53298 6.24327 6.04062 
5 1 3.07739 7.68938 7.67406 
6 1 3.7576 7.0138 6.91109 
37 1 0.728868 10.0495 10.0178 
38 1 2.27869 8.48944 8.51453 
39 1 1.56672 9.20611 9.20515 
13 1 6.27304 4.50768 4.71559 
14 1 7.75461 3.02055 3.08753 
15 1 7.0742 3.70366 3.84368 
28 1 10.069 0.707608 0.711933 
29 1 8.55025 2.22362 2.23008 
30 1 9.25867 1.51645 1.52188 
1 1 6.05489 4.74934 6.41939 
2 1 7.89528 2.85441 7.43262 
3 1 6.97538 3.81588 7.34723 
40 1 10.031 0.743812 10.0651 
41 1 8.6725 2.07428 8.21245 
42 1 9.29704 1.46336 9.08643 
49 2 6.16624 4.6842 8.05607 
7 1 6.19485 6.10879 4.54963 
8 1 7.69668 7.65421 3.04597 
9 1 6.99676 6.93395 3.74661 
43 1 10.022 10.0657 0.738905 
44 1 8.50622 8.5011 2.26525 
45 1 9.2038 9.2212 1.56297 
22 1 6.16068 6.3889 6.15041 
23 1 7.74949 7.83568 7.72297 
24 1 7.01836 7.1754 6.99615 
34 1 10.0985 10.0898 10.1045 
35 1 8.5886 8.58495 8.57369 
36 1 9.29388 9.28777 9.28876 
ITEM: TIMESTEP
130
ITEM: NUMBER OF ATOMS
49
ITEM: BOX BOUNDS pp pp pp
0.0000000000000000e+00 1.1000000000000000e+01
0.0000000000000000e+00 1.1002000000000001e+01
0.0000000000000000e+00 1.1000000000000000e+01
ITEM: ATOMS id type x y z 
10 1 4.66615 4.56658 4.57022 
11 1 3.11846 3.07225 3.0615 
12 1 3.83971 3.7687 3.76464 
46 1 0.713165 0.757128 0.737239 
47 1 2.27451 2.27009 2.26998 
48 1 1.55603 1.57388 1.56466 
19 1 4.41493 4.61246 6.17255 
20 1 2.96919 3.02459 7.74707 
21 1 3.6277 3.75593 7.01889 
31 1 0.685947 0.679006 10.1025 
32 1 2.20423 2.1884 8.58583 
33 1 1.49484 1.48318 9.29447 
16 1 4.55201 6.20707 4.40871 
17 1 2.97964 7.79134 2.97217 
18 1 3.70542 7.06005 3.63526 
25 1 0.661772 10.1202 0.652738 
26 1 2.16563 8.61337 2.17721 
27 1 1.46144 9.31894 1.46339 
4 1 4.53302 6.2433 6.04066 
5 1 3.0774 7.68945 7.67406 
6 1 3.75743 7.01384 6.91096 
37 1 0.728867 10.0495 10.0179 
38 1 2.27867 8.48946 8.51455 
39 1 1.56669 9.20614 9.20516 
13 1 6.27306 4.50765 4.71569 
14 1 7.75464 3.02052 3.08765 
15 1 7.07423 3.70363 3.84377 
28 1 10.069 0.70765 0.711899 
29 1 8.55024 2.22362 2.23012 
30 1 9.25869 1.51648 1.52193 
1 1 6.05485 4.74936 6.41944 
2 1 7.89531 2.85439 7.4326 
3 1 6.97542 3.81585 7.3472 
40 1 10.031 0.743806 10.065 
41 1 8.67262 2.07415 8.21222 
42 1 9.29717 1.46322 9.08619 
49 2 6.16627 4.68417 8.05606 
7 1 6.19488 6.1088 4.54969 
8 1 7.69669 7.65413 3.04592 
9 1 6.99683 6.93395 3.7467 
43 1 10.022 10.0658 0.73897 
44 1 8.50624 8.50109 2.26527 
45 1 9.20375 9.22114 1.56288 
22 1 6.16066 6.38892 6.15043 
23 1 7.74945 7.83573 7.72296 
24 1 7.01832 7.17544 6.99615 
34 1 10.0985 10.0898 10.1045 
35 1 8.58861 8.58498 8.57369 
36 1 9.29385 9.28785 9.28873 
ITEM: TIMESTEP
140
ITEM: NUMBER OF ATOMS
49
ITEM: BOX BOUNDS pp pp pp
0.0000000000000000e+00 1.1000000000000000e+01
0.0000000000000000e+00 1.1002000000000001e+01
0.0000000000000000e+00 1.1000000000000000e+01
ITEM: ATOMS id type x y z 
10 1 4.67297 4.5617 4.57566 
11 1 3.13018 3.06517 3.06065 
12 1 3.85017 3.75921 3.7677 
46 1 0.701489 0.764556 0.742859 
47 1 2.28244 2.26849 2.26623 
48 1 1.55247 1.57957 1.56351 
19 1 4.40684 4.62067 6.17867 
20 1 2.95268 3.03332 7.74378 
21 1 3.6263 3.76236 7.02829 
31 1 0.682286 0.678221 10.1049 
32 1 2.18994 2.18873 8.5764 
33 1 1.50066 1.48545 9.30368 
16 1 4.55734 6.20288 4.40907 
17 1 2.988 7.78315 2.96182 
18 1 3.71353 7.05004 3.62285 
25 1 0.654505 10.1277 0.663365 
26 1 2.16629 8.61123 2.17763 
27 1 1.46007 9.31986 1.46989 
4 1 4.52544 6.25028 6.03805 
5 1 3.06528 7.70241 7.66329 
6 1 3.74629 7.02453 6.9027 
37 1 0.727751 10.0535 10.0319 
38 1 2.27312 8.49881 8.51757 
39 1 1.55794 9.20749 9.21321 
13 1 6.27402 4.50317 4.73355 
14 1 7.76166 3.01462 3.11262 
15 1 7.07843 3.69938 3.86774 
28 1 10.0603 0.716684 0.708285 
29 1 8.54899 2.22395 2.24178 
30 1 9.25617 1.52125 1.52584 
1 1 6.04752 4.75032 6.42889 
2 1 7.90127 2.8505 7.42787 
3 1 6.98167 3.80916 7.34077 
40 1 10.0308 0.742416 10.0515 
41 1 8.69789 2.04656 8.16386 
42 1 9.32302 1.43443 9.03464 
49 2 6.17088 4.67668 8.05358 
7 1 6.20263 6.11003 4.56281 
8 1 7.70319 7.64182 3.04308 
9 1 7.00467 6.92662 3.75015 
43 1 10.0135 10.0765 0.743583 
44 1 8.50536 8.49343 2.25991 
45 1 9.19951 9.2216 1.56288 
22 1 6.15733 6.39572 6.15442 
23 1 7.74293 7.84854 7.72419 
24 1 7.01273 7.18595 6.99782 
34 1 10.0939 10.0914 10.1093 
35 1 8.58175 8.59826 8.57048 
36 1 9.30077 9.28867 9.28479 
ITEM: TIMESTEP
150
ITEM: NUMBER OF ATOMS
49
ITEM: BOX BOUNDS pp pp pp
0.0000000000000000e+00 1.1000000000000000e+01
0.0000000000000000e+00 1.1002000000000001e+01
0.0000000000000000e+00 1.1000000000000000e+01
ITEM: ATOMS id type x y z 
10 1 4.6741 4.55915 4.58022 
11 1 3.13976 3.05852 3.0609 
12 1 3.85389 3.7575 3.76857 
46 1 0.692982 0.770892 0.745741 
47 1 2.28545 2.27011 2.26295 
48 1 1.5545 1.57927 1.5656 
19 1 4.4059 4.62579 6.18335 
20 1 2.94811 3.03642 7.74424 
21 1 3.61521 3.77031 7.02623 
31 1 0.683042 0.681769 10.1129 
32 1 2.18746 2.19171 8.57799 
33 1 1.49202 1.48434 9.298 
16 1 4.56156 6.19884 4.40744 
17 1 2.99364 7.77654 2.95322 
18 1 3.71798 7.04609 3.61834 
25 1 0.650618 10.1305 0.672997 
26 1 2.16769 8.60883 2.1757 
27 1 1.45703 9.32309 1.4773 
4 1 4.52091 6.25473 6.03537 
5 1 3.0577 7.71065 7.65592 
6 1 3.74027 7.03143 6.89849 
37 1 0.726566 10.0499 10.0407 
38 1 2.26717 8.49989 8.5165 
39 1 1.56119 9.21198 9.21687 
13 1 6.27553 4.50224 4.74394 
14 1 7.7661 3.01073 3.12724 
15 1 7.08382 3.69361 3.88126 
28 1 10.0541 0.722045 0.702063 
29 1 8.54933 2.22374 2.24903 
30 1 9.25353 1.52447 1.52845 
1 1 6.04458 4.75249 6.43573 
2 1 7.90647 2.84598 7.42214 
3 1 6.98532 3.80531 7.33938 
40 1 10.034 0.738461 10.0421 
41 1 8.71764 2.0257 8.12899 
42 1 9.33316 1.4227 9.01381 
49 2 6.17379 4.67216 8.05399 
7 1 6.2044 6.11054 4.56838 
8 1 7.70734 7.63373 3.04165 
9 1 7.00917 6.92184 3.7525 
43 1 10.0089 10.0834 0.747092 
44 1 8.50542 8.48898 2.25645 
45 1 9.19694 9.22231 1.56173 
22 1 6.15237 6.39916 6.15867 
23 1 7.73794 7.85603 7.72331 
24 1 7.00719 7.19174 6.99876 
34 1 10.0961 10.0929 10.1118 
35 1 8.58477 8.60324 8.56548 
36 1 9.29229 9.29541 9.28858 
ITEM: TIMESTEP
160
ITEM: NUMBER OF ATOMS
49
ITEM: BOX BOUNDS pp pp pp
0.0000000000000000e+00 1.1000000000000000e+01
0.0000000000000000e+00 1.1002000000000001e+01
0.0000000000000000e+00 1.1000000000000000e+01
ITEM: ATOMS id type x y z 
10 1 4.67284 4.55983 4.58156 
11 1 3.14119 3.05795 3.06091 
12 1 3.85465 3.75721 3.76892 
46 1 0.693097 0.770994 0.746333 
47 1 2.28677 2.26976 2.26317 
48 1 1.55388 1.58073 1.56587 
19 1 4.40456 4.62728 6.18287 
20 1 2.94703 3.03797 7.7444 
21 1 3.61475 3.76988 7.02523 
31 1 0.683802 0.681389 10.1129 
32 1 2.18883 2.19092 8.57981 
33 1 1.48682 1.48586 9.2956 
16 1 4.56185 6.19845 4.40593 
17 1 2.99456 7.77519 2.9511 
18 1 3.71801 7.04664 3.61917 
25 1 0.649388 10.1314 0.67575 
26 1 2.16754 8.60952 2.17699 
27 1 1.45765 9.32134 1.47534 
4 1 4.52081 6.25515 6.03472 
5 1 3.0566 7.71169 7.65452 
6 1 3.73998 7.03197 6.89824 
37 1 0.728506 10.0495 10.0429 
38 1 2.26703 8.50059 8.51596 
39 1 1.56033 9.2119 9.21732 
13 1 6.27597 4.50284 4.74459 
14 1 7.7667 3.00992 3.12854 
15 1 7.08493 3.69279 3.88353 
28 1 10.0533 0.72296 0.699575 
29 1 8.55088 2.22368 2.25046 
30 1 9.25146 1.52395 1.5269 
1 1 6.04527 4.75317 6.43691 
2 1 7.908 2.84428 7.42039 
3 1 6.98614 3.8045 7.34062 
40 1 10.0355 0.737428 10.0406 
41 1 8.72159 2.02123 8.12415 
42 1 9.33207 1.42479 9.01592 
49 2 6.17486 4.67104 8.05496 
7 1 6.20429 6.10922 4.56808 
8 1 7.70879 7.63189 3.04165 
9 1 7.0082 6.9226 3.7526 
43 1 10.0086 10.0843 0.747408 
44 1 8.50537 8.48831 2.25573 
45 1 9.1967 9.22248 1.56211 
22 1 6.15033 6.39884 6.15965 
23 1 7.7375 7.85672 7.7222 
24 1 7.0059 7.1926 6.99934 
34 1 10.0961 10.0928 10.1122 
35 1 8.58548 8.60291 8.56638 
36 1 9.29058 9.29875 9.28803 
ITEM: TIMESTEP
170
ITEM: NUMBER OF ATOMS
49
ITEM: BOX BOUNDS pp pp pp
0.0000000000000000e+00 1.1000000000000000e+01
0.0000000000000000e+00 1.1002000000000001e+01
0.0000000000000000e+00 1.1000000000000000e+01
ITEM: ATOMS id type x y z 
10 1 4.67282 4.55981 4.58175 
11 1 3.14153 3.05779 3.06082 
12 1 3.85456 3.75719 3.76908 
46 1 0.692976 0.771059 0.746364 
47 1 2.28674 2.26967 2.26306 
48 1 1.55395 1.58071 1.56588 
19 1 4.40446 4.62742 6.18283 
20 1 2.94682 3.03811 7.74437 
21 1 3.61467 3.76998 7.02522 
31 1 0.684038 0.681175 10.113 
32 1 2.18886 2.19084 8.57987 
33 1 1.48635 1.48616 9.29553 
16 1 4.56191 6.19841 4.40564 
17 1 2.99467 7.77504 2.9507 
18 1 3.718 7.04673 3.61927 
25 1 0.649256 10.1317 0.676036 
26 1 2.16752 8.60956 2.17703 
27 1 1.45766 9.32121 1.47523 
4 1 4.52077 6.25525 6.03475 
5 1 3.05643 7.7119 7.65431 
6 1 3.73982 7.03205 6.89813 
37 1 0.728633 10.0494 10.0433 
38 1 2.26682 8.50072 8.51589 
39 1 1.56034 9.21205 9.21751 
13 1 6.27602 4.50296 4.74477 
14 1 7.76675 3.00983 3.12888 
15 1 7.08512 3.69265 3.88393 
28 1 10.0532 0.723136 0.699285 
29 1 8.55093 2.22366 2.25047 
30 1 9.25152 1.52388 1.52705 
1 1 6.04532 4.75326 6.43708 
2 1 7.90821 2.84404 7.42007 
3 1 6.98632 3.80432 7.34076 
40 1 10.0353 0.737798 10.0408 
41 1 8.72176 2.02107 8.12363 
42 1 9.33254 1.42431 9.0151 
49 2 6.17506 4.67081 8.05506 
7 1 6.20432 6.10904 4.56809 
8 1 7.70894 7.63164 3.04168 
9 1 7.00818 6.92252 3.75261 
43 1 10.0085 10.0844 0.747494 
44 1 8.50536 8.48824 2.25566 
45 1 9.1967 9.22244 1.56205 