ITEM: TIMESTEP
0
ITEM: NUMBER OF ATOMS
145
ITEM: BOX BOUNDS pp pp pp
0.0000000000000000e+00 2.1884000000000000e+01
0.0000000000000000e+00 2.1885999999999999e+01
0.0000000000000000e+00 2.1885000000000002e+01
ITEM: ATOMS id type x y z 
16 1 1.605 12.547 12.547 
32 1 0.024 10.965 10.965 
64 1 4.318 12.218 12.218 
68 1 1.276 15.26 12.218 
78 1 1.276 12.218 15.26 
112 1 3.118 12.317 12.317 
116 1 1.375 14.061 12.317 
126 1 1.375 12.317 14.061 
144 1 0.722 11.664 11.663 
9 1 8.524 12.547 12.547 
25 1 10.105 10.965 10.965 
57 1 5.811 12.218 12.218 
65 1 8.853 15.26 12.218 
73 1 8.853 12.219 15.26 
105 1 7.01 12.317 12.317 
113 1 8.754 14.061 12.317 
121 1 8.754 12.317 14.061 
137 1 9.407 11.664 11.664 
11 1 1.605 19.466 12.547 
27 1 0.023 21.047 10.964 
59 1 4.318 19.795 12.218 
69 1 1.276 16.754 12.218 
79 1 1.276 19.795 15.26 
107 1 3.119 19.696 12.317 
117 1 1.375 17.953 12.317 
127 1 1.375 19.696 14.061 
139 1 0.721 20.349 11.663 
14 1 8.524 19.467 12.547 
30 1 10.106 21.049 10.966 
62 1 5.811 19.795 12.218 
72 1 8.853 16.753 12.218 
76 1 8.853 19.796 15.26 
110 1 7.01 19.696 12.317 
120 1 8.754 17.953 12.317 
124 1 8.754 19.697 14.061 
142 1 9.407 20.35 11.664 
13 1 1.605 12.547 19.466 
29 1 0.023 10.966 21.048 
61 1 4.318 12.218 19.795 
71 1 1.276 15.26 19.795 
75 1 1.276 12.218 16.754 
109 1 3.119 12.317 19.696 
119 1 1.375 14.061 19.696 
123 1 1.375 12.317 17.953 
141 1 0.721 11.664 20.35 
12 1 8.524 12.547 19.466 
28 1 10.106 10.965 21.047 
60 1 5.811 12.219 19.795 
70 1 8.853 15.26 19.796 
80 1 8.853 12.219 16.754 
108 1 7.011 12.317 19.696 
118 1 8.754 14.061 19.696 
128 1 8.754 12.318 17.953 
140 1 9.408 11.664 20.349 
10 1 1.604 19.466 19.466 
26 1 0.023 21.047 21.049 
58 1 4.317 19.796 19.795 
66 1 1.276 16.754 19.795 
74 1 1.276 19.795 16.753 
106 1 3.118 19.696 19.696 
114 1 1.375 17.953 19.696 
122 1 1.375 19.696 17.952 
138 1 0.721 20.349 20.35 
15 1 8.524 19.467 19.466 
31 1 10.106 21.048 21.049 
63 1 5.811 19.796 19.795 
67 1 8.853 16.754 19.795 
77 1 8.853 19.796 16.753 
111 1 7.01 19.697 19.696 
115 1 8.754 17.953 19.696 
125 1 8.754 19.697 17.952 
143 1 9.407 20.35 20.35 
8 1 12.547 1.604 1.605 
24 1 10.965 0.023 0.022 
40 1 15.26 1.275 1.276 
44 1 12.218 4.317 1.276 
54 1 12.218 1.275 4.318 
88 1 14.061 1.374 1.375 
92 1 12.317 3.118 1.375 
102 1 12.317 1.374 3.119 
136 1 11.664 0.721 0.721 
1 1 19.466 1.604 1.604 
17 1 21.048 0.023 0.022 
33 1 16.753 1.275 1.276 
41 1 19.795 4.317 1.276 
49 1 19.795 1.275 4.317 
81 1 17.952 1.374 1.375 
89 1 19.696 3.118 1.375 
97 1 19.696 1.374 3.118 
129 1 20.35 0.722 0.721 
3 1 12.546 8.524 1.604 
19 1 10.965 10.106 0.024 
35 1 15.26 8.852 1.276 
45 1 12.218 5.811 1.275 
55 1 12.218 8.852 4.317 
83 1 14.06 8.753 1.375 
93 1 12.317 7.01 1.374 
103 1 12.317 8.753 3.118 
131 1 11.663 9.407 0.722 
6 1 19.466 8.524 1.605 
22 1 21.048 10.105 0.023 
38 1 16.753 8.852 1.276 
48 1 19.795 5.811 1.276 
52 1 19.795 8.853 4.318 
86 1 17.952 8.754 1.375 
96 1 19.696 7.01 1.375 
100 1 19.696 8.754 3.118 
134 1 20.35 9.407 0.721 
5 1 12.547 1.604 8.524 
21 1 10.965 0.022 10.105 
37 1 15.26 1.275 8.853 
47 1 12.218 4.317 8.853 
51 1 12.218 1.276 5.811 
85 1 14.06 1.374 8.754 
95 1 12.317 3.118 8.754 
99 1 12.317 1.375 7.01 
133 1 11.663 0.72 9.407 
4 1 19.466 1.605 8.524 
20 1 21.048 0.024 10.107 
36 1 16.753 1.275 8.853 
46 1 19.795 4.317 8.853 
56 1 19.795 1.275 5.811 
84 1 17.952 1.374 8.754 
94 1 19.695 3.118 8.754 
104 1 19.696 1.374 7.01 
132 1 20.35 0.722 9.408 
2 1 12.547 8.524 8.524 
18 1 10.965 10.106 10.106 
34 1 15.26 8.853 8.853 
42 1 12.218 5.811 8.853 
50 1 12.218 8.852 5.811 
82 1 14.061 8.754 8.754 
90 1 12.317 7.01 8.754 
98 1 12.317 8.754 7.01 
130 1 11.664 9.407 9.407 
7 1 19.466 8.524 8.524 
23 1 21.047 10.106 10.106 
39 1 16.753 8.853 8.853 
43 1 19.795 5.811 8.853 
53 1 19.795 8.853 5.811 
87 1 17.952 8.754 8.754 
91 1 19.696 7.01 8.754 
101 1 19.696 8.754 7.01 
135 1 20.349 9.407 9.407 
145 2 17.952 8.754 10.104 
ITEM: TIMESTEP
10
ITEM: NUMBER OF ATOMS
145
ITEM: BOX BOUNDS pp pp pp
0.0000000000000000e+00 2.1884000000000000e+01
0.0000000000000000e+00 2.1885999999999999e+01
0.0000000000000000e+00 2.1885000000000002e+01
ITEM: ATOMS id type x y z 
16 1 1.60474 12.547 12.5469 
32 1 0.0226087 10.9642 10.964 
64 1 4.31542 12.2184 12.2184 
68 1 1.27618 15.2603 12.2182 
78 1 1.27619 12.2182 15.2602 
112 1 3.12012 12.317 12.317 
116 1 1.37518 14.0606 12.3172 
126 1 1.37518 12.3172 14.0606 
144 1 0.72071 11.662 11.6616 
9 1 8.52392 12.547 12.547 
25 1 10.1055 10.9647 10.9647 
57 1 5.80962 12.218 12.218 
65 1 8.85295 15.2613 12.218 
73 1 8.8528 12.219 15.2602 
105 1 7.0118 12.3173 12.3173 
113 1 8.75373 14.0593 12.3173 
121 1 8.75388 12.3173 14.0607 
137 1 9.40685 11.664 11.6638 
11 1 1.60496 19.4663 12.5469 
27 1 0.0229885 21.0474 10.9642 
59 1 4.31782 19.7949 12.2181 
69 1 1.27617 16.7536 12.2182 
79 1 1.27613 19.7949 15.2599 
107 1 3.11834 19.6958 12.3172 
117 1 1.37509 17.9529 12.3171 
127 1 1.37517 19.6958 14.0602 
139 1 0.721157 20.349 11.663 
14 1 8.52418 19.4667 12.5469 
30 1 10.1043 21.0473 10.9673 
62 1 5.81087 19.7949 12.2181 
72 1 8.85261 16.7556 12.2184 
76 1 8.85288 19.7959 15.2601 
110 1 7.01063 19.6959 12.3172 
120 1 8.75405 17.9507 12.3169 
124 1 8.75384 19.6968 14.0604 
142 1 9.40856 20.3516 11.6627 
13 1 1.60503 12.5472 19.4663 
29 1 0.0226568 10.9657 21.0484 
61 1 4.31932 12.2181 19.795 
71 1 1.27618 15.2602 19.7948 
75 1 1.27617 12.2182 16.7536 
109 1 3.11704 12.3173 19.6957 
119 1 1.37517 14.0607 19.6959 
123 1 1.37511 12.3171 17.9529 
141 1 0.721672 11.6643 20.3493 
12 1 8.52409 12.5472 19.4665 
28 1 10.106 10.9653 21.0474 
60 1 5.81335 12.2191 19.7946 
70 1 8.85282 15.2601 19.7956 
80 1 8.85285 12.2192 16.7536 
108 1 7.00868 12.3171 19.6961 
118 1 8.75392 14.0615 19.6962 
128 1 8.75396 12.318 17.9525 
140 1 9.40823 11.6632 20.3491 
10 1 1.60423 19.4661 19.4662 
26 1 0.0224937 21.0476 21.0496 
58 1 4.31701 19.7956 19.7948 
66 1 1.27619 16.7536 19.7949 
74 1 1.27616 19.7949 16.7531 
106 1 3.11844 19.6961 19.6959 
114 1 1.37499 17.9528 19.6959 
122 1 1.37505 19.6959 17.9525 
138 1 0.721271 20.3489 20.3493 
15 1 8.52397 19.4669 19.4662 
31 1 10.1054 21.0477 21.0486 
63 1 5.81064 19.7958 19.7948 
67 1 8.85281 16.7537 19.7949 
77 1 8.85285 19.7958 16.7533 
111 1 7.01034 19.6968 19.6958 
115 1 8.7538 17.9534 19.6958 
125 1 8.75379 19.6968 17.9527 
143 1 9.40764 20.3504 20.35 
8 1 12.547 1.60407 1.60477 
24 1 10.9655 0.0232315 0.0223329 
40 1 15.2599 1.27514 1.27614 
44 1 12.2182 4.31716 1.2761 
54 1 12.2181 1.27524 4.31784 
88 1 14.0603 1.37419 1.37519 
92 1 12.3172 3.11777 1.37519 
102 1 12.3172 1.37415 3.11826 
136 1 11.6633 0.720594 0.720937 
1 1 19.4661 1.60413 1.60406 
17 1 21.0472 0.0239067 0.0230383 
33 1 16.7531 1.27512 1.27618 
41 1 19.7948 4.31727 1.27622 
49 1 19.7948 1.27518 4.31732 
81 1 17.9525 1.37418 1.37505 
89 1 19.6959 3.11812 1.37502 
97 1 19.6959 1.37411 3.11811 
129 1 20.3508 0.72062 0.719979 
3 1 12.5465 8.52388 1.60401 
19 1 10.9649 10.106 0.0235386 
35 1 15.2573 8.85155 1.27642 
45 1 12.2182 5.81054 1.27523 
55 1 12.2182 8.85183 4.31803 
83 1 14.0626 8.75317 1.37483 
93 1 12.3169 7.00974 1.37404 
103 1 12.317 8.75298 3.11815 
131 1 11.6627 9.40757 0.72171 
6 1 19.466 8.52391 1.60484 
22 1 21.0481 10.1051 0.0223967 
38 1 16.7513 8.85214 1.27603 
48 1 19.7948 5.81065 1.27619 
52 1 19.7943 8.85229 4.31674 
86 1 17.9545 8.75349 1.37531 
96 1 19.6958 7.01046 1.37519 
100 1 19.6963 8.75425 3.12334 
134 1 20.3495 9.40682 0.722302 
5 1 12.5467 1.60407 8.52393 
21 1 10.9634 0.0208504 10.1061 
37 1 15.2576 1.27538 8.85263 
47 1 12.2181 4.3181 8.85289 
51 1 12.2181 1.27607 5.81086 
85 1 14.0623 1.37396 8.75404 
95 1 12.3171 3.11768 8.75386 
99 1 12.3172 1.37511 7.0107 
133 1 11.6651 0.721327 9.40602 
4 1 19.4659 1.60484 8.52404 
20 1 21.0479 0.0238388 10.1066 
36 1 16.7517 1.275 8.85294 
46 1 19.7943 4.31821 8.8525 
56 1 19.7948 1.27517 5.81092 
84 1 17.9542 1.37445 8.75365 
94 1 19.6954 3.12126 8.75402 
104 1 19.6958 1.3743 7.01042 
132 1 20.3495 0.722228 9.4078 
2 1 12.5533 8.52596 8.52592 
18 1 10.9662 10.1046 10.1045 
34 1 15.2841 8.84516 8.84047 
42 1 12.2182 5.8107 8.85269 
50 1 12.2182 8.85185 5.8105 
82 1 14.0556 8.75411 8.75025 
90 1 12.3174 7.00947 8.75412 
98 1 12.3173 8.75397 7.00979 
130 1 11.663 9.40845 9.4086 
7 1 19.5326 8.50591 8.5024 
23 1 21.046 10.1061 10.1062 
39 1 16.7296 8.8541 8.90595 
43 1 19.7926 5.81066 8.85338 
53 1 19.7928 8.85335 5.80957 
87 1 17.9186 8.77094 8.71054 
91 1 19.6984 7.01747 8.75093 
101 1 19.6985 8.75078 7.01837 
135 1 20.3483 9.40205 9.40098 
145 2 17.9199 8.75777 10.1296 
ITEM: TIMESTEP
20
ITEM: NUMBER OF ATOMS
145
ITEM: BOX BOUNDS pp pp pp
0.0000000000000000e+00 2.1884000000000000e+01
0.0000000000000000e+00 2.1885999999999999e+01
0.0000000000000000e+00 2.1885000000000002e+01
ITEM: ATOMS id type x y z 
16 1 1.60424 12.5461 12.546 
32 1 0.0207797 10.9634 10.9632 
64 1 4.31697 12.2186 12.2186 
68 1 1.27662 15.2595 12.2186 
78 1 1.27663 12.2186 15.2595 
112 1 3.1177 12.3174 12.3174 
116 1 1.3754 14.0603 12.3174 
126 1 1.3754 12.3174 14.0603 
144 1 0.72027 11.6622 11.6621 
9 1 8.52381 12.5473 12.547 
25 1 10.105 10.9654 10.9654 
57 1 5.81114 12.2186 12.2186 
65 1 8.85247 15.2595 12.2186 
73 1 8.85251 12.2192 15.2599 
105 1 7.00996 12.3174 12.3173 
113 1 8.75364 14.0607 12.3173 
121 1 8.75367 12.3177 14.0608 
137 1 9.40634 11.6638 11.6637 
11 1 1.60463 19.4663 12.5466 
27 1 0.0228191 21.0477 10.9643 
59 1 4.31767 19.7945 12.2184 
69 1 1.27648 16.7532 12.2185 
79 1 1.27646 19.7946 15.2597 
107 1 3.11845 19.6957 12.3173 
117 1 1.37524 17.9524 12.3172 
127 1 1.37529 19.6957 14.0605 
139 1 0.721092 20.3496 11.6629 
14 1 8.5241 19.4664 12.5471 
30 1 10.1054 21.0486 10.966 
62 1 5.81114 19.7945 12.2184 
72 1 8.85248 16.7537 12.2185 
76 1 8.85254 19.7956 15.2599 
110 1 7.01033 19.6958 12.3173 
120 1 8.75373 17.9529 12.3173 
124 1 8.75371 19.6966 14.0608 
142 1 9.40723 20.3497 11.664 
13 1 1.6049 12.547 19.4664 
29 1 0.0227199 10.9656 21.0482 
61 1 4.31748 12.2187 19.7945 
71 1 1.27648 15.26 19.7945 
75 1 1.27649 12.2185 16.7532 
109 1 3.11855 12.3174 19.6958 
119 1 1.37537 14.0608 19.6957 
123 1 1.37526 12.3173 17.9524 
141 1 0.721431 11.6637 20.35 
12 1 8.52425 12.5472 19.4664 
28 1 10.1061 10.9652 21.0474 
60 1 5.81148 12.219 19.7945 
70 1 8.85255 15.2604 19.7951 
80 1 8.85259 12.2195 16.7534 
108 1 7.01076 12.3176 19.6958 
118 1 8.7537 14.0613 19.6961 
128 1 8.75377 12.3181 17.9526 
140 1 9.40769 11.6637 20.3494 
10 1 1.60436 19.4664 19.4663 
26 1 0.0230465 21.0475 21.0486 
58 1 4.3174 19.7953 19.7945 
66 1 1.27645 16.7535 19.7946 
74 1 1.27645 19.7946 16.7531 
106 1 3.11825 19.6961 19.6957 
114 1 1.37509 17.9527 19.6958 
122 1 1.37511 19.6958 17.9523 
138 1 0.720969 20.3492 20.3502 
15 1 8.52403 19.4669 19.4663 
31 1 10.1057 21.0481 21.0485 
63 1 5.81097 19.7955 19.7945 
67 1 8.85248 16.754 19.7947 
77 1 8.85253 19.7955 16.7534 
111 1 7.01011 19.6967 19.6957 
115 1 8.7536 17.9531 19.6957 
125 1 8.75364 19.6966 17.9526 
143 1 9.40725 20.3501 20.35 
8 1 12.5468 1.60403 1.60461 
24 1 10.9653 0.022759 0.0223557 
40 1 15.2598 1.27544 1.27648 
44 1 12.2185 4.31704 1.27633 
54 1 12.2184 1.27563 4.31764 
88 1 14.0606 1.37435 1.37529 
92 1 12.3173 3.1179 1.37535 
102 1 12.3173 1.3743 3.11844 
136 1 11.6635 0.720825 0.721063 
1 1 19.4663 1.60427 1.60436 
17 1 21.0479 0.0229556 0.0225393 
33 1 16.7533 1.27542 1.2765 
41 1 19.7945 4.31749 1.27655 
49 1 19.7945 1.27548 4.31758 
81 1 17.9525 1.3744 1.37514 
89 1 19.6957 3.11826 1.37515 
97 1 19.6958 1.37434 3.11836 
129 1 20.3496 0.721433 0.720923 
3 1 12.5466 8.52385 1.6045 
19 1 10.9649 10.1061 0.0235317 
35 1 15.2595 8.85143 1.27654 
45 1 12.2185 5.81061 1.2756 
55 1 12.2183 8.85154 4.31719 
83 1 14.0603 8.75288 1.37512 
93 1 12.3171 7.00977 1.37426 
103 1 12.3173 8.75278 3.11753 
131 1 11.6631 9.4072 0.721399 
6 1 19.4664 8.52425 1.60691 
22 1 21.0479 10.1049 0.0229368 
38 1 16.7539 8.85163 1.27656 
48 1 19.7944 5.81104 1.27652 
52 1 19.7932 8.85253 4.32041 
86 1 17.9527 8.75335 1.37555 
96 1 19.6957 7.01022 1.3756 
100 1 19.6957 8.75342 3.11979 
134 1 20.3493 9.40736 0.721923 
5 1 12.547 1.60425 8.52412 
21 1 10.9654 0.0221461 10.1047 
37 1 15.2598 1.27548 8.85248 
47 1 12.2184 4.317 8.85257 
51 1 12.2184 1.27632 5.81111 
85 1 14.0606 1.3743 8.75374 
95 1 12.3174 3.11746 8.75368 
99 1 12.3173 1.37513 7.01022 
133 1 11.6633 0.720877 9.40729 
4 1 19.4662 1.60646 8.52436 
20 1 21.0476 0.0236767 10.106 
36 1 16.7539 1.27552 8.85233 
46 1 19.7928 4.32103 8.85254 
56 1 19.7944 1.27552 5.81127 
84 1 17.9528 1.3748 8.75362 
94 1 19.6952 3.12033 8.75335 
104 1 19.6956 1.3748 7.01047 
132 1 20.3494 0.722383 9.40788 
2 1 12.5554 8.52692 8.52651 
18 1 10.9632 10.1059 10.1059 
34 1 15.2666 8.83721 8.83193 
42 1 12.2178 5.8092 8.85232 
50 1 12.2177 8.85158 5.80919 
82 1 14.0599 8.75383 8.73996 
90 1 12.319 7.00895 8.75489 
98 1 12.3186 8.75457 7.00898 
130 1 11.6664 9.4095 9.40968 
7 1 19.5731 8.49752 8.49568 
23 1 21.0431 10.1077 10.1076 
39 1 16.727 8.85724 9.01189 
43 1 19.7871 5.81045 8.85462 
53 1 19.7877 8.85436 5.81025 
87 1 17.9265 8.78137 8.68638 
91 1 19.7109 7.01227 8.7472 
101 1 19.7121 8.74677 7.01188 
135 1 20.3617 9.40004 9.39911 
145 2 17.8633 8.76392 10.0786 
ITEM: TIMESTEP
27
ITEM: NUMBER OF ATOMS
145
ITEM: BOX BOUNDS pp pp pp
0.0000000000000000e+00 2.1884000000000000e+01
0.0000000000000000e+00 2.1885999999999999e+01
0.0000000000000000e+00 2.1885000000000002e+01
ITEM: ATOMS id type x y z 
16 1 1.60391 12.5457 12.5457 
32 1 0.0201976 10.9637 10.9637 
64 1 4.31738 12.2188 12.2188 
68 1 1.27678 15.2595 12.2188 
78 1 1.2768 12.2188 15.2595 
112 1 3.11758 12.3174 12.3174 
116 1 1.37543 14.0603 12.3174 
126 1 1.37543 12.3174 14.0602 
144 1 0.720628 11.6631 11.6629 
9 1 8.52385 12.5472 12.547 
25 1 10.1045 10.9657 10.9656 
57 1 5.81085 12.2187 12.2187 
65 1 8.85235 15.2597 12.2187 
73 1 8.85241 12.2193 15.26 
105 1 7.00947 12.3174 12.3174 
113 1 8.75361 14.0612 12.3173 
121 1 8.7536 12.3177 14.0608 
137 1 9.40625 11.6638 11.6638 
11 1 1.60453 19.4662 12.5465 
27 1 0.0227526 21.0478 10.9644 
59 1 4.31761 19.7944 12.2186 
69 1 1.27664 16.7531 12.2186 
79 1 1.27661 19.7944 15.2596 
107 1 3.11835 19.6956 12.3174 
117 1 1.3753 17.9524 12.3173 
127 1 1.37534 19.6957 14.0604 
139 1 0.721206 20.3498 11.6629 
14 1 8.52402 19.4665 12.5471 
30 1 10.1057 21.049 10.9654 
62 1 5.8111 19.7944 12.2185 
72 1 8.85238 16.7532 12.2186 
76 1 8.85242 19.7955 15.2599 
110 1 7.01034 19.6958 12.3174 
120 1 8.75364 17.953 12.3174 
124 1 8.75364 19.6965 14.0607 
142 1 9.4073 20.3496 11.6642 
13 1 1.60476 12.547 19.4664 
29 1 0.0228259 10.9656 21.0483 
61 1 4.31751 12.2189 19.7943 
71 1 1.27662 15.26 19.7944 
75 1 1.27664 12.2186 16.7531 
109 1 3.11884 12.3174 19.6957 
119 1 1.37544 14.0608 19.6957 
123 1 1.37535 12.3174 17.9524 
141 1 0.721364 11.6635 20.3498 
12 1 8.52439 12.5473 19.4664 
28 1 10.1061 10.9652 21.0474 
60 1 5.81103 12.2191 19.7944 
70 1 8.85241 15.2604 19.7949 
80 1 8.85246 12.2196 16.7534 
108 1 7.01081 12.3178 19.6958 
118 1 8.75364 14.0612 19.6961 
128 1 8.75372 12.3182 17.9526 
140 1 9.40744 11.6637 20.3495 
10 1 1.6044 19.4664 19.4664 
26 1 0.0231353 21.0475 21.0486 
58 1 4.31745 19.7951 19.7944 
66 1 1.27656 16.7534 19.7944 
74 1 1.27657 19.7944 16.7531 
106 1 3.11823 19.696 19.6956 
114 1 1.37516 17.9526 19.6957 
122 1 1.37516 19.6957 17.9523 
138 1 0.720737 20.3494 20.3502 
15 1 8.52401 19.467 19.4664 
31 1 10.1056 21.0483 21.0484 
63 1 5.81098 19.7954 19.7943 
67 1 8.85236 16.754 19.7945 
77 1 8.85241 19.7954 16.7534 
111 1 7.01007 19.6966 19.6956 
115 1 8.75352 17.9531 19.6956 
125 1 8.75357 19.6966 17.9526 
143 1 9.40737 20.3499 20.3501 
8 1 12.5468 1.60393 1.6046 
24 1 10.9654 0.0226076 0.0224455 
40 1 15.2598 1.27556 1.27662 
44 1 12.2186 4.31703 1.27644 
54 1 12.2186 1.27577 4.31762 
88 1 14.0606 1.37441 1.37534 
92 1 12.3174 3.11786 1.3754 
102 1 12.3174 1.37438 3.11836 
136 1 11.6634 0.720977 0.720992 
1 1 19.4663 1.60435 1.6044 
17 1 21.0481 0.0227908 0.0223717 
33 1 16.7533 1.27556 1.27663 
41 1 19.7943 4.31752 1.27666 
49 1 19.7943 1.27561 4.31767 
81 1 17.9525 1.37449 1.37521 
89 1 19.6956 3.11823 1.37524 
97 1 19.6957 1.37445 3.11838 
129 1 20.3495 0.721326 0.721115 
3 1 12.5466 8.52377 1.60431 
19 1 10.965 10.1061 0.0233372 
35 1 15.2602 8.85133 1.27662 
45 1 12.2186 5.81058 1.27573 
55 1 12.2183 8.85141 4.31681 
83 1 14.0603 8.75283 1.37517 
93 1 12.3172 7.00975 1.37436 
103 1 12.3173 8.75271 3.11731 
131 1 11.6629 9.40717 0.721442 
6 1 19.4666 8.52426 1.60666 
22 1 21.0477 10.1051 0.0228246 
38 1 16.7537 8.85147 1.27669 
48 1 19.7943 5.81099 1.27663 
52 1 19.7923 8.85289 4.32091 
86 1 17.9522 8.75335 1.3757 
96 1 19.6956 7.01017 1.3758 
100 1 19.6955 8.75322 3.1188 
134 1 20.3497 9.4073 0.722159 
5 1 12.5469 1.60427 8.52416 
21 1 10.9652 0.0222933 10.105 
37 1 15.2603 1.27557 8.85236 
47 1 12.2183 4.31669 8.85242 
51 1 12.2185 1.2764 5.8111 
85 1 14.0606 1.37438 8.75368 
95 1 12.3175 3.11736 8.75362 
99 1 12.3174 1.37518 7.01017 
133 1 11.6631 0.720198 9.40753 
4 1 19.4664 1.60655 8.52455 
20 1 21.0474 0.0236049 10.1062 
36 1 16.7538 1.27564 8.85216 
46 1 19.7919 4.32104 8.85286 
56 1 19.7942 1.27564 5.81121 
84 1 17.9524 1.37499 8.75363 
94 1 19.695 3.1193 8.75314 
104 1 19.6956 1.37504 7.01043 
132 1 20.3498 0.722261 9.4074 
2 1 12.5521 8.52617 8.52499 
18 1 10.9639 10.106 10.1061 
34 1 15.2562 8.83622 8.83441 
42 1 12.2181 5.81051 8.85226 
50 1 12.2179 8.85153 5.81037 
82 1 14.058 8.75256 8.73487 
90 1 12.3193 7.0092 8.7547 
98 1 12.3187 8.75434 7.00928 
130 1 11.6663 9.40922 9.40903 
7 1 19.5697 8.4996 8.49567 
23 1 21.0439 10.1093 10.1094 
39 1 16.7426 8.86052 9.03843 
43 1 19.7864 5.80877 8.85501 
53 1 19.7872 8.85462 5.808 
87 1 17.931 8.77918 8.67213 
91 1 19.7159 7.0104 8.74651 
101 1 19.7178 8.74581 7.00935 
135 1 20.3676 9.39946 9.39852 
145 2 17.8481 8.7651 10.0728 
ITEM: TIMESTEP
30
ITEM: NUMBER OF ATOMS
145
ITEM: BOX BOUNDS pp pp pp
0.0000000000000000e+00 2.1884000000000000e+01
0.0000000000000000e+00 2.1885999999999999e+01
0.0000000000000000e+00 2.1885000000000002e+01
ITEM: ATOMS id type x y z 
16 1 1.6038 12.5457 12.5455 
32 1 0.0209166 10.965 10.9646 
64 1 4.31666 12.2189 12.2189 
68 1 1.27683 15.2596 12.2189 
78 1 1.27685 12.2189 15.2596 
112 1 3.11842 12.3173 12.3173 
116 1 1.37541 14.0603 12.3174 
126 1 1.37541 12.3174 14.0603 
144 1 0.719865 11.6623 11.6625 
9 1 8.52367 12.5471 12.547 
25 1 10.1046 10.9653 10.9653 
57 1 5.81011 12.2187 12.2187 
65 1 8.85239 15.2605 12.2186 
73 1 8.85237 12.2194 15.2599 
105 1 7.01031 12.3175 12.3175 
113 1 8.75351 14.0603 12.3174 
121 1 8.75357 12.3178 14.0608 
137 1 9.40621 11.6642 11.664 
11 1 1.60455 19.4664 12.5466 
27 1 0.0228451 21.0481 10.9646 
59 1 4.31755 19.7944 12.2186 
69 1 1.2767 16.7532 12.2187 
79 1 1.27666 19.7944 15.2596 
107 1 3.11843 19.6956 12.3174 
117 1 1.37531 17.9522 12.3173 
127 1 1.37536 19.6956 14.0604 
139 1 0.721062 20.3494 11.6625 
14 1 8.52427 19.4665 12.5472 
30 1 10.1052 21.0481 10.9664 
62 1 5.81107 19.7944 12.2186 
72 1 8.85227 16.754 12.2187 
76 1 8.85238 19.7954 15.26 
110 1 7.0102 19.6957 12.3174 
120 1 8.7537 17.9521 12.3174 
124 1 8.75362 19.6965 14.0608 
142 1 9.4077 20.3505 11.663 
13 1 1.60483 12.5468 19.4663 
29 1 0.0229394 10.9653 21.0481 
61 1 4.31826 12.2188 19.7943 
71 1 1.27667 15.2599 19.7943 
75 1 1.27672 12.2187 16.7533 
109 1 3.11804 12.3175 19.6956 
119 1 1.37546 14.0608 19.6956 
123 1 1.37536 12.3174 17.9522 
141 1 0.721193 11.6639 20.35 
12 1 8.52432 12.5473 19.4665 
28 1 10.106 10.9653 21.0475 
60 1 5.81178 12.2192 19.7943 
70 1 8.85235 15.2604 19.7949 
80 1 8.85243 12.2196 16.7534 
108 1 7.00998 12.3177 19.6958 
118 1 8.75364 14.0613 19.6961 
128 1 8.7537 12.3182 17.9527 
140 1 9.40768 11.6636 20.3493 
10 1 1.60422 19.4664 19.4662 
26 1 0.0224739 21.048 21.0488 
58 1 4.31735 19.7951 19.7943 
66 1 1.2766 16.7534 19.7944 
74 1 1.27662 19.7944 16.7531 
106 1 3.1183 19.696 19.6956 
114 1 1.37519 17.9527 19.6957 
122 1 1.37519 19.6957 17.9523 
138 1 0.721601 20.3491 20.3501 
15 1 8.52394 19.467 19.4665 
31 1 10.1056 21.0483 21.0485 
63 1 5.81085 19.7953 19.7943 
67 1 8.85232 16.7539 19.7945 
77 1 8.85236 19.7954 16.7535 
111 1 7.0102 19.6966 19.6956 
115 1 8.75349 17.9532 19.6956 
125 1 8.75356 19.6966 17.9526 
143 1 9.40751 20.35 20.3498 
8 1 12.5466 1.60397 1.60472 
24 1 10.9651 0.0226222 0.0226107 
40 1 15.2598 1.27561 1.27666 
44 1 12.2187 4.31701 1.27647 
54 1 12.2186 1.27583 4.31752 
88 1 14.0606 1.37443 1.37536 
92 1 12.3174 3.11787 1.37542 
102 1 12.3174 1.3744 3.11845 
136 1 11.6638 0.720911 0.720712 
1 1 19.4663 1.60437 1.60433 
17 1 21.0476 0.0232422 0.0227135 
33 1 16.7533 1.27561 1.27667 
41 1 19.7943 4.31745 1.2767 
49 1 19.7942 1.27566 4.31761 
81 1 17.9524 1.37451 1.37522 
89 1 19.6956 3.11833 1.37526 
97 1 19.6957 1.37447 3.11851 
129 1 20.35 0.720781 0.720871 
3 1 12.5464 8.52372 1.60437 
19 1 10.9647 10.106 0.023446 
35 1 15.2593 8.85121 1.27674 
45 1 12.2186 5.81052 1.27577 
55 1 12.2184 8.85132 4.31638 
83 1 14.0613 8.75289 1.3751 
93 1 12.3172 7.00973 1.37438 
103 1 12.3173 8.75276 3.1179 
131 1 11.6633 9.40727 0.721099 
6 1 19.4665 8.52446 1.60668 
22 1 21.0475 10.1053 0.0229377 
38 1 16.7526 8.85154 1.27663 
48 1 19.7942 5.81084 1.27666 
52 1 19.7918 8.85284 4.31881 
86 1 17.9532 8.75326 1.37583 
96 1 19.6956 7.01017 1.37584 
100 1 19.6955 8.75332 3.12026 
134 1 20.3501 9.40704 0.721935 
5 1 12.547 1.60429 8.52428 
21 1 10.9645 0.021608 10.106 
37 1 15.2596 1.27567 8.85225 
47 1 12.2184 4.31632 8.85233 
51 1 12.2186 1.27642 5.81096 
85 1 14.0613 1.37436 8.7537 
95 1 12.3174 3.11774 8.75364 
99 1 12.3174 1.37521 7.01034 
133 1 11.6639 0.720826 9.40642 
4 1 19.4666 1.60659 8.52447 
20 1 21.0476 0.0236054 10.1061 
36 1 16.7529 1.2756 8.8522 
46 1 19.7914 4.31935 8.85284 
56 1 19.7941 1.27568 5.81114 
84 1 17.9532 1.37511 8.75357 
94 1 19.695 3.12049 8.75322 
104 1 19.6956 1.3751 7.01037 
132 1 20.3496 0.722102 9.40763 
2 1 12.5506 8.52572 8.5244 
18 1 10.9647 10.1054 10.1057 
34 1 15.2515 8.83608 8.83541 
42 1 12.2182 5.81042 8.85229 
50 1 12.218 8.85154 5.8103 
82 1 14.0579 8.75216 8.73342 
90 1 12.3193 7.00959 8.75457 
98 1 12.3187 8.75425 7.00936 
130 1 11.6653 9.40997 9.40957 
7 1 19.5667 8.50044 8.49577 
23 1 21.0448 10.1102 10.1103 
39 1 16.7466 8.86178 9.04336 
43 1 19.7865 5.80735 8.85518 
53 1 19.7875 8.85482 5.80563 
87 1 17.9335 8.77813 8.673 
91 1 19.7171 7.01101 8.74628 
101 1 19.7192 8.74545 7.01056 
135 1 20.3688 9.39881 9.39775 
145 2 17.8466 8.76524 10.069 
ITEM: TIMESTEP
40
ITEM: NUMBER OF ATOMS
145
ITEM: BOX BOUNDS pp pp pp
0.0000000000000000e+00 2.1884000000000000e+01
0.0000000000000000e+00 2.1885999999999999e+01
0.0000000000000000e+00 2.1885000000000002e+01
ITEM: ATOMS id type x y z 
16 1 1.60368 12.5459 12.5453 
32 1 0.020124 10.9661 10.9653 
64 1 4.31729 12.219 12.219 
68 1 1.27701 15.2597 12.219 
78 1 1.27703 12.219 15.2597 
112 1 3.11799 12.3173 12.3173 
116 1 1.37536 14.0605 12.3173 
126 1 1.37537 12.3174 14.0604 
144 1 0.720851 11.6633 11.6645 
9 1 8.52365 12.5472 12.5471 
25 1 10.1043 10.9656 10.9657 
57 1 5.81059 12.2189 12.2189 
65 1 8.85219 15.2601 12.2188 
73 1 8.85224 12.2195 15.26 
105 1 7.00976 12.3176 12.3175 
113 1 8.75344 14.061 12.3175 
121 1 8.75345 12.3179 14.0608 
137 1 9.40619 11.664 11.6638 
11 1 1.60424 19.4662 12.5465 
27 1 0.0225818 21.0479 10.9647 
59 1 4.31756 19.7942 12.2188 
69 1 1.27689 16.7532 12.2189 
79 1 1.27685 19.7942 15.2596 
107 1 3.11835 19.6955 12.3174 
117 1 1.37542 17.9524 12.3174 
127 1 1.37543 19.6955 14.0604 
139 1 0.721646 20.3498 11.6626 
14 1 8.5239 19.4669 12.5471 
30 1 10.1052 21.0491 10.9656 
62 1 5.81104 19.7942 12.2188 
72 1 8.85217 16.7536 12.2189 
76 1 8.8522 19.7952 15.2599 
110 1 7.01024 19.6956 12.3175 
120 1 8.75353 17.9528 12.3175 
124 1 8.75351 19.6963 14.0608 
142 1 9.40801 20.3493 11.6637 
13 1 1.60488 12.547 19.4666 
29 1 0.0232345 10.9656 21.0485 
61 1 4.31776 12.2191 19.7941 
71 1 1.27686 15.2599 19.7942 
75 1 1.27691 12.2189 16.7532 
109 1 3.11855 12.3176 19.6956 
119 1 1.37555 14.0607 19.6955 
123 1 1.37548 12.3175 17.9524 
141 1 0.720876 11.6635 20.3491 
12 1 8.5241 12.5469 19.4664 
28 1 10.1056 10.9648 21.0475 
60 1 5.81121 12.2193 19.7942 
70 1 8.85218 15.2604 19.7947 
80 1 8.85226 12.2198 16.7535 
108 1 7.01045 12.3179 19.6957 
118 1 8.75355 14.0612 19.696 
128 1 8.75361 12.3183 17.9527 
140 1 9.40823 11.6646 20.3496 
10 1 1.60462 19.4668 19.4663 
26 1 0.0233136 21.0483 21.0485 
58 1 4.31742 19.7949 19.7942 
66 1 1.27677 16.7534 19.7942 
74 1 1.27679 19.7942 16.7531 
106 1 3.11823 19.6959 19.6955 
114 1 1.37528 17.9526 19.6956 
122 1 1.37527 19.6956 17.9523 
138 1 0.720379 20.3486 20.3503 
15 1 8.52397 19.467 19.4665 
31 1 10.1056 21.0483 21.0484 
63 1 5.81092 19.7951 19.7941 
67 1 8.85214 16.7539 19.7943 
77 1 8.85218 19.7952 16.7534 
111 1 7.01012 19.6965 19.6955 
115 1 8.7534 17.9531 19.6955 
125 1 8.75347 19.6965 17.9526 
143 1 9.40744 20.3501 20.3498 
8 1 12.5469 1.60361 1.60473 
24 1 10.9654 0.0221314 0.0227555 
40 1 15.2598 1.27578 1.27685 
44 1 12.2189 4.31702 1.27662 
54 1 12.2188 1.27602 4.3176 
88 1 14.0606 1.37453 1.37544 
92 1 12.3175 3.11783 1.37548 
102 1 12.3174 1.37452 3.11838 
136 1 11.6632 0.721596 0.720558 
1 1 19.4664 1.60424 1.60457 
17 1 21.0479 0.0226958 0.0227055 
33 1 16.7533 1.27579 1.27684 
41 1 19.7941 4.31738 1.27683 
49 1 19.7941 1.27581 4.31759 
81 1 17.9525 1.37464 1.37533 
89 1 19.6955 3.11815 1.37538 
97 1 19.6956 1.37462 3.11839 
129 1 20.3495 0.721257 0.720804 
3 1 12.5467 8.52387 1.60414 
19 1 10.965 10.1062 0.0233169 
35 1 15.2598 8.85115 1.27681 
45 1 12.2188 5.81051 1.27597 
55 1 12.2184 8.85118 4.31648 
83 1 14.0606 8.75271 1.37522 
93 1 12.3173 7.0097 1.37448 
103 1 12.3173 8.75263 3.11747 
131 1 11.6629 9.40686 0.721093 
6 1 19.4667 8.52413 1.6061 
22 1 21.0477 10.1052 0.0225348 
38 1 16.7532 8.85136 1.27683 
48 1 19.7941 5.81073 1.27682 
52 1 19.7906 8.85346 4.31849 
86 1 17.9523 8.75326 1.3759 
96 1 19.6957 7.0099 1.37597 
100 1 19.6948 8.7532 3.11751 
134 1 20.3502 9.40768 0.722343 
5 1 12.547 1.60384 8.52411 
21 1 10.965 0.0219589 10.1053 
37 1 15.26 1.27576 8.85212 
47 1 12.2185 4.31658 8.85213 
51 1 12.2188 1.27658 5.81109 
85 1 14.0608 1.37452 8.75354 
95 1 12.3175 3.11762 8.75355 
99 1 12.3175 1.37525 7.01025 
133 1 11.6633 0.720664 9.40737 
4 1 19.4668 1.60633 8.52435 
20 1 21.0478 0.0233779 10.106 
36 1 16.7534 1.27582 8.85201 
46 1 19.7901 4.31892 8.85337 
56 1 19.794 1.27585 5.81101 
84 1 17.9525 1.37523 8.75356 
94 1 19.6944 3.11843 8.75312 
104 1 19.6956 1.37527 7.01017 
132 1 20.3496 0.722079 9.40795 
2 1 12.5439 8.52425 8.5219 
18 1 10.9649 10.1063 10.1066 
34 1 15.2468 8.83647 8.84124 
42 1 12.2188 5.81078 8.85241 
50 1 12.2184 8.85166 5.81016 
82 1 14.0551 8.75039 8.72837 
90 1 12.3187 7.0094 8.75411 
98 1 12.3177 8.7539 7.00891 
130 1 11.6646 9.40939 9.4087 
7 1 19.5591 8.50281 8.49557 
23 1 21.0456 10.1099 10.1104 
39 1 16.7569 8.86597 9.05511 
43 1 19.7875 5.80767 8.85508 
53 1 19.7892 8.85441 5.80543 
87 1 17.9348 8.77514 8.66663 
91 1 19.7209 7.00966 8.74591 
101 1 19.724 8.74507 7.00804 
135 1 20.3741 9.39818 9.39641 
145 2 17.8437 8.76545 10.0708 
ITEM: TIMESTEP
50
ITEM: NUMBER OF ATOMS
145
ITEM: BOX BOUNDS pp pp pp
0.0000000000000000e+00 2.1884000000000000e+01
0.0000000000000000e+00 2.1885999999999999e+01
0.0000000000000000e+00 2.1885000000000002e+01
ITEM: ATOMS id type x y z 
16 1 1.60417 12.5469 12.5456 
32 1 0.0188945 10.9681 10.9671 
64 1 4.31729 12.2192 12.2192 
68 1 1.2773 15.26 12.2193 
78 1 1.27731 12.2193 15.2603 
112 1 3.11869 12.3172 12.3171 
116 1 1.37537 14.0607 12.3173 
126 1 1.37539 12.3174 14.0607 
144 1 0.719537 11.6639 11.6667 
9 1 8.5236 12.5472 12.5476 
25 1 10.1047 10.9654 10.9663 
57 1 5.81046 12.2192 12.2192 
65 1 8.85189 15.2608 12.2191 
73 1 8.85191 12.2198 15.2601 
105 1 7.01028 12.3179 12.3178 
113 1 8.75313 14.0609 12.3177 
121 1 8.75317 12.3181 14.061 
137 1 9.40517 11.6652 11.6642 
11 1 1.60398 19.4662 12.5467 
27 1 0.0225117 21.0478 10.9652 
59 1 4.31762 19.7938 12.2192 
69 1 1.27729 16.7534 12.2193 
79 1 1.27727 19.7938 15.2596 
107 1 3.11835 19.6953 12.3176 
117 1 1.37562 17.9527 12.3176 
127 1 1.3756 19.6953 14.0604 
139 1 0.722349 20.3501 11.6627 
14 1 8.5235 19.4663 12.5459 
30 1 10.1044 21.0474 10.9645 
62 1 5.811 19.7938 12.2192 
72 1 8.85177 16.754 12.2193 
76 1 8.85178 19.7948 15.26 
110 1 7.0103 19.6954 12.3177 
120 1 8.75334 17.9526 12.3178 
124 1 8.7533 19.6961 14.0607 
142 1 9.40922 20.3516 11.6657 
13 1 1.60495 12.5464 19.4661 
29 1 0.0235929 10.9649 21.0475 
61 1 4.31802 12.2195 19.7938 
71 1 1.2773 15.2601 19.7938 
75 1 1.27735 12.2193 16.7533 
109 1 3.11823 12.3178 19.6953 
119 1 1.37568 14.0608 19.6953 
123 1 1.37567 12.3177 17.9525 
141 1 0.721105 11.6652 20.3499 
12 1 8.52361 12.5477 19.4676 
28 1 10.1049 10.9661 21.0492 
60 1 5.81154 12.2196 19.7937 
70 1 8.85175 15.2606 19.7942 
80 1 8.8519 12.22 16.7535 
108 1 7.01023 12.3181 19.6955 
118 1 8.75338 14.0614 19.6958 
128 1 8.75341 12.3185 17.953 
140 1 9.40911 11.6629 20.347 
10 1 1.60497 19.4661 19.4673 
26 1 0.0235845 21.0478 21.0497 
58 1 4.31738 19.7944 19.7937 
66 1 1.27718 16.7533 19.7938 
74 1 1.27722 19.7938 16.7532 
106 1 3.11823 19.6957 19.6953 
114 1 1.37553 17.9527 19.6954 
122 1 1.37549 19.6954 17.9525 
138 1 0.719762 20.35 20.3477 
15 1 8.52356 19.4675 19.4665 
31 1 10.1053 21.0489 21.0481 
63 1 5.81096 19.7947 19.7937 
67 1 8.85169 16.7538 19.7939 
77 1 8.85176 19.7948 16.7534 
111 1 7.01023 19.6962 19.6953 
115 1 8.7532 17.9532 19.6954 
125 1 8.75328 19.6962 17.9526 
143 1 9.4079 20.3493 20.3503 
8 1 12.5468 1.60399 1.60432 
24 1 10.9653 0.0226258 0.0223512 
40 1 15.2598 1.27617 1.27727 
44 1 12.2193 4.31702 1.27699 
54 1 12.2192 1.27648 4.3175 
88 1 14.0605 1.37476 1.37562 
92 1 12.3178 3.11776 1.37561 
102 1 12.3176 1.37478 3.11835 
136 1 11.6634 0.720427 0.721389 
1 1 19.4673 1.60449 1.60512 
17 1 21.0488 0.023321 0.0233894 
33 1 16.7533 1.2762 1.27723 
41 1 19.7937 4.31694 1.27715 
49 1 19.7937 1.27616 4.31731 
81 1 17.9525 1.37488 1.37548 
89 1 19.6953 3.11776 1.37553 
97 1 19.6953 1.37491 3.1181 
129 1 20.3481 0.719594 0.71994 