ITEM: TIMESTEP
0
ITEM: NUMBER OF ATOMS
128
ITEM: BOX BOUNDS pp pp pp
0.0000000000000000e+00 1.8095710579799999e+01
0.0000000000000000e+00 1.8095710579799999e+01
0.0000000000000000e+00 1.8095710579799999e+01
ITEM: ATOMS id type x y z 
1 1 3.33392 3.33392 3.33392 
10 1 5.71393 5.71393 5.71393 
17 1 4.17709 4.17709 4.17709 
26 1 4.87077 4.87077 4.87077 
33 1 0.673907 3.56203 3.56203 
41 1 3.56203 0.673907 3.56203 
49 1 3.56203 3.56203 0.673907 
58 1 8.37395 5.48583 5.48583 
66 1 5.48583 8.37395 5.48583 
74 1 5.48583 5.48583 8.37395 
81 1 1.89279 3.57513 3.57513 
89 1 3.57513 1.89279 3.57513 
97 1 3.57513 3.57513 1.89279 
106 1 7.15507 5.47272 5.47272 
114 1 5.47272 7.15507 5.47272 
122 1 5.47272 5.47272 7.15507 
4 1 3.33392 3.33392 14.7618 
11 1 5.71393 5.71393 12.3818 
20 1 4.17709 4.17709 13.9186 
27 1 4.87077 4.87077 13.2249 
36 1 0.673907 3.56203 14.5337 
46 1 3.56203 0.673907 14.5337 
56 1 3.56203 3.56203 17.4218 
59 1 8.37395 5.48583 12.6099 
69 1 5.48583 8.37395 12.6099 
79 1 5.48583 5.48583 9.72176 
84 1 1.89279 3.57513 14.5206 
94 1 3.57513 1.89279 14.5206 
104 1 3.57513 3.57513 16.2029 
107 1 7.15507 5.47272 12.623 
117 1 5.47272 7.15507 12.623 
127 1 5.47272 5.47272 10.9406 
6 1 3.33392 14.7618 3.33392 
13 1 5.71393 12.3818 5.71393 
22 1 4.17709 13.9186 4.17709 
29 1 4.87077 13.2249 4.87077 
38 1 0.673907 14.5337 3.56203 
48 1 3.56203 17.4218 3.56203 
52 1 3.56203 14.5337 0.673907 
61 1 8.37395 12.6099 5.48583 
71 1 5.48583 9.72176 5.48583 
75 1 5.48583 12.6099 8.37395 
86 1 1.89279 14.5206 3.57513 
96 1 3.57513 16.2029 3.57513 
100 1 3.57513 14.5206 1.89279 
109 1 7.15507 12.623 5.47272 
119 1 5.47272 10.9406 5.47272 
123 1 5.47272 12.623 7.15507 
7 1 3.33392 14.7618 14.7618 
16 1 5.71393 12.3818 12.3818 
23 1 4.17709 13.9186 13.9186 
32 1 4.87077 13.2249 13.2249 
39 1 0.673907 14.5337 14.5337 
43 1 3.56203 17.4218 14.5337 
53 1 3.56203 14.5337 17.4218 
64 1 8.37395 12.6099 12.6099 
68 1 5.48583 9.72176 12.6099 
78 1 5.48583 12.6099 9.72176 
87 1 1.89279 14.5206 14.5206 
91 1 3.57513 16.2029 14.5206 
101 1 3.57513 14.5206 16.2029 
112 1 7.15507 12.623 12.623 
116 1 5.47272 10.9406 12.623 
126 1 5.47272 12.623 10.9406 
8 1 14.7618 3.33392 3.33392 
15 1 12.3818 5.71393 5.71393 
24 1 13.9186 4.17709 4.17709 
31 1 13.2249 4.87077 4.87077 
40 1 17.4218 3.56203 3.56203 
44 1 14.5337 0.673907 3.56203 
54 1 14.5337 3.56203 0.673907 
63 1 9.72176 5.48583 5.48583 
67 1 12.6099 8.37395 5.48583 
77 1 12.6099 5.48583 8.37395 
88 1 16.2029 3.57513 3.57513 
92 1 14.5206 1.89279 3.57513 
102 1 14.5206 3.57513 1.89279 
111 1 10.9406 5.47272 5.47272 
115 1 12.623 7.15507 5.47272 
125 1 12.623 5.47272 7.15507 
5 1 14.7618 3.33392 14.7618 
14 1 12.3818 5.71393 12.3818 
21 1 13.9186 4.17709 13.9186 
30 1 13.2249 4.87077 13.2249 
37 1 17.4218 3.56203 14.5337 
47 1 14.5337 0.673907 14.5337 
51 1 14.5337 3.56203 17.4218 
62 1 9.72176 5.48583 12.6099 
72 1 12.6099 8.37395 12.6099 
76 1 12.6099 5.48583 9.72176 
85 1 16.2029 3.57513 14.5206 
95 1 14.5206 1.89279 14.5206 
99 1 14.5206 3.57513 16.2029 
110 1 10.9406 5.47272 12.623 
120 1 12.623 7.15507 12.623 
124 1 12.623 5.47272 10.9406 
3 1 14.7618 14.7618 3.33392 
12 1 12.3818 12.3818 5.71393 
19 1 13.9186 13.9186 4.17709 
28 1 13.2249 13.2249 4.87077 
35 1 17.4218 14.5337 3.56203 
45 1 14.5337 17.4218 3.56203 
55 1 14.5337 14.5337 0.673907 
60 1 9.72176 12.6099 5.48583 
70 1 12.6099 9.72176 5.48583 
80 1 12.6099 12.6099 8.37395 
83 1 16.2029 14.5206 3.57513 
93 1 14.5206 16.2029 3.57513 
103 1 14.5206 14.5206 1.89279 
108 1 10.9406 12.623 5.47272 
118 1 12.623 10.9406 5.47272 
128 1 12.623 12.623 7.15507 
2 1 14.7618 14.7618 14.7618 
9 1 12.3818 12.3818 12.3818 
18 1 13.9186 13.9186 13.9186 
25 1 13.2249 13.2249 13.2249 
34 1 17.4218 14.5337 14.5337 
42 1 14.5337 17.4218 14.5337 
50 1 14.5337 14.5337 17.4218 
57 1 9.72176 12.6099 12.6099 
65 1 12.6099 9.72176 12.6099 
73 1 12.6099 12.6099 9.72176 
82 1 16.2029 14.5206 14.5206 
90 1 14.5206 16.2029 14.5206 
98 1 14.5206 14.5206 16.2029 
105 1 10.9406 12.623 12.623 
113 1 12.623 10.9406 12.623 
121 1 12.623 12.623 10.9406 
ITEM: TIMESTEP
10
ITEM: NUMBER OF ATOMS
128
ITEM: BOX BOUNDS pp pp pp
0.0000000000000000e+00 1.8095710579799999e+01
0.0000000000000000e+00 1.8095710579799999e+01
0.0000000000000000e+00 1.8095710579799999e+01
ITEM: ATOMS id type x y z 
1 1 3.34181 3.34181 3.34151 
10 1 5.7061 5.7061 5.70628 
17 1 4.19043 4.19043 4.18881 
26 1 4.85751 4.85751 4.85888 
33 1 0.704632 3.59295 3.59293 
41 1 3.59295 0.704632 3.59293 
49 1 3.59295 3.59295 0.704799 
58 1 8.34319 5.45491 5.45492 
66 1 5.45491 8.34319 5.45492 
74 1 5.45491 5.45491 8.34314 
81 1 1.90172 3.571 3.57106 
89 1 3.571 1.90172 3.57106 
97 1 3.5708 3.5708 1.90198 
106 1 7.14613 5.47688 5.47684 
114 1 5.47688 7.14613 5.47684 
122 1 5.47701 5.47701 7.14601 
4 1 3.34169 3.34169 14.7539 
11 1 5.70625 5.70625 12.3898 
20 1 4.19021 4.19021 13.9065 
27 1 4.85759 4.85759 13.237 
36 1 0.704671 3.59294 14.5028 
46 1 3.59294 0.704671 14.5028 
56 1 3.59294 3.59294 17.391 
59 1 8.34306 5.45492 12.6408 
69 1 5.45492 8.34306 12.6408 
79 1 5.45491 5.45491 9.75227 
84 1 1.90182 3.57096 14.5247 
94 1 3.57096 1.90182 14.5247 
104 1 3.57092 3.57092 16.1939 
107 1 7.14607 5.47691 12.6189 
117 1 5.47691 7.14607 12.6189 
127 1 5.47694 5.47694 10.9498 
6 1 3.34158 14.754 3.34184 
13 1 5.70632 12.3898 5.70616 
22 1 4.19052 13.9066 4.19005 
29 1 4.8573 13.2368 4.85771 
38 1 0.704772 14.5028 3.59294 
48 1 3.59295 17.391 3.59294 
52 1 3.59294 14.5028 0.704583 
61 1 8.34297 12.6408 5.45492 
71 1 5.45491 9.75227 5.45492 
75 1 5.45492 12.6408 8.34311 
86 1 1.90177 14.5247 3.57096 
96 1 3.57089 16.1939 3.57089 
100 1 3.57098 14.5247 1.90186 
109 1 7.14612 12.6189 5.47691 
119 1 5.47697 10.9498 5.47696 
123 1 5.4769 12.6189 7.14604 
7 1 3.34182 14.754 14.7542 
16 1 5.70601 12.3896 12.3894 
23 1 4.18906 13.9056 13.9052 
32 1 4.85882 13.238 13.2384 
39 1 0.704568 14.5028 14.5028 
43 1 3.59294 17.3911 14.5028 
53 1 3.59294 14.5028 17.3909 
64 1 8.34334 12.6408 12.6408 
68 1 5.45491 9.75255 12.6408 
78 1 5.45491 12.6408 9.75268 
87 1 1.90188 14.5248 14.5248 
91 1 3.57101 16.1939 14.5247 
101 1 3.57099 14.5248 16.194 
112 1 7.14596 12.6188 12.6187 
116 1 5.47684 10.9497 12.6188 
126 1 5.47686 12.6188 10.9496 
8 1 14.754 3.34158 3.34184 
15 1 12.3898 5.70632 5.70616 
24 1 13.9066 4.19052 4.19005 
31 1 13.2368 4.8573 4.85771 
40 1 17.391 3.59295 3.59294 
44 1 14.5028 0.704772 3.59294 
54 1 14.5028 3.59294 0.704583 
63 1 9.75227 5.45491 5.45492 
67 1 12.6408 8.34297 5.45492 
77 1 12.6408 5.45492 8.34311 
88 1 16.1939 3.57089 3.57089 
92 1 14.5247 1.90177 3.57096 
102 1 14.5247 3.57098 1.90186 
111 1 10.9498 5.47697 5.47696 
115 1 12.6189 7.14612 5.47691 
125 1 12.6189 5.4769 7.14604 
5 1 14.754 3.34182 14.7542 
14 1 12.3896 5.70601 12.3894 
21 1 13.9056 4.18906 13.9052 
30 1 13.238 4.85882 13.2384 
37 1 17.3911 3.59294 14.5028 
47 1 14.5028 0.704568 14.5028 
51 1 14.5028 3.59294 17.3909 
62 1 9.75255 5.45491 12.6408 
72 1 12.6408 8.34334 12.6408 
76 1 12.6408 5.45491 9.75268 
85 1 16.1939 3.57101 14.5247 
95 1 14.5248 1.90188 14.5248 
99 1 14.5248 3.57099 16.194 
110 1 10.9497 5.47684 12.6188 
120 1 12.6188 7.14596 12.6187 
124 1 12.6188 5.47686 10.9496 
3 1 14.7541 14.7541 3.34183 
12 1 12.3895 12.3895 5.70599 
19 1 13.9055 13.9055 4.18917 
28 1 13.2381 13.2381 4.85871 
35 1 17.391 14.5028 3.59294 
45 1 14.5028 17.391 3.59294 
55 1 14.5028 14.5028 0.70455 
60 1 9.75264 12.6408 5.45491 
70 1 12.6408 9.75264 5.45491 
80 1 12.6408 12.6408 8.34337 
83 1 16.1939 14.5248 3.57099 
93 1 14.5248 16.1939 3.57099 
103 1 14.5248 14.5248 1.90185 
108 1 10.9497 12.6188 5.47686 
118 1 12.6188 10.9497 5.47686 
128 1 12.6188 12.6188 7.14598 
2 1 14.754 14.754 14.7539 
9 1 12.3895 12.3895 12.3896 
18 1 13.9055 13.9055 13.9064 
25 1 13.2381 13.2381 13.2371 
34 1 17.391 14.5028 14.5028 
42 1 14.5028 17.391 14.5028 
50 1 14.5028 14.5028 17.3911 
57 1 9.75256 12.6408 12.6408 
65 1 12.6408 9.75256 12.6408 
73 1 12.6408 12.6408 9.7525 
82 1 16.1939 14.5248 14.5247 
90 1 14.5248 16.1939 14.5247 
98 1 14.5248 14.5248 16.1939 
105 1 10.9496 12.6188 12.6188 
113 1 12.6188 10.9496 12.6188 
121 1 12.6188 12.6188 10.9497 
ITEM: TIMESTEP
20
ITEM: NUMBER OF ATOMS
128
ITEM: BOX BOUNDS pp pp pp
0.0000000000000000e+00 1.8095710579799999e+01
0.0000000000000000e+00 1.8095710579799999e+01
0.0000000000000000e+00 1.8095710579799999e+01
ITEM: ATOMS id type x y z 
1 1 3.33852 3.33852 3.33844 
10 1 5.70934 5.70934 5.70946 
17 1 4.17904 4.17904 4.17743 
26 1 4.86893 4.86893 4.87035 
33 1 0.708621 3.63981 3.63988 
41 1 3.63981 0.708621 3.63988 
49 1 3.63978 3.63978 0.708801 
58 1 8.33915 5.40805 5.408 
66 1 5.40805 8.33915 5.408 
74 1 5.40808 5.40808 8.33898 
81 1 1.90711 3.57922 3.57934 
89 1 3.57922 1.90711 3.57934 
97 1 3.57896 3.57896 1.90662 
106 1 7.14084 5.46866 5.46858 
114 1 5.46866 7.14084 5.46858 
122 1 5.46886 5.46886 7.14131 
4 1 3.3385 3.3385 14.7572 
11 1 5.70939 5.70939 12.3863 
20 1 4.17898 4.17898 13.9183 
27 1 4.86879 4.86879 13.2252 
36 1 0.708699 3.63979 14.4559 
46 1 3.63979 0.708699 14.4559 
56 1 3.63982 3.63982 17.3871 
59 1 8.33893 5.40807 12.6877 
69 1 5.40807 8.33893 12.6877 
79 1 5.40805 5.40805 9.75629 
84 1 1.90687 3.57921 14.5164 
94 1 3.57921 1.90687 14.5164 
104 1 3.57904 3.57904 16.1887 
107 1 7.14116 5.46863 12.6271 
117 1 5.46863 7.14116 12.6271 
127 1 5.46885 5.46885 10.955 
6 1 3.33842 14.7573 3.33843 
13 1 5.70949 12.3863 5.70942 
22 1 4.1791 13.9186 4.17903 
29 1 4.8687 13.2249 4.86874 
38 1 0.708883 14.4559 3.63979 
48 1 3.63977 17.3868 3.63974 
52 1 3.63979 14.4559 0.708705 
61 1 8.33861 12.6877 5.40808 
71 1 5.40808 9.75621 5.4081 
75 1 5.40808 12.6877 8.33878 
86 1 1.90677 14.5164 3.57921 
96 1 3.57904 16.1892 3.579 
100 1 3.57922 14.5164 1.90694 
109 1 7.14139 12.6272 5.46861 
119 1 5.46887 10.9548 5.4689 
123 1 5.46859 12.6272 7.14127 
7 1 3.33855 14.7572 14.7573 
16 1 5.70938 12.3863 12.3863 
23 1 4.1772 13.9167 13.9166 
32 1 4.87064 13.227 13.227 
39 1 0.708158 14.4559 14.4559 
43 1 3.63984 17.3873 14.4559 
53 1 3.63981 14.4559 17.3866 
64 1 8.33942 12.6876 12.6876 
68 1 5.40803 9.75668 12.6876 
78 1 5.40803 12.6876 9.75685 
87 1 1.90713 14.5167 14.5167 
91 1 3.5793 16.1885 14.5165 
101 1 3.57931 14.5165 16.1892 
112 1 7.14094 12.6268 12.6269 
116 1 5.46856 10.9547 12.6271 
126 1 5.46855 12.6271 10.9546 
8 1 14.7573 3.33842 3.33843 
15 1 12.3863 5.70949 5.70942 
24 1 13.9186 4.1791 4.17903 
31 1 13.2249 4.8687 4.86874 
40 1 17.3868 3.63977 3.63974 
44 1 14.4559 0.708883 3.63979 
54 1 14.4559 3.63979 0.708705 
63 1 9.75621 5.40808 5.4081 
67 1 12.6877 8.33861 5.40808 
77 1 12.6877 5.40808 8.33878 
88 1 16.1892 3.57904 3.579 
92 1 14.5164 1.90677 3.57921 
102 1 14.5164 3.57922 1.90694 
111 1 10.9548 5.46887 5.4689 
115 1 12.6272 7.14139 5.46861 
125 1 12.6272 5.46859 7.14127 
5 1 14.7572 3.33855 14.7573 
14 1 12.3863 5.70938 12.3863 
21 1 13.9167 4.1772 13.9166 
30 1 13.227 4.87064 13.227 
37 1 17.3873 3.63984 14.4559 
47 1 14.4559 0.708158 14.4559 
51 1 14.4559 3.63981 17.3866 
62 1 9.75668 5.40803 12.6876 
72 1 12.6876 8.33942 12.6876 
76 1 12.6876 5.40803 9.75685 
85 1 16.1885 3.5793 14.5165 
95 1 14.5167 1.90713 14.5167 
99 1 14.5165 3.57931 16.1892 
110 1 10.9547 5.46856 12.6271 
120 1 12.6268 7.14094 12.6269 
124 1 12.6271 5.46855 10.9546 
3 1 14.7573 14.7573 3.33848 
12 1 12.3863 12.3863 5.70941 
19 1 13.9168 13.9168 4.17731 
28 1 13.2269 13.2269 4.87052 
35 1 17.3867 14.4559 3.63982 
45 1 14.4559 17.3867 3.63982 
55 1 14.4559 14.4559 0.708489 
60 1 9.75716 12.6876 5.40805 
70 1 12.6876 9.75716 5.40805 
80 1 12.6876 12.6876 8.33934 
83 1 16.189 14.5165 3.57927 
93 1 14.5165 16.189 3.57927 
103 1 14.5167 14.5167 1.90692 
108 1 10.9542 12.6271 5.46856 
118 1 12.6271 10.9542 5.46856 
128 1 12.6269 12.6269 7.14097 
2 1 14.7571 14.7571 14.7572 
9 1 12.3864 12.3864 12.3864 
18 1 13.9166 13.9166 13.9183 
25 1 13.2269 13.2269 13.2253 
34 1 17.3872 14.4559 14.4559 
42 1 14.4559 17.3872 14.4559 
50 1 14.4559 14.4559 17.3872 
57 1 9.75638 12.6877 12.6877 
65 1 12.6877 9.75638 12.6877 
73 1 12.6877 12.6877 9.7565 
82 1 16.1886 14.5165 14.5164 
90 1 14.5165 16.1886 14.5164 
98 1 14.5167 14.5167 16.1887 
105 1 10.955 12.6271 12.6271 
113 1 12.6271 10.955 12.6271 
121 1 12.6269 12.6269 10.9548 
ITEM: TIMESTEP
30
ITEM: NUMBER OF ATOMS
128
ITEM: BOX BOUNDS pp pp pp
0.0000000000000000e+00 1.8095710579799999e+01
0.0000000000000000e+00 1.8095710579799999e+01
0.0000000000000000e+00 1.8095710579799999e+01
ITEM: ATOMS id type x y z 
1 1 3.3353 3.3353 3.32803 
10 1 5.71723 5.71723 5.72084 
17 1 4.18429 4.18429 4.18243 
26 1 4.86035 4.86035 4.86192 
33 1 0.709824 3.71041 3.71031 
41 1 3.71041 0.709824 3.71031 
49 1 3.71038 3.71038 0.712163 
58 1 8.33697 5.3378 5.33781 
66 1 5.3378 8.33697 5.33781 
74 1 5.33781 5.33781 8.33533 
81 1 1.88902 3.59393 3.59407 
89 1 3.59393 1.88902 3.59407 
97 1 3.5924 3.5924 1.89354 
106 1 7.15966 5.45409 5.45391 
114 1 5.45409 7.15966 5.45391 
122 1 5.45496 5.45496 7.15776 
4 1 3.32949 3.32949 14.7631 
11 1 5.7187 5.7187 12.3836 
20 1 4.18682 4.18682 13.9104 
27 1 4.86173 4.86173 13.2323 
36 1 0.708825 3.71038 14.3851 
46 1 3.71038 0.708825 14.3851 
56 1 3.71022 3.71022 17.385 
59 1 8.33791 5.33742 12.7586 
69 1 5.33742 8.33791 12.7586 
79 1 5.33789 5.33789 9.75772 
84 1 1.89327 3.59307 14.5025 
94 1 3.59307 1.89327 14.5025 
104 1 3.59339 3.59339 16.2062 
107 1 7.15377 5.45491 12.6407 
117 1 5.45491 7.15377 12.6407 
127 1 5.45392 5.45392 10.9345 
6 1 3.33029 14.7693 3.33577 
13 1 5.71858 12.3815 5.71972 
22 1 4.18389 13.9139 4.1837 
29 1 4.86464 13.2295 4.86397 
38 1 0.707975 14.3853 3.71056 
48 1 3.71024 17.3863 3.71044 
52 1 3.71008 14.3857 0.708713 
61 1 8.33807 12.7584 5.33757 
71 1 5.33802 9.75676 5.33801 
75 1 5.33747 12.7585 8.33739 
86 1 1.89227 14.5023 3.59326 
96 1 3.59247 16.2016 3.59232 
100 1 3.59438 14.5013 1.88679 
109 1 7.15526 12.6409 5.45472 
119 1 5.45414 10.935 5.45418 
123 1 5.45488 12.6408 7.15432 
7 1 3.334 14.7631 14.7669 
16 1 5.71458 12.3786 12.3784 
23 1 4.18496 13.9063 13.91 
32 1 4.86371 13.2361 13.2332 
39 1 0.707797 14.3855 14.3856 
43 1 3.71059 17.3878 14.3854 
53 1 3.71006 14.3857 17.3815 
64 1 8.33882 12.758 12.758 
68 1 5.3372 9.75742 12.7583 
78 1 5.33717 12.7584 9.7575 
87 1 1.88858 14.5021 14.5019 
91 1 3.59392 16.2059 14.5018 
101 1 3.59375 14.5021 16.208 
112 1 7.15846 12.6413 12.6412 
116 1 5.45459 10.9403 12.6411 
126 1 5.45473 12.641 10.9412 
8 1 14.7693 3.33029 3.33577 
15 1 12.3815 5.71858 5.71972 
24 1 13.9139 4.18389 4.1837 
31 1 13.2295 4.86464 4.86397 
40 1 17.3863 3.71024 3.71044 
44 1 14.3853 0.707975 3.71056 
54 1 14.3857 3.71008 0.708713 
63 1 9.75676 5.33802 5.33801 
67 1 12.7584 8.33807 5.33757 
77 1 12.7585 5.33747 8.33739 
88 1 16.2016 3.59247 3.59232 
92 1 14.5023 1.89227 3.59326 
102 1 14.5013 3.59438 1.88679 
111 1 10.935 5.45414 5.45418 
115 1 12.6409 7.15526 5.45472 
125 1 12.6408 5.45488 7.15432 
5 1 14.7631 3.334 14.7669 
14 1 12.3786 5.71458 12.3784 
21 1 13.9063 4.18496 13.91 
30 1 13.2361 4.86371 13.2332 
37 1 17.3878 3.71059 14.3854 
47 1 14.3855 0.707797 14.3856 
51 1 14.3857 3.71006 17.3815 
62 1 9.75742 5.3372 12.7583 
72 1 12.758 8.33882 12.758 
76 1 12.7584 5.33717 9.7575 
85 1 16.2059 3.59392 14.5018 
95 1 14.5021 1.88858 14.5019 
99 1 14.5021 3.59375 16.208 
110 1 10.9403 5.45459 12.6411 
120 1 12.6413 7.15846 12.6412 
124 1 12.641 5.45473 10.9412 
3 1 14.7671 14.7671 3.33218 
12 1 12.3773 12.3773 5.71442 
19 1 13.9124 13.9124 4.18166 
28 1 13.2308 13.2308 4.86658 
35 1 17.3868 14.3853 3.71053 
45 1 14.3853 17.3868 3.71053 
55 1 14.3856 14.3856 0.709139 
60 1 9.75676 12.7582 5.33733 
70 1 12.7582 9.75676 5.33733 
80 1 12.7579 12.7579 8.33884 
83 1 16.2022 14.5027 3.59302 
93 1 14.5027 16.2022 3.59302 
103 1 14.5024 14.5024 1.8902 
108 1 10.9406 12.641 5.45465 
118 1 12.641 10.9406 5.45465 
128 1 12.6415 12.6415 7.15912 
2 1 14.7662 14.7662 14.768 
9 1 12.3775 12.3775 12.3754 
18 1 13.9188 13.9188 13.9205 
25 1 13.2248 13.2248 13.2231 
34 1 17.3875 14.3852 14.3851 
42 1 14.3852 17.3875 14.3851 
50 1 14.3853 14.3853 17.3862 
57 1 9.75784 12.7582 12.7582 
65 1 12.7582 9.75784 12.7582 
73 1 12.7581 12.7581 9.75806 
82 1 16.2037 14.5022 14.5022 
90 1 14.5022 16.2037 14.5022 
98 1 14.5027 14.5027 16.2037 
105 1 10.9379 12.6415 12.6416 
113 1 12.6415 10.9379 12.6416 
121 1 12.6409 12.6409 10.9389 
ITEM: TIMESTEP
40
ITEM: NUMBER OF ATOMS
128
ITEM: BOX BOUNDS pp pp pp
0.0000000000000000e+00 1.8095710579799999e+01
0.0000000000000000e+00 1.8095710579799999e+01
0.0000000000000000e+00 1.8095710579799999e+01
ITEM: ATOMS id type x y z 
1 1 3.29234 3.29234 3.29357 
10 1 5.75271 5.75271 5.75318 
17 1 4.18145 4.18145 4.17979 
26 1 4.86717 4.86717 4.86845 
33 1 0.707722 3.73011 3.73016 
41 1 3.73011 0.707722 3.73016 
49 1 3.73076 3.73076 0.701637 
58 1 8.34448 5.31736 5.31725 
66 1 5.31736 8.34448 5.31725 
74 1 5.31724 5.31724 8.34511 
81 1 1.88828 3.59893 3.5992 
89 1 3.59893 1.88828 3.5992 
97 1 3.59821 3.59821 1.89243 
106 1 7.15772 5.44893 5.4487 
114 1 5.44893 7.15772 5.4487 
122 1 5.44937 5.44937 7.15718 
4 1 3.29406 3.29406 14.8032 
11 1 5.75489 5.75489 12.3409 
20 1 4.17981 4.17981 13.9172 
27 1 4.8679 4.8679 13.2265 
36 1 0.703736 3.73056 14.365 
46 1 3.73056 0.703736 14.365 
56 1 3.72993 3.72993 17.3877 
59 1 8.34346 5.31735 12.7785 
69 1 5.31735 8.34346 12.7785 
79 1 5.31778 5.31778 9.75411 
84 1 1.89103 3.59865 14.497 
94 1 3.59865 1.89103 14.497 
104 1 3.59857 3.59857 16.2084 
107 1 7.15703 5.44937 12.6466 
117 1 5.44937 7.15703 12.6466 
127 1 5.44946 5.44946 10.937 
6 1 3.29202 14.8034 3.29079 
13 1 5.75623 12.3395 5.756 
22 1 4.17432 13.9229 4.17343 
29 1 4.87363 13.2198 4.87471 
38 1 0.703817 14.365 3.73062 
48 1 3.7306 17.3936 3.73057 
52 1 3.72977 14.3659 0.710431 
61 1 8.34217 12.7784 5.31743 
71 1 5.31787 9.75338 5.31787 
75 1 5.31725 12.7785 8.34324 
86 1 1.8909 14.4971 3.5986 
96 1 3.5983 16.2048 3.59833 
100 1 3.59895 14.4967 1.88614 
109 1 7.15833 12.6466 5.44928 
119 1 5.44957 10.9364 5.44957 
123 1 5.44941 12.6464 7.15727 
7 1 3.29188 14.8022 14.8 
16 1 5.75515 12.3416 12.3413 
23 1 4.17901 13.9147 13.9133 
32 1 4.86915 13.2284 13.2294 
39 1 0.708924 14.3656 14.3656 
43 1 3.73036 17.3895 14.3655 
53 1 3.73101 14.3648 17.394 
64 1 8.34173 12.7783 12.7783 
68 1 5.31733 9.75284 12.7782 
78 1 5.31727 12.7783 9.75297 
87 1 1.88997 14.4978 14.4971 
91 1 3.5988 16.2065 14.4964 
101 1 3.59909 14.4968 16.2046 
112 1 7.15535 12.6456 12.6456 
116 1 5.44917 10.9383 12.6464 
126 1 5.44919 12.6464 10.9386 
8 1 14.8034 3.29202 3.29079 
15 1 12.3395 5.75623 5.756 
24 1 13.9229 4.17432 4.17343 
31 1 13.2198 4.87363 4.87471 
40 1 17.3936 3.7306 3.73057 
44 1 14.365 0.703817 3.73062 
54 1 14.3659 3.72977 0.710431 
63 1 9.75338 5.31787 5.31787 
67 1 12.7784 8.34217 5.31743 
77 1 12.7785 5.31725 8.34324 
88 1 16.2048 3.5983 3.59833 
92 1 14.4971 1.8909 3.5986 
102 1 14.4967 3.59895 1.88614 
111 1 10.9364 5.44957 5.44957 
115 1 12.6466 7.15833 5.44928 
125 1 12.6464 5.44941 7.15727 
5 1 14.8022 3.29188 14.8 
14 1 12.3416 5.75515 12.3413 
21 1 13.9147 4.17901 13.9133 
30 1 13.2284 4.86915 13.2294 
37 1 17.3895 3.73036 14.3655 
47 1 14.3656 0.708924 14.3656 
51 1 14.3648 3.73101 17.394 
62 1 9.75284 5.31733 12.7782 
72 1 12.7783 8.34173 12.7783 
76 1 12.7783 5.31727 9.75297 
85 1 16.2065 3.5988 14.4964 
95 1 14.4978 1.88997 14.4971 
99 1 14.4968 3.59909 16.2046 
110 1 10.9383 5.44917 12.6464 
120 1 12.6456 7.15535 12.6456 
124 1 12.6464 5.44919 10.9386 
3 1 14.8038 14.8038 3.2907 
12 1 12.3399 12.3399 5.75743 
19 1 13.9228 13.9228 4.17148 
28 1 13.2209 13.2209 4.87628 
35 1 17.3899 14.3653 3.7305 
45 1 14.3653 17.3899 3.7305 
55 1 14.3651 14.3651 0.707039 
60 1 9.75181 12.7785 5.31717 
70 1 12.7785 9.75181 5.31717 
80 1 12.7783 12.7783 8.33983 
83 1 16.2058 14.4972 3.59873 
93 1 14.4972 16.2058 3.59873 
103 1 14.4979 14.4979 1.89257 
108 1 10.9389 12.6464 5.44919 
118 1 12.6464 10.9389 5.44919 
128 1 12.6458 12.6458 7.15621 
2 1 14.7983 14.7983 14.7998 
9 1 12.3446 12.3446 12.3451 
18 1 13.9167 13.9167 13.9181 
25 1 13.2266 13.2266 13.2253 
34 1 17.3936 14.3639 14.3638 
42 1 14.3639 17.3936 14.3638 
50 1 14.3645 14.3645 17.3891 
57 1 9.75246 12.7793 12.7794 
65 1 12.7793 9.75246 12.7794 
73 1 12.7794 12.7794 9.75106 
82 1 16.2059 14.4974 14.4975 
90 1 14.4974 16.2059 14.4975 
98 1 14.4976 14.4976 16.2094 
105 1 10.9359 12.6461 12.6462 
113 1 12.6461 10.9359 12.6462 
121 1 12.6458 12.6458 10.9368 
ITEM: TIMESTEP
50
ITEM: NUMBER OF ATOMS
128
ITEM: BOX BOUNDS pp pp pp
0.0000000000000000e+00 1.8095710579799999e+01
0.0000000000000000e+00 1.8095710579799999e+01
0.0000000000000000e+00 1.8095710579799999e+01
ITEM: ATOMS id type x y z 
1 1 3.29576 3.29576 3.29516 
10 1 5.75194 5.75194 5.75197 
17 1 4.17872 4.17872 4.17752 
26 1 4.86922 4.86922 4.87025 
33 1 0.710255 3.7464 3.74645 
41 1 3.7464 0.710255 3.74645 
49 1 3.74637 3.74637 0.711007 
58 1 8.33805 5.30161 5.30143 
66 1 5.30161 8.33805 5.30143 
74 1 5.30162 5.30162 8.3385 
81 1 1.89056 3.59919 3.59965 
89 1 3.59919 1.89056 3.59965 
97 1 3.59881 3.59881 1.89019 
106 1 7.15685 5.44873 5.4486 
114 1 5.44873 7.15685 5.4486 
122 1 5.44902 5.44902 7.15725 
4 1 3.29581 3.29581 14.7997 
11 1 5.7522 5.7522 12.3439 
20 1 4.17876 4.17876 13.918 
27 1 4.86919 4.86919 13.2254 
36 1 0.710224 3.74622 14.3494 
46 1 3.74622 0.710224 14.3494 
56 1 3.74631 3.74631 17.3852 
59 1 8.33818 5.30155 12.7943 
69 1 5.30155 8.33818 12.7943 
79 1 5.3017 5.3017 9.75715 
84 1 1.89047 3.59904 14.4965 
94 1 3.59904 1.89047 14.4965 
104 1 3.59869 3.59869 16.2044 
107 1 7.15726 5.44893 12.6471 
117 1 5.44893 7.15726 12.6471 
127 1 5.4492 5.4492 10.9389 
6 1 3.29648 14.7993 3.29708 
13 1 5.75134 12.3444 5.75133 
22 1 4.18433 13.9125 4.18429 
29 1 4.86334 13.2306 4.86379 
38 1 0.710729 14.3493 3.74629 
48 1 3.74613 17.3854 3.74614 
52 1 3.74621 14.3494 0.710645 
61 1 8.33752 12.7943 5.30152 
71 1 5.30191 9.7577 5.30191 
75 1 5.30154 12.7943 8.33752 
86 1 1.88993 14.4968 3.5991 
96 1 3.59863 16.2059 3.59882 
100 1 3.59899 14.4967 1.89035 
109 1 7.15754 12.6469 5.449 
119 1 5.44934 10.9378 5.44938 
123 1 5.44896 12.6469 7.15796 
7 1 3.29612 14.8001 14.7999 
16 1 5.75187 12.3434 12.3433 
23 1 4.17735 13.9169 13.9167 
32 1 4.87086 13.2264 13.2263 
39 1 0.709632 14.3494 14.3492 
43 1 3.74628 17.3858 14.3494 
53 1 3.74656 14.3492 17.3861 
64 1 8.33822 12.7942 12.7942 
68 1 5.30142 9.75718 12.7942 
78 1 5.30138 12.7943 9.75734 
87 1 1.89115 14.4971 14.4967 
91 1 3.59955 16.2054 14.4963 
101 1 3.5996 14.4966 16.205 
112 1 7.15708 12.6464 12.6464 
116 1 5.44857 10.9385 12.6468 
126 1 5.44857 12.6468 10.9386 
8 1 14.7993 3.29648 3.29708 
15 1 12.3444 5.75134 5.75133 
24 1 13.9125 4.18433 4.18429 
31 1 13.2306 4.86334 4.86379 
40 1 17.3854 3.74613 3.74614 
44 1 14.3493 0.710729 3.74629 
54 1 14.3494 3.74621 0.710645 
63 1 9.7577 5.30191 5.30191 
67 1 12.7943 8.33752 5.30152 
77 1 12.7943 5.30154 8.33752 
88 1 16.2059 3.59863 3.59882 
92 1 14.4968 1.88993 3.5991 
102 1 14.4967 3.59899 1.89035 
111 1 10.9378 5.44934 5.44938 
115 1 12.6469 7.15754 5.449 
125 1 12.6469 5.44896 7.15796 
5 1 14.8001 3.29612 14.7999 
14 1 12.3434 5.75187 12.3433 
21 1 13.9169 4.17735 13.9167 
30 1 13.2264 4.87086 13.2263 
37 1 17.3858 3.74628 14.3494 
47 1 14.3494 0.709632 14.3492 
51 1 14.3492 3.74656 17.3861 
62 1 9.75718 5.30142 12.7942 
72 1 12.7942 8.33822 12.7942 
76 1 12.7943 5.30138 9.75734 
85 1 16.2054 3.59955 14.4963 
95 1 14.4971 1.89115 14.4967 
99 1 14.4966 3.5996 16.205 
110 1 10.9385 5.44857 12.6468 
120 1 12.6464 7.15708 12.6464 
124 1 12.6468 5.44857 10.9386 
3 1 14.7993 14.7993 3.29712 
12 1 12.3442 12.3442 5.75054 
19 1 13.9113 13.9113 4.18352 
28 1 13.2323 13.2323 4.86422 
35 1 17.3855 14.3493 3.7464 
45 1 14.3493 17.3855 3.7464 
55 1 14.3493 14.3493 0.710672 
60 1 9.75841 12.7942 5.30147 
70 1 12.7942 9.75841 5.30147 
80 1 12.7944 12.7944 8.33795 
83 1 16.2057 14.4968 3.59929 
93 1 14.4968 16.2057 3.59929 
103 1 14.497 14.497 1.89038 
108 1 10.9375 12.6468 5.44841 
118 1 12.6468 10.9375 5.44841 
128 1 12.6466 12.6466 7.157 
2 1 14.7999 14.7999 14.8003 
9 1 12.3435 12.3435 12.3434 
18 1 13.9169 13.9169 13.9181 
25 1 13.2266 13.2266 13.2254 
34 1 17.3854 14.3488 14.3487 
42 1 14.3488 17.3854 14.3487 
50 1 14.3489 14.3489 17.3862 
57 1 9.75722 12.7948 12.7949 
65 1 12.7948 9.75722 12.7949 
73 1 12.7946 12.7946 9.75767 
82 1 16.2055 14.4969 14.497 
90 1 14.4969 16.2055 14.497 
98 1 14.4973 14.4973 16.2058 
105 1 10.9382 12.6465 12.6466 
113 1 12.6465 10.9382 12.6466 
121 1 12.6462 12.6462 10.9378 
ITEM: TIMESTEP
60
ITEM: NUMBER OF ATOMS
128
ITEM: BOX BOUNDS pp pp pp
0.0000000000000000e+00 1.8095710579799999e+01
0.0000000000000000e+00 1.8095710579799999e+01
0.0000000000000000e+00 1.8095710579799999e+01
ITEM: ATOMS id type x y z 
1 1 3.29417 3.29417 3.29298 
10 1 5.7541 5.7541 5.75435 
17 1 4.17962 4.17962 4.17894 
26 1 4.86858 4.86858 4.86948 
33 1 0.711518 3.76971 3.7699 
41 1 3.76971 0.711518 3.7699 
49 1 3.76929 3.76929 0.713063 
58 1 8.3353 5.27861 5.27842 
66 1 5.27861 8.3353 5.27842 
74 1 5.27879 5.27879 8.33515 
81 1 1.88728 3.60286 3.60349 
89 1 3.60286 1.88728 3.60349 
97 1 3.60281 3.60281 1.88558 
106 1 7.16129 5.44504 5.44495 
114 1 5.44504 7.16129 5.44495 
122 1 5.44524 5.44524 7.16217 
4 1 3.29345 3.29345 14.7999 
11 1 5.75433 5.75433 12.3415 
20 1 4.17948 4.17948 13.9169 
27 1 4.86878 4.86878 13.2261 
36 1 0.711557 3.76941 14.3262 
46 1 3.76941 0.711557 14.3262 
56 1 3.76981 3.76981 17.3856 
59 1 8.33534 5.27865 12.8173 
69 1 5.27865 8.33534 12.8173 
79 1 5.27881 5.27881 9.76034 
84 1 1.88687 3.60279 14.4926 
94 1 3.60279 1.88687 14.4926 
104 1 3.60273 3.60273 16.2083 
107 1 7.16191 5.44515 12.6509 
117 1 5.44515 7.16191 12.6509 
127 1 5.44549 5.44549 10.934 
6 1 3.29362 14.8017 3.29345 
13 1 5.75365 12.341 5.75463 
22 1 4.1792 13.9178 4.1794 
29 1 4.86851 13.2253 4.86864 
38 1 0.712137 14.3262 3.76951 
48 1 3.76945 17.3846 3.76948 
52 1 3.76922 14.3264 0.712381 
61 1 8.33643 12.8177 5.27823 
71 1 5.2789 9.75967 5.27885 
75 1 5.27851 12.8174 8.33564 
86 1 1.88671 14.493 3.60271 
96 1 3.60236 16.2085 3.60234 
100 1 3.6027 14.4929 1.88624 
109 1 7.16051 12.6505 5.44532 
119 1 5.44562 10.9339 5.44576 
123 1 5.44513 12.6506 7.16175 
7 1 3.29438 14.8018 14.8019 
16 1 5.75416 12.3415 12.3416 
23 1 4.17872 13.9157 13.9159 
32 1 4.86945 13.2274 13.2275 
39 1 0.710674 14.3263 14.326 
43 1 3.76958 17.3841 14.3261 
53 1 3.76966 14.3263 17.3841 
64 1 8.33563 12.8171 12.8171 
68 1 5.27839 9.75989 12.8171 
78 1 5.27826 12.8173 9.75961 
87 1 1.88698 14.4933 14.4932 
91 1 3.60309 16.2085 14.4928 
101 1 3.60307 14.4929 16.2088 
112 1 7.16169 12.6501 12.6501 
116 1 5.44496 10.9343 12.6504 
126 1 5.44495 12.6505 10.9345 
8 1 14.8017 3.29362 3.29345 
15 1 12.341 5.75365 5.75463 
24 1 13.9178 4.1792 4.1794 
31 1 13.2253 4.86851 4.86864 
40 1 17.3846 3.76945 3.76948 
44 1 14.3262 0.712137 3.76951 
54 1 14.3264 3.76922 0.712381 
63 1 9.75967 5.2789 5.27885 
67 1 12.8177 8.33643 5.27823 
77 1 12.8174 5.27851 8.33564 
88 1 16.2085 3.60236 3.60234 
92 1 14.493 1.88671 3.60271 
102 1 14.4929 3.6027 1.88624 
111 1 10.9339 5.44562 5.44576 
115 1 12.6505 7.16051 5.44532 
125 1 12.6506 5.44513 7.16175 
5 1 14.8018 3.29438 14.8019 
14 1 12.3415 5.75416 12.3416 
21 1 13.9157 4.17872 13.9159 
30 1 13.2274 4.86945 13.2275 
37 1 17.3841 3.76958 14.3261 
47 1 14.3263 0.710674 14.326 
51 1 14.3263 3.76966 17.3841 
62 1 9.75989 5.27839 12.8171 
72 1 12.8171 8.33563 12.8171 
76 1 12.8173 5.27826 9.75961 
85 1 16.2085 3.60309 14.4928 
95 1 14.4933 1.88698 14.4932 
99 1 14.4929 3.60307 16.2088 
110 1 10.9343 5.44496 12.6504 
120 1 12.6501 7.16169 12.6501 
124 1 12.6505 5.44495 10.9345 
3 1 14.802 14.802 3.29381 
12 1 12.3414 12.3414 5.75405 
19 1 13.9167 13.9167 4.17824 
28 1 13.2269 13.2269 4.8695 
35 1 17.3847 14.326 3.76978 
45 1 14.326 17.3847 3.76978 
55 1 14.3261 14.3261 0.711577 
60 1 9.75984 12.8174 5.27813 
70 1 12.8174 9.75984 5.27813 
80 1 12.8176 12.8176 8.33636 
83 1 16.2087 14.4931 3.60288 
93 1 14.4931 16.2087 3.60288 
103 1 14.4933 14.4933 1.88701 
108 1 10.9344 12.6505 5.44475 
118 1 12.6505 10.9344 5.44475 
128 1 12.6502 12.6502 7.16093 
2 1 14.8021 14.8021 14.802 
9 1 12.3413 12.3413 12.3417 
18 1 13.9164 13.9164 13.9176 
25 1 13.2269 13.2269 13.226 
34 1 17.3821 14.3264 14.3263 
42 1 14.3264 17.3821 14.3263 
50 1 14.3261 14.3261 17.3841 
57 1 9.76018 12.8174 12.8175 
65 1 12.8174 9.76018 12.8175 
73 1 12.8171 12.8171 9.76099 
82 1 16.2111 14.4926 14.4928 
90 1 14.4926 16.2111 14.4928 
98 1 14.4933 14.4933 16.2094 
105 1 10.9339 12.6504 12.6506 
113 1 12.6504 10.9339 12.6506 
121 1 12.6503 12.6503 10.9328 
ITEM: TIMESTEP
70
ITEM: NUMBER OF ATOMS
128
ITEM: BOX BOUNDS pp pp pp
0.0000000000000000e+00 1.8095710579799999e+01
0.0000000000000000e+00 1.8095710579799999e+01
0.0000000000000000e+00 1.8095710579799999e+01
ITEM: ATOMS id type x y z 
1 1 3.29099 3.29099 3.28898 
10 1 5.75694 5.75694 5.75812 
17 1 4.18102 4.18102 4.18039 
26 1 4.86721 4.86721 4.86777 
33 1 0.715228 3.80452 3.80479 
41 1 3.80452 0.715228 3.80479 
49 1 3.80402 3.80402 0.717023 
58 1 8.33196 5.24395 5.24378 
66 1 5.24395 8.33196 5.24378 
74 1 5.24441 5.24441 8.33035 
81 1 1.88279 3.61213 3.6124 
89 1 3.61213 1.88279 3.6124 
97 1 3.61185 3.61185 1.88301 
106 1 7.1665 5.43568 5.43542 
114 1 5.43568 7.1665 5.43542 
122 1 5.43571 5.43571 7.16794 
4 1 3.29101 3.29101 14.805 
11 1 5.7577 5.7577 12.3386 
20 1 4.18037 4.18037 13.9159 
27 1 4.86756 4.86756 13.2275 
36 1 0.714441 3.80418 14.2912 
46 1 3.80418 0.714441 14.2912 
56 1 3.80406 3.80406 17.3783 
59 1 8.3318 5.24388 12.852 
69 1 5.24388 8.3318 12.852 
79 1 5.24471 5.24471 9.76654 
84 1 1.88252 3.61195 14.4833 
94 1 3.61195 1.88252 14.4833 
104 1 3.61184 3.61184 16.2132 
107 1 7.16585 5.43598 12.6601 
117 1 5.43598 7.16585 12.6601 
127 1 5.43565 5.43565 10.9267 
6 1 3.29072 14.8058 3.29098 
13 1 5.75716 12.3371 5.75669 
22 1 4.17882 13.913 4.17796 
29 1 4.86864 13.2301 4.87027 
38 1 0.714907 14.2915 3.80412 
48 1 3.80405 17.3808 3.80421 
52 1 3.80403 14.2916 0.715289 
61 1 8.33263 12.8521 5.24377 
71 1 5.24469 9.76483 5.24468 