LAMMPS (3 Mar 2020)
Reading data file ...
  orthogonal box = (0 0 0) to (18.0957 18.0957 18.0957)
  2 by 2 by 2 MPI processor grid
  reading atoms ...
  128 atoms
  read_data CPU = 0.00978619 secs
WARNING: Using 'neigh_modify every 1 delay 0 check yes' setting during minimization (../min.cpp:190)
WARNING: Total cutoff < 2*bond cutoff. May need to use an increased neighbor list skin. (../pair_reaxc.cpp:413)
Neighbor list info ...
  update every 1 steps, delay 0 steps, check yes
  max neighbors/atom: 2000, page size: 100000
  master list distance cutoff = 9.5
  ghost atom cutoff = 9.5
  binsize = 4.75, bins = 4 4 4
  2 neighbor lists, perpetual/occasional/extra = 2 0 0
  (1) pair reax/c, perpetual
      attributes: half, newton off, ghost
      pair build: half/bin/newtoff/ghost
      stencil: half/ghost/bin/3d/newtoff
      bin: standard
  (2) fix qeq/reax, perpetual, copy from (1)
      attributes: half, newton off, ghost
      pair build: copy
      stencil: none
      bin: none
Setting up cg style minimization ...
  Unit style    : real
  Current step  : 0
Per MPI rank memory allocation (min/avg/max) = 15.84 | 15.84 | 15.84 Mbytes
Step Temp E_pair E_mol TotEng Press 
       0            0   -22439.134            0   -22439.134   -221.26941 
      89            0   -23044.391            0   -23044.391    66469.159 
Loop time of 2.48052 on 8 procs for 89 steps with 128 atoms

99.9% CPU use with 8 MPI tasks x no OpenMP threads

Minimization stats:
  Stopping criterion = energy tolerance
  Energy initial, next-to-last, final = 
        -22439.1336838     -23044.3912912      -23044.391339
  Force two-norm initial, final = 2361.19 273.928
  Force max component initial, final = 293.119 132.177
  Final line search alpha, max atom move = 0.000980486 0.129598
  Iterations, force evaluations = 89 313

MPI task timing breakdown:
Section |  min time  |  avg time  |  max time  |%varavg| %total
---------------------------------------------------------------
Pair    | 1.614      | 1.6333     | 1.6542     |   1.1 | 65.85
Neigh   | 0          | 0          | 0          |   0.0 |  0.00
Comm    | 0.050942   | 0.072686   | 0.091942   |   5.4 |  2.93
Output  | 0.00091174 | 0.0012591  | 0.0019672  |   0.9 |  0.05
Modify  | 0.75986    | 0.76007    | 0.76097    |   0.0 | 30.64
Other   |            | 0.01319    |            |       |  0.53

Nlocal:    16 ave 16 max 16 min
Histogram: 8 0 0 0 0 0 0 0 0 0
Nghost:    416 ave 416 max 416 min
Histogram: 8 0 0 0 0 0 0 0 0 0
Neighs:    1026 ave 1026 max 1026 min
Histogram: 8 0 0 0 0 0 0 0 0 0

Total # of neighbors = 8208
Ave neighs/atom = 64.125
Neighbor list builds = 0
Dangerous builds = 0
WARNING: Using 'neigh_modify every 1 delay 0 check yes' setting during minimization (../min.cpp:190)
WARNING: Total cutoff < 2*bond cutoff. May need to use an increased neighbor list skin. (../pair_reaxc.cpp:413)
Setting up cg style minimization ...
  Unit style    : real
  Current step  : 89
Per MPI rank memory allocation (min/avg/max) = 15.84 | 15.84 | 15.84 Mbytes
Step Temp E_pair E_mol TotEng Press 
      89            0   -23044.391            0   -23044.391    66469.159 
      94            0   -23044.595            0   -23044.595    66618.391 
Loop time of 0.196452 on 8 procs for 5 steps with 128 atoms

99.5% CPU use with 8 MPI tasks x no OpenMP threads

Minimization stats:
  Stopping criterion = energy tolerance
  Energy initial, next-to-last, final = 
         -23044.391339      -23044.594502     -23044.5946791
  Force two-norm initial, final = 273.928 253.732
  Force max component initial, final = 132.177 120.161
  Final line search alpha, max atom move = 0.000208037 0.0249978
  Iterations, force evaluations = 5 25

MPI task timing breakdown:
Section |  min time  |  avg time  |  max time  |%varavg| %total
---------------------------------------------------------------
Pair    | 0.1253     | 0.12718    | 0.12951    |   0.4 | 64.74
Neigh   | 0          | 0          | 0          |   0.0 |  0.00
Comm    | 0.0024791  | 0.0048224  | 0.0066457  |   2.1 |  2.45
Output  | 8.7507e-05 | 0.00011482 | 0.00016279 |   0.0 |  0.06
Modify  | 0.063074   | 0.063159   | 0.063233   |   0.0 | 32.15
Other   |            | 0.001177   |            |       |  0.60

Nlocal:    16 ave 16 max 16 min
Histogram: 8 0 0 0 0 0 0 0 0 0
Nghost:    416 ave 416 max 416 min
Histogram: 8 0 0 0 0 0 0 0 0 0
Neighs:    967.5 ave 970 max 966 min
Histogram: 5 0 0 0 0 0 0 0 0 3

Total # of neighbors = 7740
Ave neighs/atom = 60.4688
Neighbor list builds = 0
Dangerous builds = 0
WARNING: Using 'neigh_modify every 1 delay 0 check yes' setting during minimization (../min.cpp:190)
WARNING: Total cutoff < 2*bond cutoff. May need to use an increased neighbor list skin. (../pair_reaxc.cpp:413)
Setting up cg style minimization ...
  Unit style    : real
  Current step  : 94
WARNING: Energy due to 3 extra global DOFs will be included in minimizer energies
Per MPI rank memory allocation (min/avg/max) = 15.84 | 15.84 | 15.84 Mbytes
Step Temp E_pair E_mol TotEng Press Volume 
      94            0   -23044.595            0   -23044.595    66618.391    5925.5262 
    3188            0   -23370.494            0   -23370.494    115.20241    6550.1267 
Loop time of 18.0767 on 8 procs for 3094 steps with 128 atoms

99.4% CPU use with 8 MPI tasks x no OpenMP threads

Minimization stats:
  Stopping criterion = energy tolerance
  Energy initial, next-to-last, final = 
        -23044.5946791      -23370.494309     -23370.4943855
  Force two-norm initial, final = 9979.79 83.4797
  Force max component initial, final = 5891.59 16.8
  Final line search alpha, max atom move = 4.05585e-06 6.81383e-05
  Iterations, force evaluations = 3094 3120

MPI task timing breakdown:
Section |  min time  |  avg time  |  max time  |%varavg| %total
---------------------------------------------------------------
Pair    | 13.889     | 14.042     | 14.208     |   2.9 | 77.68
Neigh   | 0.0017272  | 0.0017393  | 0.0017531  |   0.0 |  0.01
Comm    | 0.43095    | 0.60053    | 0.74954    |  13.9 |  3.32
Output  | 0.030383   | 0.037893   | 0.056639   |   4.1 |  0.21
Modify  | 3.0818     | 3.0833     | 3.0919     |   0.2 | 17.06
Other   |            | 0.3112     |            |       |  1.72

Nlocal:    16 ave 16 max 16 min
Histogram: 8 0 0 0 0 0 0 0 0 0
Nghost:    416 ave 416 max 416 min
Histogram: 8 0 0 0 0 0 0 0 0 0
Neighs:    888 ave 888 max 888 min
Histogram: 8 0 0 0 0 0 0 0 0 0

Total # of neighbors = 7104
Ave neighs/atom = 55.5
Neighbor list builds = 1
Dangerous builds = 0
WARNING: Using 'neigh_modify every 1 delay 0 check yes' setting during minimization (../min.cpp:190)
WARNING: Total cutoff < 2*bond cutoff. May need to use an increased neighbor list skin. (../pair_reaxc.cpp:413)
Setting up cg style minimization ...
  Unit style    : real
  Current step  : 3188
Per MPI rank memory allocation (min/avg/max) = 15.84 | 15.84 | 15.84 Mbytes
Step Temp E_pair E_mol TotEng Press 
    3188            0   -23370.494            0   -23370.494    115.20241 
    3191            0   -23370.522            0   -23370.522    117.75087 
Loop time of 0.150437 on 8 procs for 3 steps with 128 atoms

99.7% CPU use with 8 MPI tasks x no OpenMP threads

Minimization stats:
  Stopping criterion = energy tolerance
  Energy initial, next-to-last, final = 
        -23370.4943855     -23370.5220716     -23370.5222414
  Force two-norm initial, final = 80.1137 72.3127
  Force max component initial, final = 13.5997 11.9843
  Final line search alpha, max atom move = 0.000521073 0.00624471
  Iterations, force evaluations = 3 21

MPI task timing breakdown:
Section |  min time  |  avg time  |  max time  |%varavg| %total
---------------------------------------------------------------
Pair    | 0.096803   | 0.098562   | 0.10013    |   0.3 | 65.52
Neigh   | 0          | 0          | 0          |   0.0 |  0.00
Comm    | 0.0023304  | 0.0038331  | 0.0056     |   1.4 |  2.55
Output  | 0.00015399 | 0.00017642 | 0.00024052 |   0.0 |  0.12
Modify  | 0.04681    | 0.046822   | 0.046881   |   0.0 | 31.12
Other   |            | 0.001043   |            |       |  0.69

Nlocal:    16 ave 16 max 16 min
Histogram: 8 0 0 0 0 0 0 0 0 0
Nghost:    416 ave 416 max 416 min
Histogram: 8 0 0 0 0 0 0 0 0 0
Neighs:    936 ave 936 max 936 min
Histogram: 8 0 0 0 0 0 0 0 0 0

Total # of neighbors = 7488
Ave neighs/atom = 58.5
Neighbor list builds = 0
Dangerous builds = 0
WARNING: Using 'neigh_modify every 1 delay 0 check yes' setting during minimization (../min.cpp:190)
WARNING: Total cutoff < 2*bond cutoff. May need to use an increased neighbor list skin. (../pair_reaxc.cpp:413)
Setting up cg style minimization ...
  Unit style    : real
  Current step  : 3191
WARNING: Energy due to 3 extra global DOFs will be included in minimizer energies
Per MPI rank memory allocation (min/avg/max) = 15.84 | 15.84 | 15.84 Mbytes
Step Temp E_pair E_mol TotEng Press Volume 
    3191            0   -23370.522            0   -23370.522    117.75087    6550.1267 
    3594            0   -23378.274            0   -23378.274   -147.49118    6603.8452 
Loop time of 3.20755 on 8 procs for 403 steps with 128 atoms

99.3% CPU use with 8 MPI tasks x no OpenMP threads

Minimization stats:
  Stopping criterion = energy tolerance
  Energy initial, next-to-last, final = 
        -23370.5222414     -23378.2739845     -23378.2741689
  Force two-norm initial, final = 76.204 29.9339
  Force max component initial, final = 17.225 15.0362
  Final line search alpha, max atom move = 4.8894e-06 7.35179e-05
  Iterations, force evaluations = 403 582

MPI task timing breakdown:
Section |  min time  |  avg time  |  max time  |%varavg| %total
---------------------------------------------------------------
Pair    | 2.443      | 2.4736     | 2.5047     |   1.3 | 77.12
Neigh   | 0          | 0          | 0          |   0.0 |  0.00
Comm    | 0.076185   | 0.10792    | 0.13817    |   6.4 |  3.36
Output  | 0.0039408  | 0.0046918  | 0.0067792  |   1.2 |  0.15
Modify  | 0.5688     | 0.56912    | 0.57069    |   0.1 | 17.74
Other   |            | 0.0522     |            |       |  1.63

Nlocal:    16 ave 16 max 16 min
Histogram: 8 0 0 0 0 0 0 0 0 0
Nghost:    416 ave 416 max 416 min
Histogram: 8 0 0 0 0 0 0 0 0 0
Neighs:    936 ave 936 max 936 min
Histogram: 8 0 0 0 0 0 0 0 0 0

Total # of neighbors = 7488
Ave neighs/atom = 58.5
Neighbor list builds = 0
Dangerous builds = 0
WARNING: Using 'neigh_modify every 1 delay 0 check yes' setting during minimization (../min.cpp:190)
WARNING: Total cutoff < 2*bond cutoff. May need to use an increased neighbor list skin. (../pair_reaxc.cpp:413)
Setting up cg style minimization ...
  Unit style    : real
  Current step  : 3594
Per MPI rank memory allocation (min/avg/max) = 15.84 | 15.84 | 15.84 Mbytes
Step Temp E_pair E_mol TotEng Press 
    3594            0   -23378.274            0   -23378.274   -147.49118 
    3599            0    -23378.29            0    -23378.29   -59.089739 
Loop time of 0.349377 on 8 procs for 5 steps with 128 atoms

99.6% CPU use with 8 MPI tasks x no OpenMP threads

Minimization stats:
  Stopping criterion = energy tolerance
  Energy initial, next-to-last, final = 
        -23378.2741689     -23378.2896518     -23378.2896765
  Force two-norm initial, final = 17.1127 22.3931
  Force max component initial, final = 4.09889 4.57425
  Final line search alpha, max atom move = 0.00582402 0.0266405
  Iterations, force evaluations = 5 55

MPI task timing breakdown:
Section |  min time  |  avg time  |  max time  |%varavg| %total
---------------------------------------------------------------
Pair    | 0.23806    | 0.24091    | 0.24568    |   0.6 | 68.95
Neigh   | 0          | 0          | 0          |   0.0 |  0.00
Comm    | 0.0048291  | 0.0096182  | 0.01243    |   2.9 |  2.75
Output  | 0          | 0          | 0          |   0.0 |  0.00
Modify  | 0.09704    | 0.097067   | 0.097195   |   0.0 | 27.78
Other   |            | 0.001783   |            |       |  0.51

Nlocal:    16 ave 16 max 16 min
Histogram: 8 0 0 0 0 0 0 0 0 0
Nghost:    416 ave 416 max 416 min
Histogram: 8 0 0 0 0 0 0 0 0 0
Neighs:    936 ave 936 max 936 min
Histogram: 8 0 0 0 0 0 0 0 0 0

Total # of neighbors = 7488
Ave neighs/atom = 58.5
Neighbor list builds = 0
Dangerous builds = 0
WARNING: Total cutoff < 2*bond cutoff. May need to use an increased neighbor list skin. (../pair_reaxc.cpp:413)
Setting up Verlet run ...
  Unit style    : real
  Current step  : 0
  Time step     : 0.25
Per MPI rank memory allocation (min/avg/max) = 14.72 | 14.72 | 14.72 Mbytes
Step Temp TotEng KinEng PotEng Press 
       0          300   -23264.721    113.56886    -23378.29    727.04185 
     200    220.57038   -23224.595    83.499759   -23308.095   -2184.4076 
     400    243.18421   -23164.407    92.060515   -23256.467   -1914.9167 
     600    284.41767   -23126.846    107.66997   -23234.516   -855.31211 
     800    263.17029   -23150.422    99.626502   -23250.049    2472.1812 
    1000    291.04916   -23145.693    110.18041   -23255.874   -797.54983 
    1200    314.46644   -23127.969    119.04532   -23247.015   -14657.665 
    1400    283.45661   -23157.988    107.30615   -23265.294   -1008.3782 
    1600    273.59277   -23158.259    103.57207   -23261.831    972.78462 
    1800     265.4214   -23173.277    100.47869   -23273.756   -3195.3383 
    2000    315.09101   -23148.231    119.28176   -23267.513   -1701.5631 
    2200    293.95188   -23152.926    111.27927   -23264.205   -4329.4701 
    2400    326.46043   -23129.865     123.5858   -23253.451   -3187.7323 
    2600    311.18337   -23132.427    117.80247    -23250.23     -5984.52 
    2800    294.99965    -23148.16    111.67592   -23259.836   -2264.5175 
    3000    278.44873   -23157.954    105.41035   -23263.365    3352.4198 
    3200    296.97279    -23136.56    112.42287   -23248.983   -787.30329 
    3400    286.70248   -23153.785    108.53491    -23262.32   -4122.7859 
    3600    319.74232   -23156.251    121.04257   -23277.293   -1857.2957 
    3800    277.28235   -23179.285     104.9688   -23284.254   -687.21975 
    4000     285.9015   -23152.228    108.23169   -23260.459   -1843.4059 
    4200    319.29893   -23125.593    120.87472   -23246.468   -3874.6306 
    4400    285.13074   -23147.384    107.93991   -23255.324   -1906.6943 
    4600    299.80457   -23142.302    113.49488   -23255.797   -529.98366 
    4800    351.05074   -23135.773    132.89478   -23268.668    995.39496 
    5000    304.64742   -23158.454     115.3282   -23273.783   -742.58526 
    5200    258.89124   -23163.182    98.006613   -23261.188   -2650.5051 
    5400    331.59715   -23137.413    125.53037   -23262.943   -3707.5951 
    5600    281.22803    -23158.59    106.46249   -23265.052   -5471.9013 
    5800    352.48464   -23132.846     133.4376   -23266.284   -8783.9708 
    6000    316.48497    -23142.69    119.80946   -23262.499   -5182.2407 
    6200    289.03668   -23144.266    109.41856   -23253.685   -7684.4864 
    6400    322.07233   -23127.818    121.92463   -23249.743   -3956.9231 
    6600    291.14001   -23149.867     110.2148   -23260.082    3400.6565 
    6800    308.89433   -23158.031    116.93593   -23274.967    1245.7979 
    7000    279.14176   -23165.773    105.67271   -23271.446    5942.3116 
    7200    310.27797   -23140.185    117.45972   -23257.645   -2892.8699 
    7400    303.82327   -23145.609    115.01621   -23260.625    -2594.847 
    7600    319.76444    -23118.86    121.05095   -23239.911    5575.4748 
    7800    302.45025   -23140.026    114.49644   -23254.522    4369.2353 
    8000    331.57442   -23141.571    125.52176   -23267.093    2368.0242 
    8200    288.68474   -23170.001    109.28533   -23279.287   -4028.9267 
    8400    292.09451   -23160.766    110.57614   -23271.342   -5146.5639 
    8600    339.27132   -23147.363    128.43553   -23275.799   -2916.9449 
    8800    252.69874   -23173.005    95.662361   -23268.667   -3801.5704 
    9000    269.88702    -23160.67    102.16921    -23262.84   -4985.3746 
    9200    293.58464   -23140.759    111.14025   -23251.899    -10372.84 
    9400    322.98824   -23139.563    122.27136   -23261.835   -7683.1494 
    9600    313.17843   -23133.245    118.55773   -23251.802    4824.9252 
    9800     284.4443   -23153.661    107.68005   -23261.341    1270.2552 
   10000    281.13442   -23146.475    106.42705   -23252.902    683.43969 
   10200     315.1031   -23141.471    119.28633   -23260.757   -1630.7552 
   10400    320.18583   -23162.838    121.21047   -23284.048    -8146.036 
   10600    334.64999   -23143.764    126.68606    -23270.45    3771.7896 
   10800     257.8141   -23157.075    97.598849   -23254.674    6369.0534 
   11000    250.86014   -23142.411    94.966338   -23237.377    9058.1744 
   11200    311.39989   -23138.269    117.88444   -23256.154    3422.0017 
   11400    279.79097   -23155.125    105.91847   -23261.044    664.75045 
   11600    300.78194   -23147.325    113.86488    -23261.19   -5706.0303 
   11800    330.55967   -23148.305    125.13762   -23273.443   -6336.7885 
   12000    295.18069   -23157.077    111.74445   -23268.821   -2758.5755 
   12200    280.23233   -23170.282    106.08556   -23276.368    3348.4546 
   12400    304.01612   -23139.103    115.08922   -23254.193    2983.0732 
   12600    294.85528   -23139.463    111.62126   -23251.084   -1720.7679 
   12800    270.58697    -23166.41    102.43418   -23268.844    2241.1122 
   13000    268.39175   -23144.323    101.60315   -23245.926     6257.313 
   13200    296.27946   -23149.673     112.1604   -23261.834    -5510.198 
   13400    273.03116   -23162.658    103.35946   -23266.017   -9002.0042 
   13600    325.34794   -23134.799    123.16465   -23257.964    123.18768 
   13800    296.11313   -23156.695    112.09744   -23268.793   -2300.1253 
   14000    310.19581   -23161.434    117.42862   -23278.863   -7841.8214 
   14200    289.14159    -23141.66    109.45827   -23251.118   -4911.5476 
   14400    310.14983   -23142.982    117.41121   -23260.393    5231.0008 
   14600    272.87345   -23163.301    103.29976   -23266.601    5065.0784 
   14800    305.34353   -23140.811    115.59173   -23256.403   -3085.3193 
   15000    309.78091   -23150.956    117.27155   -23268.228    -4858.939 
   15200    286.64497   -23166.341    108.51314   -23274.854    6412.4349 
   15400    301.11555   -23146.497    113.99117   -23260.488    9714.8587 
   15600     263.9399   -23155.231    99.917847   -23255.149    7249.2571 
   15800    233.76982   -23181.543    88.496574    -23270.04    2649.8155 
   16000    276.25741   -23152.482     104.5808   -23257.062   -1704.7434 
   16200    296.56912   -23134.468    112.27006   -23246.738   -1315.7576 
   16400    295.54144   -23136.035    111.88102   -23247.916   -9513.1599 
   16600    288.29833   -23163.526    109.13905   -23272.665    1896.6241 
   16800    288.50253   -23147.021    109.21635   -23256.237    6756.7499 
   17000    310.91829   -23143.286    117.70212   -23260.988    6237.3776 
   17200    283.45133   -23160.273    107.30415   -23267.577   -1646.4063 
   17400     363.0362   -23130.023    137.43203   -23267.455    8862.8878 
   17600    305.04176   -23142.765    115.47749   -23258.242    7140.6539 
   17800    305.49387   -23151.973    115.64864   -23267.622   -1822.1745 
   18000    274.00893   -23169.999    103.72961   -23273.729    -3828.503 
   18200    337.13598   -23141.167    127.62717   -23268.795   -9557.1583 
   18400    296.20469    -23145.68     112.1321   -23257.812    8504.4047 
   18600    259.85517   -23174.629    98.371519   -23273.001    3409.9876 
   18800    290.59426   -23157.462     110.0082    -23267.47     3917.072 
   19000     302.8175   -23148.419    114.63546   -23263.055    2502.1711 
   19200    317.21179   -23137.117    120.08461   -23257.202    1911.1993 
   19400    310.26564   -23125.523    117.45505   -23242.978   -5241.2748 
   19600    269.43304   -23152.963    101.99735   -23254.961   -4822.5237 
   19800    338.30401   -23137.421    128.06934    -23265.49    5981.0469 
   20000     257.7878   -23167.353     97.58889   -23264.942   -2044.7794 
   20200    302.24657   -23149.698    114.41933   -23264.117   -279.93341 
   20400    299.92486   -23151.204    113.54042   -23264.744   -5316.8027 
   20600     255.4288   -23174.629    96.695861   -23271.325    239.93282 
   20800     300.9968   -23152.769    113.94622   -23266.716     4005.525 
   21000     292.4893   -23142.639    110.72559   -23253.364   -2675.4248 
   21200    312.22058   -23119.173    118.19512   -23237.368   -7472.4535 
   21400    269.91042   -23139.839    102.17806   -23242.017   -6808.5649 
   21600    273.15637   -23159.133    103.40686    -23262.54   -6340.4367 
   21800    329.34737   -23143.074    124.67869   -23267.753    -2459.378 
   22000    305.55098   -23139.855    115.67026   -23255.525    2637.4387 
   22200    301.52588   -23159.362     114.1465   -23273.509   -598.64304 
   22400    297.30993   -23148.241     112.5505   -23260.791   -1018.9333 
   22600    316.22335   -23133.461    119.71042   -23253.172   -8375.5431 
   22800    284.04996   -23144.835    107.53077   -23252.366    -4482.049 
   23000    274.95881   -23146.343     104.0892   -23250.432   -1536.2635 
   23200    314.07488   -23131.609    118.89709   -23250.506    224.72222 
   23400    303.74808   -23159.537    114.98775   -23274.525   -8646.0549 
   23600    293.29605   -23153.733      111.031   -23264.764   -7336.9798 
   23800    269.26703   -23151.553     101.9345   -23253.487   -4066.6449 
   24000     274.1662   -23168.782    103.78914   -23272.571    2480.3227 
   24200    320.74526   -23144.399    121.42225   -23265.822    5659.5382 
   24400     344.1672   -23126.658    130.28892   -23256.947   -1274.4814 
   24600    286.71769   -23142.063    108.54067   -23250.604   -5052.5407 
   24800    308.76797   -23152.486    116.88809   -23269.374    -5637.952 
   25000     321.7843   -23132.152    121.81559   -23253.968   -7105.5166 
   25200    285.13003   -23147.344    107.93965   -23255.283    2673.4501 
   25400    312.00352    -23148.08    118.11295   -23266.193   -791.78787 
   25600    258.12397   -23173.037    97.716154   -23270.753   -6373.6387 
   25800    301.69037   -23151.887    114.20877   -23266.096   -2549.4172 
   26000    315.89475    -23136.43    119.58602   -23256.016   -7702.1647 
   26200    301.06844   -23156.195    113.97334   -23270.168   -4668.9295 
   26400    281.85163   -23153.809    106.69856   -23260.508    1780.2388 
   26600    286.38904   -23139.361    108.41626   -23247.777     3126.192 
   26800    289.58219   -23130.516    109.62507   -23240.141    812.28342 
   27000     270.8113   -23161.858    102.51911   -23264.377   -2477.4571 
   27200    294.94731   -23143.948     111.6561   -23255.604   -3224.6893 
   27400    328.39266   -23141.986    124.31727   -23266.303   -1811.0395 
   27600     279.3971   -23149.885    105.76937   -23255.654    1688.2805 
   27800    321.12517   -23128.772    121.56607   -23250.338    2922.6553 
   28000    276.76755    -23155.25    104.77392   -23260.024   -2450.2297 
   28200    273.60875   -23152.217    103.57812   -23255.795   -6921.7515 
   28400    317.27083   -23137.377    120.10696   -23257.484   -5077.3197 
   28600    282.08345   -23149.855    106.78632   -23256.641   -2204.1622 
   28800    276.41301   -23162.078     104.6397   -23266.718   -6750.8229 
   29000    258.44877   -23166.893    97.839109   -23264.732   -882.08207 
   29200    308.20806   -23140.043    116.67613   -23256.719   -1145.1976 
   29400    313.19878   -23152.307    118.56543   -23270.873   -1767.9704 
   29600    279.89849   -23167.914    105.95918   -23273.873   -794.95188 
   29800    284.64002   -23153.306    107.75414   -23261.061    3258.9331 
   30000    318.05825   -23130.801    120.40504   -23251.206    8247.8548 
   30200    306.18796   -23157.472     115.9114   -23273.383     5512.966 
   30400    308.94564   -23156.508    116.95535   -23273.464    2021.4973 
   30600    311.48692    -23146.74    117.91738   -23264.658   -2842.4978 
   30800    310.68078   -23138.325    117.61221   -23255.937   -3156.6248 
   31000    275.22179   -23161.766    104.18875   -23265.954   -5373.0116 
   31200    305.23952   -23140.538    115.55235    -23256.09    144.99162 
   31400    277.31692   -23144.549    104.98189   -23249.531     -606.913 
   31600    317.89634   -23131.515    120.34375   -23251.859   -3048.8627 
   31800     296.8843    -23140.75    112.38938    -23253.14    2423.7216 
   32000    301.01358   -23151.855    113.95257   -23265.808   -1848.2124 
   32200    254.26913    -23172.95    96.256854   -23269.207   -4115.0072 
   32400     313.7544   -23142.638    118.77577   -23261.414    1819.3913 
   32600    270.74529   -23155.524    102.49412   -23258.018    2353.7378 
   32800    355.68999   -23126.256    134.65103   -23260.907     4242.628 
   33000    317.61968    -23133.68    120.23902   -23253.919    7369.6702 
   33200     284.2862   -23148.122     107.6202   -23255.742    1239.3028 
   33400    356.46682   -23121.045    134.94511    -23255.99    4321.1199 
   33600    302.23027   -23138.967    114.41316    -23253.38   -537.88735 
   33800    277.14851   -23157.451    104.91814   -23262.369    -4456.923 
   34000    329.63081    -23145.89    124.78599   -23270.676   -2143.4782 
   34200    302.46235   -23135.617    114.50102   -23250.118    569.16097 
   34400    272.28614   -23161.057    103.07743   -23264.134   -3940.5387 
   34600    252.24122   -23162.797     95.48916   -23258.286    2202.3416 
   34800    324.89899   -23134.374     122.9947   -23257.369   -3800.1484 
   35000    284.11891   -23152.977    107.55687   -23260.534     -871.709 
   35200    276.88074   -23163.699    104.81677   -23268.516   -857.90806 
   35400    325.01388   -23136.194    123.03819   -23259.233     2476.891 
   35600    297.65566   -23159.652    112.68138   -23272.333   -336.75818 
   35800    323.36767   -23146.113      122.415   -23268.528   -4495.9378 
   36000    337.40134   -23143.999    127.72762   -23271.727   -1025.9529 
   36200     275.8817   -23159.835    104.43857   -23264.273     6792.363 
   36400    313.81744   -23132.293    118.79963   -23251.092   -1273.6474 
   36600    289.28073   -23148.192    109.51094   -23257.703   -5387.9394 
   36800    284.50051   -23151.654    107.70133   -23259.355   -751.32617 
   37000    284.21553   -23151.981    107.59345   -23259.574    -740.7079 
   37200    307.56682   -23135.153    116.43338   -23251.586    892.53341 
   37400    249.77475   -23165.391    94.555449   -23259.947    2103.1977 
   37600     279.6286   -23157.654    105.85701   -23263.511   -867.46942 
   37800    295.43044   -23142.937      111.839   -23254.776     1476.656 
   38000    298.72138   -23146.917    113.08483   -23260.002   -9569.2737 
   38200     264.1669   -23174.876    100.00378    -23274.88   -5476.4547 
   38400    287.00435   -23164.269    108.64919   -23272.918   -3905.8301 
   38600    294.64857   -23140.608    111.54301   -23252.151   -1535.9726 
   38800    300.61627   -23145.357    113.80216   -23259.159   -5872.2857 
   39000    282.40819   -23166.216    106.90926   -23273.125   -5163.6647 
   39200    303.03397   -23145.924    114.71741   -23260.641    1677.6601 
   39400    297.50493   -23145.214    112.62432   -23257.838   -2996.0241 
   39600    340.25645   -23146.212    128.80846    -23275.02    744.23165 
   39800    295.87828   -23150.508    112.00853   -23262.517     5905.428 
   40000    276.02814   -23140.967    104.49401   -23245.461    2583.0978 
   40200    303.10984    -23157.29    114.74613   -23272.036   -1755.8919 
   40400    276.78735   -23157.911    104.78141   -23262.692      3212.78 
   40600    333.13011   -23134.266    126.11069   -23260.376   -1532.6865 
   40800    282.95291   -23161.181    107.11547   -23268.296    646.71919 
   41000    290.37101   -23150.772    109.92368   -23260.695   -1603.6822 
   41200    304.61352   -23141.087    115.31537   -23256.402    2510.5248 
   41400    263.66719   -23162.148    99.814611   -23261.963    3215.8344 
   41600    310.26515   -23136.973    117.45487   -23254.428    4003.8749 
   41800     290.2253   -23140.467    109.86853   -23250.336    2878.2502 
   42000    289.80128   -23165.582    109.70801    -23275.29   -1794.8416 
   42200    252.16521   -23182.942    95.460385   -23278.402   -2913.0072 
   42400    286.17905   -23153.548    108.33676   -23261.884     3626.447 
   42600    307.69434   -23134.111    116.48165   -23250.592    11639.162 
   42800    292.64014   -23163.427    110.78269    -23274.21    7146.3739 
   43000    314.05166    -23146.28     118.8883   -23265.168   -976.41837 
   43200    314.31545   -23138.383    118.98816   -23257.371    3761.1945 
   43400    267.22246   -23171.993     101.1605   -23273.153    422.86322 
   43600    312.57495    -23159.94    118.32927   -23278.269   -2497.0757 
   43800    321.05366   -23143.605      121.539   -23265.144   -1292.9663 
   44000    296.45106   -23151.231    112.22537   -23263.456     2373.902 
   44200     288.7949   -23151.721    109.32703   -23261.048    8421.4017 
   44400    294.91413    -23152.08    111.64354   -23263.723   -811.75561 
   44600    297.06961    -23130.98    112.45953    -23243.44   -3262.2844 
   44800    314.84449   -23151.011    119.18843   -23270.199    515.63769 
   45000    311.09621   -23151.461    117.76948    -23269.23   -652.68443 
   45200    308.08674    -23149.88     116.6302    -23266.51    1321.5819 
   45400    261.04559   -23175.524     98.82217   -23274.346    9526.2104 
   45600    273.98876   -23150.144    103.72197   -23253.866    5199.1699 
   45800     317.5685   -23138.912    120.21964   -23259.131    1893.4209 
   46000    295.03176   -23163.714    111.68807   -23275.402   -435.67527 
   46200    286.06781   -23155.143    108.29465   -23263.437     1563.443 
   46400      290.422   -23139.894    109.94299   -23249.837   -1517.5328 
   46600    299.74415   -23158.753    113.47201   -23272.225    2316.4244 
   46800    304.15714   -23161.505     115.1426   -23276.648    6755.9041 
   47000    316.51039   -23142.165    119.81908   -23261.984    5189.4309 
   47200    255.57241   -23167.143    96.750229   -23263.894   -1791.1975 
   47400    298.96774   -23159.866    113.17809   -23273.044   -5737.1068 
   47600    318.73031   -23140.095    120.65946   -23260.754   -3061.7508 
   47800    344.92436   -23123.404    130.57556   -23253.979   -4002.2122 
   48000    291.97194   -23153.058    110.52974   -23263.588    2843.3041 
   48200    279.07794   -23148.622    105.64855   -23254.271    4273.0164 
   48400     314.4372   -23125.337    119.03425   -23244.371    4739.0614 
   48600    287.47531   -23157.448    108.82748   -23266.276    3662.4997 
   48800    329.82082   -23147.903    124.85792   -23272.761    1669.4142 
   49000    312.18098   -23142.924    118.18013   -23261.104    1207.3439 
   49200    266.82771   -23169.438    101.01106   -23270.449    804.81983 
   49400    301.16796   -23150.131    114.01101   -23264.142   -844.58754 
   49600    276.50115   -23137.488    104.67307   -23242.161   -6320.7933 
   49800     318.5509   -23152.816    120.59154   -23273.408   -3425.7832 
   50000     257.5794   -23160.565    97.509998   -23258.075     2517.115 
   50200     290.7184   -23142.995    110.05519   -23253.051    5982.4521 
   50400    264.14457   -23155.345     99.99533    -23255.34    2874.9889 
   50600    293.60976   -23155.563    111.14975   -23266.713   -1042.1723 
   50800    324.22375   -23133.842    122.73907   -23256.581     3090.442 
   51000    284.05485   -23163.789    107.53262   -23271.321    884.74861 
   51200    292.20159   -23154.707    110.61667   -23265.324    3340.7771 
   51400    296.70024   -23139.785     112.3197   -23252.105   -1121.5447 
   51600    275.69486    -23160.43    104.36784   -23264.798   -406.01589 
   51800    290.45569   -23161.324    109.95574    -23271.28    1930.8994 
   52000     317.0372   -23145.869    120.01851   -23265.887   -1443.6527 
   52200    298.15413   -23153.729    112.87008   -23266.599    8601.7091 
   52400    286.86592   -23156.312    108.59679   -23264.909    9260.0753 
   52600    299.64864   -23147.183    113.43585   -23260.619    1155.4741 
   52800    299.17117   -23159.472     113.2551   -23272.727    3683.8326 
   53000     330.7772   -23135.302    125.21997   -23260.522    3625.2462 
   53200    320.09537   -23142.738    121.17623   -23263.914   -541.54175 
   53400    269.47542   -23156.036    102.01339   -23258.049   -1963.5986 
   53600    324.30249   -23142.477    122.76888   -23265.246   -2585.0848 
   53800    318.60872   -23156.989    120.61343   -23277.603     3898.781 
   54000    272.71446   -23151.319    103.23957   -23254.559    3969.9874 
   54200    312.37041   -23137.305    118.25184   -23255.557    633.55837 
   54400    292.16398   -23140.582    110.60244   -23251.184   -1267.2059 
   54600     288.5065   -23150.865    109.21785   -23260.083   -1426.3794 
   54800     260.2477   -23165.545    98.520117   -23264.065    4341.2223 
   55000    305.43547   -23144.565    115.62653   -23260.192    2032.8325 
   55200    286.44324    -23155.67    108.43678   -23264.107   -4231.4556 
   55400    268.13204   -23171.455    101.50484    -23272.96   -2840.4798 
   55600    332.76049   -23143.386    125.97077   -23269.357    6096.4496 
   55800    266.83398   -23153.424    101.01344   -23254.438    2312.0065 
   56000    330.98475   -23126.237    125.29854   -23251.535    -2603.308 
   56200     307.8791   -23142.812     116.5516   -23259.364   -3824.5237 
   56400    282.16426   -23152.401    106.81691   -23259.218   -1983.2969 
   56600    275.65805   -23143.326     104.3539   -23247.679    1250.6455 
   56800    287.78493   -23142.272    108.94469   -23251.217   -8190.2671 
   57000    251.51903   -23165.167    95.215767   -23260.383   -12064.782 
   57200    299.05746   -23153.169    113.21205   -23266.381   -7994.7909 
   57400    295.34318   -23143.879    111.80596   -23255.685   -5105.3343 
   57600    314.19174    -23136.05    118.94133   -23254.991   -2913.0348 
   57800    275.10213   -23158.036    104.14345   -23262.179   -3225.2191 
   58000    313.51445   -23133.019    118.68493   -23251.704    5659.0874 
   58200     302.3709   -23140.401     114.4664   -23254.868    2854.6244 
   58400    308.69698   -23147.275    116.86122   -23264.136   -506.67306 
   58600    311.64301   -23152.654    117.97648    -23270.63   -2014.8601 
   58800    286.27978   -23151.208     108.3749   -23259.583   -556.00365 
   59000    303.91034   -23133.849    115.04917   -23248.898   -3893.3661 
   59200    307.18607   -23132.236    116.28924   -23248.525     3595.072 
   59400    318.16708   -23151.622    120.44624   -23272.068   -2916.9741 
   59600    294.53697   -23153.302    111.50076   -23264.803   -1679.8431 
   59800    334.08284   -23129.244    126.47136   -23255.716    414.63327 
   60000    282.67041   -23155.143    107.00852   -23262.151   -1898.0186 
   60200    286.86065   -23150.853    108.59479   -23259.447    1513.5668 
   60400    361.40501   -23117.169    136.81452   -23253.984     9992.413 
   60600    310.85058   -23143.713    117.67649   -23261.389   -4693.5596 
   60800    287.12619   -23159.749    108.69531   -23268.445   -2032.5825 
   61000    290.06405   -23166.658    109.80748   -23276.466    3475.5194 
   61200    304.23335   -23137.589    115.17145    -23252.76    3305.3399 
   61400    297.09818   -23151.866    112.47034   -23264.336   -5075.8565 
   61600    290.92132   -23160.017    110.13201   -23270.149   -562.10796 
   61800    305.96413   -23150.243    115.82666    -23266.07    876.93383 
   62000    324.84486   -23136.238     122.9742   -23259.212   -1902.9834 
   62200    282.45873   -23158.529    106.92839   -23265.457    2721.3574 
   62400    295.70279   -23164.474     111.9421   -23276.416    9636.6462 
   62600    325.46647   -23134.366    123.20952   -23257.576   -1587.5781 
   62800    309.56749   -23147.807    117.19076   -23264.998    -939.8904 
   63000    277.53081   -23166.491    105.06286   -23271.553     2577.214 
   63200     289.5812   -23140.994    109.62469   -23250.619   -5142.0404 
   63400    300.89132   -23142.614    113.90629    -23256.52   -860.03331 
   63600    251.26701   -23172.673     95.12036   -23267.794    4238.2167 
   63800    301.87925   -23154.298    114.28028   -23268.578    8547.2831 
   64000    295.15726   -23149.901    111.73558   -23261.637    3805.5506 
   64200    324.79132   -23133.845    122.95393   -23256.799    1521.0819 
   64400    332.45726   -23132.703    125.85598   -23258.559    -1338.099 
   64600    281.59421   -23149.179    106.60111    -23255.78   -1134.1675 
   64800    290.00486   -23150.933    109.78508   -23260.718   -4805.2287 
   65000    330.86021     -23133.1    125.25139   -23258.351   -5598.5629 
   65200    281.51876   -23158.287    106.57255   -23264.859    2585.9307 
   65400    279.68024   -23157.766    105.87655   -23263.643    4712.0472 
   65600    352.35422    -23133.41    133.38823   -23266.798    2313.4027 
   65800    283.23452   -23169.996    107.22207   -23277.218    466.09786 
   66000    309.90031   -23147.752    117.31675   -23265.069    4898.7047 
   66200    341.06976    -23134.55    129.11635   -23263.667    2074.3324 
   66400    299.72388   -23162.662    113.46433   -23276.126   -6682.5398 
   66600    312.52246   -23149.296     118.3094   -23267.606   -2810.5177 
   66800    255.69781   -23173.584    96.797697   -23270.382    4817.9311 
   67000    261.99712   -23165.975    99.182382   -23265.157   -6009.6594 
   67200    302.59748   -23145.422    114.55217   -23259.974   -6018.0145 
   67400     305.0631   -23137.335    115.48556    -23252.82    1026.8293 
   67600    273.65168   -23151.196    103.59437    -23254.79    1383.4143 
   67800    283.65226   -23143.447    107.38022   -23250.827   -1822.5296 
   68000    339.18826   -23133.816    128.40408   -23262.221    234.31408 
   68200    312.64827   -23145.461    118.35703   -23263.818   -1054.7503 
   68400    327.66818   -23142.749    124.04301   -23266.792   -1503.6151 
   68600    253.38093   -23160.182    95.920614   -23256.103     3604.392 
   68800     297.9386    -23154.99    112.78849   -23267.778    1839.3246 
   69000    323.78966    -23130.83    122.57474   -23253.405    99.737197 
   69200    306.69522   -23149.069    116.10343   -23265.172    -3942.365 
   69400     339.7964    -23148.45     128.6343   -23277.084   -1009.5326 
   69600    253.88684   -23172.448    96.112133    -23268.56    4178.1731 
   69800    288.03588    -23147.48    109.03969    -23256.52    591.80062 
   70000    311.07393   -23143.731    117.76104   -23261.492   -6338.0147 
   70200    266.76242   -23159.899    100.98635   -23260.886   -4206.7043 
   70400    265.60174   -23159.048    100.54696   -23259.595   -3362.2756 
   70600    311.23549   -23134.663     117.8222   -23252.486   -4375.9679 
   70800    287.15387   -23159.493    108.70579   -23268.199   -526.24008 
   71000    296.98239   -23151.265    112.42651   -23263.691   -528.50994 
   71200    291.92274   -23137.753    110.51111   -23248.264    5039.5027 
   71400    308.79753   -23142.207    116.89928   -23259.107    1610.0097 
   71600    329.70662   -23150.095    124.81469    -23274.91    7210.5884 
   71800     311.9472   -23136.121    118.09163   -23254.212    3871.0574 
   72000    289.10742   -23160.115    109.44534   -23269.561    1174.6288 
   72200    308.12016   -23130.965    116.64285   -23247.608    -1295.577 
   72400     327.9844   -23136.443    124.16272   -23260.606   -733.71517 
   72600    286.62356   -23157.351    108.50504   -23265.856    1219.8563 
   72800    343.83942   -23130.595    130.16484    -23260.76    1647.3051 
   73000    306.57447    -23143.09    116.05771   -23259.147    2969.5692 
   73200    264.35563   -23147.206    100.07523   -23247.281    3556.3347 
   73400     326.0228   -23135.759    123.42013   -23259.179   -4017.7555 
   73600    291.97545   -23162.782    110.53107   -23273.313   -5364.3118 
   73800    305.70704    -23146.24    115.72934   -23261.969   -2363.3403 
   74000    305.02187   -23140.745    115.46996   -23256.215    3123.7053 
   74200    265.83303   -23164.162    100.63452   -23264.796   -4058.9945 
   74400    264.96266   -23153.231    100.30503   -23253.536     683.9968 
   74600    333.97639   -23138.823    126.43106   -23265.254    3394.0581 
   74800    294.97167   -23155.695    111.66533    -23267.36    4153.0694 
   75000    288.47751    -23162.21    109.20688   -23271.416   -492.94426 
   75200    309.88241   -23145.137    117.30998   -23262.447   -8002.7178 
   75400    270.48243   -23160.821     102.3946   -23263.216   -5296.9089 
   75600    288.67633   -23154.288    109.28214    -23263.57   -8048.5623 
   75800    325.43396   -23135.436    123.19722   -23258.633   -5006.8782 
   76000    299.58534   -23153.068    113.41189    -23266.48    13.533489 
   76200    283.62255   -23161.097    107.36897   -23268.466    6164.0428 
   76400    306.17905   -23137.631    115.90802   -23253.539   -2923.9376 
   76600    278.84056   -23156.872    105.55869    -23262.43   -10929.135 
   76800    287.38831    -23166.57    108.79455   -23275.364    23.611887 
   77000     317.8204   -23141.697      120.315   -23262.012    2999.5981 
   77200     301.0942    -23161.63    113.98309   -23275.614   -2427.4599 
   77400    271.58985   -23156.882    102.81383   -23259.696   -8016.5894 
   77600    320.15571   -23147.028    121.19907   -23268.227    1991.9031 
   77800    277.73156    -23162.09    105.13886   -23267.229    9122.9102 
   78000    308.79394   -23134.258    116.89792   -23251.156    7712.1653 
   78200    298.28814   -23149.851    112.92081   -23262.772    5226.4409 
   78400    278.33792   -23170.622    105.36841    -23275.99    2955.4236 
   78600    275.04707   -23179.538    104.12261    -23283.66    686.15587 
   78800    303.69536    -23145.26    114.96779   -23260.228    2372.9711 
   79000    334.92619   -23137.814    126.79062   -23264.605    3091.6201 
   79200    288.86853   -23163.401     109.3549   -23272.756    3295.1041 
   79400    319.98037   -23144.492    121.13269   -23265.625    4196.1935 
   79600    287.75835    -23138.81    108.93463   -23247.744    977.54657 
   79800    290.01065   -23167.263    109.78727    -23277.05   -3230.2083 
   80000    303.31453    -23152.06    114.82362   -23266.884   -448.31885 
   80200    314.14146    -23139.45    118.92229   -23258.372   -3428.8665 
   80400    330.50523    -23115.07    125.11701   -23240.187   -8593.3884 
   80600    316.81695   -23147.282    119.93514   -23267.217   -8054.3241 
   80800    275.01452   -23156.141    104.11029   -23260.251    5152.7578 
   81000    306.65709   -23129.181    116.08899    -23245.27    6121.2251 
   81200    294.32983   -23148.157    111.42235    -23259.58     1182.387 
   81400    303.80816   -23147.535    115.01049   -23262.545    1179.1117 
   81600    324.17989   -23141.521    122.72247   -23264.243    7138.4564 
   81800    313.74829   -23132.693    118.77346   -23251.467    3556.5441 
   82000    278.73895   -23159.369    105.52022   -23264.889    1866.3305 
   82200    325.81598   -23140.343    123.34183   -23263.685    1458.6067 
   82400    324.41507   -23138.665     122.8115   -23261.477   -3156.6356 
   82600    295.90166   -23154.615    112.01738   -23266.632   -7368.6898 
   82800    306.30754   -23128.949    115.95666   -23244.905   -3835.1645 
   83000    287.97898   -23140.504    109.01815   -23249.522   -448.64108 
   83200    291.93227   -23150.825    110.51472   -23261.339    3215.0135 
   83400    362.23514   -23131.629    137.12878   -23268.758    2653.4567 
   83600    288.32315   -23157.062    109.14844   -23266.211   -2381.6485 
   83800    262.50234   -23154.898    99.373642   -23254.271   -2438.7943 
   84000    318.36998   -23130.717    120.52305    -23251.24    1144.0506 
   84200    282.97771   -23146.173    107.12486   -23253.298    2659.5715 
   84400    311.55466   -23147.358    117.94303   -23265.301   -1903.0619 
   84600    327.47131   -23128.583    123.96848   -23252.552   -4526.5953 
   84800     304.6844   -23158.515     115.3422   -23273.857   -6093.3772 
   85000    281.98754   -23151.921    106.75001   -23258.671   -3827.1479 
   85200    310.71496   -23135.622    117.62515   -23253.247    2400.3065 
   85400    315.49065   -23147.803    119.43305   -23267.236   -596.33637 
   85600    306.85742   -23155.466    116.16483   -23271.631   -7924.1515 
   85800    303.61092   -23146.588    114.93582   -23261.524     1453.501 
   86000    295.92545    -23137.42    112.02639   -23249.447    3372.5295 
   86200    302.47479   -23159.732    114.50573   -23274.238    3490.9451 
   86400    326.34038   -23137.775    123.54035   -23261.315    2945.8525 
   86600    311.68593   -23147.485    117.99272   -23265.478    117.36436 
   86800     295.5005   -23154.851    111.86552   -23266.717    824.13086 
   87000    339.85581   -23130.623    128.65679   -23259.279   -7050.2825 
   87200    293.57656   -23130.145    111.13719   -23241.282   -67.070806 
   87400    333.60226   -23146.472    126.28943   -23272.762   -1034.1819 
   87600    286.23293   -23162.256    108.35716   -23270.613   -1973.8433 
   87800    334.25912   -23130.297    126.53809   -23256.835    1999.5189 
   88000    266.64766   -23152.988     100.9429   -23253.931    4161.5107 
   88200    321.11196   -23142.405    121.56107   -23263.966   -106.42105 
   88400    329.11557   -23131.901    124.59094   -23256.492   -10247.829 
   88600    304.41502   -23154.833    115.24023   -23270.073   -7320.8514 
   88800    281.75392   -23147.421    106.66157   -23254.082   -5101.2839 
   89000    298.35762   -23135.044    112.94712   -23247.991    1643.5261 
   89200    297.17268   -23138.026    112.49854   -23250.524   -5544.4423 
   89400    283.83363   -23142.591    107.44888   -23250.039   -6682.9416 
   89600     306.2305   -23158.525     115.9275   -23274.452   -4966.8778 
   89800    275.68585    -23144.72    104.36443   -23249.085    3994.9531 
   90000    333.54584   -23136.589    126.26807   -23262.857   -3368.4801 
   90200    323.05504   -23146.987    122.29665   -23269.284    985.94177 
   90400    297.71664   -23145.594    112.70447   -23258.298    9281.2793 
   90600    329.28552   -23154.836    124.65527   -23279.492     3199.974 
   90800    292.43899   -23156.488    110.70654   -23267.194   -7837.2559 
   91000    316.99125   -23134.886    120.00112   -23254.887   -2542.2334 
   91200    291.08715   -23149.416    110.19479   -23259.611   -819.73057 
   91400     296.7856   -23164.577    112.35201   -23276.929    246.59434 
   91600     298.6959   -23167.458    113.07518   -23280.533    1472.6369 
   91800     301.8749   -23145.885    114.27863   -23260.163   -6923.9039 
   92000    347.86043   -23127.479    131.68705   -23259.166   -2860.1378 
   92200    286.91282   -23152.043    108.61454   -23260.657    9467.4209 
   92400    304.73726   -23154.206    115.36221   -23269.568    5248.6767 
   92600    315.02504   -23129.548    119.25679   -23248.805    4307.8011 
   92800    298.75918   -23151.884    113.09913   -23264.983    948.71555 
   93000    292.89238   -23148.001    110.87818    -23258.88    1855.1259 
   93200    310.36325   -23128.954      117.492   -23246.446   -5731.7561 
   93400    287.05402   -23158.103    108.66799   -23266.771   -2675.8998 
   93600     314.6153   -23138.763    119.10167   -23257.865    2781.3271 
   93800    287.46014   -23154.058    108.82174    -23262.88    2160.5257 
   94000    299.01917   -23155.768    113.19756   -23268.965   -1602.7061 
   94200    310.00556    -23145.09     117.3566   -23262.447    6068.5336 
   94400    332.76325   -23137.908    125.97181    -23263.88    3150.0195 
   94600    301.94163   -23164.095    114.30389   -23278.399     605.7343 
   94800    290.65886   -23151.199    110.03265   -23261.231    4392.0447 
   95000    310.87746   -23142.759    117.68667   -23260.446    2719.2089 
   95200    291.22859   -23159.021    110.24833   -23269.269    3978.1331 
   95400    285.84148   -23164.576    108.20897   -23272.785     4826.782 
   95600    311.14097   -23142.471    117.78642   -23260.257   -444.99736 
   95800    294.64171   -23153.982    111.54041   -23265.522    2372.0797 
   96000    262.81675   -23168.083    99.492666   -23267.575    700.00834 
   96200    288.09981   -23145.263    109.06389   -23254.327   -4068.9107 
   96400    326.55189   -23122.656    123.62042   -23246.277   -3549.6337 
   96600     313.5521   -23143.337    118.69918   -23262.036   -3189.4553 
   96800    322.00649   -23155.306     121.8997   -23277.205   -820.15641 
   97000    292.57731   -23161.569    110.75891   -23272.328    5227.3742 
   97200    303.81316   -23134.046    115.01238   -23249.059   -56.422903 
   97400    296.12732   -23150.402    112.10281   -23262.505    3719.2814 
   97600    277.34196   -23159.269    104.99137    -23264.26   -1745.0874 
   97800    323.56874   -23141.584    122.49111   -23264.075   -6065.5363 
   98000    304.57828   -23145.548    115.30203    -23260.85   -2801.4662 
   98200    251.84328   -23160.299    95.338515   -23255.638   -1090.3974 
   98400    269.95521   -23151.303    102.19502   -23253.498   -1629.7534 
   98600    278.76644    -23136.97    105.53063   -23242.501   -4562.8562 
   98800    280.96155   -23164.785    106.36161   -23271.147   -1321.4967 
   99000    304.50334   -23161.194    115.27366   -23276.468    3626.8831 
   99200    333.67963   -23143.485    126.31872   -23269.803   -4126.8765 
   99400    334.68697   -23144.117    126.70006   -23270.817   -1652.3209 
   99600    346.54257   -23121.798    131.18815   -23252.986     1197.294 
   99800    288.38876   -23151.854    109.17328   -23261.027    569.09894 
  100000    253.73508   -23165.112    96.054682   -23261.167    -3244.634 
  100200    308.93047   -23135.355    116.94961   -23252.305   -5851.4127 
  100400    305.69997   -23152.508    115.72666   -23268.235   -2590.0458 
  100600    277.49923   -23159.126    105.05091   -23264.177    2983.8879 
  100800    272.27549   -23147.627    103.07339   -23250.701    2184.8725 
  101000    304.43974   -23142.277    115.24958   -23257.526    1562.1224 
  101200    320.12074   -23153.719    121.18583   -23274.905    -3368.857 
  101400    346.88438   -23141.918    131.31755   -23273.235    3076.5847 
  101600    350.15106   -23128.027    132.55419   -23260.582     1483.062 
  101800     284.1315   -23154.419    107.56164    -23261.98   -12501.604 
  102000    282.74681   -23143.947    107.03745   -23250.985   -11031.605 
  102200    305.91156   -23116.563    115.80676    -23232.37   -817.28165 
  102400    321.68907   -23141.897    121.77954   -23263.677    838.55983 
  102600    284.67909   -23153.973    107.76894   -23261.742    4457.8871 
  102800    323.34499   -23141.894    122.40641   -23264.301    2142.9086 
  103000    310.89454   -23147.101    117.69313   -23264.795    268.97179 
  103200     326.4993   -23133.065    123.60051   -23256.666   -5619.5294 
  103400    315.03638   -23144.304    119.26108   -23263.565   -372.94567 
  103600     256.4842   -23160.626    97.095396   -23257.721    985.42804 
  103800    325.10744   -23136.864    123.07361   -23259.938   -172.06024 
  104000    302.09595   -23148.945    114.36231   -23263.307    928.14634 
  104200    306.36971   -23147.741     115.9802   -23263.721   -3760.1425 
  104400    261.12174   -23156.718    98.850996   -23255.569    -302.3467 
  104600    283.28159   -23166.625    107.23989   -23273.865    5038.6353 
  104800    321.60577   -23140.713      121.748   -23262.461   -1469.3695 
  105000    278.78274    -23157.12    105.53679   -23262.657    2434.0429 
  105200    328.08693   -23136.176    124.20153   -23260.377   -866.07605 
  105400     303.4036   -23151.295    114.85734   -23266.152    612.43548 
  105600    288.12708   -23159.474    109.07421   -23268.548   -7707.8395 
  105800    309.87579   -23126.311    117.30747   -23243.618   -5069.4778 
  106000    307.55124   -23141.315    116.42748   -23257.742    479.37859 
  106200    332.06671   -23152.371    125.70813   -23278.079    1156.2566 
  106400    318.66767   -23138.386    120.63575   -23259.022   -78.342377 
  106600    280.23695   -23142.851    106.08731   -23248.938    151.35193 
  106800    290.04775   -23156.493    109.80131   -23266.294   -638.23139 
  107000    316.05813   -23146.774    119.64788   -23266.422    6616.3048 
  107200    317.54971   -23151.576    120.21253   -23271.789    6303.5543 
  107400    282.31578   -23167.588    106.87427   -23274.462   -1148.6012 
  107600    307.79837   -23148.461    116.52104   -23264.982    1110.3668 
  107800    274.23206   -23149.107    103.81408   -23252.921    596.24149 
  108000    302.05663   -23147.763    114.34743   -23262.111   -401.14675 
  108200    304.90231   -23140.416    115.42469    -23255.84    1010.9401 
  108400    300.93283    -23159.32      113.922   -23273.242   -3824.6974 
  108600    284.65729   -23148.873    107.76068   -23256.633    3279.1002 
  108800    334.64763   -23127.142    126.68517   -23253.827   -4243.9538 
  109000    290.19462   -23146.191    109.85691   -23256.048     2794.506 
  109200    287.09367    -23159.11    108.68301   -23267.793    8714.1278 
  109400    269.05345   -23172.183    101.85365   -23274.037   -2460.4182 
  109600    294.24771   -23149.466    111.39126   -23260.858    8067.4025 
  109800    309.78564   -23138.226    117.27334   -23255.499    2012.0957 
  110000    331.90186   -23142.985    125.64572   -23268.631    1918.6895 
  110200    272.42978   -23162.908     103.1318    -23266.04    652.34166 
  110400    307.05818   -23136.298    116.24083   -23252.539    1248.1093 
  110600    300.10434   -23144.812    113.60836   -23258.421   -3724.9819 
  110800    290.89516    -23154.81    110.12211   -23264.932    4876.5544 
  111000     284.3401   -23162.194    107.64061   -23269.835    2965.8422 
  111200    314.41091   -23138.585     119.0243    -23257.61    4343.3577 
  111400    277.95012   -23165.181     105.2216   -23270.402    -1168.492 
  111600    291.67903   -23154.615    110.41885   -23265.033    134.90202 
  111800     314.2344   -23143.073    118.95748    -23262.03    659.37844 
  112000    293.13838   -23154.448    110.97131    -23265.42   -2767.8655 
  112200    292.57697   -23156.448    110.75878   -23267.207   -1910.3123 
  112400    330.81176   -23144.227    125.23305    -23269.46    1433.9936 
  112600    302.97431   -23156.272    114.69483   -23270.967    2681.5284 
  112800    317.29337   -23119.399    120.11549   -23239.514    4897.5276 
  113000    284.67093   -23137.641    107.76585   -23245.407    3441.9059 
  113200    274.05752   -23160.329      103.748   -23264.077   -808.34574 
  113400     301.1543   -23144.384    114.00584   -23258.389     5425.521 
  113600    297.81097   -23141.591    112.74018   -23254.331    6728.0862 
  113800    307.55396   -23148.571    116.42851   -23264.999    8690.3704 
  114000    279.42927   -23168.698    105.78155    -23274.48    6498.8791 
  114200    300.44374   -23134.845    113.73685   -23248.582    1882.4495 
  114400    321.39995   -23141.826    121.67009   -23263.496    1022.7284 
  114600    263.38743   -23162.286    99.708703   -23261.994    -982.3966 
  114800    297.98241   -23150.839    112.80508   -23263.644    3014.3905 
  115000    286.89522   -23143.498    108.60788   -23252.106    5399.4942 
  115200    334.24147   -23115.132    126.53141   -23241.664   -6349.2529 
  115400      314.634   -23141.798    119.10875   -23260.906   -1812.1497 
  115600    280.10205   -23160.855    106.03624   -23266.891   -5188.9889 
  115800    306.82292   -23135.801    116.15177   -23251.952   -291.89661 
  116000    279.23189    -23139.06    105.70683   -23244.767   -875.46967 
  116200    295.73427   -23157.031    111.95402   -23268.985    -6536.406 
  116400    298.27945   -23151.071    112.91753   -23263.988    -8271.845 
  116600    315.61206   -23137.639    119.47901   -23257.118   -8656.0739 
  116800    287.16996   -23149.877    108.71189   -23258.589    6264.7688 
  117000    265.40524    -23160.48    100.47257   -23260.953    4740.2699 
  117200    348.67377   -23129.123    131.99494   -23261.118    2892.5757 
  117400    304.11327   -23139.612    115.12599   -23254.738   -1697.9165 
  117600    279.31734   -23149.734    105.73917   -23255.473    -4688.725 
  117800    264.06252   -23175.768    99.964267   -23275.732    4075.8901 
  118000    298.44446   -23153.386    112.97999   -23266.366    3928.5295 
  118200     311.8887   -23144.825    118.06948   -23262.895    2498.7696 
  118400    292.56527   -23158.372    110.75435   -23269.127    6197.2225 
  118600    270.53472   -23161.187     102.4144   -23263.602   -492.03081 
  118800    324.03518   -23141.546    122.66769   -23264.214   -9622.0482 
  119000    304.52637    -23140.99    115.28238   -23256.273   -1271.4137 
  119200    255.95002   -23166.861    96.893174   -23263.754    2018.0932 
  119400    324.70097   -23145.652    122.91973   -23268.572    3867.4012 
  119600     309.4419   -23146.035    117.14322   -23263.178     -1328.49 
  119800    297.54668   -23161.351    112.64013   -23273.991    3625.0302 
  120000    294.03247   -23155.049    111.30978   -23266.359    4652.7794 
  120200    320.54925   -23136.091    121.34804   -23257.439   -2477.4734 
  120400    272.38747   -23157.508    103.11579   -23260.624   -3700.6039 
  120600    272.70658    -23163.23    103.23659   -23266.467   -2491.1179 
  120800    317.78472   -23147.774     120.3015   -23268.076   -3872.9051 
  121000    293.30475   -23151.583    111.03429   -23262.618     4637.367 
  121200    293.27607   -23165.518    111.02343   -23276.542   -967.19648 
  121400    299.38155   -23143.679    113.33474   -23257.013   -4717.7817 
  121600    271.35701   -23150.886    102.72569   -23253.611   -101.14711 
  121800    250.51509   -23172.665    94.835712     -23267.5   -2110.1124 
  122000     298.9198   -23144.409    113.15994   -23257.569    4636.5181 
  122200    310.29157    -23146.53    117.46487   -23263.995    5566.5132 
  122400    272.82088     -23171.5    103.27986    -23274.78    204.72056 
  122600    310.91754   -23147.888    117.70184   -23265.589   -1412.3141 
  122800    304.12515   -23150.348    115.13049   -23265.479    2558.0685 
  123000     274.3489   -23157.401    103.85831    -23261.26   -1103.2939 
  123200    318.91481   -23133.315    120.72931   -23254.044    2999.2607 
  123400    308.39344   -23150.415    116.74631   -23267.161   -613.41612 
  123600     289.5965   -23161.811    109.63048   -23271.442   -6648.7364 
  123800    317.44244    -23149.87    120.17192   -23270.042   -7742.7001 
  124000     317.2912   -23130.008    120.11467   -23250.123   -10512.713 
  124200    316.08878    -23133.17    119.65948   -23252.829   -1041.0098 
  124400    284.20026   -23152.814    107.58767   -23260.402    618.59806 
  124600    308.90749   -23134.713    116.94091   -23251.654    797.03059 
  124800    303.08313   -23138.643    114.73602   -23253.379   -4177.8024 
  125000    290.23159   -23149.268    109.87091   -23259.139   -5941.6356 
  125200    333.98877   -23136.541    126.43575   -23262.977    -829.6324 
  125400    284.30702   -23163.564    107.62808   -23271.192    5725.7031 
  125600     327.4898   -23142.867    123.97548   -23266.842    5975.9017 
  125800    324.69064   -23142.159    122.91582   -23265.075   -4165.5338 
  126000    294.49353   -23157.248    111.48432   -23268.732   -6241.3635 
  126200    308.65771   -23131.996    116.84635   -23248.843   -5037.1068 
  126400    252.83932   -23151.204    95.715581    -23246.92   -1640.1129 
  126600    276.35677   -23153.444    104.61841   -23258.062   -5037.0712 
  126800    305.41063    -23153.15    115.61713   -23268.767   -3408.3293 
  127000    264.19696   -23151.422    100.01516   -23251.437   -9167.8408 
  127200    329.55702   -23120.195    124.75806   -23244.953   -3657.4492 
  127400    316.02642   -23136.766    119.63587   -23256.402    4621.0367 
  127600    289.31995   -23156.435    109.52579    -23265.96    2464.3624 
  127800    286.29991   -23145.717    108.38252     -23254.1   -898.97078 
  128000    320.12972   -23135.293    121.18923   -23256.483    2379.8215 
  128200    327.93759   -23152.816      124.145   -23276.961    5013.8977 
  128400    301.34606   -23153.828    114.07843   -23267.906   -75.947263 
  128600    317.17421   -23136.426    120.07038   -23256.496   -1579.5501 
  128800     289.5162   -23140.466    109.60009   -23250.066    5063.5132 
  129000    272.99477   -23162.966    103.34569   -23266.312    8075.6861 
  129200    324.56268   -23139.439    122.86738   -23262.306   -3611.6595 
  129400    318.60083   -23142.051    120.61045   -23262.662   -3853.5021 
  129600      279.255   -23160.093    105.71558   -23265.809   -2165.9751 
  129800    296.00433   -23151.782    112.05625   -23263.839     3019.844 
  130000    309.53555   -23150.585    117.17867   -23267.763    5714.0129 
  130200    288.68736   -23143.219    109.28632   -23252.505    4371.5552 
  130400    326.28756   -23141.533    123.52036   -23265.053    10186.121 
  130600    278.20949   -23172.821    105.31979    -23278.14   -897.84259 
  130800    279.82717   -23157.447    105.93218   -23263.379    1702.0768 
  131000    315.49365    -23144.17    119.43418   -23263.604    1989.8652 
  131200    292.40129   -23165.614    110.69227   -23276.306    1989.0327 
  131400    277.34814   -23162.871    104.99371   -23267.865     2959.348 
  131600    270.92181   -23151.261    102.56094   -23253.822     5465.801 
  131800    302.18352   -23133.279    114.39546   -23247.675   -5329.5353 
  132000    280.29428   -23154.701    106.10901    -23260.81   -5362.5815 
  132200    333.79137   -23158.877    126.36102   -23285.238   -4168.8217 
  132400    323.49088   -23133.687    122.46164   -23256.149    2388.6936 
  132600    299.44692   -23148.918    113.35949   -23262.278    300.41818 
  132800     272.8544   -23159.774    103.29255   -23263.066    2588.4695 
  133000     332.2671   -23136.347    125.78399   -23262.131    1815.1056 
  133200    350.81041   -23116.094     132.8038   -23248.898   -930.69169 
  133400    317.30383   -23144.753    120.11945   -23264.872   -116.13347 
  133600    295.58186   -23155.376    111.89632   -23267.272     7607.321 
  133800    306.40984   -23152.426    115.99539   -23268.422    1514.4695 
  134000    301.80232   -23136.584    114.25115   -23250.835    4253.0571 
  134200    329.11863   -23137.281     124.5921   -23261.874    1775.8842 
  134400    293.39236    -23161.11    111.06746   -23272.177   -3506.4913 
  134600    310.40988   -23137.416    117.50966   -23254.925   -2075.8683 
  134800    294.97006    -23142.61    111.66472   -23254.274    3179.7043 
  135000    283.71005   -23162.893    107.40209   -23270.295    1487.7053 
  135200    288.49501   -23168.881     109.2135   -23278.094    2950.9763 
  135400    301.25225   -23143.831    114.04292   -23257.874   -3436.1434 
  135600    317.30818   -23133.444     120.1211   -23253.565    -8075.848 
  135800    273.96079   -23160.052    103.71139   -23263.763   -2797.2933 
  136000    257.03632   -23161.757    97.304409   -23259.061    4846.0905 
  136200    324.40292   -23133.986     122.8069   -23256.793    3044.2489 
  136400     306.9833   -23143.529    116.21248   -23259.741    5753.2393 
  136600    308.24512   -23166.127    116.69016   -23282.817    8895.0392 
  136800    278.73048   -23148.514    105.51701   -23254.031    5714.9953 
  137000    299.08941   -23141.603    113.22415   -23254.828   -1348.7611 
  137200    295.67728   -23145.799    111.93244   -23257.732    1529.6685 
  137400    246.61976   -23174.176    93.361086   -23267.537   -77.421003 
  137600    311.62225   -23146.484    117.96861   -23264.452   -7811.2613 
  137800    314.26029   -23138.987    118.96728   -23257.955    1811.6941 
  138000    268.60811   -23168.607    101.68506   -23270.292    10204.595 
  138200    282.08785   -23157.611    106.78799   -23264.399    7436.7431 
  138400    278.55521   -23146.388    105.45066   -23251.838    2251.2637 
  138600    299.01381   -23134.699    113.19553   -23247.895   -3739.4051 
  138800    314.09179   -23143.485    118.90349   -23262.389   -4923.8628 
  139000    293.67492   -23158.385    111.17442   -23269.559    -3605.492 
  139200    309.87264   -23132.225    117.30628   -23249.531    3954.7534 
  139400    317.58666   -23142.551    120.22652   -23262.777   -5975.1881 
  139600    279.31872   -23161.719     105.7397   -23267.458   -5531.4447 
  139800    332.42219   -23140.037     125.8427   -23265.879   -5412.0735 
  140000    306.50987   -23127.796    116.03326   -23243.829   -4542.0175 
  140200    298.18294   -23148.318    112.88099   -23261.199     3134.632 
  140400    275.73741   -23154.041    104.38395   -23258.425   -667.60001 
  140600    291.23535   -23152.489    110.25089    -23262.74   -37.050677 
  140800    338.49459   -23136.201    128.14149   -23264.343    -1905.673 
  141000    318.24914   -23142.004    120.47731   -23262.481    4283.3242 
  141200    288.30589   -23155.922    109.14191   -23265.064    2722.4306 
  141400    286.55524   -23140.706    108.47918   -23249.185    425.10488 
  141600    305.00405   -23131.766    115.46321   -23247.229   -2465.0325 
  141800     320.6873   -23145.559    121.40031   -23266.959   -3681.3164 
  142000    228.73768   -23175.611    86.591593   -23262.202    10870.339 
  142200    338.28137   -23155.282    128.06077   -23283.343    2491.1562 
  142400    307.09812   -23143.662    116.25595   -23259.918   -4311.3219 
  142600    323.54752   -23142.153    122.48308   -23264.637   -8719.7668 
  142800    268.21494   -23162.694    101.53622    -23264.23   -3797.3543 
  143000    269.73515   -23133.215    102.11171   -23235.327   -7232.1061 
  143200    323.45793   -23139.411    122.44916    -23261.86   -2464.3701 
  143400    293.09565   -23157.193    110.95513   -23268.148   -137.67964 
  143600    287.19704   -23153.061    108.72214   -23261.783    9468.2151 
  143800    318.26398   -23139.952    120.48293   -23260.435    5370.3282 
  144000    300.26365   -23152.758    113.66867   -23266.426    4853.1742 
  144200    290.34156   -23161.445    109.91254   -23271.358    1848.7303 
  144400    321.82609   -23130.775    121.83141   -23252.607    6282.1604 
  144600    326.34728   -23137.052    123.54297   -23260.595    780.75624 
  144800    297.49146   -23144.095    112.61922   -23256.715    4878.5083 
  145000    321.43695   -23157.362     121.6841   -23279.046    1914.4869 
  145200    292.59971   -23160.415    110.76739   -23271.183    2125.3589 
  145400    306.32679   -23140.347    115.96395   -23256.311    2672.9909 
  145600    305.35308   -23147.096    115.59534   -23262.691    2400.2983 
  145800    262.98398   -23161.824    99.555973    -23261.38   -4645.7315 
  146000    307.76045   -23161.956    116.50668   -23278.463   -146.62561 
  146200    299.23718   -23139.237    113.28009   -23252.517    7016.0528 
  146400    258.97692   -23160.288    98.039048   -23258.327    2520.9009 
  146600    321.58779     -23136.9     121.7412   -23258.641    -2863.369 
  146800    271.86962   -23149.702    102.91975   -23252.622   -2035.7938 
  147000    293.15683   -23156.494    110.97829   -23267.472   -469.34196 
  147200    297.04837    -23138.24    112.45149   -23250.692   -236.29937 
  147400    314.61398   -23143.926    119.10117   -23263.027     3684.826 
  147600    304.47328   -23154.076    115.26228   -23269.339    2793.1656 
  147800    298.80311   -23145.312    113.11577   -23258.428    8093.2328 
  148000    342.46708   -23135.081    129.64532   -23264.726    5870.1402 
  148200    283.69362   -23163.105    107.39587   -23270.501    3389.0862 
  148400    320.02591    -23144.89    121.14993    -23266.04    3602.3073 
  148600    316.31451   -23142.466    119.74493   -23262.211   -5060.6556 
  148800    272.66056   -23158.478    103.21917   -23261.697    2962.2704 
  149000    304.22621   -23127.523    115.16875   -23242.692    10941.224 
  149200    270.35704   -23146.266    102.34714   -23248.613   -4831.4129 
  149400    304.61838   -23152.299    115.31721   -23267.616   -3489.7402 
  149600    332.33167   -23131.344    125.80843   -23257.152    4557.6809 
  149800    333.38114   -23138.445    126.20572   -23264.651    2379.1591 
  150000    314.27682   -23150.403    118.97354   -23269.377    959.82987 
  150200    328.10805   -23131.934    124.20953   -23256.143   -4641.8627 
  150400    311.27246   -23131.237     117.8362   -23249.073   -8856.3784 
  150600    314.44856   -23148.584    119.03855   -23267.622   -2539.2707 
  150800    328.28649    -23159.03    124.27708   -23283.308   -4684.0083 
  151000     254.8914   -23169.955    96.492421   -23266.448   -6217.9762 
  151200     298.2873   -23138.966     112.9205   -23251.887   -923.34222 
  151400    311.15541   -23142.412    117.79189   -23260.204    654.88738 
  151600    286.73631   -23162.531    108.54772   -23271.078    3730.1897 
  151800    294.12117    -23145.96    111.34336   -23257.304    1671.6034 
  152000    311.85352   -23136.297    118.05617   -23254.353    2675.9792 
  152200    316.70086   -23149.328    119.89119    -23269.22    590.80499 
  152400    309.09074   -23162.107    117.01028   -23279.117   -1483.6533 
  152600    272.95911   -23177.482    103.33218   -23280.814    1463.9296 
  152800    292.96588   -23145.836      110.906   -23256.742    1369.0064 
  153000    309.09296   -23135.437    117.01112   -23252.449   -2658.4762 
  153200    268.47285   -23158.464    101.63386   -23260.098   -1469.0792 
  153400    314.39835   -23147.304    119.01954   -23266.323   -6395.9712 
  153600    305.98236   -23140.976    115.83356   -23256.809   -646.24587 
  153800    280.09471   -23156.575    106.03346   -23262.608    4709.6686 
  154000    258.23909    -23168.44    97.759731     -23266.2    3134.6235 
  154200    325.09322   -23138.932    123.06822       -23262    7969.7738 
  154400    303.16989   -23145.947    114.76886   -23260.715    8930.3436 
  154600    269.47318   -23164.863    102.01254   -23266.876    9606.2816 
  154800    299.66207   -23146.626    113.44093   -23260.067    3248.3868 
  155000    317.24961    -23143.91    120.09893   -23264.009   -7158.7318 
  155200    257.02234   -23170.194    97.299117   -23267.493   -4163.2504 
  155400    305.72583   -23142.214    115.73645    -23257.95    1096.5265 
  155600    305.51793   -23152.378    115.65775   -23268.035    2879.6974 
  155800    295.37974   -23146.384     111.8198   -23258.203   -3281.1798 
  156000    286.04076   -23131.558    108.28441   -23239.842    677.30558 
  156200    272.13132   -23149.783    103.01881   -23252.801   -1057.6167 
  156400     300.0125   -23153.784    113.57359   -23267.357    3197.4629 
  156600    309.97373   -23147.621    117.34455   -23264.966   -1094.9221 
  156800    351.11485   -23122.128    132.91905   -23255.048   -2313.3666 
  157000    282.50798   -23151.588    106.94703   -23258.535    937.21374 
  157200    283.55676   -23151.583    107.34406   -23258.927    6491.1391 
  157400    306.64325   -23140.771    116.08375   -23256.855    11664.914 
  157600    324.10788   -23127.346    122.69521   -23250.041    5169.8003 
  157800    294.29877   -23155.673    111.41059   -23267.084    5223.3799 
  158000    311.34951   -23148.959    117.86537   -23266.824    4086.3943 
  158200    365.95937   -23120.653    138.53863   -23259.191    2950.6772 
  158400    290.15991   -23149.367    109.84377   -23259.211     7385.878 
  158600    330.92662   -23141.245    125.27653   -23266.521    4640.7356 
  158800    343.93436   -23118.729    130.20078    -23248.93    -7950.035 
  159000     280.1399   -23153.177    106.05057   -23259.228   -2347.2279 
  159200    330.16286   -23144.176     124.9874   -23269.164    1288.0332 
  159400    324.97576   -23135.552    123.02376   -23258.576    1773.4315 
  159600    259.43822   -23159.683     98.21368   -23257.896    2892.3637 
  159800    290.12839   -23140.548    109.83184    -23250.38    5685.4269 
  160000    307.58658   -23143.167    116.44086   -23259.608   -2968.9025 
  160200    307.13183    -23151.84    116.26871   -23268.109    3845.0854 
  160400    289.71873   -23166.959    109.67676   -23276.636   -5894.4127 
  160600    304.72278   -23139.474    115.35673   -23254.831   -2241.5739 
  160800    294.90466   -23156.168    111.63996   -23267.808    3083.5041 
  161000     269.1727   -23160.301    101.89879     -23262.2   -1110.9934 
  161200    325.46142   -23133.853    123.20761    -23257.06   -5177.8036 
  161400    281.48154   -23156.595    106.55846   -23263.153   -2476.8194 
  161600    313.13473   -23129.875    118.54118   -23248.416    8799.1806 
  161800    309.24059   -23138.271    117.06701   -23255.338    5976.9206 
  162000    272.46669    -23154.05    103.14577   -23257.195    4003.7065 
  162200    336.49834   -23138.107    127.38578   -23265.493    6806.1777 
  162400    308.40412    -23142.48    116.75035    -23259.23    6070.4343 
  162600     331.6404   -23153.803    125.54674    -23279.35    -1176.681 
  162800    302.57225    -23148.86    114.54262   -23263.402    722.64216 
  163000    336.86919   -23110.118    127.52617   -23237.644   -3220.4468 
  163200    291.38395   -23135.321    110.30715   -23245.629    147.08041 
  163400     311.4909   -23145.516    117.91889   -23263.435    3881.3755 
  163600    280.85945   -23173.293    106.32296   -23279.616    6803.2918 
  163800    311.61527   -23154.346    117.96597   -23272.312   -1090.9881 
  164000     295.2344   -23145.599    111.76478   -23257.364   -524.46618 
  164200    282.77999    -23159.26    107.05001    -23266.31    789.93388 
  164400    298.68747   -23160.472    113.07199   -23273.544   -1773.0545 
  164600    339.04866    -23135.55    128.35124   -23263.902    135.45575 
  164800     290.7354   -23150.735    110.06163   -23260.796    7060.6969 
  165000    285.68611   -23157.211    108.15015   -23265.361    114.39352 
  165200    302.13951   -23142.571     114.3788    -23256.95    168.62733 
  165400      258.844   -23159.948    97.988731   -23257.937    4027.9912 
  165600    269.60816   -23182.874    102.06364   -23284.937    665.73145 
  165800    278.87516   -23157.681    105.57178   -23263.253   -1654.2915 
  166000    313.57944   -23138.526    118.70954   -23257.236    2345.6273 
  166200    314.22841    -23135.38    118.95521   -23254.335    2939.4642 
  166400    303.82588   -23153.717     115.0172   -23268.734   -4502.4257 
  166600    292.05102   -23167.693    110.55967   -23278.253    942.08039 
  166800    285.20133    -23134.66    107.96664   -23242.626    983.07741 
  167000    333.50855   -23142.224    126.25396   -23268.478   -2600.2301 
  167200    293.99726   -23161.162    111.29645   -23272.459   -9495.8272 
  167400    286.33517   -23145.351    108.39586   -23253.747   -343.87746 
  167600    278.21005   -23145.374       105.32   -23250.694    4855.7105 
  167800    342.88487   -23126.716    129.80348   -23256.519    5075.5902 
  168000    288.99742   -23144.584    109.40369   -23253.987    4661.6943 
  168200    261.38856   -23157.595    98.952004   -23256.547    2898.9579 
  168400    351.48004   -23132.144     133.0573   -23265.201   -8641.0812 
  168600    271.42575   -23161.509    102.75171   -23264.261   -5143.4333 
  168800    284.35591   -23148.559    107.64659   -23256.206    4128.7395 
  169000    305.40572   -23139.142    115.61527   -23254.758    2798.9669 
  169200    331.91614   -23132.078    125.65113   -23257.729    1136.4847 
  169400    322.83223   -23157.946     122.2123   -23280.158    -3424.612 
  169600    256.77698   -23165.108    97.206233   -23262.314   -2797.9135 
  169800    349.23806    -23134.71    132.20857   -23266.919   -4691.9049 
  170000    272.19723   -23153.685    103.04377   -23256.729   -4071.8181 
  170200    265.10354   -23171.872    100.35836    -23272.23    3540.1641 
  170400    305.78908   -23158.443    115.76039   -23274.203    -252.8074 
  170600    293.47003   -23141.758    111.09686   -23252.854    -1445.142 
  170800    333.62368   -23126.939    126.29754   -23253.237    4231.0732 
  171000    278.33952   -23157.545    105.36901   -23262.914    4206.9605 
  171200    313.41054   -23141.827    118.64559   -23260.472    7333.7564 
  171400    297.47259   -23152.492    112.61208   -23265.104    -954.3635 
  171600    279.11156   -23155.311    105.66128   -23260.972    1639.9409 
  171800    313.22581   -23130.841    118.57566   -23249.417    2611.1565 
  172000    265.42957   -23154.676    100.48178   -23255.158   -1170.9148 
  172200    316.40246   -23142.652    119.77822    -23262.43   -521.89271 
  172400     279.7458   -23167.979    105.90138   -23273.881   -2090.8534 
  172600    306.62151   -23156.545    116.07552   -23272.621    -560.9538 
  172800    315.23648   -23142.884    119.33683   -23262.221    6625.7845 
  173000    284.88833   -23154.234    107.84815   -23262.082   -549.79379 
  173200    299.81698    -23165.41    113.49958    -23278.91   -6955.0159 
  173400    313.54489   -23146.861    118.69646   -23265.558   -6236.7105 
  173600    324.20597   -23133.374    122.73234   -23256.107   -7229.3851 
  173800    322.90861   -23143.406    122.24121   -23265.648    -4094.388 
  174000    279.02615   -23160.632    105.62894   -23266.261   -236.22307 
  174200    287.65396   -23161.183    108.89511   -23270.079   -4526.0612 
  174400    295.38086    -23150.07    111.82023   -23261.891    410.23371 
  174600    340.55036    -23131.62    128.91972    -23260.54    2274.6496 
  174800    257.29461   -23161.139    97.402187   -23258.541   -1457.3175 
  175000    321.48764    -23146.23    121.70329   -23267.933   -268.24999 
  175200    326.67784   -23133.449     123.6681   -23257.117   -1088.7836 
  175400    269.49678   -23166.408    102.02148   -23268.429   -4366.0413 
  175600     306.6663   -23146.371    116.09248   -23262.463   -4232.6279 
  175800     318.4002     -23144.7    120.53449   -23265.234    4814.4992 
  176000    259.49736    -23174.45    98.236066   -23272.686    5447.9827 
  176200     289.7103   -23158.578    109.67356   -23268.252     1028.742 
  176400    297.87606   -23138.025    112.76482   -23250.789   -4975.3603 
  176600    314.52505   -23144.203    119.06751   -23263.271   -826.42017 
  176800    315.41387   -23155.643    119.40398   -23275.047   -5211.3838 
  177000    310.01576   -23148.034    117.36046   -23265.394   -2411.7369 
  177200    278.00578   -23166.499    105.24267   -23271.741    171.41001 
  177400    262.18978   -23143.743    99.255316   -23242.998    7088.5427 
  177600    310.28743   -23141.179     117.4633   -23258.643    1931.6445 
  177800    256.55082   -23161.416    97.120616   -23258.537   -4772.4895 
  178000      284.569    -23149.62    107.72726   -23257.347   -3668.0936 
  178200    336.03785   -23141.144    127.21146   -23268.356   -5694.2432 
  178400      278.914   -23163.048    105.58649   -23268.635    1067.0785 
  178600    297.73127   -23160.228    112.71001   -23272.938    985.52451 
  178800    314.78207   -23138.952    119.16481   -23258.117    5586.4758 
  179000    290.35272   -23154.254    109.91676    -23264.17    6664.3038 
  179200    275.77324   -23165.184    104.39751   -23269.582    -1926.161 
  179400    309.29385   -23140.754    117.08717   -23257.841   -4713.5709 
  179600    289.33429   -23151.323    109.53122   -23260.854    1386.2376 
[...]
  950000     315.6422   -23142.359    119.49042    -23261.85    2162.7469 
  950200    266.41123   -23175.025     100.8534   -23275.879    4040.3114 
  950400    295.01683    -23156.37    111.68242   -23268.053     5287.042 
  950600    330.73236   -23140.384    125.20299   -23265.587    8221.3319 
  950800    329.04624   -23128.335    124.56469     -23252.9    3253.4776 
  951000    284.36973   -23156.296    107.65182   -23263.948   -4358.5441 
  951200     278.1519   -23161.139    105.29798   -23266.437   -8940.7354 
  951400    310.05507   -23134.887    117.37534   -23252.263   -9986.7862 
  951600    277.88237    -23163.58    105.19595   -23268.776   -10885.833 
  951800    302.70253   -23147.043    114.59194   -23261.635   -10318.639 
  952000    303.31429   -23145.258    114.82353   -23260.081   -9215.7733 
  952200    268.27425   -23170.624    101.55867   -23272.183   -3317.3117 
  952400     283.3635    -23144.91     107.2709   -23252.181   -984.60686 
  952600    282.46973   -23146.127    106.93255   -23253.059    1804.9124 
  952800    259.89734   -23163.257    98.387486   -23261.645   -2605.8166 
  953000    338.43527   -23133.371    128.11903    -23261.49   -5403.2153 
  953200    299.81763   -23151.861    113.49982   -23265.361   -4952.1206 
  953400    302.85816   -23144.559    114.65086    -23259.21   -1957.2823 
  953600    320.83367   -23129.688    121.45572   -23251.143   -7723.8616 
  953800    282.59075   -23155.069    106.97837   -23262.047    -3885.135 
  954000    299.19823   -23153.018    113.26534   -23266.283   -1554.9387 
  954200    345.28273   -23130.568    130.71122    -23261.28   -328.55924 
  954400    301.86789   -23147.457    114.27598   -23261.733   -1722.8191 
  954600    306.21722   -23145.826    115.92247   -23261.748     9061.135 
  954800    306.43891   -23145.582    116.00639   -23261.589    4133.4212 
  955000    273.48043   -23167.514    103.52954   -23271.044    4321.3821 
  955200    291.12022    -23143.31    110.20731   -23253.517    3823.6833 
  955400    298.50738   -23148.272    113.00381   -23261.275    597.92673 
  955600    229.80577   -23182.394    86.995933    -23269.39    1537.8811 
  955800    291.12845   -23155.604    110.21042   -23265.815   -315.20627 
  956000    317.69623   -23136.767      120.268   -23257.035   -3324.8883 
  956200    316.04294   -23137.417    119.64212   -23257.059    9576.7857 
  956400    299.64023   -23156.141    113.43267   -23269.573    5375.3363 
  956600    322.40079   -23134.472    122.04897   -23256.521    4694.2236 
  956800    281.38884   -23154.793    106.52337   -23261.317    1033.5851 
  957000     281.9866   -23156.901    106.74966   -23263.651    6718.1454 
  957200    330.46957   -23137.327    125.10351    -23262.43    10221.367 
  957400    309.16538   -23138.989    117.03854   -23256.028   -640.82143 
  957600    316.45884   -23136.165    119.79957   -23255.965    2078.2564 
  957800    278.70579   -23167.501    105.50767   -23273.009    3208.0111 
  958000    289.37407   -23156.531    109.54628   -23266.077     7497.727 
  958200    270.21668   -23145.851    102.29401   -23248.145    3078.2786 
  958400     334.9027   -23123.354    126.78173   -23250.136    3828.4015 
  958600    299.45806   -23148.489     113.3637   -23261.853    6764.5106 
  958800    294.97929   -23150.862    111.66821   -23262.531    1661.7735 
  959000    338.07227    -23118.52    127.98161   -23246.502    380.69807 
  959200    310.98671    -23138.26    117.72802   -23255.988   -4206.2719 
  959400    296.08799   -23156.195    112.08792   -23268.283    108.81509 
  959600    283.63137   -23164.023    107.37231   -23271.396    6714.9606 
  959800    295.92898   -23151.271    112.02773   -23263.299    1854.0713 
  960000    292.78549   -23141.056    110.83772   -23251.893    5021.1055 
  960200    301.09809   -23145.109    113.98456   -23259.094    1376.4806 
  960400    309.75195   -23151.214    117.26059   -23268.475   -112.06908 
  960600    320.45645   -23128.215    121.31292   -23249.528   -525.69429 
  960800    279.72568   -23161.923    105.89376   -23267.816    1733.2476 
  961000    296.83818   -23148.819    112.37191   -23261.191    7766.8687 
  961200    326.31625   -23131.573    123.53122   -23255.104    6823.2049 
  961400    323.79371   -23154.514    122.57628    -23277.09    708.84218 
  961600    290.34856   -23151.672    109.91519   -23261.587   -9449.9434 
  961800    328.00255   -23132.514    124.16959   -23256.684   -6647.2623 
  962000    285.02346   -23152.038     107.8993   -23259.937     3808.816 
  962200    266.87201   -23142.188    101.02784   -23243.216    3780.2649 
  962400    326.17108   -23133.607    123.47626   -23257.083   -6806.6707 
  962600    279.15817   -23160.923    105.67892   -23266.602   -4103.0168 
  962800    316.06044   -23141.387    119.64875   -23261.036    1874.4204 
  963000    314.69002   -23141.012    119.12996   -23260.142    2538.8431 
  963200    297.00738   -23150.248    112.43597   -23262.683    4620.3402 
  963400    294.67812   -23140.099     111.5542   -23251.653    2024.9222 
  963600    304.61964   -23126.602    115.31769    -23241.92    2684.4878 
  963800    315.13042   -23152.501    119.29668   -23271.798     674.4127 
  964000    294.27822   -23162.003    111.40281   -23273.406    1612.7403 
  964200    335.74119   -23133.013    127.09915   -23260.112    366.84108 
  964400    281.30745   -23150.752    106.49256   -23257.245    6896.2751 
  964600    268.04807       -23152    101.47305   -23253.473   -400.11296 
  964800    303.27683   -23142.494    114.80935   -23257.304       3670.1 
  965000    286.14644   -23156.778    108.32442   -23265.102    8034.3738 
  965200    288.68404   -23169.946    109.28506   -23279.231    5688.8093 
  965400    322.39954   -23150.169     122.0485   -23272.217   -2831.0311 
  965600    298.89684   -23137.837    113.15125   -23250.989    8434.4927 
  965800    297.50141   -23128.288    112.62299   -23240.911    4352.6885 
  966000    306.87975   -23156.723    116.17328   -23272.896    6099.3792 
  966200    316.16545   -23135.751     119.6885   -23255.439   -4386.2404 
  966400    304.26631   -23141.284    115.18393   -23256.468   -5951.3565 
  966600    294.07473   -23144.031    111.32578   -23255.356    1269.2684 
  966800    276.43816   -23160.484    104.64923   -23265.133   -1453.2042 
  967000    308.69527   -23167.723    116.86057   -23284.584    2672.1046 
  967200    308.07993   -23134.402    116.62762    -23251.03    5483.3494 
  967400    308.89815   -23140.266    116.93737   -23257.204    6512.6043 
  967600    253.37543   -23167.281     95.91853   -23263.199    3828.2114 
  967800    305.43944    -23151.98    115.62803   -23267.608   -933.78303 
  968000    303.55113   -23147.066    114.91319   -23261.979   -2542.4052 
  968200    293.57983   -23165.097    111.13843   -23276.236    2830.2481 
  968400    351.86671   -23134.444    133.20367   -23267.647    9714.8187 
  968600    311.92909   -23152.739    118.08477   -23270.824     4417.034 
  968800    296.15124   -23147.851    112.11187   -23259.962    7830.9995 
  969000    288.67607   -23141.826    109.28204   -23251.108    8456.7836 
  969200    270.91226   -23150.951    102.55732   -23253.509    2510.1879 
  969400    313.34217   -23143.339    118.61971   -23261.959   -6968.1138 
  969600    316.22904   -23134.334    119.71258   -23254.047   -6258.1777 
  969800     297.2015    -23164.82    112.50945    -23277.33   -1329.0688 
  970000    275.25906   -23153.893    104.20286   -23258.096    4009.7998 
  970200     287.3812   -23136.513    108.79185   -23245.305   -344.73608 
  970400    283.19946   -23137.893     107.2088   -23245.102     1370.309 
  970600    345.30059   -23123.766    130.71799   -23254.484   -1636.9217 
  970800    326.63166   -23151.669    123.65062   -23275.319   -2769.6931 
  971000    269.18935   -23157.406     101.9051   -23259.311   -2514.7578 
  971200    315.96993   -23133.096    119.61448   -23252.711   -2174.1482 
  971400    290.86105   -23156.592     110.1092   -23266.701   -1314.4351 
  971600    273.48292   -23145.187    103.53048   -23248.717   -2932.4152 
  971800    316.36166   -23131.875    119.76278   -23251.638   -4325.7473 
  972000    283.01152   -23152.419    107.13765   -23259.557      -1521.6 
  972200    303.50022   -23135.364    114.89392   -23250.258     974.8838 
  972400    263.31295   -23168.662    99.680507   -23268.343     4554.536 
  972600    306.17552   -23149.799    115.90668   -23265.706    797.36984 
  972800    297.85357   -23147.147     112.7563   -23259.904   -5153.6074 
  973000    283.59259   -23163.995    107.35763   -23271.352   -728.10261 
  973200    343.02985   -23136.912    129.85837    -23266.77   -1430.0598 
  973400    310.99622   -23144.927    117.73162   -23262.658   -8871.9913 
  973600    311.20236   -23135.166    117.80966   -23252.976   -2145.8537 
  973800    275.41357     -23143.6    104.26135   -23247.861    11999.488 
  974000    269.56593   -23154.938    102.04766   -23256.985    8806.2521 
  974200    338.81387    -23131.63    128.26235   -23259.892    354.55961 
  974400    300.01812   -23151.495    113.57572   -23265.071    1256.7916 
  974600    289.87846   -23145.716    109.73723   -23255.453    693.98881 
  974800    288.40867   -23148.621    109.18082   -23257.802    731.54584 
  975000    341.93181   -23132.163    129.44269   -23261.606    -7139.841 
  975200    276.00129   -23158.575    104.48384   -23263.058   -2570.3314 
  975400    254.18479   -23164.264    96.224924   -23260.489   -3173.8966 
  975600    327.18711   -23137.485    123.86089   -23261.346    -2273.146 
  975800     283.2836   -23152.665    107.24065   -23259.905    8828.7733 
  976000    363.61784   -23123.325    137.65222   -23260.977     7120.281 
  976200    306.19912   -23142.408    115.91562   -23258.324    3092.8568 
  976400    268.77139   -23153.571    101.74687   -23255.318   -246.52029 
  976600    321.85247   -23131.327     121.8414   -23253.168   -6560.7625 
  976800    297.30593   -23159.785    112.54899   -23272.334   -3326.4685 
  977000    272.24259   -23153.509    103.06094    -23256.57   -341.27938 
  977200    331.92996   -23130.068    125.65636   -23255.725   -11129.561 
  977400    271.85389   -23164.231    102.91379   -23267.144   -8646.4978 
  977600    288.34632    -23143.01    109.15721   -23252.167   -3575.1848 
  977800    296.97356   -23142.079    112.42317   -23254.502    2223.9476 
  978000    258.61866   -23170.722    97.903423   -23268.625    5610.1541 
  978200    271.77559   -23157.319    102.88415   -23260.203   -1034.9639 
  978400    320.16451   -23144.085     121.2024   -23265.288   -1394.5175 
  978600    259.96062   -23169.355    98.411439   -23267.766   -3690.5308 
  978800     299.6823   -23149.501    113.44859    -23262.95   -6053.4953 
  979000    275.52621   -23141.785      104.304   -23246.089    3395.0913 
  979200    304.95958   -23126.559    115.44638   -23242.005    6862.4545 
  979400    325.06061   -23152.955    123.05588    -23276.01     2120.034 
  979600    315.15425   -23157.431     119.3057   -23276.737   -881.00003 
  979800    314.60168   -23144.959    119.09652   -23264.055    3404.7725 
  980000    294.93953   -23147.543    111.65316   -23259.196    2680.0036 
  980200    293.18679   -23156.713    110.98964   -23267.703     9994.128 
  980400    311.38351   -23145.611    117.87824   -23263.489    6636.7035 
  980600    315.35913   -23128.525    119.38326   -23247.908    4966.5506 
  980800    308.60008   -23146.209    116.82454   -23263.034     5966.268 
  981000    278.04303   -23166.716    105.25677   -23271.973    144.21499 
  981200    321.38756   -23141.728     121.6654   -23263.393   -3120.2162 
  981400    296.11074   -23147.584    112.09653    -23259.68   -1398.0935 
  981600    292.92441   -23149.364    110.89031   -23260.255   -5971.5347 
  981800    309.66461   -23151.789    117.22752   -23269.017   -2386.2623 
  982000    318.61897   -23139.561    120.61732   -23260.178   -6968.5301 
  982200    302.68652   -23133.274    114.58588   -23247.859   -8491.8529 
  982400     277.0681   -23160.697     104.8877   -23265.584    -3723.388 
  982600     295.7083   -23150.489    111.94419   -23262.434    4056.3894 
  982800    362.43954   -23119.603    137.20615   -23256.809   -1384.0718 
  983000    300.54744   -23141.007     113.7761   -23254.783    5124.1525 
  983200    298.26644   -23138.798     112.9126    -23251.71    443.27597 
  983400    292.25253   -23164.549    110.63596   -23275.185   -7434.2733 
  983600    317.68799   -23137.375    120.26488    -23257.64   -6114.1459 
  983800    294.84035   -23139.402    111.61561   -23251.018   -1969.1512 
  984000    286.16078   -23160.956    108.32985   -23269.286   -1389.1224 
  984200    280.06481   -23154.016    106.02214   -23260.038    -2437.638 
  984400    296.35277   -23129.335    112.18816   -23241.523   -2729.6354 
  984600    295.60652   -23148.432    111.90566   -23260.338   -2684.3798 
  984800    290.98211   -23161.642    110.15503   -23271.797    3139.2651 
  985000    297.04417   -23151.318    112.44989   -23263.768   -3744.9149 
  985200    310.81969   -23139.349     117.6648   -23257.014   -3732.4683 
  985400    287.44774   -23161.973    108.81704    -23270.79   -3183.6798 
  985600    302.72895   -23152.555    114.60194   -23267.157    1554.9365 
  985800    327.68861   -23136.566    124.05074   -23260.617   -3900.4624 
  986000    293.06681   -23133.673    110.94421   -23244.617   -2148.3807 
  986200    277.05057   -23146.403    104.88106   -23251.284   -5226.3392 
  986400    291.31697   -23152.117    110.28179   -23262.399   -1959.5017 
  986600    292.34658   -23154.625    110.67156   -23265.297    3370.4216 
  986800    289.83389   -23142.594    109.72035   -23252.314   -4765.9528 
  987000     338.3295   -23133.806    128.07899   -23261.885   -3663.8985 
  987200    300.87156   -23156.516     113.8988   -23270.415   -6752.7615 
  987400    290.01343   -23143.818    109.78832   -23253.607   -2115.2342 
  987600    326.48338   -23127.009    123.59449   -23250.604    2939.6264 
  987800    319.94755   -23150.316    121.12026   -23271.436    3938.5658 
  988000    295.84396   -23151.771    111.99554   -23263.766   -1866.5734 
  988200    307.37873   -23140.787    116.36218   -23257.149    5541.7956 
  988400    332.29013   -23134.898    125.79271    -23260.69    1129.2081 
  988600     304.1074   -23158.951    115.12377   -23274.075   -7968.9213 
  988800    264.55184   -23141.699     100.1495   -23241.849   -7417.9932 
  989000    319.95387   -23123.928    121.12266   -23245.051    2259.2176 
  989200    298.57376   -23145.177    113.02894   -23258.206    3794.3118 
  989400    304.64999   -23142.554    115.32918   -23257.883    6587.4222 
  989600    326.51895   -23140.618    123.60795   -23264.225    5711.6202 
  989800     306.8397   -23156.409    116.15812   -23272.567    5219.3803 
  990000    339.38317   -23136.175    128.47787   -23264.653   -1286.6575 
  990200    289.92623   -23150.375    109.75531    -23260.13    1344.4196 
  990400     255.2124   -23156.622    96.613941   -23253.236    4334.5089 
  990600     307.9705   -23130.125     116.5862   -23246.711   -2015.2813 
  990800    294.55819   -23146.793     111.5088   -23258.302   -3180.0292 
  991000    290.27041   -23156.419     109.8856   -23266.304    -2528.678 
  991200     289.3561   -23150.087    109.53948   -23259.627    3398.4465 
  991400    263.06156   -23149.234    99.585339   -23248.819    104.97496 
  991600    285.90961   -23162.015    108.23476    -23270.25    1850.6228 
  991800    301.84494   -23150.446    114.26729   -23264.714    3199.0112 
  992000    309.85717   -23137.593    117.30042   -23254.893    2459.6271 
  992200    278.75232   -23157.393    105.52528   -23262.919    2231.9442 
  992400    273.47928   -23151.558     103.5291   -23255.087    2829.0768 
  992600    326.41813   -23133.094    123.56979   -23256.664   -1177.7633 
  992800    330.71041   -23158.423    125.19468   -23283.617   -4533.0972 
  993000    322.30572    -23154.46    122.01298   -23276.473   -3401.2664 
  993200    320.72921    -23141.56    121.41617   -23262.977   -4334.5341 
  993400     360.1734   -23116.283    136.34828   -23252.631    -4161.316 
  993600    317.11996   -23140.529    120.04985   -23260.579   -777.65648 
  993800    309.67715   -23150.887    117.23227   -23268.119   -6440.6229 
  994000    293.02221   -23169.734    110.92733   -23280.661   -1268.5554 
  994200    290.56873     -23156.7    109.99853   -23266.699    2924.8544 
  994400    329.96954   -23142.884    124.91422   -23267.799   -5713.7943 
  994600     248.2911   -23161.094    93.993793   -23255.088   -3158.9945 
  994800    308.83013   -23147.144    116.91162   -23264.055   -3313.9101 
  995000    267.41258   -23142.058    101.23248   -23243.291    2116.9188 
  995200    273.06649   -23165.225    103.37284   -23268.598   -59.607933 
  995400    316.73098   -23147.134    119.90259   -23267.036   -2830.6663 
  995600    303.51598    -23148.02    114.89988    -23262.92   -1362.3775 
  995800    298.58455   -23147.427    113.03303    -23260.46     348.0266 
  996000    299.60104   -23135.547    113.41783   -23248.965   -2571.0399 
  996200    272.03008   -23148.741    102.98049   -23251.722   -2067.6715 
  996400    295.09945   -23141.733     111.7137   -23253.446   -2595.5764 
  996600    333.77188   -23110.528    126.35364   -23236.882   -8464.4577 
  996800    311.21014   -23143.379     117.8126   -23261.192   -143.00155 
  997000    297.06022   -23154.868    112.45597   -23267.324   -5482.9674 
  997200    307.18833   -23140.756     116.2901   -23257.046   -643.38763 
  997400    283.96248   -23164.127    107.49765   -23271.625    1301.5329 
  997600     292.5502   -23148.541    110.74865    -23259.29    -2759.143 
  997800    330.18529   -23139.052    124.99589   -23264.048   -3456.4447 
  998000    270.85504   -23166.266    102.53566   -23268.802   -7035.5068 
  998200    305.47702   -23156.302    115.64226   -23271.944    1643.3237 
  998400    310.86142   -23146.185    117.68059   -23263.865    3535.2395 
  998600    278.41298    -23164.39    105.39682   -23269.787    3997.3259 
  998800    279.05046   -23152.919    105.63815   -23258.558   -1454.4749 
  999000    290.13813   -23141.904    109.83552   -23251.739   -3139.7548 
  999200    301.98517   -23151.132    114.32037   -23265.452   -2839.3573 
  999400    253.43635   -23169.798    95.941594    -23265.74    13479.059 
  999600    313.72202   -23146.524    118.76351   -23265.288    13308.792 
  999800    297.34993   -23159.672    112.56564   -23272.238   -8312.8332 
 1000000    325.73518   -23130.547    123.31125   -23253.858   -5091.7504 
Loop time of 5585.98 on 8 procs for 1000000 steps with 128 atoms

Performance: 3.867 ns/day, 6.207 hours/ns, 179.020 timesteps/s
99.3% CPU use with 8 MPI tasks x no OpenMP threads

MPI task timing breakdown:
Section |  min time  |  avg time  |  max time  |%varavg| %total
---------------------------------------------------------------
Pair    | 4362.4     | 4431.8     | 4478.6     |  61.6 | 79.34
Neigh   | 0          | 0          | 0          |   0.0 |  0.00
Comm    | 130.88     | 178.99     | 247.4      | 305.6 |  3.20
Output  | 0.33444    | 0.3651     | 0.54541    |  11.3 |  0.01
Modify  | 956.38     | 958.05     | 959.25     |   3.4 | 17.15
Other   |            | 16.74      |            |       |  0.30

Nlocal:    16 ave 16 max 16 min
Histogram: 8 0 0 0 0 0 0 0 0 0
Nghost:    416 ave 416 max 416 min
Histogram: 8 0 0 0 0 0 0 0 0 0
Neighs:    936 ave 936 max 936 min
Histogram: 8 0 0 0 0 0 0 0 0 0

Total # of neighbors = 7488
Ave neighs/atom = 58.5
Neighbor list builds = 0
Dangerous builds = 0

Please see the log.cite file for references relevant to this simulation

Total wall time: 1:33:30
