ITEM: TIMESTEP
0
ITEM: NUMBER OF ATOMS
75
ITEM: BOX BOUNDS pp pp pp
0.0000000000000000e+00 1.3600000000000000e+01
0.0000000000000000e+00 1.3600000000000000e+01
0.0000000000000000e+00 1.3600000000000000e+01
ITEM: ATOMS id type x y z 
1 1 6.672 0.882 7.682 
2 1 6.673 1.896 8.696 
3 1 6.672 2.763 9.563 
7 1 6.673 5.663 12.463 
8 1 6.672 4.65 11.449 
9 1 6.672 3.783 10.582 
49 1 5.663 6.673 12.463 
50 1 4.65 6.672 11.449 
51 1 3.783 6.672 10.582 
55 1 0.882 6.672 7.682 
56 1 1.896 6.673 8.696 
57 1 2.763 6.672 9.563 
73 2 6.376 1.874 10.546 
75 3 6.297 0.103 11.51 
25 1 0.882 7.682 6.672 
26 1 1.896 8.696 6.673 
27 1 2.763 9.563 6.672 
31 1 5.663 12.463 6.673 
32 1 4.65 11.449 6.672 
33 1 3.783 10.582 6.672 
37 1 6.673 12.463 5.663 
38 1 6.672 11.449 4.65 
39 1 6.672 10.582 3.783 
43 1 6.672 7.682 0.882 
44 1 6.673 8.696 1.896 
45 1 6.672 9.563 2.763 
28 1 5.662 7.683 13.473 
29 1 4.649 8.696 13.472 
30 1 3.781 9.563 13.471 
34 1 0.882 12.462 13.473 
35 1 1.896 11.449 13.472 
36 1 2.763 10.582 13.472 
52 1 5.662 13.473 7.683 
53 1 4.649 13.472 8.696 
54 1 3.781 13.472 9.563 
58 1 0.882 13.472 12.462 
59 1 1.896 13.472 11.449 
60 1 2.763 13.472 10.582 
13 1 7.682 6.672 0.882 
14 1 8.696 6.673 1.896 
15 1 9.563 6.672 2.763 
19 1 12.463 6.673 5.663 
20 1 11.449 6.672 4.65 
21 1 10.582 6.672 3.783 
61 1 12.463 5.663 6.673 
62 1 11.449 4.65 6.672 
63 1 10.582 3.783 6.672 
67 1 7.682 0.882 6.672 
68 1 8.696 1.896 6.673 
69 1 9.563 2.763 6.672 
4 1 13.473 5.662 7.683 
5 1 13.472 4.649 8.696 
6 1 13.471 3.781 9.563 
10 1 13.473 0.883 12.462 
11 1 13.473 1.896 11.449 
12 1 13.472 2.763 10.582 
64 1 7.683 5.662 13.473 
65 1 8.696 4.649 13.472 
66 1 9.563 3.781 13.471 
70 1 12.462 0.883 13.473 
71 1 11.449 1.896 13.473 
72 1 10.582 2.763 13.472 
74 2 7.03 0.76 11.348 
16 1 7.683 13.473 5.662 
17 1 8.696 13.472 4.649 
18 1 9.563 13.471 3.781 
22 1 12.462 13.473 0.882 
23 1 11.449 13.473 1.896 
24 1 10.582 13.472 2.763 
40 1 13.473 7.683 5.662 
41 1 13.472 8.696 4.649 
42 1 13.471 9.563 3.781 
46 1 13.473 12.462 0.882 
47 1 13.473 11.449 1.896 
48 1 13.472 10.582 2.763 
ITEM: TIMESTEP
10
ITEM: NUMBER OF ATOMS
75
ITEM: BOX BOUNDS pp pp pp
0.0000000000000000e+00 1.3600000000000000e+01
0.0000000000000000e+00 1.3600000000000000e+01
0.0000000000000000e+00 1.3600000000000000e+01
ITEM: ATOMS id type x y z 
1 1 6.66775 0.900302 7.68358 
2 1 6.69234 1.88301 8.63804 
3 1 6.61996 2.58511 9.62481 
7 1 6.67102 5.69383 12.4979 
8 1 6.67945 4.67945 11.4532 
9 1 6.68044 3.82838 10.5816 
49 1 5.65933 6.67836 12.4651 
50 1 4.64406 6.67226 11.4441 
51 1 3.77888 6.67169 10.5774 
55 1 0.881519 6.67224 7.68236 
56 1 1.89523 6.6735 8.69214 
57 1 2.75998 6.6719 9.56145 
73 2 6.39013 1.92793 10.4836 
75 3 6.30888 0.120193 11.5026 
25 1 0.881676 7.68291 6.67182 
26 1 1.89681 8.69381 6.67346 
27 1 2.76159 9.56298 6.67195 
31 1 5.66319 12.4668 6.67692 
32 1 4.64856 11.4486 6.6725 
33 1 3.78278 10.5815 6.67164 
37 1 6.67186 12.4616 5.6624 
38 1 6.67204 11.4504 4.65163 
39 1 6.67178 10.5838 3.78439 
43 1 6.67226 7.68731 0.886508 
44 1 6.67349 8.69712 1.90033 
45 1 6.67201 9.56672 2.76525 
28 1 5.65963 7.69194 13.4798 
29 1 4.64767 8.70046 13.4742 
30 1 3.77751 9.56623 13.4708 
34 1 0.882681 12.4634 13.4722 
35 1 1.89463 11.4496 13.4695 
36 1 2.76201 10.5828 13.473 
52 1 5.64386 13.4571 7.68647 
53 1 4.64877 13.4694 8.69326 
54 1 3.77989 13.4713 9.56427 
58 1 0.882535 13.4726 12.461 
59 1 1.89875 13.47 11.4491 
60 1 2.764 13.4734 10.5802 
13 1 7.68508 6.68024 0.892347 
14 1 8.69777 6.67267 1.89986 
15 1 9.5668 6.67296 2.76637 
19 1 12.4622 6.67205 5.66293 
20 1 11.4497 6.67214 4.65053 
21 1 10.5823 6.67177 3.78318 
61 1 12.4617 5.66166 6.67278 
62 1 11.4477 4.6487 6.67214 
63 1 10.5804 3.78122 6.67192 
67 1 7.70215 0.885916 6.65547 
68 1 8.69777 1.89531 6.66883 
69 1 9.56586 2.7655 6.67267 
4 1 13.4714 5.66166 7.68169 
5 1 13.4739 4.65059 8.69706 
6 1 13.47 3.78101 9.56245 
10 1 13.4739 0.8821 12.4618 
11 1 13.4747 1.89521 11.4477 
12 1 13.4713 2.76287 10.5825 
64 1 7.68563 5.66488 13.4791 
65 1 8.70117 4.64454 13.4722 
66 1 9.56696 3.77719 13.4707 
70 1 12.4634 0.882626 13.4722 
71 1 11.4497 1.89316 13.4743 
72 1 10.5847 2.76068 13.4713 
74 2 7.02174 0.738576 11.3594 
16 1 7.68175 13.4735 5.6636 
17 1 8.69807 13.4728 4.64902 
18 1 9.56316 13.4705 3.7805 
22 1 12.4631 13.4717 0.882968 
23 1 11.4483 13.4741 1.89429 
24 1 10.5834 13.4714 2.76218 
40 1 13.4726 7.68225 5.66224 
41 1 13.474 8.69724 4.65045 
42 1 13.4701 9.56263 3.78092 
46 1 13.4723 12.4626 0.882823 
47 1 13.4739 11.4476 1.89489 
48 1 13.4715 10.5824 2.76308 
ITEM: TIMESTEP
20
ITEM: NUMBER OF ATOMS
75
ITEM: BOX BOUNDS pp pp pp
0.0000000000000000e+00 1.3600000000000000e+01
0.0000000000000000e+00 1.3600000000000000e+01
0.0000000000000000e+00 1.3600000000000000e+01
ITEM: ATOMS id type x y z 
1 1 6.6643 0.897009 7.65719 
2 1 6.68986 1.87162 8.62391 
3 1 6.60993 2.57309 9.64743 
7 1 6.67449 5.7016 12.4971 
8 1 6.68118 4.69251 11.4412 
9 1 6.68501 3.83654 10.5766 
49 1 5.65584 6.68526 12.4694 
50 1 4.64454 6.67378 11.4462 
51 1 3.77925 6.67093 10.5777 
55 1 0.880147 6.67181 7.68063 
56 1 1.89309 6.67304 8.69232 
57 1 2.76019 6.672 9.55959 
73 2 6.37749 1.9073 10.5066 
75 3 6.30339 0.118789 11.5008 
25 1 0.882001 7.683 6.6712 
26 1 1.89513 8.69462 6.67293 
27 1 2.7624 9.56189 6.67205 
31 1 5.65956 12.4617 6.67628 
32 1 4.6468 11.4468 6.673 
33 1 3.78027 10.5794 6.67149 
37 1 6.67074 12.4607 5.66299 
38 1 6.66948 11.451 4.6534 
39 1 6.67248 10.5845 3.78448 
43 1 6.67265 7.69053 0.891089 
44 1 6.67334 8.70083 1.90176 
45 1 6.67245 9.56896 2.76902 
28 1 5.65871 7.69623 13.4829 
29 1 4.6451 8.70244 13.4747 
30 1 3.77622 9.56903 13.4723 
34 1 0.881969 12.463 13.4719 
35 1 1.89393 11.4525 13.4703 
36 1 2.76013 10.5836 13.4719 
52 1 5.64863 13.4625 7.68511 
53 1 4.64373 13.4649 8.69354 
54 1 3.77884 13.4712 9.56544 
58 1 0.884679 13.4727 12.4594 
59 1 1.8971 13.4718 11.4489 
60 1 2.76491 13.4724 10.5814 
13 1 7.6861 6.68179 0.89614 
14 1 8.69941 6.67571 1.90275 
15 1 9.56852 6.67231 2.76906 
19 1 12.4625 6.67304 5.66295 
20 1 11.4522 6.67212 4.65132 
21 1 10.5835 6.67198 3.78471 
61 1 12.4611 5.66078 6.67325 
62 1 11.45 4.65098 6.67161 
63 1 10.5821 3.78311 6.67301 
67 1 7.70119 0.88594 6.65149 
68 1 8.70528 1.8971 6.66289 
69 1 9.56991 2.76909 6.67203 
4 1 13.4717 5.66041 7.68367 
5 1 13.4721 4.64869 8.69664 
6 1 13.4713 3.78131 9.56392 
10 1 13.4748 0.883194 12.4606 
11 1 13.4735 1.89497 11.4472 
12 1 13.4717 2.76361 10.5815 
64 1 7.68862 5.66801 13.4856 
65 1 8.7004 4.64594 13.4736 
66 1 9.56609 3.77779 13.4701 
70 1 12.4656 0.8812 13.4714 
71 1 11.4521 1.89246 13.4724 
72 1 10.5849 2.7592 13.4718 
74 2 7.03043 0.73256 11.3672 
16 1 7.68602 13.4674 5.65473 
17 1 8.69937 13.4705 4.64428 
18 1 9.56718 13.4709 3.77782 
22 1 12.4636 13.4715 0.882703 
23 1 11.4507 13.4725 1.89375 
24 1 10.5833 13.472 2.76088 
40 1 13.4723 7.68376 5.661 
41 1 13.4724 8.69667 4.64884 
42 1 13.4713 9.56378 3.78139 
46 1 13.4732 12.4608 0.88362 
47 1 13.4728 11.4481 1.89579 
48 1 13.4718 10.5811 2.76313 
ITEM: TIMESTEP
30
ITEM: NUMBER OF ATOMS
75
ITEM: BOX BOUNDS pp pp pp
0.0000000000000000e+00 1.3600000000000000e+01
0.0000000000000000e+00 1.3600000000000000e+01
0.0000000000000000e+00 1.3600000000000000e+01
ITEM: ATOMS id type x y z 
1 1 6.65387 0.910733 7.62728 
2 1 6.67181 1.86434 8.6354 
3 1 6.59738 2.53131 9.68032 
7 1 6.68406 5.70955 12.4808 
8 1 6.69173 4.7142 11.4121 
9 1 6.68623 3.83873 10.5673 
49 1 5.65964 6.68767 12.4732 
50 1 4.64653 6.67693 11.4511 
51 1 3.7816 6.67145 10.5805 
55 1 0.883138 6.67167 7.68364 
56 1 1.89478 6.67159 8.69545 
57 1 2.76358 6.67126 9.56078 
73 2 6.34913 1.87806 10.5533 
75 3 6.2953 0.121578 11.4943 
25 1 0.883035 7.68229 6.67285 
26 1 1.89249 8.69364 6.6716 
27 1 2.76122 9.55956 6.67214 
31 1 5.65799 12.4597 6.6767 
32 1 4.64598 11.4455 6.67476 
33 1 3.77855 10.5774 6.67168 
37 1 6.66913 12.4594 5.66349 
38 1 6.66831 11.4511 4.65431 
39 1 6.67097 10.5841 3.78586 
43 1 6.67236 7.69075 0.89224 
44 1 6.67784 8.70323 1.90534 
45 1 6.67068 9.57169 2.77089 
28 1 5.65795 7.69921 13.4874 
29 1 4.64496 8.70592 13.4785 
30 1 3.77557 9.57038 13.4747 
34 1 0.882495 12.4671 13.4724 
35 1 1.88962 11.451 13.4642 
36 1 2.76102 10.5868 13.4739 
52 1 5.65639 13.4766 7.6773 
53 1 4.64753 13.4677 8.69406 
54 1 3.77971 13.4681 9.56224 
58 1 0.884194 13.4748 12.4579 
59 1 1.90299 13.469 11.4495 
60 1 2.76665 13.4739 10.5775 
13 1 7.68602 6.68187 0.897994 
14 1 8.69684 6.67917 1.90533 
15 1 9.56805 6.67273 2.77029 
19 1 12.4651 6.6746 5.66301 
20 1 11.4524 6.67236 4.65245 
21 1 10.5854 6.67223 3.78419 
61 1 12.4647 5.66356 6.67464 
62 1 11.4521 4.65161 6.67392 
63 1 10.5833 3.78458 6.67324 
67 1 7.69416 0.888955 6.64377 
68 1 8.71101 1.89818 6.65678 
69 1 9.57379 2.76971 6.66785 
4 1 13.4715 5.66301 7.68497 
5 1 13.4748 4.64517 8.69496 
6 1 13.4695 3.78251 9.56605 
10 1 13.4753 0.881725 12.4603 
11 1 13.4713 1.89713 11.449 
12 1 13.4739 2.7632 10.5796 
64 1 7.68481 5.67312 13.4841 
65 1 8.69779 4.65019 13.4751 
66 1 9.56261 3.78015 13.471 
70 1 12.4638 0.884712 13.4698 
71 1 11.4504 1.89493 13.4707 
72 1 10.5823 2.76094 13.4704 
74 2 7.04771 0.711094 11.3889 
16 1 7.68817 13.4614 5.64746 
17 1 8.70119 13.4639 4.63682 
18 1 9.5696 13.4694 3.77339 
22 1 12.4656 13.4727 0.879289 
23 1 11.4541 13.4752 1.88797 
24 1 10.5883 13.4707 2.75811 
40 1 13.4741 7.68533 5.65959 
41 1 13.4695 8.69857 4.6484 
42 1 13.473 9.56402 3.7799 
46 1 13.4747 12.4599 0.884053 
47 1 13.4746 11.4457 1.89369 
48 1 13.4714 10.5819 2.76505 
ITEM: TIMESTEP
40
ITEM: NUMBER OF ATOMS
75
ITEM: BOX BOUNDS pp pp pp
0.0000000000000000e+00 1.3600000000000000e+01
0.0000000000000000e+00 1.3600000000000000e+01
0.0000000000000000e+00 1.3600000000000000e+01
ITEM: ATOMS id type x y z 
1 1 6.63189 0.958181 7.60247 
2 1 6.64067 1.84092 8.66989 
3 1 6.56997 2.46038 9.74798 
7 1 6.70743 5.72822 12.4404 
8 1 6.71334 4.7415 11.352 
9 1 6.68619 3.82931 10.5509 
49 1 5.67254 6.68976 12.4749 
50 1 4.65297 6.68286 11.4573 
51 1 3.78785 6.67408 10.5898 
55 1 0.888091 6.67243 7.68874 
56 1 1.90159 6.66884 8.70173 
57 1 2.77022 6.66927 9.56669 
73 2 6.28891 1.8215 10.6423 
75 3 6.28049 0.131295 11.4788 
25 1 0.882352 7.6799 6.67526 
26 1 1.89272 8.69277 6.6708 
27 1 2.76121 9.55917 6.67107 
31 1 5.65883 12.4645 6.68103 
32 1 4.64479 11.4469 6.67911 
33 1 3.78026 10.577 6.67429 
37 1 6.66947 12.4628 5.66789 
38 1 6.66489 11.4521 4.6595 
39 1 6.66642 10.5867 3.78971 
43 1 6.67569 7.69165 0.895065 
44 1 6.67977 8.70231 1.90918 
45 1 6.67236 9.57335 2.77252 
28 1 5.65838 7.69882 13.4921 
29 1 4.64605 8.70721 13.4872 
30 1 3.77681 9.57367 13.4809 
34 1 0.880721 12.4695 13.4646 
35 1 1.89433 11.4583 13.4632 
36 1 2.75702 10.5859 13.4706 
52 1 5.65389 13.4911 7.66167 
53 1 4.65181 13.4783 8.6802 
54 1 3.7915 13.4665 9.55492 
58 1 0.890138 13.4777 12.4538 
59 1 1.90867 13.4679 11.4442 
60 1 2.77349 13.4697 10.5748 
13 1 7.68175 6.67857 0.896095 
14 1 8.69346 6.68069 1.90739 
15 1 9.56476 6.6766 2.77132 
19 1 12.4672 6.67498 5.66412 
20 1 11.4534 6.67189 4.65213 
21 1 10.5865 6.67249 3.78402 
61 1 12.4672 5.66727 6.67645 
62 1 11.4556 4.65343 6.67677 
63 1 10.5883 3.78583 6.67461 
67 1 7.68922 0.900626 6.62037 
68 1 8.70858 1.89689 6.63667 
69 1 9.57755 2.76348 6.66074 
4 1 13.4781 5.66403 7.68619 
5 1 13.4706 4.64957 8.69744 
6 1 13.4746 3.7797 9.56276 
10 1 13.4753 0.882953 12.4591 
11 1 13.4697 1.89822 11.4497 
12 1 13.4739 2.76407 10.5803 
64 1 7.6769 5.68028 13.4686 
65 1 8.6912 4.65839 13.4728 
66 1 9.55379 3.78764 13.4733 
70 1 12.462 0.890548 13.4646 
71 1 11.4444 1.90163 13.4676 
72 1 10.5755 2.76612 13.4681 
74 2 7.08521 0.656741 11.4406 
16 1 7.69064 13.4654 5.64595 
17 1 8.70143 13.4542 4.62879 
18 1 9.57265 13.4606 3.76605 
22 1 12.4706 13.4772 0.870996 
23 1 11.4578 13.4784 1.88155 
24 1 10.5943 13.4711 2.75267 
40 1 13.4753 7.68651 5.6617 
41 1 13.4704 8.69772 4.64709 
42 1 13.4708 9.56571 3.78079 
46 1 13.4757 12.461 0.880204 
47 1 13.478 11.4478 1.89186 
48 1 13.4729 10.5835 2.76204 
ITEM: TIMESTEP
50
ITEM: NUMBER OF ATOMS
75
ITEM: BOX BOUNDS pp pp pp
0.0000000000000000e+00 1.3600000000000000e+01
0.0000000000000000e+00 1.3600000000000000e+01
0.0000000000000000e+00 1.3600000000000000e+01
ITEM: ATOMS id type x y z 
1 1 6.63388 0.955651 7.61508 
2 1 6.64226 1.83979 8.67918 
3 1 6.56552 2.4616 9.7574 
7 1 6.71145 5.73038 12.4325 
8 1 6.71407 4.73336 11.3552 
9 1 6.68597 3.82107 10.5537 
49 1 5.67631 6.69157 12.4684 
50 1 4.65485 6.68309 11.4539 
51 1 3.78638 6.67438 10.5894 
55 1 0.888086 6.67302 7.68681 
56 1 1.90166 6.67113 8.70016 
57 1 2.76867 6.66892 9.56778 
73 2 6.28227 1.82055 10.6412 
75 3 6.27832 0.132984 11.4762 
25 1 0.882333 7.68019 6.6744 
26 1 1.8951 8.69394 6.67236 
27 1 2.76238 9.55983 6.67127 
31 1 5.65997 12.4674 6.67886 
32 1 4.64556 11.4486 6.67847 
33 1 3.78206 10.5793 6.67587 
37 1 6.67252 12.4654 5.66779 
38 1 6.66568 11.4534 4.66009 
39 1 6.66647 10.5868 3.79064 
43 1 6.67572 7.68988 0.894757 
44 1 6.6763 8.70272 1.90736 
45 1 6.67388 9.57153 2.77405 
28 1 5.66016 7.69549 13.4914 
29 1 4.64847 8.7059 13.4885 
30 1 3.77793 9.57016 13.4804 
34 1 0.882089 12.469 13.4635 
35 1 1.89472 11.4557 13.4663 
36 1 2.75976 10.5869 13.4698 
52 1 5.64662 13.4961 7.65735 
53 1 4.65299 13.4798 8.68214 
54 1 3.78933 13.4691 9.55411 
58 1 0.890684 13.4779 12.4525 
59 1 1.90526 13.4725 11.4414 
60 1 2.77582 13.4664 10.5764 
13 1 7.68092 6.676 0.89287 
14 1 8.69386 6.67669 1.90362 
15 1 9.56257 6.67658 2.7695 
19 1 12.4666 6.67452 5.66348 
20 1 11.4525 6.67363 4.65092 
21 1 10.5848 6.67241 3.78447 
61 1 12.4652 5.66663 6.67681 
62 1 11.4558 4.65258 6.67502 
63 1 10.5893 3.78332 6.67494 
67 1 7.68324 0.908118 6.62352 
68 1 8.70498 1.90022 6.63583 
69 1 9.57755 2.76318 6.65826 
4 1 13.4759 5.66621 7.68712 
5 1 13.4754 4.6467 8.6938 
6 1 13.4725 3.78291 9.56359 
10 1 13.4757 0.883622 12.459 
11 1 13.4741 1.89678 11.4466 
12 1 13.4718 2.76497 10.5814 
64 1 7.68019 5.68163 13.4623 
65 1 8.69227 4.6573 13.4668 
66 1 9.55395 3.78682 13.4728 
70 1 12.462 0.88985 13.4646 
71 1 11.4455 1.90207 13.4658 
72 1 10.5753 2.7656 13.4701 
74 2 7.09279 0.644239 11.4516 
16 1 7.68876 13.4719 5.64909 
17 1 8.70076 13.4574 4.63218 
18 1 9.57049 13.4588 3.76802 
22 1 12.4707 13.4776 0.871408 
23 1 11.4576 13.4758 1.88436 
24 1 10.5912 13.4711 2.75231 
40 1 13.4743 7.68493 5.66257 
41 1 13.4727 8.69867 4.64838 
42 1 13.4706 9.56533 3.78053 
46 1 13.4764 12.4638 0.877296 
47 1 13.4746 11.4506 1.89172 
48 1 13.4745 10.584 2.75969 
ITEM: TIMESTEP
51
ITEM: NUMBER OF ATOMS
75
ITEM: BOX BOUNDS pp pp pp
0.0000000000000000e+00 1.3600000000000000e+01
0.0000000000000000e+00 1.3600000000000000e+01
0.0000000000000000e+00 1.3600000000000000e+01
ITEM: ATOMS id type x y z 
1 1 6.63388 0.955649 7.61509 
2 1 6.64226 1.83978 8.67917 
3 1 6.56552 2.4616 9.75741 
7 1 6.71146 5.73038 12.4325 
8 1 6.71407 4.73336 11.3552 
9 1 6.68598 3.82106 10.5537 
49 1 5.67631 6.69158 12.4684 
50 1 4.65485 6.68309 11.4539 
51 1 3.78638 6.67438 10.5894 
55 1 0.888087 6.67302 7.68681 
56 1 1.90166 6.67112 8.70016 
57 1 2.76867 6.66893 9.56778 
73 2 6.28226 1.82054 10.6412 
75 3 6.27832 0.132985 11.4762 
25 1 0.882335 7.68019 6.67439 
26 1 1.8951 8.69395 6.67236 
27 1 2.76238 9.55983 6.67127 
31 1 5.65997 12.4674 6.67886 
32 1 4.64556 11.4486 6.67847 
33 1 3.78207 10.5793 6.67587 
37 1 6.67252 12.4654 5.66779 
38 1 6.66568 11.4534 4.66009 
39 1 6.66647 10.5868 3.79064 
43 1 6.67572 7.68987 0.89476 
44 1 6.6763 8.70272 1.90735 
45 1 6.67388 9.57153 2.77405 
28 1 5.66016 7.69549 13.4914 
29 1 4.64846 8.7059 13.4885 
30 1 3.77794 9.57016 13.4804 
34 1 0.882088 12.4689 13.4635 
35 1 1.89473 11.4557 13.4663 
36 1 2.75976 10.5868 13.4698 
52 1 5.64662 13.4961 7.65736 
53 1 4.65297 13.4798 8.68213 
54 1 3.78934 13.4691 9.55411 
58 1 0.890685 13.4779 12.4525 
59 1 1.90525 13.4725 11.4414 
60 1 2.77583 13.4664 10.5764 
13 1 7.68092 6.676 0.892869 
14 1 8.69386 6.67669 1.90362 
15 1 9.56257 6.67658 2.7695 
19 1 12.4666 6.67452 5.66348 
20 1 11.4525 6.67363 4.65092 
21 1 10.5848 6.67242 3.78447 
61 1 12.4652 5.66663 6.67681 
62 1 11.4558 4.65258 6.67502 
63 1 10.5893 3.78332 6.67494 
67 1 7.68324 0.908125 6.62352 
68 1 8.70498 1.90022 6.63583 
69 1 9.57755 2.76318 6.65825 
4 1 13.4759 5.6662 7.68711 
5 1 13.4754 4.64671 8.69382 
6 1 13.4726 3.7829 9.56359 
10 1 13.4757 0.883624 12.459 
11 1 13.4741 1.89678 11.4466 
12 1 13.4718 2.76498 10.5814 
64 1 7.68019 5.68163 13.4623 
65 1 8.69228 4.6573 13.4668 
66 1 9.55395 3.78682 13.4728 
70 1 12.462 0.889847 13.4646 
71 1 11.4455 1.90207 13.4658 
72 1 10.5753 2.76559 13.4701 
74 2 7.0928 0.644227 11.4516 
16 1 7.68876 13.4719 5.64909 
17 1 8.70076 13.4575 4.63218 
18 1 9.57049 13.4588 3.76802 
22 1 12.4707 13.4776 0.871407 
23 1 11.4576 13.4758 1.88437 
24 1 10.5912 13.4711 2.75231 
40 1 13.4743 7.68493 5.66257 
41 1 13.4727 8.69867 4.64838 
42 1 13.4706 9.56533 3.78053 
46 1 13.4764 12.4638 0.877297 
47 1 13.4746 11.4506 1.89172 
48 1 13.4745 10.584 2.75969 
ITEM: TIMESTEP
60
ITEM: NUMBER OF ATOMS
75
ITEM: BOX BOUNDS pp pp pp
0.0000000000000000e+00 1.3600000000000000e+01
0.0000000000000000e+00 1.3600000000000000e+01
0.0000000000000000e+00 1.3600000000000000e+01
ITEM: ATOMS id type x y z 
1 1 6.63476 0.954953 7.6189 
2 1 6.64228 1.83877 8.68367 
3 1 6.56328 2.45823 9.76047 
7 1 6.71365 5.73263 12.4302 
8 1 6.71507 4.732 11.3562 
9 1 6.68611 3.81828 10.5563 
49 1 5.67823 6.69365 12.4654 
50 1 4.65546 6.68369 11.4519 
51 1 3.78579 6.67428 10.5887 
55 1 0.888093 6.67362 7.68562 
56 1 1.90067 6.67096 8.70026 
57 1 2.76763 6.66984 9.56711 
73 2 6.27648 1.81724 10.6443 
75 3 6.27708 0.133615 11.4748 
25 1 0.882373 7.68128 6.67354 
26 1 1.89589 8.6938 6.67211 
27 1 2.76322 9.56062 6.67231 
31 1 5.65961 12.469 6.67728 
32 1 4.64617 11.4498 6.6779 
33 1 3.7824 10.5798 6.67628 
37 1 6.6731 12.4665 5.66761 
38 1 6.66695 11.4537 4.65976 
39 1 6.66708 10.5868 3.79155 
43 1 6.67565 7.68911 0.894938 
44 1 6.67596 8.70221 1.90805 
45 1 6.67334 9.57104 2.77391 
28 1 5.66077 7.69476 13.4909 
29 1 4.64885 8.70466 13.4875 
30 1 3.77874 9.56986 13.4808 
34 1 0.88263 12.4686 13.464 
35 1 1.89512 11.4554 13.4658 
36 1 2.76057 10.5863 13.4708 
52 1 5.64528 13.4962 7.65759 
53 1 4.6492 13.484 8.67923 
54 1 3.79048 13.4679 9.55587 
58 1 0.890023 13.4775 12.453 
59 1 1.90561 13.4713 11.442 
60 1 2.7747 13.4675 10.5763 
13 1 7.68112 6.67538 0.891801 
14 1 8.69417 6.67607 1.9022 
15 1 9.56212 6.67491 2.76916 
19 1 12.4662 6.67477 5.66315 
20 1 11.4526 6.67515 4.65004 
21 1 10.5835 6.67256 3.78452 
61 1 12.4656 5.66727 6.67622 
62 1 11.4554 4.6533 6.67396 
63 1 10.5909 3.78238 6.67427 
67 1 7.68144 0.910858 6.62367 
68 1 8.70321 1.90232 6.63637 
69 1 9.57744 2.76366 6.65721 
4 1 13.4778 5.66504 7.68518 
5 1 13.4708 4.65034 8.696 
6 1 13.4748 3.7819 9.56212 
10 1 13.4762 0.883589 12.4585 
11 1 13.4734 1.89741 11.4472 
12 1 13.473 2.76498 10.5802 
64 1 7.68267 5.68293 13.4592 
65 1 8.69308 4.65712 13.4648 
66 1 9.55449 3.7857 13.4715 
70 1 12.4626 0.889482 13.4643 
71 1 11.4458 1.90107 13.4669 
72 1 10.5762 2.76522 13.4699 
74 2 7.09746 0.636038 11.4587 
16 1 7.68766 13.4745 5.64963 
17 1 8.70027 13.4597 4.63315 
18 1 9.56991 13.4589 3.7689 
22 1 12.4702 13.478 0.871973 
23 1 11.4566 13.4751 1.88463 
24 1 10.5905 13.4698 2.75273 
40 1 13.4743 7.68527 5.66215 
41 1 13.4722 8.69902 4.64769 
42 1 13.472 9.56564 3.78031 
46 1 13.476 12.4642 0.877139 
47 1 13.4759 11.4504 1.89113 
48 1 13.4731 10.5847 2.75959 
ITEM: TIMESTEP
70
ITEM: NUMBER OF ATOMS
75
ITEM: BOX BOUNDS pp pp pp
0.0000000000000000e+00 1.3600000000000000e+01
0.0000000000000000e+00 1.3600000000000000e+01
0.0000000000000000e+00 1.3600000000000000e+01
ITEM: ATOMS id type x y z 
1 1 6.63802 0.95264 7.63406 
2 1 6.64103 1.82877 8.70614 
3 1 6.55065 2.44079 9.7852 
7 1 6.72553 5.74391 12.4162 
8 1 6.72131 4.72637 11.3595 
9 1 6.68618 3.80197 10.5716 
49 1 5.68857 6.70331 12.4497 
50 1 4.66105 6.68793 11.4401 
51 1 3.78363 6.67575 10.5851 
55 1 0.88473 6.67535 7.6803 
56 1 1.89864 6.67434 8.69588 
57 1 2.76041 6.67125 9.56678 
73 2 6.2424 1.80049 10.6617 
75 3 6.27175 0.133415 11.469 
25 1 0.884743 7.68362 6.67059 
26 1 1.89697 8.69889 6.67033 
27 1 2.76819 9.56105 6.67724 
31 1 5.65805 12.4787 6.67055 
32 1 4.64551 11.4572 6.67561 
33 1 3.787 10.5826 6.67783 
37 1 6.67528 12.4723 5.66625 
38 1 6.67245 11.4564 4.65867 
39 1 6.67108 10.5862 3.79447 
43 1 6.67466 7.68562 0.895584 
44 1 6.67396 8.69934 1.90988 
45 1 6.67148 9.56747 2.77611 
28 1 5.66503 7.6921 13.4869 
29 1 4.65156 8.70117 13.4848 
30 1 3.78167 9.56643 13.4819 
34 1 0.885632 12.4661 13.4642 
35 1 1.89699 11.4521 13.4705 
36 1 2.76478 10.5853 13.4724 
52 1 5.63699 13.5036 7.6534 
53 1 4.63626 13.4802 8.67029 
54 1 3.78759 13.4768 9.55752 
58 1 0.887202 13.4752 12.454 
59 1 1.90217 13.4769 11.4419 
60 1 2.775 13.466 10.5802 
13 1 7.68387 6.67661 0.883371 
14 1 8.69062 6.66666 1.90084 
15 1 9.56128 6.67017 2.76531 
19 1 12.4644 6.68093 5.6583 
20 1 11.4467 6.67189 4.65091 
21 1 10.5817 6.67817 3.78064 
61 1 12.4644 5.67132 6.6706 
62 1 11.4628 4.64887 6.67891 
63 1 10.5935 3.78257 6.6641 
67 1 7.67221 0.923649 6.62575 
68 1 8.69557 1.913 6.63833 
69 1 9.57629 2.7683 6.65236 
4 1 13.4717 5.67058 7.68353 
5 1 13.4834 4.64771 8.68932 
6 1 13.4682 3.78733 9.56306 
10 1 13.4759 0.883201 12.4571 
11 1 13.4818 1.89777 11.4444 
12 1 13.4716 2.76663 10.5792 
64 1 7.69545 5.6908 13.4441 
65 1 8.69981 4.65826 13.4526 
66 1 9.5565 3.7825 13.4641 
70 1 12.4657 0.887053 13.4661 
71 1 11.4479 1.89746 13.4667 
72 1 10.5782 2.76178 13.471 
74 2 7.12214 0.587915 11.4997 
16 1 7.68106 13.488 5.65102 
17 1 8.69761 13.471 4.63735 
18 1 9.56719 13.4609 3.77317 
22 1 12.4686 13.4765 0.874718 
23 1 11.454 13.4707 1.88773 
24 1 10.586 13.4639 2.75393 
40 1 13.476 7.68905 5.6603 
41 1 13.4771 8.70262 4.64668 
42 1 13.4721 9.56753 3.77717 
46 1 13.4771 12.4656 0.875632 
47 1 13.4713 11.4538 1.89132 
48 1 13.4753 10.5856 2.7572 
ITEM: TIMESTEP
80
ITEM: NUMBER OF ATOMS
75
ITEM: BOX BOUNDS pp pp pp
0.0000000000000000e+00 1.3600000000000000e+01
0.0000000000000000e+00 1.3600000000000000e+01
0.0000000000000000e+00 1.3600000000000000e+01
ITEM: ATOMS id type x y z 
1 1 6.63578 0.953214 7.6344 
2 1 6.63859 1.82321 8.70956 
3 1 6.54892 2.43563 9.79181 
7 1 6.72859 5.74629 12.413 
8 1 6.72313 4.72584 11.3583 
9 1 6.68604 3.79822 10.5747 
49 1 5.6914 6.70551 12.4466 
50 1 4.66032 6.68967 11.4406 
51 1 3.78615 6.67661 10.5831 
55 1 0.885806 6.67773 7.68054 
56 1 1.89818 6.67305 8.69691 
57 1 2.7615 6.67325 9.56642 
73 2 6.23102 1.79976 10.6667 
75 3 6.27361 0.125311 11.4721 
25 1 0.88405 7.68599 6.66877 
26 1 1.89977 8.69659 6.673 
27 1 2.76764 9.5632 6.67501 
31 1 5.65609 12.48 6.66763 
32 1 4.64781 11.4556 6.67404 
33 1 3.78545 10.5841 6.67861 
37 1 6.67497 12.4744 5.66415 
38 1 6.67288 11.4574 4.65767 
39 1 6.67187 10.5859 3.79459 
43 1 6.67389 7.68526 0.895391 
44 1 6.67387 8.69907 1.91015 
45 1 6.6723 9.56579 2.77739 
28 1 5.66684 7.69333 13.485 
29 1 4.65264 8.70186 13.4844 
30 1 3.78173 9.56637 13.4818 
34 1 0.884169 12.4659 13.4658 
35 1 1.90001 11.4551 13.4658 
36 1 2.76291 10.5832 13.4762 
52 1 5.63636 13.5039 7.65238 
53 1 4.63992 13.4866 8.67373 
54 1 3.78377 13.4717 9.55297 
58 1 0.888285 13.4753 12.4545 
59 1 1.90466 13.4713 11.4448 
60 1 2.77313 13.4725 10.5781 
13 1 7.68404 6.67651 0.883175 
14 1 8.69301 6.66954 1.89784 
15 1 9.5611 6.66995 2.76475 
19 1 12.464 6.67898 5.66068 
20 1 11.4499 6.67875 4.64781 
21 1 10.579 6.67219 3.7839 
61 1 12.4667 5.67006 6.67204 
62 1 11.4594 4.65299 6.67007 
63 1 10.596 3.78129 6.6675 
67 1 7.67114 0.924361 6.62736 
68 1 8.69446 1.91426 6.63776 
69 1 9.57401 2.77027 6.65128 
4 1 13.4776 5.6683 7.68267 
5 1 13.4736 4.65267 8.69329 
6 1 13.4745 3.78637 9.56166 
10 1 13.4773 0.884076 12.4574 
11 1 13.4747 1.8988 11.4455 
12 1 13.475 2.7648 10.5772 
64 1 7.69766 5.69315 13.4423 
65 1 8.70104 4.65983 13.4508 
66 1 9.55743 3.78381 13.4624 
70 1 12.4659 0.887394 13.4654 
71 1 11.4473 1.89761 13.4677 
72 1 10.5775 2.76164 13.4683 
74 2 7.12517 0.573197 11.5107 
16 1 7.67987 13.4905 5.65035 
17 1 8.69674 13.4731 4.63721 
18 1 9.5668 13.4622 3.77328 
22 1 12.4672 13.4774 0.87382 
23 1 11.4537 13.4699 1.88746 
24 1 10.5864 13.4643 2.75447 
40 1 13.474 7.68765 5.65933 
41 1 13.4742 8.70137 4.6454 
42 1 13.475 9.56792 3.77811 
46 1 13.4756 12.4661 0.875913 
47 1 13.4755 11.4523 1.88991 
48 1 13.4725 10.5867 2.7577 
ITEM: TIMESTEP
90
ITEM: NUMBER OF ATOMS
75
ITEM: BOX BOUNDS pp pp pp
0.0000000000000000e+00 1.3600000000000000e+01
0.0000000000000000e+00 1.3600000000000000e+01
0.0000000000000000e+00 1.3600000000000000e+01
ITEM: ATOMS id type x y z 
1 1 6.63533 0.953561 7.63521 
2 1 6.63729 1.8206 8.71477 
3 1 6.54691 2.43012 9.79658 
7 1 6.73125 5.74809 12.4101 
8 1 6.72457 4.72503 11.358 
9 1 6.68623 3.79489 10.5772 
49 1 5.69355 6.70736 12.445 
50 1 4.66353 6.6911 11.4383 
51 1 3.7863 6.67887 10.5828 
55 1 0.885476 6.6773 7.68086 
56 1 1.89784 6.67461 8.69659 
57 1 2.76233 6.67262 9.56598 
73 2 6.22008 1.79761 10.672 
75 3 6.27438 0.117966 11.4745 
25 1 0.884758 7.68529 6.66968 
26 1 1.89907 8.6979 6.67196 
27 1 2.76801 9.56293 6.67656 
31 1 5.65628 12.4811 6.66632 
32 1 4.64646 11.4575 6.67306 
33 1 3.78651 10.5842 6.67686 
37 1 6.67418 12.4763 5.66252 
38 1 6.67229 11.4578 4.65746 
39 1 6.67311 10.5859 3.79462 
43 1 6.67435 7.68531 0.895265 
44 1 6.67405 8.69813 1.91101 
45 1 6.67284 9.56516 2.77817 
28 1 5.66804 7.69462 13.4831 
29 1 4.65264 8.70232 13.4838 
30 1 3.7815 9.56594 13.4831 
34 1 0.885431 12.4667 13.4643 
35 1 1.89851 11.4535 13.4694 
36 1 2.76413 10.5845 13.4739 
52 1 5.63563 13.5047 7.65145 
53 1 4.63921 13.4849 8.6726 
54 1 3.78262 13.4753 9.5519 
58 1 0.888318 13.4765 12.455 
59 1 1.90412 13.473 11.4441 
60 1 2.77242 13.4703 10.5776 
13 1 7.68417 6.67734 0.882695 
14 1 8.69594 6.67032 1.89491 
15 1 9.55943 6.66875 2.76611 
19 1 12.4642 6.68061 5.6597 
20 1 11.4486 6.67634 4.64877 
21 1 10.5799 6.67337 3.78307 
61 1 12.4668 5.67027 6.67028 
62 1 11.4604 4.65216 6.67062 
63 1 10.5944 3.78305 6.66431 
67 1 7.67021 0.926029 6.62758 
68 1 8.69338 1.91543 6.63836 
69 1 9.57364 2.77141 6.65177 
4 1 13.4758 5.66825 7.68153 
5 1 13.4758 4.65393 8.69464 
6 1 13.474 3.78521 9.56013 
10 1 13.4761 0.88457 12.458 
11 1 13.4762 1.89766 11.4445 
12 1 13.4744 2.76605 10.5786 
64 1 7.69901 5.69534 13.4397 
65 1 8.70242 4.66184 13.4488 
66 1 9.55808 3.78486 13.4603 
70 1 12.4655 0.887127 13.4661 
71 1 11.447 1.89745 13.4662 
72 1 10.5774 2.76151 13.4678 
74 2 7.12906 0.559743 11.5211 
16 1 7.67907 13.493 5.64978 
17 1 8.69624 13.4752 4.63698 
18 1 9.5663 13.4638 3.77342 
22 1 12.4673 13.476 0.873761 
23 1 11.4532 13.4706 1.88744 
24 1 10.5866 13.4638 2.75488 
40 1 13.4751 7.68834 5.65967 
41 1 13.4747 8.70178 4.64557 
42 1 13.4738 9.56805 3.77756 
46 1 13.4763 12.4656 0.875292 
47 1 13.4743 11.4533 1.89007 
48 1 13.4746 10.5863 2.75753 
ITEM: TIMESTEP
100
ITEM: NUMBER OF ATOMS
75
ITEM: BOX BOUNDS pp pp pp
0.0000000000000000e+00 1.3600000000000000e+01
0.0000000000000000e+00 1.3600000000000000e+01
0.0000000000000000e+00 1.3600000000000000e+01
ITEM: ATOMS id type x y z 
1 1 6.63491 0.953473 7.63924 
2 1 6.63563 1.81355 8.72456 
3 1 6.54128 2.41843 9.81018 
7 1 6.73676 5.75138 12.4038 
8 1 6.72754 4.72255 11.3575 
9 1 6.68644 3.7866 10.5833 
49 1 5.69936 6.7122 12.4393 
50 1 4.66621 6.69662 11.4359 
51 1 3.78967 6.68022 10.5797 
55 1 0.885574 6.67871 7.68117 
56 1 1.89777 6.67426 8.69662 
57 1 2.76364 6.67587 9.56507 
73 2 6.1953 1.79142 10.6829 
75 3 6.27668 0.102478 11.4794 
25 1 0.884515 7.68661 6.669 
26 1 1.90061 8.69703 6.67464 
27 1 2.76829 9.56453 6.67462 
31 1 5.6542 12.484 6.66245 
32 1 4.64752 11.458 6.66888 
33 1 3.78584 10.5865 6.6764 
37 1 6.67201 12.481 5.65976 
38 1 6.67585 11.4603 4.65534 
39 1 6.67283 10.5857 3.79564 
43 1 6.67497 7.68499 0.894699 
44 1 6.67674 8.69867 1.9106 
45 1 6.67298 9.56268 2.7809 
28 1 5.67077 7.6956 13.4797 
29 1 4.65472 8.70351 13.483 
30 1 3.78228 9.56565 13.4814 
34 1 0.885125 12.4674 13.4658 
35 1 1.89965 11.4548 13.4679 
36 1 2.76382 10.5832 13.4778 
52 1 5.63451 13.5071 7.64999 
53 1 4.6373 13.4873 8.66978 
54 1 3.77954 13.4746 9.54921 
58 1 0.889132 13.4774 12.4563 
59 1 1.90262 13.4707 11.443 
60 1 2.77129 13.4741 10.5765 
13 1 7.68588 6.67866 0.879655 
14 1 8.69687 6.67377 1.89309 
15 1 9.56026 6.66767 2.76403 
19 1 12.4643 6.68057 5.65989 
20 1 11.4479 6.67325 4.64938 
21 1 10.5791 6.67319 3.78344 
61 1 12.469 5.67036 6.6698 
62 1 11.4589 4.65447 6.66558 
63 1 10.5942 3.78389 6.66323 
67 1 7.6671 0.928747 6.62958 
68 1 8.69001 1.91888 6.63929 
69 1 9.57141 2.77411 6.65045 
4 1 13.4776 5.66917 7.68161 
5 1 13.4738 4.65315 8.69353 
6 1 13.4758 3.78643 9.56069 
10 1 13.4764 0.884535 12.4577 
11 1 13.4745 1.89969 11.4464 
12 1 13.4754 2.76517 10.577 
64 1 7.70349 5.70011 13.4333 
65 1 8.70556 4.66514 13.4438 
66 1 9.55962 3.78697 13.4564 
70 1 12.4651 0.886967 13.465 
71 1 11.4459 1.89681 13.4649 
72 1 10.5778 2.76242 13.4646 
74 2 7.13749 0.528494 11.545 
16 1 7.67624 13.4986 5.64876 
17 1 8.6949 13.4802 4.63727 
18 1 9.56513 13.467 3.77407 
22 1 12.4661 13.4764 0.873418 
23 1 11.4529 13.4684 1.88795 
24 1 10.5862 13.4656 2.7552 
40 1 13.4747 7.68905 5.65942 
41 1 13.4755 8.70205 4.64532 
42 1 13.4747 9.56859 3.77769 
46 1 13.475 12.4668 0.874965 
47 1 13.4769 11.4524 1.88815 
48 1 13.4734 10.5872 2.75763 
ITEM: TIMESTEP
110
ITEM: NUMBER OF ATOMS
75
ITEM: BOX BOUNDS pp pp pp
0.0000000000000000e+00 1.3600000000000000e+01
0.0000000000000000e+00 1.3600000000000000e+01
0.0000000000000000e+00 1.3600000000000000e+01
ITEM: ATOMS id type x y z 
1 1 6.63539 0.953792 7.64125 
2 1 6.63473 1.81078 8.72789 
3 1 6.53954 2.41469 9.81486 
7 1 6.73724 5.75336 12.4015 
8 1 6.72841 4.72118 11.3575 
9 1 6.68623 3.78417 10.5859 
49 1 5.70119 6.71279 12.4377 
50 1 4.66916 6.69567 11.4329 
51 1 3.79001 6.68351 10.58 
55 1 0.885105 6.67813 7.68103 
56 1 1.89843 6.67651 8.69653 
57 1 2.76381 6.67461 9.5645 
73 2 6.18719 1.78845 10.6859 
75 3 6.27723 0.0977617 11.4806 
25 1 0.884909 7.686 6.67002 
26 1 1.89948 8.69905 6.67208 
27 1 2.76865 9.56364 6.67676 
31 1 5.65442 12.4856 6.66193 