
     Program PWSCF v.7.1 starts on  6May2025 at 21: 6: 4 

     This program is part of the open-source Quantum ESPRESSO suite
     for quantum simulation of materials; please cite
         "P. Giannozzi et al., J. Phys.:Condens. Matter 21 395502 (2009);
         "P. Giannozzi et al., J. Phys.:Condens. Matter 29 465901 (2017);
         "P. Giannozzi et al., J. Chem. Phys. 152 154105 (2020);
          URL http://www.quantum-espresso.org", 
     in publications or presentations arising from this work. More details at
     http://www.quantum-espresso.org/quote

     Parallel version (MPI), running on    16 processors

     MPI processes distributed on     1 nodes
     244634 MiB available memory on the printing compute node when the environment starts

     Reading input from input.pwi
Warning: card &CELL ignored
Warning: card / ignored
Warning: card &FCP ignored
Warning: card / ignored
Warning: card &RISM ignored
Warning: card / ignored

     Current dimensions of program PWSCF are:
     Max number of different atomic species (ntypx) = 10
     Max number of k-points (npk) =  40000
     Max angular momentum in pseudopotentials (lmaxx) =  4
     file C.pbe-n-kjpaw_psl.1.0.0.UPF: wavefunction(s)  2S 2P renormalized
     file O.pbe-n-kjpaw_psl.0.1.UPF: wavefunction(s)  2P renormalized

     IMPORTANT: XC functional enforced from input :
     Exchange-correlation= PBE
                           (   1   4   3   4   0   0   0)
     Any further DFT definition will be discarded
     Please, verify this is what you really want


     gamma-point specific algorithms are used

     R & G space division:  proc/nbgrp/npool/nimage =      16
     Subspace diagonalization in iterative solution of the eigenvalue problem:
     a serial algorithm will be used


     Parallelization info
     --------------------
     sticks:   dense  smooth     PW     G-vecs:    dense   smooth      PW
     Min         356     177     43                70548    24945    3112
     Max         358     180     46                70590    24972    3130
     Sum        5721    2869    717              1129231   399349   49901

     Using Slab Decomposition



     bravais-lattice index     =            0
     lattice parameter (alat)  =      13.4114  a.u.
     unit-cell volume          =    8357.3659 (a.u.)^3
     number of atoms/cell      =           33
     number of atomic types    =            2
     number of electrons       =       134.00 (up:  67.00, down:  67.00)
     number of Kohn-Sham states=           80
     kinetic-energy cutoff     =      50.0000  Ry
     charge density cutoff     =     400.0000  Ry
     scf convergence threshold =      1.0E-06
     mixing beta               =       0.3000
     number of iterations used =            8  plain     mixing
     energy convergence thresh.=      1.0E-04
     force convergence thresh. =      1.0E-03
     Exchange-correlation= PBE
                           (   1   4   3   4   0   0   0)
     nstep                     =         1000


     celldm(1)=  13.411386  celldm(2)=   0.000000  celldm(3)=   0.000000
     celldm(4)=   0.000000  celldm(5)=   0.000000  celldm(6)=   0.000000

     crystal axes: (cart. coord. in units of alat)
               a(1) = (   1.000000   0.000000   0.000000 )  
               a(2) = (   0.000000   1.000000   0.000000 )  
               a(3) = (   0.000000   0.000000   3.464562 )  

     reciprocal axes: (cart. coord. in units 2 pi/alat)
               b(1) = (  1.000000  0.000000  0.000000 )  
               b(2) = (  0.000000  1.000000  0.000000 )  
               b(3) = (  0.000000  0.000000  0.288637 )  


     PseudoPot. # 1 for C  read from file:
     /home/ana.bisette/espresso/pseudo/C.pbe-n-kjpaw_psl.1.0.0.UPF
     MD5 check sum: 5d2aebdfa2cae82b50a7e79e9516da0f
     Pseudo is Projector augmented-wave + core cor, Zval =  4.0
     Generated using "atomic" code by A. Dal Corso  v.5.1
     Shape of augmentation charge: PSQ
     Using radial grid of 1073 points,  4 beta functions with: 
                l(1) =   0
                l(2) =   0
                l(3) =   1
                l(4) =   1
     Q(r) pseudized with 0 coefficients 


     PseudoPot. # 2 for O  read from file:
     /home/ana.bisette/espresso/pseudo/O.pbe-n-kjpaw_psl.0.1.UPF
     MD5 check sum: 0234752ac141de4415c5fc33072bef88
     Pseudo is Projector augmented-wave + core cor, Zval =  6.0
     Generated using "atomic" code by A. Dal Corso  v.5.0.99 svn rev. 10869
     Shape of augmentation charge: BESSEL
     Using radial grid of 1095 points,  4 beta functions with: 
                l(1) =   0
                l(2) =   0
                l(3) =   1
                l(4) =   1
     Q(r) pseudized with 0 coefficients 


     atomic species   valence    mass     pseudopotential
        C              4.00    12.01100     C ( 1.00)
        O              6.00    15.99900     O ( 1.00)

     Starting magnetic structure 
     atomic species   magnetization
        C            0.000
        O            0.000

     No symmetry found



   Cartesian axes

     site n.     atom                  positions (alat units)
         1           C   tau(   1) = (   0.6547837   0.7372129   0.9093983  )
         2           C   tau(   2) = (   0.4704805   0.2299563   1.8767085  )
         3           C   tau(   3) = (   0.4773848   0.7342539   1.2126251  )
         4           C   tau(   4) = (   0.3047767   0.7372129   0.9093983  )
         5           C   tau(   5) = (   0.6553473   0.2227702   2.5550232  )
         6           C   tau(   6) = (   0.4703396   0.7301677   1.5878540  )
         7           C   tau(   7) = (   0.4778075   0.2257292   2.2517965  )
         8           C   tau(   8) = (   0.3051994   0.2227702   2.5551642  )
         9           C   tau(   9) = (   0.4703396   0.5550232   1.6888826  )
        10           C   tau(  10) = (   0.9798506   0.7372129   0.7217134  )
        11           C   tau(  11) = (   0.4741440   0.7318585   1.3856559  )
        12           C   tau(  12) = (   0.4703396   0.9050303   1.6890235  )
        13           C   tau(  13) = (  -0.0104269   0.5548823   0.0432577  )
        14           C   tau(  14) = (   0.4796393   0.7372129   1.0104269  )
        15           C   tau(  15) = (  -0.0145132   0.7318585   0.3464844  )
        16           C   tau(  16) = (  -0.0104269   0.9050303   0.0432577  )
        17           C   tau(  17) = (  -0.0104269   0.4051007   3.4211639  )
        18           C   tau(  18) = (   0.4802029   0.2227702   2.4539946  )
        19           C   tau(  19) = (  -0.0140905   0.2281246   3.1180781  )
        20           C   tau(  20) = (  -0.0104269   0.0549528   3.4213048  )
        21           C   tau(  21) = (   0.4703396   0.4051007   1.7756799  )
        22           C   tau(  22) = (  -0.0197266   0.2227702   2.7428491  )
        23           C   tau(  23) = (   0.4744258   0.2281246   2.0787657  )
        24           C   tau(  24) = (   0.4703396   0.0549528   1.7755390  )
        25           C   tau(  25) = (   0.8051289   0.2227702   2.6416796  )
        26           C   tau(  26) = (  -0.0105678   0.7300268   0.1444272  )
        27           C   tau(  27) = (  -0.0173313   0.2257292   2.9449063  )
        28           C   tau(  28) = (   0.1552769   0.2227702   2.6416796  )
        29           C   tau(  29) = (   0.8047062   0.7372129   0.8227420  )
        30           C   tau(  30) = (  -0.0102860   0.2298154   3.3201353  )
        31           C   tau(  31) = (  -0.0178949   0.7342539   0.5196562  )
        32           C   tau(  32) = (   0.1547133   0.7372129   0.8228829  )
        33           O   tau(  33) = (   0.4741440   0.9220798   1.3856559  )

     number of k points=     1  Gaussian smearing, width (Ry)=  0.0001
                       cart. coord. in units 2pi/alat
        k(    1) = (   0.0000000   0.0000000   0.0000000), wk =   1.0000000

     Dense  grid:   564616 G-vectors     FFT dimensions: (  90,  90, 300)

     Smooth grid:   199675 G-vectors     FFT dimensions: (  64,  64, 216)

     Estimated max dynamical RAM per process >     130.06 MB

     Estimated total dynamical RAM >       2.03 GB

     Check: negative core charge=   -0.000003
     Generating pointlists ...
     new r_m :   0.0714 (alat units)  0.9573 (a.u.) for type    1
     new r_m :   0.0785 (alat units)  1.0523 (a.u.) for type    2

     Initial potential from superposition of free atoms

     starting charge     133.9987, renormalised to     134.0000

     negative rho (up, down):  5.344E-08 5.344E-08
     Starting wfcs are  132 randomized atomic wfcs
     Checking if some PAW data can be deallocated... 

     total cpu time spent up to now is       11.1 secs

     Self-consistent Calculation

     iteration #  1     ecut=    50.00 Ry     beta= 0.30
     Davidson diagonalization with overlap
     ethr =  1.00E-02,  avg # of iterations =  2.0

     negative rho (up, down):  3.022E-07 3.094E-07

     total cpu time spent up to now is       19.2 secs

     total energy              =    -629.82483761 Ry
     estimated scf accuracy    <       3.82305458 Ry

     total magnetization       =    -0.00 Bohr mag/cell
     absolute magnetization    =     0.04 Bohr mag/cell

     iteration #  2     ecut=    50.00 Ry     beta= 0.30
     Davidson diagonalization with overlap
     ethr =  2.85E-03,  avg # of iterations =  2.0

     negative rho (up, down):  3.714E-06 3.742E-06

     total cpu time spent up to now is       26.0 secs

     total energy              =    -629.29205814 Ry
     estimated scf accuracy    <       1.34356047 Ry

     total magnetization       =     0.00 Bohr mag/cell
     absolute magnetization    =     0.03 Bohr mag/cell

     iteration #  3     ecut=    50.00 Ry     beta= 0.30
     Davidson diagonalization with overlap
     ethr =  1.00E-03,  avg # of iterations =  2.0

     negative rho (up, down):  1.090E-05 1.093E-05

     total cpu time spent up to now is       33.2 secs

     total energy              =    -629.43732837 Ry
     estimated scf accuracy    <       0.42742831 Ry

     total magnetization       =     0.00 Bohr mag/cell
     absolute magnetization    =     0.03 Bohr mag/cell

     iteration #  4     ecut=    50.00 Ry     beta= 0.30
     Davidson diagonalization with overlap
     ethr =  3.19E-04,  avg # of iterations =  2.0

     negative rho (up, down):  1.278E-05 1.281E-05

     total cpu time spent up to now is       39.9 secs

     total energy              =    -629.47013188 Ry
     estimated scf accuracy    <       0.04714786 Ry

     total magnetization       =     0.00 Bohr mag/cell
     absolute magnetization    =     0.02 Bohr mag/cell

     iteration #  5     ecut=    50.00 Ry     beta= 0.30
     Davidson diagonalization with overlap
     ethr =  3.52E-05,  avg # of iterations =  5.0

     negative rho (up, down):  2.030E-05 2.028E-05

     total cpu time spent up to now is       47.4 secs

     total energy              =    -629.47650180 Ry
     estimated scf accuracy    <       0.01505917 Ry

     total magnetization       =     0.00 Bohr mag/cell
     absolute magnetization    =     0.02 Bohr mag/cell

     iteration #  6     ecut=    50.00 Ry     beta= 0.30
     Davidson diagonalization with overlap
     ethr =  1.12E-05,  avg # of iterations =  7.5

     negative rho (up, down):  2.933E-05 2.932E-05

     total cpu time spent up to now is       55.1 secs

     total energy              =    -629.47712234 Ry
     estimated scf accuracy    <       0.00436801 Ry

     total magnetization       =    -0.00 Bohr mag/cell
     absolute magnetization    =     0.01 Bohr mag/cell

     iteration #  7     ecut=    50.00 Ry     beta= 0.30
     Davidson diagonalization with overlap
     c_bands:  3 eigenvalues not converged
     c_bands:  3 eigenvalues not converged
     ethr =  3.26E-06,  avg # of iterations = 20.0

     negative rho (up, down):  4.792E-05 4.791E-05

     total cpu time spent up to now is       65.3 secs

     total energy              =    -629.47767897 Ry
     estimated scf accuracy    <       0.00135862 Ry

     total magnetization       =     0.00 Bohr mag/cell
     absolute magnetization    =     0.01 Bohr mag/cell

     iteration #  8     ecut=    50.00 Ry     beta= 0.30
     Davidson diagonalization with overlap
     ethr =  1.01E-06,  avg # of iterations = 10.0

     negative rho (up, down):  5.221E-05 5.219E-05

     total cpu time spent up to now is       73.6 secs

     total energy              =    -629.47761198 Ry
     estimated scf accuracy    <       0.00049109 Ry

     total magnetization       =     0.00 Bohr mag/cell
     absolute magnetization    =     0.01 Bohr mag/cell

     iteration #  9     ecut=    50.00 Ry     beta= 0.30
     Davidson diagonalization with overlap
     ethr =  3.66E-07,  avg # of iterations =  2.0

     negative rho (up, down):  5.365E-05 5.364E-05

     total cpu time spent up to now is       81.0 secs

     total energy              =    -629.47770504 Ry
     estimated scf accuracy    <       0.00001206 Ry

     total magnetization       =    -0.00 Bohr mag/cell
     absolute magnetization    =     0.01 Bohr mag/cell

     iteration # 10     ecut=    50.00 Ry     beta= 0.30
     Davidson diagonalization with overlap
     ethr =  9.00E-09,  avg # of iterations =  5.5

     negative rho (up, down):  5.478E-05 5.478E-05

     total cpu time spent up to now is       89.5 secs

     total energy              =    -629.47770626 Ry
     estimated scf accuracy    <       0.00002465 Ry

     total magnetization       =     0.00 Bohr mag/cell
     absolute magnetization    =     0.00 Bohr mag/cell

     iteration # 11     ecut=    50.00 Ry     beta= 0.30
     Davidson diagonalization with overlap
     ethr =  9.00E-09,  avg # of iterations =  2.0

     negative rho (up, down):  5.512E-05 5.511E-05

     total cpu time spent up to now is       97.1 secs

     total energy              =    -629.47770840 Ry
     estimated scf accuracy    <       0.00000250 Ry

     total magnetization       =     0.00 Bohr mag/cell
     absolute magnetization    =     0.00 Bohr mag/cell

     iteration # 12     ecut=    50.00 Ry     beta= 0.30
     Davidson diagonalization with overlap
     ethr =  1.87E-09,  avg # of iterations =  5.0

     negative rho (up, down):  5.563E-05 5.563E-05

     Magnetic moment per site  (integrated on atomic sphere of radius R)
     atom   1 (R=0.071)  charge=  1.1816  magn= -0.0000
     atom   2 (R=0.071)  charge=  1.1305  magn=  0.0000
     atom   3 (R=0.071)  charge=  1.1892  magn=  0.0000
     atom   4 (R=0.071)  charge=  1.1810  magn=  0.0000
     atom   5 (R=0.071)  charge=  1.1839  magn= -0.0000
     atom   6 (R=0.071)  charge=  1.1396  magn= -0.0001
     atom   7 (R=0.071)  charge=  1.1846  magn=  0.0000
     atom   8 (R=0.071)  charge=  1.1819  magn= -0.0000
     atom   9 (R=0.071)  charge=  1.1844  magn=  0.0001
     atom  10 (R=0.071)  charge=  1.1303  magn= -0.0000
     atom  11 (R=0.071)  charge=  1.2241  magn=  0.0000
     atom  12 (R=0.071)  charge=  1.1786  magn=  0.0001
     atom  13 (R=0.071)  charge=  1.1835  magn=  0.0000
     atom  14 (R=0.071)  charge=  1.1302  magn= -0.0000
     atom  15 (R=0.071)  charge=  1.1829  magn=  0.0000
     atom  16 (R=0.071)  charge=  1.1819  magn= -0.0000
     atom  17 (R=0.071)  charge=  1.1816  magn= -0.0000
     atom  18 (R=0.071)  charge=  1.1315  magn=  0.0000
     atom  19 (R=0.071)  charge=  1.1835  magn= -0.0000
     atom  20 (R=0.071)  charge=  1.1839  magn=  0.0000
     atom  21 (R=0.071)  charge=  1.1830  magn= -0.0001
     atom  22 (R=0.071)  charge=  1.1323  magn= -0.0000
     atom  23 (R=0.071)  charge=  1.1828  magn= -0.0000
     atom  24 (R=0.071)  charge=  1.1843  magn= -0.0001
     atom  25 (R=0.071)  charge=  1.1817  magn=  0.0000
     atom  26 (R=0.071)  charge=  1.1318  magn=  0.0000
     atom  27 (R=0.071)  charge=  1.1822  magn=  0.0000
     atom  28 (R=0.071)  charge=  1.1839  magn=  0.0000
     atom  29 (R=0.071)  charge=  1.1824  magn=  0.0000
     atom  30 (R=0.071)  charge=  1.1311  magn= -0.0000
     atom  31 (R=0.071)  charge=  1.1841  magn= -0.0000
     atom  32 (R=0.071)  charge=  1.1837  magn=  0.0000
     atom  33 (R=0.078)  charge=  3.5061  magn= -0.0001

     total cpu time spent up to now is      104.3 secs

     End of self-consistent calculation

 ------ SPIN UP ------------


          k = 0.0000 0.0000 0.0000 ( 24951 PWs)   bands (ev):

   -24.2499 -19.3767 -19.2625 -19.1457 -18.8936 -18.6459 -18.5028 -18.2616
   -17.8293 -17.1337 -17.1010 -16.9755 -16.9064 -16.7996 -16.5574 -16.1433
   -15.9044 -15.2506 -14.8981 -14.7313 -14.4080 -12.5080 -12.4808 -12.4467
   -12.3233 -12.1302 -12.1092 -11.9754 -11.5031 -11.3366 -10.8720 -10.7020
   -10.6790 -10.6228 -10.5026 -10.4656 -10.2658  -8.4114  -8.3593  -7.9735
    -7.8479  -7.8220  -7.2694  -6.7627  -6.6374  -6.5101  -5.7438  -5.7337
    -5.6763  -5.5600  -5.4799  -5.4477  -5.4188  -5.3732  -5.3216  -5.2827
    -5.2506  -5.1456  -5.0519  -4.8442  -4.7807  -4.6367  -4.1011  -3.9586
    -3.9559  -3.7594  -2.8058  -1.6066  -1.1647  -1.0250  -0.9545   0.3101
     0.5681   0.6581   0.7806   1.2682   1.2791   1.3762   1.5538   1.6201

 ------ SPIN DOWN ----------


          k = 0.0000 0.0000 0.0000 ( 24951 PWs)   bands (ev):

   -24.2501 -19.3766 -19.2625 -19.1457 -18.8936 -18.6460 -18.5027 -18.2616
   -17.8294 -17.1337 -17.1010 -16.9755 -16.9064 -16.7996 -16.5574 -16.1433
   -15.9044 -15.2507 -14.8981 -14.7313 -14.4080 -12.5080 -12.4808 -12.4466
   -12.3232 -12.1302 -12.1092 -11.9754 -11.5031 -11.3366 -10.8720 -10.7020
   -10.6790 -10.6228 -10.5026 -10.4656 -10.2658  -8.4114  -8.3593  -7.9735
    -7.8479  -7.8220  -7.2694  -6.7627  -6.6374  -6.5101  -5.7438  -5.7336
    -5.6763  -5.5600  -5.4798  -5.4478  -5.4188  -5.3732  -5.3216  -5.2828
    -5.2507  -5.1456  -5.0519  -4.8443  -4.7807  -4.6367  -4.1011  -3.9587
    -3.9560  -3.7596  -2.8059  -1.6067  -1.1647  -1.0250  -0.9545   0.3102
     0.5681   0.6581   0.7806   1.2682   1.2792   1.3762   1.5538   1.6203

     the spin up/dw Fermi energies are    -2.4126   -2.4126 ev

!    total energy              =    -629.47770901 Ry
     total all-electron energy =     -2586.775732 Ry
     estimated scf accuracy    <       0.00000023 Ry
     smearing contrib. (-TS)   =      -0.00000000 Ry
     internal energy E=F+TS    =    -629.47770901 Ry

     The total energy is F=E-TS. E is the sum of the following terms:
     one-electron contribution =    -785.93982338 Ry
     hartree contribution      =     419.48379422 Ry
     xc contribution           =    -152.44750255 Ry
     ewald contribution        =      96.35838140 Ry
     one-center paw contrib.   =    -206.93255870 Ry

     total magnetization       =    -0.00 Bohr mag/cell
     absolute magnetization    =     0.00 Bohr mag/cell

     convergence has been achieved in  12 iterations

     negative rho (up, down):  5.563E-05 5.563E-05

     Forces acting on atoms (cartesian axes, Ry/au):

     atom    1 type  1   force =    -0.07504481    0.00076179    0.04624895
     atom    2 type  1   force =     0.00278703    0.00081501   -0.07666033
     atom    3 type  1   force =     0.00641156   -0.02486042   -0.25307395
     atom    4 type  1   force =     0.07333998    0.00070338    0.04265572
     atom    5 type  1   force =    -0.08689547   -0.00030260   -0.05268932
     atom    6 type  1   force =     0.00089902   -0.17138353    0.18325971
     atom    7 type  1   force =     0.00129931   -0.00136947   -0.00504809
     atom    8 type  1   force =     0.08575270   -0.00033505   -0.04954498
     atom    9 type  1   force =    -0.00074719    0.08378519   -0.03161423
     atom   10 type  1   force =     0.00080370   -0.00256217    0.06865353
     atom   11 type  1   force =    -0.00678994    0.06780189    0.26356995
     atom   12 type  1   force =    -0.00035183   -0.09601647   -0.06532963
     atom   13 type  1   force =     0.00021770    0.08684358    0.05380537
     atom   14 type  1   force =    -0.00088206   -0.00693579   -0.04233152
     atom   15 type  1   force =     0.00130623   -0.00114619    0.00886080
     atom   16 type  1   force =     0.00024682   -0.08560412    0.05116611
     atom   17 type  1   force =     0.00059272   -0.08763906   -0.05244097
     atom   18 type  1   force =    -0.00143864    0.00241923    0.06834078
     atom   19 type  1   force =     0.00141625    0.00086636   -0.00966630
     atom   20 type  1   force =     0.00062263    0.08528337   -0.04948667
     atom   21 type  1   force =    -0.00014885   -0.09074943    0.05623525
     atom   22 type  1   force =     0.00119329    0.00235389   -0.07224193
     atom   23 type  1   force =    -0.00136849    0.00091101    0.00758467
     atom   24 type  1   force =    -0.00040507    0.08765340    0.06320084
     atom   25 type  1   force =     0.08680870   -0.00029415    0.05390834
     atom   26 type  1   force =    -0.00276415    0.00081366   -0.07269852
     atom   27 type  1   force =    -0.00136880   -0.00113024    0.01021004
     atom   28 type  1   force =    -0.08535143   -0.00032186    0.05026430
     atom   29 type  1   force =     0.08064358    0.00022833   -0.05024404
     atom   30 type  1   force =    -0.00339910    0.00059141    0.06944427
     atom   31 type  1   force =    -0.00105915    0.00144861   -0.00711854
     atom   32 type  1   force =    -0.07949813    0.00026104   -0.04719756
     atom   33 type  2   force =     0.00317191    0.14710940   -0.16002205

     Total force =     0.663320     Total SCF correction =     0.000704

     BFGS Geometry Optimization
     Energy error            =      0.0E+00 Ry
     Gradient error          =      2.6E-01 Ry/Bohr

     number of scf cycles    =   1
     number of bfgs steps    =   0

     energy             new  =    -629.4777090137 Ry

     new trust radius        =       0.2722357783 bohr
     new conv_thr            =       0.0000010000 Ry


ATOMIC_POSITIONS (angstrom)
C             4.6072879946        5.2324031201        6.4784738905
C             3.3404748327        1.6324312863       13.2784330991
C             3.3913928489        5.1978444344        8.4720790307
C             2.2018098482        5.2323722113        6.4765724353
C             4.6050168969        1.5808398693       18.1051180148
C             3.3384757390        5.0913077418       11.3659768608
C             3.3916875664        1.6012753074       15.9783286682
C             2.2113783745        1.5808227001       18.1077819257
C             3.3376046048        3.9833372119       11.9692704714
C             6.9544252974        5.2306441567        5.1583298811
C             3.3614069211        5.2298792130        9.9734752125
C             3.3378138185        6.3721902743       11.9524290461
C            -0.0738847985        3.9839556454        0.3354725767
C             3.4035332335        5.2283297368        7.1485991243
C            -0.1023087753        5.1933934624        2.4636889316
C            -0.0738693904        6.3777002492        0.3340759397
C            -0.0736863473        2.8286234076       24.2522494334
C             3.4072387042        1.5822802013       17.4521643844
C            -0.0992505544        1.6194584597       22.1238848130
C            -0.0736705200        0.4351300152       24.2548127846
C             3.3379212335        2.8269774704       12.6317584102
C            -0.1393685388        1.5822456261       19.4277712181
C             3.3662758258        1.6194820852       14.7570136336
C             3.3377856488        0.4363841818       12.6344444434
C             5.7599371873        1.5808443433       18.7765270674
C            -0.0764627263        5.1814305714        0.9865296016
C            -0.1237243403        1.6014019006       20.9054029194
C             1.0568339699        1.5808296784       18.7745987219
C             5.7536747463        5.2321208295        5.8124119997
C            -0.0747987283        1.6313129621       23.5997483249
C            -0.1275604770        5.2117665693        3.6842330293
C             1.0559314003        5.2321381355        5.8150241294
O             3.3666785040        6.6218469422        9.7493199772



     Writing config-only to output data dir ./pwscf.save/
     NEW-OLD atomic charge density approx. for the potential

     Check: negative core charge=   -0.000003

     negative rho (up, down):  5.823E-05 5.824E-05
     Generating pointlists ...

     total cpu time spent up to now is      119.0 secs

     Self-consistent Calculation

     iteration #  1     ecut=    50.00 Ry     beta= 0.30
     Davidson diagonalization with overlap
     c_bands:  1 eigenvalues not converged
     c_bands:  1 eigenvalues not converged
     ethr =  1.00E-06,  avg # of iterations = 20.0

     negative rho (up, down):  5.218E-05 5.219E-05

     total cpu time spent up to now is      138.0 secs

     total energy              =    -629.28775301 Ry
     estimated scf accuracy    <       0.32013548 Ry

     total magnetization       =     0.00 Bohr mag/cell
     absolute magnetization    =     0.00 Bohr mag/cell

     iteration #  2     ecut=    50.00 Ry     beta= 0.30
     Davidson diagonalization with overlap
     ethr =  2.39E-04,  avg # of iterations =  2.0

     negative rho (up, down):  5.126E-05 5.129E-05

     total cpu time spent up to now is      144.9 secs

     total energy              =    -629.30014458 Ry
     estimated scf accuracy    <       0.04922040 Ry

     total magnetization       =    -0.00 Bohr mag/cell
     absolute magnetization    =     0.00 Bohr mag/cell

     iteration #  3     ecut=    50.00 Ry     beta= 0.30
     Davidson diagonalization with overlap
     ethr =  3.67E-05,  avg # of iterations =  3.0

     negative rho (up, down):  4.980E-05 4.983E-05

     total cpu time spent up to now is      152.2 secs

     total energy              =    -629.30365933 Ry
     estimated scf accuracy    <       0.01538372 Ry

     total magnetization       =     0.00 Bohr mag/cell
     absolute magnetization    =     0.00 Bohr mag/cell

     iteration #  4     ecut=    50.00 Ry     beta= 0.30
     Davidson diagonalization with overlap
     c_bands:  2 eigenvalues not converged
     c_bands:  2 eigenvalues not converged
     ethr =  1.15E-05,  avg # of iterations = 20.0

     negative rho (up, down):  5.322E-05 5.324E-05

     total cpu time spent up to now is      161.3 secs

     total energy              =    -629.30294734 Ry
     estimated scf accuracy    <       0.01202960 Ry

     total magnetization       =    -0.00 Bohr mag/cell
     absolute magnetization    =     0.00 Bohr mag/cell

     iteration #  5     ecut=    50.00 Ry     beta= 0.30
     Davidson diagonalization with overlap
     c_bands:  1 eigenvalues not converged
     ethr =  8.98E-06,  avg # of iterations = 11.5

     negative rho (up, down):  5.484E-05 5.486E-05

     total cpu time spent up to now is      169.1 secs

     total energy              =    -629.30407947 Ry
     estimated scf accuracy    <       0.00088730 Ry

     total magnetization       =     0.00 Bohr mag/cell
     absolute magnetization    =     0.01 Bohr mag/cell

     iteration #  6     ecut=    50.00 Ry     beta= 0.30
     Davidson diagonalization with overlap
     ethr =  6.62E-07,  avg # of iterations = 12.5

     negative rho (up, down):  5.318E-05 5.318E-05

     total cpu time spent up to now is      177.6 secs

     total energy              =    -629.30417716 Ry
     estimated scf accuracy    <       0.00017046 Ry

     total magnetization       =     0.00 Bohr mag/cell
     absolute magnetization    =     0.01 Bohr mag/cell

     iteration #  7     ecut=    50.00 Ry     beta= 0.30
     Davidson diagonalization with overlap
     ethr =  1.27E-07,  avg # of iterations =  2.0

     negative rho (up, down):  5.247E-05 5.246E-05

     total cpu time spent up to now is      184.5 secs

     total energy              =    -629.30418833 Ry
     estimated scf accuracy    <       0.00003942 Ry

     total magnetization       =     0.00 Bohr mag/cell
     absolute magnetization    =     0.00 Bohr mag/cell

     iteration #  8     ecut=    50.00 Ry     beta= 0.30
     Davidson diagonalization with overlap
     ethr =  2.94E-08,  avg # of iterations =  4.0

     negative rho (up, down):  5.211E-05 5.211E-05

     total cpu time spent up to now is      191.8 secs

     total energy              =    -629.30419141 Ry
     estimated scf accuracy    <       0.00000996 Ry

     total magnetization       =     0.00 Bohr mag/cell
     absolute magnetization    =     0.00 Bohr mag/cell

     iteration #  9     ecut=    50.00 Ry     beta= 0.30
     Davidson diagonalization with overlap
     ethr =  7.43E-09,  avg # of iterations =  2.0

     negative rho (up, down):  5.108E-05 5.108E-05

     Magnetic moment per site  (integrated on atomic sphere of radius R)
     atom   1 (R=0.071)  charge=  1.1460  magn=  0.0000
     atom   2 (R=0.071)  charge=  1.1707  magn=  0.0000
     atom   3 (R=0.071)  charge=  1.1165  magn=  0.0000
     atom   4 (R=0.071)  charge=  1.1491  magn=  0.0000
     atom   5 (R=0.071)  charge=  1.1469  magn=  0.0000
     atom   6 (R=0.071)  charge=  1.2324  magn= -0.0000
     atom   7 (R=0.071)  charge=  1.1796  magn=  0.0000
     atom   8 (R=0.071)  charge=  1.1502  magn=  0.0000
     atom   9 (R=0.071)  charge=  1.1969  magn=  0.0001
     atom  10 (R=0.071)  charge=  1.1649  magn=  0.0000
     atom  11 (R=0.071)  charge=  1.1034  magn= -0.0000
     atom  12 (R=0.071)  charge=  1.1242  magn=  0.0001
     atom  13 (R=0.071)  charge=  1.1472  magn= -0.0000
     atom  14 (R=0.071)  charge=  1.2073  magn= -0.0000
     atom  15 (R=0.071)  charge=  1.1784  magn=  0.0000
     atom  16 (R=0.071)  charge=  1.1502  magn= -0.0000
     atom  17 (R=0.071)  charge=  1.1482  magn=  0.0000
     atom  18 (R=0.071)  charge=  1.1688  magn= -0.0000
     atom  19 (R=0.071)  charge=  1.1801  magn= -0.0000
     atom  20 (R=0.071)  charge=  1.1481  magn=  0.0000
     atom  21 (R=0.071)  charge=  1.1523  magn= -0.0001
     atom  22 (R=0.071)  charge=  1.1689  magn=  0.0000
     atom  23 (R=0.071)  charge=  1.1765  magn= -0.0000
     atom  24 (R=0.071)  charge=  1.1448  magn= -0.0001
     atom  25 (R=0.071)  charge=  1.1491  magn= -0.0000
     atom  26 (R=0.071)  charge=  1.1688  magn= -0.0000
     atom  27 (R=0.071)  charge=  1.1787  magn= -0.0000
     atom  28 (R=0.071)  charge=  1.1489  magn=  0.0000
     atom  29 (R=0.071)  charge=  1.1528  magn= -0.0000
     atom  30 (R=0.071)  charge=  1.1681  magn= -0.0000
     atom  31 (R=0.071)  charge=  1.1796  magn=  0.0000
     atom  32 (R=0.071)  charge=  1.1533  magn= -0.0000
     atom  33 (R=0.078)  charge=  3.4625  magn= -0.0000

     total cpu time spent up to now is      198.5 secs

     End of self-consistent calculation

 ------ SPIN UP ------------


          k = 0.0000 0.0000 0.0000 ( 24951 PWs)   bands (ev):

   -22.9627 -19.7934 -19.5888 -19.4685 -19.3895 -19.1412 -18.9692 -18.8299
   -18.7135 -16.7204 -16.7127 -16.6521 -16.5511 -16.5216 -16.4616 -16.3119
   -15.3276 -14.7357 -14.4466 -14.1708 -13.7429 -13.2943 -13.2425 -13.2357
   -13.1308 -12.7176 -12.2242 -12.0506 -11.5676 -11.3525 -11.0097 -10.9441
   -10.9366 -10.8328 -10.7316 -10.6353 -10.4276  -8.3459  -8.2489  -8.1058
    -8.0048  -7.3201  -7.1927  -6.9351  -6.9178  -6.8174  -5.7530  -5.4479
    -5.3699  -5.3224  -5.2759  -5.2557  -5.1674  -5.1103  -5.0527  -5.0337
    -4.9517  -4.9397  -4.8212  -4.7200  -4.5836  -4.4923  -4.3511  -4.0833
    -4.0029  -3.6944  -2.3753  -1.5063  -0.9124  -0.5758  -0.5210  -0.2499
    -0.1045  -0.0229   0.1569   0.9235   0.9310   1.1776   1.2345   1.2824

 ------ SPIN DOWN ----------


          k = 0.0000 0.0000 0.0000 ( 24951 PWs)   bands (ev):

   -22.9629 -19.7933 -19.5888 -19.4685 -19.3895 -19.1412 -18.9692 -18.8299
   -18.7136 -16.7203 -16.7126 -16.6521 -16.5511 -16.5216 -16.4615 -16.3119
   -15.3276 -14.7357 -14.4466 -14.1708 -13.7429 -13.2944 -13.2425 -13.2357
   -13.1308 -12.7176 -12.2242 -12.0506 -11.5676 -11.3526 -11.0097 -10.9442
   -10.9366 -10.8328 -10.7316 -10.6353 -10.4276  -8.3459  -8.2489  -8.1058
    -8.0048  -7.3201  -7.1929  -6.9351  -6.9178  -6.8174  -5.7529  -5.4480
    -5.3699  -5.3224  -5.2759  -5.2557  -5.1674  -5.1102  -5.0527  -5.0337
    -4.9517  -4.9397  -4.8212  -4.7200  -4.5836  -4.4924  -4.3511  -4.0833
    -4.0030  -3.6944  -2.3753  -1.5062  -0.9123  -0.5758  -0.5210  -0.2499
    -0.1045  -0.0229   0.1569   0.9235   0.9307   1.1777   1.2347   1.2822

     the spin up/dw Fermi energies are    -1.7381   -1.7381 ev

!    total energy              =    -629.30419294 Ry
     total all-electron energy =     -2586.602216 Ry
     estimated scf accuracy    <       0.00000093 Ry
     smearing contrib. (-TS)   =      -0.00000000 Ry
     internal energy E=F+TS    =    -629.30419294 Ry

     The total energy is F=E-TS. E is the sum of the following terms:
     one-electron contribution =    -780.76092963 Ry
     hartree contribution      =     416.57403587 Ry
     xc contribution           =    -151.99553964 Ry
     ewald contribution        =      93.78826491 Ry
     one-center paw contrib.   =    -206.91002444 Ry

     total magnetization       =    -0.00 Bohr mag/cell
     absolute magnetization    =     0.00 Bohr mag/cell

     convergence has been achieved in   9 iterations

     negative rho (up, down):  5.108E-05 5.108E-05

     Forces acting on atoms (cartesian axes, Ry/au):

     atom    1 type  1   force =     0.23207031    0.00056824   -0.13966323
     atom    2 type  1   force =     0.00270393    0.01444561    0.06300574
     atom    3 type  1   force =    -0.00547051   -0.02446330    0.46840284
     atom    4 type  1   force =    -0.22836420    0.00051861   -0.13871829
     atom    5 type  1   force =     0.24159112   -0.00012272    0.13776675
     atom    6 type  1   force =     0.00092035    0.16203951   -0.02098539
     atom    7 type  1   force =     0.00095337   -0.00138803    0.02260119
     atom    8 type  1   force =    -0.23885960   -0.00014247    0.13732076
     atom    9 type  1   force =    -0.00078653   -0.44100693    0.26036352
     atom   10 type  1   force =     0.00018534   -0.00241732   -0.05103125
     atom   11 type  1   force =     0.00495159    0.17240650   -0.36397127
     atom   12 type  1   force =    -0.00031345    0.21955904    0.14890737
     atom   13 type  1   force =     0.00014948   -0.24330557   -0.13815941
     atom   14 type  1   force =     0.00128424   -0.00155343   -0.14719499
     atom   15 type  1   force =     0.00156404   -0.00097324   -0.02963818
     atom   16 type  1   force =     0.00017316    0.24044307   -0.13743754
     atom   17 type  1   force =     0.00019425    0.24212835    0.13840965
     atom   18 type  1   force =    -0.00039945    0.00200418   -0.05280028
     atom   19 type  1   force =     0.00164911    0.00095993    0.03346043
     atom   20 type  1   force =     0.00020192   -0.23838201    0.13701152
     atom   21 type  1   force =    -0.00021869    0.22992478   -0.12646919
     atom   22 type  1   force =     0.00068389    0.00212779    0.05596538
     atom   23 type  1   force =    -0.00144334    0.00131181   -0.02580381
     atom   24 type  1   force =    -0.00038125   -0.28072301   -0.15287628
     atom   25 type  1   force =    -0.24275841   -0.00012071   -0.13788154
     atom   26 type  1   force =    -0.00270140    0.00004149    0.05587391
     atom   27 type  1   force =    -0.00132525   -0.00132955   -0.03459213
     atom   28 type  1   force =     0.24012854   -0.00014266   -0.13755340
     atom   29 type  1   force =    -0.22534607    0.00012980    0.12717579
     atom   30 type  1   force =    -0.00282557   -0.00108306   -0.05453597
     atom   31 type  1   force =    -0.00102880    0.00174734    0.03072777
     atom   32 type  1   force =     0.22186051    0.00000386    0.12640867
     atom   33 type  2   force =     0.00095742   -0.05320588   -0.05408916

     Total force =     1.362832     Total SCF correction =     0.001075
     Energy error            =      1.7E-01 Ry
     Gradient error          =      4.7E-01 Ry/Bohr

     number of scf cycles    =   2
     number of bfgs steps    =   1

     energy             old  =    -629.4777090137 Ry
     energy             new  =    -629.3041929360 Ry

     CASE: energy            _new > energy            _old

     new trust radius        =       0.0976203297 bohr
     new conv_thr            =       0.0000010000 Ry


ATOMIC_POSITIONS (angstrom)
C             4.6327597738        5.2321445538        6.4627760297
C             3.3395288565        1.6321546538       13.3044532190
C             3.3892166330        5.2062825795        8.5579776230
C             2.1769167240        5.2321334703        6.4620941917
C             4.6345110370        1.5809425791       18.1230018704
C             3.3381705940        5.1494788957       11.3037746839
C             3.3912465527        1.6017401343       15.9800420940
C             2.1822721150        1.5809364225       18.1245985280
C             3.3378582163        3.9548987672       11.9800010012
C             6.9541525063        5.2315138116        5.1350274389
C             3.3637115670        5.2068658350        9.8840140588
C             3.3379332377        6.4047802707       11.9746032903
C            -0.0739586902        3.9544791171        0.3172099083
C             3.4038326234        5.2306838897        7.1629673274
C            -0.1027521355        5.1937825032        2.4606813920
C            -0.0739531650        6.4067560785        0.3167090918
C            -0.0738875281        2.8583699366       24.2700489955
C             3.4077270089        1.5814590641       17.4289680939
C            -0.0997312582        1.6191643979       22.1271657582
C            -0.0738818526        0.4061830564       24.2716095936
C             3.3379717553        2.8577797243       12.6126709920
C            -0.1397735660        1.5814466659       19.4522916391
C             3.3667403202        1.6191728697       14.7544392386
C             3.3379231364        0.4066327848       12.6129927572
C             5.7304724982        1.5809441835       18.7582294479
C            -0.0755245153        5.1811543975        1.0112049985
C            -0.1232597393        1.6017855291       20.9019374190
C             1.0858040291        1.5809389248       18.7575379675
C             5.7263026279        5.2320433279        5.8294658771
C            -0.0736450014        1.6311122243       23.5761774876
C            -0.1272009800        5.2112748821        3.6866492116
C             1.0829147287        5.2320495336        5.8310439666
O             3.3656018904        6.5719149354        9.8036348077



     Writing config-only to output data dir ./pwscf.save/
     NEW-OLD atomic charge density approx. for the potential

     Check: negative core charge=   -0.000003

     negative rho (up, down):  5.082E-05 5.082E-05
     Generating pointlists ...

     total cpu time spent up to now is      213.4 secs

     Self-consistent Calculation

     iteration #  1     ecut=    50.00 Ry     beta= 0.30
     Davidson diagonalization with overlap
     c_bands:  3 eigenvalues not converged
     c_bands:  3 eigenvalues not converged
     ethr =  1.00E-06,  avg # of iterations = 20.0

     negative rho (up, down):  5.239E-05 5.240E-05

     total cpu time spent up to now is      230.5 secs

     total energy              =    -629.53955893 Ry
     estimated scf accuracy    <       0.13221735 Ry

     total magnetization       =    -0.00 Bohr mag/cell
     absolute magnetization    =     0.00 Bohr mag/cell

     iteration #  2     ecut=    50.00 Ry     beta= 0.30
     Davidson diagonalization with overlap
     ethr =  9.87E-05,  avg # of iterations =  7.0

     negative rho (up, down):  5.371E-05 5.373E-05

     total cpu time spent up to now is      238.0 secs

     total energy              =    -629.54521420 Ry
     estimated scf accuracy    <       0.02399490 Ry

     total magnetization       =    -0.00 Bohr mag/cell
     absolute magnetization    =     0.01 Bohr mag/cell

     iteration #  3     ecut=    50.00 Ry     beta= 0.30
     Davidson diagonalization with overlap
     c_bands:  1 eigenvalues not converged
     ethr =  1.79E-05,  avg # of iterations = 20.0

     negative rho (up, down):  5.373E-05 5.374E-05

     total cpu time spent up to now is      247.2 secs

     total energy              =    -629.54727675 Ry
     estimated scf accuracy    <       0.01512575 Ry

     total magnetization       =    -0.00 Bohr mag/cell
     absolute magnetization    =     0.01 Bohr mag/cell

     iteration #  4     ecut=    50.00 Ry     beta= 0.30
     Davidson diagonalization with overlap
     ethr =  1.13E-05,  avg # of iterations =  6.0

     negative rho (up, down):  5.688E-05 5.679E-05

     total cpu time spent up to now is      254.4 secs

     total energy              =    -629.54812955 Ry
     estimated scf accuracy    <       0.00237335 Ry

     total magnetization       =    -0.00 Bohr mag/cell
     absolute magnetization    =     0.01 Bohr mag/cell

     iteration #  5     ecut=    50.00 Ry     beta= 0.30
     Davidson diagonalization with overlap
     ethr =  1.77E-06,  avg # of iterations =  9.5

     negative rho (up, down):  5.589E-05 5.580E-05

     total cpu time spent up to now is      262.6 secs

     total energy              =    -629.54841242 Ry
     estimated scf accuracy    <       0.00039141 Ry

     total magnetization       =    -0.00 Bohr mag/cell
     absolute magnetization    =     0.01 Bohr mag/cell

     iteration #  6     ecut=    50.00 Ry     beta= 0.30
     Davidson diagonalization with overlap
     ethr =  2.92E-07,  avg # of iterations =  2.0

     negative rho (up, down):  5.494E-05 5.488E-05

     total cpu time spent up to now is      269.3 secs

     total energy              =    -629.54843736 Ry
     estimated scf accuracy    <       0.00008209 Ry

     total magnetization       =     0.00 Bohr mag/cell
     absolute magnetization    =     0.00 Bohr mag/cell

     iteration #  7     ecut=    50.00 Ry     beta= 0.30
     Davidson diagonalization with overlap
     ethr =  6.13E-08,  avg # of iterations =  4.0

     negative rho (up, down):  5.442E-05 5.438E-05

     total cpu time spent up to now is      276.7 secs

     total energy              =    -629.54845109 Ry
     estimated scf accuracy    <       0.00002151 Ry

     total magnetization       =     0.00 Bohr mag/cell
     absolute magnetization    =     0.00 Bohr mag/cell

     iteration #  8     ecut=    50.00 Ry     beta= 0.30
     Davidson diagonalization with overlap
     ethr =  1.60E-08,  avg # of iterations =  2.5

     negative rho (up, down):  5.407E-05 5.406E-05

     total cpu time spent up to now is      283.4 secs

     total energy              =    -629.54845363 Ry
     estimated scf accuracy    <       0.00000355 Ry

     total magnetization       =    -0.00 Bohr mag/cell
     absolute magnetization    =     0.00 Bohr mag/cell

     iteration #  9     ecut=    50.00 Ry     beta= 0.30
     Davidson diagonalization with overlap
     ethr =  2.65E-09,  avg # of iterations =  4.0

     negative rho (up, down):  5.354E-05 5.354E-05

     Magnetic moment per site  (integrated on atomic sphere of radius R)
     atom   1 (R=0.071)  charge=  1.1662  magn= -0.0000
     atom   2 (R=0.071)  charge=  1.1429  magn=  0.0000
     atom   3 (R=0.071)  charge=  1.1479  magn= -0.0001
     atom   4 (R=0.071)  charge=  1.1663  magn= -0.0000
     atom   5 (R=0.071)  charge=  1.1671  magn= -0.0000
     atom   6 (R=0.071)  charge=  1.1693  magn= -0.0000
     atom   7 (R=0.071)  charge=  1.1827  magn=  0.0000
     atom   8 (R=0.071)  charge=  1.1673  magn= -0.0000
     atom   9 (R=0.071)  charge=  1.1814  magn= -0.0000
     atom  10 (R=0.071)  charge=  1.1411  magn= -0.0000
     atom  11 (R=0.071)  charge=  1.1681  magn=  0.0001
     atom  12 (R=0.071)  charge=  1.1567  magn=  0.0000
     atom  13 (R=0.071)  charge=  1.1675  magn=  0.0000
     atom  14 (R=0.071)  charge=  1.1548  magn=  0.0000
     atom  15 (R=0.071)  charge=  1.1812  magn= -0.0000
     atom  16 (R=0.071)  charge=  1.1677  magn= -0.0000
     atom  17 (R=0.071)  charge=  1.1667  magn= -0.0000
     atom  18 (R=0.071)  charge=  1.1430  magn=  0.0000
     atom  19 (R=0.071)  charge=  1.1821  magn=  0.0000
     atom  20 (R=0.071)  charge=  1.1682  magn=  0.0000
     atom  21 (R=0.071)  charge=  1.1691  magn= -0.0000
     atom  22 (R=0.071)  charge=  1.1434  magn=  0.0000
     atom  23 (R=0.071)  charge=  1.1803  magn= -0.0000
     atom  24 (R=0.071)  charge=  1.1669  magn= -0.0000
     atom  25 (R=0.071)  charge=  1.1665  magn= -0.0000
     atom  26 (R=0.071)  charge=  1.1432  magn=  0.0000
     atom  27 (R=0.071)  charge=  1.1807  magn= -0.0000
     atom  28 (R=0.071)  charge=  1.1679  magn=  0.0000
     atom  29 (R=0.071)  charge=  1.1683  magn=  0.0000
     atom  30 (R=0.071)  charge=  1.1426  magn= -0.0000
     atom  31 (R=0.071)  charge=  1.1822  magn= -0.0000
     atom  32 (R=0.071)  charge=  1.1701  magn=  0.0000
     atom  33 (R=0.078)  charge=  3.4919  magn=  0.0001

     total cpu time spent up to now is      290.6 secs

     End of self-consistent calculation

 ------ SPIN UP ------------


          k = 0.0000 0.0000 0.0000 ( 24951 PWs)   bands (ev):

   -23.7595 -19.4734 -19.3697 -19.2474 -19.0303 -18.8012 -18.6575 -18.4426
   -18.1362 -16.9715 -16.9325 -16.8163 -16.8051 -16.6896 -16.5285 -16.2088
   -15.6289 -15.0618 -14.7008 -14.5785 -14.2599 -12.7597 -12.7335 -12.6171
   -12.5720 -12.4708 -12.1802 -12.0847 -11.5446 -11.3715 -10.8873 -10.8023
   -10.7533 -10.6971 -10.6345 -10.5207 -10.4291  -8.2830  -8.1853  -8.0121
    -7.8953  -7.6794  -7.2322  -6.8050  -6.6889  -6.6420  -5.7418  -5.6044
    -5.5299  -5.4219  -5.3783  -5.3750  -5.3385  -5.3161  -5.3011  -5.1859
    -5.1823  -5.0336  -4.9658  -4.7837  -4.6523  -4.6217  -4.2311  -4.0440
    -4.0136  -3.7727  -2.6260  -1.5520  -1.0047  -0.8594  -0.8480   0.1898
     0.3261   0.4274   0.5299   1.0528   1.2139   1.2870   1.5534   1.5620

 ------ SPIN DOWN ----------


          k = 0.0000 0.0000 0.0000 ( 24951 PWs)   bands (ev):

   -23.7593 -19.4734 -19.3697 -19.2474 -19.0303 -18.8013 -18.6576 -18.4426
   -18.1362 -16.9716 -16.9325 -16.8163 -16.8051 -16.6896 -16.5285 -16.2087
   -15.6290 -15.0618 -14.7008 -14.5784 -14.2599 -12.7598 -12.7335 -12.6171
   -12.5720 -12.4708 -12.1802 -12.0847 -11.5446 -11.3715 -10.8873 -10.8024
   -10.7533 -10.6971 -10.6345 -10.5207 -10.4291  -8.2828  -8.1853  -8.0121
    -7.8953  -7.6793  -7.2321  -6.8050  -6.6888  -6.6420  -5.7417  -5.6044
    -5.5299  -5.4218  -5.3783  -5.3749  -5.3386  -5.3161  -5.3010  -5.1860
    -5.1823  -5.0336  -4.9659  -4.7837  -4.6523  -4.6217  -4.2311  -4.0439
    -4.0136  -3.7727  -2.6261  -1.5521  -1.0047  -0.8594  -0.8479   0.1898
     0.3261   0.4274   0.5299   1.0528   1.2140   1.2870   1.5538   1.5621

     the spin up/dw Fermi energies are    -1.5929   -1.5929 ev

!    total energy              =    -629.54845415 Ry
     total all-electron energy =     -2586.846477 Ry
     estimated scf accuracy    <       0.00000063 Ry
     smearing contrib. (-TS)   =      -0.00000000 Ry
     internal energy E=F+TS    =    -629.54845415 Ry

     The total energy is F=E-TS. E is the sum of the following terms:
     one-electron contribution =    -783.39946270 Ry
     hartree contribution      =     418.06983194 Ry
     xc contribution           =    -152.21134713 Ry
     ewald contribution        =      94.90540900 Ry
     one-center paw contrib.   =    -206.91288527 Ry

     total magnetization       =    -0.00 Bohr mag/cell
     absolute magnetization    =     0.00 Bohr mag/cell

     convergence has been achieved in   9 iterations

     negative rho (up, down):  5.354E-05 5.354E-05

     Forces acting on atoms (cartesian axes, Ry/au):

     atom    1 type  1   force =     0.04622829    0.00058221   -0.02785538
     atom    2 type  1   force =     0.00276908    0.00449246   -0.02932872
     atom    3 type  1   force =     0.00046689   -0.02929552    0.08871633
     atom    4 type  1   force =    -0.04528904    0.00052412   -0.02937706
     atom    5 type  1   force =     0.04377579   -0.00024516    0.02436044
     atom    6 type  1   force =     0.00091548   -0.08183727    0.12450057
     atom    7 type  1   force =     0.00117267   -0.00141382    0.00442396
     atom    8 type  1   force =    -0.04273457   -0.00027741    0.02564301
     atom    9 type  1   force =    -0.00068329   -0.08717841    0.06551245
     atom   10 type  1   force =     0.00056976   -0.00251352    0.02791188
     atom   11 type  1   force =    -0.00087464    0.11849228   -0.05280986
     atom   12 type  1   force =    -0.00030023    0.03663896    0.02301717
     atom   13 type  1   force =     0.00018549   -0.04432279   -0.02379898
     atom   14 type  1   force =    -0.00005060   -0.00575033   -0.06852554
     atom   15 type  1   force =     0.00143020   -0.00110171   -0.00473663
     atom   16 type  1   force =     0.00021067    0.04325671   -0.02465595
     atom   17 type  1   force =     0.00045226    0.04355417    0.02471828
     atom   18 type  1   force =    -0.00106336    0.00223612    0.02784347
     atom   19 type  1   force =     0.00152332    0.00085909    0.00528139
     atom   20 type  1   force =     0.00047337   -0.04287049    0.02566308
     atom   21 type  1   force =    -0.00011534    0.03645332   -0.01785382
     atom   22 type  1   force =     0.00098712    0.00224240   -0.02896739
     atom   23 type  1   force =    -0.00139228    0.00105479   -0.00437124
     atom   24 type  1   force =    -0.00034399   -0.05967883   -0.02507603
     atom   25 type  1   force =    -0.04426799   -0.00024382   -0.02360351
     atom   26 type  1   force =    -0.00272294    0.00049681   -0.02936168
     atom   27 type  1   force =    -0.00131978   -0.00124259   -0.00549315
     atom   28 type  1   force =     0.04323040   -0.00026953   -0.02529190
     atom   29 type  1   force =    -0.03978010    0.00013725    0.02070896
     atom   30 type  1   force =    -0.00317130    0.00019692    0.02782083
     atom   31 type  1   force =    -0.00100952    0.00151545    0.00607299
     atom   32 type  1   force =     0.03831810    0.00012829    0.02187749
     atom   33 type  2   force =     0.00241007    0.06537985   -0.12296546

     Total force =     0.355584     Total SCF correction =     0.001000
     Energy error            =      7.1E-02 Ry
     Gradient error          =      1.2E-01 Ry/Bohr

     number of scf cycles    =   3
     number of bfgs steps    =   1

     energy             old  =    -629.4777090137 Ry
     energy             new  =    -629.5484541509 Ry

     CASE: energy            _new < energy            _old

     new trust radius        =       0.2112701082 bohr
     new conv_thr            =       0.0000010000 Ry


ATOMIC_POSITIONS (angstrom)
C             4.6442012445        5.2325494461        6.4560391897
C             3.3413268290        1.6345053105       13.2782073849
C             3.3904275923        5.1879675389        8.5632725297
C             2.1656802009        5.2325006542        6.4540543186
C             4.6429266075        1.5807748638       18.1270228732
C             3.3387615945        5.0827412441       11.3934676379
C             3.3920261596        1.6008303141       15.9814630013
C             2.1741978982        1.5807477656       18.1297354908
C             3.3374054689        3.9245008532       12.0076338965
C             6.9545576297        5.2298768283        5.1593478580
C             3.3622407494        5.2759410926        9.8981154005
C             3.3377307110        6.4082657866       11.9760273976
C            -0.0738335147        3.9457845655        0.3136376393
C             3.4036727823        5.2267747539        7.1225434302
C            -0.1018438580        5.1930614550        2.4596880792
C            -0.0738110603        6.4151117333        0.3123089273
C            -0.0735728631        2.8665620772       24.2742852646
C             3.4069802796        1.5829367440       17.4532068288
C            -0.0987600280        1.6197224664       22.1283059404
C            -0.0735521582        0.3979697777       24.2767654146
C             3.3378918572        2.8619779840       12.6124159619
C            -0.1391021021        1.5829174779       19.4268999277
C             3.3658413199        1.6198347369       14.7534320099
C             3.3376907903        0.3904526448       12.6102231798
C             5.7217997758        1.5807784241       18.7547697732
C            -0.0772961295        5.1815248987        0.9855481467
C            -0.1241228609        1.6009971072       20.9007753776
C             1.0941852541        1.5807561880       18.7526848896
C             5.7189118217        5.2321462256        5.8320510847
C            -0.0757357993        1.6313001652       23.6005736054
C            -0.1278630451        5.2122471527        3.6885709201
C             1.0897560848        5.2321529899        5.8346736705
O             3.3672807683        6.6267887338        9.7182529498



     Writing config-only to output data dir ./pwscf.save/
     NEW-OLD atomic charge density approx. for the potential

     Check: negative core charge=   -0.000003

     negative rho (up, down):  5.360E-05 5.360E-05
     Generating pointlists ...

     total cpu time spent up to now is      305.4 secs

     Self-consistent Calculation

     iteration #  1     ecut=    50.00 Ry     beta= 0.30
     Davidson diagonalization with overlap
     ethr =  1.00E-06,  avg # of iterations = 12.0

     negative rho (up, down):  5.512E-05 5.513E-05

     total cpu time spent up to now is      320.0 secs

     total energy              =    -629.59927597 Ry
     estimated scf accuracy    <       0.03143002 Ry

     total magnetization       =    -0.00 Bohr mag/cell
     absolute magnetization    =     0.00 Bohr mag/cell

     iteration #  2     ecut=    50.00 Ry     beta= 0.30
     Davidson diagonalization with overlap
     ethr =  2.35E-05,  avg # of iterations =  3.0

     negative rho (up, down):  5.602E-05 5.602E-05

     total cpu time spent up to now is      327.0 secs

     total energy              =    -629.60109923 Ry
     estimated scf accuracy    <       0.00937940 Ry

     total magnetization       =     0.00 Bohr mag/cell
     absolute magnetization    =     0.00 Bohr mag/cell

     iteration #  3     ecut=    50.00 Ry     beta= 0.30
     Davidson diagonalization with overlap
     ethr =  7.00E-06,  avg # of iterations =  5.0

     negative rho (up, down):  5.667E-05 5.667E-05

     total cpu time spent up to now is      334.0 secs

     total energy              =    -629.60113611 Ry
     estimated scf accuracy    <       0.00320418 Ry

     total magnetization       =    -0.00 Bohr mag/cell
     absolute magnetization    =     0.00 Bohr mag/cell

     iteration #  4     ecut=    50.00 Ry     beta= 0.30
     Davidson diagonalization with overlap
     ethr =  2.39E-06,  avg # of iterations =  5.0

     negative rho (up, down):  5.923E-05 5.924E-05

     total cpu time spent up to now is      341.0 secs

     total energy              =    -629.60088624 Ry
     estimated scf accuracy    <       0.00079741 Ry

     total magnetization       =    -0.00 Bohr mag/cell
     absolute magnetization    =     0.00 Bohr mag/cell

     iteration #  5     ecut=    50.00 Ry     beta= 0.30
     Davidson diagonalization with overlap
     ethr =  5.95E-07,  avg # of iterations =  5.0

     negative rho (up, down):  5.922E-05 5.922E-05

     total cpu time spent up to now is      348.1 secs

     total energy              =    -629.60092376 Ry
     estimated scf accuracy    <       0.00012218 Ry

     total magnetization       =    -0.00 Bohr mag/cell
     absolute magnetization    =     0.00 Bohr mag/cell

     iteration #  6     ecut=    50.00 Ry     beta= 0.30
     Davidson diagonalization with overlap
     ethr =  9.12E-08,  avg # of iterations =  3.0

     negative rho (up, down):  5.874E-05 5.874E-05

     total cpu time spent up to now is      354.9 secs

     total energy              =    -629.60093005 Ry
     estimated scf accuracy    <       0.00001647 Ry

     total magnetization       =    -0.00 Bohr mag/cell
     absolute magnetization    =     0.00 Bohr mag/cell

     iteration #  7     ecut=    50.00 Ry     beta= 0.30
     Davidson diagonalization with overlap
     ethr =  1.23E-08,  avg # of iterations =  4.0

     negative rho (up, down):  5.841E-05 5.841E-05

     total cpu time spent up to now is      362.2 secs

     total energy              =    -629.60093159 Ry
     estimated scf accuracy    <       0.00000316 Ry

     total magnetization       =    -0.00 Bohr mag/cell
     absolute magnetization    =     0.00 Bohr mag/cell

     iteration #  8     ecut=    50.00 Ry     beta= 0.30
     Davidson diagonalization with overlap
     ethr =  2.36E-09,  avg # of iterations =  4.0

     negative rho (up, down):  5.782E-05 5.782E-05

     Magnetic moment per site  (integrated on atomic sphere of radius R)
     atom   1 (R=0.071)  charge=  1.1807  magn= -0.0000
     atom   2 (R=0.071)  charge=  1.1392  magn=  0.0000
     atom   3 (R=0.071)  charge=  1.1295  magn= -0.0000
     atom   4 (R=0.071)  charge=  1.1810  magn= -0.0000
     atom   5 (R=0.071)  charge=  1.1792  magn=  0.0000
     atom   6 (R=0.071)  charge=  1.1660  magn= -0.0000
     atom   7 (R=0.071)  charge=  1.1751  magn=  0.0000
     atom   8 (R=0.071)  charge=  1.1790  magn=  0.0000
     atom   9 (R=0.071)  charge=  1.2327  magn= -0.0000
     atom  10 (R=0.071)  charge=  1.1384  magn= -0.0000
     atom  11 (R=0.071)  charge=  1.1393  magn=  0.0000
     atom  12 (R=0.071)  charge=  1.1606  magn=  0.0000
     atom  13 (R=0.071)  charge=  1.1799  magn=  0.0000
     atom  14 (R=0.071)  charge=  1.1454  magn=  0.0000
     atom  15 (R=0.071)  charge=  1.1728  magn= -0.0000
     atom  16 (R=0.071)  charge=  1.1795  magn= -0.0000
     atom  17 (R=0.071)  charge=  1.1779  magn= -0.0000
     atom  18 (R=0.071)  charge=  1.1392  magn= -0.0000
     atom  19 (R=0.071)  charge=  1.1744  magn=  0.0000
     atom  20 (R=0.071)  charge=  1.1807  magn=  0.0000
     atom  21 (R=0.071)  charge=  1.1989  magn= -0.0000
     atom  22 (R=0.071)  charge=  1.1395  magn=  0.0000
     atom  23 (R=0.071)  charge=  1.1722  magn= -0.0000
     atom  24 (R=0.071)  charge=  1.1760  magn= -0.0000
     atom  25 (R=0.071)  charge=  1.1777  magn= -0.0000
     atom  26 (R=0.071)  charge=  1.1393  magn=  0.0000
     atom  27 (R=0.071)  charge=  1.1730  magn= -0.0000
     atom  28 (R=0.071)  charge=  1.1809  magn=  0.0000
     atom  29 (R=0.071)  charge=  1.1819  magn=  0.0000
     atom  30 (R=0.071)  charge=  1.1386  magn= -0.0000
     atom  31 (R=0.071)  charge=  1.1744  magn=  0.0000
     atom  32 (R=0.071)  charge=  1.1847  magn=  0.0000
     atom  33 (R=0.078)  charge=  3.4864  magn=  0.0000

     total cpu time spent up to now is      369.5 secs

     End of self-consistent calculation

 ------ SPIN UP ------------


          k = 0.0000 0.0000 0.0000 ( 24951 PWs)   bands (ev):

   -23.5008 -19.4325 -19.3372 -19.2294 -19.0763 -18.6970 -18.5534 -18.3720
   -18.1390 -17.1269 -17.0655 -16.9536 -16.9054 -16.7487 -16.4881 -16.1856
   -15.5413 -15.0727 -14.6957 -14.5610 -14.2645 -12.7992 -12.7798 -12.7587
   -12.6438 -12.3174 -11.9648 -11.9050 -11.4356 -11.1396 -10.8916 -10.8263
   -10.7994 -10.7119 -10.5720 -10.4383 -10.2031  -8.1537  -8.1174  -8.0224
    -7.9109  -7.6236  -7.1898  -6.7122  -6.6510  -6.6022  -5.8878  -5.6433
    -5.5632  -5.5243  -5.4600  -5.4568  -5.4082  -5.4031  -5.3455  -5.2957
    -5.2886  -5.1692  -5.0789  -4.8816  -4.7580  -4.6963  -4.2519  -4.0993
    -4.0471  -3.9062  -2.5289  -1.4537  -0.9492  -0.8163  -0.7439   0.2353
     0.3942   0.5001   0.6163   1.0226   1.2587   1.2856   1.5564   1.6076

 ------ SPIN DOWN ----------


          k = 0.0000 0.0000 0.0000 ( 24951 PWs)   bands (ev):

   -23.5007 -19.4325 -19.3372 -19.2294 -19.0763 -18.6970 -18.5534 -18.3720
   -18.1390 -17.1269 -17.0655 -16.9536 -16.9054 -16.7487 -16.4881 -16.1856
   -15.5413 -15.0727 -14.6957 -14.5610 -14.2645 -12.7992 -12.7798 -12.7587
   -12.6438 -12.3174 -11.9648 -11.9050 -11.4356 -11.1396 -10.8917 -10.8263
   -10.7994 -10.7119 -10.5720 -10.4383 -10.2031  -8.1536  -8.1174  -8.0224
    -7.9109  -7.6235  -7.1898  -6.7122  -6.6510  -6.6022  -5.8878  -5.6433
    -5.5632  -5.5243  -5.4600  -5.4568  -5.4082  -5.4031  -5.3455  -5.2957
    -5.2886  -5.1692  -5.0789  -4.8816  -4.7580  -4.6963  -4.2519  -4.0993
    -4.0471  -3.9062  -2.5290  -1.4537  -0.9492  -0.8163  -0.7439   0.2353
     0.3942   0.5001   0.6163   1.0226   1.2587   1.2856   1.5562   1.6077

     the spin up/dw Fermi energies are    -1.5207   -1.5207 ev

!    total energy              =    -629.60093225 Ry
     total all-electron energy =     -2586.898955 Ry
     estimated scf accuracy    <       0.00000054 Ry
     smearing contrib. (-TS)   =      -0.00000000 Ry
     internal energy E=F+TS    =    -629.60093225 Ry

     The total energy is F=E-TS. E is the sum of the following terms:
     one-electron contribution =    -780.25988056 Ry
     hartree contribution      =     416.54534430 Ry
     xc contribution           =    -152.29599060 Ry
     ewald contribution        =      93.33252075 Ry
     one-center paw contrib.   =    -206.92292613 Ry

     total magnetization       =    -0.00 Bohr mag/cell
     absolute magnetization    =     0.00 Bohr mag/cell

     convergence has been achieved in   8 iterations

     negative rho (up, down):  5.782E-05 5.782E-05

     Forces acting on atoms (cartesian axes, Ry/au):

     atom    1 type  1   force =    -0.01723247   -0.00023569   -0.00175907
     atom    2 type  1   force =     0.00198178   -0.00704789    0.00640776
     atom    3 type  1   force =     0.00028995   -0.01437639    0.05380141
     atom    4 type  1   force =     0.01981881   -0.00027423   -0.00154988
     atom    5 type  1   force =    -0.00949751    0.00007850    0.00144444
     atom    6 type  1   force =     0.00199983    0.12710367   -0.05766136
     atom    7 type  1   force =     0.00055270   -0.00087594    0.01574071
     atom    8 type  1   force =     0.01146340    0.00005109    0.00132278
     atom    9 type  1   force =    -0.00040766   -0.04077707    0.03745330
     atom   10 type  1   force =    -0.00044864   -0.00156086   -0.00486020
     atom   11 type  1   force =    -0.00061225    0.08294232   -0.02037094
     atom   12 type  1   force =    -0.00013793   -0.04540747    0.02102002
     atom   13 type  1   force =    -0.00016216    0.00825364   -0.00168748
     atom   14 type  1   force =    -0.00033761   -0.00948485   -0.00198714
     atom   15 type  1   force =     0.00091245   -0.00056573   -0.01580821
     atom   16 type  1   force =    -0.00014656   -0.01014579   -0.00148271
     atom   17 type  1   force =    -0.00003157   -0.00868386    0.00203855
     atom   18 type  1   force =     0.00033614    0.00145513   -0.00427247
     atom   19 type  1   force =     0.00092426    0.00056203    0.01788720
     atom   20 type  1   force =    -0.00001241    0.01177678    0.00120577
     atom   21 type  1   force =     0.00018628   -0.09448591    0.04775879
     atom   22 type  1   force =    -0.00006103    0.00154489    0.00561807
     atom   23 type  1   force =    -0.00089412    0.00065728   -0.01735669
     atom   24 type  1   force =     0.00010467   -0.00318455   -0.00499273
     atom   25 type  1   force =     0.00856161    0.00007975   -0.00141354
     atom   26 type  1   force =    -0.00195411   -0.00049532    0.00609703
     atom   27 type  1   force =    -0.00068828   -0.00081398   -0.01869857
     atom   28 type  1   force =    -0.01084137    0.00006183   -0.00144370
     atom   29 type  1   force =     0.02078446   -0.00022253   -0.00616841
     atom   30 type  1   force =    -0.00212081   -0.00057548   -0.00472952
     atom   31 type  1   force =    -0.00047386    0.00142875    0.01435716
     atom   32 type  1   force =    -0.02286934   -0.00027071   -0.00604726
     atom   33 type  2   force =     0.00101338    0.00348863   -0.05986310

     Total force =     0.234205     Total SCF correction =     0.001164
     Energy error            =      5.2E-02 Ry
     Gradient error          =      1.3E-01 Ry/Bohr

     number of scf cycles    =   4
     number of bfgs steps    =   2

     energy             old  =    -629.5484541509 Ry
     energy             new  =    -629.6009322509 Ry

     CASE: energy            _new < energy            _old

     new trust radius        =       0.1381160561 bohr
     new conv_thr            =       0.0000010000 Ry


ATOMIC_POSITIONS (angstrom)
C             4.6394585946        5.2326086780        6.4528099788
C             3.3431208013        1.6319266793       13.2695683435
C             3.3911547089        5.1726816573        8.5900671620
C             2.1718036835        5.2325237972        6.4503432123
C             4.6407069646        1.5807407559       18.1288780175
C             3.3400356378        5.1172843941       11.4039796794
C             3.3926493647        1.5999873814       15.9899979088
C             2.1775469761        1.5806905672       18.1320332655
C             3.3369996203        3.8919013327       12.0379477954
C             6.9545093074        5.2283668212        5.1678742453
C             3.3612364059        5.3478908640        9.8965792863
C             3.3375715254        6.3856393899       11.9865888261
C            -0.0738607298        3.9472546169        0.3118603180
C             3.4034244544        5.2202370715        7.1040413863
C            -0.1009837278        5.1924579719        2.4513405003
C            -0.0738229045        6.4125517630        0.3102580382
C            -0.0734498596        2.8646532713       24.2765354213
C             3.4068206479        1.5843243975       17.4619937682
C            -0.0978661810        1.6202523574       22.1377620842
C            -0.0734127721        0.4014142513       24.2790123650
C             3.3379511438        2.8147936544       12.6371650422
C            -0.1388371892        1.5843470942       19.4182678897
C             3.3649937288        1.6204572059       14.7442785924
C             3.3376416233        0.3829705258       12.6072082061
C             5.7234349945        1.5807458674       18.7531800850
C            -0.0790647000        5.1814383985        0.9770425762
C            -0.1248508432        1.6002393802       20.8909040231
C             1.0912856811        1.5807070785       18.7504531663
C             5.7272253466        5.2320790937        5.8294630077
C            -0.0777303907        1.6310936327       23.6092068257
C            -0.1283940871        5.2133979020        3.6965919754
C             1.0801650581        5.2320619870        5.8326203174
O             3.3685371161        6.6532801606        9.6501466906



     Writing config-only to output data dir ./pwscf.save/
     NEW-OLD atomic charge density approx. for the potential

     Check: negative core charge=   -0.000003

     negative rho (up, down):  5.721E-05 5.721E-05
     Generating pointlists ...
     new r_m :   0.0772 (alat units)  1.0356 (a.u.) for type    2

     total cpu time spent up to now is      384.3 secs

     Self-consistent Calculation

     iteration #  1     ecut=    50.00 Ry     beta= 0.30
     Davidson diagonalization with overlap
     ethr =  1.00E-06,  avg # of iterations = 14.0

     negative rho (up, down):  5.657E-05 5.657E-05

     total cpu time spent up to now is      398.0 secs

     total energy              =    -629.61694248 Ry
     estimated scf accuracy    <       0.03324275 Ry

     total magnetization       =     0.00 Bohr mag/cell
     absolute magnetization    =     0.00 Bohr mag/cell

     iteration #  2     ecut=    50.00 Ry     beta= 0.30
     Davidson diagonalization with overlap
     ethr =  2.48E-05,  avg # of iterations =  3.0

     negative rho (up, down):  5.639E-05 5.639E-05

     total cpu time spent up to now is      405.0 secs

     total energy              =    -629.62108643 Ry
     estimated scf accuracy    <       0.00633014 Ry

     total magnetization       =     0.00 Bohr mag/cell
     absolute magnetization    =     0.00 Bohr mag/cell

     iteration #  3     ecut=    50.00 Ry     beta= 0.30
     Davidson diagonalization with overlap
     ethr =  4.72E-06,  avg # of iterations =  2.0

     negative rho (up, down):  5.632E-05 5.632E-05

     total cpu time spent up to now is      411.9 secs

     total energy              =    -629.62128450 Ry
     estimated scf accuracy    <       0.00187484 Ry

     total magnetization       =    -0.00 Bohr mag/cell
     absolute magnetization    =     0.00 Bohr mag/cell

     iteration #  4     ecut=    50.00 Ry     beta= 0.30
     Davidson diagonalization with overlap
     ethr =  1.40E-06,  avg # of iterations =  2.0

     negative rho (up, down):  5.732E-05 5.731E-05

     total cpu time spent up to now is      418.6 secs

     total energy              =    -629.62112696 Ry
     estimated scf accuracy    <       0.00069682 Ry

     total magnetization       =    -0.00 Bohr mag/cell
     absolute magnetization    =     0.00 Bohr mag/cell

     iteration #  5     ecut=    50.00 Ry     beta= 0.30
     Davidson diagonalization with overlap
     ethr =  5.20E-07,  avg # of iterations =  2.0

     negative rho (up, down):  5.737E-05 5.736E-05

     total cpu time spent up to now is      425.5 secs

     total energy              =    -629.62117430 Ry
     estimated scf accuracy    <       0.00006880 Ry

     total magnetization       =     0.00 Bohr mag/cell
     absolute magnetization    =     0.00 Bohr mag/cell

     iteration #  6     ecut=    50.00 Ry     beta= 0.30
     Davidson diagonalization with overlap
     ethr =  5.13E-08,  avg # of iterations =  4.0

     negative rho (up, down):  5.729E-05 5.728E-05

     total cpu time spent up to now is      432.6 secs

     total energy              =    -629.62117591 Ry
     estimated scf accuracy    <       0.00002152 Ry

     total magnetization       =     0.00 Bohr mag/cell
     absolute magnetization    =     0.00 Bohr mag/cell

     iteration #  7     ecut=    50.00 Ry     beta= 0.30
     Davidson diagonalization with overlap
     ethr =  1.61E-08,  avg # of iterations =  3.0

     negative rho (up, down):  5.707E-05 5.707E-05

     total cpu time spent up to now is      439.5 secs

     total energy              =    -629.62117851 Ry
     estimated scf accuracy    <       0.00000434 Ry

     total magnetization       =    -0.00 Bohr mag/cell
     absolute magnetization    =     0.00 Bohr mag/cell

     iteration #  8     ecut=    50.00 Ry     beta= 0.30
     Davidson diagonalization with overlap
     ethr =  3.24E-09,  avg # of iterations =  4.0

     negative rho (up, down):  5.672E-05 5.672E-05

     Magnetic moment per site  (integrated on atomic sphere of radius R)
     atom   1 (R=0.071)  charge=  1.1772  magn= -0.0000
     atom   2 (R=0.071)  charge=  1.1600  magn=  0.0000
     atom   3 (R=0.071)  charge=  1.1278  magn= -0.0000
     atom   4 (R=0.071)  charge=  1.1770  magn= -0.0000
     atom   5 (R=0.071)  charge=  1.1798  magn=  0.0000
     atom   6 (R=0.071)  charge=  1.1517  magn= -0.0000
     atom   7 (R=0.071)  charge=  1.1632  magn=  0.0000
     atom   8 (R=0.071)  charge=  1.1793  magn=  0.0000
     atom   9 (R=0.071)  charge=  1.1959  magn= -0.0000
     atom  10 (R=0.071)  charge=  1.1472  magn= -0.0000
     atom  11 (R=0.071)  charge=  1.1535  magn=  0.0000
     atom  12 (R=0.071)  charge=  1.1750  magn=  0.0000
     atom  13 (R=0.071)  charge=  1.1808  magn= -0.0000
     atom  14 (R=0.071)  charge=  1.1408  magn=  0.0000
     atom  15 (R=0.071)  charge=  1.1618  magn= -0.0000
     atom  16 (R=0.071)  charge=  1.1796  magn= -0.0000
     atom  17 (R=0.071)  charge=  1.1790  magn=  0.0000
     atom  18 (R=0.071)  charge=  1.1428  magn= -0.0000
     atom  19 (R=0.071)  charge=  1.1619  magn=  0.0000
     atom  20 (R=0.071)  charge=  1.1807  magn=  0.0000
     atom  21 (R=0.071)  charge=  1.2130  magn=  0.0000
     atom  22 (R=0.071)  charge=  1.1430  magn= -0.0000
     atom  23 (R=0.071)  charge=  1.1611  magn= -0.0000
     atom  24 (R=0.071)  charge=  1.1711  magn= -0.0000
     atom  25 (R=0.071)  charge=  1.1784  magn= -0.0000
     atom  26 (R=0.071)  charge=  1.1424  magn=  0.0000
     atom  27 (R=0.071)  charge=  1.1606  magn= -0.0000
     atom  28 (R=0.071)  charge=  1.1807  magn=  0.0000
     atom  29 (R=0.071)  charge=  1.1795  magn=  0.0000
     atom  30 (R=0.071)  charge=  1.1424  magn= -0.0000
     atom  31 (R=0.071)  charge=  1.1637  magn=  0.0000
     atom  32 (R=0.071)  charge=  1.1809  magn=  0.0000
     atom  33 (R=0.077)  charge=  3.4174  magn=  0.0000

     total cpu time spent up to now is      446.2 secs

     End of self-consistent calculation

 ------ SPIN UP ------------


          k = 0.0000 0.0000 0.0000 ( 24951 PWs)   bands (ev):

   -23.9418 -19.4501 -19.3589 -19.2785 -19.1789 -18.6962 -18.5651 -18.4026
   -18.1652 -17.0761 -17.0527 -16.9565 -16.9322 -16.6635 -16.4067 -16.1153
   -15.4985 -15.0555 -14.6710 -14.5563 -14.2683 -12.9049 -12.8024 -12.7958
   -12.7082 -12.3245 -11.9608 -11.9441 -11.4803 -11.1089 -10.9330 -10.8507
   -10.8160 -10.7554 -10.5685 -10.4517 -10.2522  -8.2171  -8.1107  -8.0283
    -7.9348  -7.7936  -7.3958  -6.6891  -6.6715  -6.5966  -5.8470  -5.6005
    -5.5249  -5.4958  -5.4387  -5.4076  -5.3899  -5.3390  -5.3143  -5.2940
    -5.2514  -5.2116  -5.0612  -4.8533  -4.7411  -4.6910  -4.2643  -4.1669
    -4.0128  -3.9276  -2.5238  -1.3249  -0.9325  -0.8183  -0.6876   0.1836
     0.3932   0.4288   0.5850   0.8928   1.2296   1.2992   1.5198   1.5661

 ------ SPIN DOWN ----------


          k = 0.0000 0.0000 0.0000 ( 24951 PWs)   bands (ev):

   -23.9418 -19.4501 -19.3589 -19.2785 -19.1789 -18.6962 -18.5651 -18.4026
   -18.1652 -17.0761 -17.0527 -16.9565 -16.9322 -16.6635 -16.4067 -16.1153
   -15.4985 -15.0555 -14.6710 -14.5563 -14.2683 -12.9049 -12.8024 -12.7958
   -12.7082 -12.3245 -11.9608 -11.9441 -11.4803 -11.1089 -10.9330 -10.8507
   -10.8160 -10.7554 -10.5685 -10.4517 -10.2522  -8.2171  -8.1107  -8.0283
    -7.9348  -7.7936  -7.3958  -6.6891  -6.6715  -6.5966  -5.8470  -5.6005
    -5.5249  -5.4958  -5.4387  -5.4076  -5.3899  -5.3390  -5.3143  -5.2940
    -5.2514  -5.2116  -5.0612  -4.8533  -4.7411  -4.6910  -4.2643  -4.1669
    -4.0128  -3.9276  -2.5238  -1.3249  -0.9325  -0.8183  -0.6876   0.1836
     0.3932   0.4288   0.5850   0.8928   1.2296   1.2992   1.5200   1.5660

     the spin up/dw Fermi energies are    -1.6122   -1.6122 ev

!    total energy              =    -629.62117887 Ry
     total all-electron energy =     -2586.919202 Ry
     estimated scf accuracy    <       0.00000069 Ry
     smearing contrib. (-TS)   =      -0.00000000 Ry
     internal energy E=F+TS    =    -629.62117887 Ry

     The total energy is F=E-TS. E is the sum of the following terms:
     one-electron contribution =    -779.50868569 Ry
     hartree contribution      =     416.07732673 Ry
     xc contribution           =    -152.26066194 Ry
     ewald contribution        =      92.98644180 Ry
     one-center paw contrib.   =    -206.91559978 Ry

     total magnetization       =     0.00 Bohr mag/cell
     absolute magnetization    =     0.00 Bohr mag/cell

     convergence has been achieved in   8 iterations

     negative rho (up, down):  5.672E-05 5.672E-05

     Forces acting on atoms (cartesian axes, Ry/au):

     atom    1 type  1   force =     0.02020827   -0.00157367   -0.02129938
     atom    2 type  1   force =     0.00121828   -0.09798227    0.05003769
     atom    3 type  1   force =     0.00157294   -0.01155589   -0.04034377
     atom    4 type  1   force =    -0.02400839   -0.00158875   -0.02372620
     atom    5 type  1   force =     0.00203175    0.00033466    0.00851606
     atom    6 type  1   force =     0.00102830   -0.01923735   -0.02884443
     atom    7 type  1   force =    -0.00102227    0.00076121   -0.04444262
     atom    8 type  1   force =    -0.00497003    0.00031355    0.01057097
     atom    9 type  1   force =     0.00024160    0.04581141   -0.01526684
     atom   10 type  1   force =    -0.00124489   -0.00049840   -0.02038238
     atom   11 type  1   force =    -0.00116799    0.02238037    0.03400444
     atom   12 type  1   force =    -0.00000022    0.02121793    0.05873688
     atom   13 type  1   force =    -0.00043467   -0.00060118   -0.00751042
     atom   14 type  1   force =     0.00098560   -0.01145724    0.04657407
     atom   15 type  1   force =    -0.00079525    0.00066304    0.04005248
     atom   16 type  1   force =    -0.00041663    0.00452202   -0.01015537
     atom   17 type  1   force =    -0.00042086    0.00054262    0.00770062
     atom   18 type  1   force =     0.00140653    0.00084378   -0.01313105
     atom   19 type  1   force =    -0.00101825   -0.00066875   -0.04740316
     atom   20 type  1   force =    -0.00039753   -0.00450029    0.01042406
     atom   21 type  1   force =     0.00006359    0.03569327   -0.02589585
     atom   22 type  1   force =    -0.00144891    0.00070854    0.01320132
     atom   23 type  1   force =     0.00101076   -0.00482939    0.04902677
     atom   24 type  1   force =     0.00049453   -0.01629783   -0.01124177
     atom   25 type  1   force =    -0.00221264    0.00033722   -0.00844034
     atom   26 type  1   force =    -0.00095469   -0.00093519    0.01440837
     atom   27 type  1   force =     0.00102555    0.00064413    0.04698099
     atom   28 type  1   force =     0.00508768    0.00031387   -0.01070379
     atom   29 type  1   force =    -0.02489071   -0.00044769    0.01910936
     atom   30 type  1   force =    -0.00094168    0.00114318   -0.01255102
     atom   31 type  1   force =     0.00096467    0.00038013   -0.04410364
     atom   32 type  1   force =     0.02829916   -0.00050704    0.02171376
     atom   33 type  2   force =     0.00070643    0.03607001   -0.04561584

     Total force =     0.222708     Total SCF correction =     0.001250
     Energy error            =      2.0E-02 Ry
     Gradient error          =      9.8E-02 Ry/Bohr

     number of scf cycles    =   5
     number of bfgs steps    =   3

     energy             old  =    -629.6009322509 Ry
     energy             new  =    -629.6211788746 Ry

     CASE: energy            _new < energy            _old

     new trust radius        =       0.1300023339 bohr
     new conv_thr            =       0.0000009798 Ry


ATOMIC_POSITIONS (angstrom)
C             4.6437639348        5.2319147294        6.4418740265
C             3.3447794413        1.5860477531       13.2877655698
C             3.3922997677        5.1582752262        8.5887468512
C             2.1667324958        5.2318008205        6.4380756055
C             4.6388250206        1.5808795488       18.1333269785
C             3.3413395938        5.1375434689       11.3917194502
C             3.3925667489        1.5998105662       15.9758992469
C             2.1788650805        1.5808054135       18.1376334523
C             3.3368593045        3.8927899681       12.0496908492
C             6.9538877506        5.2272161763        5.1629985260
C             3.3600994496        5.4025565096        9.9110741846
C             3.3374757665        6.3784786365       12.0197557005
C            -0.0740839382        3.9492778521        0.3078838027
C             3.4037011304        5.2108401011        7.1152334427
C            -0.1008103958        5.1923893093        2.4635893790
C            -0.0740285965        6.4115603374        0.3049621116
C            -0.0735762134        2.8623363419       24.2808777475
C             3.4073952531        1.5855572603       17.4605525709
C            -0.0977739831        1.6202795479       22.1229775805
C            -0.0735183674        0.4030185684       24.2845099999
C             3.3380270412        2.7969435127       12.6431975012
[...]



     Writing config-only to output data dir ./pwscf.save/

     lsda relaxation :  a final configuration with zero
                        absolute magnetization has been found

     the program is checking if it is really the minimum energy structure
     by performing a new scf iteration without any "electronic" history

     Initial potential from superposition of free atoms

     starting charge     133.9987, renormalised to     134.0000

     negative rho (up, down):  1.285E-07 1.285E-07

     total cpu time spent up to now is     3773.8 secs

     Self-consistent Calculation

     iteration #  1     ecut=    50.00 Ry     beta= 0.30
     Davidson diagonalization with overlap
     c_bands:  2 eigenvalues not converged
     c_bands:  2 eigenvalues not converged
     ethr =  1.00E-06,  avg # of iterations = 20.0

     negative rho (up, down):  5.862E-07 5.862E-07

     total cpu time spent up to now is     3790.9 secs

     total energy              =    -629.89839784 Ry
     estimated scf accuracy    <       3.99825071 Ry

     total magnetization       =    -0.00 Bohr mag/cell
     absolute magnetization    =     0.03 Bohr mag/cell

     iteration #  2     ecut=    50.00 Ry     beta= 0.30
     Davidson diagonalization with overlap
     ethr =  2.98E-03,  avg # of iterations =  1.5

     negative rho (up, down):  4.136E-06 4.147E-06

     total cpu time spent up to now is     3797.4 secs

     total energy              =    -629.52001872 Ry
     estimated scf accuracy    <       1.18033084 Ry

     total magnetization       =    -0.00 Bohr mag/cell
     absolute magnetization    =     0.03 Bohr mag/cell

     iteration #  3     ecut=    50.00 Ry     beta= 0.30
     Davidson diagonalization with overlap
     ethr =  8.81E-04,  avg # of iterations =  2.0

     negative rho (up, down):  9.825E-06 9.856E-06

     total cpu time spent up to now is     3804.5 secs

     total energy              =    -629.62357236 Ry
     estimated scf accuracy    <       0.41737496 Ry

     total magnetization       =    -0.00 Bohr mag/cell
     absolute magnetization    =     0.02 Bohr mag/cell

     iteration #  4     ecut=    50.00 Ry     beta= 0.30
     Davidson diagonalization with overlap
     ethr =  3.11E-04,  avg # of iterations =  2.0

     negative rho (up, down):  1.618E-05 1.619E-05

     total cpu time spent up to now is     3811.0 secs

     total energy              =    -629.65430603 Ry
     estimated scf accuracy    <       0.03343217 Ry

     total magnetization       =     0.00 Bohr mag/cell
     absolute magnetization    =     0.02 Bohr mag/cell

     iteration #  5     ecut=    50.00 Ry     beta= 0.30
     Davidson diagonalization with overlap
     c_bands:  1 eigenvalues not converged
     c_bands:  1 eigenvalues not converged
     ethr =  2.49E-05,  avg # of iterations = 20.0

     negative rho (up, down):  2.431E-05 2.429E-05

     total cpu time spent up to now is     3820.1 secs

     total energy              =    -629.65782779 Ry
     estimated scf accuracy    <       0.01491639 Ry

     total magnetization       =     0.00 Bohr mag/cell
     absolute magnetization    =     0.01 Bohr mag/cell

     iteration #  6     ecut=    50.00 Ry     beta= 0.30
     Davidson diagonalization with overlap
     ethr =  1.11E-05,  avg # of iterations = 14.0

     negative rho (up, down):  3.524E-05 3.521E-05

     total cpu time spent up to now is     3827.6 secs

     total energy              =    -629.65805768 Ry
     estimated scf accuracy    <       0.00208153 Ry

     total magnetization       =     0.00 Bohr mag/cell
     absolute magnetization    =     0.01 Bohr mag/cell

     iteration #  7     ecut=    50.00 Ry     beta= 0.30
     Davidson diagonalization with overlap
     ethr =  1.55E-06,  avg # of iterations =  6.0

     negative rho (up, down):  5.036E-05 5.032E-05

     total cpu time spent up to now is     3834.9 secs

     total energy              =    -629.65785851 Ry
     estimated scf accuracy    <       0.00081799 Ry

     total magnetization       =     0.00 Bohr mag/cell
     absolute magnetization    =     0.01 Bohr mag/cell

     iteration #  8     ecut=    50.00 Ry     beta= 0.30
     Davidson diagonalization with overlap
     ethr =  6.10E-07,  avg # of iterations =  4.0

     negative rho (up, down):  5.196E-05 5.193E-05

     total cpu time spent up to now is     3841.8 secs

     total energy              =    -629.65789527 Ry
     estimated scf accuracy    <       0.00007312 Ry

     total magnetization       =     0.00 Bohr mag/cell
     absolute magnetization    =     0.01 Bohr mag/cell

     iteration #  9     ecut=    50.00 Ry     beta= 0.30
     Davidson diagonalization with overlap
     ethr =  5.46E-08,  avg # of iterations =  2.0

     negative rho (up, down):  5.302E-05 5.299E-05

     total cpu time spent up to now is     3848.9 secs

     total energy              =    -629.65787530 Ry
     estimated scf accuracy    <       0.00001131 Ry

     total magnetization       =    -0.00 Bohr mag/cell
     absolute magnetization    =     0.01 Bohr mag/cell

     iteration # 10     ecut=    50.00 Ry     beta= 0.30
     Davidson diagonalization with overlap
     ethr =  8.44E-09,  avg # of iterations =  4.0

     negative rho (up, down):  5.418E-05 5.417E-05

     total cpu time spent up to now is     3857.0 secs

     total energy              =    -629.65785388 Ry
     estimated scf accuracy    <       0.00000788 Ry

     total magnetization       =    -0.00 Bohr mag/cell
     absolute magnetization    =     0.00 Bohr mag/cell

     iteration # 11     ecut=    50.00 Ry     beta= 0.30
     Davidson diagonalization with overlap
     ethr =  5.88E-09,  avg # of iterations =  2.5

     negative rho (up, down):  5.430E-05 5.429E-05

     total cpu time spent up to now is     3864.2 secs

     total energy              =    -629.65785018 Ry
     estimated scf accuracy    <       0.00000165 Ry

     total magnetization       =    -0.00 Bohr mag/cell
     absolute magnetization    =     0.00 Bohr mag/cell

     iteration # 12     ecut=    50.00 Ry     beta= 0.30
     Davidson diagonalization with overlap
     ethr =  1.23E-09,  avg # of iterations =  2.0

     negative rho (up, down):  5.443E-05 5.443E-05

     total cpu time spent up to now is     3870.8 secs

     total energy              =    -629.65784673 Ry
     estimated scf accuracy    <       0.00000025 Ry

     total magnetization       =    -0.00 Bohr mag/cell
     absolute magnetization    =     0.00 Bohr mag/cell

     iteration # 13     ecut=    50.00 Ry     beta= 0.30
     Davidson diagonalization with overlap
     ethr =  1.86E-10,  avg # of iterations =  5.0

     negative rho (up, down):  5.445E-05 5.445E-05

     total cpu time spent up to now is     3878.2 secs

     total energy              =    -629.65784557 Ry
     estimated scf accuracy    <       0.00000004 Ry

     total magnetization       =    -0.00 Bohr mag/cell
     absolute magnetization    =     0.00 Bohr mag/cell

     iteration # 14     ecut=    50.00 Ry     beta= 0.30
     Davidson diagonalization with overlap
     ethr =  2.98E-11,  avg # of iterations =  4.5

     negative rho (up, down):  5.447E-05 5.447E-05

     total cpu time spent up to now is     3885.2 secs

     total energy              =    -629.65784476 Ry
     estimated scf accuracy    <       0.00000001 Ry

     total magnetization       =    -0.00 Bohr mag/cell
     absolute magnetization    =     0.00 Bohr mag/cell

     iteration # 15     ecut=    50.00 Ry     beta= 0.30
     Davidson diagonalization with overlap
     ethr =  7.54E-12,  avg # of iterations =  4.0

     negative rho (up, down):  5.443E-05 5.443E-05

     Magnetic moment per site  (integrated on atomic sphere of radius R)
     atom   1 (R=0.071)  charge=  1.1758  magn= -0.0000
     atom   2 (R=0.071)  charge=  1.1407  magn= -0.0000
     atom   3 (R=0.071)  charge=  1.1274  magn= -0.0000
     atom   4 (R=0.071)  charge=  1.1752  magn= -0.0000
     atom   5 (R=0.071)  charge=  1.1791  magn= -0.0000
     atom   6 (R=0.071)  charge=  1.1419  magn=  0.0000
     atom   7 (R=0.071)  charge=  1.1715  magn= -0.0000
     atom   8 (R=0.071)  charge=  1.1780  magn=  0.0000
     atom   9 (R=0.071)  charge=  1.1795  magn= -0.0000
     atom  10 (R=0.071)  charge=  1.1394  magn= -0.0000
     atom  11 (R=0.071)  charge=  1.1423  magn= -0.0000
     atom  12 (R=0.071)  charge=  1.1802  magn= -0.0000
     atom  13 (R=0.071)  charge=  1.1800  magn=  0.0000
     atom  14 (R=0.071)  charge=  1.1385  magn=  0.0000
     atom  15 (R=0.071)  charge=  1.1713  magn= -0.0000
     atom  16 (R=0.071)  charge=  1.1796  magn= -0.0000
     atom  17 (R=0.071)  charge=  1.1798  magn= -0.0000
     atom  18 (R=0.071)  charge=  1.1407  magn=  0.0000
     atom  19 (R=0.071)  charge=  1.1723  magn=  0.0000
     atom  20 (R=0.071)  charge=  1.1789  magn=  0.0000
     atom  21 (R=0.071)  charge=  1.1781  magn=  0.0000
     atom  22 (R=0.071)  charge=  1.1416  magn= -0.0000
     atom  23 (R=0.071)  charge=  1.1711  magn=  0.0000
     atom  24 (R=0.071)  charge=  1.1805  magn=  0.0000
     atom  25 (R=0.071)  charge=  1.1788  magn=  0.0000
     atom  26 (R=0.071)  charge=  1.1407  magn= -0.0000
     atom  27 (R=0.071)  charge=  1.1714  magn= -0.0000
     atom  28 (R=0.071)  charge=  1.1796  magn= -0.0000
     atom  29 (R=0.071)  charge=  1.1802  magn=  0.0000
     atom  30 (R=0.071)  charge=  1.1400  magn=  0.0000
     atom  31 (R=0.071)  charge=  1.1723  magn=  0.0000
     atom  32 (R=0.071)  charge=  1.1816  magn=  0.0000
     atom  33 (R=0.076)  charge=  3.3529  magn=  0.0000

     total cpu time spent up to now is     3892.7 secs

     End of self-consistent calculation

 ------ SPIN UP ------------


          k = 0.0000 0.0000 0.0000 ( 24951 PWs)   bands (ev):

   -23.6262 -19.4687 -19.3629 -19.2530 -19.0090 -18.7320 -18.5565 -18.4080
   -18.0536 -17.1094 -17.0890 -16.9450 -16.7994 -16.7711 -16.4867 -16.1915
   -15.6131 -15.0784 -14.6580 -14.5801 -14.2063 -12.7819 -12.7700 -12.6345
   -12.5409 -12.3803 -12.0224 -11.9537 -11.5019 -11.0477 -10.8352 -10.8296
   -10.7473 -10.6834 -10.6262 -10.4318 -10.2295  -8.1111  -8.0693  -8.0090
    -7.9337  -7.9231  -7.2336  -6.7612  -6.7082  -6.6170  -5.8388  -5.6683
    -5.5851  -5.4795  -5.4483  -5.4419  -5.4276  -5.4120  -5.3126  -5.2841
    -5.1691  -5.1122  -5.0560  -4.8314  -4.7743  -4.6871  -4.2625  -4.2416
    -4.0669  -3.9739  -2.6093  -1.7209  -0.9784  -0.8283  -0.7145   0.1999
     0.3611   0.4579   0.5470   0.7456   1.2655   1.2702   1.5301   1.5601

 ------ SPIN DOWN ----------


          k = 0.0000 0.0000 0.0000 ( 24951 PWs)   bands (ev):

   -23.6262 -19.4687 -19.3629 -19.2530 -19.0090 -18.7320 -18.5565 -18.4080
   -18.0536 -17.1094 -17.0890 -16.9450 -16.7994 -16.7711 -16.4867 -16.1915
   -15.6131 -15.0784 -14.6580 -14.5801 -14.2063 -12.7819 -12.7700 -12.6345
   -12.5409 -12.3803 -12.0224 -11.9537 -11.5019 -11.0477 -10.8352 -10.8296
   -10.7473 -10.6834 -10.6262 -10.4318 -10.2294  -8.1111  -8.0693  -8.0090
    -7.9337  -7.9231  -7.2336  -6.7613  -6.7082  -6.6170  -5.8388  -5.6683
    -5.5851  -5.4795  -5.4483  -5.4419  -5.4276  -5.4120  -5.3126  -5.2841
    -5.1691  -5.1122  -5.0561  -4.8314  -4.7743  -4.6871  -4.2626  -4.2415
    -4.0669  -3.9739  -2.6093  -1.7210  -0.9784  -0.8283  -0.7146   0.1999
     0.3611   0.4579   0.5470   0.7456   1.2655   1.2702   1.5301   1.5600

     the spin up/dw Fermi energies are    -2.3659   -2.3659 ev

!    total energy              =    -629.65784449 Ry
     total all-electron energy =     -2586.955867 Ry
     estimated scf accuracy    <          2.4E-09 Ry
     smearing contrib. (-TS)   =      -0.00000000 Ry
     internal energy E=F+TS    =    -629.65784449 Ry

     The total energy is F=E-TS. E is the sum of the following terms:
     one-electron contribution =    -771.43539925 Ry
     hartree contribution      =     412.02443653 Ry
     xc contribution           =    -152.16489434 Ry
     ewald contribution        =      88.83003760 Ry
     one-center paw contrib.   =    -206.91202502 Ry

     total magnetization       =    -0.00 Bohr mag/cell
     absolute magnetization    =     0.00 Bohr mag/cell

     convergence has been achieved in  15 iterations

     negative rho (up, down):  5.443E-05 5.443E-05

     Forces acting on atoms (cartesian axes, Ry/au):

     atom    1 type  1   force =     0.00050369    0.00028037    0.00032260
     atom    2 type  1   force =    -0.00002857   -0.00009089    0.00015257
     atom    3 type  1   force =     0.00010667    0.00092539   -0.00074273
     atom    4 type  1   force =    -0.00002676    0.00030068    0.00061195
     atom    5 type  1   force =     0.00006745    0.00017960    0.00001302
     atom    6 type  1   force =    -0.00001372   -0.00035266   -0.00001968
     atom    7 type  1   force =    -0.00000494    0.00055919   -0.00018991
     atom    8 type  1   force =     0.00025043    0.00016394   -0.00011797
     atom    9 type  1   force =     0.00005115   -0.00031821   -0.00035214
     atom   10 type  1   force =     0.00011724   -0.00031686    0.00011335
     atom   11 type  1   force =    -0.00002874    0.00021024   -0.00002259
     atom   12 type  1   force =     0.00005029   -0.00008798    0.00005707
     atom   13 type  1   force =    -0.00002052    0.00003077   -0.00018415
     atom   14 type  1   force =    -0.00002963    0.00032310   -0.00027297
     atom   15 type  1   force =    -0.00003608   -0.00008547    0.00068909
     atom   16 type  1   force =    -0.00002594   -0.00080688   -0.00031848
     atom   17 type  1   force =    -0.00002477    0.00014849   -0.00014892
     atom   18 type  1   force =    -0.00005840    0.00009078   -0.00020427
     atom   19 type  1   force =    -0.00003307   -0.00041719    0.00029953
     atom   20 type  1   force =    -0.00003297   -0.00057372   -0.00020018
     atom   21 type  1   force =     0.00005361   -0.00011687    0.00030669
     atom   22 type  1   force =     0.00002273    0.00009895   -0.00001947
     atom   23 type  1   force =     0.00005992    0.00019872    0.00006857
     atom   24 type  1   force =     0.00003601   -0.00004421   -0.00035795
     atom   25 type  1   force =    -0.00010365    0.00025708   -0.00014909
     atom   26 type  1   force =     0.00004220   -0.00026001    0.00038376
     atom   27 type  1   force =     0.00002783   -0.00011707    0.00006198
     atom   28 type  1   force =    -0.00010243    0.00025767    0.00001405
     atom   29 type  1   force =     0.00003055   -0.00016085    0.00016853
     atom   30 type  1   force =     0.00006314   -0.00030124    0.00020165
     atom   31 type  1   force =     0.00000231   -0.00000119    0.00000631
     atom   32 type  1   force =    -0.00054683   -0.00014877   -0.00010527
     atom   33 type  2   force =    -0.00036820    0.00017511   -0.00006491

     Total force =     0.002640     Total SCF correction =     0.000053
     Energy error            =      1.1E-05 Ry
     Gradient error          =      9.3E-04 Ry/Bohr

     bfgs converged in  50 scf cycles and  46 bfgs steps
     (criteria: energy <  1.0E-04 Ry, force <  1.0E-03 Ry/Bohr)

     End of BFGS Geometry Optimization

     Final energy             =    -629.6578444853 Ry

     File ./pwscf.bfgs deleted, as requested
Begin final coordinates

ATOMIC_POSITIONS (angstrom)
C             4.6420323957        5.0003073504        6.4499302192
C             3.4066527538        1.7106598545       13.3008088710
C             3.4068940602        5.0848128483        8.5904415281
C             2.1802008239        5.0061070253        6.4480911757
C             4.6313986888        1.6620287965       18.1562269524
C             3.4059426062        5.2591774109       11.3510017959
C             3.4056797165        1.6984941564       16.0037686511
C             2.1761031179        1.6621850594       18.1545618964
C             3.4083911825        4.0016253562       11.9571592891
C             6.9591063757        5.0417951782        5.1585073689
C             3.3909784493        5.5607557906        9.8453685122
C             3.4052384812        6.4492804046       12.0903785156
C            -0.1376880214        3.9391061740        0.3034777069
C             3.4108915184        5.0043049921        7.1413931674
C            -0.1370486476        5.1326720425        2.4597666533
C            -0.1374837029        6.3985130988        0.3215232513
C            -0.1381938797        2.8441546811       24.2920827642
C             3.4043022875        1.6737798505       17.4725777825
C            -0.1405799892        1.6200144265       22.1427046008
C            -0.1379599384        0.3906772396       24.2984084830
C             3.4073774734        2.9234311820       12.5903311268
C            -0.1442216806        1.6445730140       19.4409025000
C             3.4069047758        1.7227582874       14.7714811944
C             3.4051969337        0.4661151593       12.6548938418
C             5.7232682072        1.6527087346       18.7619759694
C            -0.1373679536        5.1632415628        0.9906089670
C            -0.1425448070        1.6299023295       20.9104316688
C             1.0842096980        1.6528044838       18.7600765475
C             5.7299782233        5.0178044636        5.8393178127
C            -0.1389104833        1.6162468033       23.6114212862
C            -0.1375779809        5.0849461726        3.6919300995
C             1.0915266346        5.0279526022        5.8394858397
O             3.3333026811        6.8100634686        9.4349639611
End final coordinates



     Writing all to output data dir ./pwscf.save/

     init_run     :      9.94s CPU     10.71s WALL (       1 calls)
     electrons    :   3117.06s CPU   3152.70s WALL (      51 calls)
     update_pot   :    329.28s CPU    330.17s WALL (      49 calls)
     forces       :    291.52s CPU    298.75s WALL (      51 calls)

     Called by init_run:
     wfcinit      :      2.13s CPU      2.16s WALL (       1 calls)
     potinit      :      7.69s CPU      8.02s WALL (       2 calls)
     hinit0       :      3.18s CPU      3.53s WALL (       1 calls)

     Called by electrons:
     c_bands      :   1525.58s CPU   1536.59s WALL (     433 calls)
     sum_band     :    530.74s CPU    536.63s WALL (     433 calls)
     v_of_rho     :    479.04s CPU    485.43s WALL (     470 calls)
     newd         :    156.12s CPU    158.15s WALL (     470 calls)
     PAW_pot      :    447.01s CPU    447.26s WALL (     519 calls)
     mix_rho      :     71.16s CPU     72.32s WALL (     433 calls)

     Called by c_bands:
     init_us_2    :     14.98s CPU     15.27s WALL (    1934 calls)
     init_us_2:cp :     14.93s CPU     15.24s WALL (    1934 calls)
     regterg      :   1491.52s CPU   1501.94s WALL (     866 calls)

     Called by *egterg:
     rdiaghg      :     57.99s CPU     58.15s WALL (    3755 calls)
     h_psi        :   1191.49s CPU   1200.23s WALL (    3885 calls)
     s_psi        :     54.64s CPU     54.74s WALL (    3885 calls)
     g_psi        :      2.87s CPU      2.91s WALL (    3017 calls)

     Called by h_psi:
     h_psi:calbec :     57.78s CPU     58.02s WALL (    3885 calls)
     vloc_psi     :   1065.14s CPU   1073.47s WALL (    3885 calls)
     add_vuspsi   :     61.11s CPU     61.22s WALL (    3885 calls)

     General routines
     calbec       :     88.11s CPU     88.43s WALL (    5257 calls)
     fft          :    380.44s CPU    390.28s WALL (   10353 calls)
     ffts         :     21.04s CPU     21.88s WALL (    1806 calls)
     fftw         :   1061.54s CPU   1069.27s WALL (  209520 calls)
     interpolate  :     49.95s CPU     50.90s WALL (     940 calls)

     Parallel routines

     PWSCF        :      1h 4m CPU      1h 4m WALL


   This run was terminated on:  22:11: 3   6May2025            

=------------------------------------------------------------------------------=
   JOB DONE.
=------------------------------------------------------------------------------=
