ITEM: TIMESTEP
0
ITEM: NUMBER OF ATOMS
161
ITEM: BOX BOUNDS xy xz yz pp pp pp
-6.7755000000000001e+00 1.3552000000000000e+01 -6.7755000000000001e+00
0.0000000000000000e+00 1.1735510246683001e+01 0.0000000000000000e+00
0.0000000000000000e+00 2.2149999999999999e+01 0.0000000000000000e+00
ITEM: ATOMS id type x y z 
8 1 -2.486 5.297 9.849 
87 1 3.001 4.231 10.696 
90 1 2.733 5.481 9.824 
109 1 -2.486 5.297 0.765 
158 1 2.733 5.481 0.79 
11 1 4.24 4.139 20.131 
14 1 3.031 4.094 19.728 
18 1 1.299 5.827 18.554 
33 1 2.266 4.151 20.924 
43 1 4.343 3.96 21.647 
47 1 3.32 5.732 17.88 
52 1 4.24 4.139 12.633 
76 1 2.552 4.924 14.209 
85 1 4.343 3.96 11.117 
89 1 3.32 5.732 14.883 
91 1 1.036 5.037 11.84 
102 1 3.031 4.094 13.035 
105 1 1.299 5.827 14.209 
114 1 2.266 4.151 11.84 
150 1 2.552 4.924 18.554 
156 1 3.001 4.231 22.068 
159 1 1.036 5.037 20.924 
5 1 -5.049 10.63 8.653 
9 1 -3.317 8.897 7.479 
19 1 -1.707 7.414 10.572 
21 1 -2.66 8.795 10.993 
23 1 -3.31 7.532 6.805 
25 1 -4.284 10.573 9.849 
32 1 1.503 6.367 0.79 
36 1 -1.869 7.426 9.056 
38 1 -2.209 6.086 8.653 
54 1 0.3 8.576 10.696 
57 1 1.291 8.001 9.824 
60 1 -1.707 7.414 0.042 
65 1 -3.31 7.532 3.808 
78 1 -1.869 7.426 1.558 
80 1 -2.566 8.842 1.961 
84 1 -4.57 9.799 3.135 
99 1 -3.054 9.687 0.765 
100 1 -2.96 6.142 3.135 
107 1 -5.049 10.63 1.961 
110 1 -3.317 8.897 3.135 
111 1 0.642 5.929 10.696 
113 1 1.503 6.367 9.824 
119 1 -4.284 10.573 0.765 
127 1 -2.209 6.086 1.961 
131 1 -2.318 6.148 10.993 
138 1 1.291 8.001 0.79 
142 1 -2.566 8.842 8.653 
145 1 -4.57 9.799 7.479 
151 1 -5.019 10.493 10.993 
154 1 -3.054 9.687 9.849 
155 1 -2.96 6.142 7.479 
12 1 2.53 7.1 17.202 
17 1 0.468 9.427 20.924 
24 1 -3.52 8.357 11.865 
27 1 -0.31 7.31 21.647 
29 1 0.642 5.929 22.068 
31 1 1.292 7.192 17.88 
44 1 -0.148 7.298 20.131 
46 1 0.191 8.638 19.728 
51 1 -0.31 7.31 11.117 
53 1 2.53 7.1 15.561 
56 1 1.292 7.192 14.883 
63 1 -2.318 6.148 21.771 
66 1 -3.309 6.723 20.899 
70 1 -0.148 7.298 12.633 
72 1 0.548 5.882 13.035 
92 1 0.942 8.582 14.209 
95 1 -5.019 10.493 21.771 
98 1 -4.751 9.243 20.899 
104 1 0.468 9.427 11.84 
116 1 -2.66 8.795 21.771 
118 1 -3.52 8.357 20.899 
122 1 0.191 8.638 13.035 
133 1 -3.309 6.723 11.865 
136 1 0.3 8.576 22.068 
147 1 0.548 5.882 19.728 
153 1 -4.751 9.243 11.865 
160 1 0.942 8.582 18.554 
1 1 7.976 4.694 10.572 
4 1 9.274 4.77 10.993 
20 1 8.034 4.861 9.056 
42 1 9.55 5.41 7.479 
67 1 10.043 4.578 0.765 
77 1 7.976 4.694 0.042 
94 1 8.035 4.861 1.558 
96 1 9.278 4.635 1.961 
121 1 4.688 5.417 10.696 
130 1 9.55 5.41 3.135 
134 1 10.043 4.578 9.849 
152 1 9.278 4.635 8.653 
45 1 4.688 5.417 22.068 
55 1 4.788 5.329 13.035 
106 1 9.274 4.77 21.771 
137 1 4.788 5.329 19.728 
2 1 7.294 10.585 9.056 
3 1 9.004 7.624 6.127 
6 1 8.556 6.347 6.805 
16 1 2.314 8.72 0.79 
22 1 7.166 6.156 8.653 
26 1 7.226 8.565 7.479 
35 1 7.191 10.764 10.572 
37 1 6.846 9.307 10.993 
39 1 8.214 8.992 6.805 
41 1 6.677 7.002 9.849 
48 1 3.775 6.213 0.79 
61 1 7.294 10.585 1.558 
62 1 9.004 7.624 4.487 
64 1 6.747 9.395 1.961 
68 1 7.437 6.931 3.135 
71 1 4.29 8.493 10.696 
74 1 3.567 7.818 9.824 
81 1 8.556 6.347 3.808 
83 1 6.47 8.606 0.765 
93 1 7.191 10.764 0.042 
97 1 8.214 8.992 3.808 
101 1 2.261 9.954 10.696 
103 1 2.314 8.72 9.824 
117 1 7.166 6.156 1.961 
120 1 7.226 8.565 3.135 
123 1 3.775 6.213 9.824 
129 1 6.677 7.002 0.765 
132 1 6.747 9.395 8.653 
135 1 7.437 6.931 7.479 
141 1 7.244 6.231 10.993 
144 1 6.47 8.606 9.849 
148 1 3.567 7.818 0.79 
7 1 9.22 6.004 11.865 
10 1 3.558 10.029 21.647 
13 1 2.261 9.954 22.068 
15 1 2.978 8.376 17.88 
28 1 3.5 9.862 20.131 
30 1 4.369 8.568 19.728 
34 1 4.308 6.159 18.554 
40 1 7.76 8.511 11.865 
49 1 4.857 7.722 20.924 
50 1 1.984 9.314 18.554 
58 1 1.491 10.146 11.84 
59 1 4.097 7.793 14.209 
69 1 3.558 10.029 11.117 
73 1 2.978 8.376 14.883 
75 1 5.064 6.118 11.84 
79 1 7.244 6.231 21.771 
82 1 7.967 6.906 20.899 
86 1 3.5 9.862 12.633 
88 1 2.256 10.089 13.035 
108 1 9.22 6.004 20.899 
112 1 4.369 8.568 13.035 
115 1 4.308 6.159 14.209 
124 1 4.857 7.722 11.84 
125 1 1.984 9.314 14.209 
126 1 6.846 9.307 21.771 
128 1 7.76 8.511 20.899 
139 1 1.491 10.146 20.924 
140 1 4.097 7.793 18.554 
143 1 7.967 6.906 11.865 
146 1 4.29 8.493 22.068 
149 1 5.064 6.118 20.924 
157 1 2.256 10.089 19.728 
161 2 2.256 11.189 13.035 
ITEM: TIMESTEP
10
ITEM: NUMBER OF ATOMS
161
ITEM: BOX BOUNDS xy xz yz pp pp pp
-6.7755000000000001e+00 1.3552000000000000e+01 -6.7755000000000001e+00
0.0000000000000000e+00 1.1735510246683001e+01 0.0000000000000000e+00
0.0000000000000000e+00 2.2149999999999999e+01 0.0000000000000000e+00
ITEM: ATOMS id type x y z 
8 1 -2.42443 5.35548 9.83055 
87 1 2.98578 4.26838 10.6533 
90 1 2.65552 5.44933 9.75567 
109 1 -2.42253 5.34564 0.796248 
158 1 2.65701 5.45015 0.840634 
11 1 4.27668 4.2149 20.1348 
14 1 2.93302 4.13324 19.7033 
18 1 1.31172 5.86137 18.6101 
33 1 2.14472 4.22858 20.9099 
43 1 4.294 4.17014 21.5627 
47 1 3.255 5.79525 17.8388 
52 1 4.29897 4.19936 12.6447 
76 1 2.43458 4.89725 14.1887 
85 1 4.30986 4.13648 11.1889 
89 1 3.25448 5.79107 14.9388 
91 1 0.967877 5.10001 11.851 
102 1 2.90255 4.1226 13.0654 
105 1 1.30253 5.84369 14.1647 
114 1 2.10941 4.25296 11.8523 
150 1 2.4169 4.91826 18.5748 
156 1 2.99046 4.27882 22.1116 
159 1 0.969074 5.07022 20.9031 
5 1 -4.92856 10.6278 8.62049 
9 1 -3.3366 8.86748 7.51821 
19 1 -1.75001 7.53356 10.5494 
21 1 -2.60825 8.77332 10.9332 
23 1 -3.28564 7.53518 6.81724 
25 1 -4.11278 10.4676 9.85251 
32 1 1.59221 6.35875 0.760457 
36 1 -1.89956 7.55447 9.05227 
38 1 -2.14781 6.21705 8.64013 
54 1 0.306702 8.48934 10.651 
57 1 1.36853 8.00888 9.77747 
60 1 -1.74816 7.55094 0.0719596 
65 1 -3.29172 7.53426 3.8017 
78 1 -1.89391 7.55528 1.56443 
80 1 -2.5559 8.78526 1.89722 
84 1 -4.45488 9.84501 3.1093 
99 1 -2.98786 9.63215 0.787071 
100 1 -2.92714 6.23101 3.1769 
107 1 -4.94101 10.6007 1.96942 
110 1 -3.31885 8.87351 3.09222 
111 1 0.609068 5.97271 10.7439 
113 1 1.58471 6.34312 9.84111 
119 1 -4.13913 10.4702 0.776023 
127 1 -2.14747 6.21417 1.97925 
131 1 -2.31521 6.19405 11.0337 
138 1 1.39598 7.98971 0.841752 
142 1 -2.56039 8.78911 8.70891 
145 1 -4.44565 9.83096 7.48311 
151 1 -5.00828 10.454 11.0426 
154 1 -2.98701 9.62543 9.82769 
155 1 -2.92153 6.23416 7.43931 
12 1 2.58484 7.06059 17.132 
17 1 0.384878 9.3714 20.8944 
24 1 -3.62501 8.36823 11.8728 
27 1 -0.27233 7.2094 21.6176 
29 1 0.607657 5.95541 21.9786 
31 1 1.28487 7.15962 17.9051 
44 1 -0.124317 7.18639 20.1341 
46 1 0.1339 8.507 19.7061 
51 1 -0.246459 7.20342 11.1112 
53 1 2.57092 7.04793 15.6694 
56 1 1.26511 7.17556 14.8722 
63 1 -2.30219 6.18237 21.7195 
66 1 -3.40771 6.72791 20.8335 
70 1 -0.136157 7.17197 12.6375 
72 1 0.548605 5.91678 12.9775 
92 1 0.916181 8.49007 14.2648 
95 1 -5.00534 10.4444 21.7365 
98 1 -4.68792 9.29077 20.8427 
104 1 0.377668 9.36657 11.8355 
116 1 -2.60816 8.76969 21.8261 
118 1 -3.62901 8.372 20.8918 
122 1 0.136912 8.51986 13.0625 
133 1 -3.39414 6.71764 11.9163 
136 1 0.296067 8.52781 22.1258 
147 1 0.55098 5.93798 19.8152 
153 1 -4.69254 9.28136 11.9312 
160 1 0.895335 8.47924 18.5209 
1 1 7.88358 4.9317 10.5219 
4 1 9.18156 4.775 11.0251 
20 1 7.86479 4.93284 9.06131 
42 1 9.46977 5.42367 7.44359 
67 1 9.97593 4.55385 0.759179 
77 1 7.8819 4.9326 0.0913362 
94 1 7.8663 4.93163 1.5541 
96 1 9.1839 4.65412 2.00028 
121 1 4.67718 5.43203 10.6904 
130 1 9.47538 5.42186 3.16569 
134 1 9.97493 4.56061 9.85586 
152 1 9.18484 4.65268 8.61786 
45 1 4.66329 5.43179 22.0568 
55 1 4.82699 5.4789 13.0573 
106 1 9.17999 4.77427 21.7371 
137 1 4.81116 5.46171 19.7105 
2 1 7.23337 10.5156 9.07953 
3 1 8.95907 7.65124 6.02449 
6 1 8.54024 6.38385 6.81629 
16 1 2.33461 8.65548 0.861115 
22 1 7.12689 6.16811 8.72479 
26 1 7.17832 8.43376 7.53025 
35 1 7.22078 10.5781 10.4797 
37 1 6.8645 9.2809 10.9749 
39 1 8.28967 8.93853 6.75792 
41 1 6.71885 7.02908 9.83848 
48 1 3.71022 6.36301 0.836218 
61 1 7.24873 10.505 1.55975 
62 1 8.96031 7.65272 4.5811 
64 1 6.71915 9.24138 1.97227 
68 1 7.3851 6.97289 3.05468 
71 1 4.32206 8.53403 10.7713 
74 1 3.60746 7.78976 9.80798 
81 1 8.52345 6.39328 3.79383 
83 1 6.55216 8.46454 0.787054 
93 1 7.2302 10.5663 0.126938 
97 1 8.26283 8.92749 3.85368 
101 1 2.35117 9.93834 10.6923 
103 1 2.33447 8.67488 9.74747 
117 1 7.13156 6.17765 1.90897 
120 1 7.17831 8.42497 3.06438 
123 1 3.6941 6.36093 9.76291 
129 1 6.71804 7.02496 0.775943 
132 1 6.6926 9.24558 8.63733 
135 1 7.38094 6.95199 7.55266 
141 1 7.22695 6.17886 10.9246 
144 1 6.55517 8.44794 9.83786 
148 1 3.61674 7.78517 0.790686 
7 1 9.19142 6.03171 11.9213 
10 1 3.68769 9.78346 21.5875 
13 1 2.3549 9.9711 22.1313 
15 1 2.99396 8.32472 17.8938 
28 1 3.67125 9.78394 20.1352 
30 1 4.40196 8.55232 19.7912 
34 1 4.35423 6.28586 18.611 
40 1 7.83914 8.35248 11.9189 
49 1 4.80719 7.72538 20.9068 
50 1 2.07104 9.29786 18.514 
58 1 1.54455 10.1405 11.7453 
59 1 4.13232 7.77371 14.1162 
69 1 3.65491 9.78687 11.2127 
73 1 3.02274 8.34792 14.8546 
75 1 4.99643 6.27562 11.8709 
79 1 7.22928 6.17743 21.8382 
82 1 7.91286 6.93035 20.8907 
86 1 3.70438 9.72421 12.5727 
88 1 2.36658 10.1469 13.111 
108 1 9.18636 6.03066 20.8392 
112 1 4.40307 8.5626 12.9637 
115 1 4.36971 6.31134 14.1426 
124 1 4.82021 7.70844 11.8501 
125 1 2.05718 9.27015 14.2718 
126 1 6.86735 9.289 21.7998 
128 1 7.83354 8.35952 20.8434 
139 1 1.5457 10.1816 20.9028 
140 1 4.13762 7.76876 18.6274 
143 1 7.91491 6.94154 11.8736 
146 1 4.30408 8.54314 22.0036 
149 1 4.99627 6.27124 20.9112 
157 1 2.35586 10.0732 19.6913 
161 2 2.23108 11.2881 13.1055 
ITEM: TIMESTEP
20
ITEM: NUMBER OF ATOMS
161
ITEM: BOX BOUNDS xy xz yz pp pp pp
-6.7755000000000001e+00 1.3552000000000000e+01 -6.7755000000000001e+00
0.0000000000000000e+00 1.1735510246683001e+01 0.0000000000000000e+00
0.0000000000000000e+00 2.2149999999999999e+01 0.0000000000000000e+00
ITEM: ATOMS id type x y z 
8 1 -2.42045 5.3903 9.84292 
87 1 2.96802 4.2733 10.6564 
90 1 2.66481 5.44844 9.76051 
109 1 -2.41817 5.39041 0.769649 
158 1 2.66178 5.45052 0.847965 
11 1 4.29089 4.20827 20.1241 
14 1 2.90516 4.12819 19.7011 
18 1 1.33093 5.86623 18.5833 
33 1 2.1283 4.23301 20.9076 
43 1 4.30138 4.1817 21.5713 
47 1 3.21545 5.80345 17.8609 
52 1 4.28466 4.20803 12.6427 
76 1 2.44349 4.90952 14.1846 
85 1 4.30681 4.16791 11.1951 
89 1 3.24929 5.7966 14.919 
91 1 0.967228 5.10923 11.8499 
102 1 2.89435 4.13911 13.063 
105 1 1.3115 5.85351 14.1811 
114 1 2.11047 4.2631 11.8559 
150 1 2.44277 4.89211 18.5715 
156 1 2.96886 4.26878 22.1172 
159 1 0.959208 5.07658 20.9098 
5 1 -4.90797 10.5889 8.62743 
9 1 -3.33353 8.85986 7.50661 
19 1 -1.77051 7.52601 10.5558 
21 1 -2.62757 8.7583 10.9434 
23 1 -3.30302 7.53155 6.82587 
25 1 -4.13034 10.4634 9.83067 
32 1 1.59273 6.36088 0.757983 
36 1 -1.89649 7.55221 9.05976 
38 1 -2.15692 6.22359 8.64454 
54 1 0.303996 8.49397 10.6668 
57 1 1.3562 7.98891 9.77234 
60 1 -1.76737 7.5278 0.0589713 
65 1 -3.30505 7.53339 3.78685 
78 1 -1.89156 7.54819 1.55688 
80 1 -2.55163 8.78599 1.89869 
84 1 -4.46035 9.81437 3.11551 
99 1 -2.97376 9.61555 0.7726 
100 1 -2.92835 6.26272 3.17743 
107 1 -4.91767 10.5927 1.99211 
110 1 -3.32711 8.86309 3.10786 
111 1 0.606755 5.96415 10.7465 
113 1 1.59038 6.34926 9.83514 
119 1 -4.12445 10.4703 0.776523 
127 1 -2.15743 6.2218 1.97069 
131 1 -2.32895 6.21657 11.0117 
138 1 1.363 7.98827 0.82864 
142 1 -2.5556 8.78998 8.71233 
145 1 -4.46122 9.82106 7.50347 
151 1 -4.98592 10.4518 11.0376 
154 1 -2.98344 9.61485 9.8405 
155 1 -2.92656 6.26259 7.4378 
12 1 2.56933 7.0708 17.1385 
17 1 0.398003 9.34103 20.9152 
24 1 -3.61007 8.372 11.8543 
27 1 -0.260824 7.2179 21.6333 
29 1 0.606177 5.96828 21.9897 
31 1 1.29149 7.19321 17.8969 
44 1 -0.12994 7.17658 20.1367 
46 1 0.138864 8.50892 19.7164 
51 1 -0.249339 7.19902 11.13 
53 1 2.55276 7.05479 15.6385 
56 1 1.2904 7.18057 14.8698 
63 1 -2.33126 6.21623 21.7544 
66 1 -3.37618 6.72876 20.8588 
70 1 -0.122051 7.17719 12.6326 
72 1 0.534612 5.93237 12.9657 
92 1 0.914206 8.46096 14.2604 
95 1 -4.99013 10.4512 21.7271 
98 1 -4.68548 9.27657 20.8371 
104 1 0.379217 9.3332 11.844 
116 1 -2.62449 8.75741 21.8182 
118 1 -3.60779 8.37028 20.9076 
122 1 0.142476 8.49627 13.0452 
133 1 -3.37643 6.72679 11.9029 
136 1 0.311728 8.51224 22.0895 
147 1 0.53877 5.94252 19.8238 
153 1 -4.68462 9.27382 11.928 
160 1 0.908599 8.45866 18.5142 
1 1 7.87399 4.93502 10.5212 
4 1 9.16836 4.78733 11.0211 
20 1 7.84906 4.94213 9.06471 
42 1 9.46582 5.44264 7.43775 
67 1 9.97623 4.5618 0.758171 
77 1 7.87436 4.93441 0.0924671 
94 1 7.84838 4.94404 1.55226 
96 1 9.17706 4.6567 2.00296 
121 1 4.66449 5.45799 10.6998 
130 1 9.46478 5.443 3.17575 
134 1 9.97529 4.56401 9.85561 
152 1 9.17555 4.6573 8.61075 
45 1 4.67127 5.46755 22.0601 
55 1 4.82206 5.49882 13.0661 
106 1 9.16877 4.78443 21.7451 
137 1 4.81929 5.50599 19.7017 
2 1 7.25168 10.5101 9.04812 
3 1 8.97391 7.64842 6.06183 
6 1 8.52148 6.39512 6.82973 
16 1 2.35942 8.6905 0.852247 
22 1 7.12169 6.18909 8.71701 
26 1 7.19385 8.4229 7.54083 
35 1 7.22431 10.5548 10.4928 
37 1 6.87206 9.26145 10.983 
39 1 8.28004 8.93581 6.77477 
41 1 6.72723 7.00447 9.83151 
48 1 3.70056 6.35877 0.831139 
61 1 7.24448 10.5127 1.56694 
62 1 8.97352 7.6489 4.55097 
64 1 6.71134 9.22323 1.99059 
68 1 7.39335 6.96255 3.05396 
71 1 4.32647 8.51395 10.7556 
74 1 3.60038 7.78751 9.80961 
81 1 8.52115 6.39635 3.78472 
83 1 6.54838 8.44073 0.782842 
93 1 7.22856 10.5514 0.120416 
97 1 8.27528 8.9354 3.83968 
101 1 2.36024 9.94497 10.6648 
103 1 2.36383 8.67491 9.73376 
117 1 7.12526 6.18833 1.89855 
120 1 7.18996 8.42166 3.07176 
123 1 3.69762 6.354 9.77562 
129 1 6.72456 7.00217 0.78547 
132 1 6.70938 9.22017 8.62382 
135 1 7.39661 6.96098 7.55867 
141 1 7.22306 6.19833 10.9274 
144 1 6.55644 8.44172 9.82991 
148 1 3.60915 7.78684 0.794774 
7 1 9.17628 6.02652 11.9248 
10 1 3.66821 9.80102 21.6033 
13 1 2.36642 9.93453 22.088 
15 1 3.0104 8.33044 17.9011 
28 1 3.67811 9.78018 20.1352 
30 1 4.41232 8.53847 19.7869 
34 1 4.34192 6.30139 18.6163 
40 1 7.83432 8.35868 11.9105 
49 1 4.80619 7.71977 20.907 
50 1 2.06968 9.28233 18.5172 
58 1 1.51774 10.1372 11.7567 
59 1 4.13623 7.75843 14.1224 
69 1 3.681 9.78188 11.1901 
73 1 3.01437 8.33831 14.8603 
75 1 4.98857 6.27531 11.856 
79 1 7.22316 6.19571 21.8354 
82 1 7.92372 6.9364 20.8921 
86 1 3.72332 9.7382 12.5967 
88 1 2.36096 10.1726 13.1223 
108 1 9.17737 6.02785 20.8361 
112 1 4.42422 8.54322 12.9698 
115 1 4.34706 6.31004 14.1445 
124 1 4.82442 7.70772 11.8473 
125 1 2.06596 9.24625 14.2872 
126 1 6.86529 9.26509 21.781 
128 1 7.82979 8.3583 20.8504 
139 1 1.5624 10.1621 20.9298 
140 1 4.1354 7.7563 18.631 
143 1 7.9257 6.93559 11.87 
146 1 4.31388 8.52156 22.003 
149 1 4.98743 6.28794 20.9069 
157 1 2.35862 10.0641 19.6899 
161 2 2.23347 11.2884 13.115 
ITEM: TIMESTEP
30
ITEM: NUMBER OF ATOMS
161
ITEM: BOX BOUNDS xy xz yz pp pp pp
-6.7755000000000001e+00 1.3552000000000000e+01 -6.7755000000000001e+00
0.0000000000000000e+00 1.1735510246683001e+01 0.0000000000000000e+00
0.0000000000000000e+00 2.2149999999999999e+01 0.0000000000000000e+00
ITEM: ATOMS id type x y z 
8 1 -2.43422 5.408 9.83451 
87 1 2.95203 4.2773 10.6522 
90 1 2.65185 5.44034 9.76328 
109 1 -2.43379 5.40774 0.778673 
158 1 2.65005 5.44277 0.846406 
11 1 4.27926 4.22832 20.1166 
14 1 2.88702 4.14597 19.6995 
18 1 1.29649 5.8549 18.5897 
33 1 2.0999 4.25796 20.906 
43 1 4.29012 4.21106 21.5574 
47 1 3.2481 5.7852 17.8461 
52 1 4.27559 4.22571 12.6488 
76 1 2.44131 4.92611 14.1842 
85 1 4.2893 4.20479 11.204 
89 1 3.2511 5.79761 14.9302 
91 1 0.957522 5.12262 11.8415 
102 1 2.88307 4.15485 13.0611 
105 1 1.29414 5.84808 14.1882 
114 1 2.09442 4.27289 11.8592 
150 1 2.43557 4.91794 18.5844 
156 1 2.95532 4.27915 22.1152 
159 1 0.959193 5.09669 20.9188 
5 1 -4.89994 10.5702 8.62804 
9 1 -3.31572 8.86951 7.4992 
19 1 -1.77516 7.53323 10.5589 
21 1 -2.62527 8.7593 10.9595 
23 1 -3.29827 7.53878 6.82137 
25 1 -4.11181 10.4514 9.83106 
32 1 1.60026 6.37266 0.761841 
36 1 -1.88205 7.56463 9.06579 
38 1 -2.15825 6.23586 8.64271 
54 1 0.310494 8.4762 10.6581 
57 1 1.36774 7.98276 9.77632 
60 1 -1.77111 7.53436 0.0550916 
65 1 -3.29899 7.54027 3.7908 
78 1 -1.88007 7.56339 1.55105 
80 1 -2.54073 8.79442 1.8962 
84 1 -4.45856 9.7992 3.10741 
99 1 -2.97385 9.60412 0.767206 
100 1 -2.9336 6.27724 3.17324 
107 1 -4.90002 10.569 1.98387 
110 1 -3.31514 8.87116 3.11378 
111 1 0.605228 5.96305 10.7291 
113 1 1.60034 6.36471 9.83085 
119 1 -4.11297 10.4519 0.784617 
127 1 -2.15846 6.23481 1.97208 
131 1 -2.33634 6.23306 11.0144 
138 1 1.36888 7.98398 0.822533 
142 1 -2.54165 8.79755 8.71493 
145 1 -4.45826 9.7996 7.50363 
151 1 -4.97032 10.444 11.0387 
154 1 -2.97693 9.60123 9.846 
155 1 -2.93252 6.27658 7.44044 
12 1 2.559 7.08116 17.1488 
17 1 0.413565 9.32152 20.9093 
24 1 -3.61951 8.35559 11.8579 
27 1 -0.254375 7.20075 21.6341 
29 1 0.607585 5.96326 22.0129 
31 1 1.28148 7.1879 17.9008 
44 1 -0.140095 7.16456 20.1412 
46 1 0.138264 8.49097 19.7175 
51 1 -0.2491 7.1876 11.1292 
53 1 2.55753 7.05485 15.6221 
56 1 1.28514 7.17675 14.8723 
63 1 -2.33855 6.23492 21.7514 
66 1 -3.38626 6.73845 20.8643 
70 1 -0.133992 7.16679 12.6275 
72 1 0.521366 5.92703 12.9706 
92 1 0.921053 8.45077 14.2517 
95 1 -4.97042 10.4425 21.7281 
98 1 -4.67293 9.27835 20.8412 
104 1 0.40142 9.31474 11.8438 
116 1 -2.62637 8.75925 21.8058 
118 1 -3.61991 8.35682 20.9062 
122 1 0.147672 8.48604 13.0482 
133 1 -3.38635 6.73876 11.8994 
136 1 0.319055 8.49704 22.0899 
147 1 0.534423 5.9324 19.8044 
153 1 -4.67175 9.27973 11.924 
160 1 0.914502 8.44335 18.5157 
1 1 7.84914 4.93987 10.5224 
4 1 9.1507 4.80508 11.0093 
20 1 7.83137 4.94197 9.0644 
42 1 9.45387 5.45507 7.44435 
67 1 9.96408 4.58057 0.773085 
77 1 7.85002 4.9404 0.0927333 
94 1 7.83196 4.94159 1.54969 
96 1 9.16612 4.67791 1.99723 
121 1 4.65239 5.48994 10.6841 
130 1 9.4531 5.45575 3.16984 
134 1 9.96261 4.58167 9.84041 
152 1 9.16527 4.67837 8.61653 
45 1 4.65249 5.49701 22.0759 
55 1 4.81792 5.51398 13.0666 
106 1 9.15117 4.80568 21.7549 
137 1 4.81805 5.51847 19.7006 
2 1 7.26213 10.4954 9.04008 
3 1 8.97287 7.64779 6.07504 
6 1 8.51193 6.3931 6.81887 
16 1 2.36653 8.69383 0.858483 
22 1 7.1023 6.18239 8.7066 
26 1 7.19668 8.41685 7.53747 
35 1 7.24452 10.5183 10.4859 
37 1 6.88263 9.22957 10.9992 
39 1 8.28206 8.92993 6.76097 
41 1 6.71514 6.99179 9.83692 
48 1 3.69824 6.3511 0.830081 
61 1 7.26057 10.4973 1.57397 
62 1 8.97242 7.64811 4.53904 
64 1 6.71483 9.20746 1.99099 
68 1 7.38714 6.96057 3.0611 
71 1 4.32139 8.50925 10.7504 
74 1 3.59772 7.7961 9.80308 
81 1 8.51115 6.39427 3.79436 
83 1 6.5467 8.42013 0.78792 
93 1 7.24482 10.5156 0.130903 
97 1 8.28276 8.92838 3.85133 
101 1 2.37967 9.90791 10.6726 
103 1 2.36926 8.68359 9.73321 
117 1 7.10339 6.1833 1.90612 
120 1 7.19487 8.41708 3.07538 
123 1 3.69818 6.3473 9.78079 
129 1 6.71413 6.99214 0.776544 
132 1 6.71639 9.20826 8.62161 
135 1 7.38959 6.95947 7.55343 
141 1 7.21876 6.20227 10.9403 
144 1 6.552 8.42045 9.82431 
148 1 3.59931 7.79849 0.803968 
7 1 9.17022 6.02708 11.9346 
10 1 3.6964 9.79583 21.6027 
13 1 2.38627 9.9125 22.0816 
15 1 3.02251 8.33542 17.8934 
28 1 3.69996 9.7792 20.1417 
30 1 4.43279 8.54255 19.7781 
34 1 4.33016 6.30624 18.612 
40 1 7.83401 8.37033 11.9073 
49 1 4.81819 7.73349 20.9122 
50 1 2.08084 9.26985 18.5204 
58 1 1.5321 10.1166 11.7608 
59 1 4.14768 7.76237 14.1229 
69 1 3.70192 9.77118 11.1815 
73 1 3.02311 8.3393 14.8712 
75 1 4.99146 6.29332 11.8618 
79 1 7.21815 6.20281 21.8245 
82 1 7.93749 6.92531 20.884 
86 1 3.72395 9.73574 12.5976 
88 1 2.37278 10.1783 13.1239 
108 1 9.16996 6.02728 20.8293 
112 1 4.4363 8.54383 12.973 
115 1 4.33896 6.31536 14.1472 
124 1 4.83606 7.7242 11.843 
125 1 2.07768 9.22706 14.2762 
126 1 6.88113 9.23012 21.7659 
128 1 7.83348 8.37076 20.8563 
139 1 1.57037 10.1451 20.9156 
140 1 4.14339 7.76301 18.6269 
143 1 7.93744 6.92531 11.8798 
146 1 4.31579 8.52033 22.0151 
149 1 4.98851 6.30632 20.9013 
157 1 2.36868 10.0459 19.6925 
161 2 2.23817 11.292 13.1358 
ITEM: TIMESTEP
40
ITEM: NUMBER OF ATOMS
161
ITEM: BOX BOUNDS xy xz yz pp pp pp
-6.7755000000000001e+00 1.3552000000000000e+01 -6.7755000000000001e+00
0.0000000000000000e+00 1.1735510246683001e+01 0.0000000000000000e+00
0.0000000000000000e+00 2.2149999999999999e+01 0.0000000000000000e+00
ITEM: ATOMS id type x y z 
8 1 -2.4724 5.47575 9.8225 
87 1 2.92386 4.31499 10.646 
90 1 2.61939 5.4375 9.73099 
109 1 -2.47202 5.478 0.791945 
158 1 2.62269 5.44564 0.879191 
11 1 4.24213 4.29357 20.0939 
14 1 2.83913 4.19116 19.7206 
18 1 1.26114 5.83272 18.5447 
33 1 2.04897 4.29796 20.9074 
43 1 4.24783 4.30133 21.5221 
47 1 3.21763 5.81566 17.8007 
52 1 4.24316 4.292 12.6712 
76 1 2.4038 4.94076 14.1952 
85 1 4.24069 4.29895 11.2408 
89 1 3.22659 5.80366 14.9435 
91 1 0.910386 5.15249 11.8313 
102 1 2.83902 4.19324 13.0445 
105 1 1.26115 5.84608 14.2165 
114 1 2.04851 4.30384 11.8578 
150 1 2.4024 4.95336 18.574 
156 1 2.92785 4.32014 22.1111 
159 1 0.910649 5.1537 20.9338 
5 1 -4.85642 10.5272 8.64362 
9 1 -3.27767 8.88545 7.471 
19 1 -1.77468 7.57533 10.5749 
21 1 -2.58692 8.76327 11.0017 
23 1 -3.30037 7.54011 6.80741 
25 1 -4.06815 10.4213 9.83175 
32 1 1.58717 6.39403 0.814007 
36 1 -1.82946 7.61589 9.06285 
38 1 -2.14699 6.29476 8.64005 
54 1 0.337283 8.42775 10.6474 
57 1 1.39179 7.96468 9.76098 
60 1 -1.76721 7.57723 0.0388183 
65 1 -3.2991 7.53924 3.80363 
78 1 -1.82919 7.61713 1.55031 
80 1 -2.48997 8.81855 1.91875 
84 1 -4.41915 9.77904 3.12079 
99 1 -2.92978 9.57041 0.755292 
100 1 -2.93615 6.30385 3.16142 
107 1 -4.85469 10.5264 1.96956 
110 1 -3.27857 8.88271 3.13919 
111 1 0.568686 5.95845 10.6896 
113 1 1.58723 6.38792 9.78879 
119 1 -4.07134 10.4213 0.784945 
127 1 -2.14655 6.29494 1.97329 
131 1 -2.36676 6.27007 11.0124 
138 1 1.39192 7.97813 0.825948 
142 1 -2.48778 8.81818 8.69648 
145 1 -4.41766 9.77542 7.49279 
151 1 -4.94256 10.4024 11.042 
154 1 -2.92923 9.57157 9.86016 
155 1 -2.93616 6.30175 7.45206 
12 1 2.5755 7.05793 17.1671 
17 1 0.452664 9.24832 20.8988 
24 1 -3.60523 8.32601 11.8992 
27 1 -0.247784 7.14258 21.646 
29 1 0.56368 5.95584 22.0814 
31 1 1.29264 7.17713 17.88 
44 1 -0.191101 7.10747 20.1381 
46 1 0.128333 8.4336 19.7169 
51 1 -0.255501 7.13991 11.115 
53 1 2.5744 7.0489 15.6521 
56 1 1.29216 7.17975 14.8804 
63 1 -2.36501 6.27372 21.7542 
66 1 -3.4123 6.75162 20.8574 
70 1 -0.177059 7.12128 12.6325 
72 1 0.473416 5.90892 12.9954 
92 1 0.937863 8.43004 14.2325 
95 1 -4.94562 10.4032 21.7218 
98 1 -4.63825 9.28316 20.8043 
104 1 0.456248 9.24313 11.8378 
116 1 -2.58724 8.76155 21.7632 
118 1 -3.6055 8.32558 20.8682 
122 1 0.144865 8.43648 13.036 
133 1 -3.41383 6.75306 11.9086 
136 1 0.342593 8.45106 22.0845 
147 1 0.464153 5.90511 19.7776 
153 1 -4.63892 9.28135 11.9574 
160 1 0.918625 8.4359 18.5324 
1 1 7.75332 4.93256 10.5262 
4 1 9.09184 4.85661 10.9825 
20 1 7.74686 4.95068 9.05581 
42 1 9.42669 5.49059 7.45098 
67 1 9.91819 4.64775 0.78964 
77 1 7.75511 4.93535 0.0883872 
94 1 7.74766 4.95098 1.55686 
96 1 9.09259 4.73153 1.99687 
121 1 4.60685 5.55811 10.6689 
130 1 9.42525 5.49166 3.16377 
134 1 9.91906 4.64756 9.82432 
152 1 9.09282 4.73223 8.61623 
45 1 4.6085 5.56764 22.0868 
55 1 4.81334 5.57461 13.0719 
106 1 9.09183 4.85494 21.7809 
137 1 4.81213 5.57924 19.6888 
2 1 7.29142 10.4314 9.02052 
3 1 8.95713 7.65668 6.07297 
6 1 8.49996 6.40306 6.79243 
16 1 2.38805 8.70604 0.888148 
22 1 7.01847 6.1563 8.67262 
26 1 7.20312 8.38001 7.51219 
35 1 7.29165 10.4211 10.4482 
37 1 6.92896 9.15357 11.0115 
39 1 8.31306 8.9117 6.73681 
41 1 6.66154 6.94393 9.83405 
48 1 3.6837 6.36263 0.878456 
61 1 7.29419 10.4298 1.59821 
62 1 8.95773 7.65544 4.54694 
64 1 6.72074 9.14288 1.99695 
68 1 7.35094 6.94353 3.07799 
71 1 4.34498 8.50065 10.7267 
74 1 3.61341 7.81274 9.75706 
81 1 8.49852 6.40092 3.8182 
83 1 6.53646 8.3643 0.798366 
93 1 7.28878 10.4203 0.164405 
97 1 8.31394 8.91444 3.8696 
101 1 2.43445 9.85474 10.6819 
103 1 2.39932 8.68298 9.6967 
117 1 7.01587 6.15655 1.94138 
120 1 7.20323 8.3817 3.101 
123 1 3.68335 6.35285 9.73555 
129 1 6.66044 6.94539 0.779214 
132 1 6.7247 9.1445 8.61728 
135 1 7.34974 6.94334 7.53745 
141 1 7.18279 6.2099 10.9799 
144 1 6.53774 8.36403 9.81543 
148 1 3.6034 7.81686 0.849909 
7 1 9.1463 6.01618 11.9675 
10 1 3.79852 9.81405 21.608 
13 1 2.44576 9.86433 22.0538 
15 1 3.03077 8.3102 17.8555 
28 1 3.78474 9.76925 20.1307 
30 1 4.51165 8.57008 19.7504 
34 1 4.33483 6.34738 18.5955 
40 1 7.85035 8.36411 11.9525 
49 1 4.87512 7.77977 20.913 
50 1 2.10537 9.23369 18.528 
58 1 1.6055 10.0434 11.7906 
59 1 4.18496 7.77954 14.1471 
69 1 3.78538 9.77583 11.179 
73 1 3.0421 8.33009 14.8874 
75 1 5.00482 6.34682 11.8694 
79 1 7.18065 6.20922 21.7827 
82 1 7.93358 6.90438 20.8377 
86 1 3.7715 9.73379 12.5994 
88 1 2.40772 10.1927 13.1325 
108 1 9.14729 6.01559 20.7966 
112 1 4.48563 8.56546 12.9938 
115 1 4.32276 6.34675 14.1703 
124 1 4.89895 7.76331 11.8405 
125 1 2.11059 9.18757 14.2451 
126 1 6.92986 9.15328 21.7507 
128 1 7.85155 8.36221 20.8124 
139 1 1.61364 10.0776 20.9034 
140 1 4.18068 7.77949 18.6107 
143 1 7.93339 6.90559 11.9262 
146 1 4.35109 8.50971 22.0529 
149 1 4.99226 6.36047 20.8931 
157 1 2.44507 9.99 19.6879 
161 2 2.25489 11.3035 13.2144 
ITEM: TIMESTEP
50
ITEM: NUMBER OF ATOMS
161
ITEM: BOX BOUNDS xy xz yz pp pp pp
-6.7755000000000001e+00 1.3552000000000000e+01 -6.7755000000000001e+00
0.0000000000000000e+00 1.1735510246683001e+01 0.0000000000000000e+00
0.0000000000000000e+00 2.2149999999999999e+01 0.0000000000000000e+00
ITEM: ATOMS id type x y z 
8 1 -2.48026 5.48578 9.82083 
87 1 2.91731 4.32673 10.6484 
90 1 2.62187 5.45118 9.71124 
109 1 -2.48051 5.48742 0.793831 
158 1 2.62172 5.45976 0.895184 
11 1 4.23567 4.31233 20.0862 
14 1 2.83235 4.19694 19.7126 
18 1 1.25908 5.84355 18.5555 
33 1 2.04816 4.30915 20.9189 
43 1 4.24109 4.30629 21.5231 
47 1 3.21265 5.8146 17.815 
52 1 4.23307 4.30648 12.6783 
76 1 2.39551 4.93754 14.2016 
85 1 4.23633 4.30022 11.239 
89 1 3.21817 5.81109 14.9328 
91 1 0.897955 5.14607 11.8312 
102 1 2.83192 4.19958 13.0519 
105 1 1.25224 5.85198 14.2148 
114 1 2.04949 4.30953 11.848 
150 1 2.39127 4.93448 18.5713 
156 1 2.9195 4.33293 22.1143 
159 1 0.89826 5.14362 20.9362 
5 1 -4.85022 10.5248 8.63788 
9 1 -3.27477 8.87434 7.47404 
19 1 -1.76642 7.57587 10.5648 
21 1 -2.5899 8.76732 11.002 
23 1 -3.31136 7.53895 6.78948 
25 1 -4.06756 10.4131 9.84444 
32 1 1.57094 6.38337 0.826836 
36 1 -1.82054 7.62395 9.06096 
38 1 -2.14212 6.29981 8.64554 
54 1 0.350788 8.41928 10.6485 
57 1 1.39732 7.96801 9.74611 
60 1 -1.7603 7.57712 0.0480884 
65 1 -3.30547 7.53759 3.79816 
78 1 -1.81803 7.62375 1.55369 
80 1 -2.48245 8.82581 1.92264 
84 1 -4.40957 9.79068 3.12581 
99 1 -2.918 9.57835 0.754067 
100 1 -2.93331 6.2974 3.16262 
107 1 -4.85014 10.5236 1.97557 
110 1 -3.26998 8.86765 3.14155 
111 1 0.570674 5.95233 10.6899 
113 1 1.56973 6.37134 9.77838 
119 1 -4.068 10.4133 0.770605 
127 1 -2.14179 6.30083 1.96922 
131 1 -2.37521 6.28035 11.014 
138 1 1.39728 7.97992 0.837073 
142 1 -2.48389 8.82711 8.69093 
145 1 -4.40703 9.79065 7.4915 
151 1 -4.93606 10.3902 11.0409 
154 1 -2.91641 9.5784 9.85965 
155 1 -2.93307 6.28692 7.45438 
12 1 2.55674 7.07244 17.1718 
17 1 0.461652 9.24094 20.8967 
24 1 -3.58701 8.34268 11.9095 
27 1 -0.256063 7.14457 21.6377 
29 1 0.56831 5.95396 22.0756 
31 1 1.29001 7.18503 17.85 
44 1 -0.197917 7.1011 20.1343 
46 1 0.126141 8.42313 19.7217 
51 1 -0.258964 7.1424 11.1213 
53 1 2.56637 7.052 15.6824 
56 1 1.30413 7.17362 14.8893 
63 1 -2.37384 6.2828 21.7518 
66 1 -3.41655 6.74477 20.8478 
70 1 -0.188737 7.11522 12.6325 
72 1 0.465991 5.90274 12.9974 
92 1 0.940422 8.43067 14.2271 
95 1 -4.93802 10.3891 21.7216 
98 1 -4.63939 9.26298 20.7887 
104 1 0.468305 9.23804 11.8398 
116 1 -2.58834 8.76751 21.7635 
118 1 -3.58674 8.34313 20.8564 
122 1 0.145423 8.42801 13.0379 
133 1 -3.41729 6.74417 11.918 
136 1 0.352906 8.44068 22.0854 
147 1 0.466898 5.8969 19.7647 
153 1 -4.63944 9.26442 11.9763 
160 1 0.916561 8.43731 18.5307 
1 1 7.73202 4.907 10.5299 
4 1 9.0765 4.86373 10.9823 
20 1 7.73419 4.95636 9.05649 
42 1 9.4274 5.49218 7.45777 
67 1 9.90652 4.66452 0.790212 
77 1 7.73471 4.91077 0.0833146 
94 1 7.73314 4.95498 1.5597 
96 1 9.07373 4.73643 1.99807 
121 1 4.60114 5.5642 10.6825 
130 1 9.42453 5.49022 3.16153 
134 1 9.90654 4.66427 9.82451 
152 1 9.0756 4.73818 8.609 
45 1 4.60138 5.57451 22.0762 
55 1 4.8101 5.58336 13.0773 
106 1 9.07787 4.8626 21.7801 
137 1 4.80826 5.58971 19.6841 
2 1 7.30066 10.4124 9.01209 
3 1 8.96486 7.65902 6.08191 
6 1 8.49181 6.41237 6.78883 
16 1 2.39753 8.70549 0.887431 
22 1 7.00038 6.14862 8.66772 
26 1 7.20855 8.37571 7.50672 
35 1 7.29588 10.4166 10.4504 
37 1 6.93406 9.14916 10.999 
39 1 8.31856 8.91662 6.74566 
41 1 6.64929 6.93617 9.83842 
48 1 3.66888 6.3743 0.892424 
61 1 7.30006 10.4126 1.60146 
62 1 8.96019 7.66019 4.58195 
64 1 6.72393 9.13584 2.00343 
68 1 7.34942 6.92572 3.08714 
71 1 4.36292 8.50152 10.7245 
74 1 3.62559 7.81419 9.75363 
81 1 8.49188 6.40391 3.80339 
83 1 6.53847 8.36218 0.790713 
93 1 7.29601 10.4143 0.163557 
97 1 8.30972 8.92787 3.84769 
101 1 2.45036 9.85842 10.6797 
103 1 2.40464 8.68164 9.6934 
117 1 7.00056 6.14953 1.94692 
120 1 7.20736 8.38073 3.10997 
123 1 3.66767 6.36471 9.71875 
129 1 6.64846 6.93544 0.776686 
132 1 6.72606 9.13504 8.60823 
135 1 7.34448 6.9301 7.52943 
141 1 7.17078 6.21553 10.9754 
144 1 6.54231 8.36293 9.82278 
148 1 3.6192 7.82155 0.85273 
7 1 9.13856 6.01483 11.9677 
10 1 3.81355 9.82857 21.6081 
13 1 2.46686 9.85982 22.0521 
15 1 3.04988 8.30862 17.8428 
28 1 3.79699 9.76594 20.1401 
30 1 4.53248 8.57292 19.7451 
34 1 4.32053 6.34935 18.5808 
40 1 7.86696 8.34836 11.9692 
49 1 4.88437 7.78956 20.9167 
50 1 2.11258 9.21808 18.5338 
58 1 1.61387 10.0255 11.7874 
59 1 4.18668 7.79191 14.1533 
69 1 3.7912 9.78293 11.1786 
73 1 3.04565 8.32742 14.8847 
75 1 5.00201 6.3473 11.8606 
79 1 7.16765 6.21598 21.7861 
82 1 7.91781 6.90353 20.8338 
86 1 3.78701 9.74165 12.6 
88 1 2.43006 10.1859 13.1345 
108 1 9.13971 6.01448 20.7966 