ITEM: TIMESTEP
0
ITEM: NUMBER OF ATOMS
147
ITEM: BOX BOUNDS pp pp pp
0.0000000000000000e+00 2.1884000000000000e+01
0.0000000000000000e+00 2.1885999999999999e+01
0.0000000000000000e+00 2.1885000000000002e+01
ITEM: ATOMS id type x y z 
146 2 1.337 1.055 21.352 
147 3 1.501 1.999 21.539 
9 1 8.524 12.547 12.547 
10 1 1.604 19.466 19.466 
11 1 1.605 19.466 12.547 
12 1 8.524 12.547 19.466 
13 1 1.605 12.547 19.466 
14 1 8.524 19.467 12.547 
15 1 8.524 19.467 19.466 
16 1 1.605 12.547 12.547 
25 1 10.105 10.965 10.965 
26 1 0.023 21.047 21.049 
27 1 0.023 21.047 10.964 
28 1 10.106 10.965 21.047 
29 1 0.023 10.966 21.048 
30 1 10.106 21.049 10.966 
31 1 10.106 21.048 21.049 
32 1 0.024 10.965 10.965 
57 1 5.811 12.218 12.218 
58 1 4.317 19.796 19.795 
59 1 4.318 19.795 12.218 
60 1 5.811 12.219 19.795 
61 1 4.318 12.218 19.795 
62 1 5.811 19.795 12.218 
63 1 5.811 19.796 19.795 
64 1 4.318 12.218 12.218 
65 1 8.853 15.26 12.218 
66 1 1.276 16.754 19.795 
67 1 8.853 16.754 19.795 
68 1 1.276 15.26 12.218 
69 1 1.276 16.754 12.218 
70 1 8.853 15.26 19.796 
71 1 1.276 15.26 19.795 
72 1 8.853 16.753 12.218 
73 1 8.853 12.219 15.26 
74 1 1.276 19.795 16.753 
75 1 1.276 12.218 16.754 
76 1 8.853 19.796 15.26 
77 1 8.853 19.796 16.753 
78 1 1.276 12.218 15.26 
79 1 1.276 19.795 15.26 
80 1 8.853 12.219 16.754 
105 1 7.01 12.317 12.317 
106 1 3.118 19.696 19.696 
107 1 3.119 19.696 12.317 
108 1 7.011 12.317 19.696 
109 1 3.119 12.317 19.696 
110 1 7.01 19.696 12.317 
111 1 7.01 19.697 19.696 
112 1 3.118 12.317 12.317 
113 1 8.754 14.061 12.317 
114 1 1.375 17.953 19.696 
115 1 8.754 17.953 19.696 
116 1 1.375 14.061 12.317 
117 1 1.375 17.953 12.317 
118 1 8.754 14.061 19.696 
119 1 1.375 14.061 19.696 
120 1 8.754 17.953 12.317 
121 1 8.754 12.317 14.061 
122 1 1.375 19.696 17.952 
123 1 1.375 12.317 17.953 
124 1 8.754 19.697 14.061 
125 1 8.754 19.697 17.952 
126 1 1.375 12.317 14.061 
127 1 1.375 19.696 14.061 
128 1 8.754 12.318 17.953 
137 1 9.407 11.664 11.664 
138 1 0.721 20.349 20.35 
139 1 0.721 20.349 11.663 
140 1 9.408 11.664 20.349 
141 1 0.721 11.664 20.35 
142 1 9.407 20.35 11.664 
143 1 9.407 20.35 20.35 
144 1 0.722 11.664 11.663 
1 1 19.466 1.604 1.604 
2 1 12.547 8.524 8.524 
3 1 12.546 8.524 1.604 
4 1 19.466 1.605 8.524 
5 1 12.547 1.604 8.524 
6 1 19.466 8.524 1.605 
7 1 19.466 8.524 8.524 
8 1 12.547 1.604 1.605 
17 1 21.048 0.023 0.022 
18 1 10.965 10.106 10.106 
19 1 10.965 10.106 0.024 
20 1 21.048 0.024 10.107 
21 1 10.965 0.022 10.105 
22 1 21.048 10.105 0.023 
23 1 21.047 10.106 10.106 
24 1 10.965 0.023 0.022 
33 1 16.753 1.275 1.276 
34 1 15.26 8.853 8.853 
35 1 15.26 8.852 1.276 
36 1 16.753 1.275 8.853 
37 1 15.26 1.275 8.853 
38 1 16.753 8.852 1.276 
39 1 16.753 8.853 8.853 
40 1 15.26 1.275 1.276 
41 1 19.795 4.317 1.276 
42 1 12.218 5.811 8.853 
43 1 19.795 5.811 8.853 
44 1 12.218 4.317 1.276 
45 1 12.218 5.811 1.275 
46 1 19.795 4.317 8.853 
47 1 12.218 4.317 8.853 
48 1 19.795 5.811 1.276 
49 1 19.795 1.275 4.317 
50 1 12.218 8.852 5.811 
51 1 12.218 1.276 5.811 
52 1 19.795 8.853 4.318 
53 1 19.795 8.853 5.811 
54 1 12.218 1.275 4.318 
55 1 12.218 8.852 4.317 
56 1 19.795 1.275 5.811 
81 1 17.952 1.374 1.375 
82 1 14.061 8.754 8.754 
83 1 14.06 8.753 1.375 
84 1 17.952 1.374 8.754 
85 1 14.06 1.374 8.754 
86 1 17.952 8.754 1.375 
87 1 17.952 8.754 8.754 
88 1 14.061 1.374 1.375 
89 1 19.696 3.118 1.375 
90 1 12.317 7.01 8.754 
91 1 19.696 7.01 8.754 
92 1 12.317 3.118 1.375 
93 1 12.317 7.01 1.374 
94 1 19.695 3.118 8.754 
95 1 12.317 3.118 8.754 
96 1 19.696 7.01 1.375 
97 1 19.696 1.374 3.118 
98 1 12.317 8.754 7.01 
99 1 12.317 1.375 7.01 
100 1 19.696 8.754 3.118 
101 1 19.696 8.754 7.01 
102 1 12.317 1.374 3.119 
103 1 12.317 8.753 3.118 
104 1 19.696 1.374 7.01 
129 1 20.35 0.722 0.721 
130 1 11.664 9.407 9.407 
131 1 11.663 9.407 0.722 
132 1 20.35 0.722 9.408 
133 1 11.663 0.72 9.407 
134 1 20.35 9.407 0.721 
135 1 20.349 9.407 9.407 
136 1 11.664 0.721 0.721 
145 2 21.721 1.055 21.352 
ITEM: TIMESTEP
10
ITEM: NUMBER OF ATOMS
147
ITEM: BOX BOUNDS pp pp pp
0.0000000000000000e+00 2.1884000000000000e+01
0.0000000000000000e+00 2.1885999999999999e+01
0.0000000000000000e+00 2.1885000000000002e+01
ITEM: ATOMS id type x y z 
146 2 1.34938 1.07162 21.3554 
147 3 1.49793 1.98353 21.5348 
9 1 8.51661 12.5544 12.5547 
10 1 1.61426 19.4564 19.4559 
11 1 1.61216 19.4587 12.5544 
12 1 8.51709 12.554 19.459 
13 1 1.61224 12.5544 19.4588 
14 1 8.51662 19.4598 12.5542 
15 1 8.51632 19.4597 19.4587 
16 1 1.61202 12.5547 12.5544 
25 1 10.1066 10.9639 10.9639 
26 1 0.0349301 21.0191 21.036 
27 1 0.0214752 21.0484 10.963 
28 1 10.1077 10.9638 21.0487 
29 1 0.0214653 10.9646 21.0496 
30 1 10.107 21.05 10.9645 
31 1 10.107 21.0495 21.0502 
32 1 0.0225246 10.9639 10.9635 
57 1 5.8197 12.2191 12.2191 
58 1 4.31088 19.795 19.7941 
59 1 4.30913 19.7939 12.2191 
60 1 5.81851 12.2198 19.7939 
61 1 4.30929 12.2192 19.7939 
62 1 5.8194 19.7939 12.2191 
63 1 5.81968 19.7949 19.7938 
64 1 4.30987 12.2191 12.2191 
65 1 8.85189 15.2513 12.2191 
66 1 1.27701 16.7605 19.7941 
67 1 8.85183 16.7622 19.794 
68 1 1.27718 15.2513 12.2192 
69 1 1.27717 16.7625 12.2192 
70 1 8.85206 15.2532 19.7948 
71 1 1.27713 15.2515 19.7938 
72 1 8.85201 16.7601 12.219 
73 1 8.85177 12.2201 15.2513 
74 1 1.27692 19.7941 16.7596 
75 1 1.27717 12.2192 16.7626 
76 1 8.85189 19.7949 15.2515 
77 1 8.85193 19.7949 16.7615 
78 1 1.27718 12.2192 15.2513 
79 1 1.27709 19.7939 15.251 
80 1 8.85193 12.2202 16.7618 
105 1 7.00811 12.3166 12.3166 
106 1 3.1204 19.6969 19.6968 
107 1 3.12089 19.6964 12.3165 
108 1 7.00957 12.3166 19.6965 
109 1 3.12097 12.3165 19.6964 
110 1 7.00847 19.6965 12.3167 
111 1 7.00804 19.6974 19.6964 
112 1 3.11988 12.3166 12.3166 
113 1 8.75441 14.0628 12.3166 
114 1 1.37413 17.95 19.6968 
115 1 8.75438 17.9512 19.6964 
116 1 1.37455 14.0634 12.3166 
117 1 1.37458 17.9505 12.3166 
118 1 8.7545 14.0626 19.6966 
119 1 1.37451 14.0633 19.6964 
120 1 8.75441 17.9523 12.3166 
121 1 8.75443 12.3167 14.0632 
122 1 1.37412 19.6967 17.9501 
123 1 1.37455 12.3166 17.9504 
124 1 8.75433 19.6975 14.0625 
125 1 8.75433 19.6973 17.9508 
126 1 1.37453 12.3166 14.0634 
127 1 1.37455 19.6964 14.0627 
128 1 8.75451 12.3175 17.9506 
137 1 9.41102 11.6594 11.6593 
138 1 0.730619 20.3383 20.3408 
139 1 0.717215 20.3534 11.6585 
140 1 9.41187 11.6593 20.3533 
141 1 0.717167 11.6597 20.3539 
142 1 9.41158 20.3546 11.6601 
143 1 9.41166 20.354 20.3541 
144 1 0.717683 11.6593 11.6591 
1 1 19.4742 1.59294 1.59624 
2 1 12.5545 8.51655 8.51659 
3 1 12.5533 8.5163 1.6117 
4 1 19.4586 1.61224 8.51728 
5 1 12.554 1.61147 8.5163 
6 1 19.4585 8.51657 1.61205 
7 1 19.4585 8.51637 8.51644 
8 1 12.554 1.61149 1.61247 
17 1 21.0554 0.0803779 0.0151855 
18 1 10.9639 10.107 10.1072 
19 1 10.9633 10.1073 0.022444 
20 1 21.0495 0.0225884 10.108 
21 1 10.9636 0.0205222 10.1064 
22 1 21.0495 10.1063 0.0215277 
23 1 21.0487 10.1071 10.1071 
24 1 10.964 0.0215518 0.0208525 
33 1 16.7636 1.27611 1.27716 
34 1 15.251 8.85188 8.85188 
35 1 15.2512 8.85083 1.27714 
36 1 16.7616 1.27611 8.85185 
37 1 15.2513 1.27614 8.85187 
38 1 16.762 8.85095 1.2772 
39 1 16.762 8.85187 8.85188 
40 1 15.2503 1.27603 1.27701 
41 1 19.7939 4.30766 1.27718 
42 1 12.2192 5.81952 8.85184 
43 1 19.7938 5.81951 8.85182 
44 1 12.2192 4.3084 1.2771 
45 1 12.2192 5.81968 1.27624 
46 1 19.7937 4.30838 8.85188 
47 1 12.2192 4.3081 8.8518 
48 1 19.7939 5.82044 1.27712 
49 1 19.7938 1.27616 4.30689 
50 1 12.2192 8.85095 5.81965 
51 1 12.2192 1.27713 5.8203 
52 1 19.7939 8.85186 4.30934 
53 1 19.7939 8.85187 5.81955 
54 1 12.2191 1.27618 4.30903 
55 1 12.2192 8.85077 4.30825 
56 1 19.794 1.27603 5.81999 
81 1 17.9482 1.3734 1.3748 
82 1 14.0626 8.75436 8.75434 
83 1 14.0624 8.75356 1.37444 
84 1 17.9501 1.37368 8.75448 
85 1 14.0625 1.37352 8.75446 
86 1 17.9501 8.75421 1.37451 
87 1 17.9504 8.75432 8.75435 
88 1 14.0617 1.37366 1.37465 
89 1 19.697 3.12398 1.37403 
90 1 12.3166 7.00788 8.75436 
91 1 19.6964 7.00777 8.75439 
92 1 12.3166 3.12021 1.37464 
93 1 12.3164 7.0074 1.37358 
94 1 19.6956 3.1207 8.75432 
95 1 12.3165 3.12051 8.7544 
96 1 19.6963 7.00822 1.37459 
97 1 19.6962 1.37339 3.12233 
98 1 12.3166 8.75425 7.00785 
99 1 12.3166 1.37462 7.008 
100 1 19.6965 8.75445 3.12036 
101 1 19.6964 8.75436 7.00822 
102 1 12.3167 1.37361 3.12065 
103 1 12.3164 8.75343 3.1206 
104 1 19.6965 1.3737 7.00874 
129 1 20.3161 0.741417 0.753926 
130 1 11.6594 9.41164 9.41141 
131 1 11.6589 9.41171 0.717382 
132 1 20.3537 0.717698 9.41238 
133 1 11.659 0.716106 9.41138 
134 1 20.3539 9.41137 0.716994 
135 1 20.353 9.41165 9.41162 
136 1 11.6593 0.716886 0.716802 
145 2 21.6989 1.03399 21.366 
ITEM: TIMESTEP
20
ITEM: NUMBER OF ATOMS
147
ITEM: BOX BOUNDS pp pp pp
0.0000000000000000e+00 2.1884000000000000e+01
0.0000000000000000e+00 2.1885999999999999e+01
0.0000000000000000e+00 2.1885000000000002e+01
ITEM: ATOMS id type x y z 
146 2 1.34971 1.07185 21.3555 
147 3 1.4979 1.98335 21.5347 
9 1 8.51654 12.5545 12.5546 
10 1 1.61465 19.4561 19.4555 
11 1 1.61221 19.4588 12.5544 
12 1 8.5168 12.5543 19.4589 
13 1 1.6123 12.5545 19.4589 
14 1 8.51643 19.4595 12.5544 
15 1 8.51628 19.4596 19.4586 
16 1 1.61222 12.5546 12.5544 
25 1 10.1066 10.9639 10.9639 
26 1 0.0350541 21.0186 21.0359 
27 1 0.0214709 21.0485 10.963 
28 1 10.1076 10.9638 21.0486 
29 1 0.0214772 10.9646 21.0496 
30 1 10.107 21.05 10.9645 
31 1 10.1069 21.0494 21.0501 
32 1 0.0224963 10.9639 10.9634 
57 1 5.81945 12.2192 12.2192 
58 1 4.3103 19.7949 19.7941 
59 1 4.30947 19.7939 12.2191 
60 1 5.81987 12.22 19.7937 
61 1 4.30966 12.2192 19.7939 
62 1 5.82013 19.7938 12.2192 
63 1 5.81956 19.7949 19.7938 
64 1 4.30942 12.2192 12.2192 
65 1 8.85187 15.2516 12.2191 
66 1 1.27706 16.7608 19.794 
67 1 8.85178 16.7624 19.7939 
68 1 1.27717 15.2518 12.2192 
69 1 1.27715 16.7619 12.2191 
70 1 8.85192 15.2519 19.7946 
71 1 1.27713 15.2518 19.7938 
72 1 8.85184 16.7616 12.2192 
73 1 8.85178 12.22 15.2519 
74 1 1.277 19.794 16.7601 
75 1 1.27715 12.2191 16.7619 
76 1 8.85179 19.7948 15.2509 
77 1 8.85186 19.7948 16.7618 
78 1 1.27718 12.2192 15.2517 
79 1 1.27709 19.7939 15.2514 
80 1 8.85184 12.2203 16.7624 
105 1 7.00801 12.3166 12.3166 
106 1 3.12127 19.697 19.6969 
107 1 3.12091 19.6964 12.3165 
108 1 7.00819 12.3165 19.6966 
109 1 3.12098 12.3165 19.6964 
110 1 7.00769 19.6966 12.3167 
111 1 7.00791 19.6974 19.6964 
112 1 3.12058 12.3165 12.3165 
113 1 8.75441 14.0629 12.3166 
114 1 1.37409 17.9494 19.6968 
115 1 8.75439 17.9508 19.6964 
116 1 1.37455 14.0632 12.3166 
117 1 1.37459 17.9507 12.3166 
118 1 8.75457 14.0638 19.6966 
119 1 1.37452 14.0632 19.6964 
120 1 8.7545 17.9506 12.3165 
121 1 8.75443 12.3167 14.063 
122 1 1.37406 19.6968 17.9492 
123 1 1.37456 12.3166 17.9507 
124 1 8.75435 19.6975 14.0633 
125 1 8.75435 19.6974 17.9503 
126 1 1.37453 12.3166 14.0633 
127 1 1.37456 19.6964 14.0627 
128 1 8.75452 12.3174 17.9499 
137 1 9.41102 11.6594 11.6594 
138 1 0.730494 20.3383 20.3409 
139 1 0.717231 20.3533 11.6586 
140 1 9.41193 11.6593 20.3534 
141 1 0.717174 11.6597 20.3539 
142 1 9.41159 20.3546 11.66 
143 1 9.41167 20.3541 20.3542 
144 1 0.717716 11.6594 11.6591 
1 1 19.4744 1.59264 1.59613 
2 1 12.5546 8.5165 8.51656 
3 1 12.5534 8.51639 1.61161 
4 1 19.4585 1.61215 8.51719 
5 1 12.5541 1.61131 8.51647 
6 1 19.4585 8.51665 1.61217 
7 1 19.4585 8.51634 8.51638 
8 1 12.554 1.61152 1.61249 
17 1 21.0554 0.0824081 0.0152751 
18 1 10.9639 10.107 10.1071 
19 1 10.9633 10.1073 0.0223876 
20 1 21.0495 0.0225843 10.108 
21 1 10.9635 0.0204809 10.1064 
22 1 21.0495 10.1064 0.0214876 
23 1 21.0486 10.1071 10.1071 
24 1 10.9641 0.0215622 0.0208578 
33 1 16.7633 1.27612 1.27717 
34 1 15.2513 8.85186 8.85186 
35 1 15.2513 8.8508 1.27717 
36 1 16.7614 1.27613 8.85182 
37 1 15.2514 1.27617 8.85184 
38 1 16.7613 8.85097 1.27718 
39 1 16.7618 8.85185 8.85186 
40 1 15.2502 1.27606 1.27704 
41 1 19.7939 4.30838 1.27715 
42 1 12.2192 5.81936 8.85181 
43 1 19.7938 5.81931 8.8518 
44 1 12.2192 4.30866 1.27711 
45 1 12.2191 5.81887 1.27621 
46 1 19.7937 4.30904 8.8519 
47 1 12.2191 4.30921 8.85186 
48 1 19.7939 5.82003 1.2771 
49 1 19.7938 1.27617 4.30716 
50 1 12.2192 8.85094 5.81937 
51 1 12.2191 1.27707 5.81918 
52 1 19.7938 8.85183 4.30939 
53 1 19.7938 8.85184 5.81945 
54 1 12.2191 1.2762 4.30927 
55 1 12.2191 8.8508 4.30908 
56 1 19.7939 1.27608 5.82022 
81 1 17.9482 1.37339 1.37481 
82 1 14.0627 8.75436 8.75434 
83 1 14.0627 8.75358 1.37442 
84 1 17.9499 1.37367 8.75449 
85 1 14.0627 1.3735 8.75448 
86 1 17.9503 8.75421 1.37451 
87 1 17.9502 8.75432 8.75435 
88 1 14.062 1.37365 1.37464 
89 1 19.697 3.12343 1.37406 
90 1 12.3166 7.00774 8.75437 
91 1 19.6964 7.00767 8.75439 
92 1 12.3166 3.12026 1.37464 
93 1 12.3164 7.00775 1.37359 
94 1 19.6956 3.12045 8.75431 
95 1 12.3165 3.11996 8.75437 
96 1 19.6963 7.00844 1.37459 
97 1 19.6962 1.37338 3.12229 
98 1 12.3166 8.75425 7.00781 
99 1 12.3166 1.37465 7.00855 
100 1 19.6965 8.75447 3.12065 
101 1 19.6964 8.75437 7.008 
102 1 12.3167 1.37361 3.12075 
103 1 12.3164 8.75342 3.12024 
104 1 19.6965 1.37368 7.00836 
129 1 20.316 0.741144 0.753927 
130 1 11.6594 9.41164 9.41142 
131 1 11.659 9.41162 0.717462 
132 1 20.3537 0.71773 9.41237 
133 1 11.6591 0.716177 9.41129 
134 1 20.3538 9.41129 0.717046 
135 1 20.353 9.41165 9.41164 
136 1 11.6593 0.716882 0.716815 
145 2 21.6982 1.03324 21.3664 
ITEM: TIMESTEP
30
ITEM: NUMBER OF ATOMS
147
ITEM: BOX BOUNDS pp pp pp
0.0000000000000000e+00 2.1884000000000000e+01
0.0000000000000000e+00 2.1885999999999999e+01
0.0000000000000000e+00 2.1885000000000002e+01
ITEM: ATOMS id type x y z 
146 2 1.36433 1.08005 21.3572 
147 3 1.49764 1.97786 21.5317 
9 1 8.51295 12.5578 12.558 
10 1 1.62858 19.4433 19.4422 
11 1 1.61574 19.4555 12.5578 
12 1 8.51365 12.5578 19.4555 
13 1 1.61584 12.5582 19.4555 
14 1 8.51323 19.4558 12.558 
15 1 8.51297 19.4559 19.4554 
16 1 1.61576 12.558 12.558 
25 1 10.1059 10.9644 10.9644 
26 1 0.0332887 21.0039 21.0365 
27 1 0.0222224 21.0481 10.9634 
28 1 10.1069 10.9644 21.0481 
29 1 0.0221506 10.9648 21.0489 
30 1 10.1064 21.0495 10.9651 
31 1 10.1066 21.0488 21.0493 
32 1 0.0231351 10.9644 10.9642 
57 1 5.81599 12.2202 12.2202 
58 1 4.31742 19.7945 19.7938 
59 1 4.31295 19.7928 12.2201 
60 1 5.81614 12.2208 19.7927 
61 1 4.31297 12.2203 19.7928 
62 1 5.81616 19.7928 12.2202 
63 1 5.8171 19.794 19.7929 
64 1 4.31269 12.2202 12.2202 
65 1 8.85082 15.255 12.2202 
66 1 1.27731 16.7537 19.7938 
67 1 8.85078 16.7589 19.793 
68 1 1.2782 15.2551 12.2202 
69 1 1.27817 16.7584 12.2202 
70 1 8.85095 15.2555 19.7934 
71 1 1.27798 15.2538 19.793 
72 1 8.85079 16.7585 12.2202 
73 1 8.85075 12.221 15.2551 
74 1 1.27723 19.7938 16.7531 
75 1 1.27818 12.2202 16.7584 
76 1 8.85077 19.7939 15.2549 
77 1 8.85085 19.7938 16.7581 
78 1 1.27822 12.2202 15.2551 
79 1 1.27795 19.793 15.2535 
80 1 8.85087 12.2212 16.7583 
105 1 7.00447 12.3171 12.3171 
106 1 3.12734 19.6975 19.697 
107 1 3.12446 19.696 12.317 
108 1 7.00451 12.3169 19.6964 
109 1 3.12445 12.317 19.696 
110 1 7.00466 19.6961 12.3171 
111 1 7.00611 19.6967 19.6957 
112 1 3.12418 12.3171 12.317 
113 1 8.75393 14.0666 12.3171 
114 1 1.3739 17.9437 19.697 
115 1 8.75385 17.9474 19.6959 
116 1 1.37506 14.0666 12.3171 
117 1 1.375 17.9468 12.317 
118 1 8.75427 14.0674 19.6966 
119 1 1.37522 14.0648 19.6957 
120 1 8.75404 17.9469 12.317 
121 1 8.75395 12.3173 14.0665 
122 1 1.37383 19.6971 17.9433 
123 1 1.37499 12.317 17.9469 
124 1 8.75385 19.697 14.0664 
125 1 8.75392 19.6969 17.9466 
126 1 1.37504 12.3172 14.0666 
127 1 1.37517 19.6958 14.0645 
128 1 8.75427 12.3176 17.9466 
137 1 9.41106 11.6597 11.6599 
138 1 0.730089 20.3331 20.3407 
139 1 0.717133 20.3532 11.6591 
140 1 9.41163 11.6598 20.3532 
141 1 0.717319 11.6602 20.3539 
142 1 9.41124 20.3541 11.66 
143 1 9.41104 20.3541 20.3541 
144 1 0.717853 11.66 11.6594 
1 1 19.4766 1.58595 1.59465 
2 1 12.5578 8.51309 8.51294 
3 1 12.5574 8.51283 1.61519 
4 1 19.4547 1.6155 8.51591 
5 1 12.5576 1.61508 8.51326 
6 1 19.455 8.51564 1.61593 
7 1 19.4551 8.51286 8.51306 
8 1 12.5547 1.61534 1.61597 
17 1 21.0669 0.157349 0.00657837 
18 1 10.9645 10.1065 10.1063 
19 1 10.9641 10.1069 0.0227206 
20 1 21.049 0.0229276 10.1071 
21 1 10.9642 0.0212163 10.1061 
22 1 21.0489 10.1058 0.0218893 
23 1 21.048 10.1066 10.1065 
24 1 10.9648 0.0219971 0.0213726 
33 1 16.761 1.27735 1.27843 
34 1 15.2549 8.85082 8.85081 
35 1 15.2546 8.84977 1.27823 
36 1 16.7577 1.27708 8.85077 
37 1 15.2548 1.27718 8.85083 
38 1 16.7576 8.85002 1.27818 
39 1 16.7581 8.85082 8.85083 
40 1 15.252 1.27678 1.27772 
41 1 19.7928 4.3104 1.2783 
42 1 12.2202 5.81583 8.85077 
43 1 19.7928 5.81579 8.85081 
44 1 12.2203 4.31263 1.27799 
45 1 12.2202 5.81565 1.27733 
46 1 19.7926 4.313 8.85087 
47 1 12.2202 4.3123 8.85077 
48 1 19.7933 5.81884 1.27775 
49 1 19.7926 1.27738 4.30961 
50 1 12.2203 8.85 5.81583 
51 1 12.2202 1.27811 5.81607 
52 1 19.7929 8.85081 4.31304 
53 1 19.7928 8.85084 5.81603 
54 1 12.2202 1.27721 4.31331 
55 1 12.2202 8.84972 4.31246 
56 1 19.7932 1.27683 5.81878 
81 1 17.9466 1.37144 1.37446 
82 1 14.0664 8.7539 8.75388 
83 1 14.066 8.75311 1.37488 
84 1 17.9464 1.37414 8.7542 
85 1 14.0662 1.37397 8.75401 
86 1 17.9463 8.75393 1.37486 
87 1 17.9465 8.75385 8.75387 
88 1 14.0645 1.37368 1.37463 
89 1 19.6987 3.1237 1.37245 
90 1 12.3171 7.00424 8.75388 
91 1 19.6959 7.00429 8.75385 
92 1 12.3168 3.12395 1.37511 
93 1 12.3168 7.00417 1.37406 
94 1 19.6954 3.12433 8.7541 
95 1 12.3169 3.12387 8.75395 
96 1 19.6962 7.00655 1.3747 
97 1 19.6966 1.37148 3.12391 
98 1 12.317 8.75364 7.00436 
99 1 12.317 1.375 7.00454 
100 1 19.696 8.75421 3.12441 
101 1 19.6959 8.75387 7.00457 
102 1 12.3168 1.374 3.12458 
103 1 12.3169 8.75299 3.12396 
104 1 19.6963 1.37385 7.00645 
129 1 20.2956 0.741198 0.770219 
130 1 11.6598 9.41109 9.41141 
131 1 11.6589 9.41106 0.717675 
132 1 20.3532 0.717975 9.4122 
133 1 11.6592 0.716342 9.41066 
134 1 20.3535 9.41116 0.717498 
135 1 20.353 9.4112 9.41126 
136 1 11.6594 0.717094 0.717335 
145 2 21.673 1.00298 21.38 
ITEM: TIMESTEP
40
ITEM: NUMBER OF ATOMS
147
ITEM: BOX BOUNDS pp pp pp
0.0000000000000000e+00 2.1884000000000000e+01
0.0000000000000000e+00 2.1885999999999999e+01
0.0000000000000000e+00 2.1885000000000002e+01
ITEM: ATOMS id type x y z 
146 2 1.372 1.07999 21.3572 
147 3 1.49968 1.98046 21.531 
9 1 8.51085 12.5601 12.5603 
10 1 1.63298 19.439 19.4379 
11 1 1.61771 19.4533 12.5599 
12 1 8.51123 12.5604 19.4532 
13 1 1.61784 12.5602 19.4534 
14 1 8.511 19.4535 12.5601 
15 1 8.51073 19.454 19.4532 
16 1 1.61792 12.5603 12.5601 
25 1 10.1056 10.9649 10.9649 
26 1 0.0280649 21.0053 21.0411 
27 1 0.0224265 21.0479 10.964 
28 1 10.1064 10.9649 21.0477 
29 1 0.0225047 10.9653 21.0486 
30 1 10.1059 21.049 10.9654 
31 1 10.1061 21.0486 21.049 
32 1 0.0234175 10.965 10.9646 
57 1 5.81687 12.2206 12.2206 
58 1 4.31837 19.7948 19.7941 
59 1 4.31221 19.7924 12.2205 
60 1 5.81726 12.2211 19.7923 
61 1 4.31218 12.2207 19.7924 
62 1 5.81715 19.7924 12.2206 
63 1 5.81916 19.7938 19.7927 
64 1 4.31182 12.2206 12.2206 
65 1 8.85037 15.2541 12.2206 
66 1 1.27702 16.7528 19.794 
67 1 8.85039 16.7597 19.7926 
68 1 1.27863 15.2541 12.2206 
69 1 1.27857 16.7591 12.2206 
70 1 8.85051 15.2544 19.7929 
71 1 1.27821 15.2519 19.7927 
72 1 8.85035 16.7593 12.2206 
73 1 8.85032 12.2214 15.2541 
74 1 1.27692 19.794 16.7523 
75 1 1.27859 12.2206 16.7591 
76 1 8.85033 19.7935 15.2539 
77 1 8.85043 19.7934 16.7589 
78 1 1.27865 12.2207 15.2541 
79 1 1.27818 19.7928 15.2515 
80 1 8.85043 12.2216 16.7593 
105 1 7.006 12.3181 12.3182 
106 1 3.12781 19.6967 19.6961 
107 1 3.12308 19.695 12.318 
108 1 7.00666 12.3181 19.6953 
109 1 3.12304 12.318 19.6951 
110 1 7.00634 19.6951 12.3182 
111 1 7.00909 19.6956 19.6946 
112 1 3.12265 12.3181 12.3181 
113 1 8.75289 14.065 12.3181 
114 1 1.37497 17.9433 19.6959 
115 1 8.75285 17.9488 19.695 
116 1 1.3761 14.0649 12.3182 
117 1 1.37597 17.9482 12.318 
118 1 8.75316 14.0652 19.6955 
119 1 1.37633 14.062 19.6947 
120 1 8.75301 17.9485 12.318 
121 1 8.7529 12.3184 14.0649 
122 1 1.37486 19.6963 17.9428 
123 1 1.37595 12.318 17.9482 
124 1 8.75283 19.6959 14.0648 
125 1 8.75295 19.696 17.948 
126 1 1.37608 12.3182 14.065 
127 1 1.3763 19.6947 14.0616 
128 1 8.75319 12.3187 17.9486 
137 1 9.41065 11.6599 11.6598 
138 1 0.72396 20.3337 20.3465 
139 1 0.717607 20.3532 11.659 
140 1 9.41138 11.66 20.3529 
141 1 0.717565 11.6601 20.3536 
142 1 9.41111 20.354 11.6603 
143 1 9.41122 20.3538 20.3538 
144 1 0.718176 11.6599 11.6598 
1 1 19.4647 1.59451 1.60585 
2 1 12.5601 8.51073 8.5109 
3 1 12.5595 8.5104 1.61748 
4 1 19.4526 1.61793 8.51481 
5 1 12.5599 1.61723 8.51081 
6 1 19.4527 8.51457 1.61821 
7 1 19.4529 8.51062 8.5108 
8 1 12.5562 1.61748 1.61828 
17 1 21.0741 0.171511 -0.00189487 
18 1 10.965 10.1059 10.106 
19 1 10.9644 10.1063 0.0231397 
20 1 21.0486 0.0231117 10.1064 
21 1 10.9646 0.0216369 10.1055 
22 1 21.0486 10.1053 0.0222586 
23 1 21.0476 10.1061 10.106 
24 1 10.9654 0.0221458 0.0218672 
33 1 16.7585 1.2775 1.27876 
34 1 15.2539 8.85038 8.85038 
35 1 15.2536 8.84936 1.27867 
36 1 16.7583 1.27743 8.8503 
37 1 15.2537 1.2776 8.85039 
38 1 16.7583 8.84955 1.27852 
39 1 16.759 8.85039 8.85039 
40 1 15.2504 1.2771 1.27797 
41 1 19.7925 4.31135 1.27867 
42 1 12.2207 5.81671 8.85032 
43 1 19.7924 5.81689 8.85039 
44 1 12.2208 4.31188 1.27831 
45 1 12.2206 5.81661 1.2778 
46 1 19.7923 4.31216 8.85038 
47 1 12.2207 4.31144 8.85032 
48 1 19.793 5.81986 1.27805 
49 1 19.7923 1.27755 4.31234 
50 1 12.2207 8.84958 5.81675 
51 1 12.2206 1.27852 5.81717 
52 1 19.7925 8.85032 4.3123 
53 1 19.7924 8.85041 5.81705 
54 1 12.2207 1.27757 4.31245 
55 1 12.2206 8.84928 4.31163 
56 1 19.793 1.27718 5.82022 
81 1 17.9454 1.36925 1.37386 
82 1 14.0647 8.75284 8.75281 
83 1 14.0643 8.75208 1.3759 
84 1 17.9478 1.37515 8.75344 
85 1 14.0645 1.37506 8.75297 
86 1 17.9477 8.75314 1.37588 
87 1 17.9482 8.75279 8.75283 
88 1 14.0618 1.37464 1.37554 
89 1 19.7005 3.12464 1.37074 
90 1 12.3181 7.00583 8.75283 
91 1 19.6948 7.00609 8.7528 
92 1 12.3176 3.12258 1.37611 
93 1 12.3179 7.00587 1.37512 
94 1 19.6944 3.12271 8.75332 
95 1 12.318 3.12236 8.75295 
96 1 19.6955 7.00846 1.37549 
97 1 19.6973 1.36928 3.12546 
98 1 12.3181 8.75258 7.00592 
99 1 12.3181 1.37605 7.00641 
100 1 19.695 8.75344 3.12307 
101 1 19.6948 8.75281 7.00626 
102 1 12.3176 1.37503 3.12305 
103 1 12.3179 8.75198 3.12243 
104 1 19.6955 1.37466 7.00857 
129 1 20.2946 0.728652 0.770342 
130 1 11.6598 9.41107 9.41086 
131 1 11.6594 9.41112 0.717756 
132 1 20.3529 0.718302 9.41234 
133 1 11.6596 0.716719 9.41074 
134 1 20.3531 9.41118 0.717783 
135 1 20.3528 9.41104 9.4111 
136 1 11.6593 0.717572 0.717506 
145 2 21.6752 0.997638 21.3722 
ITEM: TIMESTEP
50
ITEM: NUMBER OF ATOMS
147
ITEM: BOX BOUNDS pp pp pp
0.0000000000000000e+00 2.1884000000000000e+01
0.0000000000000000e+00 2.1885999999999999e+01
0.0000000000000000e+00 2.1885000000000002e+01
ITEM: ATOMS id type x y z 
146 2 1.37936 1.0806 21.3574 
147 3 1.50184 1.98241 21.5302 
9 1 8.5103 12.5606 12.5605 
10 1 1.63303 19.4389 19.438 
11 1 1.61831 19.4529 12.5595 
12 1 8.51104 12.5607 19.4528 
13 1 1.61831 12.5599 19.4529 
14 1 8.51067 19.4531 12.5606 
15 1 8.51105 19.4535 19.4527 
16 1 1.61841 12.5605 12.5606 
25 1 10.1054 10.9651 10.965 
26 1 0.0273456 21.0016 21.0413 
27 1 0.0227522 21.0479 10.9641 
28 1 10.1061 10.9651 21.0475 
29 1 0.0227518 10.9652 21.0484 
30 1 10.1058 21.0489 10.9656 
31 1 10.1061 21.0484 21.0487 
32 1 0.0236311 10.9651 10.9649 
57 1 5.81541 12.2211 12.2211 
58 1 4.32003 19.7948 19.7942 
59 1 4.31387 19.792 12.2209 
60 1 5.81533 12.2214 19.7919 
61 1 4.31398 12.2211 19.792 
62 1 5.81574 19.792 12.221 
63 1 5.8185 19.7935 19.7925 
64 1 4.31335 12.221 12.221 
65 1 8.84993 15.2556 12.2211 
66 1 1.27697 16.7511 19.794 
67 1 8.84998 16.7579 19.7922 
68 1 1.27905 15.2556 12.2211 
69 1 1.27896 16.7573 12.221 
70 1 8.8501 15.256 19.7925 
71 1 1.27843 15.2526 19.7925 
72 1 8.84993 16.7578 12.2211 
73 1 8.84989 12.2218 15.2557 
74 1 1.27688 19.7941 16.7506 
75 1 1.27897 12.221 16.7574 
76 1 8.84991 19.7931 15.2554 
77 1 8.85003 19.793 16.7572 
78 1 1.27906 12.2211 15.2555 
79 1 1.27839 19.7926 15.2522 
80 1 8.85001 12.222 16.7575 
105 1 7.00431 12.3186 12.3187 
106 1 3.13 19.696 19.6952 
107 1 3.12491 19.6946 12.3184 
108 1 7.00512 12.3186 19.6948 
109 1 3.12505 12.3185 19.6947 
110 1 7.0047 19.6946 12.3187 
111 1 7.00803 19.6951 19.6941 
112 1 3.12439 12.3186 12.3186 
113 1 8.75238 14.0668 12.3186 
114 1 1.37591 17.9412 19.695 
115 1 8.75241 17.9467 19.6946 
116 1 1.3766 14.0666 12.3187 
117 1 1.37639 17.9463 12.3184 
118 1 8.75267 14.067 19.695 
119 1 1.37683 14.063 19.6942 
120 1 8.75251 17.9467 12.3185 
121 1 8.75241 12.3189 14.0668 
122 1 1.37571 19.6955 17.9407 
123 1 1.37639 12.3185 17.9464 
124 1 8.75233 19.6953 14.0664 
125 1 8.7525 19.6955 17.9461 
126 1 1.37659 12.3187 14.0665 
127 1 1.37677 19.6942 14.0626 
128 1 8.75271 12.3192 17.9467 
137 1 9.41076 11.66 11.6601 
138 1 0.722356 20.3304 20.3476 
139 1 0.717445 20.3532 11.6593 
140 1 9.41123 11.6603 20.3529 
141 1 0.717504 11.6604 20.3537 
142 1 9.41093 20.3537 11.6603 
143 1 9.41092 20.3539 20.3538 
144 1 0.718151 11.6603 11.6597 
1 1 19.4662 1.59088 1.60439 
2 1 12.5604 8.51039 8.51032 
3 1 12.56 8.51014 1.61792 
4 1 19.4521 1.6183 8.51448 
5 1 12.5603 1.61771 8.5105 
6 1 19.4522 8.51449 1.61862 
7 1 19.4524 8.5103 8.51047 
8 1 12.5562 1.61802 1.61861 
17 1 21.0726 0.186235 -0.00165496 
18 1 10.9651 10.1058 10.1057 
19 1 10.9647 10.1062 0.0232874 
20 1 21.0484 0.0230851 10.1061 
21 1 10.9648 0.0218161 10.1053 
22 1 21.0484 10.105 0.0224056 
23 1 21.0474 10.1059 10.1059 
24 1 10.9656 0.0222567 0.0219601 
33 1 16.7551 1.27731 1.27884 
34 1 15.2555 8.84995 8.84993 
35 1 15.255 8.84896 1.27908 
36 1 16.7568 1.27779 8.84983 
37 1 15.2551 1.27801 8.84997 
38 1 16.7566 8.84912 1.27886 
39 1 16.7574 8.84995 8.84995 
40 1 15.2506 1.27739 1.27818 
41 1 19.7926 4.31328 1.27865 
42 1 12.2211 5.81517 8.84987 
43 1 19.7919 5.81535 8.84997 
44 1 12.2212 4.31364 1.27865 
45 1 12.221 5.81518 1.27821 
46 1 19.7919 4.31382 8.84991 
47 1 12.2211 4.313 8.8499 
48 1 19.7927 5.8197 1.27832 
49 1 19.7922 1.27738 4.31525 
50 1 12.2212 8.84916 5.81526 
51 1 12.221 1.27891 5.81564 
52 1 19.7922 8.84989 4.31408 
53 1 19.7919 8.84998 5.81563 
54 1 12.2211 1.27795 4.31429 
55 1 12.221 8.84887 4.31319 
56 1 19.7928 1.27746 5.8205 
81 1 17.9431 1.36818 1.37381 
82 1 14.0665 8.75234 8.75233 
83 1 14.066 8.75158 1.37641 
84 1 17.9459 1.37566 8.75317 
85 1 14.0661 1.37559 8.75244 
86 1 17.9459 8.75284 1.37639 
87 1 17.9463 8.7523 8.75235 
88 1 14.0617 1.37516 1.37601 
89 1 19.7011 3.12498 1.37013 
90 1 12.3187 7.00407 8.75233 
91 1 19.6943 7.00433 8.75231 
92 1 12.3179 3.12436 1.37659 
93 1 12.3184 7.00418 1.37565 
94 1 19.6939 3.12472 8.75306 
95 1 12.3185 3.12412 8.75244 
96 1 19.695 7.00852 1.37599 
97 1 19.6974 1.36817 3.12743 
98 1 12.3186 8.75204 7.00424 
99 1 12.3185 1.37652 7.00463 
100 1 19.6945 8.75315 3.12479 
101 1 19.6943 8.75231 7.00456 
102 1 12.3178 1.3755 3.12496 
103 1 12.3184 8.75148 3.12422 
104 1 19.6949 1.37528 7.00914 
129 1 20.2863 0.726311 0.777525 
130 1 11.66 9.4108 9.41099 
131 1 11.6594 9.41079 0.717799 
132 1 20.3527 0.71854 9.41249 
133 1 11.6598 0.716903 9.41075 
134 1 20.3529 9.41134 0.717996 
135 1 20.3529 9.41093 9.41089 
136 1 11.6591 0.717682 0.717831 
145 2 21.6777 0.996861 21.3641 
ITEM: TIMESTEP
57
ITEM: NUMBER OF ATOMS
147
ITEM: BOX BOUNDS pp pp pp
0.0000000000000000e+00 2.1884000000000000e+01
0.0000000000000000e+00 2.1885999999999999e+01
0.0000000000000000e+00 2.1885000000000002e+01
ITEM: ATOMS id type x y z 
146 2 1.38042 1.08071 21.3574 
147 3 1.50217 1.98268 21.5301 
9 1 8.51013 12.5608 12.5607 
10 1 1.63324 19.4387 19.4378 
11 1 1.61848 19.4526 12.5597 
12 1 8.5108 12.5609 19.4526 
13 1 1.61853 12.56 19.4527 
14 1 8.51048 19.4529 12.5607 
15 1 8.51092 19.4533 19.4526 
16 1 1.61859 12.5607 12.5607 
25 1 10.1054 10.9651 10.9651 
26 1 0.0267153 21.0019 21.0419 
27 1 0.0227431 21.0479 10.9641 
28 1 10.1061 10.9651 21.0475 
29 1 0.022754 10.9652 21.0484 
30 1 10.1057 21.0489 10.9656 
31 1 10.1061 21.0484 21.0487 
32 1 0.0236211 10.9651 10.9649 
57 1 5.81557 12.2211 12.2211 
58 1 4.31992 19.7948 19.7942 
59 1 4.31374 19.792 12.221 
60 1 5.81569 12.2215 19.7919 
61 1 4.31375 12.2212 19.792 
62 1 5.81591 19.792 12.2211 
63 1 5.81874 19.7935 19.7925 
64 1 4.31321 12.2211 12.2211 
65 1 8.84989 15.2555 12.2211 
66 1 1.27697 16.7513 19.794 
67 1 8.84994 16.7581 19.7921 
68 1 1.27909 15.2554 12.2211 
69 1 1.27899 16.7575 12.221 
70 1 8.85008 15.256 19.7925 
71 1 1.27845 15.2523 19.7925 
72 1 8.84988 16.7579 12.2211 
73 1 8.84984 12.2219 15.2555 
74 1 1.27687 19.7941 16.7508 
75 1 1.27901 12.221 16.7576 
76 1 8.84987 19.793 15.2552 
77 1 8.84998 19.793 16.7574 
78 1 1.2791 12.2211 15.2553 
79 1 1.2784 19.7925 15.252 
80 1 8.84998 12.2221 16.7575 
105 1 7.00453 12.3188 12.3188 
106 1 3.12982 19.6958 19.6951 
107 1 3.12471 19.6944 12.3185 
108 1 7.00524 12.3188 19.6946 
109 1 3.12488 12.3186 19.6945 
110 1 7.00495 19.6945 12.3188 
111 1 7.00831 19.695 19.694 
112 1 3.12417 12.3188 12.3187 
113 1 8.75224 14.0665 12.3188 
114 1 1.37609 17.9413 19.6949 
115 1 8.75229 17.9469 19.6944 
116 1 1.37674 14.0663 12.3188 
117 1 1.37652 17.9465 12.3185 
118 1 8.75253 14.0665 19.6948 
119 1 1.37696 14.0628 19.694 
120 1 8.75238 17.9469 12.3187 
121 1 8.75228 12.319 14.0666 
122 1 1.37588 19.6954 17.9409 
123 1 1.37651 12.3186 17.9466 
124 1 8.7522 19.6952 14.0661 
125 1 8.75238 19.6954 17.9463 
126 1 1.37672 12.3188 14.0663 
127 1 1.3769 19.6941 14.0623 
128 1 8.75257 12.3194 17.9471 
137 1 9.41071 11.66 11.6601 
138 1 0.722102 20.33 20.3478 
139 1 0.717495 20.3531 11.6593 
140 1 9.41125 11.6602 20.3529 
141 1 0.717526 11.6603 20.3537 
142 1 9.41096 20.3538 11.6603 
143 1 9.41095 20.3539 20.3537 
144 1 0.718176 11.6602 11.6598 
1 1 19.4652 1.59117 1.60511 
2 1 12.5606 8.51018 8.51015 
3 1 12.5602 8.50993 1.61811 
4 1 19.4519 1.61852 8.51453 
5 1 12.5605 1.61791 8.51033 
6 1 19.452 8.51447 1.61882 