LAMMPS (3 Mar 2020)
# Alpha
clear
units		real
dimension 3
boundary        p p p
atom_style	charge
newton on
read_data       OOH_21.lmp
  triclinic box = (0 0 0) to (13.552 11.7355 22.15) with tilt (-6.7755 0 0)
  2 by 2 by 2 MPI processor grid
  reading atoms ...
  163 atoms
  read_data CPU = 0.00589479 secs

timestep 0.25

# ---------- Define Interatomic Potential ---------------------
pair_style      reax/c NULL checkqeq no
pair_coeff      * * ffield.reax C H O
fix             2 all qeq/reax 1 0.0 10.0 1.0e-6 reax/c

#------------ Equilibration of the system -------------------------
reset_timestep 0

dump 1 all custom 10 min.lammpstrj id type x y z

minimize 1.0e-8 1.0e-8 100000 100000
WARNING: Using 'neigh_modify every 1 delay 0 check yes' setting during minimization (../min.cpp:190)
WARNING: Total cutoff < 2*bond cutoff. May need to use an increased neighbor list skin. (../pair_reaxc.cpp:413)
Neighbor list info ...
  update every 1 steps, delay 0 steps, check yes
  max neighbors/atom: 2000, page size: 100000
  master list distance cutoff = 9.5
  ghost atom cutoff = 9.5
  binsize = 4.75, bins = 5 3 5
  2 neighbor lists, perpetual/occasional/extra = 2 0 0
  (1) pair reax/c, perpetual
      attributes: half, newton off, ghost
      pair build: half/bin/newtoff/ghost
      stencil: half/ghost/bin/3d/newtoff
      bin: standard
  (2) fix qeq/reax, perpetual, copy from (1)
      attributes: half, newton off, ghost
      pair build: copy
      stencil: none
      bin: none
Per MPI rank memory allocation (min/avg/max) = 22.53 | 23.63 | 24.67 Mbytes
Step Temp E_pair E_mol TotEng Press 
       0            0    -25570.17            0    -25570.17    83084.927 
     172            0   -29257.549            0   -29257.549    35811.095 
Loop time of 31.9394 on 8 procs for 172 steps with 163 atoms

99.9% CPU use with 8 MPI tasks x no OpenMP threads

Minimization stats:
  Stopping criterion = energy tolerance
  Energy initial, next-to-last, final = 
        -25570.1702137     -29257.5485295     -29257.5487294
  Force two-norm initial, final = 4629.91 296.484
  Force max component initial, final = 504.288 70.4054
  Final line search alpha, max atom move = 4.43775e-05 0.00312442
  Iterations, force evaluations = 172 1044

MPI task timing breakdown:
Section |  min time  |  avg time  |  max time  |%varavg| %total
---------------------------------------------------------------
Pair    | 23.141     | 24.389     | 25.311     |  18.5 | 76.36
Neigh   | 0          | 0          | 0          |   0.0 |  0.00
Comm    | 0.32407    | 1.2444     | 2.4891     |  81.7 |  3.90
Output  | 0.0027592  | 0.0037996  | 0.005492   |   1.4 |  0.01
Modify  | 6.2478     | 6.2488     | 6.2515     |   0.0 | 19.56
Other   |            | 0.05379    |            |       |  0.17

Nlocal:    20.375 ave 33 max 4 min
Histogram: 2 0 1 0 1 0 0 1 0 3
Nghost:    855.125 ave 909 max 800 min
Histogram: 1 2 1 0 0 0 0 1 2 1
Neighs:    2830.5 ave 4494 max 596 min
Histogram: 2 0 0 1 1 0 0 1 0 3

Total # of neighbors = 22644
Ave neighs/atom = 138.92
Neighbor list builds = 0
Dangerous builds = 0

###
min_style cg
minimize 1.0e-8 1.0e-8 100000 100000
WARNING: Using 'neigh_modify every 1 delay 0 check yes' setting during minimization (../min.cpp:190)
WARNING: Total cutoff < 2*bond cutoff. May need to use an increased neighbor list skin. (../pair_reaxc.cpp:413)
Per MPI rank memory allocation (min/avg/max) = 22.53 | 23.63 | 24.67 Mbytes
Step Temp E_pair E_mol TotEng Press 
     172            0   -29257.549            0   -29257.549    35811.095 
     173            0   -29257.549            0   -29257.549    35811.233 
Loop time of 0.279492 on 8 procs for 1 steps with 163 atoms

99.7% CPU use with 8 MPI tasks x no OpenMP threads

Minimization stats:
  Stopping criterion = energy tolerance
  Energy initial, next-to-last, final = 
        -29257.5487294     -29257.5487294     -29257.5488514
  Force two-norm initial, final = 296.484 296.466
  Force max component initial, final = 70.4054 70.3974
  Final line search alpha, max atom move = 4.43858e-05 0.00312464
  Iterations, force evaluations = 1 8

MPI task timing breakdown:
Section |  min time  |  avg time  |  max time  |%varavg| %total
---------------------------------------------------------------
Pair    | 0.20397    | 0.21511    | 0.22369    |   1.7 | 76.97
Neigh   | 0          | 0          | 0          |   0.0 |  0.00
Comm    | 0.0025627  | 0.011128   | 0.022218   |   7.5 |  3.98
Output  | 0          | 0          | 0          |   0.0 |  0.00
Modify  | 0.052424   | 0.052435   | 0.052466   |   0.0 | 18.76
Other   |            | 0.000818   |            |       |  0.29

Nlocal:    20.375 ave 32 max 4 min
Histogram: 1 1 1 1 0 0 0 0 0 4
Nghost:    884.375 ave 935 max 836 min
Histogram: 2 2 0 0 0 0 0 0 2 2
Neighs:    2818.62 ave 4326 max 587 min
Histogram: 1 1 0 2 0 0 0 0 0 4

Total # of neighbors = 22549
Ave neighs/atom = 138.337
Neighbor list builds = 0
Dangerous builds = 0

###
fix 1 all box/relax aniso 0.0
min_style cg
minimize 1.0e-8 1.0e-8 100000 100000
WARNING: Using 'neigh_modify every 1 delay 0 check yes' setting during minimization (../min.cpp:190)
WARNING: Total cutoff < 2*bond cutoff. May need to use an increased neighbor list skin. (../pair_reaxc.cpp:413)
Per MPI rank memory allocation (min/avg/max) = 22.53 | 23.63 | 24.67 Mbytes
Step Temp E_pair E_mol TotEng Press Volume 
     173            0   -29257.549            0   -29257.549    35811.233    3522.7279 
     316            0    -29286.26            0    -29286.26    1039.7446    3534.4487 
Loop time of 6.10841 on 8 procs for 143 steps with 163 atoms

99.9% CPU use with 8 MPI tasks x no OpenMP threads

Minimization stats:
  Stopping criterion = energy tolerance
  Energy initial, next-to-last, final = 
        -29257.5488514     -29286.2596172     -29286.2596172
  Force two-norm initial, final = 4085.69 470.526
  Force max component initial, final = 3599.2 294.555
  Final line search alpha, max atom move = 6.47535e-13 1.90734e-10
  Iterations, force evaluations = 143 215

MPI task timing breakdown:
Section |  min time  |  avg time  |  max time  |%varavg| %total
---------------------------------------------------------------
Pair    | 4.8624     | 5.1406     | 5.3624     |   8.6 | 84.16
Neigh   | 0          | 0          | 0          |   0.0 |  0.00
Comm    | 0.056473   | 0.27784    | 0.5555     |  36.8 |  4.55
Output  | 0.0022566  | 0.0028729  | 0.0040601  |   1.1 |  0.05
Modify  | 0.65886    | 0.659      | 0.65965    |   0.0 | 10.79
Other   |            | 0.02806    |            |       |  0.46

Nlocal:    20.375 ave 32 max 4 min
Histogram: 1 1 1 1 0 0 0 0 0 4
Nghost:    884.375 ave 935 max 836 min
Histogram: 2 2 0 0 0 0 0 0 2 2
Neighs:    2818.62 ave 4326 max 587 min
Histogram: 1 1 0 2 0 0 0 0 0 4

Total # of neighbors = 22549
Ave neighs/atom = 138.337
Neighbor list builds = 0
Dangerous builds = 0

unfix 1
###
min_style cg
minimize 1.0e-8 1.0e-8 100000 100000
WARNING: Using 'neigh_modify every 1 delay 0 check yes' setting during minimization (../min.cpp:190)
WARNING: Total cutoff < 2*bond cutoff. May need to use an increased neighbor list skin. (../pair_reaxc.cpp:413)
Per MPI rank memory allocation (min/avg/max) = 22.53 | 23.63 | 24.67 Mbytes
Step Temp E_pair E_mol TotEng Press 
     316            0    -29286.26            0    -29286.26    1039.7446 
     443            0   -29304.326            0   -29304.326    31858.705 
Loop time of 28.6926 on 8 procs for 127 steps with 163 atoms

99.7% CPU use with 8 MPI tasks x no OpenMP threads

Minimization stats:
  Stopping criterion = energy tolerance
  Energy initial, next-to-last, final = 
        -29286.2596172     -29304.3252495     -29304.3255282
  Force two-norm initial, final = 328.438 110.684
  Force max component initial, final = 45.3104 28.0251
  Final line search alpha, max atom move = 5.56253e-05 0.0015589
  Iterations, force evaluations = 127 938

MPI task timing breakdown:
Section |  min time  |  avg time  |  max time  |%varavg| %total
---------------------------------------------------------------
Pair    | 20.894     | 22.011     | 22.922     |  17.4 | 76.71
Neigh   | 0          | 0          | 0          |   0.0 |  0.00
Comm    | 0.24937    | 1.1585     | 2.2735     |  75.7 |  4.04
Output  | 0.002022   | 0.0025943  | 0.0037834  |   1.1 |  0.01
Modify  | 5.4732     | 5.4739     | 5.4767     |   0.0 | 19.08
Other   |            | 0.04617    |            |       |  0.16

Nlocal:    20.375 ave 32 max 4 min
Histogram: 1 1 1 1 0 0 0 0 0 4
Nghost:    872.625 ave 920 max 826 min
Histogram: 3 1 0 0 0 0 0 0 2 2
Neighs:    2807.88 ave 4316 max 582 min
Histogram: 1 1 0 2 0 0 0 0 0 4

Total # of neighbors = 22463
Ave neighs/atom = 137.81
Neighbor list builds = 0
Dangerous builds = 0

###
fix 1 all box/relax aniso 0.0
min_style cg
minimize 1.0e-8 1.0e-8 100000 100000
WARNING: Using 'neigh_modify every 1 delay 0 check yes' setting during minimization (../min.cpp:190)
WARNING: Total cutoff < 2*bond cutoff. May need to use an increased neighbor list skin. (../pair_reaxc.cpp:413)
Per MPI rank memory allocation (min/avg/max) = 22.53 | 23.63 | 24.67 Mbytes
Step Temp E_pair E_mol TotEng Press Volume 
     443            0   -29304.326            0   -29304.326    31858.705    3534.4487 
     513            0   -29314.631            0   -29314.631   -758.22955    3539.4927 
Loop time of 3.23253 on 8 procs for 70 steps with 163 atoms

99.9% CPU use with 8 MPI tasks x no OpenMP threads

Minimization stats:
  Stopping criterion = energy tolerance
  Energy initial, next-to-last, final = 
        -29304.3255282     -29314.6309674     -29314.6311173
  Force two-norm initial, final = 3603.27 447.969
  Force max component initial, final = 3153.18 208.31
  Final line search alpha, max atom move = 1.85798e-09 3.87037e-07
  Iterations, force evaluations = 70 115

MPI task timing breakdown:
Section |  min time  |  avg time  |  max time  |%varavg| %total
---------------------------------------------------------------
Pair    | 2.5693     | 2.7121     | 2.8369     |   6.5 | 83.90
Neigh   | 0          | 0          | 0          |   0.0 |  0.00
Comm    | 0.025634   | 0.15008    | 0.29269    |  27.8 |  4.64
Output  | 0.0010623  | 0.0013247  | 0.0018455  |   0.7 |  0.04
Modify  | 0.35382    | 0.35393    | 0.35423    |   0.0 | 10.95
Other   |            | 0.01509    |            |       |  0.47

Nlocal:    20.375 ave 32 max 4 min
Histogram: 1 1 1 1 0 0 0 0 0 4
Nghost:    877.375 ave 924 max 832 min
Histogram: 3 1 0 0 0 0 0 0 0 4
Neighs:    2810.38 ave 4315 max 585 min
Histogram: 1 1 0 2 0 0 0 0 0 4

Total # of neighbors = 22483
Ave neighs/atom = 137.933
Neighbor list builds = 0
Dangerous builds = 0

unfix 1
###
min_style cg
minimize 1.0e-8 1.0e-8 100000 100000
WARNING: Using 'neigh_modify every 1 delay 0 check yes' setting during minimization (../min.cpp:190)
WARNING: Total cutoff < 2*bond cutoff. May need to use an increased neighbor list skin. (../pair_reaxc.cpp:413)
Per MPI rank memory allocation (min/avg/max) = 22.53 | 23.63 | 24.67 Mbytes
Step Temp E_pair E_mol TotEng Press 
     513            0   -29314.631            0   -29314.631   -758.22955 
     599            0   -29320.258            0   -29320.258    29286.556 
Loop time of 20.5767 on 8 procs for 86 steps with 163 atoms

99.8% CPU use with 8 MPI tasks x no OpenMP threads

Minimization stats:
  Stopping criterion = energy tolerance
  Energy initial, next-to-last, final = 
        -29314.6311173     -29320.2581133     -29320.2583934
  Force two-norm initial, final = 358.932 24.6461
  Force max component initial, final = 41.1045 7.71573
  Final line search alpha, max atom move = 0.00021332 0.00164592
  Iterations, force evaluations = 86 679

MPI task timing breakdown:
Section |  min time  |  avg time  |  max time  |%varavg| %total
---------------------------------------------------------------
Pair    | 14.929     | 15.827     | 16.608     |  16.7 | 76.92
Neigh   | 0          | 0          | 0          |   0.0 |  0.00
Comm    | 0.1495     | 0.92735    | 1.821      |  68.9 |  4.51
Output  | 0.0013586  | 0.0016699  | 0.0023402  |   0.8 |  0.01
Modify  | 3.7877     | 3.7882     | 3.7902     |   0.0 | 18.41
Other   |            | 0.03229    |            |       |  0.16

Nlocal:    20.375 ave 32 max 4 min
Histogram: 1 1 1 1 0 0 0 0 0 4
Nghost:    868.125 ave 922 max 816 min
Histogram: 3 0 1 0 0 0 0 0 1 3
Neighs:    2804.88 ave 4308 max 583 min
Histogram: 1 1 0 2 0 0 0 0 0 4

Total # of neighbors = 22439
Ave neighs/atom = 137.663
Neighbor list builds = 0
Dangerous builds = 0

undump 1
#############
#----------- Thermo ------------
reset_timestep 0
thermo  200

thermo_style    custom step temp etotal ke pe press
velocity all create 300 12345 mom yes rot yes
fix 1 all npt temp 300 300 25.0 iso 0.0 0.0 250.0

variable vpe equal pe
variable vtemp equal temp
variable vstep equal step

fix output all print 2500 "${vstep} ${vtemp} ${vpe}" file temp-tpdh-Pt.dat screen no

dump 1 all custom 2500 thermo-tpdh-Pt.lammpstrj id type x y z

run 1000000
WARNING: Total cutoff < 2*bond cutoff. May need to use an increased neighbor list skin. (../pair_reaxc.cpp:413)
Per MPI rank memory allocation (min/avg/max) = 21.42 | 22.52 | 23.56 Mbytes
Step Temp TotEng KinEng PotEng Press 
       0          300   -29175.391    144.86737   -29320.258    31157.507 
     200    344.13012   -29206.141    166.17742   -29372.319     11809.76 
     400    340.05159   -29247.535    164.20793   -29411.743    9333.1197 
     600    276.28254   -29268.812    133.41441   -29402.226    -11171.23 
     800    312.70811   -29267.079      151.004   -29418.083    8251.8839 
    1000    299.30568   -29248.709    144.53209   -29393.241    10343.403 
    1200    257.65754    -29254.89    124.42057   -29379.311    16836.123 
    1400    297.01749   -29231.718    143.42714   -29375.145    2511.3427 
    1600    341.47575   -29224.014    164.89564    -29388.91   -18352.914 
    1800    240.72982   -29244.068    116.24632   -29360.314    22001.683 
    2000    295.45749    -29215.51    142.67383   -29358.184   -17245.229 
    2200    289.59931    -29220.52    139.84497   -29360.364   -6791.1924 
    2400    289.44319   -29236.625    139.76958   -29376.395    1557.6935 
    2600    307.46985   -29195.834    148.47449   -29344.308   -12560.141 
    2800    309.51092   -29190.694    149.46011   -29340.155    11928.664 
    3000    267.82623   -29226.412    129.33094   -29355.743    21989.933 
    3200    315.59671   -29200.583    152.39888   -29352.982   -2670.3057 
    3400    267.61755   -29204.757    129.23017   -29333.987   -9883.0372 
    3600    316.14681   -29187.068    152.66452   -29339.733    38257.389 
    3800    305.24518   -29193.903    147.40022   -29341.303    28022.756 
    4000    277.57994   -29203.916    134.04092   -29337.956    10979.756 
    4200    331.45918   -29168.516    160.05873   -29328.574   -4806.6673 
    4400    285.00488    -29195.98    137.62636   -29333.606   -2867.7945 
    4600    324.36223   -29202.288    156.63167    -29358.92   -5142.3702 
    4800    261.73324   -29227.636    126.38869   -29354.024   -2098.4472 
    5000    310.30838   -29204.629    149.84519   -29354.474     13149.51 
    5200    282.56727   -29203.674    136.44926   -29340.123    11641.814 
    5400     274.6892   -29240.079      132.645   -29372.724   -10471.445 
    5600     285.8882   -29215.608     138.0529   -29353.661    5504.9086 
    5800    311.16787   -29212.373    150.26024   -29362.634   -8869.8164 
    6000     278.9925   -29241.779    134.72303   -29376.502   -28120.325 
    6200    304.33893   -29231.314     146.9626   -29378.277    37072.822 
    6400    304.90886   -29229.736    147.23781   -29376.973    30371.897 
    6600    276.03151   -29261.791    133.29319   -29395.085    -15723.09 
    6800    298.86914   -29246.994    144.32128   -29391.315   -6173.6692 
    7000    299.96898   -29244.035    144.85239   -29388.887     -20929.7 
    7200    300.58941   -29241.089    145.15199   -29386.241   -4102.4974 
    7400    292.10302   -29220.267    141.05399   -29361.321   -19162.162 
    7600    309.61112   -29198.346    149.50849   -29347.854    25634.885 
    7800    286.23482   -29226.656    138.22029   -29364.877   -7794.6123 
    8000    320.27769   -29228.524    154.65928   -29383.184   -258.16617 
    8200    273.82858    -29261.14    132.22942   -29393.369   -4519.4804 
    8400    263.82552   -29242.119    127.39903   -29369.518   -13684.695 
    8600     317.5787   -29220.436    153.35597   -29373.792   -16827.522 
    8800    306.86034   -29238.054    148.18017   -29386.234   -7159.5189 
    9000    286.91123   -29245.599    138.54691   -29384.146    21024.167 
    9200    328.20583   -29219.665    158.48772   -29378.153    -1242.058 
    9400    313.19392   -29204.544    151.23859   -29355.782   -2019.6838 
    9600    296.60109   -29240.562    143.22606   -29383.788    14906.789 
    9800     300.1166   -29219.878    144.92367   -29364.801    9399.9518 
   10000     329.6993    -29207.97     159.2089   -29367.179    -8147.858 
   10200    279.64967   -29222.701    135.04037   -29357.742   -32680.478 
   10400    281.47793   -29246.129    135.92323   -29382.053    16268.467 
   10600    283.99026   -29216.595    137.13641   -29353.732   -26240.595 
   10800    289.88572   -29209.693    139.98327   -29349.676    4700.7673 
   11000    269.00491   -29243.865    129.90011   -29373.765   -6572.4237 
   11200      300.471   -29226.038    145.09481   -29371.133    -13273.75 
   11400    302.67728     -29214.1    146.16021   -29360.261    7222.8485 
   11600    310.54028   -29221.726    149.95718   -29371.683    46778.692 
   11800    270.18133   -29255.194    130.46819   -29385.662   -13470.324 
   12000    291.44871   -29237.952    140.73803    -29378.69   -25292.354 
   12200    307.94644   -29230.092    148.70463   -29378.797   -25358.165 
   12400    295.15387   -29253.851    142.52721   -29396.379    5141.0816 
   12600    280.21001   -29260.951    135.31095   -29396.262    22070.789 
   12800     317.9274   -29234.487    153.52435   -29388.011   -9867.3501 
   13000    306.97127   -29251.531    148.23373   -29399.765   -22383.224 
   13200    273.44198   -29261.774    132.04273   -29393.817   -16284.884 
   13400    302.39939   -29234.332    146.02601   -29380.358   -3124.9317 
   13600    293.91748   -29236.506    141.93017   -29378.436   -59780.663 
   13800    281.43212   -29254.155     135.9011   -29390.056    -8040.906 
   14000    303.69638   -29225.915    146.65232   -29372.567    28241.286 
   14200    321.70681    -29237.35     155.3494   -29392.699    4431.6487 
   14400    283.38991   -29256.477     136.8465   -29393.323   -19312.677 
   14600    327.16979   -29242.316    157.98742   -29400.303   -8077.6875 
   14800    295.59476   -29243.749    142.74012   -29386.489    38531.806 
   15000       308.09    -29219.01    148.77396   -29367.784    31710.281 
   15200     280.9976   -29247.628    135.69128    -29383.32    1964.4767 
   15400     307.1757   -29242.325    148.33245   -29390.658    11007.858 
   15600    327.29234   -29220.419     158.0466   -29378.465    7553.8742 
   15800    332.24047   -29228.976    160.43601   -29389.412    15544.058 
   16000    277.64541   -29253.393    134.07253   -29387.465    10510.391 
   16200    263.89336   -29261.598    127.43179   -29389.029     9341.291 
   16400    324.00353   -29232.589    156.45846   -29389.047    8431.3018 
   16600    283.63879   -29213.558    136.96668   -29350.525   -6718.1113 
   16800    300.05915   -29241.764    144.89593    -29386.66     -12257.1 
   17000    315.47918   -29215.635    152.34213   -29367.977    4035.9255 
   17200    322.12416   -29218.709    155.55093    -29374.26    7005.0875 
   17400    261.99911   -29234.483    126.51707       -29361   -20642.766 
   17600    320.04576   -29198.894    154.54729   -29353.441   -5538.3666 
   17800    304.52948    -29222.78    147.05461   -29369.835    36047.174 
   18000    288.52301   -29232.912    139.32523   -29372.237   -25742.858 
   18200    339.50631   -29198.451    163.94462   -29362.396   -8671.6763 
   18400    273.06487   -29224.688    131.86063   -29356.549    2442.7257 
   18600    305.56858   -29228.668    147.55639   -29376.224   -2276.7926 
   18800    312.81025   -29204.871    151.05332   -29355.924    3341.7002 
   19000    307.10637   -29222.693    148.29897   -29370.992   -10278.559 
   19200    295.86578   -29234.007    142.87099   -29376.878    31539.114 
   19400    318.74391   -29207.548    153.91864   -29361.467   -24330.412 
   19600    300.96053   -29220.932     145.3312   -29366.263   -8122.5479 
   19800    306.66594   -29230.097    148.08629   -29378.184   -20343.651 
   20000      313.241   -29224.081    151.26133   -29375.343    24769.976 
   20200    344.73854   -29200.454    166.47122   -29366.925   -818.77767 
   20400    279.87943   -29235.013    135.15132   -29370.164    8759.7289 
   20600    295.10706    -29230.15    142.50461   -29372.655   -119.32855 
   20800    352.05324   -29200.999    170.00342   -29371.002   -2820.0651 
   21000     259.0223   -29234.876    125.07959   -29359.956    5485.6062 
   21200    288.60412   -29231.895     139.3644    -29371.26      12024.9 
   21400    311.24038   -29206.726    150.29525   -29357.021     19462.11 
   21600    280.13008   -29229.793    135.27236   -29365.066   -15326.964 
   21800    301.77056   -29229.446    145.72236   -29375.169    5954.3891 
   22000    309.51201    -29205.42    149.46063   -29354.881   -6070.2687 
   22200     289.7589   -29243.009    139.92203   -29382.931    2451.7361 
   22400    321.11731   -29220.277    155.06473   -29375.342   -12374.124 
   22600    299.19927   -29211.843     144.4807   -29356.323   -43736.489 
   22800    273.76803   -29242.509    132.20018    -29374.71   -9955.7288 
   23000    297.31639   -29225.736    143.57148   -29369.308   -14630.408 
   23200    294.29723   -29212.569    142.11355   -29354.683   -2986.2679 
   23400    306.34494   -29231.309    147.93128    -29379.24   -15588.469 
   23600    257.22166   -29254.571    124.21009   -29378.781    7144.0252 
   23800     300.6151   -29214.167     145.1644   -29359.332   -13562.083 
   24000    302.29991   -29220.763    145.97798   -29366.741   -580.20317 
   24200    260.28788   -29239.917    125.69073   -29365.608    5243.6784 
   24400    307.76116   -29211.484    148.61516   -29360.099    10262.505 
   24600    295.90491   -29215.497    142.88988   -29358.387   -16890.091 
   24800    266.19126   -29245.651    128.54143   -29374.192    29418.899 
   25000     262.8912   -29254.033    126.94785   -29380.981   -15817.089 
   25200    303.57086   -29225.445     146.5917   -29372.037   -17569.006 
   25400    300.08685   -29207.974    144.90931   -29352.884    24740.674 
   25600    298.18713   -29239.591    143.99195   -29383.583   -4068.8725 
   25800    297.79835   -29228.051    143.80421   -29371.855    34603.421 
   26000    318.77528   -29195.904    153.93379   -29349.838    12448.798 
   26200    313.78838   -29206.348    151.52565   -29357.874    21458.657 
   26400    281.44879   -29230.646    135.90915   -29366.555   -10295.299 
   26600     295.8725   -29241.252    142.87423   -29384.126    20273.022 
   26800    320.75364   -29210.715    154.88912   -29365.604    16914.736 
   27000    293.63453    -29229.86    141.79354   -29371.653    21193.585 
   27200    299.16259    -29239.53    144.46299   -29383.993    2182.6799 
   27400    302.28344   -29219.317    145.97002   -29365.287     21692.73 
   27600    346.95646   -29188.742    167.54223   -29356.284    6770.7149 
   27800    291.53231   -29234.801    140.77839    -29375.58    28369.227 
   28000    281.91878    -29247.35    136.13611   -29383.486   -5775.3004 
   28200    300.10562   -29215.042    144.91837    -29359.96    20049.843 
   28400    297.67065   -29228.709    143.74255   -29372.451    -20780.91 
   28600    291.91819   -29234.884    140.96473   -29375.849   -11782.844 
   28800    307.15043   -29226.652    148.32025   -29374.972   -18153.153 
   29000    339.10088   -29202.691    163.74884    -29366.44    22184.513 
   29200    278.58183    -29234.66    134.52472   -29369.185   -14412.234 
   29400    299.47834   -29236.734    144.61546    -29381.35   -20814.017 
   29600    288.24426    -29238.35    139.19063    -29377.54   -5647.4765 
   29800    319.43754   -29222.176    154.25359   -29376.429   -6272.3242 
   30000    307.15858   -29247.906    148.32418   -29396.231    26485.265 
   30200    279.66734   -29241.279    135.04891   -29376.327   -10605.091 
   30400    331.64942   -29227.368     160.1506   -29387.519   -418.60899 
   30600    288.98159   -29237.251    139.54668   -29376.798   -19741.736 
   30800    287.65159   -29259.789    138.90443   -29398.693    -3180.169 
   31000    316.63304   -29226.528    152.89932   -29379.427    1277.2004 
   31200    301.87058   -29225.133    145.77066   -29370.903    5512.6344 
   31400    285.81028    -29245.53    138.01528   -29383.545      1543.41 
   31600    290.81344   -29252.526    140.43126   -29392.957   -20569.034 
   31800    305.40712   -29221.409    147.47842   -29368.887    7826.9851 
   32000    328.37337   -29234.272    158.56862   -29392.841   -19122.263 
   32200    275.05545   -29258.558    132.82186    -29391.38   -14695.277 
   32400    299.00705   -29238.543    144.38788   -29382.931    3389.5315 
   32600     303.3126   -29219.466      146.467   -29365.933     19410.15 
   32800    298.38115   -29236.423    144.08564   -29380.508   -13734.134 
   33000    282.80692   -29241.682    136.56498   -29378.247    11850.358 
   33200    296.44423   -29223.168    143.15032   -29366.319    4433.7617 
   33400    283.45722   -29237.459      136.879   -29374.338   -3343.2954 
   33600    275.26523   -29260.861    132.92317   -29393.784   -4796.3409 
   33800    303.78353   -29229.028     146.6944   -29375.722    7885.1379 
   34000    312.28958   -29227.881     150.8019   -29378.683   -12923.146 
   34200      277.496    -29242.32    134.00038    -29376.32    43794.614 
   34400    326.80021    -29214.36    157.80896   -29372.169   -3304.4606 
   34600    292.51156   -29239.024    141.25127   -29380.275    23567.412 
   34800    289.61285   -29229.648     139.8515     -29369.5   -533.49691 
   35000    310.59769   -29213.763     149.9849   -29363.748      32786.2 
   35200    269.98596   -29247.634    130.37385   -29378.008    -13419.02 
   35400    286.92159   -29223.743    138.55192   -29362.295    4292.2802 
   35600    310.12115   -29216.708    149.75478   -29366.463    1204.6307 
   35800    251.77116   -29248.978    121.57809   -29370.556   -10283.757 
   36000    290.68717   -29226.022    140.37029   -29366.392    -10933.57 
   36200    329.12109   -29212.865    158.92969   -29371.795    39708.558 
   36400    270.17257   -29247.231    130.46397   -29377.695    -7924.086 
   36600     299.2718   -29226.741    144.51573   -29371.257   -30202.466 
   36800    295.88128   -29220.278    142.87848   -29363.156   -3432.4266 
   37000     295.7686   -29234.731    142.82406   -29377.555   -9105.2208 
   37200    266.81763   -29226.607    128.84389   -29355.451   -12261.583 
   37400    318.15813   -29212.346    153.63577   -29365.981    5064.8893 
   37600    275.01196   -29242.324    132.80086   -29375.125    6169.8084 
   37800    302.23339   -29248.871    145.94585   -29394.817    37732.607 
   38000    296.59372   -29222.957    143.22251    -29366.18    3581.1015 
   38200    306.19615   -29209.834    147.85944   -29357.693     8623.194 
   38400    269.38355   -29242.801    130.08295   -29372.884    22681.595 
   38600    303.19582   -29228.199     146.4106   -29374.609    3220.9249 
   38800    283.72058    -29225.98    137.00618   -29362.986    11475.778 
   39000    298.31403   -29222.784    144.05323   -29366.837    8834.8421 
   39200    297.32577   -29205.412      143.576   -29348.988    1572.1527 
   39400    279.44351   -29237.425    134.94082   -29372.366    -14590.49 
   39600    309.82865   -29228.916    149.61354    -29378.53   -9141.9492 
   39800    331.67699    -29199.36    160.16391   -29359.524   -21371.567 
   40000      299.047   -29225.602    144.40717   -29370.009    8042.1963 
   40200    293.48765   -29226.509    141.72261   -29368.232    9707.3835 
   40400    323.86331   -29195.707    156.39075   -29352.098    7184.7423 
   40600    323.39556   -29224.922    156.16488   -29381.087   -3697.0396 
   40800    315.03425   -29222.953    152.12727    -29375.08    -15745.12 
   41000    324.46325    -29190.23    156.68046   -29346.911    31332.944 
   41200    320.25286   -29222.124     154.6473   -29376.772   -10721.264 
   41400    310.78762   -29213.894    150.07661   -29363.971    26054.259 
   41600    301.16164   -29202.416    145.42831   -29347.845   -7510.5019 
   41800    302.36588   -29238.177    146.00983   -29384.187    19467.023 
   42000    302.86976   -29213.273    146.25315   -29359.526   -1202.3062 
   42200    297.56136   -29209.192    143.68977   -29352.882    45414.289 
   42400    295.50074     -29227.1    142.69471   -29369.795   -22537.351 
   42600    310.47069   -29220.457    149.92357    -29370.38   -169.36263 
   42800    299.53271   -29204.507    144.64172   -29349.149   -12021.451 
   43000    300.23013   -29233.377     144.9785   -29378.356   -12774.925 
   43200    288.35355   -29216.806     139.2434   -29356.049    2545.5575 
   43400    326.37558   -29181.158     157.6039   -29338.762    8440.6293 
   43600    312.07389   -29206.778    150.69775   -29357.476    10159.955 
   43800    284.14318   -29229.555    137.21025   -29366.765    -1275.455 
   44000    311.08431   -29216.412    150.21988   -29366.632    -22591.16 
   44200    302.70101   -29208.263    146.17166   -29354.434    11186.141 
   44400    285.77246   -29222.063    137.99701    -29360.06     15208.31 
   44600    297.18184   -29216.871     143.5065   -29360.377    15051.855 
   44800    332.03696   -29213.701    160.33774   -29374.039    17550.979 
   45000    288.60582   -29238.282    139.36522   -29377.647    1487.5178 
   45200    317.68938    -29206.65    153.40942    -29360.06   -16956.975 
   45400    298.75856   -29214.362    144.26789    -29358.63    4440.3809 
   45600    289.34002   -29227.825    139.71976   -29367.544    12779.432 
   45800    317.36829   -29198.658    153.25436   -29351.912    7142.7397 
   46000    290.75916   -29221.076    140.40505   -29361.481   -24944.649 
   46200    288.40055   -29223.974     139.2661    -29363.24   -15993.999 
   46400    331.77179   -29197.154    160.20969   -29357.364    -9064.994 
   46600    269.57604   -29234.818     130.1759   -29364.994   -11855.705 
   46800    292.37517   -29220.911     141.1854   -29362.096     5107.155 
   47000    305.44997   -29203.059    147.49911   -29350.558    -14178.95 
   47200    283.52851   -29236.734    136.91343   -29373.647    -7152.418 
   47400     274.6405   -29223.324    132.62149   -29355.946   -6881.7859 
   47600    293.96896   -29214.336    141.95503   -29356.291    -9286.418 
   47800    283.35358   -29246.289    136.82896   -29383.118   -30728.365 
   48000    309.04841   -29219.416    149.23677   -29368.653    -671.2364 
   48200    295.20231   -29225.367    142.55061   -29367.918    819.49971 
   48400    259.38173    -29238.49    125.25316   -29363.743    19618.521 
   48600    286.77068   -29212.737    138.47905   -29351.216   -1593.1999 
   48800    300.71002   -29226.007    145.21023   -29371.217   -7513.4575 
   49000    283.15931     -29238.3    136.73515   -29375.036   -23083.081 
   49200    298.28636   -29216.852    144.03987   -29360.892    42789.198 
   49400    306.86287   -29212.074    148.18139   -29360.255   -24751.312 
   49600    289.43499   -29239.903    139.76562   -29379.668    1860.8481 
   49800    305.58318   -29210.632    147.56344   -29358.196    13405.652 
   50000    272.25128   -29217.628    131.46776   -29349.096     18833.12 
   50200     307.1973   -29226.269    148.34288   -29374.612   -8508.3114 
   50400    337.51829   -29195.361    162.98462   -29358.346   -45652.407 
   50600    310.09707   -29227.521    149.74316   -29377.264    30925.837 
   50800    292.73556   -29226.619    141.35944   -29367.978   -8268.4863 
   51000    347.21017    -29198.62    167.66475   -29366.285    1275.5043 
   51200    257.95723    -29232.71    124.56528   -29357.276    2127.9349 
   51400    287.26664   -29222.704    138.71854   -29361.422    17939.018 
   51600    307.44155   -29208.589    148.46083    -29357.05       -17016 
   51800    275.70737   -29240.999    133.13667   -29374.135    4176.1942 
   52000    313.13354   -29217.497    151.20944   -29368.706   -229.71456 
   52200    282.32063   -29245.223    136.33016   -29381.554    -33686.98 
   52400    265.64664   -29240.948    128.27843   -29369.226   -18400.852 
   52600    318.04016   -29220.644     153.5788   -29374.222    -3625.545 
   52800    262.66555   -29251.909    126.83889   -29378.748   -8233.5249 
   53000    307.52133   -29219.099    148.49935   -29367.598   -25167.126 
   53200    309.15002   -29226.112    149.28583   -29375.397    35475.419 
   53400    282.95699    -29242.07    136.63745   -29378.708    3377.0219 
   53600    335.84773   -29209.296    162.17792   -29371.474    16497.659 
   53800    281.06489   -29233.735    135.72377   -29369.459   -20812.875 
   54000    300.44151   -29235.718    145.08057   -29380.798   -32248.694 
   54200    315.89911   -29203.315    152.54491    -29355.86   -10262.295 
   54400    307.13158   -29236.721    148.31114   -29385.032    6867.8095 
   54600    307.53057   -29248.453    148.50382   -29396.957    37252.166 
   54800      288.078   -29270.007    139.11034   -29409.117    22489.376 
   55000    298.79573   -29237.127    144.28584   -29381.413    22932.596 
   55200    303.28945   -29237.576    146.45581   -29384.032    12069.454 
   55400    279.81239   -29268.478    135.11895   -29403.597   -30658.378 
   55600    296.89111   -29238.095    143.36611   -29381.462    12983.482 
   55800     287.5077   -29235.601    138.83495   -29374.436   -55098.325 
   56000    311.45975   -29225.752    150.40118   -29376.154   -31071.725 
   56200    335.37022    -29216.31    161.94734   -29378.257    -24660.18 
   56400    280.68508   -29247.685    135.54036   -29383.226   -15240.195 
   56600    301.85004   -29226.569    145.76074   -29372.329   -3106.3947 
   56800     332.1264   -29231.331    160.38092   -29391.712    37333.592 
   57000    284.84437   -29249.097    137.54885   -29386.646   -7003.5955 
   57200    295.67622   -29230.583    142.77945   -29373.362   -12945.096 
   57400    293.76265   -29225.025    141.85541    -29366.88    15407.744 
   57600    281.93729   -29241.551    136.14505   -29377.696   -25615.239 
   57800    296.43378   -29224.468    143.14527   -29367.613   -8884.2122 
   58000     295.8765     -29228.8    142.87616   -29371.676   -6384.0704 
   58200    287.64492   -29243.557    138.90121   -29382.458    2550.2112 
   58400    305.36304   -29202.477    147.45713   -29349.934   -45203.984 
   58600    311.66031   -29219.529    150.49803   -29370.028    5444.1796 
   58800    288.91408   -29239.419    139.51407   -29378.933    28843.297 
   59000    323.57226   -29216.633    156.25021   -29372.883    10712.173 
   59200    308.51644   -29235.057    148.97988   -29384.037   -5367.4264 
   59400    306.94543   -29239.906    148.22125   -29388.127   -2160.5299 
   59600    300.62169   -29218.765    145.16758   -29363.933    6645.4764 
   59800    252.37414   -29254.712    121.86926   -29376.581   -8011.4077 
   60000    312.38524   -29232.401    150.84809   -29383.249   -3885.5886 
   60200    275.39081   -29224.217    132.98381   -29357.201    20586.291 
   60400    308.35235   -29257.084    148.90065   -29405.984     9605.694 
   60600    292.72578   -29252.998    141.35471   -29394.353   -9842.8677 
   60800      281.466   -29229.569    135.91746   -29365.486    22591.018 
   61000    304.65319   -29223.334    147.11435   -29370.449   -5891.9457 
   61200    282.54215   -29238.116    136.43712   -29374.553   -36827.831 
   61400    308.64858   -29242.204    149.04369   -29391.248   -8073.6267 
   61600     322.1367   -29215.822    155.55699   -29371.379    51991.186 
   61800    295.38773   -29236.968    142.64014   -29379.608   -10380.027 
   62000    278.30326   -29247.278     134.3902   -29381.668    72285.717 
   62200    303.77345   -29231.507    146.68953   -29378.196   -3009.9892 
   62400     314.9838    -29210.85    152.10292   -29362.953   -1706.4835 
   62600    277.54644   -29248.739    134.02474   -29382.764   -16955.131 
   62800    294.77241   -29235.528    142.34301   -29377.871    33719.922 
   63000    316.22306   -29221.064    152.70134   -29373.766    24001.736 
   63200     284.1689   -29258.974    137.22267   -29396.197   -31851.157 
   63400    314.60786   -29232.864    151.92138   -29384.785    11914.002 
   63600    290.43531   -29225.863    140.24866   -29366.111   -12732.577 
   63800    277.01453   -29259.889    133.76789   -29393.657   -40321.416 
   64000    299.92212   -29241.116    144.82976   -29385.945   -2004.0309 
   64200    318.49669   -29239.371    153.79926    -29393.17    16201.896 
   64400    263.19322    -29273.05     127.0937   -29400.143   -9055.6922 
   64600    283.75017   -29267.081    137.02047   -29404.102    14015.553 
   64800    293.96536   -29247.925    141.95329   -29389.879   -10871.271 
   65000    326.03611   -29232.992    157.43998   -29390.432   -46742.371 
   65200    279.48942   -29239.179    134.96299   -29374.142    31926.943 
   65400    305.77723   -29257.167    147.65714   -29404.825    -35746.19 
   65600    320.09383   -29227.134     154.5705   -29381.705    14903.919 
   65800    297.38347   -29228.392    143.60387   -29371.996   -8358.5836 
   66000    282.11463   -29256.647    136.23068   -29392.878   -2599.7357 
   66200    323.38093   -29222.375    156.15781   -29378.533    28078.815 
   66400     303.7263    -29238.69    146.66677   -29385.356    42075.477 
   66600    289.52614   -29245.276    139.80964   -29385.085   -48456.445 
   66800    338.78727   -29221.378     163.5974   -29384.975   -13058.429 
   67000    307.55862   -29245.273    148.51736    -29393.79    11890.566 
   67200    327.61823   -29230.378    158.20397   -29388.582   -32365.755 
   67400    311.32927   -29220.631    150.33817    -29370.97    3481.4802 
   67600    273.67827   -29245.812    132.15684   -29377.968   -36333.301 
   67800    310.18869   -29225.058     149.7874   -29374.845   -25566.689 
   68000    294.88271   -29244.842    142.39628   -29387.238    9013.1209 
   68200    280.85548   -29241.199    135.62265   -29376.822   -19333.844 
   68400    312.58213   -29221.008    150.94317   -29371.951    21112.537 
   68600    278.83968   -29244.886    134.64923   -29379.535   -19481.559 
   68800    302.80958   -29251.178    146.22409   -29397.402    8825.1087 
   69000    323.18923   -29218.334    156.06524   -29374.399   -21566.751 
   69200    281.05625   -29247.125     135.7196   -29382.845    33434.238 
   69400    267.11842   -29240.705    128.98914   -29369.694    -24327.66 
   69600    336.71099    -29217.93    162.59479   -29380.524   -4614.0075 
   69800     274.5382   -29240.161    132.57209   -29372.733   -1679.0686 
   70000    334.43933   -29240.104    161.49782   -29401.602   -18504.219 
   70200    326.30567   -29208.908    157.57014   -29366.478     1127.546 
   70400     299.6723   -29237.005    144.70913   -29381.714   -48319.341 
   70600    285.82106   -29242.081    138.02048   -29380.101    5110.5878 
   70800    304.42025    -29229.02    147.00187   -29376.022    18763.406 
   71000    270.73689   -29238.718    130.73647   -29369.455    5909.8768 
   71200    241.39045   -29269.633    116.56533   -29386.199    34094.945 
   71400    312.26676   -29231.325    150.79088   -29382.116    3583.6853 
   71600    318.50618   -29232.293    153.80384   -29386.097   -26439.946 
   71800    265.70236   -29260.209    128.30534   -29388.515    12874.487 
   72000    309.38842   -29222.064    149.40096   -29371.465    5884.3954 
   72200      298.887   -29235.439    144.32991   -29379.769   -30292.043 
   72400    302.80448   -29253.266    146.22163   -29399.488    31040.093 
   72600    343.89278   -29218.989    166.06281   -29385.052   -5693.8025 
   72800     313.4762   -29247.389    151.37491   -29398.764   -11682.476 
   73000    299.01929   -29241.157    144.39379   -29385.551    4887.9444 
   73200    282.69529   -29263.066    136.51108   -29399.578   -14653.879 
   73400    304.09944   -29255.501    146.84695   -29402.347    5477.5821 
   73600    312.50067   -29239.911    150.90383   -29390.815   -48128.658 
   73800    294.74459   -29258.852    142.32958   -29401.182   -10267.351 
   74000    302.89812   -29253.766    146.26685   -29400.033   -17790.515 
   74200    332.67902   -29226.564    160.64778   -29387.211   -36713.875 
   74400    306.35815   -29250.649    147.93767   -29398.587    8176.2507 
   74600    286.58072   -29258.661    138.38731   -29397.048   -25084.111 
   74800    300.71567   -29235.499    145.21296   -29380.712   -34705.164 
   75000    283.20623    -29252.38     136.7578   -29389.138    41801.135 
   75200    302.99814   -29252.589    146.31514   -29398.904   -31271.311 
   75400    306.11325   -29233.346    147.81941   -29381.166    -4769.477 
   75600    300.86119   -29233.758    145.28323   -29379.041   -42891.447 
   75800    284.01025   -29251.582    137.14606   -29388.728   -2870.3776 
   76000    286.27261    -29228.13    138.23853   -29366.368    33565.681 
   76200     313.5926   -29228.583    151.43112   -29380.015    5570.9468 
   76400    286.25822   -29239.983    138.23158   -29378.215   -9302.2883 
   76600    302.11673   -29232.194    145.88952   -29378.083    26452.813 
   76800    288.68739   -29257.039    139.40461   -29396.443   -1796.3772 
   77000     275.8279   -29231.074    133.19487   -29364.269   -23798.135 
   77200    317.43733   -29225.257     153.2877   -29378.545    16089.974 
   77400    293.33629    -29263.72    141.64952   -29405.369   -6279.2622 
   77600    257.20408   -29250.208     124.2016    -29374.41    15732.112 
   77800    311.56073    -29227.19    150.44994    -29377.64    30979.138 
   78000    306.20701    -29230.03    147.86468   -29377.895    18881.361 
   78200    320.12598   -29251.221    154.58603   -29405.807   -596.34197 
   78400     312.5057   -29229.245    150.90626   -29380.151    139.91385 
   78600    321.25128   -29231.408    155.12942   -29386.537    38853.991 
   78800    260.72113   -29261.396    125.89994   -29387.296   -24843.602 
   79000    308.82301   -29236.848    149.12792   -29385.976     5673.276 
   79200    305.68909   -29237.967    147.61458   -29385.582    36152.706 
   79400    310.87279   -29254.559    150.11774   -29404.677   -7757.5815 
   79600    316.23718   -29218.003    152.70816   -29370.711   -1440.9788 
   79800    304.58466   -29240.006    147.08126   -29387.088    2158.4411 
   80000    295.17429   -29237.749    142.53708   -29380.286   -23234.215 
   80200    289.95147     -29227.7    140.01502   -29367.715   -1144.0931 
   80400    307.00359   -29221.043    148.24934   -29369.292    26518.268 
   80600    356.47681   -29191.514    172.13953   -29363.654   -20392.544 
   80800    279.84379   -29225.201    135.13411   -29360.335    25039.144 
   81000    300.53108   -29236.825    145.12382   -29381.948    -6461.283 
   81200    266.53822   -29262.936    128.70897   -29391.645    41144.393 
   81400    292.97959   -29232.845    141.47727   -29374.322    15886.165 
   81600     282.5141   -29242.029    136.42358   -29378.453   -10932.677 
   81800    266.44985   -29261.035    128.66629   -29389.702    16948.467 
   82000    304.12979   -29222.279    146.86161   -29369.141     14332.72 
   82200    294.93257   -29246.824    142.42035   -29389.244    29778.876 
   82400    288.48832   -29241.536    139.30848   -29380.844    42257.697 
   82600      337.533   -29214.772    162.99173   -29377.764     4413.496 
   82800    292.37392   -29240.006     141.1848   -29381.191   -5056.5414 
   83000    285.06182   -29246.891    137.65385   -29384.545   -14563.458 
   83200    322.36422   -29216.549    155.66685   -29372.216    5985.8638 
   83400    282.42532    -29243.44    136.38071    -29379.82    16417.497 
   83600    322.33184   -29242.753    155.65122   -29398.405    27206.685 
   83800    315.64253   -29215.245    152.42101   -29367.666    43349.427 
   84000    329.67515   -29222.228    159.19724   -29381.425     12720.44 
   84200    290.34685   -29242.248    140.20595   -29382.454   -6864.5643 
   84400    275.29029   -29234.311    132.93527   -29367.247   -1830.2289 
   84600    315.11543    -29214.54    152.16648   -29366.707   -15488.262 
   84800     288.4429   -29235.994    139.28655   -29375.281   -29405.038 
   85000    326.85304   -29224.322    157.83447   -29382.157    33907.259 
   85200    339.04412   -29203.211    163.72143   -29366.933    -30612.65 
   85400    324.24312   -29204.369    156.57416   -29360.944    20304.702 
   85600    278.99401   -29227.321    134.72376   -29362.045   -44893.918 
   85800      293.442   -29227.551    141.70057   -29369.252    -10676.77 
   86000    312.05283   -29211.257    150.68757   -29361.944   -16349.303 
   86200    286.80803   -29243.811    138.49708   -29382.308   -12607.521 
   86400    285.20626   -29235.485     137.7236   -29373.209   -5204.8502 
   86600    336.02127   -29196.135    162.26172   -29358.397   -41694.656 
   86800    331.86921   -29231.566    160.25673   -29391.822    -38323.48 
   87000     283.6699    -29252.03     136.9817   -29389.012   -1221.3784 
   87200     321.2455   -29230.559    155.12663   -29385.686    8494.0235 
   87400    297.67355    -29236.14    143.74395   -29379.884     15525.89 
   87600    277.81137   -29240.119    134.15267   -29374.272   -2496.7748 
   87800    317.05017   -29237.669    153.10075    -29390.77    21527.536 
   88000    308.50397   -29215.654    148.97386   -29364.628   -1776.7579 
   88200    309.64944   -29224.165      149.527   -29373.692    22886.492 
   88400    288.42765   -29237.213    139.27918   -29376.492    20589.539 
   88600     313.2409    -29222.58    151.26128   -29373.842     16734.09 
   88800    261.15458    -29256.57    126.10926    -29382.68    27423.805 
   89000    306.44212   -29234.725    147.97821   -29382.703    22754.408 
   89200    320.97023   -29230.089    154.99371   -29385.082    13616.408 
   89400    293.48621   -29260.767    141.72192   -29402.489    3836.4692 
   89600    308.43097   -29243.668    148.93861   -29392.607   -7154.6866 
   89800    306.30843   -29223.821    147.91366   -29371.735    22269.448 
   90000    299.36237   -29230.291    144.55946    -29374.85   -18279.216 
   90200    263.66162   -29251.713    127.31988   -29379.033   -8161.8582 
   90400     292.6115   -29223.388    141.29953   -29364.687    7843.0687 
   90600    300.42008   -29226.796    145.07022   -29371.866   -24033.716 
   90800    287.60139   -29249.515    138.88019   -29388.396    53376.885 
   91000    280.22066   -29268.302     135.3161   -29403.619    22719.697 
   91200    307.07254   -29240.877    148.28264    -29389.16    12339.521 
   91400    298.82953   -29227.437    144.30216   -29371.739   -29465.208 
   91600    296.60179   -29228.991     143.2264   -29372.218    4951.7259 
   91800      266.593   -29255.688    128.73542   -29384.423    36563.902 
   92000     329.4486   -29224.763    159.08784   -29383.851    5571.2912 
   92200    277.37083   -29230.541    133.93994   -29364.481    -7570.797 
   92400    261.38024   -29251.875    126.21822   -29378.094   -35012.224 
   92600    299.48904   -29228.517    144.62063   -29373.138    4886.9812 
   92800    308.24894   -29222.447    148.85071   -29371.298    7852.1989 
   93000       266.84   -29255.824     128.8547   -29384.678    -18059.51 
   93200    303.63555   -29241.406    146.62294   -29388.029   -15666.859 
   93400    301.41443   -29228.775    145.55039   -29374.325      62558.4 
   93600    301.71734   -29233.298    145.69665   -29378.995    -20879.33 
   93800    278.22957    -29244.11    134.35462   -29378.464    13452.971 
   94000    303.38934   -29226.785    146.50405   -29373.289   -4531.5512 
   94200    320.11684   -29217.757    154.58161   -29372.339    24634.068 
   94400    263.72532   -29246.485    127.35065   -29373.836   -4759.7004 
   94600    297.20701   -29222.111    143.51866    -29365.63    8324.0916 
   94800    307.40558   -29220.516    148.44346   -29368.959    27210.177 
   95000     299.1902   -29231.997    144.47632   -29376.473    22571.414 
   95200     287.6459   -29257.444    138.90168   -29396.346     21530.56 
   95400    271.11241   -29260.469     130.9178   -29391.387    4832.1406 
   95600    323.20727   -29227.678    156.07396   -29383.752    1678.1797 
   95800    283.05293   -29253.451    136.68378   -29390.134   -14908.951 
   96000    285.49893    -29246.93    137.86493   -29384.795   -8881.0938 
   96200    301.52008   -29242.093     145.6014   -29387.694   -13619.331 
   96400    265.83924   -29241.382    128.37144   -29369.753     17095.28 
   96600      311.275   -29214.134    150.31197   -29364.445   -35144.858 
   96800    286.01891    -29240.99    138.11602   -29379.106   -17816.972 
   97000    261.39214   -29240.409    126.22397   -29366.633    5579.9788 
   97200    303.07128   -29222.258    146.35046   -29368.608    737.10861 
   97400    295.52171    -29243.82    142.70484   -29386.525   -21116.424 
   97600    285.00315    -29246.05    137.62552   -29383.675   -13758.671 
   97800    327.87758   -29230.716    158.32921   -29389.045     -17872.4 
   98000    283.62389   -29260.158    136.95949   -29397.117    26628.795 
   98200    294.32112   -29248.552    142.12509   -29390.677    4678.9956 
   98400    349.05553   -29238.278    168.55585   -29406.834   -7955.8306 
   98600    285.97766   -29264.327     138.0961   -29402.424    25064.615 
   98800    307.65897   -29235.455    148.56582   -29384.021    25402.141 
   99000    286.15951   -29240.732    138.18392   -29378.916   -28136.566 
   99200      267.008   -29260.822    128.93582   -29389.758    35691.013 
   99400    284.32159   -29246.601     137.2964   -29383.898    6510.6955 
   99600    323.58039   -29229.777    156.25413   -29386.031   -6997.8233 
   99800    277.01214   -29244.613    133.76673    -29378.38   -39372.618 
  100000    289.77277   -29245.961    139.92873   -29385.889   -30781.094 
  100200     315.8222   -29221.698    152.50777   -29374.206   -28236.463 
  100400    286.23178   -29243.821    138.21882    -29382.04    22112.312 
  100600    305.98147   -29240.826    147.75577   -29388.582    22176.715 
  100800    313.38161   -29219.969    151.32923   -29371.298   -24937.547 
  101000    284.89121   -29249.826    137.57147   -29387.397    21034.608 
  101200    301.89241   -29229.191     145.7812   -29374.972    23799.098 
  101400    292.52822   -29234.283    141.25931   -29375.542   -97.230657 
  101600    276.98626   -29251.421    133.75423   -29385.175    7718.6184 
  101800    331.23637    -29226.12    159.95114   -29386.071   -14513.851 
  102000    273.52491   -29259.662    132.08278   -29391.745   -15112.754 
  102200     288.2104   -29243.567    139.17428   -29382.742   -25223.429 
  102400    312.94205   -29226.702    151.11697   -29377.819     13343.47 
  102600    288.77937   -29245.502    139.44902   -29384.951    3458.6391 
  102800    262.72402   -29256.437    126.86713   -29383.304   -11019.977 
  103000     317.5107   -29234.662    153.32313   -29387.985   -35595.942 
  103200    303.16754   -29236.866    146.39695   -29383.263   -13017.144 
  103400    287.49684    -29256.48     138.8297    -29395.31   -11992.999 
  103600    334.07088   -29226.904     161.3199   -29388.223   -27948.367 
  103800    296.18289   -29230.074    143.02412   -29373.098   -20715.051 
  104000    278.79359   -29260.188    134.62698   -29394.815   -3555.8003 
  104200    296.73718   -29253.957    143.29178   -29397.249    37511.169 
  104400    308.43247   -29225.875    148.93934   -29374.814    1831.0346 
  104600    314.84102   -29222.004    152.03397   -29374.038   -28962.189 
  104800    286.89855   -29252.025    138.54079   -29390.566     4412.206 
  105000    328.62331   -29223.116    158.68931   -29381.806    25673.101 
  105200    305.31075   -29231.314    147.43188   -29378.746    -25227.62 
  105400     292.8895   -29250.038    141.43377   -29391.472   -5558.9961 
  105600    297.02146   -29248.803    143.42906   -29392.232   -2538.5999 
  105800    327.66834   -29222.488    158.22816   -29380.716    22014.405 
  106000    301.63128   -29251.612     145.6551   -29397.267      26313.5 
  106200    309.65588   -29240.329    149.53011    -29389.86   -18022.988 
  106400     328.1465   -29221.046    158.45906   -29379.505    13472.202 
  106600    274.65588    -29248.35    132.62892   -29380.979   -2217.0457 
  106800    343.00134   -29217.504    165.63234   -29383.136    11498.526 
  107000    298.84085   -29223.246    144.30762   -29367.554    16997.461 
  107200    290.16619   -29237.286    140.11871   -29377.404   -1682.2592 
  107400     312.1507   -29233.177    150.73483   -29383.912   -14967.899 
  107600    303.42265   -29231.988    146.52014   -29378.508   -32653.297 
  107800     287.6207   -29237.821    138.88951    -29376.71   -22686.233 
  108000    273.71331   -29257.878    132.17376   -29390.052   -21892.642 
  108200    312.60097   -29227.006    150.95227   -29377.959   -39050.641 
  108400    296.65926   -29234.866    143.25415    -29378.12    10307.343 
  108600    262.07115   -29264.603    126.55186   -29391.155    21994.864 
  108800    310.72247   -29224.577    150.04515   -29374.622    4082.7932 
  109000    298.36198    -29226.63    144.07638   -29370.706   -1720.1953 
  109200    278.93392    -29253.11    134.69474   -29387.805   -32581.047 
  109400    327.49617   -29217.675    158.14503    -29375.82   -14944.651 
  109600    298.35816   -29236.172    144.07454   -29380.247   -2990.8336 
  109800    288.39916   -29247.392    139.26542   -29386.657   -9150.1707 
  110000    337.02676   -29208.508    162.74726   -29371.255    12859.566 
  110200    291.58835   -29236.622    140.80546   -29377.428    17282.862 
  110400    305.04571   -29247.431     147.3039   -29394.735   -23953.965 
  110600    321.47074   -29218.989     155.2354   -29374.225   -38561.137 
  110800       330.05   -29230.732    159.37825    -29390.11    14587.026 
  111000    293.54386   -29242.572    141.74976   -29384.321   -17979.455 
  111200    321.69459   -29221.652     155.3435   -29376.995    31237.474 
  111400     322.3449   -29221.018    155.65753   -29376.676    1330.9302 
  111600    304.86155   -29237.501    147.21497   -29384.716   -19176.753 
  111800    282.53296   -29256.869    136.43269   -29393.301    37212.791 
  112000     289.8416   -29225.326    139.96196   -29365.288   -25395.415 
  112200    283.61501   -29235.534     136.9552    -29372.49   -38943.543 
  112400    281.12348   -29252.653    135.75206   -29388.405   -9705.0778 
  112600    301.24821   -29236.808    145.47012   -29382.278    18116.998 
  112800    321.62221   -29218.447    155.30854   -29373.755   -32243.622 
  113000    335.53639   -29205.927    162.02758   -29367.954    18379.742 
  113200    288.00599   -29239.967    139.07557   -29379.043   -24208.584 
  113400    293.78133   -29223.009    141.86443   -29364.874   -16213.241 
  113600    307.52058   -29217.215    148.49899   -29365.714   -3857.1449 
  113800    286.31545   -29247.884    138.25922   -29386.143   -13989.031 
  114000    332.74523   -29219.883    160.67975   -29380.562   -3229.6504 
  114200    303.21893    -29223.01    146.42176   -29369.432   -7755.9332 
  114400    303.21768     -29233.7    146.42116   -29380.121   -1379.7862 
  114600     306.2803   -29242.757    147.90007   -29390.657    5509.2441 
  114800    282.31691   -29238.441    136.32836   -29374.769   -34271.751 
  115000    288.04053   -29222.888    139.09224    -29361.98   -1961.6414 
  115200    272.48451   -29255.147    131.58038   -29386.728   -6173.2384 
  115400    300.78192   -29238.372    145.24495   -29383.617    9149.1963 
  115600    317.50512   -29222.248    153.32044   -29375.569   -15274.217 
  115800    285.67412   -29257.773    137.94953   -29395.722   -4049.4551 
  116000    308.08489   -29240.675    148.77149   -29389.447   -5458.1143 
  116200    302.02895   -29228.189    145.84713   -29374.036    18083.037 
  116400    278.93261    -29242.38    134.69411   -29377.075    7970.1899 
  116600     272.7486   -29250.016     131.7079   -29381.724   -4052.0598 
  116800    300.45407   -29226.606    145.08664   -29371.693   -8224.5908 
  117000    269.55436   -29246.542    130.16544   -29376.707    21204.167 
  117200    285.16105    -29257.37    137.70177   -29395.072   -11570.569 
  117400    311.41238   -29224.644    150.37831   -29375.022    16294.466 
  117600    292.88572   -29246.365    141.43194   -29387.797    2255.7102 
  117800    311.63288   -29235.931    150.48478   -29386.415   -11787.515 
  118000    290.59314   -29224.134    140.32488   -29364.459    1570.8258 
  118200    276.28457   -29242.827     133.4154   -29376.243    17023.946 
  118400    302.29945   -29237.256    145.97775   -29383.234   -10900.109 
  118600    361.94633   -29206.092    174.78071   -29380.872   -6395.2302 
  118800    300.97369   -29238.618    145.33756   -29383.956   -28059.827 
  119000    310.45619   -29232.079    149.91657   -29381.995    -10066.85 
  119200    337.34406   -29194.128    162.90049   -29357.028   -1242.4005 
  119400    297.61732   -29232.912    143.71679   -29376.628   -13726.114 
  119600    302.71062   -29247.028     146.1763   -29393.205    47673.751 
  119800    323.78023   -29222.648    156.35063   -29378.999    4208.3277 
  120000    281.55934   -29249.803    135.96253   -29385.765   -6301.1235 
  120200    283.81986   -29247.316    137.05412    -29384.37    47436.796 
  120400    323.44156    -29233.56    156.18709   -29389.747   -30496.349 
  120600    298.05873   -29251.213    143.92994   -29395.143    8755.3212 
  120800    287.10721   -29259.153    138.64155   -29397.794   -11060.244 
  121000    328.35667   -29227.116    158.56056   -29385.676   -10617.398 
  121200     280.3671   -29244.853    135.38681    -29380.24   -28286.781 
  121400    291.34735   -29248.069    140.68908   -29388.758   -22298.066 
  121600    276.93818   -29246.621    133.73102   -29380.352   -17673.097 
  121800     293.0276   -29234.307    141.50046   -29375.807    21253.891 
  122000    302.46584   -29225.923     146.0581   -29371.981   -9487.0642 
  122200    280.39916   -29250.734     135.4023   -29386.137    19127.583 
  122400    327.70956   -29231.154    158.24807   -29389.402    15972.114 
  122600    275.07561   -29244.091     132.8316   -29376.922   -15501.335 
  122800    272.06825   -29256.524    131.37937   -29387.903   -45458.813 
  123000    314.83852   -29228.504    152.03276   -29380.537   -28461.911 
  123200    287.83506   -29241.882    138.99303   -29380.875    -2659.273 
  123400    296.58161   -29246.412    143.21666   -29389.628    22745.323 
  123600    307.10403   -29236.736    148.29784   -29385.034    35167.336 
  123800    319.83059   -29224.987    154.44339    -29379.43     19616.47 
  124000    275.22771   -29251.595    132.90505     -29384.5   -17841.384 
  124200    315.55111   -29236.178    152.37686   -29388.555   -16862.251 
  124400    311.76962     -29201.8    150.55081   -29352.351    7228.2693 
  124600    307.29534   -29230.269    148.39023   -29378.659    4172.4357 
  124800    286.42663   -29243.123    138.31291   -29381.436    22490.478 
  125000    322.84992   -29233.651    155.90139   -29389.553    19070.028 
  125200    325.80812   -29215.204    157.32988   -29372.533    37465.056 
  125400    295.05783   -29246.997    142.48084   -29389.477   -19250.635 
  125600     277.5962   -29235.624    134.04877   -29369.672    7258.5107 
  125800    326.12019   -29203.991    157.48058   -29361.472    15482.234 
  126000    312.37608   -29218.093    150.84367   -29368.937    -16968.77 
  126200     296.4511   -29237.509    143.15364   -29380.663   -30206.036 
  126400    287.48593   -29232.615    138.82443   -29371.439    16169.607 
  126600    334.70148   -29212.506    161.62441   -29374.131    2167.5028 
  126800    297.87298   -29246.282    143.84025   -29390.122   -13381.354 
  127000     304.4397   -29236.745    147.01126   -29383.757   -24796.083 
  127200    330.65206   -29201.953    159.66898   -29361.622    264.24052 
  127400    285.04545   -29246.377    137.64595   -29384.023   -790.61351 
  127600    309.18435   -29242.748    149.30241   -29392.051    20888.137 
  127800    320.11944   -29217.379    154.58287   -29371.962   -9941.1438 
  128000    272.59833   -29252.275    131.63534    -29383.91   -5557.8941 
  128200    288.90209   -29239.491    139.50829       -29379   -37433.405 
  128400    308.68981   -29223.094     149.0636   -29372.158   -23324.723 
  128600    264.88038   -29254.108    127.90841   -29382.017   -25447.638 
  128800    280.31279   -29245.143    135.36059   -29380.504   -20800.875 
  129000    313.96335   -29226.428    151.61015   -29378.038    11587.839 
  129200     280.6928   -29224.423    135.54409   -29359.967   -5610.8635 
  129400    329.69997   -29229.661    159.20922   -29388.871   -10470.273 
  129600    294.87912   -29241.976    142.39454   -29384.371    48037.958 
  129800    300.68715   -29215.257    145.19919   -29360.456   -12983.257 
  130000    269.35371   -29234.792    130.06854   -29364.861    -21227.59 
  130200    280.34939   -29235.666    135.37826   -29371.044   -27823.193 
  130400    305.31235   -29215.749    147.43266   -29363.181    43451.079 
  130600    304.30302   -29224.483    146.94526   -29371.429    -14967.97 
  130800    273.47602   -29245.834    132.05917   -29377.894    -36307.81 
  131000    308.14481    -29214.66    148.80042    -29363.46   -25661.077 
  131200     321.8811   -29222.849    155.43356   -29378.283     34326.33 
  131400    311.15656   -29234.847    150.25477   -29385.102   -12225.147 
  131600    256.12254   -29264.811    123.67933    -29388.49   -3339.5866 
  131800    295.63112   -29245.635    142.75767   -29388.393   -14450.341 
  132000    295.97287   -29235.847     142.9227    -29378.77    26867.032 
  132200    280.84763   -29258.318    135.61886   -29393.937    30326.932 
  132400    304.28321   -29249.411    146.93569   -29396.347   -8615.9627 
  132600    319.53353   -29227.619    154.29994   -29381.919   -16391.706 
  132800    274.31825   -29252.652    132.46588   -29385.117   -13132.898 
  133000    305.04268   -29241.432    147.30243   -29388.734    12020.291 
  133200    314.18593   -29226.007    151.71763   -29377.725    22185.225 
  133400    270.11783   -29252.926    130.43753   -29383.363   -2205.0147 
  133600    296.48043   -29233.142     143.1678    -29376.31    21330.199 
  133800    283.40471   -29227.549    136.85365   -29364.403   -20164.933 
  134000    280.84342   -29234.292    135.61682   -29369.909   -4.8430108 
  134200     282.0599   -29250.807    136.20425   -29387.011   -20339.369 
  134400     317.0886   -29216.825    153.11931   -29369.945   -24817.824 
  134600    283.46998    -29242.19    136.88517   -29379.075    30817.019 
  134800    287.19343   -29243.068    138.68319   -29381.751   -11098.573 
  135000    341.74477   -29225.566    165.02555   -29390.592   -14606.505 
  135200    327.55164    -29211.35    158.17182   -29369.522    3785.1335 
  135400    295.93803   -29245.421    142.90588   -29388.327    -14315.72 
  135600    311.35011   -29230.154    150.34824   -29380.502    5956.9023 
  135800    335.68777   -29216.481    162.10068   -29378.582    16347.998 
  136000    287.56411   -29250.267    138.86219   -29389.129    504.26253 
  136200    298.99205   -29227.639    144.38064    -29372.02   -12741.376 
  136400    309.43135   -29229.068    149.42169    -29378.49   -11274.202 
  136600    295.90634   -29251.237    142.89057   -29394.128    27085.831 
  136800    325.02356   -29223.799    156.95103    -29380.75    4020.8641 
  137000    293.29333   -29233.285    141.62878   -29374.914   -10670.432 
  137200    279.97709   -29255.977    135.19848   -29391.176    8827.6825 
  137400    312.18993   -29236.012    150.75378   -29386.766   -12581.516 
  137600    306.43824   -29235.134    147.97634    -29383.11    20083.859 
  137800    304.28425   -29218.695     146.9362   -29365.631   -31203.326 
  138000    313.12063   -29247.852     151.2032   -29399.056   -869.50639 
  138200     310.8294   -29241.441    150.09679   -29391.537    269.32742 
  138400    314.40765   -29214.707     151.8247   -29366.532    11601.853 
  138600    306.37334    -29235.43      147.945   -29383.375   -29875.001 
  138800    311.40876   -29247.397    150.37656   -29397.773   -13313.546 
  139000    310.77961   -29209.221    150.07275   -29359.294    20369.348 
  139200    314.57887   -29233.389    151.90738   -29385.297    -27581.47 
  139400    299.38821   -29238.587    144.57194   -29383.159   -12603.588 
  139600    338.12605   -29208.744     163.2781   -29372.022    49876.671 
  139800    299.73905   -29215.787    144.74136   -29360.529    19604.041 
  140000    280.10151   -29234.472    135.25856   -29369.731   -2127.9336 
  140200    277.90283   -29249.842    134.19684   -29384.039    33596.429 
  140400     330.0146   -29219.319    159.36116    -29378.68    26183.546 
  140600    292.34869   -29236.839    141.17262   -29378.012    31210.284 
  140800     313.1432   -29244.567     151.2141   -29395.781    1774.3369 
  141000    300.87782   -29238.039    145.29126    -29383.33    -10100.92 
  141200    307.31118   -29209.518    148.39788   -29357.916   -19348.637 
  141400    300.86152    -29243.24    145.28339   -29388.523    4290.8989 
  141600    282.83727   -29242.887    136.57964   -29379.467    20110.644 
  141800    323.75692   -29212.592    156.33938   -29368.931    11291.843 
  142000    302.76489   -29234.019    146.20251   -29380.222    26170.367 
  142200    281.67166    -29238.65    136.01678   -29374.667    32186.605 
  142400    317.12234   -29213.695     153.1356   -29366.831     3478.713 
  142600    290.48784   -29238.888    140.27403   -29379.162    35283.066 
  142800    268.79579   -29237.852    129.79913   -29367.651    646.07934 
  143000    305.24064    -29220.62    147.39803   -29368.018   -4987.8711 
  143200    273.64155   -29253.877     132.1391   -29386.016    8098.9517 
  143400    310.66001   -29238.133    150.01499   -29388.148   -106.19356 
  143600     328.7616   -29231.649    158.75609   -29390.405   -499.60217 
  143800    300.30624   -29250.628    145.01525   -29395.643    7689.0095 
  144000    290.31949   -29244.322    140.19273   -29384.515    10073.453 
  144200    346.22164   -29231.556    167.18739   -29398.744    14872.283 
  144400    273.33084   -29262.647    131.98906   -29394.636   -4943.8575 
  144600    297.85287   -29242.547    143.83054   -29386.378   -1513.3727 
  144800    289.64871   -29238.382    139.86882   -29378.251     16234.88 
  145000    276.51212   -29267.906    133.52528   -29401.431   -20832.798 
  145200    288.66097   -29235.157    139.39185   -29374.548   -30665.094 
  145400    308.66236   -29221.457    149.05035   -29370.508    2979.7831 
  145600    276.79114   -29252.663    133.66001   -29386.323   -23896.634 
  145800    288.57655   -29239.858    139.35109   -29379.209   -19944.114 
  146000    318.07189   -29227.105    153.59412   -29380.699    3873.6761 
  146200    279.88921   -29246.546    135.15604   -29381.702    24914.866 
  146400    314.82277   -29243.101    152.02515   -29395.126   -14989.522 
  146600     323.1937   -29225.981     156.0674   -29382.049    -34117.44 
  146800    269.40682    -29255.94    130.09419   -29386.034   -55415.809 
  147000    313.85285   -29243.702    151.55679   -29395.259   -22655.066 
  147200    290.12282   -29232.897    140.09777   -29372.995   -17644.488 
  147400    284.55096   -29232.656    137.40716   -29370.063     -11611.8 
  147600    254.96943   -29257.851     123.1225   -29380.974   -13348.298 
  147800    306.42587   -29227.485    147.97037   -29375.456   -10177.801 
  148000     272.9958   -29237.206    131.82728   -29369.033   -22368.365 
  148200    311.03198    -29233.48    150.19461   -29383.675    38256.786 
  148400     300.7439   -29215.933    145.22659   -29361.159   -27756.926 
  148600    290.75255    -29249.17    140.40185   -29389.572    28945.879 
  148800    307.46644    -29239.03    148.47285   -29387.503    53357.058 
  149000    336.14173   -29201.299    162.31989   -29363.619   -8697.9641 
  149200    308.78566   -29226.461    149.10989    -29375.57   -6016.7247 
  149400     304.1074   -29240.447     146.8508   -29387.298   -33210.855 
  149600    279.15777   -29256.485    134.80284   -29391.288   -31502.719 
  149800    303.25191   -29230.825    146.43769   -29377.263    51956.719 
  150000    287.11447   -29227.177    138.64506   -29365.822    7412.5421 
  150200    293.23208   -29251.372     141.5992   -29392.972   -20883.947 
  150400    284.48217   -29238.302    137.37394   -29375.676    29438.609 
  150600    311.80744   -29226.104    150.56908   -29376.673    27931.832 
  150800    318.90847   -29253.665     153.9981   -29407.663   -5014.0537 
  151000     274.4478    -29248.68    132.52844   -29381.208    29632.403 
  151200    305.81384   -29228.289    147.67482   -29375.964   -13415.864 
  151400    309.09943   -29246.326     149.2614   -29395.587    263.35768 
  151600    299.73814   -29257.843    144.74092   -29402.584   -12097.799 
  151800    309.48443   -29234.895    149.44731   -29384.342   -4227.8413 
  152000    312.61401   -29246.355    150.95857   -29397.313    15642.137 
  152200    280.01122   -29258.492    135.21496   -29393.707    10171.356 
  152400    270.76432   -29238.969    130.74972   -29369.719    39825.546 
  152600    316.89795   -29235.226    153.02724   -29388.254    253.66999 
  152800    266.99992   -29264.613    128.93192   -29393.545   -5647.9354 
  153000     280.2775   -29238.127    135.34355   -29373.471   -30682.497 
  153200    295.25512   -29230.783    142.57611   -29373.359    10080.089 
  153400    275.67835   -29253.348    133.12266   -29386.471    37302.531 
  153600    317.89051   -29244.778    153.50654   -29398.285    -16971.14 
  153800    293.26963   -29232.622    141.61733    -29374.24   -18845.795 
  154000    296.96484   -29254.139    143.40172   -29397.541   -4100.0814 
  154200    257.75673   -29270.989    124.46846   -29395.457   -4485.8396 
  154400    323.27896   -29234.006    156.10857   -29390.115   -2137.4642 
  154600    302.57451   -29227.985    146.11058   -29374.095    9575.9389 
  154800    285.66575   -29254.551    137.94548   -29392.497   -8855.6743 
  155000    311.07566    -29230.76    150.21571   -29380.975   -10608.424 
  155200    309.10535   -29232.307    149.26426   -29381.571    55803.438 
  155400     292.8029   -29247.367    141.39195   -29388.758    2406.7936 
  155600    342.77057   -29210.992     165.5209   -29376.513   -12252.261 
  155800    284.32797   -29236.486    137.29948   -29373.786    -47919.04 
  156000    317.13022   -29223.062     153.1394   -29376.202    25286.285 
  156200     307.6717   -29214.802    148.57197   -29363.374   -9833.6092 
  156400    306.99741   -29239.851    148.24635   -29388.097    495.46153 
  156600    292.48395   -29243.942    141.23794    -29385.18   -37675.863 
  156800    295.31073   -29224.467    142.60296    -29367.07    28396.336 
  157000    304.77238   -29241.646    147.17191   -29388.818    3666.4297 
  157200    284.59717   -29249.139    137.42948   -29386.569   -18122.997 
  157400    279.61183   -29234.626     135.0221   -29369.648   -47832.339 
  157600    293.31754   -29236.879    141.64047   -29378.519   -10045.749 
  157800     264.7628   -29245.855    127.85164   -29373.707   -5595.8974 
  158000    278.00222   -29247.581    134.24484   -29381.826    21968.072 
  158200     307.8872   -29220.396    148.67603   -29369.072   -28488.429 
  158400    299.48224   -29245.831    144.61735   -29390.448    -8492.403 
  158600    266.60208   -29248.406    128.73981   -29377.146   -27549.174 
  158800    299.64076   -29221.839    144.69389   -29366.532   -47720.631 
  159000    312.45686   -29247.782    150.88268   -29398.665   -25248.607 
  159200    319.49396   -29233.507    154.28083   -29387.788    6640.6336 
  159400    297.63981   -29223.042    143.72766   -29366.769   -7343.3084 
  159600    281.60643   -29246.246    135.98528   -29382.231    18828.263 
  159800    309.02448   -29223.233    149.22521   -29372.458    17743.548 
  160000    305.52384   -29220.987    147.53478   -29368.522    36497.287 
  160200    298.76694   -29238.534    144.27194   -29382.806   -33199.132 
  160400    327.73108   -29227.124    158.25847   -29385.383   -36764.514 
  160600    323.40675   -29204.146    156.17028   -29360.316    1890.1226 
  160800    269.68385   -29238.271    130.22797   -29368.499    -6974.382 
  161000     307.3924   -29239.803    148.43709    -29388.24   -5278.5925 
  161200    333.92787    -29206.33    161.25084    -29367.58   -34159.825 
  161400      306.158   -29226.942    147.84101   -29374.783    -6600.725 
  161600    322.52058   -29237.404    155.74236   -29393.146   -6347.3232 
  161800    298.74534   -29243.502    144.26151   -29387.763    36257.262 
  162000    309.64682   -29234.224    149.52574    -29383.75    24625.142 
  162200    294.71298   -29221.916    142.31431   -29364.231    4233.8768 
  162400    294.47837   -29253.885    142.20102   -29396.086    28220.053 
  162600    323.60161   -29229.589    156.26438   -29385.854    7453.0158 
  162800    303.85681   -29231.245    146.72979   -29377.975    30185.653 
  163000    247.25759   -29260.475    119.39852   -29379.873    14594.755 
  163200    283.59593   -29244.093    136.94598   -29381.039   -17892.203 
  163400    301.93761   -29225.234    145.80303   -29371.037   -23181.468 
  163600    312.22749   -29212.329    150.77192   -29363.101   -18988.815 
  163800    303.71385   -29235.813    146.66075   -29382.474   -2074.9108 
  164000    295.55518   -29235.841    142.72101   -29378.562   -1545.0023 
  164200    296.87143   -29210.325    143.35661   -29353.681   -38566.584 
  164400    320.81968    -29232.33    154.92101   -29387.251   -2361.7153 
  164600    309.95537   -29238.869    149.67473   -29388.544    927.44269 
  164800    328.85343   -29211.416    158.80044   -29370.217   -20525.323 
  165000    311.61541   -29234.596    150.47635   -29385.072   -8570.2278 
  165200    293.32308   -29243.751    141.64314   -29385.394     53100.67 
  165400    285.64548   -29244.473    137.93569   -29382.409   -44492.322 
  165600    308.50705   -29226.571    148.97535   -29375.546    21391.686 
  165800     299.6684   -29238.726    144.70724   -29383.433    -5140.132 
  166000    280.92621   -29247.092     135.6568   -29382.749   -7455.0268 
  166200     308.0958   -29232.484    148.77676   -29381.261    -29594.58 
  166400    279.09647   -29241.421    134.77324   -29376.194   -15864.832 
  166600    306.99264   -29239.177    148.24405   -29387.421   -23355.796 
  166800    344.74624   -29221.698    166.47494   -29388.173   -2560.9071 
  167000    311.40281   -29232.323    150.37369   -29382.697    2981.4576 
  167200    281.11606   -29251.679    135.74848   -29387.428    26291.046 
  167400     324.4951   -29221.916    156.69584   -29378.612   -15507.463 
  167600    306.83935   -29240.535    148.17003   -29388.705    9412.5709 
  167800    305.63383   -29244.616     147.5879   -29392.204    1776.5145 
  168000    339.99197   -29214.662    164.17914   -29378.842   -6616.1636 
  168200    300.64828   -29243.579    145.18042    -29388.76   -6934.3867 
  168400    308.87191   -29237.766    149.15154   -29386.917   -6231.2904 
  168600    334.58473   -29207.921    161.56803   -29369.489    43360.347 
  168800    290.16557   -29243.129    140.11841   -29383.247     -8257.65 
  169000    291.05862   -29238.512    140.54965   -29379.062   -19095.171 
  169200    329.69381   -29207.963    159.20625   -29367.169   -24497.673 
  169400    295.55408    -29245.53    142.72047    -29388.25   -2786.5521 
  169600    319.88972   -29235.991    154.47194   -29390.463    41712.873 
  169800    307.00066    -29226.58    148.24792   -29374.828   -4155.4733 
  170000    296.61826   -29254.975    143.23436    -29398.21   -24407.971 
  170200    318.78825   -29229.036    153.94005   -29382.976     1391.495 
  170400    272.85344   -29242.681    131.75853    -29374.44    13901.446 
  170600    289.28982   -29253.586    139.69551   -29393.282    14690.662 
  170800    327.91827   -29225.389    158.34886   -29383.738    12784.677 
  171000     277.2137   -29261.384    133.86407   -29395.248    13051.368 
  171200    272.73696    -29247.36    131.70228   -29379.063    -28225.15 
  171400    317.41282   -29230.587    153.27587   -29383.863    953.46764 
  171600    253.44532   -29266.291    122.38652   -29388.677   -9996.8725 
  171800    314.29466   -29241.819    151.77014    -29393.59    -46444.77 
  172000    317.39868   -29238.808    153.26904   -29392.077    -9473.653 
  172200    270.45423   -29268.972    130.59998   -29399.572   -42490.278 
  172400     307.4822   -29248.102    148.48046   -29396.583    20841.067 
  172600    305.07817   -29238.884    147.31957   -29386.203    26221.075 
  172800    307.71522   -29219.473    148.59298   -29368.066    11204.924 
  173000    284.29387   -29246.946    137.28301   -29384.229    8729.1749 
  173200    283.63855   -29254.193    136.96657    -29391.16    38481.261 
  173400     340.4056   -29223.909    164.37888   -29388.288   -24250.076 
  173600    311.54909   -29238.872    150.44432   -29389.317   -8389.6159 
  173800    265.07423    -29244.23    128.00202   -29372.232    20564.364 
  174000    334.87254   -29218.232    161.70701   -29379.939   -57935.703 
  174200    304.18418   -29251.354    146.88787   -29398.241    2237.5794 
  174400    286.89619    -29242.09    138.53965   -29380.629    8783.1431 
  174600    322.69756   -29221.419    155.82782   -29377.246   -4381.3874 
  174800    278.91972   -29255.804    134.68789   -29390.492    -13729.92 
  175000    307.62472    -29238.85    148.54928   -29387.399    8513.8726 
  175200    290.77226   -29229.409    140.41137    -29369.82    -9692.858 
  175400    283.59299   -29263.819    136.94457   -29400.764   -11613.025 
  175600    319.77444   -29248.857    154.41627   -29403.273    10782.615 
  175800    315.53344   -29230.243    152.36833   -29382.611    20374.943 
  176000    291.34036    -29242.92     140.6857   -29383.605   -12181.471 
  176200    287.55868   -29251.957    138.85957   -29390.817     57849.22 
  176400    311.39776   -29231.594    150.37125   -29381.966    14516.913 
  176600    289.64136   -29246.221    139.86527   -29386.086    48448.414 
  176800    313.14745   -29227.519    151.21615   -29378.735   -46898.644 
  177000    300.32247   -29220.716    145.02309   -29365.739    26679.772 
  177200    289.41177   -29250.103     139.7544   -29389.858   -26389.971 
  177400    292.90498    -29236.91    141.44124   -29378.351   -33123.964 
  177600    330.30864   -29229.633    159.50315   -29389.136   -2606.3833 
  177800    255.42918   -29265.597    123.34451   -29388.941   -4452.3802 
[...]
  950400    287.11946   -29332.952    138.64747   -29471.599   -18184.419 
  950600    308.96944   -29333.118    149.19863   -29482.317   -1992.1999 
  950800    314.45572   -29309.596    151.84791   -29461.444   -48327.497 
  951000    286.54123   -29335.512    138.36824   -29473.881    5372.8059 
  951200    289.15724    -29334.81    139.63149   -29474.441   -13499.996 
  951400     292.9491   -29306.795    141.46255   -29448.258   -1069.0678 
  951600    272.59641   -29329.628    131.63441   -29461.262    50589.613 
  951800    306.52562   -29325.059    148.01853   -29473.077    30012.672 
  952000    304.85677   -29299.687    147.21266   -29446.899    2283.6889 
  952200    301.21506    -29334.32    145.45411   -29479.774   -31084.475 
  952400    306.59082   -29328.272    148.05002   -29476.322    -1959.031 
  952600    340.67598   -29302.077    164.50944   -29466.587    33655.657 
  952800    308.15609   -29326.166    148.80587   -29474.972    -3388.627 
  953000    294.00059   -29338.184     141.9703   -29480.154    16068.609 
  953200    336.15215   -29309.125    162.32493    -29471.45   -19877.035 
  953400    327.29894   -29316.538    158.04979   -29474.588   -24485.265 
  953600    299.26141   -29323.797    144.51071   -29468.308    19890.576 
  953800    296.74329   -29315.113    143.29473   -29458.408    31981.124 
  954000    296.71109   -29289.101    143.27918    -29432.38    4525.8813 
  954200    303.64715   -29323.584    146.62855   -29470.213   -12306.793 
  954400     312.5422   -29326.549    150.92389   -29477.473    -11695.73 
  954600    319.18834    -29302.76    154.13325   -29456.894   -6350.9938 
  954800     295.8726   -29328.064    142.87428   -29470.938   -2232.1275 
  955000    281.20415   -29333.916    135.79102   -29469.707   -14414.218 
  955200    312.61265   -29307.574    150.95791   -29458.531    15815.459 
  955400     311.6785   -29308.218    150.50681   -29458.725    1543.3653 
  955600    277.67909   -29335.391     134.0888    -29469.48   -13767.027 
  955800    287.34098    -29303.85    138.75444   -29442.605   -1161.6849 
  956000    312.41867   -29309.138    150.86423   -29460.003   -21503.636 
  956200    256.03108   -29328.554    123.63516   -29452.189    33234.168 
  956400    269.16423   -29347.568    129.97704   -29477.545   -6751.6496 
  956600    302.55363   -29314.949    146.10049   -29461.049    9953.1438 
  956800    296.62723   -29317.769    143.23869   -29461.007     6647.178 
  957000    275.99689   -29346.392    133.27648   -29479.669   -41745.847 
  957200    308.49373   -29326.406    148.96891   -29475.374    8452.8614 
  957400    305.66849   -29321.945    147.60463    -29469.55    24967.326 
  957600    281.61845   -29340.799    135.99108    -29476.79     16004.58 
  957800      272.749   -29335.266     131.7081   -29466.974   -31936.267 
  958000    308.01433   -29310.204    148.73742   -29458.942   -47845.939 
  958200    305.35921   -29310.047    147.45528   -29457.503      9590.72 
  958400    293.92846   -29330.043    141.93547   -29471.979   -52996.894 
  958600    328.12999   -29300.534    158.45109   -29458.985    2882.6231 
  958800    317.24982    -29314.26    153.19715   -29467.457    16151.806 
  959000    309.55604   -29322.691     149.4819   -29472.173    29863.886 
  959200    262.66211   -29342.585    126.83723   -29469.422    49902.402 
  959400    295.98618   -29340.029    142.92913   -29482.958    46452.954 
  959600    328.76122   -29318.568    158.75591   -29477.324    13426.472 
  959800    276.29421   -29342.008    133.42005   -29475.428    7966.4962 
  960000    293.84411   -29336.967    141.89474   -29478.861    -26278.14 
  960200    309.22353   -29314.973    149.32133   -29464.294    5327.0945 
  960400    278.39595   -29325.197    134.43496   -29459.632    27314.818 
  960600    272.71925   -29343.303    131.69373   -29474.997   -14076.865 
  960800    315.14352   -29311.777    152.18004   -29463.957    -9566.833 
  961000    319.45601   -29318.796    154.26251   -29473.059    3015.2896 
  961200    290.68208   -29346.584    140.36783   -29486.951    -17291.53 
  961400    317.90931    -29324.91    153.51562   -29478.426    9947.3042 
  961600    295.44426   -29325.529    142.66744   -29468.196    21138.221 
  961800     237.5561   -29348.058    114.71376   -29462.771   -27668.909 
  962000    314.83142   -29323.241    152.02933   -29475.271   -30276.226 
  962200    300.42352   -29329.997    145.07188   -29475.068    15906.514 
  962400    279.83261   -29349.993    135.12871   -29485.122    4153.5363 
  962600    322.50256   -29317.108    155.73366   -29472.841   -45652.906 
  962800    312.39051   -29328.044    150.85064   -29478.895   -4823.5637 
  963000    295.62121   -29346.917    142.75289    -29489.67   -7872.4988 
  963200    334.25692   -29334.062    161.40974   -29495.472   -35386.908 
  963400    305.18831   -29315.326    147.37276   -29462.698    11996.916 
  963600    292.44149    -29342.57    141.21743   -29483.787   -13867.715 
  963800    287.82379   -29345.653    138.98759    -29484.64    27285.812 
  964000    280.43284   -29315.858    135.41856   -29451.276    31340.072 
  964200    315.06556   -29318.425    152.14239   -29470.567   -43225.142 
  964400    281.72624    -29340.56    136.04313   -29476.603    66024.261 
  964600    318.46041    -29317.69    153.78174   -29471.471    4300.2915 
  964800    321.93699   -29310.391    155.46055   -29465.851    -9163.982 
  965000    254.57749   -29345.189    122.93324   -29468.122    3527.0396 
  965200    281.27501   -29324.358    135.82523   -29460.183    14003.464 
  965400    303.83584   -29319.574    146.71966   -29466.294   -27602.898 
  965600     271.0208   -29345.958    130.87357   -29476.832   -14761.259 
  965800    289.81868   -29317.747     139.9509   -29457.698    9461.4687 
  966000    303.98609   -29320.348    146.79222    -29467.14      2528.66 
  966200    290.14728   -29344.299    140.10958   -29484.408   -17986.995 
  966400     277.5946   -29345.783      134.048   -29479.831   -35505.066 
  966600    273.62025   -29312.984    132.12882   -29445.112   -14880.489 
  966800    290.37273   -29324.352    140.21844   -29464.571   -1198.5829 
  967000    286.68725   -29338.761    138.43876     -29477.2   -20937.201 
  967200    313.94208   -29310.484    151.59988   -29462.084    -15597.82 
  967400    296.67282   -29336.069     143.2607   -29479.329    48023.744 
  967600     291.6507   -29320.806    140.83556   -29461.642    25131.803 
  967800    331.87688   -29309.667    160.26043   -29469.927    10134.565 
  968000    286.60228   -29329.604    138.39773   -29468.002    2040.0077 
  968200    293.92843    -29325.66    141.93546   -29467.596    37255.725 
  968400    288.69354   -29322.534    139.40758   -29461.941    6447.0164 
  968600    316.78028   -29298.711    152.97042   -29451.681    3210.7257 
  968800    305.16824   -29321.616    147.36307   -29468.979    6788.8824 
  969000    306.18448   -29326.442     147.8538   -29474.295   -7349.3251 
  969200    344.62527    -29297.32    166.41652   -29463.736   -33366.578 
  969400    326.69167   -29317.836    157.75654   -29475.593   -33321.808 
  969600    305.23131   -29337.574    147.39352   -29484.968   -19578.781 
  969800    317.26428   -29326.825    153.20414   -29480.029   -29759.544 
  970000    295.12974   -29311.324    142.51556    -29453.84    24480.558 
  970200    278.30235   -29344.873    134.38976   -29479.262   -44379.429 
  970400    296.28274   -29321.365    143.07234   -29464.438   -11239.421 
  970600    305.72305   -29318.867    147.63098   -29466.497    20596.869 
  970800    277.76812   -29343.653    134.13179   -29477.784    13708.191 
  971000    309.90206   -29314.144    149.64899   -29463.793   -13429.691 
  971200     299.8159   -29323.259    144.77847   -29468.037    15610.916 
  971400    285.26151   -29348.728    137.75028   -29486.478    35207.448 
  971600    290.78976   -29330.625    140.41983   -29471.045   -48264.178 
  971800    333.22873   -29314.505    160.91323   -29475.418    8365.1378 
  972000    276.31726    -29310.84    133.43118   -29444.271   -8497.2047 
  972200    307.66928   -29337.037     148.5708   -29485.608   -7268.6224 
  972400     310.8886   -29320.167    150.12538   -29470.293     13858.39 
  972600    280.10737   -29308.156    135.26139   -29443.417    47808.726 
  972800    273.60604   -29333.955    132.12196   -29466.077    5403.1607 
  973000    286.34256   -29321.053    138.27231   -29459.325   -3914.7379 
  973200    316.47217   -29313.745    152.82163   -29466.567   -11988.178 
  973400    308.62963   -29306.085    149.03454    -29455.12   -47054.507 
  973600    294.62207   -29327.703    142.27042   -29469.973    10394.298 
  973800    288.92114   -29326.337    139.51749   -29465.854   -12906.243 
  974000    296.06575   -29303.802    142.96755    -29446.77   -40958.663 
  974200    275.50567   -29325.682    133.03927   -29458.721    6645.8286 
  974400    321.15411   -29312.938     155.0825    -29468.02   -3838.1539 
  974600    326.68717   -29300.322    157.75437   -29458.077   -29022.225 
  974800    275.53358   -29324.184    133.05275   -29457.237   -21141.586 
  975000    302.45719    -29313.71    146.05393   -29459.764   -15218.877 
  975200    302.64889   -29296.053     146.1465     -29442.2    -11671.57 
  975400    289.14894    -29319.75    139.62749   -29459.378   -12403.807 
  975600    300.94825   -29316.746    145.32527   -29462.072     21416.39 
  975800    330.95852   -29290.605    159.81696   -29450.422    7188.4427 
  976000    272.49538    -29321.85    131.58563   -29453.436    17334.147 
  976200    308.35329   -29320.456     148.9011   -29469.357    54564.171 
  976400    318.53429   -29294.676    153.81741   -29448.493    18151.246 
  976600    304.83171   -29325.102    147.20056   -29472.302    409.74105 
  976800    311.75747   -29326.633    150.54495   -29477.178   -26502.062 
  977000    332.41619   -29294.826    160.52086   -29455.346   -9323.9591 
  977200     272.3064   -29321.615    131.49437   -29453.109    3022.5275 
  977400    317.25641   -29323.246    153.20034   -29476.447   -42558.788 
  977600    314.86195   -29308.504    152.04407   -29460.548    23209.216 
  977800    324.19907   -29318.006    156.55289   -29474.559    7933.5432 
  978000    293.19033   -29336.733    141.57904   -29478.312    23780.252 
  978200    332.17846   -29308.231    160.40607   -29468.637    805.34006 
  978400    314.47289   -29310.618     151.8562   -29462.474   -6335.7431 
  978600    302.02986   -29326.949    145.84757   -29472.797   -1005.1903 
  978800    296.12656   -29325.178    142.99692   -29468.175   -12493.397 
  979000    324.10575   -29302.608    156.50783   -29459.116    6913.9685 
  979200    255.50939   -29332.786    123.38324    -29456.17   -60836.644 
  979400    310.44007   -29322.295    149.90879   -29472.203    23703.349 
  979600    315.14651   -29313.059    152.18148    -29465.24    21776.984 
  979800    324.30736   -29298.266    156.60518   -29454.871    12972.656 
  980000    300.06147   -29329.417    144.89705   -29474.314    9465.3108 
  980200    304.08584   -29324.508    146.84039   -29471.348    22653.188 
  980400    298.35416   -29305.063    144.07261   -29449.136    5969.2439 
  980600    285.94773   -29330.132    138.08165   -29468.214   -19780.773 
  980800    316.78001   -29332.157    152.97029   -29485.127   -16461.793 
  981000    307.81283   -29325.437    148.64012   -29474.077     25673.07 
  981200    311.29721   -29304.704    150.32269   -29455.026   -45840.404 
  981400    292.63404   -29322.225    141.31041   -29463.535   -13115.426 
  981600    279.29558   -29329.933    134.86939   -29464.803   -6458.3837 
  981800    300.68639   -29306.152    145.19882   -29451.351   -14154.862 
  982000    291.50032    -29343.52    140.76295   -29484.283   -23096.376 
  982200    289.12209    -29322.42    139.61452   -29462.035     22224.64 
  982400    278.21009   -29305.341    134.34521   -29439.686   -47740.247 
  982600    287.22629   -29338.278    138.69906   -29476.977   -27134.767 
  982800    294.28843   -29328.226     142.1093   -29470.335   -41059.521 
  983000    347.53193   -29311.531    167.82012   -29479.351   -5598.9818 
  983200      312.212   -29319.062    150.76444   -29469.826   -45400.694 
  983400    296.65251   -29314.726    143.25089   -29457.977    48039.281 
  983600    312.25257   -29298.962    150.78403   -29449.746    15323.136 
  983800     291.8155   -29326.569    140.91515   -29467.484     34685.09 
  984000    305.18227   -29324.231    147.36984   -29471.601    52935.873 
  984200    316.57004   -29312.696     152.8689   -29465.565    18079.859 
  984400    295.52546       -29320    142.70665   -29462.706   -16460.342 
  984600    280.91241   -29335.896    135.65014   -29471.546   -10255.624 
  984800    307.14587   -29333.799    148.31805   -29482.117    52016.599 
  985000    307.91282   -29307.788     148.6884   -29456.476   -8140.9142 
  985200    277.32524   -29330.145    133.91792   -29464.063    5524.3318 
  985400    312.85532   -29327.598    151.07509   -29478.673    2609.9075 
  985600    286.16817   -29318.629     138.1881   -29456.818   -13280.229 
  985800    320.87168    -29302.41    154.94612   -29457.356   -67765.067 
  986000    300.05789   -29326.113    144.89532   -29471.008   -39533.588 
  986200    308.82331   -29329.537    149.12807   -29478.665    3584.2861 
  986400     307.7559   -29307.878    148.61262   -29456.491    5842.1071 
  986600    318.09704   -29324.743    153.60627    -29478.35    35582.863 
  986800     284.8049   -29342.871    137.52979   -29480.401   -12066.619 
  987000    328.87647   -29305.144    158.81156   -29463.955    22373.543 
  987200    315.42771   -29336.674    152.31727   -29488.991   -6773.4067 
  987400    292.46964   -29333.119    141.23102    -29474.35   -11259.049 
  987600    294.06577   -29305.382    142.00178   -29447.384   -7761.8942 
  987800    303.70436   -29327.553    146.65617   -29474.209   -15902.398 
  988000     273.7987   -29312.965    132.21499    -29445.18   -32301.053 
  988200     342.0312   -29299.736    165.16386     -29464.9   -4540.4651 
  988400    299.97334   -29323.562    144.85449   -29468.416     15449.42 
  988600    327.66884   -29305.151    158.22841   -29463.379    33257.316 
  988800    327.48292   -29280.388    158.13863   -29438.526    23966.351 
  989000    290.55892    -29315.77    140.30835   -29456.078   -853.85907 
  989200    289.97397   -29331.938    140.02589   -29471.964    -20907.81 
  989400    288.13068   -29333.126    139.13578   -29472.262   -37668.244 
  989600    327.46383   -29306.377    158.12941   -29464.507     3364.053 
  989800    294.53025   -29335.602    142.22608   -29477.828    34825.217 
  990000    287.49768   -29328.434    138.83011   -29467.264    19621.674 
  990200    310.46508   -29300.782    149.92087   -29450.703    34138.918 
  990400    338.78071   -29296.145    163.59423    -29459.74    13434.249 
  990600    308.63116   -29328.308    149.03528   -29477.344    25735.059 
  990800    286.48022   -29318.035    138.33878   -29456.373    569.62124 
  991000    312.88268   -29307.843     151.0883   -29458.931    16587.677 
  991200    265.88307   -29338.958     128.3926   -29467.351    4524.1637 
  991400    335.50975   -29311.261    162.01471   -29473.275    16760.512 
  991600    312.10384   -29313.051    150.71221   -29463.763    16675.895 
  991800    298.65543   -29331.161    144.21809   -29475.379   -6491.2397 
  992000     300.7016   -29338.914    145.20617    -29484.12    28056.971 
  992200    315.77095   -29307.595    152.48302   -29460.078   -37961.015 
  992400    294.91326   -29325.008    142.41103   -29467.419   -2921.1555 
  992600    288.72074   -29338.374    139.42071   -29477.795    32779.048 
  992800    301.33172   -29323.123    145.51045   -29468.633   -34716.008 
  993000    308.88803   -29325.743    149.15932   -29474.902    8594.7217 
  993200     268.2959   -29348.181    129.55773   -29477.739   -50084.736 
  993400    309.73531   -29324.295    149.56847   -29473.864    525.30289 
  993600    297.97739   -29324.799    143.89067    -29468.69   -7260.5847 
  993800    340.67299   -29293.913      164.508   -29458.421   -10898.846 
  994000    283.79036   -29322.672    137.03988   -29459.712    63784.245 
  994200    319.24411   -29314.237    154.16018   -29468.397   -17352.399 
  994400    326.66479   -29287.963    157.74356   -29445.707   -8445.0497 
  994600    303.52582   -29316.371    146.56996   -29462.941    44759.938 
  994800     268.0781   -29328.679    129.45256   -29458.132    29755.809 
  995000    312.58674   -29298.189     150.9454   -29449.134    2918.4759 
  995200    316.00979   -29321.516    152.59836   -29474.114   -42602.124 
  995400    290.48486   -29324.886    140.27259   -29465.159    13487.186 
  995600    293.59391   -29327.712    141.77392   -29469.486    20726.198 
  995800    274.63249   -29335.751    132.61762   -29468.369   -19305.868 
  996000    307.47681   -29313.112    148.47785    -29461.59    281.52699 
  996200    312.48888   -29320.345    150.89814   -29471.243    20646.397 
WARNING: Fix qeq/reax CG convergence failed after 200 iterations at 996217 step (../fix_qeq_reax.cpp:735)
  996400    287.85712   -29336.924    139.00368   -29475.927    7724.8756 
  996600    293.30017   -29311.907    141.63208   -29453.539   -865.74659 
  996800    275.68273   -29313.204    133.12477   -29446.329    28628.955 
  997000    305.73656   -29332.827     147.6375   -29480.464     25312.28 
  997200    295.18009   -29333.729    142.53987   -29476.269   -20111.605 
  997400    332.27139    -29316.16    160.45094   -29476.611    12836.424 
  997600    304.94091   -29329.828    147.25329   -29477.082    58535.339 
  997800    266.27968   -29352.714    128.58412   -29481.298   -16677.356 
  998000    311.75678   -29323.532    150.54461   -29474.077   -20605.946 
  998200    291.95842   -29321.469    140.98416   -29462.453    935.88403 
  998400    329.02274   -29306.795    158.88219   -29465.677     13976.75 
  998600    281.71706   -29332.997     136.0387   -29469.036   -3974.1254 
  998800    299.62018   -29325.317    144.68396   -29470.001   -18151.804 
  999000    312.23799   -29314.695    150.77699   -29465.472    2555.0188 
  999200    288.72251   -29326.921    139.42157   -29466.342   -11538.581 
  999400    318.61078   -29298.415    153.85435    -29452.27     2937.156 
  999600    283.84944    -29323.54    137.06841   -29460.609    25833.223 
  999800    303.32143   -29325.836    146.47126   -29472.307   -19847.511 
 1000000     339.9579   -29308.204    164.16269   -29472.367    10548.422 
Loop time of 23070.6 on 8 procs for 1000000 steps with 163 atoms

Performance: 0.936 ns/day, 25.634 hours/ns, 43.345 timesteps/s
99.7% CPU use with 8 MPI tasks x no OpenMP threads

MPI task timing breakdown:
Section |  min time  |  avg time  |  max time  |%varavg| %total
---------------------------------------------------------------
Pair    | 17595      | 18736      | 19781      | 546.5 | 81.21
Neigh   | 14.523     | 14.981     | 15.412     |   8.1 |  0.06
Comm    | 268.57     | 1310.2     | 2452.4     |2065.4 |  5.68
Output  | 0.44566    | 0.47989    | 0.65776    |   9.8 |  0.00
Modify  | 2982.6     | 2986.1     | 2988.1     |   3.0 | 12.94
Other   |            | 23.05      |            |       |  0.10

Nlocal:    20.375 ave 45 max 4 min
Histogram: 2 1 0 1 1 1 1 0 0 1
Nghost:    769.375 ave 796 max 734 min
Histogram: 1 0 0 2 0 1 1 0 2 1
Neighs:    2130.88 ave 4352 max 452 min
Histogram: 2 1 0 0 1 1 2 0 0 1

Total # of neighbors = 17047
Ave neighs/atom = 104.583
Neighbor list builds = 3900
Dangerous builds = 0

unfix 1
unfix output
undump 1

Please see the log.cite file for references relevant to this simulation

Total wall time: 6:26:01
