ITEM: TIMESTEP
0
ITEM: NUMBER OF ATOMS
57
ITEM: BOX BOUNDS pp pp pp
0.0000000000000000e+00 3.2808000000000000e+01
0.0000000000000000e+00 1.7780000000000001e+01
0.0000000000000000e+00 2.4729999999999999e+00
ITEM: ATOMS id type x y z 
13 1 7.043 0.849 2.464 
29 1 7.397 1.432 1.228 
37 1 8.035 2.733 1.228 
57 2 5.666 0.556 2.222 
1 1 6.173 17.398 2.464 
5 1 5.371 17.398 1.228 
9 1 3.973 17.398 1.228 
16 1 7.043 16.167 2.464 
32 1 7.397 15.584 1.228 
40 1 8.035 14.283 1.228 
45 1 3.236 17.398 2.464 
49 1 1.81 17.398 2.464 
53 1 1.083 17.398 1.228 
4 1 10.968 8.508 2.464 
8 1 11.771 8.508 1.228 
12 1 13.168 8.508 1.228 
18 1 10.098 7.277 2.464 
21 1 8.308 3.392 2.464 
26 1 8.833 4.734 2.464 
34 1 9.745 6.694 1.228 
42 1 9.106 5.393 1.228 
48 1 13.906 8.508 2.464 
52 1 15.331 8.508 2.464 
56 1 16.058 8.508 1.228 
19 1 10.098 9.739 2.464 
24 1 8.308 13.624 2.464 
27 1 8.833 12.282 2.464 
35 1 9.745 10.322 1.228 
43 1 9.106 11.623 1.228 
3 1 22.577 8.508 2.464 
7 1 21.775 8.508 1.228 
11 1 20.377 8.508 1.228 
20 1 23.447 7.277 2.464 
36 1 23.801 6.694 1.228 
44 1 24.439 5.393 1.228 
47 1 19.64 8.508 2.464 
51 1 18.214 8.508 2.464 
55 1 17.487 8.508 1.228 
17 1 23.447 9.739 2.464 
33 1 23.801 10.322 1.228 
41 1 24.439 11.623 1.228 
15 1 26.502 0.849 2.464 
23 1 25.237 3.392 2.464 
28 1 24.712 4.734 2.464 
31 1 26.149 1.432 1.228 
39 1 25.511 2.733 1.228 
2 1 27.373 17.398 2.464 
6 1 28.175 17.398 1.228 
10 1 29.572 17.398 1.228 
14 1 26.502 16.167 2.464 
22 1 25.237 13.624 2.464 
25 1 24.712 12.282 2.464 
30 1 26.149 15.584 1.228 
38 1 25.511 14.283 1.228 
46 1 30.31 17.398 2.464 
50 1 31.735 17.398 2.464 
54 1 32.462 17.398 1.228 
ITEM: TIMESTEP
10
ITEM: NUMBER OF ATOMS
57
ITEM: BOX BOUNDS pp pp pp
0.0000000000000000e+00 3.2808000000000000e+01
0.0000000000000000e+00 1.7780000000000001e+01
0.0000000000000000e+00 2.4729999999999999e+00
ITEM: ATOMS id type x y z 
13 1 7.1957 0.821079 2.48342 
29 1 7.45897 1.43785 1.23814 
37 1 8.07092 2.79054 1.2284 
57 2 5.50839 0.496912 2.07185 
1 1 6.23143 17.401 2.49841 
5 1 5.34788 17.4152 1.31785 
9 1 3.88738 17.3754 1.22565 
16 1 7.06357 16.142 2.46522 
32 1 7.41688 15.5717 1.22761 
40 1 8.04818 14.2719 1.22774 
45 1 3.18233 17.3941 2.46146 
49 1 1.78672 17.3985 2.46394 
53 1 1.06634 17.3982 1.22765 
4 1 10.9815 8.5169 2.46427 
8 1 11.7852 8.51054 1.22775 
12 1 13.1801 8.50788 1.22777 
18 1 10.0999 7.29329 2.46421 
21 1 8.32348 3.42298 2.46444 
26 1 8.83959 4.75819 2.46425 
34 1 9.74835 6.7175 1.22777 
42 1 9.11254 5.42581 1.22779 
48 1 13.9144 8.50794 2.46423 
52 1 15.3436 8.50799 2.46422 
56 1 16.0622 8.508 1.22778 
19 1 10.0958 9.73453 2.4642 
24 1 8.31743 13.6053 2.46421 
27 1 8.83615 12.2706 2.46421 
35 1 9.74302 10.3133 1.22778 
43 1 9.10946 11.6049 1.22778 
3 1 22.581 8.508 2.46426 
7 1 21.7764 8.508 1.22774 
11 1 20.3808 8.508 1.22777 
20 1 23.4477 7.27651 2.46421 
36 1 23.8002 6.69492 1.22779 
44 1 24.4368 5.3951 1.22778 
47 1 19.6431 8.508 2.46423 
51 1 18.2168 8.508 2.46422 
55 1 17.4923 8.508 1.22778 
17 1 23.4477 9.73949 2.46421 
33 1 23.8002 10.3211 1.22779 
41 1 24.4368 11.6209 1.22778 
15 1 26.4973 0.851522 2.46421 
23 1 25.2366 3.39552 2.46421 
28 1 24.7104 4.73605 2.46421 
31 1 26.1456 1.43622 1.22779 
39 1 25.5107 2.7343 1.22778 
2 1 27.3603 17.398 2.46426 
6 1 28.1651 17.398 1.22774 
10 1 29.5539 17.398 1.22778 
14 1 26.4973 16.1645 2.46421 
22 1 25.2366 13.6205 2.46421 
25 1 24.7104 12.2799 2.46421 
30 1 26.1456 15.5798 1.22779 
38 1 25.5107 14.2817 1.22778 
46 1 30.2918 17.398 2.46423 
50 1 31.7185 17.398 2.46421 
54 1 32.4291 17.398 1.22777 
ITEM: TIMESTEP
20
ITEM: NUMBER OF ATOMS
57
ITEM: BOX BOUNDS pp pp pp
0.0000000000000000e+00 3.2808000000000000e+01
0.0000000000000000e+00 1.7780000000000001e+01
0.0000000000000000e+00 2.4729999999999999e+00
ITEM: ATOMS id type x y z 
13 1 7.2584 0.792595 2.49724 
29 1 7.49826 1.43612 1.25168 
37 1 8.06846 2.77184 1.23084 
57 2 5.47549 0.454227 2.03303 
1 1 6.25861 17.4234 2.51578 
5 1 5.34179 17.4255 1.30333 
9 1 3.88779 17.3516 1.22487 
16 1 7.05899 16.1424 2.46845 
32 1 7.41713 15.5757 1.22983 
40 1 8.05207 14.2763 1.22789 
45 1 3.17829 17.3873 2.46169 
49 1 1.77177 17.3992 2.46367 
53 1 1.05272 17.3988 1.22733 
4 1 10.9923 8.52531 2.46427 
8 1 11.7943 8.5164 1.22774 
12 1 13.1876 8.50774 1.22777 
18 1 10.1 7.30742 2.46421 
21 1 8.32625 3.42836 2.46603 
26 1 8.83976 4.77154 2.46437 
34 1 9.74199 6.73163 1.22778 
42 1 9.10576 5.43652 1.22784 
48 1 13.9198 8.50762 2.46423 
52 1 15.348 8.50792 2.46422 
56 1 16.0702 8.508 1.22778 
19 1 10.0936 9.73373 2.4642 
24 1 8.31758 13.6116 2.46423 
27 1 8.83264 12.2726 2.46421 
35 1 9.73346 10.311 1.22779 
43 1 9.1003 11.6075 1.22777 
3 1 22.5821 8.508 2.46427 
7 1 21.7771 8.508 1.22774 
11 1 20.3849 8.508 1.22777 
20 1 23.4532 7.27904 2.4642 
36 1 23.8046 6.69582 1.22779 
44 1 24.439 5.39785 1.22778 
47 1 19.6506 8.508 2.46423 
51 1 18.2231 8.508 2.46423 
55 1 17.5003 8.508 1.22778 
17 1 23.4532 9.73696 2.4642 
33 1 23.8046 10.3202 1.22779 
41 1 24.439 11.6181 1.22778 
15 1 26.485 0.851996 2.4642 
23 1 25.2344 3.39894 2.46422 
28 1 24.7115 4.73562 2.46422 
31 1 26.1386 1.43782 1.22779 
39 1 25.5066 2.73586 1.22778 
2 1 27.3468 17.398 2.46427 
6 1 28.1539 17.398 1.22773 
10 1 29.5455 17.398 1.22777 
14 1 26.485 16.164 2.4642 
22 1 25.2344 13.6171 2.46422 
25 1 24.7115 12.2804 2.46422 
30 1 26.1386 15.5782 1.22779 
38 1 25.5066 14.2801 1.22778 
46 1 30.2793 17.398 2.46423 
50 1 31.7064 17.398 2.4642 
54 1 32.4186 17.3981 1.22773 
ITEM: TIMESTEP
30
ITEM: NUMBER OF ATOMS
57
ITEM: BOX BOUNDS pp pp pp
0.0000000000000000e+00 3.2808000000000000e+01
0.0000000000000000e+00 1.7780000000000001e+01
0.0000000000000000e+00 2.4729999999999999e+00
ITEM: ATOMS id type x y z 
13 1 7.3723 0.781177 2.52192 
29 1 7.64375 1.39973 1.28123 
37 1 8.0899 2.76951 1.24504 
57 2 5.52799 0.41974 1.98827 
1 1 6.32198 17.4793 2.5038 
5 1 5.33861 17.4111 1.27355 
9 1 3.88623 17.261 1.21789 
16 1 7.05438 16.1439 2.47553 
32 1 7.41029 15.5775 1.23831 
40 1 8.05904 14.2937 1.23005 
45 1 3.18729 17.3435 2.45505 
49 1 1.75602 17.4039 2.46166 
53 1 1.0301 17.4043 1.22596 
4 1 10.9991 8.54098 2.46427 
8 1 11.7966 8.53527 1.22774 
12 1 13.195 8.50866 1.22778 
18 1 10.0943 7.32246 2.4643 
21 1 8.32465 3.44218 2.47825 
26 1 8.82805 4.79713 2.46657 
34 1 9.71661 6.75292 1.22793 
42 1 9.08567 5.46107 1.22931 
48 1 13.9246 8.50516 2.46423 
52 1 15.3481 8.50703 2.46422 
56 1 16.0662 8.50797 1.22778 
19 1 10.0887 9.74189 2.4642 
24 1 8.32655 13.6192 2.46583 
27 1 8.8201 12.276 2.46437 
35 1 9.70784 10.3064 1.2278 
43 1 9.07539 11.6062 1.22786 
3 1 22.5834 8.508 2.46427 
7 1 21.7806 8.508 1.22773 
11 1 20.3892 8.508 1.22778 
20 1 23.4747 7.2936 2.4642 
36 1 23.8279 6.71238 1.2278 
44 1 24.4553 5.40874 1.22779 
47 1 19.647 8.508 2.46423 
51 1 18.2245 8.50801 2.46422 
55 1 17.504 8.50807 1.22778 
17 1 23.4747 9.72241 2.4642 
33 1 23.8279 10.3036 1.2278 
41 1 24.4553 11.6073 1.22779 
15 1 26.4404 0.842611 2.4642 
23 1 25.2246 3.40397 2.46421 
28 1 24.7156 4.74594 2.46421 
31 1 26.1007 1.43578 1.2278 
39 1 25.486 2.73553 1.22779 
2 1 27.3126 17.398 2.46427 
6 1 28.1253 17.398 1.22773 
10 1 29.5109 17.398 1.22775 
14 1 26.4404 16.1734 2.4642 
22 1 25.2246 13.612 2.46421 
25 1 24.7156 12.2701 2.46421 
30 1 26.1007 15.5802 1.2278 
38 1 25.486 14.2805 1.22779 
46 1 30.2456 17.3978 2.46418 
50 1 31.6818 17.3978 2.46395 
54 1 32.4064 17.3992 1.22743 
ITEM: TIMESTEP
40
ITEM: NUMBER OF ATOMS
57
ITEM: BOX BOUNDS pp pp pp
0.0000000000000000e+00 3.2808000000000000e+01
0.0000000000000000e+00 1.7780000000000001e+01
0.0000000000000000e+00 2.4729999999999999e+00
ITEM: ATOMS id type x y z 
13 1 7.38633 0.782413 2.52317 
29 1 7.67636 1.38549 1.28316 
37 1 8.10558 2.77023 1.24957 
57 2 5.55107 0.420828 1.9752 
1 1 6.32294 17.4756 2.50236 
5 1 5.3189 17.4107 1.26856 
9 1 3.87878 17.2567 1.2205 
16 1 7.0594 16.1476 2.47501 
32 1 7.40562 15.5813 1.23769 
40 1 8.06212 14.29 1.23109 
45 1 3.17259 17.3193 2.45616 
49 1 1.74607 17.4009 2.46101 
53 1 1.02226 17.4077 1.22489 
4 1 10.9917 8.53936 2.46427 
8 1 11.7942 8.53813 1.22777 
12 1 13.1844 8.50956 1.22774 
18 1 10.0943 7.32883 2.46456 
21 1 8.32432 3.44959 2.48262 
26 1 8.81778 4.79833 2.46868 
34 1 9.71494 6.76081 1.2282 
42 1 9.07845 5.46652 1.23107 
48 1 13.9197 8.50412 2.46426 
52 1 15.3478 8.50631 2.46426 
56 1 16.0704 8.50787 1.22774 
19 1 10.0846 9.74365 2.46427 
24 1 8.32721 13.6263 2.46694 
27 1 8.81626 12.2754 2.46472 
35 1 9.703 10.308 1.22776 
43 1 9.06815 11.6059 1.22804 
3 1 22.5821 8.508 2.46425 
7 1 21.7784 8.508 1.22775 
11 1 20.3869 8.508 1.22774 
20 1 23.4776 7.29542 2.46426 
36 1 23.8379 6.71677 1.22774 
44 1 24.4615 5.41392 1.22774 
47 1 19.6537 8.508 2.46426 
51 1 18.2237 8.50804 2.46426 
55 1 17.502 8.50816 1.22774 
17 1 23.4776 9.72058 2.46426 
33 1 23.8379 10.2992 1.22774 
41 1 24.4615 11.6021 1.22774 
15 1 26.4382 0.837012 2.46426 
23 1 25.2225 3.39997 2.46426 
28 1 24.7202 4.74565 2.46426 
31 1 26.0929 1.4231 1.22774 
39 1 25.4799 2.7333 1.22774 
2 1 27.3245 17.398 2.46424 
6 1 28.1263 17.398 1.22775 
10 1 29.5198 17.3979 1.22768 
14 1 26.4382 16.179 2.46426 
22 1 25.2225 13.616 2.46426 
25 1 24.7202 12.2703 2.46426 
30 1 26.0929 15.5929 1.22774 
38 1 25.4799 14.2827 1.22774 
46 1 30.2513 17.3977 2.46417 
50 1 31.6806 17.3979 2.46378 
54 1 32.401 17.4007 1.2271 
ITEM: TIMESTEP
50
ITEM: NUMBER OF ATOMS
57
ITEM: BOX BOUNDS pp pp pp
0.0000000000000000e+00 3.2808000000000000e+01
0.0000000000000000e+00 1.7780000000000001e+01
0.0000000000000000e+00 2.4729999999999999e+00
ITEM: ATOMS id type x y z 
13 1 7.39365 0.781309 2.52321 
29 1 7.70121 1.37882 1.28313 
37 1 8.12436 2.76787 1.25321 
57 2 5.56787 0.426758 1.96315 
1 1 6.32655 17.478 2.50082 
5 1 5.31631 17.4173 1.26448 
9 1 3.87886 17.2516 1.22348 
16 1 7.06246 16.1513 2.47339 
32 1 7.40634 15.5819 1.23616 
40 1 8.06301 14.29 1.2318 
45 1 3.17086 17.2971 2.45865 
49 1 1.74344 17.3957 2.46075 
53 1 1.02187 17.4118 1.22448 
4 1 10.9921 8.54053 2.46436 
8 1 11.7926 8.53965 1.22783 
12 1 13.1826 8.51063 1.22775 
18 1 10.092 7.32969 2.46517 
21 1 8.32461 3.45025 2.48649 
26 1 8.80698 4.80511 2.47147 
34 1 9.71186 6.76158 1.22895 
42 1 9.07109 5.47242 1.23362 
48 1 13.9201 8.50354 2.46426 
52 1 15.3472 8.50533 2.46426 
56 1 16.0701 8.50751 1.22774 
19 1 10.0825 9.74332 2.46434 
24 1 8.32873 13.6283 2.46778 
27 1 8.81222 12.274 2.46523 
35 1 9.69974 10.3087 1.22785 
43 1 9.0619 11.6048 1.22849 
3 1 22.5833 8.508 2.46424 
7 1 21.7787 8.508 1.22775 
11 1 20.387 8.50799 1.22774 
20 1 23.4789 7.29528 2.46426 
36 1 23.8442 6.72001 1.22774 
44 1 24.467 5.41872 1.22774 
47 1 19.6554 8.508 2.46426 
51 1 18.2229 8.50812 2.46426 
55 1 17.5018 8.50827 1.22774 
17 1 23.4789 9.72072 2.46426 
33 1 23.8442 10.296 1.22774 
41 1 24.467 11.5973 1.22774 
15 1 26.4332 0.837241 2.46426 
23 1 25.2189 3.3997 2.46426 
28 1 24.7243 4.74826 2.46426 
31 1 26.083 1.41892 1.22774 
39 1 25.4727 2.73241 1.22774 
2 1 27.3224 17.398 2.46423 
6 1 28.1203 17.398 1.22773 
10 1 29.5186 17.3978 1.2276 
14 1 26.4332 16.1788 2.46426 
22 1 25.2189 13.6163 2.46426 
25 1 24.7243 12.2677 2.46426 
30 1 26.083 15.5971 1.22774 
38 1 25.4727 14.2836 1.22774 
46 1 30.2506 17.3973 2.46406 
50 1 31.6785 17.3983 2.46339 
54 1 32.4 17.4035 1.22666 
ITEM: TIMESTEP
56
ITEM: NUMBER OF ATOMS
57
ITEM: BOX BOUNDS pp pp pp
0.0000000000000000e+00 3.2808000000000000e+01
0.0000000000000000e+00 1.7780000000000001e+01
0.0000000000000000e+00 2.4729999999999999e+00
ITEM: ATOMS id type x y z 
13 1 7.39683 0.783092 2.52281 
29 1 7.70919 1.37887 1.28328 
37 1 8.12882 2.75993 1.25433 
57 2 5.57383 0.428439 1.95998 
1 1 6.33096 17.4814 2.4991 
5 1 5.32299 17.4218 1.26351 
9 1 3.87451 17.2476 1.22359 
16 1 7.06376 16.1516 2.47267 
32 1 7.40644 15.5828 1.23578 
40 1 8.06162 14.294 1.2319 
45 1 3.17677 17.2897 2.46002 
49 1 1.74387 17.3934 2.46079 
53 1 1.02164 17.4131 1.22454 
4 1 10.9916 8.54119 2.46444 
8 1 11.7921 8.54027 1.22788 
12 1 13.187 8.51089 1.22777 
18 1 10.0912 7.32973 2.46549 
21 1 8.32629 3.45159 2.48777 
26 1 8.80221 4.8056 2.47249 
34 1 9.71255 6.76591 1.22934 
42 1 9.06542 5.46994 1.23461 
48 1 13.9199 8.50347 2.46426 
52 1 15.3484 8.50498 2.46425 
56 1 16.0712 8.50731 1.22776 
19 1 10.0817 9.74352 2.46438 
24 1 8.32965 13.6272 2.46795 
27 1 8.80984 12.2757 2.4654 
35 1 9.69934 10.3069 1.22793 
43 1 9.0599 11.6033 1.22869 
3 1 22.5828 8.508 2.46425 
7 1 21.7816 8.508 1.22775 
11 1 20.3864 8.50799 1.22775 
20 1 23.4789 7.29583 2.46424 
36 1 23.8452 6.72193 1.22776 
44 1 24.4703 5.41728 1.22776 
47 1 19.6509 8.50801 2.46425 
51 1 18.2263 8.50817 2.46425 
55 1 17.5016 8.5083 1.22776 
17 1 23.4789 9.72018 2.46424 
33 1 23.8452 10.2941 1.22776 
41 1 24.4703 11.5987 1.22776 
15 1 26.4316 0.836849 2.46424 
23 1 25.2172 3.4005 2.46424 
28 1 24.7256 4.74977 2.46424 
31 1 26.0785 1.42106 1.22775 
39 1 25.4712 2.72979 1.22776 
2 1 27.3157 17.398 2.46423 
6 1 28.122 17.398 1.22771 
10 1 29.5116 17.3977 1.22757 
14 1 26.4316 16.1791 2.46424 
22 1 25.2172 13.6155 2.46424 
25 1 24.7256 12.2662 2.46424 
30 1 26.0785 15.5949 1.22775 
38 1 25.4712 14.2862 1.22776 
46 1 30.2477 17.3971 2.464 
50 1 31.6749 17.3986 2.46323 
54 1 32.3991 17.4049 1.22656 
ITEM: TIMESTEP
60
ITEM: NUMBER OF ATOMS
57
ITEM: BOX BOUNDS pp pp pp
0.0000000000000000e+00 3.2808000000000000e+01
0.0000000000000000e+00 1.7780000000000001e+01
0.0000000000000000e+00 2.4729999999999999e+00
ITEM: ATOMS id type x y z 
13 1 7.39836 0.782503 0.0498892 
29 1 7.71164 1.37713 1.28332 
37 1 8.13187 2.76213 1.2547 
57 2 5.57523 0.429337 1.95877 
1 1 6.33162 17.4813 0.0256414 
5 1 5.31955 17.4223 1.26285 
9 1 3.87503 17.2472 1.22415 
16 1 7.06393 16.152 2.4725 
32 1 7.4065 15.5832 1.23557 
40 1 8.06227 14.2928 1.23193 
45 1 3.1743 17.2875 2.46012 
49 1 1.74304 17.3923 2.46086 
53 1 1.02127 17.4132 1.22456 
4 1 10.9916 8.54116 2.46447 
8 1 11.7917 8.54036 1.22791 
12 1 13.1847 8.51103 1.22777 
18 1 10.0913 7.32985 2.46562 
21 1 8.32676 3.45127 0.0151373 
26 1 8.80095 4.8067 2.47285 
34 1 9.7118 6.76504 1.22949 
42 1 9.06507 5.47217 1.23494 
48 1 13.92 8.50344 2.46426 
52 1 15.348 8.50486 2.46425 
56 1 16.071 8.50723 1.22775 
19 1 10.0816 9.7435 2.46441 
24 1 8.32954 13.6276 2.46798 
27 1 8.80959 12.2748 2.46547 
35 1 9.69892 10.3073 1.22795 
43 1 9.0593 11.6034 1.22874 
3 1 22.5821 8.508 2.46425 
7 1 21.7812 8.508 1.22775 
11 1 20.3875 8.50799 1.22775 
20 1 23.4792 7.29579 2.46425 
36 1 23.8462 6.72154 1.22775 
44 1 24.4707 5.41865 1.22775 
47 1 19.6525 8.50801 2.46425 
51 1 18.225 8.50818 2.46425 
55 1 17.5019 8.50831 1.22775 
17 1 23.4792 9.72022 2.46425 
33 1 23.8462 10.2945 1.22775 
41 1 24.4707 11.5974 1.22775 
15 1 26.431 0.836715 2.46424 
23 1 25.2169 3.4001 2.46425 
28 1 24.7263 4.74984 2.46425 
31 1 26.078 1.41968 1.22775 
39 1 25.4699 2.73028 1.22775 
2 1 27.3174 17.398 2.46423 
6 1 28.1207 17.398 1.22771 
10 1 29.5133 17.3976 1.22755 
14 1 26.4311 16.1793 2.46424 
22 1 25.2169 13.6159 2.46425 
25 1 24.7263 12.2662 2.46425 
30 1 26.078 15.5963 1.22775 
38 1 25.4699 14.2857 1.22775 
46 1 30.2483 17.3971 2.46398 
50 1 31.6756 17.3988 2.4632 
54 1 32.3986 17.4053 1.22651 
ITEM: TIMESTEP
70
ITEM: NUMBER OF ATOMS
57
ITEM: BOX BOUNDS pp pp pp
0.0000000000000000e+00 3.2808000000000000e+01
0.0000000000000000e+00 1.7780000000000001e+01
0.0000000000000000e+00 2.4729999999999999e+00
ITEM: ATOMS id type x y z 
13 1 7.40616 0.782458 0.0498949 
29 1 7.72473 1.3746 1.28346 
37 1 8.14321 2.76084 1.25647 
57 2 5.58314 0.433088 1.95331 
1 1 6.33571 17.4837 0.0230379 
5 1 5.31618 17.4278 1.26014 
9 1 3.87359 17.2425 1.22562 
16 1 7.06548 16.153 2.47142 
32 1 7.40742 15.5834 1.23461 
40 1 8.06257 14.2929 1.23198 
45 1 3.17165 17.2763 2.46147 
49 1 1.74142 17.3871 2.46116 
53 1 1.01993 17.4141 1.22476 
4 1 10.9915 8.54189 2.46465 
8 1 11.7917 8.5411 1.22806 
12 1 13.1849 8.51157 1.22781 
18 1 10.091 7.33034 2.46632 
21 1 8.3301 3.45151 0.0169894 
26 1 8.79398 4.81007 2.47459 
34 1 9.7099 6.76571 1.23028 
42 1 9.05868 5.47518 1.23659 
48 1 13.9201 8.50343 2.46429 
52 1 15.3478 8.50427 2.46426 
56 1 16.0709 8.50681 1.22775 
19 1 10.0808 9.7438 2.46454 
24 1 8.32947 13.628 2.46812 
27 1 8.80701 12.2738 2.46576 
35 1 9.69723 10.3074 1.22809 
43 1 9.05615 11.6027 1.22903 
3 1 22.5825 8.50801 2.46425 
7 1 21.7815 8.508 1.22775 
11 1 20.3878 8.50799 1.22775 
20 1 23.4801 7.29616 2.46425 
36 1 23.8487 6.72304 1.22775 
44 1 24.4748 5.42029 1.22775 
47 1 19.6527 8.50804 2.46425 
51 1 18.225 8.50827 2.46425 
55 1 17.5018 8.50834 1.22775 
17 1 23.4801 9.71985 2.46425 
33 1 23.8487 10.293 1.22775 
41 1 24.4748 11.5957 1.22775 
15 1 26.4283 0.836144 2.46424 
23 1 25.2146 3.39959 2.46425 
28 1 24.7292 4.75113 2.46425 
31 1 26.0735 1.41775 1.22774 
39 1 25.4656 2.72917 1.22775 
2 1 27.3158 17.398 2.4642 
6 1 28.1185 17.398 1.22768 
10 1 29.5118 17.3974 1.22745 
14 1 26.4284 16.1799 2.46424 
22 1 25.2146 13.6164 2.46425 
25 1 24.7292 12.2649 2.46425 
30 1 26.0735 15.5983 1.22774 
38 1 25.4656 14.2868 1.22775 
46 1 30.2466 17.3968 2.46387 
50 1 31.674 17.3999 2.46301 
54 1 32.397 17.4079 1.22634 
ITEM: TIMESTEP
80
ITEM: NUMBER OF ATOMS
57
ITEM: BOX BOUNDS pp pp pp
0.0000000000000000e+00 3.2808000000000000e+01
0.0000000000000000e+00 1.7780000000000001e+01
0.0000000000000000e+00 2.4729999999999999e+00
ITEM: ATOMS id type x y z 
13 1 7.44712 0.783571 0.0492143 
29 1 7.7883 1.36211 1.28396 
37 1 8.20056 2.75172 1.26475 
57 2 5.62414 0.452856 1.92719 
1 1 6.36267 17.4981 0.00915004 
5 1 5.29735 17.4581 1.24704 
9 1 3.86221 17.2171 1.23238 
16 1 7.07344 16.1581 2.46525 
32 1 7.41036 15.5869 1.22919 
40 1 8.06262 14.294 1.2316 
45 1 3.16245 17.2212 2.46809 
49 1 1.73119 17.3579 2.46332 
53 1 1.01215 17.4134 1.22645 
4 1 10.99 8.54332 2.46598 
8 1 11.7899 8.54431 1.22917 
12 1 13.1844 8.5143 1.2281 
18 1 10.09 7.3317 2.4705 
21 1 8.35195 3.45065 0.0257931 
26 1 8.75978 4.82904 2.48343 
34 1 9.70172 6.77199 1.23492 
42 1 9.02453 5.49331 1.24512 
48 1 13.92 8.50381 2.46452 
52 1 15.3471 8.5013 2.4643 
56 1 16.0713 8.5043 1.22778 
19 1 10.0779 9.74469 2.46543 
24 1 8.32745 13.6287 2.46818 
27 1 8.79326 12.2691 2.46705 
35 1 9.69118 10.3061 1.22899 
43 1 9.04144 11.5981 1.23036 
3 1 22.5844 8.50801 2.46425 
7 1 21.7838 8.50798 1.22775 
11 1 20.389 8.508 1.22775 
20 1 23.4845 7.29775 2.46425 
36 1 23.8604 6.72916 1.22775 
44 1 24.4953 5.42927 1.22775 
47 1 19.6532 8.50825 2.46425 
51 1 18.2264 8.50878 2.46425 
55 1 17.5019 8.5083 1.22776 
17 1 23.4845 9.71828 2.46425 
33 1 23.8604 10.2869 1.22775 
41 1 24.4953 11.5868 1.22775 
15 1 26.4144 0.833403 2.4642 
23 1 25.2028 3.39649 2.46424 
28 1 24.744 4.75895 2.46425 
31 1 26.0514 1.41055 1.22771 
39 1 25.4435 2.72306 1.22774 
2 1 27.3065 17.3981 2.46406 
6 1 28.108 17.3977 1.22748 
10 1 29.5025 17.3956 1.22691 
14 1 26.4144 16.1826 2.4642 
22 1 25.2028 13.6195 2.46424 
25 1 24.7441 12.2571 2.46425 
30 1 26.0514 15.6055 1.22771 
38 1 25.4435 14.2929 1.22774 
46 1 30.2381 17.3958 2.4633 
50 1 31.6651 17.4077 2.4624 
54 1 32.3887 17.4219 1.22587 
ITEM: TIMESTEP
90
ITEM: NUMBER OF ATOMS
57
ITEM: BOX BOUNDS pp pp pp
0.0000000000000000e+00 3.2808000000000000e+01
0.0000000000000000e+00 1.7780000000000001e+01
0.0000000000000000e+00 2.4729999999999999e+00
ITEM: ATOMS id type x y z 
13 1 7.46234 0.786229 0.0469243 
29 1 7.80484 1.36017 1.28228 
37 1 8.22596 2.74819 1.26603 
57 2 5.64306 0.457895 1.92392 
1 1 6.3671 17.5032 0.00343113 
5 1 5.28787 17.4798 1.23987 
9 1 3.86646 17.2103 1.23383 
16 1 7.07679 16.1623 2.46055 
32 1 7.40859 15.5889 1.22469 
40 1 8.05549 14.2924 1.22914 
45 1 3.15948 17.2062 2.46953 
49 1 1.72724 17.3349 2.46579 
53 1 1.00927 17.394 1.22891 
4 1 10.9899 8.54325 2.46787 
8 1 11.7897 8.54305 1.23089 
12 1 13.1846 8.51569 1.22883 
18 1 10.0901 7.33074 2.4743 
21 1 8.37733 3.44659 0.0274192 
26 1 8.75075 4.83567 2.48709 
34 1 9.69629 6.77533 1.23884 
42 1 9.00465 5.50351 1.24893 
48 1 13.92 8.50561 2.46514 
52 1 15.3474 8.50041 2.46447 
56 1 16.0717 8.50227 1.22792 
19 1 10.0791 9.7452 2.46653 
24 1 8.31831 13.6267 2.466 
27 1 8.78682 12.2674 2.46677 
35 1 9.69332 10.3078 1.22998 
43 1 9.03949 11.5984 1.23029 
3 1 22.5849 8.50797 2.46425 
7 1 21.7846 8.50794 1.22775 
11 1 20.3896 8.50818 1.22775 
20 1 23.4852 7.29775 2.46425 
36 1 23.8612 6.72932 1.22775 
44 1 24.5026 5.43211 1.22775 
47 1 19.6531 8.50865 2.46425 
51 1 18.227 8.50893 2.46427 
55 1 17.5021 8.50749 1.22778 
17 1 23.4852 9.71824 2.46425 
33 1 23.8611 10.2867 1.22775 
41 1 24.5026 11.5838 1.22775 
15 1 26.4094 0.832791 2.46411 
23 1 25.1972 3.3952 2.46423 
28 1 24.7505 4.76199 2.46425 
31 1 26.0467 1.41018 1.22763 
39 1 25.4356 2.72103 1.22772 
2 1 27.3022 17.3981 2.46385 
6 1 28.1038 17.3969 1.22726 
10 1 29.4983 17.3939 1.22673 
14 1 26.4091 16.1833 2.46411 
22 1 25.1972 13.6207 2.46423 
25 1 24.7505 12.254 2.46425 
30 1 26.0466 15.6058 1.22763 
38 1 25.4356 14.2949 1.22772 
46 1 30.2345 17.3981 2.4632 
50 1 31.6613 17.4196 2.46335 
54 1 32.3852 17.4284 1.227 
ITEM: TIMESTEP
92
ITEM: NUMBER OF ATOMS
57
ITEM: BOX BOUNDS pp pp pp
0.0000000000000000e+00 3.2808000000000000e+01
0.0000000000000000e+00 1.7780000000000001e+01
0.0000000000000000e+00 2.4729999999999999e+00
ITEM: ATOMS id type x y z 
13 1 7.46075 0.785572 0.0466774 
29 1 7.80544 1.35932 1.28198 
37 1 8.22814 2.74834 1.26607 
57 2 5.64317 0.458528 1.92395 
1 1 6.36723 17.5032 0.0035025 
5 1 5.28743 17.4802 1.23934 
9 1 3.86511 17.2115 1.23384 
16 1 7.07603 16.1628 2.46026 
32 1 7.4082 15.5895 1.22437 
40 1 8.05466 14.2917 1.22895 
45 1 3.15974 17.2056 2.4696 
49 1 1.72823 17.3328 2.46589 
53 1 1.00991 17.3925 1.22898 
4 1 10.9895 8.5429 2.46803 
8 1 11.7892 8.54307 1.23102 
12 1 13.1837 8.51581 1.22892 
18 1 10.0899 7.33102 2.4745 
21 1 8.37821 3.44535 0.027523 
26 1 8.75039 4.83601 2.48727 
34 1 9.69553 6.77502 1.23908 
42 1 9.00474 5.5051 1.24913 
48 1 13.9205 8.5057 2.46522 
52 1 15.3462 8.50036 2.4645 
56 1 16.0714 8.50218 1.22794 
19 1 10.0792 9.74563 2.4666 
24 1 8.31736 13.6267 2.46583 
27 1 8.78644 12.2677 2.4667 
35 1 9.69366 10.3081 1.23004 
43 1 9.03941 11.5989 1.23024 
3 1 22.5845 8.50796 2.46425 
7 1 21.7844 8.50794 1.22775 
11 1 20.3894 8.50821 1.22775 
20 1 23.4851 7.29769 2.46425 
36 1 23.8615 6.72938 1.22775 
44 1 24.5025 5.43361 1.22775 
47 1 19.6544 8.50868 2.46425 
51 1 18.2264 8.5089 2.46428 
55 1 17.5023 8.50742 1.22779 
17 1 23.4851 9.71828 2.46425 
33 1 23.8615 10.2866 1.22775 
41 1 24.5025 11.5823 1.22775 
15 1 26.4095 0.832649 2.4641 
23 1 25.197 3.39515 2.46422 
28 1 24.7509 4.76181 2.46424 
31 1 26.0465 1.40923 1.22762 
39 1 25.435 2.72087 1.22772 
2 1 27.3037 17.398 2.46385 
6 1 28.1038 17.3968 1.22726 
10 1 29.4999 17.394 1.22677 
14 1 26.4092 16.1835 2.4641 
22 1 25.197 13.6208 2.46422 
25 1 24.7509 12.2541 2.46424 
30 1 26.0464 15.6067 1.22762 
38 1 25.435 14.295 1.22772 
46 1 30.2347 17.3986 2.46324 
50 1 31.6625 17.4202 2.46345 
54 1 32.386 17.4284 1.2271 
ITEM: TIMESTEP
100
ITEM: NUMBER OF ATOMS
57
ITEM: BOX BOUNDS pp pp pp
-4.4305010223885215e-03 3.2812430501022384e+01
-2.9064493820632393e-03 1.7782906449382065e+01
-5.1975319029098530e-04 2.4735197531902902e+00
ITEM: ATOMS id type x y z 
13 1 7.4583 0.78307 0.0461504 
29 1 7.80315 1.35712 1.28199 
57 2 5.64029 0.455746 1.92429 
1 1 6.36441 17.506 0.00298077 
5 1 5.28427 17.483 1.23929 
9 1 3.86202 17.2144 1.23384 
16 1 7.07356 16.1651 2.46077 
32 1 7.40586 15.5915 1.22435 
40 1 8.05235 14.2933 1.22894 
45 1 3.15606 17.2084 2.47012 
49 1 1.72405 17.3355 2.46641 
53 1 1.00571 17.3952 1.22898 
4 1 10.9879 8.54281 2.46855 
8 1 11.7878 8.54295 1.23102 
12 1 13.1829 8.51569 1.22892 
18 1 10.0882 7.33052 0.000985032 
21 1 8.37614 3.44364 0.0270128 
26 1 8.7484 4.83468 0.0137714 
34 1 9.69377 6.77434 1.23908 
42 1 9.00265 5.50363 1.24914 
48 1 13.9199 8.50558 2.46573 
52 1 15.346 8.50023 2.46502 
56 1 16.0714 8.50205 1.22794 
37 1 8.22597 2.74647 1.26609 
19 1 10.0775 9.74595 2.46712 
24 1 8.31507 13.6284 2.46634 
27 1 8.78446 12.2687 2.46722 
35 1 9.69189 10.3087 1.23004 
43 1 9.03745 11.5999 1.23024 
3 1 22.5863 8.50783 2.46477 
7 1 21.7859 8.50781 1.22775 
11 1 20.3905 8.50809 1.22775 
20 1 23.487 7.29715 2.46477 
36 1 23.8635 6.72862 1.22775 
44 1 24.5047 5.43221 1.22774 
47 1 19.6551 8.50856 2.46477 
51 1 18.227 8.50877 2.46479 
55 1 17.5025 8.50729 1.22779 
17 1 23.487 9.71857 2.46477 
33 1 23.8635 10.2871 1.22775 
41 1 24.5047 11.5835 1.22774 
15 1 26.4123 0.830039 2.46462 
23 1 25.1994 3.39326 2.46474 
28 1 24.7531 4.76057 2.46476 
31 1 26.0491 1.40691 1.22762 
39 1 25.4375 2.719 1.22771 
2 1 27.3066 17.4008 2.46436 
6 1 28.1069 17.3996 1.22726 
10 1 29.5034 17.3968 1.22677 
14 1 26.4119 16.1858 2.46462 
22 1 25.1994 13.6224 2.46474 
25 1 24.7531 12.2551 2.46476 
30 1 26.049 15.6088 1.22762 
38 1 25.4375 14.2967 1.22771 
46 1 30.2386 17.4014 2.46376 
50 1 31.6666 17.423 2.46396 
54 1 32.3903 17.4311 1.2271 
ITEM: TIMESTEP
110
ITEM: NUMBER OF ATOMS
57
ITEM: BOX BOUNDS pp pp pp
-9.4228183950104669e-04 3.2808942281839499e+01
-4.4481208291592194e-03 1.7784448120829154e+01
-9.1989535250400992e-04 2.4739198953525028e+00
ITEM: ATOMS id type x y z 
13 1 7.45946 0.783734 0.045342 
29 1 7.80484 1.35816 1.28184 
57 2 5.64317 0.454077 1.9251 
1 1 6.36696 17.507 0.00253952 
5 1 5.28482 17.4841 1.23887 
9 1 3.86681 17.2172 1.23385 
16 1 7.07616 16.1656 2.46105 
32 1 7.40819 15.591 1.22423 
40 1 8.05359 14.2927 1.22885 
45 1 3.15767 17.21 2.47053 
49 1 1.72517 17.3362 2.46685 
53 1 1.00851 17.3956 1.22902 
4 1 10.9886 8.54296 2.46902 
8 1 11.7877 8.54274 1.23106 
12 1 13.184 8.51571 1.22896 
18 1 10.0896 7.33043 0.000667356 
21 1 8.37896 3.44305 0.0266127 
26 1 8.75106 4.83431 0.0134982 
34 1 9.69585 6.77404 1.23919 
42 1 9.00371 5.49961 1.24921 
48 1 13.9208 8.50565 2.46616 
52 1 15.3465 8.5002 2.46543 
56 1 16.0723 8.50196 1.22795 
37 1 8.22818 2.74671 1.26616 
19 1 10.0792 9.74644 2.46755 
24 1 8.31588 13.6296 2.46667 
27 1 8.78675 12.2678 2.46759 
35 1 9.6942 10.3096 1.23006 
43 1 9.03947 11.602 1.23021 
3 1 22.5854 8.50776 2.46516 
7 1 21.786 8.50775 1.22774 
11 1 20.3895 8.50804 1.22775 
20 1 23.485 7.29673 2.46516 
36 1 23.8613 6.72785 1.22774 
44 1 24.5034 5.42868 1.22774 
47 1 19.6523 8.5085 2.46517 
51 1 18.2273 8.50867 2.46519 
55 1 17.5013 8.50718 1.22779 
17 1 23.4849 9.71885 2.46516 
33 1 23.8612 10.2877 1.22774 
41 1 24.5033 11.5869 1.22774 
15 1 26.4108 0.828942 2.46501 
23 1 25.198 3.39135 2.46514 
28 1 24.7507 4.76089 2.46516 
31 1 26.0475 1.40645 1.22761 
39 1 25.4358 2.71958 1.22771 
2 1 27.3037 17.4023 2.46476 
6 1 28.1034 17.401 1.22725 
10 1 29.5003 17.3984 1.22678 
14 1 26.4105 16.1868 2.46501 
22 1 25.198 13.6242 2.46514 
25 1 24.7507 12.2546 2.46516 
30 1 26.0474 15.6091 1.22761 
38 1 25.4358 14.296 1.22771 
46 1 30.237 17.4031 2.46418 
50 1 31.6624 17.4247 2.4644 
54 1 32.3866 17.4323 1.22714 
ITEM: TIMESTEP
120
ITEM: NUMBER OF ATOMS
57
ITEM: BOX BOUNDS pp pp pp
-1.2890371443731606e-03 3.2809289037144381e+01
-5.7487147638292943e-03 1.7785748714763827e+01
-8.9799806884945544e-04 2.4738979980688485e+00
ITEM: ATOMS id type x y z 
13 1 7.45831 0.784497 0.0449963 
29 1 7.80367 1.35746 1.28157 
57 2 5.64368 0.452464 1.92552 
1 1 6.36872 17.5075 0.00243622 
5 1 5.28413 17.4854 1.23874 
9 1 3.86582 17.2194 1.23385 
16 1 7.07678 16.1657 2.46092 
32 1 7.40757 15.5919 1.22411 
40 1 8.05272 14.2924 1.22876 
45 1 3.15692 17.2115 2.47051 
49 1 1.725 17.3365 2.46687 
53 1 1.00739 17.3959 1.22906 
4 1 10.9884 8.5427 2.46907 
8 1 11.7868 8.54244 1.2311 
12 1 13.1836 8.51576 1.22901 
18 1 10.0895 7.33014 0.000783539 
21 1 8.37959 3.44179 0.0266818 
26 1 8.75171 4.83425 0.0136011 
34 1 9.69647 6.7737 1.2393 
42 1 9.00492 5.49986 1.24931 
48 1 13.9205 8.50574 2.46618 
52 1 15.3458 8.50018 2.46543 
56 1 16.0721 8.50188 1.22796 
37 1 8.22849 2.74647 1.26617 
19 1 10.0796 9.74683 2.46756 
24 1 8.31513 13.6296 2.46656 
27 1 8.78674 12.2683 2.46753 
35 1 9.6953 10.3101 1.23009 
43 1 9.04028 11.6027 1.23019 
3 1 22.586 8.5077 2.46514 
7 1 21.787 8.50769 1.22774 
11 1 20.3899 8.508 1.22775 
20 1 23.4847 7.29606 2.46514 
36 1 23.8605 6.72717 1.22774 
44 1 24.5027 5.42774 1.22774 
47 1 19.6529 8.50845 2.46515 
51 1 18.2276 8.50858 2.46517 
55 1 17.5012 8.50707 1.22779 
17 1 23.4847 9.7194 2.46514 
33 1 23.8604 10.2883 1.22774 
41 1 24.5027 11.5877 1.22774 
15 1 26.4116 0.828267 2.46498 
23 1 25.1985 3.39016 2.46511 
28 1 24.7505 4.76035 2.46513 
31 1 26.0488 1.40541 1.22761 
39 1 25.4366 2.71935 1.22771 
2 1 27.3032 17.4035 2.46474 
6 1 28.1028 17.4022 1.22725 
10 1 29.4999 17.3997 1.2268 
14 1 26.4112 16.1874 2.46498 
22 1 25.1985 13.6253 2.46511 
25 1 24.7505 12.2551 2.46513 
30 1 26.0486 15.6101 1.22761 
38 1 25.4366 14.2961 1.22771 
46 1 30.2361 17.4047 2.46418 
50 1 31.6621 17.4262 2.46442 
54 1 32.3863 17.4333 1.22719 
ITEM: TIMESTEP
130
ITEM: NUMBER OF ATOMS
57
ITEM: BOX BOUNDS pp pp pp
4.9099886900486629e-03 3.2803090011309955e+01
-4.7138879417946665e-03 1.7784713887941795e+01
-1.1121898624237953e-03 2.4741121898624230e+00
ITEM: ATOMS id type x y z 
13 1 7.46021 0.788341 0.0442735 
29 1 7.80573 1.36008 1.28108 
57 2 5.64876 0.452414 1.92644 
1 1 6.37377 17.5052 0.00194362 
5 1 5.28781 17.4846 1.23845 
9 1 3.87046 17.2204 1.23384 
16 1 7.08145 16.1637 2.46093 
32 1 7.41051 15.5905 1.22389 
40 1 8.05465 14.2899 1.2286 
45 1 3.16093 17.211 2.47073 
49 1 1.72973 17.3339 2.46715 
53 1 1.01256 17.3931 1.22913 
4 1 10.9898 8.54315 2.4694 
8 1 11.7879 8.54219 1.23121 
12 1 13.1848 8.51596 1.22908 
18 1 10.0918 7.33033 0.000745786 
21 1 8.38454 3.44358 0.0265278 
26 1 8.75602 4.83492 0.0135496 
34 1 9.69976 6.77331 1.23948 
42 1 9.00913 5.49945 1.24947 
48 1 13.9214 8.50604 2.46646 
52 1 15.3462 8.50029 2.46567 
56 1 16.0723 8.50189 1.22799 
37 1 8.23249 2.74836 1.26619 
19 1 10.0827 9.7474 2.46784 
24 1 8.31753 13.627 2.46663 
27 1 8.78994 12.2679 2.46769 
35 1 9.69976 10.3106 1.23014 
43 1 9.04454 11.6033 1.23015 
3 1 22.5845 8.50773 2.46535 
7 1 21.786 8.50773 1.22774 
11 1 20.3887 8.50808 1.22775 
20 1 23.4814 7.29547 2.46535 
36 1 23.8562 6.72653 1.22774 
44 1 24.4984 5.42676 1.22774 
47 1 19.6517 8.50851 2.46536 
51 1 18.2271 8.50855 2.46539 
55 1 17.5011 8.50702 1.2278 
17 1 23.4813 9.72006 2.46535 
33 1 23.8561 10.289 1.22774 