ITEM: TIMESTEP
0
ITEM: NUMBER OF ATOMS
131
ITEM: BOX BOUNDS pp pp pp
0.0000000000000000e+00 1.8762000000000000e+01
0.0000000000000000e+00 1.8762000000000000e+01
0.0000000000000000e+00 1.8760999999999999e+01
ITEM: ATOMS id type x y z 
1 1 3.12 3.119 3.121 
10 1 5.595 5.596 5.595 
17 1 4.011 4.011 4.012 
26 1 4.704 4.704 4.704 
33 1 0.414 3.456 3.456 
41 1 3.456 0.413 3.456 
49 1 3.456 3.456 0.414 
58 1 8.301 5.259 5.259 
66 1 5.259 8.301 5.259 
74 1 5.259 5.259 8.301 
81 1 1.612 3.354 3.354 
89 1 3.353 1.612 3.354 
97 1 3.354 3.354 1.613 
106 1 7.103 5.361 5.361 
114 1 5.362 7.103 5.361 
122 1 5.361 5.361 7.103 
4 1 3.12 3.12 14.976 
11 1 5.595 5.595 12.5 
20 1 4.011 4.011 14.084 
27 1 4.704 4.704 13.392 
36 1 0.414 3.456 14.639 
46 1 3.456 0.414 14.639 
56 1 3.456 3.456 17.682 
59 1 8.301 5.259 12.837 
69 1 5.259 8.301 12.837 
79 1 5.259 5.259 9.794 
84 1 1.612 3.354 14.742 
94 1 3.354 1.612 14.742 
104 1 3.354 3.354 16.483 
107 1 7.103 5.361 12.735 
117 1 5.361 7.103 12.735 
127 1 5.361 5.361 10.993 
6 1 3.12 14.976 3.12 
13 1 5.595 12.501 5.596 
22 1 4.011 14.085 4.011 
29 1 4.704 13.392 4.705 
38 1 0.414 14.64 3.457 
48 1 3.456 17.682 3.456 
52 1 3.456 14.64 0.414 
61 1 8.301 12.837 5.259 
71 1 5.259 9.794 5.259 
75 1 5.259 12.837 8.301 
86 1 1.612 14.742 3.354 
96 1 3.354 16.483 3.354 
100 1 3.354 14.742 1.612 
109 1 7.103 12.735 5.361 
119 1 5.361 10.993 5.361 
123 1 5.361 12.735 7.103 
7 1 3.12 14.976 14.976 
16 1 5.595 12.501 12.5 
23 1 4.011 14.085 14.084 
32 1 4.704 13.392 13.391 
39 1 0.414 14.64 14.639 
43 1 3.456 17.682 14.639 
53 1 3.456 14.64 17.682 
64 1 8.302 12.837 12.837 
68 1 5.259 9.795 12.837 
78 1 5.259 12.837 9.794 
87 1 1.612 14.742 14.741 
91 1 3.354 16.483 14.741 
101 1 3.353 14.742 16.483 
112 1 7.103 12.735 12.735 
116 1 5.361 10.993 12.735 
126 1 5.361 12.735 10.993 
8 1 14.976 3.12 3.12 
15 1 12.501 5.595 5.595 
24 1 14.084 4.011 4.011 
31 1 13.392 4.704 4.704 
40 1 17.682 3.456 3.456 
44 1 14.64 0.414 3.457 
54 1 14.64 3.456 0.414 
63 1 9.795 5.259 5.259 
67 1 12.837 8.301 5.259 
77 1 12.837 5.259 8.301 
88 1 16.483 3.354 3.354 
92 1 14.742 1.612 3.354 
102 1 14.742 3.354 1.612 
111 1 10.993 5.361 5.361 
115 1 12.735 7.103 5.361 
125 1 12.735 5.361 7.103 
5 1 14.976 3.119 14.975 
14 1 12.501 5.596 12.501 
21 1 14.085 4.011 14.084 
30 1 13.392 4.703 13.392 
37 1 17.682 3.456 14.639 
47 1 14.64 0.413 14.639 
51 1 14.64 3.456 17.682 
62 1 9.794 5.259 12.837 
72 1 12.837 8.301 12.837 
76 1 12.837 5.259 9.795 
85 1 16.483 3.354 14.741 
95 1 14.742 1.612 14.741 
99 1 14.742 3.354 16.483 
110 1 10.993 5.361 12.735 
120 1 12.734 7.103 12.735 
124 1 12.735 5.361 10.993 
3 1 14.976 14.976 3.12 
12 1 12.501 12.501 5.595 
19 1 14.085 14.085 4.011 
28 1 13.392 13.392 4.704 
35 1 17.682 14.64 3.457 
45 1 14.64 17.682 3.457 
55 1 14.64 14.64 0.414 
60 1 9.794 12.837 5.259 
70 1 12.837 9.794 5.259 
80 1 12.837 12.837 8.301 
83 1 16.484 14.742 3.354 
93 1 14.742 16.483 3.354 
103 1 14.742 14.742 1.613 
108 1 10.993 12.735 5.361 
118 1 12.734 10.993 5.361 
128 1 12.734 12.734 7.103 
2 1 14.976 14.976 14.975 
9 1 12.501 12.501 12.501 
18 1 14.084 14.085 14.084 
25 1 13.391 13.393 13.392 
34 1 17.682 14.64 14.639 
42 1 14.64 17.682 14.639 
50 1 14.64 14.64 17.682 
57 1 9.795 12.837 12.837 
65 1 12.837 9.794 12.837 
73 1 12.837 12.837 9.794 
82 1 16.483 14.742 14.741 
90 1 14.742 16.483 14.741 
98 1 14.742 14.742 16.483 
105 1 10.993 12.734 12.734 
113 1 12.735 10.993 12.735 
121 1 12.735 12.734 10.993 
129 2 10.993 12.734 14.084 
130 2 12.122 12.583 15.088 
131 3 11.556 12.464 15.891 
ITEM: TIMESTEP
10
ITEM: NUMBER OF ATOMS
131
ITEM: BOX BOUNDS pp pp pp
0.0000000000000000e+00 1.8762000000000000e+01
0.0000000000000000e+00 1.8762000000000000e+01
0.0000000000000000e+00 1.8760999999999999e+01
ITEM: ATOMS id type x y z 
1 1 3.11007 3.10921 3.11067 
10 1 5.6051 5.60564 5.6051 
17 1 4.01159 4.01178 4.0124 
26 1 4.70312 4.7031 4.70321 
33 1 0.41929 3.45468 3.45458 
41 1 3.45447 0.418897 3.45475 
49 1 3.45463 3.4547 0.420055 
58 1 8.2955 5.26026 5.26031 
66 1 5.26045 8.29558 5.26015 
74 1 5.26029 5.26023 8.29547 
81 1 1.60841 3.35478 3.35509 
89 1 3.35404 1.60857 3.35493 
97 1 3.3549 3.35481 1.60985 
106 1 7.10605 5.3602 5.35999 
114 1 5.36091 7.10577 5.36021 
122 1 5.36004 5.36021 7.10567 
4 1 3.10986 3.1099 14.9855 
11 1 5.60522 5.60445 12.4907 
20 1 4.01207 4.01212 14.084 
27 1 4.70299 4.70273 13.3921 
36 1 0.418979 3.45472 14.6405 
46 1 3.45471 0.419185 14.6405 
56 1 3.45466 3.45467 17.676 
59 1 8.29533 5.26034 12.8358 
69 1 5.26033 8.29505 12.8359 
79 1 5.26027 5.26032 9.80016 
84 1 1.60876 3.35472 14.7409 
94 1 3.35475 1.60875 14.7409 
104 1 3.35499 3.35502 16.4868 
107 1 7.10568 5.36028 12.7359 
117 1 5.36025 7.10542 12.7358 
127 1 5.35992 5.36003 10.9893 
6 1 3.11001 14.9858 3.10985 
13 1 5.60508 12.4911 5.60494 
22 1 4.0117 14.0842 4.01187 
29 1 4.70346 13.3929 4.70394 
38 1 0.419306 14.6413 3.45554 
48 1 3.45471 17.6762 3.45465 
52 1 3.45475 14.6413 0.419503 
61 1 8.29573 12.8358 5.26028 
71 1 5.26028 9.80014 5.26032 
75 1 5.26028 12.836 8.29481 
86 1 1.6086 14.7411 3.35502 
96 1 3.355 16.4867 3.35488 
100 1 3.35477 14.7412 1.60944 
109 1 7.10562 12.736 5.36049 
119 1 5.35983 10.9892 5.36006 
123 1 5.36037 12.736 7.10536 
7 1 3.10945 14.9864 14.9859 
16 1 5.60348 12.4903 12.4896 
23 1 4.01347 14.082 14.0816 
32 1 4.70084 13.3943 13.3932 
39 1 0.418911 14.6414 14.6403 
43 1 3.45461 17.6766 14.6403 
53 1 3.45449 14.6412 17.6761 
64 1 8.3146 12.8478 12.8282 
68 1 5.2601 9.80293 12.8354 
78 1 5.26004 12.8353 9.80256 
87 1 1.60882 14.7411 14.7402 
91 1 3.3549 16.4866 14.7401 
101 1 3.35409 14.7412 16.4861 
112 1 7.10088 12.7367 12.7363 
116 1 5.35882 10.991 12.7342 
126 1 5.3587 12.7343 10.9906 
8 1 14.9853 3.10986 3.10984 
15 1 12.4909 5.60512 5.60492 
24 1 14.0839 4.0118 4.01181 
31 1 13.3926 4.70312 4.70322 
40 1 17.6763 3.45461 3.4546 
44 1 14.6413 0.419071 3.45555 
54 1 14.6413 3.45471 0.419388 
63 1 9.80051 5.26029 5.26029 
67 1 12.8358 8.29542 5.26029 
77 1 12.8357 5.26029 8.29573 
88 1 16.4877 3.35514 3.3551 
92 1 14.7411 1.60897 3.35491 
102 1 14.7411 3.35471 1.60934 
111 1 10.9901 5.36009 5.36007 
115 1 12.7359 7.10567 5.36016 
125 1 12.7359 5.36009 7.10607 
5 1 14.9858 3.10947 14.9849 
14 1 12.4909 5.60519 12.4907 
21 1 14.0834 4.01179 14.0832 
30 1 13.3936 4.70237 13.3929 
37 1 17.6766 3.45465 14.6403 
47 1 14.6413 0.418289 14.6403 
51 1 14.6413 3.45471 17.676 
62 1 9.80115 5.26038 12.8356 
72 1 12.8359 8.29957 12.8356 
76 1 12.8357 5.26037 9.8011 
85 1 16.4871 3.35485 14.7399 
95 1 14.7411 1.60842 14.74 
99 1 14.741 3.35487 16.4865 
110 1 10.9885 5.35998 12.7361 
120 1 12.7352 7.10524 12.7354 
124 1 12.7361 5.36034 10.9898 
3 1 14.9859 14.986 3.11024 
12 1 12.4907 12.4908 5.60495 
19 1 14.0836 14.0836 4.01188 
28 1 13.3933 13.3932 4.70326 
35 1 17.6765 14.6413 3.45553 
45 1 14.6413 17.6764 3.45555 
55 1 14.6413 14.6413 0.419338 
60 1 9.80039 12.8357 5.26037 
70 1 12.8355 9.80065 5.26028 
80 1 12.8359 12.8354 8.29861 
83 1 16.4877 14.7411 3.35513 
93 1 14.7411 16.4869 3.35511 
103 1 14.7411 14.7411 1.60973 
108 1 10.9894 12.736 5.36011 
118 1 12.7352 10.9895 5.3602 
128 1 12.735 12.7349 7.10605 
2 1 14.985 14.9854 14.9847 
9 1 12.5513 12.4801 12.47 
18 1 14.0811 14.0826 14.0818 
25 1 13.3923 13.3911 13.3891 
34 1 17.6767 14.6414 14.6403 
42 1 14.6413 17.6766 14.6403 
50 1 14.6413 14.6413 17.6761 
57 1 9.72706 12.8073 12.8022 
65 1 12.8338 9.79616 12.8373 
73 1 12.8341 12.8369 9.79629 
82 1 16.4874 14.741 14.7399 
90 1 14.741 16.4868 14.74 
98 1 14.7409 14.741 16.4866 
105 1 10.9646 12.7682 12.8016 
113 1 12.7375 10.9922 12.7354 
121 1 12.7369 12.7343 10.9918 
129 2 11.024 12.7297 14.0817 
130 2 12.1129 12.5785 15.116 
131 3 11.5679 12.4695 15.8639 
ITEM: TIMESTEP
20
ITEM: NUMBER OF ATOMS
131
ITEM: BOX BOUNDS pp pp pp
0.0000000000000000e+00 1.8762000000000000e+01
0.0000000000000000e+00 1.8762000000000000e+01
0.0000000000000000e+00 1.8760999999999999e+01
ITEM: ATOMS id type x y z 
1 1 3.10696 3.10696 3.10797 
10 1 5.60776 5.60767 5.60745 
17 1 4.01312 4.01263 4.01336 
26 1 4.70161 4.70219 4.70231 
33 1 0.415378 3.45395 3.45389 
41 1 3.4536 0.414665 3.45403 
49 1 3.45386 3.45393 0.415788 
58 1 8.29995 5.26103 5.26101 
66 1 5.26129 8.29969 5.26083 
74 1 5.26099 5.26098 8.29961 
81 1 1.60515 3.35462 3.35499 
89 1 3.35418 1.60449 3.35485 
97 1 3.35487 3.35469 1.60561 
106 1 7.11021 5.36024 5.36005 
114 1 5.36078 7.10991 5.36028 
122 1 5.3601 5.36027 7.10981 
4 1 3.10709 3.10719 14.9885 
11 1 5.60747 5.60644 12.4876 
20 1 4.01277 4.01263 14.0825 
27 1 4.70205 4.70177 13.3939 
36 1 0.41528 3.45396 14.6414 
46 1 3.45392 0.415008 14.6414 
56 1 3.4539 3.45393 17.6804 
59 1 8.29955 5.26118 12.8351 
69 1 5.26126 8.29913 12.8353 
79 1 5.26094 5.26109 9.7959 
84 1 1.60504 3.35459 14.7409 
94 1 3.35463 1.60482 14.7408 
104 1 3.35484 3.35487 16.4905 
107 1 7.11011 5.3602 12.7359 
117 1 5.36026 7.11041 12.736 
127 1 5.36 5.36002 10.9855 
6 1 3.1071 14.9883 3.10737 
13 1 5.60743 12.4879 5.60653 
22 1 4.01319 14.0833 4.01361 
29 1 4.70188 13.3939 4.70187 
38 1 0.415349 14.642 3.45472 
48 1 3.45398 17.6804 3.45391 
52 1 3.45395 14.6421 0.415168 
61 1 8.29966 12.8351 5.26123 
71 1 5.26096 9.7965 5.26112 
75 1 5.26121 12.8354 8.29896 
86 1 1.60518 14.7412 3.35502 
96 1 3.35493 16.4906 3.35476 
100 1 3.35478 14.7412 1.60503 
109 1 7.11025 12.736 5.36045 
119 1 5.3599 10.9854 5.3601 
123 1 5.36038 12.7361 7.11015 
7 1 3.10679 14.9889 14.9885 
16 1 5.6036 12.4893 12.4899 
23 1 4.01249 14.0827 14.0816 
32 1 4.69748 13.3946 13.3946 
39 1 0.415347 14.6421 14.6411 
43 1 3.45387 17.6806 14.641 
53 1 3.4536 14.6419 17.6801 
64 1 8.29814 12.844 12.8253 
68 1 5.25999 9.79781 12.8338 
78 1 5.2599 12.8338 9.79806 
87 1 1.60506 14.7414 14.7405 
91 1 3.35466 16.4908 14.7403 
101 1 3.35404 14.7414 16.4902 
112 1 7.0862 12.7414 12.7325 
116 1 5.35645 10.985 12.7326 
126 1 5.35635 12.7326 10.9849 
8 1 14.9888 3.10709 3.10739 
15 1 12.4883 5.60739 5.60775 
24 1 14.0825 4.01274 4.01297 
31 1 13.3939 4.70217 4.70179 
40 1 17.6803 3.45395 3.45389 
44 1 14.642 0.415006 3.45466 
54 1 14.6421 3.45393 0.415361 
63 1 9.79607 5.26102 5.26104 
67 1 12.835 8.29974 5.26107 
77 1 12.835 5.26108 8.29997 
88 1 16.4904 3.35489 3.35487 
92 1 14.7411 1.60496 3.35492 
102 1 14.7411 3.35459 1.6053 
111 1 10.986 5.36019 5.36014 
115 1 12.7358 7.11003 5.36019 
125 1 12.7359 5.36013 7.11024 
5 1 14.9888 3.10637 14.9881 
14 1 12.4884 5.61 12.4884 
21 1 14.0826 4.01301 14.0817 
30 1 13.394 4.7017 13.394 
37 1 17.6802 3.45388 14.6411 
47 1 14.6421 0.415148 14.6411 
51 1 14.6421 3.45394 17.6797 
62 1 9.79663 5.26101 12.8348 
72 1 12.8348 8.30296 12.8345 
76 1 12.8348 5.26113 9.79715 
85 1 16.4906 3.35455 14.7401 
95 1 14.7413 1.60471 14.7403 
99 1 14.7412 3.35464 16.49 
110 1 10.9863 5.36016 12.7355 
120 1 12.7355 7.11136 12.7348 
124 1 12.7355 5.36048 10.9866 
3 1 14.9886 14.9883 3.10727 
12 1 12.4881 12.4884 5.6101 
19 1 14.0825 14.0825 4.01393 
28 1 13.394 13.394 4.70145 
35 1 17.6805 14.642 3.45469 
45 1 14.642 17.6806 3.45466 
55 1 14.642 14.642 0.415749 
60 1 9.79705 12.8347 5.26105 
70 1 12.8345 9.79703 5.26099 
80 1 12.8348 12.8342 8.30351 
83 1 16.4909 14.7412 3.35508 
93 1 14.7411 16.491 3.35509 
103 1 14.7413 14.7413 1.60526 
108 1 10.9863 12.7354 5.36019 
118 1 12.7348 10.9862 5.36028 
128 1 12.7353 12.7345 7.11167 
2 1 14.9867 14.9869 14.9865 
9 1 12.5604 12.4728 12.4576 
18 1 14.0796 14.0829 14.0817 
25 1 13.3997 13.3889 13.3847 
34 1 17.6794 14.6423 14.6412 
42 1 14.6422 17.6791 14.6412 
50 1 14.642 14.6421 17.6794 
57 1 9.72429 12.8012 12.7569 
65 1 12.8286 9.79099 12.839 
73 1 12.8295 12.8384 9.78734 
82 1 16.4904 14.7411 14.7401 
90 1 14.7411 16.4901 14.7403 
98 1 14.7409 14.7411 16.4896 
105 1 10.9545 12.7837 12.8894 
113 1 12.7448 10.9875 12.7312 
121 1 12.7429 12.7311 10.9847 
129 2 11.0629 12.7263 14.0717 
130 2 12.1134 12.5772 15.1226 
131 3 11.5646 12.4728 15.8518 
ITEM: TIMESTEP
30
ITEM: NUMBER OF ATOMS
131
ITEM: BOX BOUNDS pp pp pp
0.0000000000000000e+00 1.8762000000000000e+01
0.0000000000000000e+00 1.8762000000000000e+01
0.0000000000000000e+00 1.8760999999999999e+01
ITEM: ATOMS id type x y z 
1 1 3.10668 3.10634 3.10731 
10 1 5.60831 5.60832 5.60812 
17 1 4.01284 4.01291 4.0135 
26 1 4.70181 4.70179 4.70205 
33 1 0.416706 3.45363 3.45363 
41 1 3.45332 0.416492 3.45375 
49 1 3.45363 3.45364 0.417525 
58 1 8.29815 5.26131 5.26126 
66 1 5.26157 8.29805 5.26114 
74 1 5.26122 5.26128 8.29789 
81 1 1.60681 3.35379 3.35415 
89 1 3.35334 1.60658 3.35404 
97 1 3.35395 3.35385 1.60766 
106 1 7.10806 5.36109 5.36092 
114 1 5.3616 7.10787 5.36109 
122 1 5.361 5.3611 7.10764 
4 1 3.10658 3.10655 14.9889 
11 1 5.60814 5.60679 12.4873 
20 1 4.01301 4.0129 14.0828 
27 1 4.70177 4.70132 13.3937 
36 1 0.416653 3.45366 14.6417 
46 1 3.45363 0.416741 14.6416 
56 1 3.45363 3.45368 17.6786 
59 1 8.29814 5.26153 12.8349 
69 1 5.26145 8.29651 12.8352 
79 1 5.26113 5.26133 9.79724 
84 1 1.60681 3.35377 14.7417 
94 1 3.35377 1.60687 14.7417 
104 1 3.35395 3.354 16.4886 
107 1 7.10826 5.36096 12.7351 
117 1 5.36132 7.10689 12.7352 
127 1 5.36084 5.36084 10.9878 
6 1 3.10669 14.989 3.10688 
13 1 5.60817 12.4874 5.60681 
22 1 4.01313 14.0831 4.01338 
29 1 4.7019 13.3942 4.70166 
38 1 0.416794 14.6422 3.4544 
48 1 3.45372 17.6787 3.45366 
52 1 3.45368 14.6423 0.416998 
61 1 8.29838 12.835 5.26161 
71 1 5.26112 9.79735 5.26135 
75 1 5.26144 12.8353 8.29645 
86 1 1.60683 14.742 3.35425 
96 1 3.35404 16.4886 3.35392 
100 1 3.35391 14.7421 1.6072 
109 1 7.10831 12.7351 5.36117 
119 1 5.36075 10.9878 5.36093 
123 1 5.36136 12.7353 7.10703 
7 1 3.10563 14.9904 14.9897 
16 1 5.59589 12.488 12.4879 
23 1 4.01105 14.0832 14.0825 
32 1 4.69508 13.3951 13.3947 
39 1 0.416205 14.6424 14.6414 
43 1 3.45365 17.6792 14.6413 
53 1 3.45336 14.6422 17.6785 
64 1 8.30159 12.8402 12.815 
68 1 5.2593 9.79956 12.8329 
78 1 5.25922 12.8329 9.79977 
87 1 1.60629 14.7422 14.7414 
91 1 3.35371 16.4889 14.7413 
101 1 3.35316 14.7423 16.4883 
112 1 7.08796 12.7429 12.7338 
116 1 5.35547 10.9875 12.7307 
126 1 5.35526 12.7306 10.9876 
8 1 14.989 3.1066 3.10683 
15 1 12.4877 5.60813 5.60825 
24 1 14.0827 4.01295 4.01302 
31 1 13.3938 4.70189 4.70191 
40 1 17.6789 3.45369 3.4536 
44 1 14.6423 0.416756 3.45432 
54 1 14.6423 3.45363 0.416981 
63 1 9.79799 5.26131 5.26129 
67 1 12.8347 8.29807 5.26138 
77 1 12.8347 5.2614 8.29841 
88 1 16.4888 3.35404 3.35404 
92 1 14.742 1.60683 3.35418 
102 1 14.742 3.35379 1.60712 
111 1 10.9882 5.36105 5.36105 
115 1 12.735 7.10812 5.36109 
125 1 12.735 5.36099 7.10838 
5 1 14.9891 3.10628 14.9883 
14 1 12.4886 5.61259 12.4888 
21 1 14.0829 4.01241 14.0824 
30 1 13.3934 4.70252 13.3932 
37 1 17.6789 3.4536 14.6413 
47 1 14.6425 0.416007 14.6414 
51 1 14.6424 3.45364 17.6781 
62 1 9.79868 5.26117 12.8343 
72 1 12.8334 8.30164 12.8346 
76 1 12.8344 5.2613 9.79887 
85 1 16.4887 3.35365 14.741 
95 1 14.7421 1.60619 14.7411 
99 1 14.742 3.35375 16.4881 
110 1 10.9881 5.36141 12.7348 
120 1 12.7346 7.11013 12.7332 
124 1 12.7347 5.36173 10.9886 
3 1 14.9892 14.9891 3.10707 
12 1 12.4887 12.4888 5.61308 
19 1 14.0827 14.0827 4.01305 
28 1 13.3936 13.3936 4.70238 
35 1 17.6789 14.6422 3.45434 
45 1 14.6423 17.6788 3.45432 
55 1 14.6423 14.6424 0.416716 
60 1 9.79851 12.8343 5.2611 
70 1 12.8339 9.79874 5.26108 
80 1 12.8337 12.8343 8.30055 
83 1 16.4889 14.742 3.35421 
93 1 14.742 16.4888 3.35423 
103 1 14.7422 14.7421 1.60702 
108 1 10.9883 12.7346 5.36146 
118 1 12.7341 10.9881 5.36153 
128 1 12.7341 12.7328 7.10863 
2 1 14.9858 14.9867 14.9863 
9 1 12.5594 12.4722 12.4565 
18 1 14.0777 14.081 14.0795 
25 1 13.4034 13.3853 13.3789 
34 1 17.6779 14.6427 14.6416 
42 1 14.6426 17.6777 14.6415 
50 1 14.6424 14.6424 17.6775 
57 1 9.72631 12.8041 12.7486 
65 1 12.8277 9.79447 12.8385 
73 1 12.8285 12.8382 9.79063 
82 1 16.4879 14.742 14.7411 
90 1 14.742 16.4877 14.7414 
98 1 14.7417 14.742 16.4875 
105 1 10.9528 12.7842 12.9139 
113 1 12.7458 10.9915 12.7275 
121 1 12.7424 12.7286 10.988 
129 2 11.0691 12.7267 14.0632 
130 2 12.126 12.5756 15.1314 
131 3 11.5603 12.4737 15.8536 
ITEM: TIMESTEP
40
ITEM: NUMBER OF ATOMS
131
ITEM: BOX BOUNDS pp pp pp
0.0000000000000000e+00 1.8762000000000000e+01
0.0000000000000000e+00 1.8762000000000000e+01
0.0000000000000000e+00 1.8760999999999999e+01
ITEM: ATOMS id type x y z 
1 1 3.10696 3.10802 3.10868 
10 1 5.60655 5.60685 5.60701 
17 1 4.01364 4.01283 4.01305 
26 1 4.7023 4.70136 4.70137 
33 1 0.415164 3.45072 3.4509 
41 1 3.45043 0.415037 3.45087 
49 1 3.45089 3.45078 0.415797 
58 1 8.30022 5.26421 5.26402 
66 1 5.26439 8.29926 5.26408 
74 1 5.26392 5.26414 8.29912 
81 1 1.6049 3.34996 3.35031 
89 1 3.34983 1.60485 3.35041 
97 1 3.35 3.34993 1.6057 
106 1 7.11029 5.36476 5.36476 
114 1 5.36515 7.10913 5.36469 
122 1 5.36494 5.36484 7.10931 
4 1 3.10722 3.10814 14.9882 
11 1 5.60726 5.60379 12.4884 
20 1 4.01279 4.01134 14.082 
27 1 4.70242 4.69999 13.394 
36 1 0.414614 3.45071 14.6446 
46 1 3.4509 0.416407 14.6444 
56 1 3.45086 3.45093 17.6806 
59 1 8.30047 5.2645 12.832 
69 1 5.26393 8.29654 12.8325 
79 1 5.2635 5.26429 9.79549 
84 1 1.60457 3.35009 14.7454 
94 1 3.34979 1.60658 14.7456 
104 1 3.34991 3.35006 16.4907 
107 1 7.11205 5.36408 12.7318 
117 1 5.36609 7.10783 12.7328 
127 1 5.36449 5.36416 10.9859 
6 1 3.10728 14.9885 3.10817 
13 1 5.60794 12.4886 5.60429 
22 1 4.01288 14.0825 4.01178 
29 1 4.70219 13.3934 4.70035 
38 1 0.414477 14.6451 3.45129 
48 1 3.45089 17.6808 3.45093 
52 1 3.4509 14.6448 0.416635 
61 1 8.29969 12.8322 5.26451 
71 1 5.26347 9.79545 5.26428 
75 1 5.26392 12.8327 8.29773 
86 1 1.60432 14.7458 3.35093 
96 1 3.35014 16.491 3.35021 
100 1 3.35009 14.7459 1.60669 
109 1 7.11096 12.7318 5.36426 
119 1 5.36437 10.9861 5.36401 
123 1 5.36625 12.733 7.10747 
7 1 3.10101 14.9945 14.9935 
16 1 5.57536 12.4879 12.4881 
23 1 4.0019 14.0874 14.0879 
32 1 4.67591 13.394 13.3925 
39 1 0.408936 14.6452 14.6443 
43 1 3.45154 17.6835 14.6436 
53 1 3.45108 14.6445 17.6825 
64 1 8.30296 12.8202 12.7368 
68 1 5.25636 9.79354 12.8248 
78 1 5.25591 12.8244 9.79448 
87 1 1.59858 14.7466 14.7456 
91 1 3.34938 16.4935 14.7458 
101 1 3.34924 14.7468 16.4927 
112 1 7.08799 12.7508 12.7291 
116 1 5.34383 10.9831 12.7197 
126 1 5.34297 12.7192 10.9831 
8 1 14.9877 3.10784 3.10777 
15 1 12.4888 5.60657 5.60682 
24 1 14.0829 4.01319 4.01413 
31 1 13.3946 4.70179 4.70234 
40 1 17.6797 3.45084 3.45077 
44 1 14.6452 0.414799 3.45108 
54 1 14.6452 3.45063 0.41487 
63 1 9.79597 5.26416 5.26409 
67 1 12.8314 8.29903 5.2641 
77 1 12.8315 5.26429 8.30016 
88 1 16.4903 3.35003 3.34992 
92 1 14.7458 1.60441 3.35059 
102 1 14.7458 3.35001 1.6048 
111 1 10.987 5.36508 5.36512 
115 1 12.7315 7.11111 5.36505 
125 1 12.7313 5.36491 7.11125 
5 1 14.9871 3.10649 14.9862 
14 1 12.4892 5.6147 12.488 
21 1 14.0799 4.01554 14.0795 
30 1 13.3966 4.70374 13.3965 
37 1 17.679 3.4505 14.6444 
47 1 14.646 0.412679 14.6448 
51 1 14.6455 3.45043 17.6778 
62 1 9.79988 5.26366 12.8304 
72 1 12.8228 8.31758 12.8329 
76 1 12.8303 5.26388 9.79947 
85 1 16.4895 3.34921 14.7455 
95 1 14.7462 1.60235 14.7451 
99 1 14.7464 3.34948 16.4899 
110 1 10.9896 5.36817 12.7301 
120 1 12.7306 7.12408 12.7305 
124 1 12.73 5.3684 10.9895 
3 1 14.9875 14.9874 3.1065 
12 1 12.4925 12.4914 5.61405 
19 1 14.0816 14.0816 4.01419 
28 1 13.3954 13.3954 4.70395 
35 1 17.6794 14.6452 3.4511 
45 1 14.6453 17.68 3.45103 
55 1 14.6457 14.6457 0.413035 
60 1 9.79841 12.8306 5.26331 
70 1 12.8299 9.79766 5.26328 
80 1 12.8252 12.8331 8.30673 
83 1 16.4896 14.7462 3.35047 
93 1 14.7463 16.4902 3.35052 
103 1 14.7458 14.7458 1.60286 
108 1 10.9884 12.731 5.36835 
118 1 12.731 10.9875 5.36828 
128 1 12.7291 12.728 7.11549 
2 1 14.9767 14.9784 14.9795 
9 1 12.5342 12.4784 12.4628 
18 1 14.075 14.0721 14.0655 
25 1 13.4309 13.3659 13.3458 
34 1 17.6728 14.6468 14.6457 
42 1 14.6468 17.676 14.6459 
50 1 14.646 14.6463 17.6755 
57 1 9.74194 12.8088 12.6833 
65 1 12.8267 9.80222 12.8287 
73 1 12.8234 12.833 9.78988 
82 1 16.4831 14.7449 14.7444 
90 1 14.744 16.4868 14.7446 
98 1 14.7435 14.7446 16.486 
105 1 10.9376 12.7924 13.0046 
113 1 12.7463 10.9958 12.7083 
121 1 12.733 12.7175 10.9873 
129 2 11.1407 12.7247 14.087 
130 2 12.2134 12.5617 15.2135 
131 3 11.5401 12.4816 15.8585 
ITEM: TIMESTEP
50
ITEM: NUMBER OF ATOMS
131
ITEM: BOX BOUNDS pp pp pp
0.0000000000000000e+00 1.8762000000000000e+01
0.0000000000000000e+00 1.8762000000000000e+01
0.0000000000000000e+00 1.8760999999999999e+01
ITEM: ATOMS id type x y z 
1 1 3.10646 3.10699 3.1075 
10 1 5.60812 5.60752 5.60764 
17 1 4.01347 4.01272 4.01275 
26 1 4.70257 4.70129 4.70134 
33 1 0.415023 3.44905 3.44929 
41 1 3.44888 0.415995 3.44925 
49 1 3.44931 3.44915 0.416662 
58 1 8.2996 5.26587 5.26571 
66 1 5.26594 8.2987 5.26585 
74 1 5.2655 5.26584 8.29877 
81 1 1.6052 3.34834 3.34871 
89 1 3.3481 1.60624 3.34883 
97 1 3.34814 3.34826 1.6069 
106 1 7.10944 5.3664 5.36642 
114 1 5.36664 7.10836 5.36632 
122 1 5.36655 5.3665 7.10863 
4 1 3.10604 3.10759 14.989 
11 1 5.60918 5.60482 12.4877 
20 1 4.01339 4.01154 14.0821 
27 1 4.70248 4.69922 13.3933 
36 1 0.414022 3.44895 14.6463 
46 1 3.44952 0.418186 14.6457 
56 1 3.44933 3.44932 17.6802 
59 1 8.30246 5.26611 12.8301 
69 1 5.26553 8.2954 12.8308 
79 1 5.26506 5.26598 9.79629 
84 1 1.60414 3.34866 14.747 
94 1 3.34798 1.60857 14.7473 
104 1 3.34816 3.34847 16.49 
107 1 7.11244 5.36532 12.7302 
117 1 5.36847 7.10561 12.7318 
127 1 5.36614 5.36566 10.9866 
6 1 3.10614 14.9893 3.10783 
13 1 5.60866 12.4877 5.60495 
22 1 4.01323 14.0821 4.01177 
29 1 4.70211 13.3932 4.69956 
38 1 0.414182 14.6467 3.44957 
48 1 3.44931 17.6805 3.44935 
52 1 3.44953 14.6462 0.418284 
61 1 8.30096 12.8303 5.26585 
71 1 5.26509 9.79601 5.26585 
75 1 5.26556 12.831 8.29625 
86 1 1.6044 14.7473 3.34942 
96 1 3.34842 16.4903 3.34863 
100 1 3.34826 14.7477 1.60864 
109 1 7.11113 12.7304 5.36551 
119 1 5.36594 10.9865 5.36533 
123 1 5.36864 12.7323 7.10647 
7 1 3.09711 14.9972 14.9963 
16 1 5.57292 12.487 12.487 
23 1 3.99757 14.0871 14.0875 
32 1 4.66884 13.3923 13.391 
39 1 0.405637 14.6471 14.6461 
43 1 3.45046 17.6838 14.645 
53 1 3.45002 14.6459 17.6829 
64 1 8.30829 12.8108 12.7017 
68 1 5.25372 9.79459 12.8189 
78 1 5.25301 12.8182 9.79625 
87 1 1.59526 14.7488 14.7478 
91 1 3.34702 16.4938 14.7483 
101 1 3.34695 14.7492 16.4929 
112 1 7.0907 12.7532 12.713 
116 1 5.33924 10.985 12.7152 
126 1 5.33795 12.7141 10.986 
8 1 14.9885 3.10671 3.10696 
15 1 12.4881 5.60779 5.6088 
24 1 14.0833 4.01314 4.01387 
31 1 13.3945 4.70171 4.7028 
40 1 17.6793 3.44915 3.44908 
44 1 14.647 0.415192 3.44926 
54 1 14.647 3.44883 0.415021 
63 1 9.79752 5.26598 5.26582 
67 1 12.8294 8.29968 5.26559 
77 1 12.8295 5.26609 8.3016 
88 1 16.4892 3.34823 3.34808 
92 1 14.7474 1.60535 3.34884 
102 1 14.7475 3.34833 1.60514 
111 1 10.9877 5.36685 5.3669 
115 1 12.7296 7.10988 5.36669 
125 1 12.7296 5.36651 7.11156 
5 1 14.9871 3.10544 14.9864 
14 1 12.4913 5.62135 12.49 
21 1 14.0807 4.01545 14.0804 
30 1 13.3946 4.70678 13.3941 
37 1 17.6781 3.4487 14.6464 
47 1 14.6484 0.41147 14.6471 
51 1 14.6474 3.4487 17.6778 
62 1 9.80149 5.26593 12.8282 
72 1 12.8193 8.31796 12.8304 
76 1 12.828 5.26602 9.80013 
85 1 16.4881 3.3471 14.7473 
95 1 14.7479 1.6015 14.7467 
99 1 14.7482 3.34728 16.4878 
110 1 10.9906 5.37045 12.7269 
120 1 12.7257 7.12601 12.7304 
124 1 12.727 5.37067 10.9896 
3 1 14.9877 14.9879 3.10526 
12 1 12.4917 12.4902 5.6176 
19 1 14.0819 14.082 4.01425 
28 1 13.3968 13.3962 4.70415 
35 1 17.6784 14.6472 3.44944 
45 1 14.6473 17.6789 3.44935 
55 1 14.6479 14.6479 0.411602 
60 1 9.8002 12.8289 5.26585 
70 1 12.8281 9.79883 5.26566 
80 1 12.8221 12.8312 8.30743 
83 1 16.4883 14.7479 3.34839 
93 1 14.7479 16.4889 3.34844 
103 1 14.7474 14.7473 1.60154 
108 1 10.9892 12.7287 5.37039 
118 1 12.729 10.9881 5.37032 
128 1 12.7256 12.7274 7.11452 
2 1 14.9718 14.9761 14.9766 
9 1 12.5219 12.4809 12.4653 
18 1 14.0804 14.0659 14.0562 
25 1 13.4393 13.3623 13.3362 
34 1 17.6684 14.649 14.6481 
42 1 14.6492 17.6736 14.6485 
50 1 14.6481 14.6486 17.6732 
57 1 9.73674 12.8087 12.6567 
65 1 12.8285 9.80969 12.8209 
73 1 12.821 12.8288 9.79509 
82 1 16.478 14.7459 14.7457 
90 1 14.7445 16.4831 14.7457 
98 1 14.7437 14.7451 16.4826 
105 1 10.9217 12.7954 13.0124 
113 1 12.74 11.0043 12.7029 
121 1 12.7222 12.7145 10.9927 
129 2 11.1843 12.7222 14.1157 
130 2 12.2561 12.5527 15.2695 
131 3 11.5404 12.4865 15.8587 
ITEM: TIMESTEP
60
ITEM: NUMBER OF ATOMS
131
ITEM: BOX BOUNDS pp pp pp
0.0000000000000000e+00 1.8762000000000000e+01
0.0000000000000000e+00 1.8762000000000000e+01
0.0000000000000000e+00 1.8760999999999999e+01
ITEM: ATOMS id type x y z 
1 1 3.1061 3.10662 3.10713 
10 1 5.60908 5.60801 5.60807 
17 1 4.01334 4.01311 4.01332 
26 1 4.70229 4.70143 4.70147 
33 1 0.415125 3.44824 3.44844 
41 1 3.44815 0.416329 3.44859 
49 1 3.44847 3.44843 0.417001 
58 1 8.29985 5.26672 5.26666 
66 1 5.26659 8.29832 5.26676 
74 1 5.26631 5.26678 8.29854 
81 1 1.60566 3.34866 3.34905 
89 1 3.34834 1.6069 3.349 
97 1 3.34847 3.3485 1.60753 
106 1 7.1093 5.36614 5.3661 
114 1 5.36649 7.10781 5.3661 
122 1 5.36631 5.3662 7.10804 
4 1 3.10516 3.10811 14.9893 
11 1 5.61148 5.60558 12.4873 
20 1 4.01363 4.01261 14.0816 
27 1 4.70315 4.69996 13.3931 
36 1 0.413702 3.44808 14.6471 
46 1 3.44912 0.418941 14.6462 
56 1 3.44863 3.44839 17.6799 
59 1 8.30218 5.26693 12.829 
69 1 5.26599 8.29588 12.8287 
79 1 5.26596 5.26683 9.79707 
84 1 1.60418 3.34905 14.7466 
94 1 3.34813 1.60934 14.747 
104 1 3.34845 3.34891 16.4894 
107 1 7.11174 5.36514 12.7302 
117 1 5.36911 7.10579 12.7325 
127 1 5.36621 5.36556 10.9878 
6 1 3.10537 14.9896 3.10824 
13 1 5.61051 12.4871 5.60612 
22 1 4.01332 14.0818 4.01278 
29 1 4.70276 13.3932 4.70007 
38 1 0.414064 14.6476 3.44884 
48 1 3.4486 17.6802 3.44843 
52 1 3.44914 14.6467 0.419065 
61 1 8.30066 12.8293 5.26665 
71 1 5.26612 9.79689 5.26656 
75 1 5.2662 12.829 8.29694 
86 1 1.6046 14.7469 3.3496 
96 1 3.34864 16.4897 3.34907 
100 1 3.34829 14.7473 1.60953 
109 1 7.11006 12.7301 5.36513 
119 1 5.36588 10.9877 5.36536 
123 1 5.36908 12.7329 7.107 
7 1 3.09576 14.996 14.9953 
16 1 5.58416 12.4893 12.4878 
23 1 3.99421 14.0851 14.0847 
32 1 4.67027 13.3921 13.3921 
39 1 0.404394 14.6486 14.6475 
43 1 3.44986 17.6827 14.646 
53 1 3.44959 14.6468 17.6819 
64 1 8.29869 12.8119 12.6978 
68 1 5.25147 9.79617 12.8151 
78 1 5.25036 12.814 9.79813 
87 1 1.59443 14.7495 14.7485 
91 1 3.34621 16.4928 14.7489 
101 1 3.34596 14.7498 16.4919 
112 1 7.0821 12.7491 12.6868 
116 1 5.33956 10.9857 12.7164 
126 1 5.33744 12.7147 10.9873 
8 1 14.9889 3.10636 3.10628 
15 1 12.4884 5.60884 5.61056 
24 1 14.0824 4.01325 4.01403 
31 1 13.3945 4.70206 4.70271 
40 1 17.6787 3.44824 3.44815 
44 1 14.6481 0.41514 3.44843 
54 1 14.6481 3.44788 0.415004 
63 1 9.79811 5.26705 5.26675 
67 1 12.8282 8.2992 5.26654 
77 1 12.8284 5.26706 8.30108 
88 1 16.4882 3.34831 3.34828 
92 1 14.7471 1.60564 3.34885 
102 1 14.7472 3.34846 1.60543 
111 1 10.9886 5.36673 5.36693 
115 1 12.7294 7.10873 5.36647 
125 1 12.7296 5.36642 7.11064 
5 1 14.9865 3.10466 14.9862 
14 1 12.4906 5.62468 12.4902 
21 1 14.0812 4.01495 14.0806 
30 1 13.3949 4.70811 13.3944 
37 1 17.6766 3.44761 14.6477 
47 1 14.6501 0.410751 14.6488 
51 1 14.6488 3.44759 17.6769 
62 1 9.80316 5.26704 12.8263 
72 1 12.8211 8.31973 12.8268 
76 1 12.8261 5.26704 9.80133 
85 1 16.4862 3.34709 14.7469 
95 1 14.7474 1.60138 14.7463 
99 1 14.7478 3.34723 16.4865 
110 1 10.9926 5.37151 12.727 
120 1 12.7224 7.12546 12.7326 
124 1 12.7275 5.37176 10.991 
3 1 14.9881 14.9887 3.10348 
12 1 12.4906 12.4897 5.6168 
19 1 14.0823 14.082 4.01409 
28 1 13.3961 13.3957 4.70607 
35 1 17.6775 14.6482 3.44869 
45 1 14.6485 17.6788 3.44856 
55 1 14.6492 14.6493 0.410731 
60 1 9.80062 12.8281 5.26754 
70 1 12.8276 9.79869 5.26738 
80 1 12.8224 12.8284 8.31045 
83 1 16.487 14.7476 3.34803 
93 1 14.7475 16.4883 3.34809 
103 1 14.7471 14.7471 1.60134 
108 1 10.9903 12.7286 5.36995 
118 1 12.7289 10.9885 5.36977 
128 1 12.7251 12.7301 7.11787 
2 1 14.9721 14.9775 14.9769 
9 1 12.5156 12.4847 12.4687 
18 1 14.093 14.0638 14.0521 
25 1 13.4289 13.3676 13.3417 
34 1 17.6671 14.6497 14.6491 
42 1 14.6502 17.6734 14.6498 
50 1 14.6491 14.6495 17.6723 
57 1 9.73406 12.8035 12.6544 
65 1 12.8289 9.80799 12.8158 
73 1 12.8171 12.8261 9.79638 
82 1 16.476 14.745 14.7447 
90 1 14.7426 16.4821 14.7443 
98 1 14.7414 14.7436 16.481 
105 1 10.9247 12.7928 12.9956 
113 1 12.7317 11.0036 12.7075 
121 1 12.7133 12.7178 10.9923 
129 2 11.2003 12.7206 14.1109 
130 2 12.2787 12.5475 15.3037 
131 3 11.549 12.4887 15.8645 
ITEM: TIMESTEP
70
ITEM: NUMBER OF ATOMS
131
ITEM: BOX BOUNDS pp pp pp
0.0000000000000000e+00 1.8762000000000000e+01
0.0000000000000000e+00 1.8762000000000000e+01
0.0000000000000000e+00 1.8760999999999999e+01
ITEM: ATOMS id type x y z 
1 1 3.10639 3.10709 3.10755 
10 1 5.60883 5.60774 5.60775 
17 1 4.01328 4.01308 4.01344 
26 1 4.70222 4.70153 4.70169 
33 1 0.414762 3.4479 3.44809 
41 1 3.44788 0.416094 3.44824 
49 1 3.44817 3.44806 0.416703 
58 1 8.30008 5.26709 5.26698 
66 1 5.26695 8.29879 5.26708 
74 1 5.26666 5.26716 8.29891 
81 1 1.60525 3.34874 3.34911 
89 1 3.34837 1.60657 3.34906 
97 1 3.34851 3.3486 1.60715 
106 1 7.10962 5.36611 5.36608 
114 1 5.36649 7.10827 5.3661 
122 1 5.36631 5.36617 7.1085 
4 1 3.10542 3.10866 14.9887 
11 1 5.61108 5.60503 12.4879 
20 1 4.01347 4.01274 14.0819 
27 1 4.70324 4.70003 13.3932 
36 1 0.413104 3.44765 14.6476 
46 1 3.44887 0.418624 14.6465 
56 1 3.44829 3.44801 17.6799 
59 1 8.30341 5.26715 12.8284 
69 1 5.26584 8.29586 12.8278 
79 1 5.26628 5.2672 9.79663 
84 1 1.60358 3.3492 14.7466 
94 1 3.34814 1.60895 14.7469 
104 1 3.34843 3.34903 16.4895 
107 1 7.11298 5.36505 12.7303 
117 1 5.36938 7.10591 12.7325 
127 1 5.36634 5.36545 10.9872 
6 1 3.10565 14.989 3.10878 
13 1 5.60996 12.4878 5.60562 
22 1 4.01332 14.0821 4.01293 
29 1 4.70276 13.3932 4.70036 
38 1 0.413651 14.648 3.44846 
48 1 3.44826 17.6803 3.44808 
52 1 3.44889 14.6471 0.418672 
61 1 8.30163 12.8289 5.26698 
71 1 5.26642 9.79642 5.26694 