ITEM: TIMESTEP
0
ITEM: NUMBER OF ATOMS
145
ITEM: BOX BOUNDS pp pp pp
0.0000000000000000e+00 2.1884000000000000e+01
0.0000000000000000e+00 2.1885999999999999e+01
0.0000000000000000e+00 2.1885000000000002e+01
ITEM: ATOMS id type x y z 
16 1 1.605 12.547 12.547 
32 1 0.024 10.965 10.965 
64 1 4.318 12.218 12.218 
68 1 1.276 15.26 12.218 
78 1 1.276 12.218 15.26 
112 1 3.118 12.317 12.317 
116 1 1.375 14.061 12.317 
126 1 1.375 12.317 14.061 
144 1 0.722 11.664 11.663 
9 1 8.524 12.547 12.547 
25 1 10.105 10.965 10.965 
57 1 5.811 12.218 12.218 
65 1 8.853 15.26 12.218 
73 1 8.853 12.219 15.26 
105 1 7.01 12.317 12.317 
113 1 8.754 14.061 12.317 
121 1 8.754 12.317 14.061 
137 1 9.407 11.664 11.664 
11 1 1.605 19.466 12.547 
27 1 0.023 21.047 10.964 
59 1 4.318 19.795 12.218 
69 1 1.276 16.754 12.218 
79 1 1.276 19.795 15.26 
107 1 3.119 19.696 12.317 
117 1 1.375 17.953 12.317 
127 1 1.375 19.696 14.061 
139 1 0.721 20.349 11.663 
14 1 8.524 19.467 12.547 
30 1 10.106 21.049 10.966 
62 1 5.811 19.795 12.218 
72 1 8.853 16.753 12.218 
76 1 8.853 19.796 15.26 
110 1 7.01 19.696 12.317 
120 1 8.754 17.953 12.317 
124 1 8.754 19.697 14.061 
142 1 9.407 20.35 11.664 
13 1 1.605 12.547 19.466 
29 1 0.023 10.966 21.048 
61 1 4.318 12.218 19.795 
71 1 1.276 15.26 19.795 
75 1 1.276 12.218 16.754 
109 1 3.119 12.317 19.696 
119 1 1.375 14.061 19.696 
123 1 1.375 12.317 17.953 
141 1 0.721 11.664 20.35 
12 1 8.524 12.547 19.466 
28 1 10.106 10.965 21.047 
60 1 5.811 12.219 19.795 
70 1 8.853 15.26 19.796 
80 1 8.853 12.219 16.754 
108 1 7.011 12.317 19.696 
118 1 8.754 14.061 19.696 
128 1 8.754 12.318 17.953 
140 1 9.408 11.664 20.349 
10 1 1.604 19.466 19.466 
26 1 0.023 21.047 21.049 
58 1 4.317 19.796 19.795 
66 1 1.276 16.754 19.795 
74 1 1.276 19.795 16.753 
106 1 3.118 19.696 19.696 
114 1 1.375 17.953 19.696 
122 1 1.375 19.696 17.952 
138 1 0.721 20.349 20.35 
15 1 8.524 19.467 19.466 
31 1 10.106 21.048 21.049 
63 1 5.811 19.796 19.795 
67 1 8.853 16.754 19.795 
77 1 8.853 19.796 16.753 
111 1 7.01 19.697 19.696 
115 1 8.754 17.953 19.696 
125 1 8.754 19.697 17.952 
143 1 9.407 20.35 20.35 
8 1 12.547 1.604 1.605 
24 1 10.965 0.023 0.022 
40 1 15.26 1.275 1.276 
44 1 12.218 4.317 1.276 
54 1 12.218 1.275 4.318 
88 1 14.061 1.374 1.375 
92 1 12.317 3.118 1.375 
102 1 12.317 1.374 3.119 
136 1 11.664 0.721 0.721 
1 1 19.466 1.604 1.604 
17 1 21.048 0.023 0.022 
33 1 16.753 1.275 1.276 
41 1 19.795 4.317 1.276 
49 1 19.795 1.275 4.317 
81 1 17.952 1.374 1.375 
89 1 19.696 3.118 1.375 
97 1 19.696 1.374 3.118 
129 1 20.35 0.722 0.721 
145 2 16.753 1.275 0.176 
3 1 12.546 8.524 1.604 
19 1 10.965 10.106 0.024 
35 1 15.26 8.852 1.276 
45 1 12.218 5.811 1.275 
55 1 12.218 8.852 4.317 
83 1 14.06 8.753 1.375 
93 1 12.317 7.01 1.374 
103 1 12.317 8.753 3.118 
131 1 11.663 9.407 0.722 
6 1 19.466 8.524 1.605 
22 1 21.048 10.105 0.023 
38 1 16.753 8.852 1.276 
48 1 19.795 5.811 1.276 
52 1 19.795 8.853 4.318 
86 1 17.952 8.754 1.375 
96 1 19.696 7.01 1.375 
100 1 19.696 8.754 3.118 
134 1 20.35 9.407 0.721 
5 1 12.547 1.604 8.524 
21 1 10.965 0.022 10.105 
37 1 15.26 1.275 8.853 
47 1 12.218 4.317 8.853 
51 1 12.218 1.276 5.811 
85 1 14.06 1.374 8.754 
95 1 12.317 3.118 8.754 
99 1 12.317 1.375 7.01 
133 1 11.663 0.72 9.407 
4 1 19.466 1.605 8.524 
20 1 21.048 0.024 10.107 
36 1 16.753 1.275 8.853 
46 1 19.795 4.317 8.853 
56 1 19.795 1.275 5.811 
84 1 17.952 1.374 8.754 
94 1 19.695 3.118 8.754 
104 1 19.696 1.374 7.01 
132 1 20.35 0.722 9.408 
2 1 12.547 8.524 8.524 
18 1 10.965 10.106 10.106 
34 1 15.26 8.853 8.853 
42 1 12.218 5.811 8.853 
50 1 12.218 8.852 5.811 
82 1 14.061 8.754 8.754 
90 1 12.317 7.01 8.754 
98 1 12.317 8.754 7.01 
130 1 11.664 9.407 9.407 
7 1 19.466 8.524 8.524 
23 1 21.047 10.106 10.106 
39 1 16.753 8.853 8.853 
43 1 19.795 5.811 8.853 
53 1 19.795 8.853 5.811 
87 1 17.952 8.754 8.754 
91 1 19.696 7.01 8.754 
101 1 19.696 8.754 7.01 
135 1 20.349 9.407 9.407 
ITEM: TIMESTEP
10
ITEM: NUMBER OF ATOMS
145
ITEM: BOX BOUNDS pp pp pp
0.0000000000000000e+00 2.1884000000000000e+01
0.0000000000000000e+00 2.1885999999999999e+01
0.0000000000000000e+00 2.1885000000000002e+01
ITEM: ATOMS id type x y z 
16 1 1.60476 12.5467 12.5472 
32 1 0.0236527 10.9646 10.9652 
64 1 4.31718 12.2187 12.2187 
68 1 1.27664 15.2599 12.2186 
78 1 1.27664 12.2187 15.2601 
112 1 3.11913 12.3173 12.3173 
116 1 1.37547 14.0606 12.3175 
126 1 1.37546 12.3175 14.0606 
144 1 0.721523 11.6648 11.6629 
9 1 8.52399 12.547 12.5469 
25 1 10.1054 10.9652 10.965 
57 1 5.81054 12.2186 12.2186 
65 1 8.8524 15.2606 12.2186 
73 1 8.85239 12.2194 15.26 
105 1 7.01076 12.3175 12.3175 
113 1 8.7535 14.0602 12.3175 
121 1 8.75357 12.3178 14.0606 
137 1 9.40696 11.6636 11.6636 
11 1 1.60471 19.4662 12.5464 
27 1 0.023383 21.0473 10.9648 
59 1 4.31801 19.7944 12.2186 
69 1 1.27655 16.7533 12.2186 
79 1 1.27647 19.7946 15.259 
107 1 3.1184 19.6956 12.3173 
117 1 1.37531 17.9526 12.3173 
127 1 1.37543 19.6956 14.0592 
139 1 0.72195 20.3492 11.6638 
14 1 8.52398 19.4666 12.5468 
30 1 10.1048 21.048 10.966 
62 1 5.81105 19.7944 12.2186 
72 1 8.85228 16.754 12.2187 
76 1 8.85241 19.7954 15.2599 
110 1 7.01065 19.6957 12.3174 
120 1 8.75368 17.9521 12.3174 
124 1 8.75355 19.6964 14.0602 
142 1 9.40844 20.3507 11.664 
13 1 1.60492 12.5468 19.4662 
29 1 0.0231828 10.9656 21.0477 
61 1 4.31867 12.2188 19.7944 
71 1 1.27652 15.2592 19.7945 
75 1 1.2766 12.2186 16.7534 
109 1 3.11816 12.3175 19.6957 
119 1 1.37554 14.0596 19.6956 
123 1 1.37533 12.3174 17.9526 
141 1 0.722071 11.6652 20.3497 
12 1 8.52424 12.5472 19.4664 
28 1 10.1055 10.9651 21.0474 
60 1 5.8123 12.2192 19.7943 
70 1 8.85235 15.26 19.7949 
80 1 8.85244 12.2196 16.7532 
108 1 7.0095 12.3177 19.6958 
118 1 8.75361 14.061 19.696 
128 1 8.75372 12.3182 17.9528 
140 1 9.4081 11.6646 20.3496 
10 1 1.60673 19.4637 19.4641 
26 1 0.0298101 21.0415 21.0437 
58 1 4.31867 19.7955 19.7948 
66 1 1.27616 16.7518 19.7948 
74 1 1.2762 19.7948 16.7518 
106 1 3.11953 19.6962 19.6959 
114 1 1.37496 17.9512 19.696 
122 1 1.375 19.6959 17.9512 
138 1 0.725525 20.3454 20.3444 
15 1 8.52382 19.4666 19.466 
31 1 10.1038 21.046 21.0461 
63 1 5.8112 19.7956 19.7945 
67 1 8.85243 16.7533 19.7946 
77 1 8.85247 19.7955 16.7527 
111 1 7.01088 19.6966 19.6956 
115 1 8.75361 17.9526 19.6957 
125 1 8.75368 19.6967 17.9523 
143 1 9.40507 20.3476 20.3475 
8 1 12.5135 1.60927 1.60911 
24 1 10.9631 0.0176936 0.0178268 
40 1 15.2247 1.29406 1.31825 
44 1 12.2194 4.32199 1.27434 
54 1 12.2193 1.27369 4.32257 
88 1 14.0364 1.37603 1.38644 
92 1 12.31 3.12199 1.37561 
102 1 12.3098 1.37476 3.12236 
136 1 11.6544 0.720082 0.71963 
1 1 19.4422 1.60957 1.61299 
17 1 21.0529 0.0204687 0.020079 
33 1 16.8149 1.2161 1.20222 
41 1 19.7996 4.32464 1.27436 
49 1 19.8003 1.27297 4.32672 
81 1 18.0199 1.39878 1.4363 
89 1 19.6953 3.13075 1.37139 
97 1 19.6964 1.36987 3.13114 
129 1 20.3479 0.712773 0.711697 
145 2 16.7375 1.26714 0.104834 
3 1 12.5463 8.52446 1.60449 
19 1 10.9647 10.1062 0.0230477 
35 1 15.2583 8.85132 1.27664 
45 1 12.2184 5.81412 1.27525 
55 1 12.2185 8.85138 4.31785 
83 1 14.0613 8.75302 1.37506 
93 1 12.3173 7.01346 1.3746 
103 1 12.3171 8.75294 3.11873 
131 1 11.6628 9.40744 0.72085 
6 1 19.4657 8.52664 1.60487 
22 1 21.0489 10.1057 0.0216554 
38 1 16.7515 8.85187 1.27636 
48 1 19.7959 5.81941 1.27569 
52 1 19.7945 8.85246 4.31762 
86 1 17.9521 8.75376 1.37521 
96 1 19.6955 7.01705 1.37529 
100 1 19.6959 8.75428 3.12041 
134 1 20.3499 9.40834 0.721285 
5 1 12.5465 1.60432 8.52467 
21 1 10.9641 0.0212963 10.1056 
37 1 15.2584 1.27553 8.85239 
47 1 12.2186 4.31772 8.85241 
51 1 12.2184 1.27592 5.81451 
85 1 14.061 1.37431 8.75383 
95 1 12.3173 3.1184 8.75379 
99 1 12.3175 1.37541 7.0141 
133 1 11.6636 0.720572 9.40764 
4 1 19.4654 1.60471 8.52715 
20 1 21.0484 0.0219106 10.1066 
36 1 16.7516 1.2753 8.8526 
46 1 19.7943 4.31819 8.85258 
56 1 19.7961 1.27462 5.82224 
84 1 17.9518 1.37436 8.75411 
94 1 19.6953 3.11933 8.75408 
104 1 19.6955 1.37442 7.01759 
132 1 20.3507 0.721977 9.40972 
2 1 12.5469 8.52413 8.52397 
18 1 10.9659 10.1057 10.1051 
34 1 15.26 8.85238 8.85239 
42 1 12.2187 5.81103 8.85232 
50 1 12.2186 8.85164 5.81097 
82 1 14.0602 8.75355 8.75351 
90 1 12.3175 7.01053 8.75347 
98 1 12.3174 8.75322 7.01072 
130 1 11.6626 9.40687 9.40831 
7 1 19.4662 8.52397 8.52407 
23 1 21.0475 10.1054 10.1053 
39 1 16.7529 8.8524 8.8524 
43 1 19.7944 5.81146 8.85247 
53 1 19.7945 8.85248 5.8111 
87 1 17.9525 8.75352 8.75354 
91 1 19.6956 7.01108 8.75349 
101 1 19.6955 8.75347 7.01145 
135 1 20.3491 9.40794 9.40801 
ITEM: TIMESTEP
20
ITEM: NUMBER OF ATOMS
145
ITEM: BOX BOUNDS pp pp pp
0.0000000000000000e+00 2.1884000000000000e+01
0.0000000000000000e+00 2.1885999999999999e+01
0.0000000000000000e+00 2.1885000000000002e+01
ITEM: ATOMS id type x y z 
16 1 1.60634 12.545 12.5468 
32 1 0.0256865 10.9639 10.9656 
64 1 4.31864 12.2197 12.2199 
68 1 1.27727 15.2586 12.2197 
78 1 1.27722 12.2196 15.2589 
112 1 3.11912 12.3181 12.3177 
116 1 1.37607 14.0593 12.3177 
126 1 1.37597 12.3179 14.0594 
144 1 0.720083 11.6669 11.663 
9 1 8.52341 12.546 12.5467 
25 1 10.1043 10.9636 10.9659 
57 1 5.81066 12.2199 12.2197 
65 1 8.85123 15.2588 12.2198 
73 1 8.85139 12.2204 15.2598 
105 1 7.01067 12.3179 12.3182 
113 1 8.75265 14.0591 12.3183 
121 1 8.75292 12.3182 14.0595 
137 1 9.40934 11.6683 11.6618 
11 1 1.60722 19.4647 12.5461 
27 1 0.0274117 21.0488 10.9681 
59 1 4.31909 19.794 12.219 
69 1 1.27713 16.7528 12.2191 
79 1 1.27587 19.7951 15.2589 
107 1 3.11941 19.6953 12.3173 
117 1 1.37615 17.9517 12.3174 
127 1 1.37555 19.6958 14.0587 
139 1 0.721377 20.3409 11.6619 
14 1 8.52463 19.4657 12.547 
30 1 10.1056 21.0483 10.968 
62 1 5.8117 19.7939 12.2192 
72 1 8.8514 16.7527 12.2195 
76 1 8.85194 19.7951 15.259 
110 1 7.01146 19.6953 12.3176 
120 1 8.75341 17.9518 12.3177 
124 1 8.75331 19.6957 14.0587 
142 1 9.40612 20.3488 11.6606 
13 1 1.60594 12.547 19.465 
29 1 0.024303 10.968 21.0479 
61 1 4.31849 12.2192 19.7939 
71 1 1.27616 15.2595 19.795 
75 1 1.27722 12.219 16.7519 
109 1 3.11957 12.3173 19.6952 
119 1 1.3757 14.0591 19.6954 
123 1 1.37584 12.3171 17.951 
141 1 0.725038 11.6626 20.3457 
12 1 8.52455 12.5463 19.4653 
28 1 10.1065 10.9659 21.0467 
60 1 5.81303 12.2198 19.7939 
70 1 8.85197 15.2593 19.7947 
80 1 8.85159 12.2202 16.7511 
108 1 7.0108 12.318 19.695 
118 1 8.75377 14.0598 19.6955 
128 1 8.75347 12.3185 17.952 
140 1 9.40498 11.662 20.3497 
10 1 1.6079 19.4626 19.4646 
26 1 0.0245607 21.0482 21.0475 
58 1 4.31826 19.7955 19.7949 
66 1 1.27628 16.7511 19.7947 
74 1 1.27632 19.7945 16.7516 
106 1 3.11828 19.6932 19.6925 
114 1 1.37766 17.9514 19.6927 
122 1 1.37776 19.6928 17.9515 
138 1 0.721389 20.3506 20.3465 
15 1 8.52354 19.4627 19.462 
31 1 10.1087 21.0439 21.0439 
63 1 5.81082 19.7965 19.7956 
67 1 8.8521 16.7516 19.7948 
77 1 8.85223 19.7957 16.7505 
111 1 7.01106 19.6952 19.6944 
115 1 8.7532 17.9511 19.6941 
125 1 8.75327 19.6948 17.9506 
143 1 9.40338 20.3494 20.3493 
8 1 12.5224 1.61224 1.62031 
24 1 10.9625 0.0207721 0.0243674 
40 1 15.252 1.30142 1.35705 
44 1 12.2123 4.31847 1.27633 
54 1 12.2105 1.27696 4.32106 
88 1 14.0652 1.41212 1.4571 
92 1 12.3038 3.11853 1.37675 
102 1 12.3006 1.37576 3.12013 
136 1 11.6505 0.729024 0.721928 
1 1 19.4332 1.61294 1.63256 
17 1 21.0393 0.0205518 0.0264079 
33 1 16.8207 1.17315 1.08659 
41 1 19.8016 4.32871 1.27024 
49 1 19.8103 1.26803 4.34362 
81 1 18.0109 1.35883 1.41608 
89 1 19.6919 3.13905 1.37918 
97 1 19.7004 1.37113 3.14976 
129 1 20.3439 0.724738 0.72135 
145 2 16.7129 1.23909 -0.0171351 
3 1 12.5456 8.5274 1.6049 
19 1 10.9662 10.106 0.0193895 
35 1 15.2567 8.85097 1.27645 
45 1 12.2209 5.81235 1.27487 
55 1 12.2192 8.85091 4.31859 
83 1 14.0584 8.7544 1.37535 
93 1 12.3183 7.01235 1.37298 
103 1 12.3172 8.75395 3.11856 
131 1 11.6595 9.41211 0.727025 
6 1 19.4648 8.5367 1.6061 
22 1 21.0506 10.1078 0.0201042 
38 1 16.7501 8.85155 1.27579 
48 1 19.8006 5.82677 1.27095 
52 1 19.7948 8.85241 4.32071 
86 1 17.9497 8.75888 1.37596 
96 1 19.6996 7.01906 1.37389 
100 1 19.6954 8.7593 3.12163 
134 1 20.3483 9.41368 0.721529 
5 1 12.5447 1.60524 8.52829 
21 1 10.9653 0.0204853 10.1068 
37 1 15.2558 1.2751 8.85152 
47 1 12.2191 4.31896 8.85163 
51 1 12.221 1.27493 5.81296 
85 1 14.0574 1.3751 8.75552 
95 1 12.3173 3.11868 8.75534 
99 1 12.3187 1.3736 7.01363 
133 1 11.6606 0.722081 9.40865 
4 1 19.4633 1.6059 8.54004 
20 1 21.0508 0.0188479 10.1093 
36 1 16.7488 1.27458 8.85281 
46 1 19.7948 4.32205 8.85288 
56 1 19.8028 1.2691 5.83769 
84 1 17.9486 1.37483 8.76029 
94 1 19.6953 3.12182 8.76014 
104 1 19.6989 1.37324 7.0291 
132 1 20.351 0.721879 9.41647 
2 1 12.5462 8.52598 8.52454 
18 1 10.9643 10.1059 10.1055 
34 1 15.2598 8.85153 8.85147 
42 1 12.2195 5.81174 8.85132 
50 1 12.2193 8.85071 5.81172 
82 1 14.0591 8.75314 8.75337 
90 1 12.3179 7.01161 8.75342 
98 1 12.3177 8.75285 7.01175 
130 1 11.6629 9.40662 9.40989 
7 1 19.4648 8.52659 8.52684 
23 1 21.0465 10.1071 10.1078 
39 1 16.7512 8.85158 8.85153 
43 1 19.7948 5.81475 8.85153 
53 1 19.7947 8.85156 5.81345 
87 1 17.9519 8.75375 8.75378 
91 1 19.6951 7.01491 8.754 
101 1 19.6952 8.75401 7.01358 
135 1 20.3522 9.4086 9.4072 
ITEM: TIMESTEP
30
ITEM: NUMBER OF ATOMS
145
ITEM: BOX BOUNDS pp pp pp
0.0000000000000000e+00 2.1884000000000000e+01
0.0000000000000000e+00 2.1885999999999999e+01
0.0000000000000000e+00 2.1885000000000002e+01
ITEM: ATOMS id type x y z 
16 1 1.60488 12.5477 12.546 
32 1 0.0231177 10.9668 10.9658 
64 1 4.31829 12.2199 12.2196 
68 1 1.27736 15.2595 12.2195 
78 1 1.27726 12.2194 15.2593 
112 1 3.11902 12.3176 12.3179 
116 1 1.37608 14.06 12.3179 
126 1 1.37586 12.3175 14.0603 
144 1 0.72355 11.6633 11.6634 
9 1 8.52507 12.5474 12.5464 
25 1 10.1066 10.9669 10.965 
57 1 5.81166 12.2197 12.2199 
65 1 8.85102 15.26 12.22 
73 1 8.8513 12.2202 15.2592 
105 1 7.01072 12.3179 12.3178 
113 1 8.75271 14.0607 12.318 
121 1 8.75309 12.3181 14.06 
137 1 9.40641 11.6636 11.6623 
11 1 1.60578 19.4631 12.5478 
27 1 0.0260017 21.0427 10.9667 
59 1 4.31934 19.7942 12.219 
69 1 1.27725 16.7507 12.2193 
79 1 1.27633 19.795 15.2609 
107 1 3.12011 19.6947 12.3171 
117 1 1.37662 17.9504 12.3176 
127 1 1.37535 19.6955 14.0618 
139 1 0.72589 20.3456 11.6645 
14 1 8.52413 19.4646 12.5448 
30 1 10.1049 21.0466 10.9634 
62 1 5.81225 19.794 12.2193 
72 1 8.85142 16.7516 12.2198 
76 1 8.85187 19.7952 15.2588 
110 1 7.01146 19.6948 12.3174 
120 1 8.75319 17.9514 12.3175 
124 1 8.75351 19.6956 14.0598 
142 1 9.40745 20.351 11.6669 
13 1 1.60684 12.546 19.4642 
29 1 0.026778 10.9644 21.0454 
61 1 4.31941 12.2195 19.7939 
71 1 1.27647 15.2598 19.7946 
75 1 1.27721 12.2193 16.7524 
109 1 3.12016 12.3174 19.6947 
119 1 1.3758 14.0609 19.6954 
123 1 1.37659 12.3174 17.9517 
141 1 0.721471 11.6672 20.3482 
12 1 8.52424 12.5462 19.4655 
28 1 10.1052 10.9641 21.0461 
60 1 5.81101 12.2198 19.7937 
70 1 8.85205 15.2592 19.7945 
80 1 8.85156 12.2206 16.753 
108 1 7.01091 12.3179 19.6949 
118 1 8.7536 14.0602 19.6956 
128 1 8.75318 12.3182 17.9519 
140 1 9.40764 11.6638 20.3485 
10 1 1.60536 19.4665 19.4647 
26 1 0.0207309 21.0501 21.0481 
58 1 4.31726 19.7938 19.793 
66 1 1.27792 16.7543 19.7927 
74 1 1.27796 19.7927 16.7542 
106 1 3.11822 19.6936 19.6935 
114 1 1.37753 17.9531 19.6934 
122 1 1.37767 19.6929 17.9533 
138 1 0.717948 20.351 20.3517 
15 1 8.52289 19.4654 19.465 
31 1 10.1062 21.0467 21.0477 
63 1 5.81054 19.7951 19.7943 
67 1 8.85169 16.7534 19.7937 
77 1 8.85183 19.7944 16.7529 
111 1 7.00948 19.6951 19.6943 
115 1 8.75232 17.9522 19.6938 
125 1 8.7524 19.6946 17.9518 
143 1 9.41023 20.3484 20.3478 
8 1 12.5356 1.61508 1.62271 
24 1 10.9641 0.0259579 0.0230054 
40 1 15.2611 1.30399 1.36519 
44 1 12.2121 4.31915 1.27599 
54 1 12.2082 1.27614 4.32225 
88 1 14.0761 1.41822 1.4703 
92 1 12.3037 3.11963 1.38031 
102 1 12.2983 1.37804 3.12212 
136 1 11.6556 0.724298 0.727636 
1 1 19.4268 1.60859 1.63048 
17 1 21.0425 0.0267241 0.0252867 
33 1 16.8246 1.15353 1.05287 
41 1 19.8002 4.33155 1.27275 
49 1 19.8126 1.26729 4.35197 
81 1 18.0016 1.37052 1.39155 
89 1 19.6873 3.13317 1.38253 
97 1 19.6969 1.3704 3.15144 
129 1 20.3397 0.717864 0.725419 
145 2 16.703 1.22591 -0.057962 
3 1 12.5436 8.52413 1.60599 
19 1 10.9643 10.1076 0.0245362 
35 1 15.2574 8.85104 1.27638 
45 1 12.2199 5.81177 1.27493 
55 1 12.2196 8.85087 4.31856 
83 1 14.0579 8.75408 1.37535 
93 1 12.3188 7.01115 1.37428 
103 1 12.3171 8.75345 3.11915 
131 1 11.6634 9.40952 0.722014 
6 1 19.4645 8.53548 1.60669 
22 1 21.0488 10.1093 0.0210953 
38 1 16.7503 8.85283 1.27688 
48 1 19.8024 5.82527 1.27062 
52 1 19.7944 8.85356 4.3203 
86 1 17.9497 8.75865 1.37562 
96 1 19.6992 7.02359 1.37238 
100 1 19.6951 8.75937 3.12028 
134 1 20.3496 9.41491 0.722477 
5 1 12.5433 1.60548 8.52561 
21 1 10.9635 0.0224855 10.107 
37 1 15.2551 1.27523 8.85244 
47 1 12.2197 4.31915 8.85223 
51 1 12.2193 1.2752 5.81367 
85 1 14.0558 1.37452 8.75468 
95 1 12.3162 3.11994 8.75466 
99 1 12.3189 1.37441 7.01308 
133 1 11.6634 0.719826 9.41037 
4 1 19.464 1.60819 8.54345 
20 1 21.0527 0.0210711 10.1116 
36 1 16.7479 1.27463 8.85409 
46 1 19.795 4.32296 8.85405 
56 1 19.8077 1.26734 5.83958 
84 1 17.947 1.37464 8.76235 
94 1 19.6951 3.1234 8.76241 
104 1 19.6993 1.37184 7.03912 
132 1 20.3488 0.720158 9.41971 
2 1 12.5468 8.52412 8.52605 
18 1 10.9653 10.1044 10.1086 
34 1 15.2584 8.85127 8.85133 
42 1 12.2197 5.81209 8.85112 
50 1 12.2196 8.85047 5.8113 
82 1 14.0593 8.75356 8.75349 
90 1 12.3178 7.01146 8.75329 
98 1 12.3176 8.7531 7.01072 
130 1 11.6608 9.40777 9.40479 
7 1 19.4663 8.52695 8.52561 
23 1 21.0505 10.1056 10.1062 
39 1 16.7519 8.85155 8.85157 
43 1 19.7947 5.8153 8.85175 
53 1 19.7944 8.85148 5.81312 
87 1 17.9511 8.75434 8.7542 
91 1 19.6958 7.01441 8.75409 
101 1 19.6957 8.75419 7.01184 
135 1 20.3465 9.41065 9.40958 
ITEM: TIMESTEP
40
ITEM: NUMBER OF ATOMS
145
ITEM: BOX BOUNDS pp pp pp
0.0000000000000000e+00 2.1884000000000000e+01
0.0000000000000000e+00 2.1885999999999999e+01
0.0000000000000000e+00 2.1885000000000002e+01
ITEM: ATOMS id type x y z 
16 1 1.60581 12.5465 12.5467 
32 1 0.0248701 10.9659 10.965 
64 1 4.31868 12.2197 12.2197 
68 1 1.27731 15.2586 12.2193 
78 1 1.27735 12.2193 15.2597 
112 1 3.11932 12.3177 12.318 
116 1 1.37607 14.0597 12.3178 
126 1 1.3759 12.3174 14.061 
144 1 0.722157 11.6645 11.664 
9 1 8.52421 12.547 12.5464 
25 1 10.1054 10.9656 10.9649 
57 1 5.81188 12.2198 12.2198 
65 1 8.85096 15.2597 12.2199 
73 1 8.85126 12.2204 15.2601 
105 1 7.01088 12.3179 12.318 
113 1 8.75293 14.0609 12.318 
121 1 8.75311 12.3182 14.0602 
137 1 9.40783 11.664 11.6642 
11 1 1.60716 19.4635 12.5501 
27 1 0.027799 21.0428 10.9675 
59 1 4.31985 19.7937 12.2189 
69 1 1.27747 16.7512 12.2192 
79 1 1.27734 19.7935 15.2629 
107 1 3.12039 19.6944 12.3186 
117 1 1.37688 17.9506 12.3187 
127 1 1.37615 19.6949 14.0638 
139 1 0.726272 20.3445 11.6661 
14 1 8.52473 19.4655 12.5478 
30 1 10.1048 21.0475 10.9662 
62 1 5.81267 19.7937 12.2189 
72 1 8.85111 16.7525 12.2196 
76 1 8.85127 19.794 15.2612 
110 1 7.01144 19.6951 12.3179 
120 1 8.75327 17.9523 12.3182 
124 1 8.75346 19.6956 14.0621 
142 1 9.40711 20.3486 11.6645 
13 1 1.6062 12.5485 19.4653 
29 1 0.0252246 10.9667 21.0459 
61 1 4.31865 12.2197 19.7931 
71 1 1.27797 15.262 19.793 
75 1 1.27779 12.2193 16.7528 
109 1 3.12034 12.3185 19.6947 
119 1 1.3762 14.0625 19.6949 
123 1 1.37654 12.3185 17.9524 
141 1 0.723679 11.6654 20.3481 
12 1 8.5248 12.5476 19.466 
28 1 10.1052 10.9654 21.0477 
60 1 5.81138 12.2198 19.7933 
70 1 8.85127 15.2611 19.7935 
80 1 8.85109 12.2206 16.7536 
108 1 7.01162 12.3184 19.6948 
118 1 8.75351 14.0618 19.6953 
128 1 8.75317 12.3187 17.9522 
140 1 9.40706 11.6638 20.3492 
10 1 1.60334 19.468 19.4683 
26 1 0.0189381 21.0529 21.0505 
58 1 4.31748 19.7924 19.7917 
66 1 1.27895 16.7557 19.7919 
74 1 1.27876 19.7921 16.7565 
106 1 3.11788 19.6947 19.6945 
114 1 1.37684 17.9548 19.6943 
122 1 1.37692 19.694 17.9559 
138 1 0.717193 20.3546 20.3536 
15 1 8.52457 19.4676 19.4671 
31 1 10.11 21.051 21.0496 
63 1 5.81129 19.7927 19.7919 
67 1 8.85031 16.7549 19.7923 
77 1 8.85041 19.7931 16.7549 
111 1 7.01056 19.695 19.6944 
115 1 8.75206 17.9541 19.694 
125 1 8.75208 19.6945 17.9542 
143 1 9.41231 20.3528 20.352 
8 1 12.5445 1.61466 1.62647 
24 1 10.9696 0.0279102 0.0272653 
40 1 15.2701 1.30377 1.3603 
44 1 12.2121 4.31647 1.27789 
54 1 12.2051 1.27719 4.32212 
88 1 14.0858 1.42215 1.47828 
92 1 12.3093 3.11806 1.38299 
102 1 12.3015 1.3787 3.12276 
136 1 11.6632 0.725 0.730533 
1 1 19.4174 1.60723 1.63184 
17 1 21.0401 0.0271988 0.0291997 
33 1 16.8239 1.15288 1.01611 
41 1 19.7979 4.33071 1.27717 
49 1 19.8088 1.26737 4.35332 
81 1 17.9998 1.36068 1.36703 
89 1 19.6826 3.13266 1.38561 
97 1 19.6865 1.37104 3.15257 
129 1 20.3344 0.71982 0.727197 
145 2 16.6931 1.20627 -0.0926649 
3 1 12.5452 8.52357 1.60449 
19 1 10.9651 10.1067 0.0231563 
35 1 15.2577 8.85144 1.27703 
45 1 12.2184 5.80974 1.27563 
55 1 12.2197 8.85066 4.31782 
83 1 14.0575 8.75274 1.37567 
93 1 12.318 7.00913 1.37458 
103 1 12.3172 8.7526 3.11857 
131 1 11.6628 9.40807 0.721766 
6 1 19.4648 8.53458 1.6055 
22 1 21.0491 10.11 0.0218182 
38 1 16.7507 8.85332 1.27734 
48 1 19.802 5.82491 1.27133 
52 1 19.794 8.85415 4.3199 
86 1 17.9492 8.75864 1.37612 
96 1 19.7 7.0224 1.37178 
100 1 19.6946 8.75916 3.11889 
134 1 20.3487 9.41459 0.721236 
5 1 12.5435 1.60503 8.52612 
21 1 10.9639 0.0213094 10.1076 
37 1 15.2553 1.27475 8.85289 
47 1 12.2191 4.31872 8.8521 
51 1 12.2161 1.27537 5.81307 
85 1 14.0552 1.37452 8.75449 
95 1 12.3161 3.11956 8.75452 
99 1 12.3171 1.37479 7.01256 
133 1 11.6609 0.720864 9.40888 
4 1 19.4627 1.60802 8.54723 
20 1 21.0511 0.0194369 10.1142 
36 1 16.7477 1.27483 8.85597 
46 1 19.7949 4.32337 8.85584 
56 1 19.8111 1.266 5.84184 
84 1 17.9464 1.37517 8.76485 
94 1 19.6944 3.1236 8.76487 
104 1 19.7025 1.37107 7.04201 
132 1 20.3501 0.721674 9.42208 
2 1 12.5459 8.52506 8.52406 
18 1 10.9644 10.1058 10.1058 
34 1 15.2584 8.85134 8.85161 
42 1 12.2197 5.81217 8.85168 
50 1 12.2198 8.85063 5.81078 
82 1 14.0593 8.75343 8.75314 
90 1 12.3176 7.01138 8.75312 
98 1 12.3177 8.75289 7.01018 
130 1 11.6631 9.40777 9.40765 
7 1 19.465 8.52776 8.52567 
23 1 21.0482 10.1065 10.1073 
39 1 16.7518 8.85168 8.85173 
43 1 19.7952 5.8164 8.85228 
53 1 19.7944 8.85201 5.81301 
87 1 17.9509 8.75477 8.7538 
91 1 19.6958 7.01519 8.7538 
101 1 19.6955 8.75484 7.01058 
135 1 20.3482 9.4102 9.40864 
ITEM: TIMESTEP
41
ITEM: NUMBER OF ATOMS
145
ITEM: BOX BOUNDS pp pp pp
0.0000000000000000e+00 2.1884000000000000e+01
0.0000000000000000e+00 2.1885999999999999e+01
0.0000000000000000e+00 2.1885000000000002e+01
ITEM: ATOMS id type x y z 
16 1 1.60584 12.5465 12.5466 
32 1 0.0249023 10.966 10.965 
64 1 4.31868 12.2197 12.2197 
68 1 1.27732 15.2587 12.2193 
78 1 1.27737 12.2193 15.2597 
112 1 3.11932 12.3177 12.318 
116 1 1.37606 14.0598 12.3178 
126 1 1.3759 12.3175 14.061 
144 1 0.722135 11.6645 11.6641 
9 1 8.52417 12.547 12.5463 
25 1 10.1053 10.9656 10.9648 
57 1 5.8119 12.2198 12.2198 
65 1 8.85095 15.2598 12.2199 
73 1 8.85125 12.2203 15.26 
105 1 7.01087 12.3179 12.318 
113 1 8.75295 14.061 12.318 
121 1 8.75311 12.3183 14.0602 
137 1 9.40792 11.6639 11.6644 
11 1 1.60713 19.4635 12.5502 
27 1 0.0277781 21.0428 10.9675 
59 1 4.3199 19.7937 12.2189 
69 1 1.27748 16.7511 12.2192 
79 1 1.27737 19.7935 15.2628 
107 1 3.12042 19.6944 12.3186 
117 1 1.37689 17.9506 12.3187 
127 1 1.37618 19.6949 14.0638 
139 1 0.726358 20.3445 11.6661 
14 1 8.52477 19.4655 12.5479 
30 1 10.1048 21.0475 10.9661 
62 1 5.81265 19.7937 12.2189 
72 1 8.85112 16.7523 12.2197 
76 1 8.85125 19.794 15.2613 
110 1 7.0114 19.6951 12.3179 
120 1 8.75326 17.9522 12.3182 
124 1 8.75346 19.6956 14.0622 
142 1 9.40709 20.3487 11.6646 
13 1 1.60617 12.5485 19.4653 
29 1 0.0252579 10.9667 21.0459 
61 1 4.31877 12.2197 19.7931 
71 1 1.27798 15.2619 19.793 
75 1 1.27778 12.2193 16.7528 
109 1 3.12045 12.3185 19.6947 
119 1 1.37623 14.0625 19.6949 
123 1 1.37656 12.3185 17.9524 
141 1 0.723634 11.6654 20.3482 
12 1 8.52487 12.5477 19.466 
28 1 10.1051 10.9654 21.0476 
60 1 5.81126 12.2198 19.7932 
70 1 8.85126 15.2611 19.7934 
80 1 8.8511 12.2206 16.7538 
108 1 7.01157 12.3184 19.6948 
118 1 8.75349 14.0618 19.6953 
128 1 8.75314 12.3187 17.9522 
140 1 9.40704 11.6638 20.3491 
10 1 1.6033 19.468 19.4684 
26 1 0.0188974 21.0529 21.0506 
58 1 4.31749 19.7923 19.7917 
66 1 1.27896 16.7558 19.7919 
74 1 1.27876 19.7921 16.7566 
106 1 3.11786 19.6947 19.6945 
114 1 1.37684 17.9549 19.6943 
122 1 1.37692 19.694 17.956 
138 1 0.717232 20.3547 20.3536 
15 1 8.5246 19.4677 19.4671 
31 1 10.1101 21.0512 21.0497 
63 1 5.81127 19.7927 19.7919 
67 1 8.8503 16.755 19.7923 
77 1 8.85039 19.7931 16.755 
111 1 7.01057 19.695 19.6944 
115 1 8.75205 17.9542 19.694 
125 1 8.75207 19.6945 17.9543 
143 1 9.41241 20.3527 20.3522 
8 1 12.5447 1.61466 1.62649 
24 1 10.9696 0.0278626 0.0272437 
40 1 15.2701 1.30378 1.36013 
44 1 12.2121 4.31653 1.27791 
54 1 12.2051 1.27719 4.32233 
88 1 14.0862 1.42216 1.47841 
92 1 12.3094 3.11806 1.38303 
102 1 12.3016 1.3787 3.12286 
136 1 11.6634 0.724938 0.730545 
1 1 19.4172 1.60723 1.6319 
17 1 21.04 0.0272889 0.0292294 
33 1 16.8242 1.15284 1.01556 
41 1 19.7978 4.3307 1.27725 
49 1 19.8087 1.26738 4.35319 
81 1 17.9995 1.36064 1.3665 
89 1 19.6825 3.13269 1.38569 
97 1 19.6863 1.37105 3.15252 
129 1 20.3343 0.719758 0.727258 
145 2 16.693 1.2059 -0.0933221 
3 1 12.5452 8.52355 1.60444 
19 1 10.9652 10.1067 0.0231691 
35 1 15.2578 8.85144 1.27704 
45 1 12.2184 5.80966 1.27564 
55 1 12.2197 8.85065 4.31788 
83 1 14.0575 8.75273 1.37566 
93 1 12.318 7.00913 1.37459 
103 1 12.3172 8.75259 3.11861 
131 1 11.6627 9.40798 0.721816 
6 1 19.4648 8.53455 1.6055 
22 1 21.0491 10.11 0.0218197 
38 1 16.7507 8.85332 1.27736 
48 1 19.802 5.82483 1.27137 
52 1 19.794 8.85415 4.31993 
86 1 17.9491 8.75865 1.37611 
96 1 19.7 7.02226 1.37175 
100 1 19.6946 8.75916 3.11886 
134 1 20.3487 9.41466 0.721209 
5 1 12.5435 1.60502 8.52608 
21 1 10.9638 0.0212325 10.1076 
37 1 15.2554 1.27475 8.8529 
47 1 12.2191 4.31868 8.85211 
51 1 12.216 1.27538 5.81292 
85 1 14.0553 1.3745 8.75451 
95 1 12.3161 3.11953 8.75452 
99 1 12.3171 1.37478 7.01253 
133 1 11.6608 0.720927 9.409 
4 1 19.4627 1.60803 8.54725 
20 1 21.051 0.0194699 10.1143 
36 1 16.7476 1.27484 8.85599 
46 1 19.7949 4.32335 8.85587 
56 1 19.8111 1.26598 5.84191 
84 1 17.9463 1.37517 8.76491 
94 1 19.6944 3.12358 8.76491 
104 1 19.7025 1.37108 7.04224 
132 1 20.3501 0.721652 9.42201 
2 1 12.5459 8.52503 8.52409 
18 1 10.9644 10.1058 10.1058 
34 1 15.2584 8.85134 8.85161 
42 1 12.2197 5.81224 8.85168 
50 1 12.2198 8.85062 5.81069 
82 1 14.0593 8.75343 8.75314 
90 1 12.3176 7.01142 8.75312 
98 1 12.3177 8.75291 7.0101 
130 1 11.663 9.40774 9.40764 
7 1 19.465 8.52777 8.52573 
23 1 21.0481 10.1065 10.1073 
39 1 16.7518 8.85169 8.85174 
43 1 19.7952 5.81645 8.85229 
53 1 19.7944 8.85202 5.81302 
87 1 17.9509 8.75477 8.75379 
91 1 19.6958 7.0152 8.75379 
101 1 19.6955 8.75485 7.01053 
135 1 20.3483 9.41019 9.40851 
ITEM: TIMESTEP
50
ITEM: NUMBER OF ATOMS
145
ITEM: BOX BOUNDS pp pp pp
0.0000000000000000e+00 2.1884000000000000e+01
0.0000000000000000e+00 2.1885999999999999e+01
0.0000000000000000e+00 2.1885000000000002e+01
ITEM: ATOMS id type x y z 
16 1 1.60612 12.546 12.5475 
32 1 0.023053 10.9667 10.9662 
64 1 4.31788 12.2198 12.2199 
68 1 1.27749 15.2593 12.2191 
78 1 1.27774 12.2192 15.2606 
112 1 3.11906 12.3181 12.3184 
116 1 1.37569 14.0598 12.3178 
126 1 1.37578 12.3176 14.0613 
144 1 0.725968 11.6623 11.6626 
9 1 8.52455 12.547 12.5469 
25 1 10.106 10.9659 10.9655 
57 1 5.81223 12.2199 12.2198 
65 1 8.85079 15.2603 12.2198 
73 1 8.85093 12.2205 15.2601 
105 1 7.01125 12.3181 12.3182 
113 1 8.75308 14.0608 12.3181 
121 1 8.75318 12.3185 14.0611 
137 1 9.40637 11.6628 11.6639 
11 1 1.60768 19.4639 12.552 
27 1 0.0286635 21.0429 10.9684 
59 1 4.32019 19.7934 12.2194 
69 1 1.27767 16.751 12.2196 
79 1 1.27833 19.7926 15.2638 
107 1 3.12114 19.6938 12.3191 
117 1 1.37716 17.9502 12.3192 
127 1 1.37714 19.6937 14.065 
139 1 0.725403 20.3454 11.6693 
14 1 8.52498 19.466 12.5492 
30 1 10.1049 21.0473 10.9664 
62 1 5.81252 19.7936 12.219 
72 1 8.85096 16.7527 12.22 
76 1 8.85059 19.7932 15.2629 
110 1 7.01192 19.695 12.3182 
120 1 8.7533 17.952 12.3187 
124 1 8.75329 19.6951 14.0636 
142 1 9.40716 20.3489 11.6656 
13 1 1.60569 12.5501 19.4656 
29 1 0.0251191 10.9679 21.047 
61 1 4.32 12.2201 19.7927 
71 1 1.27875 15.2631 19.792 
75 1 1.278 12.2198 16.7537 
109 1 3.12032 12.319 19.6947 
119 1 1.37704 14.0639 19.6946 
123 1 1.37705 12.319 17.9527 
141 1 0.722908 11.6647 20.3463 
12 1 8.52527 12.549 19.4667 
28 1 10.1046 10.9654 21.0476 
60 1 5.81172 12.2202 19.7928 
70 1 8.85042 15.2619 19.7924 
80 1 8.85094 12.2209 16.7537 
108 1 7.01109 12.3185 19.6947 
118 1 8.75296 14.0628 19.6948 
128 1 8.75294 12.3191 17.9531 
140 1 9.40832 11.6662 20.35 
10 1 1.60282 19.4702 19.4704 
26 1 0.0179345 21.0547 21.0526 
58 1 4.31731 19.7913 19.7907 
66 1 1.27946 16.7571 19.7915 
74 1 1.27911 19.7918 16.7586 
106 1 3.11784 19.695 19.6948 
114 1 1.37651 17.9566 19.695 
122 1 1.37647 19.6947 17.9578 
138 1 0.717484 20.3569 20.3563 
15 1 8.52585 19.4694 19.469 
31 1 10.1127 21.0537 21.0515 
63 1 5.81162 19.7914 19.7906 
67 1 8.84944 16.7564 19.7915 
77 1 8.84956 19.7923 16.7568 
111 1 7.01119 19.6949 19.6944 
115 1 8.75214 17.9558 19.6944 
125 1 8.75221 19.6949 17.9563 
143 1 9.41295 20.3555 20.3553 
8 1 12.5515 1.61441 1.62808 
24 1 10.9735 0.0289512 0.0289589 
40 1 15.2757 1.30318 1.35269 
44 1 12.2131 4.3158 1.27929 
54 1 12.204 1.27755 4.32353 
88 1 14.0938 1.42405 1.48473 
92 1 12.3128 3.11715 1.38483 
102 1 12.3033 1.37897 3.12391 
136 1 11.6696 0.724065 0.731489 
1 1 19.4115 1.60586 1.63325 
17 1 21.0379 0.0289823 0.0315477 
33 1 16.8241 1.15008 0.990654 
41 1 19.7954 4.32919 1.28027 
49 1 19.8041 1.2677 4.35197 
81 1 17.9965 1.35941 1.35087 
89 1 19.6785 3.13257 1.38864 
97 1 19.6789 1.37126 3.15364 
129 1 20.3307 0.718801 0.727786 
3 1 12.5447 8.52234 1.60358 