
     Program PWSCF v.7.1 starts on 24May2025 at 18:37:11 

     This program is part of the open-source Quantum ESPRESSO suite
     for quantum simulation of materials; please cite
         "P. Giannozzi et al., J. Phys.:Condens. Matter 21 395502 (2009);
         "P. Giannozzi et al., J. Phys.:Condens. Matter 29 465901 (2017);
         "P. Giannozzi et al., J. Chem. Phys. 152 154105 (2020);
          URL http://www.quantum-espresso.org", 
     in publications or presentations arising from this work. More details at
     http://www.quantum-espresso.org/quote

     Parallel version (MPI), running on    16 processors

     MPI processes distributed on     1 nodes
     242349 MiB available memory on the printing compute node when the environment starts

     Reading input from input.pwi
Warning: card &CELL ignored
Warning: card / ignored
Warning: card &FCP ignored
Warning: card / ignored
Warning: card &RISM ignored
Warning: card / ignored

     Current dimensions of program PWSCF are:
     Max number of different atomic species (ntypx) = 10
     Max number of k-points (npk) =  40000
     Max angular momentum in pseudopotentials (lmaxx) =  4
     file C.pbe-n-kjpaw_psl.1.0.0.UPF: wavefunction(s)  2S 2P renormalized

     IMPORTANT: XC functional enforced from input :
     Exchange-correlation= PBE
                           (   1   4   3   4   0   0   0)
     Any further DFT definition will be discarded
     Please, verify this is what you really want


     gamma-point specific algorithms are used
     Message from routine  set_nelup_neldw :
     BEWARE: non-integer number of up and down electrons!

     R & G space division:  proc/nbgrp/npool/nimage =      16
     Subspace diagonalization in iterative solution of the eigenvalue problem:
     one sub-group per band group will be used
     custom distributed-memory algorithm (size of sub-group:  2*  2 procs)


     Parallelization info
     --------------------
     sticks:   dense  smooth     PW     G-vecs:    dense   smooth      PW
     Min        1311     656    161               143332    50692    6325
     Max        1314     658    164               143346    50702    6336
     Sum       21001   10501   2617              2293379   811111  101313

     Using Slab Decomposition



     bravais-lattice index     =            0
     lattice parameter (alat)  =      25.7003  a.u.
     unit-cell volume          =   16975.1385 (a.u.)^3
     number of atoms/cell      =           73
     number of atomic types    =            2
     number of electrons       =       289.00 (up: 144.50, down: 144.50)
     number of Kohn-Sham states=          173
     kinetic-energy cutoff     =      50.0000  Ry
     charge density cutoff     =     400.0000  Ry
     scf convergence threshold =      1.0E-06
     mixing beta               =       0.3000
     number of iterations used =            8  plain     mixing
     energy convergence thresh.=      1.0E-04
     force convergence thresh. =      1.0E-03
     Exchange-correlation= PBE
                           (   1   4   3   4   0   0   0)
     nstep                     =         1000


     celldm(1)=  25.700275  celldm(2)=   0.000000  celldm(3)=   0.000000
     celldm(4)=   0.000000  celldm(5)=   0.000000  celldm(6)=   0.000000

     crystal axes: (cart. coord. in units of alat)
               a(1) = (   1.000000   0.000000   0.000000 )  
               a(2) = (   0.000000   1.000000   0.000000 )  
               a(3) = (   0.000000   0.000000   1.000000 )  

     reciprocal axes: (cart. coord. in units 2 pi/alat)
               b(1) = (  1.000000  0.000000  0.000000 )  
               b(2) = (  0.000000  1.000000  0.000000 )  
               b(3) = (  0.000000  0.000000  1.000000 )  


     PseudoPot. # 1 for C  read from file:
     /home/ana.bisette/espresso/pseudo/C.pbe-n-kjpaw_psl.1.0.0.UPF
     MD5 check sum: 5d2aebdfa2cae82b50a7e79e9516da0f
     Pseudo is Projector augmented-wave + core cor, Zval =  4.0
     Generated using "atomic" code by A. Dal Corso  v.5.1
     Shape of augmentation charge: PSQ
     Using radial grid of 1073 points,  4 beta functions with: 
                l(1) =   0
                l(2) =   0
                l(3) =   1
                l(4) =   1
     Q(r) pseudized with 0 coefficients 


     PseudoPot. # 2 for H  read from file:
     /home/ana.bisette/espresso/pseudo/H.pbe-rrkjus_psl.1.0.0.UPF
     MD5 check sum: f52b6d4d1c606e5624b1dc7b2218f220
     Pseudo is Ultrasoft, Zval =  1.0
     Generated using "atomic" code by A. Dal Corso  v.5.1
     Using radial grid of  929 points,  2 beta functions with: 
                l(1) =   0
                l(2) =   0
     Q(r) pseudized with 0 coefficients 


     atomic species   valence    mass     pseudopotential
        C              4.00    12.01100     C ( 1.00)
        H              1.00     1.00800     H ( 1.00)

     Starting magnetic structure 
     atomic species   magnetization
        C            0.000
        H            0.000

     No symmetry found



   Cartesian axes

     site n.     atom                  positions (alat units)
         1           C   tau(   1) = (   0.4905882   0.0648529   0.5648529  )
         2           C   tau(   2) = (   0.4906618   0.1394118   0.6394118  )
         3           C   tau(   3) = (   0.4905882   0.2031618   0.7031618  )
         4           C   tau(   4) = (  -0.0093382   0.4163235   0.5649265  )
         5           C   tau(   5) = (   0.9905882   0.3418382   0.6394118  )
         6           C   tau(   6) = (   0.9905147   0.2780147   0.7031618  )
         7           C   tau(   7) = (   0.4906618   0.4163971   0.9163971  )
         8           C   tau(   8) = (   0.4905882   0.3419118   0.8418382  )
         9           C   tau(   9) = (   0.4905882   0.2781618   0.7780882  )
        10           C   tau(  10) = (  -0.0093382   0.0649265   0.9163235  )
        11           C   tau(  11) = (  -0.0093382   0.1394118   0.8418382  )
        12           C   tau(  12) = (   0.9905882   0.2031618   0.7780882  )
        13           C   tau(  13) = (   0.5648529   0.4905882   0.0648529  )
        14           C   tau(  14) = (   0.6394118   0.4906618   0.1394118  )
        15           C   tau(  15) = (   0.7031618   0.4905882   0.2031618  )
        16           C   tau(  16) = (   0.5649265  -0.0093382   0.4163235  )
        17           C   tau(  17) = (   0.6394118   0.9905882   0.3418382  )
        18           C   tau(  18) = (   0.7031618   0.9905147   0.2780147  )
        19           C   tau(  19) = (   0.9163971   0.4906618   0.4163971  )
        20           C   tau(  20) = (   0.8418382   0.4905882   0.3419118  )
        21           C   tau(  21) = (   0.7780882   0.4905882   0.2781618  )
        22           C   tau(  22) = (   0.9163235  -0.0093382   0.0648529  )
        23           C   tau(  23) = (   0.8418382  -0.0093382   0.1394118  )
        24           C   tau(  24) = (   0.7780882   0.9905882   0.2031618  )
        25           C   tau(  25) = (   0.0648529   0.5648529   0.4905882  )
        26           C   tau(  26) = (   0.1394118   0.6394118   0.4906618  )
        27           C   tau(  27) = (   0.2031618   0.7031618   0.4905882  )
        28           C   tau(  28) = (   0.4163235   0.5649265  -0.0093382  )
        29           C   tau(  29) = (   0.3418382   0.6394118   0.9905882  )
        30           C   tau(  30) = (   0.2780147   0.7031618   0.9905147  )
        31           C   tau(  31) = (   0.4163971   0.9163971   0.4906618  )
        32           C   tau(  32) = (   0.3419118   0.8418382   0.4905882  )
        33           C   tau(  33) = (   0.2781618   0.7780882   0.4905882  )
        34           C   tau(  34) = (   0.0648529   0.9163235  -0.0093382  )
        35           C   tau(  35) = (   0.1394118   0.8418382   0.9905882  )
        36           C   tau(  36) = (   0.2031618   0.7780882   0.9905882  )
        37           C   tau(  37) = (   0.4906618   0.9163971   0.4163971  )
        38           C   tau(  38) = (   0.4905882   0.8418382   0.3419118  )
        39           C   tau(  39) = (   0.4905882   0.7780882   0.2781618  )
        40           C   tau(  40) = (  -0.0093382   0.5649265   0.4163235  )
        41           C   tau(  41) = (   0.9905882   0.6394118   0.3418382  )
        42           C   tau(  42) = (   0.9905147   0.7031618   0.2780147  )
        43           C   tau(  43) = (   0.4905882   0.5648529   0.0648529  )
        44           C   tau(  44) = (   0.4906618   0.6394118   0.1394118  )
        45           C   tau(  45) = (   0.4905882   0.7031618   0.2031618  )
        46           C   tau(  46) = (  -0.0093382   0.9163235   0.0648529  )
        47           C   tau(  47) = (  -0.0093382   0.8418382   0.1394118  )
        48           C   tau(  48) = (   0.9905882   0.7780882   0.2031618  )
        49           C   tau(  49) = (   0.4163971   0.4906618   0.9163971  )
        50           C   tau(  50) = (   0.3419118   0.4905882   0.8418382  )
        51           C   tau(  51) = (   0.2781618   0.4905882   0.7780882  )
        52           C   tau(  52) = (   0.4163235  -0.0093382   0.5649265  )
        53           C   tau(  53) = (   0.3418382   0.9905882   0.6394118  )
        54           C   tau(  54) = (   0.2780147   0.9905882   0.7031618  )
        55           C   tau(  55) = (   0.0648529   0.4905882   0.5648529  )
        56           C   tau(  56) = (   0.1394118   0.4906618   0.6394118  )
        57           C   tau(  57) = (   0.2031618   0.4905882   0.7031618  )
        58           C   tau(  58) = (   0.0648529   0.9905882   0.9163235  )
        59           C   tau(  59) = (   0.1394118   0.9905882   0.8418382  )
        60           C   tau(  60) = (   0.2031618   0.9905882   0.7780882  )
        61           C   tau(  61) = (   0.9163971   0.4163971   0.4906618  )
        62           C   tau(  62) = (   0.8418382   0.3419118   0.4905882  )
        63           C   tau(  63) = (   0.7780882   0.2781618   0.4905882  )
        64           C   tau(  64) = (   0.5649265   0.4163235  -0.0093382  )
        65           C   tau(  65) = (   0.6394118   0.3418382   0.9905882  )
        66           C   tau(  66) = (   0.7031618   0.2780147   0.9905147  )
        67           C   tau(  67) = (   0.5648529   0.0648529   0.4905882  )
        68           C   tau(  68) = (   0.6394118   0.1394118   0.4906618  )
        69           C   tau(  69) = (   0.7031618   0.2031618   0.4905882  )
        70           C   tau(  70) = (   0.9163235   0.0649265  -0.0093382  )
        71           C   tau(  71) = (   0.8418382   0.1394118  -0.0093382  )
        72           C   tau(  72) = (   0.7780882   0.2031618   0.9905882  )
        73           H   tau(  73) = (   0.4850735   0.1314706   0.7388235  )

     number of k points=     1  Gaussian smearing, width (Ry)=  0.0001
                       cart. coord. in units 2pi/alat
        k(    1) = (   0.0000000   0.0000000   0.0000000), wk =   1.0000000

     Dense  grid:  1146690 G-vectors     FFT dimensions: ( 180, 180, 180)

     Smooth grid:   405556 G-vectors     FFT dimensions: ( 120, 120, 120)

     Estimated max dynamical RAM per process >     431.22 MB

     Estimated total dynamical RAM >       6.74 GB

     Check: negative core charge=   -0.000003
     Generating pointlists ...
     new r_m :   0.0331 (alat units)  0.8509 (a.u.) for type    1
     new r_m :   0.0331 (alat units)  0.8509 (a.u.) for type    2

     Initial potential from superposition of free atoms

     starting charge     288.9970, renormalised to     289.0000

     negative rho (up, down):  6.203E-05 6.203E-05
     Starting wfcs are  289 randomized atomic wfcs
     Checking if some PAW data can be deallocated... 

     total cpu time spent up to now is        5.8 secs

     Self-consistent Calculation

     iteration #  1     ecut=    50.00 Ry     beta= 0.30
     Davidson diagonalization with overlap
     ethr =  1.00E-02,  avg # of iterations =  2.0

     negative rho (up, down):  7.721E-05 7.745E-05

     total cpu time spent up to now is       13.4 secs

     total energy              =   -1325.58190392 Ry
     estimated scf accuracy    <       8.32404634 Ry

     total magnetization       =    -0.00 Bohr mag/cell
     absolute magnetization    =     0.08 Bohr mag/cell

     iteration #  2     ecut=    50.00 Ry     beta= 0.30
     Davidson diagonalization with overlap
     ethr =  2.88E-03,  avg # of iterations =  1.0

     negative rho (up, down):  2.692E-04 2.696E-04

     total cpu time spent up to now is       19.2 secs

     total energy              =   -1324.04993571 Ry
     estimated scf accuracy    <       2.85011571 Ry

     total magnetization       =     0.00 Bohr mag/cell
     absolute magnetization    =     0.06 Bohr mag/cell

     iteration #  3     ecut=    50.00 Ry     beta= 0.30
     Davidson diagonalization with overlap
     ethr =  9.86E-04,  avg # of iterations =  2.0

     negative rho (up, down):  2.223E-04 2.227E-04

     total cpu time spent up to now is       26.7 secs

     total energy              =   -1324.65806262 Ry
     estimated scf accuracy    <       0.22410277 Ry

     total magnetization       =     0.00 Bohr mag/cell
     absolute magnetization    =     0.04 Bohr mag/cell

     iteration #  4     ecut=    50.00 Ry     beta= 0.30
     Davidson diagonalization with overlap
     ethr =  7.75E-05,  avg # of iterations = 16.0

     negative rho (up, down):  2.136E-04 2.138E-04

     total cpu time spent up to now is       34.6 secs

     total energy              =   -1324.66254964 Ry
     estimated scf accuracy    <       0.07060413 Ry

     total magnetization       =    -0.00 Bohr mag/cell
     absolute magnetization    =     0.03 Bohr mag/cell

     iteration #  5     ecut=    50.00 Ry     beta= 0.30
     Davidson diagonalization with overlap
     ethr =  2.44E-05,  avg # of iterations =  2.0

     negative rho (up, down):  2.517E-04 2.518E-04

     total cpu time spent up to now is       41.5 secs

     total energy              =   -1324.67100679 Ry
     estimated scf accuracy    <       0.02518092 Ry

     total magnetization       =     0.00 Bohr mag/cell
     absolute magnetization    =     0.02 Bohr mag/cell

     iteration #  6     ecut=    50.00 Ry     beta= 0.30
     Davidson diagonalization with overlap
     ethr =  8.71E-06,  avg # of iterations =  5.0

     negative rho (up, down):  2.956E-04 2.956E-04

     total cpu time spent up to now is       48.0 secs

     total energy              =   -1324.67009380 Ry
     estimated scf accuracy    <       0.00730596 Ry

     total magnetization       =     0.00 Bohr mag/cell
     absolute magnetization    =     0.02 Bohr mag/cell

     iteration #  7     ecut=    50.00 Ry     beta= 0.30
     Davidson diagonalization with overlap
     ethr =  2.53E-06,  avg # of iterations =  5.0

     negative rho (up, down):  2.935E-04 2.935E-04

     total cpu time spent up to now is       56.3 secs

     total energy              =   -1324.67116008 Ry
     estimated scf accuracy    <       0.00381963 Ry

     total magnetization       =     0.00 Bohr mag/cell
     absolute magnetization    =     0.01 Bohr mag/cell

     iteration #  8     ecut=    50.00 Ry     beta= 0.30
     Davidson diagonalization with overlap
     ethr =  1.32E-06,  avg # of iterations =  2.0

     negative rho (up, down):  2.915E-04 2.915E-04

     total cpu time spent up to now is       62.6 secs

     total energy              =   -1324.67112930 Ry
     estimated scf accuracy    <       0.00050073 Ry

     total magnetization       =    -0.00 Bohr mag/cell
     absolute magnetization    =     0.01 Bohr mag/cell

     iteration #  9     ecut=    50.00 Ry     beta= 0.30
     Davidson diagonalization with overlap
     ethr =  1.73E-07,  avg # of iterations =  4.0

     negative rho (up, down):  2.924E-04 2.924E-04

     total cpu time spent up to now is       70.5 secs

     total energy              =   -1324.67127062 Ry
     estimated scf accuracy    <       0.00009610 Ry

     total magnetization       =    -0.00 Bohr mag/cell
     absolute magnetization    =     0.01 Bohr mag/cell

     iteration # 10     ecut=    50.00 Ry     beta= 0.30
     Davidson diagonalization with overlap
     ethr =  3.33E-08,  avg # of iterations =  2.0

     negative rho (up, down):  2.916E-04 2.916E-04

     total cpu time spent up to now is       77.5 secs

     total energy              =   -1324.67128657 Ry
     estimated scf accuracy    <       0.00000324 Ry

     total magnetization       =     0.00 Bohr mag/cell
     absolute magnetization    =     0.01 Bohr mag/cell

     iteration # 11     ecut=    50.00 Ry     beta= 0.30
     Davidson diagonalization with overlap
     ethr =  1.12E-09,  avg # of iterations =  7.0

     negative rho (up, down):  2.910E-04 2.910E-04

     total cpu time spent up to now is       85.9 secs

     total energy              =   -1324.67128752 Ry
     estimated scf accuracy    <       0.00000140 Ry

     total magnetization       =    -0.00 Bohr mag/cell
     absolute magnetization    =     0.01 Bohr mag/cell

     iteration # 12     ecut=    50.00 Ry     beta= 0.30
     Davidson diagonalization with overlap
     ethr =  4.84E-10,  avg # of iterations =  3.0

     negative rho (up, down):  2.909E-04 2.909E-04

     Magnetic moment per site  (integrated on atomic sphere of radius R)
     atom   1 (R=0.033)  charge=  0.8488  magn= -0.0000
     atom   2 (R=0.033)  charge=  0.8648  magn=  0.0000
     atom   3 (R=0.033)  charge=  0.8865  magn= -0.0000
     atom   4 (R=0.033)  charge=  0.8443  magn=  0.0000
     atom   5 (R=0.033)  charge=  0.8651  magn=  0.0000
     atom   6 (R=0.033)  charge=  0.8535  magn= -0.0000
     atom   7 (R=0.033)  charge=  0.8455  magn= -0.0000
     atom   8 (R=0.033)  charge=  0.8617  magn= -0.0000
     atom   9 (R=0.033)  charge=  0.8576  magn=  0.0000
     atom  10 (R=0.033)  charge=  0.8440  magn=  0.0000
     atom  11 (R=0.033)  charge=  0.8656  magn=  0.0000
     atom  12 (R=0.033)  charge=  0.8538  magn=  0.0000
     atom  13 (R=0.033)  charge=  0.8451  magn=  0.0000
     atom  14 (R=0.033)  charge=  0.8641  magn= -0.0000
     atom  15 (R=0.033)  charge=  0.8540  magn=  0.0000
     atom  16 (R=0.033)  charge=  0.8439  magn= -0.0000
     atom  17 (R=0.033)  charge=  0.8648  magn=  0.0000
     atom  18 (R=0.033)  charge=  0.8536  magn=  0.0000
     atom  19 (R=0.033)  charge=  0.8436  magn=  0.0000
     atom  20 (R=0.033)  charge=  0.8656  magn=  0.0000
     atom  21 (R=0.033)  charge=  0.8524  magn= -0.0000
     atom  22 (R=0.033)  charge=  0.8440  magn=  0.0000
     atom  23 (R=0.033)  charge=  0.8657  magn= -0.0000
     atom  24 (R=0.033)  charge=  0.8535  magn=  0.0000
     atom  25 (R=0.033)  charge=  0.8450  magn=  0.0000
     atom  26 (R=0.033)  charge=  0.8646  magn= -0.0000
     atom  27 (R=0.033)  charge=  0.8537  magn=  0.0000
     atom  28 (R=0.033)  charge=  0.8444  magn= -0.0000
     atom  29 (R=0.033)  charge=  0.8649  magn=  0.0000
     atom  30 (R=0.033)  charge=  0.8536  magn= -0.0000
     atom  31 (R=0.033)  charge=  0.8432  magn= -0.0000
     atom  32 (R=0.033)  charge=  0.8651  magn=  0.0000
     atom  33 (R=0.033)  charge=  0.8528  magn= -0.0000
     atom  34 (R=0.033)  charge=  0.8443  magn= -0.0000
     atom  35 (R=0.033)  charge=  0.8656  magn=  0.0000
     atom  36 (R=0.033)  charge=  0.8536  magn= -0.0000
     atom  37 (R=0.033)  charge=  0.8453  magn=  0.0000
     atom  38 (R=0.033)  charge=  0.8651  magn= -0.0000
     atom  39 (R=0.033)  charge=  0.8533  magn=  0.0000
     atom  40 (R=0.033)  charge=  0.8443  magn= -0.0000
     atom  41 (R=0.033)  charge=  0.8651  magn=  0.0000
     atom  42 (R=0.033)  charge=  0.8533  magn= -0.0000
     atom  43 (R=0.033)  charge=  0.8452  magn= -0.0000
     atom  44 (R=0.033)  charge=  0.8651  magn=  0.0000
     atom  45 (R=0.033)  charge=  0.8535  magn= -0.0000
     atom  46 (R=0.033)  charge=  0.8442  magn= -0.0000
     atom  47 (R=0.033)  charge=  0.8654  magn= -0.0000
     atom  48 (R=0.033)  charge=  0.8537  magn=  0.0000
     atom  49 (R=0.033)  charge=  0.8434  magn=  0.0000
     atom  50 (R=0.033)  charge=  0.8654  magn= -0.0001
     atom  51 (R=0.033)  charge=  0.8528  magn=  0.0001
     atom  52 (R=0.033)  charge=  0.8447  magn=  0.0000
     atom  53 (R=0.033)  charge=  0.8657  magn= -0.0000
     atom  54 (R=0.033)  charge=  0.8538  magn=  0.0000
     atom  55 (R=0.033)  charge=  0.8451  magn= -0.0000
     atom  56 (R=0.033)  charge=  0.8644  magn=  0.0000
     atom  57 (R=0.033)  charge=  0.8540  magn= -0.0000
     atom  58 (R=0.033)  charge=  0.8443  magn= -0.0000
     atom  59 (R=0.033)  charge=  0.8652  magn= -0.0000
     atom  60 (R=0.033)  charge=  0.8542  magn= -0.0000
     atom  61 (R=0.033)  charge=  0.8437  magn= -0.0000
     atom  62 (R=0.033)  charge=  0.8655  magn=  0.0000
     atom  63 (R=0.033)  charge=  0.8527  magn= -0.0000
     atom  64 (R=0.033)  charge=  0.8441  magn= -0.0000
     atom  65 (R=0.033)  charge=  0.8651  magn=  0.0000
     atom  66 (R=0.033)  charge=  0.8537  magn=  0.0000
     atom  67 (R=0.033)  charge=  0.8448  magn=  0.0000
     atom  68 (R=0.033)  charge=  0.8647  magn= -0.0001
     atom  69 (R=0.033)  charge=  0.8541  magn=  0.0001
     atom  70 (R=0.033)  charge=  0.8444  magn= -0.0000
     atom  71 (R=0.033)  charge=  0.8656  magn= -0.0000
     atom  72 (R=0.033)  charge=  0.8539  magn=  0.0000
     atom  73 (R=0.033)  charge=  0.4707  magn=  0.0000

     total cpu time spent up to now is       93.0 secs

     End of self-consistent calculation

 ------ SPIN UP ------------


          k = 0.0000 0.0000 0.0000 ( 50657 PWs)   bands (ev):

   -20.7114 -20.3775 -20.3662 -20.3355 -20.1108 -18.6128 -18.6107 -18.5795
   -18.5698 -18.5221 -18.4945 -18.4824 -18.3598 -17.5216 -17.5033 -17.4601
   -17.4544 -17.3322 -17.3035 -17.1646 -17.0299 -17.0067 -16.9133 -16.7879
   -16.7465 -16.7286 -16.7152 -16.5281 -16.3898 -16.3758 -16.0065 -15.9261
   -15.9096 -15.5899 -15.4636 -15.4526 -15.0606 -14.9852 -14.8112 -14.7542
   -14.7369 -14.1557 -14.0453 -14.0310 -13.7580 -13.4389 -13.1145 -12.9722
   -12.8754 -12.8294 -12.8249 -12.8212 -12.5354 -12.4087 -11.9864 -11.8336
   -11.6852 -11.5409 -11.5308 -11.4417 -11.4008 -11.3833 -11.1921 -10.8025
   -10.7029 -10.5832 -10.5704 -10.5419 -10.2419 -10.1232 -10.1099  -9.9563
    -9.8395  -9.8126  -9.8066  -9.7498  -9.7201  -8.5134  -8.4968  -8.4696
    -8.4576  -8.4428  -8.4225  -8.3999  -8.3820  -8.3578  -8.3335  -8.3236
    -8.2666  -7.3708  -7.0253  -7.0160  -6.9562  -6.9030  -6.9009  -6.8711
    -6.8301  -6.6248  -6.2948  -6.2759  -6.2513  -6.2410  -6.2126  -6.2016
    -6.1535  -6.1513  -6.1440  -6.0785  -5.9959  -5.9453  -5.8946  -5.8601
    -5.7755  -5.7600  -5.5736  -5.4450  -5.4087  -5.3913  -5.3782  -5.3753
    -4.9872  -4.7969  -4.5952  -4.5844  -4.5720  -4.5026  -4.3122  -4.2876
    -4.2830  -4.2403  -4.1858  -4.1597  -4.0307  -3.9266  -3.8717  -3.8398
    -3.6723  -3.6434  -3.6347  -3.2818  -3.1718  -3.0686  -3.0463  -3.0043
    -1.5484  -1.2144  -1.2006  -1.0397  -0.9618  -0.8917  -0.7389  -0.6554
    -0.2789  -0.1579  -0.0916   0.3396   0.6058   0.7163   0.7597   0.8143
     0.9084   0.9321   1.1191   1.2357   1.2486   1.3238   1.4688   1.4885
     1.5148   1.7755   1.9606   2.0405   2.1432

 ------ SPIN DOWN ----------


          k = 0.0000 0.0000 0.0000 ( 50657 PWs)   bands (ev):

   -20.7115 -20.3775 -20.3662 -20.3355 -20.1108 -18.6128 -18.6107 -18.5795
   -18.5698 -18.5221 -18.4945 -18.4824 -18.3598 -17.5216 -17.5033 -17.4601
   -17.4544 -17.3322 -17.3035 -17.1646 -17.0299 -17.0067 -16.9133 -16.7879
   -16.7464 -16.7286 -16.7152 -16.5281 -16.3898 -16.3759 -16.0065 -15.9261
   -15.9095 -15.5899 -15.4636 -15.4526 -15.0606 -14.9852 -14.8112 -14.7542
   -14.7369 -14.1557 -14.0453 -14.0310 -13.7580 -13.4389 -13.1145 -12.9722
   -12.8754 -12.8294 -12.8249 -12.8212 -12.5354 -12.4087 -11.9864 -11.8336
   -11.6852 -11.5409 -11.5308 -11.4417 -11.4008 -11.3833 -11.1921 -10.8025
   -10.7030 -10.5832 -10.5704 -10.5419 -10.2419 -10.1232 -10.1099  -9.9563
    -9.8395  -9.8126  -9.8066  -9.7497  -9.7201  -8.5134  -8.4968  -8.4696
    -8.4576  -8.4427  -8.4226  -8.3999  -8.3820  -8.3578  -8.3335  -8.3237
    -8.2667  -7.3708  -7.0253  -7.0161  -6.9562  -6.9030  -6.9009  -6.8711
    -6.8302  -6.6247  -6.2948  -6.2759  -6.2513  -6.2410  -6.2127  -6.2017
    -6.1535  -6.1513  -6.1441  -6.0784  -5.9959  -5.9453  -5.8946  -5.8601
    -5.7755  -5.7600  -5.5736  -5.4450  -5.4087  -5.3913  -5.3782  -5.3753
    -4.9871  -4.7969  -4.5953  -4.5843  -4.5721  -4.5026  -4.3122  -4.2876
    -4.2831  -4.2403  -4.1858  -4.1597  -4.0307  -3.9266  -3.8717  -3.8398
    -3.6723  -3.6434  -3.6347  -3.2819  -3.1718  -3.0686  -3.0464  -3.0043
    -1.5483  -1.2144  -1.2006  -1.0397  -0.9618  -0.8916  -0.7389  -0.6554
    -0.2790  -0.1579  -0.0916   0.3396   0.6058   0.7163   0.7597   0.8143
     0.9084   0.9321   1.1191   1.2357   1.2486   1.3238   1.4688   1.4885
     1.5148   1.7756   1.9624   2.0405   2.1435

     the spin up/dw Fermi energies are    -1.5484   -1.5483 ev

!    total energy              =   -1324.67128790 Ry
     estimated scf accuracy    <       0.00000034 Ry
     smearing contrib. (-TS)   =      -0.00005642 Ry
     internal energy E=F+TS    =   -1324.67123148 Ry

     The total energy is F=E-TS. E is the sum of the following terms:
     one-electron contribution =   -1937.45406522 Ry
     hartree contribution      =    1026.70532929 Ry
     xc contribution           =    -328.00280211 Ry
     ewald contribution        =     358.17485446 Ry
     one-center paw contrib.   =    -444.09454790 Ry

     total magnetization       =    -0.00 Bohr mag/cell
     absolute magnetization    =     0.01 Bohr mag/cell

     convergence has been achieved in  12 iterations

     negative rho (up, down):  2.909E-04 2.909E-04

     Forces acting on atoms (cartesian axes, Ry/au):

     atom    1 type  1   force =    -0.00227744    0.05021201    0.05545916
     atom    2 type  1   force =    -0.00517990   -0.12831865   -0.21692447
     atom    3 type  1   force =     0.00695852    0.23602627    0.19305177
     atom    4 type  1   force =    -0.00074066   -0.01451468    0.01459363
     atom    5 type  1   force =     0.00001491    0.01232227   -0.01247230
     atom    6 type  1   force =     0.00021774   -0.08634907    0.08669154
     atom    7 type  1   force =    -0.00015399   -0.02695204   -0.02499486
     atom    8 type  1   force =    -0.00069109    0.02605578    0.03009454
     atom    9 type  1   force =    -0.00346456   -0.06053153   -0.10442301
     atom   10 type  1   force =    -0.00088463    0.01470517   -0.01359764
     atom   11 type  1   force =    -0.00007678   -0.01445995    0.01437527
     atom   12 type  1   force =    -0.00020821    0.08839523   -0.08853547
     atom   13 type  1   force =     0.02126665   -0.00422329    0.01163908
     atom   14 type  1   force =    -0.01533872   -0.00089002   -0.01594606
     atom   15 type  1   force =     0.08925710    0.00006570    0.08949350
     atom   16 type  1   force =     0.02166759    0.01222487   -0.00439663
     atom   17 type  1   force =    -0.01325369    0.00198671    0.01438208
     atom   18 type  1   force =     0.08748671    0.00013401   -0.08711891
     atom   19 type  1   force =    -0.01595219    0.00007208   -0.01673051
     atom   20 type  1   force =     0.01531585    0.00038545    0.01477738
     atom   21 type  1   force =    -0.08936150   -0.00002271   -0.08947041
     atom   22 type  1   force =    -0.01539742   -0.00168194    0.01760399
     atom   23 type  1   force =     0.01611218   -0.00053462   -0.01581800
     atom   24 type  1   force =    -0.08932210   -0.00031208    0.08914570
     atom   25 type  1   force =     0.01749583    0.01748577    0.00021444
     atom   26 type  1   force =    -0.01584055   -0.01559000   -0.00045996
     atom   27 type  1   force =     0.08972417    0.08947263   -0.00006268
     atom   28 type  1   force =    -0.01980159    0.00943970   -0.00580574
     atom   29 type  1   force =     0.01271898   -0.01350330   -0.00064346
     atom   30 type  1   force =    -0.08664084    0.08705250    0.00024597
     atom   31 type  1   force =    -0.02242142   -0.00530147    0.01222986
     atom   32 type  1   force =     0.01466719    0.01619838    0.00147235
     atom   33 type  1   force =    -0.08960562   -0.08945373   -0.00010033
     atom   34 type  1   force =     0.01677197   -0.01636238   -0.00122352
     atom   35 type  1   force =    -0.01563002    0.01500607    0.00045161
     atom   36 type  1   force =     0.08865961   -0.08871003   -0.00025016
     atom   37 type  1   force =    -0.00099981   -0.03240316   -0.03157748
     atom   38 type  1   force =     0.00004172    0.02888968    0.02896199
     atom   39 type  1   force =    -0.00004374   -0.10037136   -0.10057328
     atom   40 type  1   force =    -0.00099282    0.01429484   -0.01507326
     atom   41 type  1   force =     0.00009665   -0.01232280    0.01242442
     atom   42 type  1   force =     0.00020532    0.08670216   -0.08635840
     atom   43 type  1   force =     0.00067194    0.02512348    0.02570508
     atom   44 type  1   force =    -0.00018865   -0.02448077   -0.02438447
     atom   45 type  1   force =     0.00001619    0.09823186    0.09839529
     atom   46 type  1   force =    -0.00161455   -0.01461199    0.01626448
     atom   47 type  1   force =    -0.00021014    0.01484004   -0.01478973
     atom   48 type  1   force =    -0.00019675   -0.08840961    0.08826947
     atom   49 type  1   force =    -0.02280009    0.00571800   -0.01403850
     atom   50 type  1   force =     0.01635377    0.00114077    0.01720546
     atom   51 type  1   force =    -0.09066087   -0.00018760   -0.09063913
     atom   52 type  1   force =    -0.04179244   -0.02150672    0.00932121
     atom   53 type  1   force =     0.02201805   -0.00146818   -0.02289984
     atom   54 type  1   force =    -0.09251737    0.00083205    0.09476775
     atom   55 type  1   force =     0.01696406    0.00005567    0.01725964
     atom   56 type  1   force =    -0.01594732   -0.00044540   -0.01582353
     atom   57 type  1   force =     0.09000023    0.00002695    0.08985800
     atom   58 type  1   force =     0.01592681    0.00066651   -0.01581867
     atom   59 type  1   force =    -0.01694809    0.00029684    0.01646731
     atom   60 type  1   force =     0.09031821   -0.00021287   -0.09064704
     atom   61 type  1   force =    -0.01639047   -0.01654329    0.00001719
     atom   62 type  1   force =     0.01652889    0.01595669    0.00049602
     atom   63 type  1   force =    -0.09107765   -0.09129045   -0.00011751
     atom   64 type  1   force =     0.02210037   -0.01291339    0.00554052
     atom   65 type  1   force =    -0.01468703    0.01528206    0.00122456
     atom   66 type  1   force =     0.08842545   -0.08825959    0.00007781
     atom   67 type  1   force =     0.04517408    0.01305778   -0.01678495
     atom   68 type  1   force =    -0.02191427   -0.02347112   -0.00224484
     atom   69 type  1   force =     0.09370595    0.09488500    0.00074965
     atom   70 type  1   force =    -0.01403454    0.01629427   -0.00200270
     atom   71 type  1   force =     0.01555642   -0.01522951   -0.00050962
     atom   72 type  1   force =    -0.08946463    0.08940734   -0.00019613
     atom   73 type  2   force =     0.00228506   -0.08710326    0.07452545

     Total force =     0.763761     Total SCF correction =     0.000736

     BFGS Geometry Optimization
     Energy error            =      0.0E+00 Ry
     Gradient error          =      2.4E-01 Ry/Bohr

     number of scf cycles    =   1
     number of bfgs steps    =   0

     energy             new  =   -1324.6712878961 Ry

     new trust radius        =       0.3050013216 bohr
     new conv_thr            =       0.0000010000 Ry


ATOMIC_POSITIONS (angstrom)
C             6.6707948308        0.9085710488        7.7113477232
C             6.6702589173        1.8280966942        8.5812085120
C             6.6756822921        2.8878997206        9.6651585991
C            -0.1273919404        5.6543191641        7.6907226181
C            13.4720078896        4.6555206624        8.6893999409
C            13.4711152255        3.7353060406        9.6088751881
C             6.6729185098        5.6487375941       12.4497732908
C             6.6716342883        4.6637881275       11.4649253464
C             6.6701666321        3.7509680952       10.5267417252
C            -0.1274681262        0.8907816390       12.4548044381
C            -0.1270406323        1.8883481249       11.4566070639
C            13.4718898196        2.8097767432       10.5351490494
C             7.6932538292        6.6697651325        0.8881591367
C             8.6878831004        6.6725290217        1.8875617071
C             9.6102328248        6.6720347689        2.8103579196
C             7.6944659935       -0.1205308800        5.6596734014
C             8.6889864488       13.4730513234        4.6566106704
C             9.6092959709       13.4710709175        3.7348986581
C            12.4545584632        6.6730381445        5.6541465962
C            11.4571047977        6.6722039705        4.6578198537
C            10.5347119296        6.6719879833        3.7356542956
C            12.4538520364       -0.1278900433        0.8913156282
C            11.4575261993       -0.1272829072        1.8876294723
C            10.5347327778       13.4718348523        2.8101738716
C             0.8912583940        7.6912530726        6.6721134758
C             1.8876175419        8.6877501292        6.6727565977
C             2.8104799851        9.6103468742        6.6719668319
C             5.6515214509        7.6879952742       -0.1300722629
C             4.6557305965        8.6888543600       13.4716594966
C             3.7351516441        9.6090661967       13.4711301599
C             5.6511350975       12.4601945854        6.6794717652
C             4.6577615416       11.4575718139        6.6727791364
C             3.7355827460       10.5346631272        6.6719469078
C             0.8908753429       12.4533414015       -0.1276474607
C             1.8877289495       11.4569408691       13.4722389822
C             2.8099166451       10.5350566728       13.4718676204
C             6.6724709215       12.4458529880        5.6462899170
C             6.6720220760       11.4642877596        4.6653260273
C             6.6719768558       10.5288857646        3.7297789112
C            -0.1275253797        7.6905645010        5.6540235757
C            13.4720511473        8.6894790551        4.6555747215
C            13.4711086492        9.6088808064        3.7353011052
C             6.6723555754        7.6952947712        0.8956025420
C             6.6729001690        8.6830453332        1.8830962968
C             6.6720085651        9.6149820594        2.8150685464
C            -0.1278543830       12.4542676694        0.8906067898
C            -0.1271111987       11.4568530107        1.8881736144
C            13.4718958835       10.5352156515        2.8097101916
C             5.6509347142        6.6760258358       12.4555711442
C             4.6586540424        6.6726036692       11.4581047394
C             3.7350243344        6.6719007241       10.5340358397
C             5.6398843907       -0.1383808678        7.6879325703
C             4.6606514486       13.4712230704        8.6838819280
C             3.7320419166       13.4724403005        9.6131489346
C             0.8909769959        6.6720294578        7.6911334082
C             1.8875610392        6.6727643033        8.6876265493
C             2.8106260717        6.6720142616        9.6105508040
C             0.8904281058       13.4723527040       12.4536291219
C             1.8870314544       13.4721570803       11.4577141241
C             2.8107943408       13.4718873534       10.5340316520
C            12.4543265357        5.6542456670        6.6730090983
C            11.4577467123        4.6584439156        6.6722624814
C            10.5338037838        3.7346911738        6.6719378149
C             7.6946950115        5.6551665264       -0.1240680825
C             8.6882279586        4.6570869177       13.4726480089
C             9.6097927336        3.7342950352       13.4710411745
C             7.7059050936        0.8889098773        6.6631177890
C             8.6844034667        1.8835796194        6.6718120841
C             9.6125870552        2.8132109775        6.6723966998
C            12.4545732415        0.8916225554       -0.1280597816
C            11.4572321007        1.8879408907       -0.1272696781
C            10.5346573572        2.8103123250       13.4718962117
H             6.5982092005        1.7419069412       10.0874371690



     Writing config-only to output data dir ./pwscf.save/
     NEW-OLD atomic charge density approx. for the potential

     Check: negative core charge=   -0.000003

     negative rho (up, down):  2.780E-04 2.780E-04
     Generating pointlists ...

     total cpu time spent up to now is       99.5 secs

     Self-consistent Calculation

     iteration #  1     ecut=    50.00 Ry     beta= 0.30
     Davidson diagonalization with overlap
     c_bands:  2 eigenvalues not converged
     c_bands:  2 eigenvalues not converged
     ethr =  1.00E-06,  avg # of iterations = 20.0

     negative rho (up, down):  2.731E-04 2.731E-04

     total cpu time spent up to now is      121.6 secs

     total energy              =   -1324.26943906 Ry
     estimated scf accuracy    <       0.98230337 Ry

     total magnetization       =     0.00 Bohr mag/cell
     absolute magnetization    =     0.00 Bohr mag/cell

     iteration #  2     ecut=    50.00 Ry     beta= 0.30
     Davidson diagonalization with overlap
     ethr =  3.40E-04,  avg # of iterations =  2.0

     negative rho (up, down):  2.768E-04 2.768E-04

     total cpu time spent up to now is      128.1 secs

     total energy              =   -1324.33584656 Ry
     estimated scf accuracy    <       0.34742935 Ry

     total magnetization       =     0.00 Bohr mag/cell
     absolute magnetization    =     0.00 Bohr mag/cell

     iteration #  3     ecut=    50.00 Ry     beta= 0.30
     Davidson diagonalization with overlap
     ethr =  1.20E-04,  avg # of iterations =  2.0

     negative rho (up, down):  2.767E-04 2.767E-04

     total cpu time spent up to now is      134.4 secs

     total energy              =   -1324.35750567 Ry
     estimated scf accuracy    <       0.18671333 Ry

     total magnetization       =     0.00 Bohr mag/cell
     absolute magnetization    =     0.00 Bohr mag/cell

     iteration #  4     ecut=    50.00 Ry     beta= 0.30
     Davidson diagonalization with overlap
     ethr =  6.46E-05,  avg # of iterations =  1.0

     negative rho (up, down):  2.730E-04 2.730E-04

     total cpu time spent up to now is      140.2 secs

     total energy              =   -1324.36851660 Ry
     estimated scf accuracy    <       0.04186692 Ry

     total magnetization       =     0.00 Bohr mag/cell
     absolute magnetization    =     0.00 Bohr mag/cell

     iteration #  5     ecut=    50.00 Ry     beta= 0.30
     Davidson diagonalization with overlap
     ethr =  1.45E-05,  avg # of iterations =  2.0

     negative rho (up, down):  2.730E-04 2.730E-04

     total cpu time spent up to now is      146.5 secs

     total energy              =   -1324.37162720 Ry
     estimated scf accuracy    <       0.02285644 Ry

     total magnetization       =     0.00 Bohr mag/cell
     absolute magnetization    =     0.00 Bohr mag/cell

     iteration #  6     ecut=    50.00 Ry     beta= 0.30
     Davidson diagonalization with overlap
     ethr =  7.91E-06,  avg # of iterations =  1.0

     negative rho (up, down):  2.739E-04 2.739E-04

     total cpu time spent up to now is      152.4 secs

     total energy              =   -1324.37450681 Ry
     estimated scf accuracy    <       0.00157735 Ry

     total magnetization       =     0.00 Bohr mag/cell
     absolute magnetization    =     0.00 Bohr mag/cell

     iteration #  7     ecut=    50.00 Ry     beta= 0.30
     Davidson diagonalization with overlap
     ethr =  5.46E-07,  avg # of iterations = 11.0

     negative rho (up, down):  2.741E-04 2.741E-04

     total cpu time spent up to now is      160.5 secs

     total energy              =   -1324.37475109 Ry
     estimated scf accuracy    <       0.00055811 Ry

     total magnetization       =    -0.00 Bohr mag/cell
     absolute magnetization    =     0.00 Bohr mag/cell

     iteration #  8     ecut=    50.00 Ry     beta= 0.30
     Davidson diagonalization with overlap
     ethr =  1.93E-07,  avg # of iterations =  2.0

     negative rho (up, down):  2.757E-04 2.757E-04

     total cpu time spent up to now is      166.6 secs

     total energy              =   -1324.37478988 Ry
     estimated scf accuracy    <       0.00028487 Ry

     total magnetization       =    -0.00 Bohr mag/cell
     absolute magnetization    =     0.00 Bohr mag/cell

     iteration #  9     ecut=    50.00 Ry     beta= 0.30
     Davidson diagonalization with overlap
     ethr =  9.86E-08,  avg # of iterations =  2.0

     negative rho (up, down):  2.758E-04 2.758E-04

     total cpu time spent up to now is      173.0 secs

     total energy              =   -1324.37482542 Ry
     estimated scf accuracy    <       0.00008434 Ry

     total magnetization       =     0.00 Bohr mag/cell
     absolute magnetization    =     0.00 Bohr mag/cell

     iteration # 10     ecut=    50.00 Ry     beta= 0.30
     Davidson diagonalization with overlap
     ethr =  2.92E-08,  avg # of iterations =  1.0

     negative rho (up, down):  2.757E-04 2.757E-04

     total cpu time spent up to now is      178.8 secs

     total energy              =   -1324.37482754 Ry
     estimated scf accuracy    <       0.00001888 Ry

     total magnetization       =     0.00 Bohr mag/cell
     absolute magnetization    =     0.00 Bohr mag/cell

     iteration # 11     ecut=    50.00 Ry     beta= 0.30
     Davidson diagonalization with overlap
     ethr =  6.53E-09,  avg # of iterations =  4.0

     negative rho (up, down):  2.757E-04 2.757E-04

     total cpu time spent up to now is      186.4 secs

     total energy              =   -1324.37483247 Ry
     estimated scf accuracy    <       0.00001102 Ry

     total magnetization       =    -0.00 Bohr mag/cell
     absolute magnetization    =     0.00 Bohr mag/cell

     iteration # 12     ecut=    50.00 Ry     beta= 0.30
     Davidson diagonalization with overlap
     ethr =  3.81E-09,  avg # of iterations =  1.0

     negative rho (up, down):  2.757E-04 2.757E-04

     total cpu time spent up to now is      192.2 secs

     total energy              =   -1324.37483242 Ry
     estimated scf accuracy    <       0.00000249 Ry

     total magnetization       =     0.00 Bohr mag/cell
     absolute magnetization    =     0.00 Bohr mag/cell

     iteration # 13     ecut=    50.00 Ry     beta= 0.30
     Davidson diagonalization with overlap
     ethr =  8.60E-10,  avg # of iterations =  4.0

     negative rho (up, down):  2.757E-04 2.757E-04

     Magnetic moment per site  (integrated on atomic sphere of radius R)
     atom   1 (R=0.033)  charge=  0.8768  magn= -0.0000
     atom   2 (R=0.033)  charge=  0.8350  magn=  0.0000
     atom   3 (R=0.033)  charge=  0.8584  magn= -0.0000
     atom   4 (R=0.033)  charge=  0.8431  magn=  0.0000
     atom   5 (R=0.033)  charge=  0.8386  magn=  0.0000
     atom   6 (R=0.033)  charge=  0.8564  magn=  0.0000
     atom   7 (R=0.033)  charge=  0.8453  magn= -0.0000
     atom   8 (R=0.033)  charge=  0.8418  magn= -0.0000
     atom   9 (R=0.033)  charge=  0.8904  magn=  0.0000
     atom  10 (R=0.033)  charge=  0.8435  magn=  0.0000
     atom  11 (R=0.033)  charge=  0.8380  magn=  0.0000
     atom  12 (R=0.033)  charge=  0.8556  magn= -0.0000
     atom  13 (R=0.033)  charge=  0.8439  magn=  0.0000
     atom  14 (R=0.033)  charge=  0.8371  magn=  0.0000
     atom  15 (R=0.033)  charge=  0.8550  magn=  0.0000
     atom  16 (R=0.033)  charge=  0.8435  magn= -0.0000
     atom  17 (R=0.033)  charge=  0.8379  magn=  0.0000
     atom  18 (R=0.033)  charge=  0.8564  magn= -0.0000
     atom  19 (R=0.033)  charge=  0.8436  magn=  0.0000
     atom  20 (R=0.033)  charge=  0.8391  magn=  0.0000
     atom  21 (R=0.033)  charge=  0.8556  magn=  0.0000
     atom  22 (R=0.033)  charge=  0.8435  magn=  0.0000
     atom  23 (R=0.033)  charge=  0.8381  magn= -0.0000
     atom  24 (R=0.033)  charge=  0.8552  magn=  0.0000
     atom  25 (R=0.033)  charge=  0.8437  magn=  0.0000
     atom  26 (R=0.033)  charge=  0.8375  magn= -0.0000
     atom  27 (R=0.033)  charge=  0.8548  magn=  0.0000
     atom  28 (R=0.033)  charge=  0.8435  magn= -0.0000
     atom  29 (R=0.033)  charge=  0.8384  magn= -0.0000
     atom  30 (R=0.033)  charge=  0.8564  magn=  0.0000
     atom  31 (R=0.033)  charge=  0.8442  magn= -0.0000
     atom  32 (R=0.033)  charge=  0.8385  magn=  0.0000
     atom  33 (R=0.033)  charge=  0.8558  magn= -0.0000
     atom  34 (R=0.033)  charge=  0.8436  magn= -0.0000
     atom  35 (R=0.033)  charge=  0.8383  magn=  0.0000
     atom  36 (R=0.033)  charge=  0.8554  magn= -0.0000
     atom  37 (R=0.033)  charge=  0.8448  magn=  0.0000
     atom  38 (R=0.033)  charge=  0.8367  magn= -0.0000
     atom  39 (R=0.033)  charge=  0.8551  magn=  0.0000
     atom  40 (R=0.033)  charge=  0.8432  magn= -0.0000
     atom  41 (R=0.033)  charge=  0.8386  magn=  0.0000
     atom  42 (R=0.033)  charge=  0.8563  magn= -0.0000
     atom  43 (R=0.033)  charge=  0.8436  magn= -0.0000
     atom  44 (R=0.033)  charge=  0.8364  magn=  0.0000
     atom  45 (R=0.033)  charge=  0.8554  magn= -0.0000
     atom  46 (R=0.033)  charge=  0.8435  magn=  0.0000
     atom  47 (R=0.033)  charge=  0.8380  magn= -0.0000
     atom  48 (R=0.033)  charge=  0.8555  magn=  0.0000
     atom  49 (R=0.033)  charge=  0.8436  magn=  0.0000
     atom  50 (R=0.033)  charge=  0.8388  magn= -0.0000
     atom  51 (R=0.033)  charge=  0.8555  magn=  0.0000
     atom  52 (R=0.033)  charge=  0.8458  magn=  0.0000
     atom  53 (R=0.033)  charge=  0.8380  magn= -0.0000
     atom  54 (R=0.033)  charge=  0.8544  magn=  0.0000
     atom  55 (R=0.033)  charge=  0.8438  magn= -0.0000
     atom  56 (R=0.033)  charge=  0.8371  magn=  0.0000
     atom  57 (R=0.033)  charge=  0.8552  magn= -0.0000
     atom  58 (R=0.033)  charge=  0.8440  magn= -0.0000
     atom  59 (R=0.033)  charge=  0.8373  magn=  0.0000
     atom  60 (R=0.033)  charge=  0.8570  magn= -0.0000
     atom  61 (R=0.033)  charge=  0.8437  magn= -0.0000
     atom  62 (R=0.033)  charge=  0.8385  magn=  0.0000
     atom  63 (R=0.033)  charge=  0.8566  magn= -0.0000
     atom  64 (R=0.033)  charge=  0.8435  magn= -0.0000
     atom  65 (R=0.033)  charge=  0.8383  magn=  0.0000
     atom  66 (R=0.033)  charge=  0.8560  magn= -0.0000
     atom  67 (R=0.033)  charge=  0.8438  magn=  0.0000
     atom  68 (R=0.033)  charge=  0.8377  magn= -0.0000
     atom  69 (R=0.033)  charge=  0.8538  magn=  0.0000
     atom  70 (R=0.033)  charge=  0.8437  magn= -0.0000
     atom  71 (R=0.033)  charge=  0.8378  magn= -0.0000
     atom  72 (R=0.033)  charge=  0.8559  magn=  0.0000
     atom  73 (R=0.033)  charge=  0.3988  magn=  0.0000

     total cpu time spent up to now is      199.2 secs

     End of self-consistent calculation

 ------ SPIN UP ------------


          k = 0.0000 0.0000 0.0000 ( 50657 PWs)   bands (ev):

   -20.4253 -20.3535 -20.3423 -20.3179 -19.0842 -18.7126 -18.6805 -18.6682
   -18.6682 -18.5994 -18.5694 -18.5557 -18.3140 -17.6924 -17.6739 -17.6405
   -17.6330 -17.5704 -17.5226 -17.3792 -17.2830 -17.2678 -17.1472 -17.0944
   -16.7717 -16.5817 -16.5754 -16.2670 -16.2036 -16.1764 -15.7287 -15.6618
   -15.6191 -15.5823 -15.4724 -15.1307 -15.0613 -15.0208 -14.9891 -14.9754
   -14.9657 -14.2260 -14.1453 -13.9537 -13.8205 -13.8076 -13.4368 -13.3446
   -13.3101 -13.0360 -12.9842 -12.9279 -12.9102 -12.8952 -12.2793 -12.1495
   -11.9024 -11.7420 -11.7262 -11.6954 -11.5956 -11.5782 -11.3666 -11.0426
   -10.6852 -10.5956 -10.5850 -10.5688 -10.2202 -10.1811 -10.1759  -9.9629
    -9.9107  -9.8949  -9.8327  -9.8170  -8.8872  -8.6825  -8.5731  -8.5690
    -8.5653  -8.4975  -8.4585  -8.4577  -8.4361  -8.4256  -8.4236  -8.4066
    -8.0567  -7.0911  -7.0878  -7.0772  -7.0046  -6.9695  -6.9396  -6.9295
    -6.8535  -6.6040  -6.4226  -6.4157  -6.3884  -6.3771  -6.3521  -6.3507
    -6.3450  -6.3286  -6.3053  -6.2007  -6.1395  -6.1344  -6.0680  -6.0332
    -5.9107  -5.8582  -5.6865  -5.6100  -5.5484  -5.5120  -5.4898  -5.4827
    -4.7022  -4.3867  -4.3609  -4.3582  -4.3269  -4.1522  -4.0459  -4.0397
    -3.9852  -3.9481  -3.9436  -3.8469  -3.5184  -3.4604  -3.4080  -3.4064
    -3.4025  -3.3915  -3.3631  -2.9747  -2.8780  -2.6475  -2.5810  -2.5578
    -2.0409  -1.6100  -1.5981  -1.5600  -1.2949  -1.2194  -1.1079  -0.9946
    -0.9548  -0.8832  -0.7962  -0.2329   0.1210   0.1407   0.1610   0.1691
     0.2149   0.2488   0.5876   0.7263   0.7403   0.7792   0.8934   0.9269
     1.2033   1.6025   1.7426   1.8889   2.0023

 ------ SPIN DOWN ----------


          k = 0.0000 0.0000 0.0000 ( 50657 PWs)   bands (ev):

   -20.4253 -20.3535 -20.3423 -20.3179 -19.0842 -18.7127 -18.6805 -18.6682
   -18.6682 -18.5994 -18.5694 -18.5557 -18.3140 -17.6924 -17.6739 -17.6405
   -17.6330 -17.5704 -17.5226 -17.3792 -17.2830 -17.2678 -17.1472 -17.0944
   -16.7717 -16.5817 -16.5754 -16.2670 -16.2036 -16.1764 -15.7287 -15.6618
   -15.6191 -15.5823 -15.4724 -15.1307 -15.0613 -15.0208 -14.9891 -14.9754
   -14.9656 -14.2260 -14.1453 -13.9537 -13.8205 -13.8076 -13.4368 -13.3446
   -13.3101 -13.0360 -12.9842 -12.9279 -12.9102 -12.8952 -12.2793 -12.1495
   -11.9024 -11.7420 -11.7262 -11.6954 -11.5956 -11.5782 -11.3666 -11.0426
   -10.6852 -10.5956 -10.5850 -10.5688 -10.2202 -10.1811 -10.1759  -9.9629
    -9.9107  -9.8949  -9.8327  -9.8170  -8.8872  -8.6825  -8.5731  -8.5690
    -8.5653  -8.4975  -8.4585  -8.4577  -8.4361  -8.4256  -8.4236  -8.4066
    -8.0567  -7.0911  -7.0878  -7.0772  -7.0046  -6.9695  -6.9396  -6.9295
    -6.8535  -6.6040  -6.4226  -6.4157  -6.3884  -6.3771  -6.3521  -6.3507
    -6.3450  -6.3286  -6.3053  -6.2007  -6.1395  -6.1344  -6.0680  -6.0332
    -5.9107  -5.8582  -5.6865  -5.6100  -5.5484  -5.5121  -5.4898  -5.4827
    -4.7022  -4.3867  -4.3609  -4.3582  -4.3269  -4.1522  -4.0459  -4.0397
    -3.9852  -3.9481  -3.9436  -3.8469  -3.5184  -3.4604  -3.4080  -3.4064
    -3.4025  -3.3915  -3.3631  -2.9747  -2.8780  -2.6475  -2.5810  -2.5578
    -2.0408  -1.6100  -1.5981  -1.5600  -1.2949  -1.2194  -1.1079  -0.9946
    -0.9548  -0.8832  -0.7962  -0.2329   0.1210   0.1407   0.1610   0.1691
     0.2149   0.2488   0.5876   0.7263   0.7403   0.7792   0.8934   0.9269
     1.2033   1.6025   1.7428   1.8889   2.0023

     the spin up/dw Fermi energies are    -2.0409   -2.0408 ev

!    total energy              =   -1324.37483256 Ry
     estimated scf accuracy    <       0.00000078 Ry
     smearing contrib. (-TS)   =      -0.00005642 Ry
     internal energy E=F+TS    =   -1324.37477614 Ry

     The total energy is F=E-TS. E is the sum of the following terms:
     one-electron contribution =   -1925.19901936 Ry
     hartree contribution      =    1019.87771319 Ry
     xc contribution           =    -327.04382499 Ry
     ewald contribution        =     352.03218620 Ry
     one-center paw contrib.   =    -444.04183117 Ry

     total magnetization       =    -0.00 Bohr mag/cell
     absolute magnetization    =     0.00 Bohr mag/cell

     convergence has been achieved in  13 iterations

     negative rho (up, down):  2.757E-04 2.757E-04

     Forces acting on atoms (cartesian axes, Ry/au):

     atom    1 type  1   force =     0.00016017   -0.16428739   -0.14876100
     atom    2 type  1   force =    -0.00583200    0.39935961    0.33816077
     atom    3 type  1   force =     0.00525095   -0.46636573   -0.39238835
     atom    4 type  1   force =     0.00042360   -0.00622249    0.00762249
     atom    5 type  1   force =    -0.00031846   -0.11271005    0.11227011
     atom    6 type  1   force =     0.00018468    0.15947587   -0.15926921
     atom    7 type  1   force =    -0.00011891   -0.00358493   -0.00231074
     atom    8 type  1   force =     0.00001633   -0.09420965   -0.09921382
     atom    9 type  1   force =    -0.00672494    0.34130662    0.30773228
     atom   10 type  1   force =    -0.00008300    0.00684631   -0.00620203
     atom   11 type  1   force =    -0.00014195    0.11724350   -0.11748335
     atom   12 type  1   force =     0.00009442   -0.16301098    0.16297819
     atom   13 type  1   force =     0.00903644    0.00451934    0.00680590
     atom   14 type  1   force =     0.12051354   -0.00116688    0.11863630
     atom   15 type  1   force =    -0.16520354    0.00015626   -0.16507675
     atom   16 type  1   force =     0.00884946   -0.00978357   -0.01335162
     atom   17 type  1   force =     0.11678586    0.00149006   -0.11471579
     atom   18 type  1   force =    -0.16213208    0.00034094    0.16249971
     atom   19 type  1   force =    -0.00536377    0.00012606   -0.00641267
     atom   20 type  1   force =    -0.11786280    0.00049595   -0.11867611
     atom   21 type  1   force =     0.16437524    0.00005057    0.16457230
     atom   22 type  1   force =    -0.00481467    0.00079115    0.00464618
     atom   23 type  1   force =    -0.11994353   -0.00083938    0.12045691
     atom   24 type  1   force =     0.16564180   -0.00014946   -0.16590558
     atom   25 type  1   force =     0.00466598    0.00523823   -0.00019947
     atom   26 type  1   force =     0.11978556    0.12028058   -0.00084995
     atom   27 type  1   force =    -0.16616282   -0.16642369   -0.00006676
     atom   28 type  1   force =    -0.00941796    0.00819782    0.00488144
     atom   29 type  1   force =    -0.11450131    0.11250384   -0.00111269
     atom   30 type  1   force =     0.15984263   -0.15956743    0.00024104
     atom   31 type  1   force =    -0.00899328   -0.01421889   -0.01077079
     atom   32 type  1   force =    -0.12172530   -0.11940813    0.00119335
     atom   33 type  1   force =     0.16613285    0.16631839    0.00004661
     atom   34 type  1   force =     0.00422879   -0.00537305    0.00033721
     atom   35 type  1   force =     0.11818830   -0.11889821    0.00039072
     atom   36 type  1   force =    -0.16330959    0.16347014    0.00001344
     atom   37 type  1   force =     0.00078749    0.01026203    0.00963769
     atom   38 type  1   force =    -0.00011922   -0.13676896   -0.13668316
     atom   39 type  1   force =     0.00000495    0.18643129    0.18634686
     atom   40 type  1   force =     0.00041127    0.00674898   -0.00616627
     atom   41 type  1   force =    -0.00017347    0.11225597   -0.11234385
     atom   42 type  1   force =     0.00022475   -0.15852266    0.15872575
     atom   43 type  1   force =    -0.00039673   -0.00130018   -0.00173503
     atom   44 type  1   force =    -0.00027013    0.12843124    0.12851797
     atom   45 type  1   force =     0.00011280   -0.18146117   -0.18144175
     atom   46 type  1   force =     0.00080444   -0.00580948    0.00505235
     atom   47 type  1   force =    -0.00035203   -0.11779229    0.11787457
     atom   48 type  1   force =     0.00005291    0.16258847   -0.16264706
     atom   49 type  1   force =    -0.00440334   -0.00216698   -0.00684621
     atom   50 type  1   force =    -0.12280683    0.00258400   -0.12045377
     atom   51 type  1   force =     0.16733197    0.00012887    0.16752735
     atom   52 type  1   force =    -0.00714771   -0.00041193    0.00396355
     atom   53 type  1   force =    -0.13307715   -0.00575421    0.12762761
     atom   54 type  1   force =     0.17596965    0.00007577   -0.17475760
     atom   55 type  1   force =     0.00508650    0.00015069    0.00545406
     atom   56 type  1   force =     0.11891573   -0.00064527    0.11926659
     atom   57 type  1   force =    -0.16613696   -0.00008417   -0.16617006
     atom   58 type  1   force =     0.00638614   -0.00067423   -0.00533677
     atom   59 type  1   force =     0.11673086    0.00055120   -0.11766345
     atom   60 type  1   force =    -0.16809293    0.00045446    0.16828464
     atom   61 type  1   force =    -0.00623347   -0.00617729   -0.00022155
     atom   62 type  1   force =    -0.11686006   -0.11773600    0.00051555
     atom   63 type  1   force =     0.16692986    0.16728104    0.00039977
     atom   64 type  1   force =     0.00506572   -0.00729233   -0.00159924
     atom   65 type  1   force =     0.11819281   -0.11603253    0.00246186
     atom   66 type  1   force =    -0.16342357    0.16370525    0.00034761
     atom   67 type  1   force =     0.00690189    0.00036940    0.00066246
     atom   68 type  1   force =     0.13599141    0.12968172   -0.00585889
     atom   69 type  1   force =    -0.17533633   -0.17517282    0.00006757
     atom   70 type  1   force =    -0.00581876    0.00499228    0.00127956
     atom   71 type  1   force =    -0.11766977    0.11827865   -0.00078687
     atom   72 type  1   force =     0.16488605   -0.16488811   -0.00013298
     atom   73 type  2   force =     0.00600458    0.00172799    0.00611291

     Total force =     1.671243     Total SCF correction =     0.001735
     Energy error            =      3.0E-01 Ry
     Gradient error          =      4.7E-01 Ry/Bohr

     number of scf cycles    =   2
     number of bfgs steps    =   1

     energy             old  =   -1324.6712878961 Ry
     energy             new  =   -1324.3748325554 Ry

     CASE: energy            _new > energy            _old

     new trust radius        =       0.1011135557 bohr
     new conv_thr            =       0.0000010000 Ry


ATOMIC_POSITIONS (angstrom)
C             6.6716004642        0.8908087921        7.6917293108
C             6.6720912806        1.8734888035        8.6579445075
C             6.6732207477        2.8044065578        9.5968674572
C            -0.1271299355        5.6594536614        7.6855601902
C            13.4720026155        4.6511617197        8.6938119589
C            13.4710381994        3.7658516109        9.5782084698
C             6.6729729845        5.6582717497       12.4586151023
C             6.6718787598        4.6545710182       11.4542795457
C             6.6713922048        3.7723808336       10.5636808641
C            -0.1271551925        0.8855797567       12.4596145387
C            -0.1270134704        1.8934632625       11.4515218818
C            13.4719634732        2.7785073519       10.5664680470
C             7.6857308516        6.6712591003        0.8840418673
C             8.6933090983        6.6728438620        1.8932025505
C             9.5786585514        6.6720115265        2.7787000226
C             7.6868011880       -0.1248553676        5.6612286897
C             8.6936748786       13.4723485331        4.6515230774
C             9.5783479670       13.4710235105        3.7657165561
C            12.4602014751        6.6730126456        5.6600649336
C            11.4516868897        6.6720676200        4.6525924255
C            10.5663231337        6.6719960162        3.7673040270
C            12.4592988000       -0.1272950658        0.8850883023
C            11.4518265921       -0.1270937890        1.8932250159
C            10.5663300453       13.4719452505        2.7786390073
C             0.8850693281        7.6850675640        6.6720376193
C             1.8932210607        8.6932650159        6.6729193077
C             2.7787404895        9.5786963608        6.6719890042
C             5.6585261680        7.6846560254       -0.1280185117
C             4.6512313167        8.6936310887       13.4718871168
C             3.7658004256        9.5782717927       13.4710431504
C             5.6590665663       12.4620699534        6.6751455094
C             4.6525730940       11.4518417142        6.6722582981
C             3.7672803070       10.5663069548        6.6719823990
C             0.8849423396       12.4591295151       -0.1272146452
C             1.8932579944       11.4516325444       13.4720792270
C             2.7785537320       10.5664374224       13.4719561137
C             6.6728246007       12.4573154497        5.6574602997
C             6.6720073186       11.4540681739        4.6550808603
C             6.6719923273       10.5643916527        3.7653562288
C            -0.1271741731        7.6855077714        5.6593556684
C            13.4720169563        8.6938381867        4.6511796413
C            13.4710360192        9.5782103324        3.7658499747
C             6.6721178798        7.6864074615        0.8865094932
C             6.6729669042        8.6917052894        1.8917221847
C             6.6720028395        9.5802330101        2.7802616822
C            -0.1272832437       12.4594365900        0.8848533093
C            -0.1270368644       11.4516034177        1.8934054090
C            13.4719654835       10.5664901268        2.7784852888
C             5.6590001356        6.6740031203       12.4605371975
C             4.6528689745        6.6722001274       11.4520183888
C             3.7670951832        6.6719670882       10.5660989974
C             5.6546682682       -0.1307729673        7.6846352379
C             4.6528626698       13.4717424335        8.6919826359
C             3.7647694936       13.4721459677        9.5796252955
C             0.8849760395        6.6720097658        7.6850278930
C             1.8932023291        6.6729218622        8.6932240469
C             2.7787889199        6.6720047280        9.5787639673
C             0.8847940723       13.4721169279       12.4592248997
C             1.8930267619       13.4720520750       11.4518888926
C             2.7788447043       13.4719626556       10.5660976091
C            12.4601245868        5.6600977774        6.6730030162
C            11.4518996962        4.6527993135        6.6720870174
C            10.5660220666        3.7669847344        6.6719793845
C             7.6868771117        5.6597345776       -0.1260280154
C             8.6934234251        4.6516809622       13.4722148269
C             9.5785126530        3.7655164440       13.4710136501
C             7.6899249788        0.8842907516        6.6690553834
C             8.6921555356        1.8918824151        6.6726061840
C             9.5794390221        2.7796458639        6.6721315133
C            12.4595378928        0.8858585359       -0.1273513371
C            11.4517290930        1.8933282568       -0.1270894033
C            10.5663050419        2.7786849071       13.4719655923
H             6.5974008722        1.7727193020       10.0610741479



     Writing config-only to output data dir ./pwscf.save/
     NEW-OLD atomic charge density approx. for the potential

     Check: negative core charge=   -0.000003

     negative rho (up, down):  2.755E-04 2.755E-04
     Generating pointlists ...

     total cpu time spent up to now is      206.0 secs

     Self-consistent Calculation

     iteration #  1     ecut=    50.00 Ry     beta= 0.30
     Davidson diagonalization with overlap
     c_bands:  1 eigenvalues not converged
     c_bands:  1 eigenvalues not converged
     ethr =  1.00E-06,  avg # of iterations = 20.0

     negative rho (up, down):  2.796E-04 2.796E-04

     total cpu time spent up to now is      226.3 secs

     total energy              =   -1324.73324760 Ry
     estimated scf accuracy    <       0.39087441 Ry

     total magnetization       =    -0.00 Bohr mag/cell
     absolute magnetization    =     0.00 Bohr mag/cell

     iteration #  2     ecut=    50.00 Ry     beta= 0.30
     Davidson diagonalization with overlap
     ethr =  1.35E-04,  avg # of iterations =  2.0

     negative rho (up, down):  2.810E-04 2.810E-04

     total cpu time spent up to now is      232.9 secs

     total energy              =   -1324.76021306 Ry
     estimated scf accuracy    <       0.08381020 Ry

     total magnetization       =     0.00 Bohr mag/cell
     absolute magnetization    =     0.00 Bohr mag/cell

     iteration #  3     ecut=    50.00 Ry     beta= 0.30
     Davidson diagonalization with overlap
     ethr =  2.90E-05,  avg # of iterations =  2.0

     negative rho (up, down):  2.836E-04 2.836E-04

     total cpu time spent up to now is      238.9 secs

     total energy              =   -1324.75853539 Ry
     estimated scf accuracy    <       0.02623982 Ry

     total magnetization       =    -0.00 Bohr mag/cell
     absolute magnetization    =     0.00 Bohr mag/cell

     iteration #  4     ecut=    50.00 Ry     beta= 0.30
     Davidson diagonalization with overlap
     ethr =  9.08E-06,  avg # of iterations =  2.0

     negative rho (up, down):  2.844E-04 2.844E-04

     total cpu time spent up to now is      245.6 secs

     total energy              =   -1324.76035898 Ry
     estimated scf accuracy    <       0.00987520 Ry

     total magnetization       =    -0.00 Bohr mag/cell
     absolute magnetization    =     0.00 Bohr mag/cell

     iteration #  5     ecut=    50.00 Ry     beta= 0.30
     Davidson diagonalization with overlap
     ethr =  3.42E-06,  avg # of iterations =  2.0

     negative rho (up, down):  2.850E-04 2.850E-04

     total cpu time spent up to now is      251.8 secs

     total energy              =   -1324.76158715 Ry
     estimated scf accuracy    <       0.00134800 Ry

     total magnetization       =     0.00 Bohr mag/cell
     absolute magnetization    =     0.00 Bohr mag/cell

     iteration #  6     ecut=    50.00 Ry     beta= 0.30
     Davidson diagonalization with overlap
     ethr =  4.66E-07,  avg # of iterations =  9.0

     negative rho (up, down):  2.840E-04 2.840E-04

     total cpu time spent up to now is      259.2 secs

     total energy              =   -1324.76182003 Ry
     estimated scf accuracy    <       0.00030403 Ry

     total magnetization       =    -0.00 Bohr mag/cell
     absolute magnetization    =     0.00 Bohr mag/cell

     iteration #  7     ecut=    50.00 Ry     beta= 0.30
     Davidson diagonalization with overlap
     ethr =  1.05E-07,  avg # of iterations =  2.0

     negative rho (up, down):  2.849E-04 2.849E-04

     total cpu time spent up to now is      265.7 secs

     total energy              =   -1324.76185558 Ry
     estimated scf accuracy    <       0.00007424 Ry

     total magnetization       =    -0.00 Bohr mag/cell
     absolute magnetization    =     0.00 Bohr mag/cell

     iteration #  8     ecut=    50.00 Ry     beta= 0.30
     Davidson diagonalization with overlap
     ethr =  2.57E-08,  avg # of iterations =  4.0

     negative rho (up, down):  2.840E-04 2.840E-04

     total cpu time spent up to now is      273.0 secs

     total energy              =   -1324.76186818 Ry
     estimated scf accuracy    <       0.00001449 Ry

     total magnetization       =    -0.00 Bohr mag/cell
     absolute magnetization    =     0.00 Bohr mag/cell

     iteration #  9     ecut=    50.00 Ry     beta= 0.30
     Davidson diagonalization with overlap
     ethr =  5.02E-09,  avg # of iterations =  4.0

     negative rho (up, down):  2.835E-04 2.835E-04

     total cpu time spent up to now is      279.7 secs

     total energy              =   -1324.76187009 Ry
     estimated scf accuracy    <       0.00000444 Ry

     total magnetization       =     0.00 Bohr mag/cell
     absolute magnetization    =     0.00 Bohr mag/cell

     iteration # 10     ecut=    50.00 Ry     beta= 0.30
     Davidson diagonalization with overlap
     ethr =  1.54E-09,  avg # of iterations =  3.0

     negative rho (up, down):  2.834E-04 2.834E-04

     total cpu time spent up to now is      286.4 secs

     total energy              =   -1324.76187076 Ry
     estimated scf accuracy    <       0.00000144 Ry

     total magnetization       =     0.00 Bohr mag/cell
     absolute magnetization    =     0.00 Bohr mag/cell

     iteration # 11     ecut=    50.00 Ry     beta= 0.30
     Davidson diagonalization with overlap
     ethr =  4.97E-10,  avg # of iterations =  2.0

     negative rho (up, down):  2.830E-04 2.830E-04

     Magnetic moment per site  (integrated on atomic sphere of radius R)
     atom   1 (R=0.033)  charge=  0.8543  magn= -0.0000
     atom   2 (R=0.033)  charge=  0.8415  magn=  0.0000
     atom   3 (R=0.033)  charge=  0.8590  magn= -0.0000
     atom   4 (R=0.033)  charge=  0.8438  magn=  0.0000
     atom   5 (R=0.033)  charge=  0.8552  magn= -0.0000
     atom   6 (R=0.033)  charge=  0.8511  magn=  0.0000
     atom   7 (R=0.033)  charge=  0.8452  magn= -0.0000
     atom   8 (R=0.033)  charge=  0.8538  magn= -0.0000
     atom   9 (R=0.033)  charge=  0.8609  magn=  0.0000
     atom  10 (R=0.033)  charge=  0.8437  magn=  0.0000
     atom  11 (R=0.033)  charge=  0.8553  magn=  0.0000
     atom  12 (R=0.033)  charge=  0.8509  magn= -0.0000
     atom  13 (R=0.033)  charge=  0.8445  magn=  0.0000
     atom  14 (R=0.033)  charge=  0.8538  magn=  0.0000
     atom  15 (R=0.033)  charge=  0.8510  magn= -0.0000
     atom  16 (R=0.033)  charge=  0.8437  magn= -0.0000
     atom  17 (R=0.033)  charge=  0.8548  magn=  0.0000
     atom  18 (R=0.033)  charge=  0.8511  magn= -0.0000
     atom  19 (R=0.033)  charge=  0.8436  magn=  0.0000
     atom  20 (R=0.033)  charge=  0.8557  magn= -0.0000
     atom  21 (R=0.033)  charge=  0.8504  magn=  0.0000
     atom  22 (R=0.033)  charge=  0.8437  magn=  0.0000
     atom  23 (R=0.033)  charge=  0.8554  magn= -0.0000
     atom  24 (R=0.033)  charge=  0.8505  magn=  0.0000
     atom  25 (R=0.033)  charge=  0.8444  magn=  0.0000
     atom  26 (R=0.033)  charge=  0.8542  magn= -0.0000
     atom  27 (R=0.033)  charge=  0.8507  magn=  0.0000
     atom  28 (R=0.033)  charge=  0.8440  magn=  0.0000
     atom  29 (R=0.033)  charge=  0.8550  magn= -0.0000
     atom  30 (R=0.033)  charge=  0.8511  magn=  0.0000
     atom  31 (R=0.033)  charge=  0.8435  magn= -0.0000
     atom  32 (R=0.033)  charge=  0.8551  magn=  0.0000
     atom  33 (R=0.033)  charge=  0.8507  magn= -0.0000
     atom  34 (R=0.033)  charge=  0.8439  magn= -0.0000
     atom  35 (R=0.033)  charge=  0.8554  magn=  0.0000
     atom  36 (R=0.033)  charge=  0.8506  magn= -0.0000
     atom  37 (R=0.033)  charge=  0.8447  magn=  0.0000
     atom  38 (R=0.033)  charge=  0.8542  magn= -0.0000
     atom  39 (R=0.033)  charge=  0.8497  magn=  0.0000
     atom  40 (R=0.033)  charge=  0.8438  magn= -0.0000
     atom  41 (R=0.033)  charge=  0.8553  magn=  0.0000
     atom  42 (R=0.033)  charge=  0.8509  magn= -0.0000
     atom  43 (R=0.033)  charge=  0.8443  magn= -0.0000
     atom  44 (R=0.033)  charge=  0.8536  magn=  0.0000
     atom  45 (R=0.033)  charge=  0.8495  magn= -0.0000
     atom  46 (R=0.033)  charge=  0.8439  magn=  0.0000
     atom  47 (R=0.033)  charge=  0.8552  magn= -0.0000
     atom  48 (R=0.033)  charge=  0.8507  magn=  0.0000
     atom  49 (R=0.033)  charge=  0.8433  magn=  0.0000
     atom  50 (R=0.033)  charge=  0.8555  magn= -0.0000
     atom  51 (R=0.033)  charge=  0.8504  magn=  0.0000
     atom  52 (R=0.033)  charge=  0.8447  magn=  0.0000
     atom  53 (R=0.033)  charge=  0.8550  magn= -0.0000
     atom  54 (R=0.033)  charge=  0.8501  magn=  0.0000
     atom  55 (R=0.033)  charge=  0.8446  magn= -0.0000
     atom  56 (R=0.033)  charge=  0.8539  magn=  0.0000
     atom  57 (R=0.033)  charge=  0.8510  magn= -0.0000
     atom  58 (R=0.033)  charge=  0.8440  magn= -0.0000
     atom  59 (R=0.033)  charge=  0.8547  magn=  0.0000
     atom  60 (R=0.033)  charge=  0.8512  magn= -0.0000
     atom  61 (R=0.033)  charge=  0.8437  magn= -0.0000
     atom  62 (R=0.033)  charge=  0.8553  magn=  0.0000
     atom  63 (R=0.033)  charge=  0.8506  magn= -0.0000
     atom  64 (R=0.033)  charge=  0.8437  magn= -0.0000
     atom  65 (R=0.033)  charge=  0.8551  magn=  0.0000
     atom  66 (R=0.033)  charge=  0.8509  magn= -0.0000
     atom  67 (R=0.033)  charge=  0.8440  magn=  0.0000
     atom  68 (R=0.033)  charge=  0.8540  magn= -0.0000
     atom  69 (R=0.033)  charge=  0.8502  magn=  0.0000
     atom  70 (R=0.033)  charge=  0.8440  magn= -0.0000
     atom  71 (R=0.033)  charge=  0.8552  magn= -0.0000
     atom  72 (R=0.033)  charge=  0.8509  magn=  0.0000
     atom  73 (R=0.033)  charge=  0.4453  magn=  0.0000

     total cpu time spent up to now is      292.7 secs

     End of self-consistent calculation

 ------ SPIN UP ------------


          k = 0.0000 0.0000 0.0000 ( 50657 PWs)   bands (ev):

   -20.4683 -20.3743 -20.3625 -20.3409 -19.6055 -18.6456 -18.6357 -18.6111
   -18.6058 -18.5496 -18.5226 -18.5151 -18.3646 -17.5574 -17.5391 -17.4982
   -17.4920 -17.3759 -17.3545 -17.1547 -17.1055 -17.0651 -16.9201 -16.8649
   -16.8361 -16.6729 -16.6645 -16.4370 -16.3104 -16.2953 -15.9223 -15.8354
   -15.8117 -15.4615 -15.3109 -15.3031 -15.2678 -15.1462 -14.9379 -14.8612
   -14.8448 -14.1396 -13.9870 -13.9780 -13.9374 -13.6957 -13.2582 -13.0896
   -13.0275 -12.9731 -12.9231 -12.9106 -12.7020 -12.6095 -12.1373 -11.9778
   -11.7951 -11.6435 -11.6290 -11.5540 -11.4867 -11.4763 -11.2790 -10.9054
   -10.6628 -10.5923 -10.5796 -10.5622 -10.2285 -10.1522 -10.1436  -9.9384
    -9.8583  -9.8566  -9.7961  -9.7646  -9.3871  -8.5947  -8.5224  -8.5111
    -8.4551  -8.4546  -8.4439  -8.4283  -8.4164  -8.4126  -8.3884  -8.3681
    -8.2389  -7.1577  -7.0418  -7.0349  -6.9687  -6.9222  -6.9114  -6.8890
    -6.8226  -6.5994  -6.3231  -6.3112  -6.2830  -6.2741  -6.2448  -6.2388
    -6.2010  -6.1950  -6.1906  -6.0975  -6.0246  -5.9931  -5.9380  -5.9035
    -5.8106  -5.7825  -5.5828  -5.4826  -5.4328  -5.4231  -5.4058  -5.3996
    -4.9002  -4.5958  -4.5114  -4.5030  -4.4844  -4.3801  -4.2109  -4.1971
    -4.1844  -4.1421  -4.1055  -4.0470  -3.8619  -3.7937  -3.7335  -3.6963
    -3.5841  -3.5658  -3.5601  -3.1806  -3.0734  -2.9346  -2.8967  -2.8678
    -1.7503  -1.3489  -1.3395  -1.2238  -1.0825  -1.0045  -0.8643  -0.7649
    -0.5196  -0.4171  -0.3354   0.1128   0.4370   0.5118   0.5446   0.5856
     0.6594   0.6904   0.9069   1.0510   1.0614   1.1434   1.2599   1.3049
     1.4407   1.6470   1.8534   1.9843   2.0748

 ------ SPIN DOWN ----------


          k = 0.0000 0.0000 0.0000 ( 50657 PWs)   bands (ev):

   -20.4683 -20.3743 -20.3625 -20.3409 -19.6055 -18.6456 -18.6357 -18.6111
   -18.6058 -18.5496 -18.5226 -18.5151 -18.3646 -17.5574 -17.5391 -17.4982
   -17.4920 -17.3759 -17.3545 -17.1547 -17.1055 -17.0651 -16.9201 -16.8649
   -16.8361 -16.6729 -16.6645 -16.4370 -16.3104 -16.2953 -15.9223 -15.8354
   -15.8117 -15.4615 -15.3109 -15.3031 -15.2678 -15.1462 -14.9379 -14.8612
   -14.8448 -14.1396 -13.9870 -13.9780 -13.9374 -13.6957 -13.2582 -13.0896
   -13.0275 -12.9731 -12.9231 -12.9106 -12.7020 -12.6095 -12.1373 -11.9778
   -11.7951 -11.6435 -11.6290 -11.5540 -11.4867 -11.4763 -11.2790 -10.9054
   -10.6628 -10.5923 -10.5796 -10.5622 -10.2285 -10.1522 -10.1436  -9.9384
    -9.8583  -9.8566  -9.7961  -9.7646  -9.3871  -8.5947  -8.5224  -8.5111
    -8.4551  -8.4546  -8.4439  -8.4283  -8.4164  -8.4126  -8.3884  -8.3681
    -8.2389  -7.1577  -7.0418  -7.0349  -6.9687  -6.9222  -6.9114  -6.8890
    -6.8226  -6.5994  -6.3231  -6.3112  -6.2830  -6.2741  -6.2448  -6.2388
    -6.2010  -6.1950  -6.1906  -6.0975  -6.0246  -5.9931  -5.9380  -5.9035
    -5.8106  -5.7825  -5.5828  -5.4826  -5.4328  -5.4231  -5.4058  -5.3996
    -4.9002  -4.5958  -4.5114  -4.5030  -4.4844  -4.3801  -4.2109  -4.1971
    -4.1844  -4.1421  -4.1055  -4.0470  -3.8619  -3.7937  -3.7335  -3.6963
    -3.5841  -3.5658  -3.5601  -3.1806  -3.0734  -2.9346  -2.8967  -2.8678
    -1.7503  -1.3489  -1.3395  -1.2238  -1.0825  -1.0045  -0.8643  -0.7649
    -0.5196  -0.4171  -0.3354   0.1128   0.4370   0.5118   0.5446   0.5856
     0.6594   0.6904   0.9069   1.0510   1.0614   1.1434   1.2599   1.3049
     1.4407   1.6470   1.8534   1.9843   2.0748

     the spin up/dw Fermi energies are    -1.7503   -1.7503 ev

!    total energy              =   -1324.76187095 Ry
     estimated scf accuracy    <       0.00000015 Ry
     smearing contrib. (-TS)   =      -0.00005642 Ry
     internal energy E=F+TS    =   -1324.76181453 Ry

     The total energy is F=E-TS. E is the sum of the following terms:
     one-electron contribution =   -1931.95652402 Ry
     hartree contribution      =    1023.61733517 Ry
     xc contribution           =    -327.51787298 Ry
     ewald contribution        =     355.15227038 Ry
     one-center paw contrib.   =    -444.05702309 Ry

     total magnetization       =     0.00 Bohr mag/cell
     absolute magnetization    =     0.00 Bohr mag/cell

     convergence has been achieved in  11 iterations

     negative rho (up, down):  2.830E-04 2.830E-04

     Forces acting on atoms (cartesian axes, Ry/au):

     atom    1 type  1   force =    -0.00113039   -0.00101165    0.00451569
     atom    2 type  1   force =    -0.00632415    0.09721184    0.02100785
     atom    3 type  1   force =     0.00501177   -0.03862592   -0.03084116
     atom    4 type  1   force =    -0.00037461   -0.01110140    0.01155463
     atom    5 type  1   force =    -0.00010630   -0.03822421    0.03798633
     atom    6 type  1   force =     0.00022397   -0.00623640    0.00658609
     atom    7 type  1   force =    -0.00007654   -0.01698860   -0.01520089
     atom    8 type  1   force =    -0.00042139   -0.02830532   -0.02707531
     atom    9 type  1   force =    -0.00414027    0.04765026    0.00742508
     atom   10 type  1   force =    -0.00056534    0.01141400   -0.01056790
     atom   11 type  1   force =    -0.00011572    0.03883383   -0.03895344
     atom   12 type  1   force =    -0.00011272    0.00590747   -0.00598532
     atom   13 type  1   force =     0.01604533   -0.00067545    0.00963650
     atom   14 type  1   force =     0.03978133   -0.00103480    0.03876760
     atom   15 type  1   force =     0.00557677    0.00010425    0.00580868
     atom   16 type  1   force =     0.01616623    0.00428852   -0.00672555
     atom   17 type  1   force =     0.03938161    0.00187153   -0.03801793
     atom   18 type  1   force =     0.00585421    0.00019011   -0.00548951
     atom   19 type  1   force =    -0.01171661    0.00000534   -0.01245229
     atom   20 type  1   force =    -0.03892931    0.00040951   -0.03954861
     atom   21 type  1   force =    -0.00600217   -0.00000098   -0.00602497
     atom   22 type  1   force =    -0.01124113   -0.00074372    0.01248447
     atom   23 type  1   force =    -0.03904342   -0.00063815    0.03939637
     atom   24 type  1   force =    -0.00536928   -0.00025476    0.00519359
     atom   25 type  1   force =     0.01257096    0.01260848    0.00017561
     atom   26 type  1   force =     0.03922769    0.03953748   -0.00057815
     atom   27 type  1   force =     0.00571604    0.00546280   -0.00006227
     atom   28 type  1   force =    -0.01512336    0.00857096   -0.00157362
     atom   29 type  1   force =    -0.03881501    0.03763272   -0.00085123
     atom   30 type  1   force =    -0.00601270    0.00645163    0.00026133
     atom   31 type  1   force =    -0.01680739   -0.00774611    0.00399960
     atom   32 type  1   force =    -0.04061859   -0.03887102    0.00147985
     atom   33 type  1   force =    -0.00559665   -0.00547563   -0.00008078
     atom   34 type  1   force =     0.01187698   -0.01187459   -0.00077018
     atom   35 type  1   force =     0.03866692   -0.03930960    0.00041773
     atom   36 type  1   force =     0.00570437   -0.00566756   -0.00017428
     atom   37 type  1   force =    -0.00034807   -0.01725022   -0.01699439
     atom   38 type  1   force =    -0.00001317   -0.04026674   -0.04019201
     atom   39 type  1   force =    -0.00003023   -0.00397685   -0.00414670
     atom   40 type  1   force =    -0.00053630    0.01111716   -0.01145344
     atom   41 type  1   force =    -0.00000578    0.03810282   -0.03807598
     atom   42 type  1   force =     0.00022300    0.00677195   -0.00641989
[...]
     atom  35 (R=0.032)  charge=  0.8142  magn= -0.0000
     atom  36 (R=0.032)  charge=  0.8195  magn=  0.0000
     atom  37 (R=0.032)  charge=  0.7888  magn= -0.0000
     atom  38 (R=0.032)  charge=  0.8124  magn=  0.0000
     atom  39 (R=0.032)  charge=  0.8175  magn= -0.0000
     atom  40 (R=0.032)  charge=  0.7916  magn= -0.0000
     atom  41 (R=0.032)  charge=  0.8152  magn= -0.0000
     atom  42 (R=0.032)  charge=  0.8204  magn=  0.0000
     atom  43 (R=0.032)  charge=  0.7892  magn=  0.0000
     atom  44 (R=0.032)  charge=  0.8121  magn= -0.0000
     atom  45 (R=0.032)  charge=  0.8177  magn=  0.0000
     atom  46 (R=0.032)  charge=  0.7913  magn=  0.0000
     atom  47 (R=0.032)  charge=  0.8155  magn= -0.0000
     atom  48 (R=0.032)  charge=  0.8204  magn=  0.0000
     atom  49 (R=0.032)  charge=  0.7910  magn=  0.0000
     atom  50 (R=0.032)  charge=  0.8151  magn= -0.0000
     atom  51 (R=0.032)  charge=  0.8214  magn=  0.0000
     atom  52 (R=0.032)  charge=  0.7891  magn= -0.0000
     atom  53 (R=0.032)  charge=  0.8151  magn=  0.0000
     atom  54 (R=0.032)  charge=  0.8200  magn= -0.0000
     atom  55 (R=0.032)  charge=  0.7925  magn= -0.0000
     atom  56 (R=0.032)  charge=  0.8148  magn=  0.0000
     atom  57 (R=0.032)  charge=  0.8212  magn= -0.0000
     atom  58 (R=0.032)  charge=  0.7933  magn=  0.0000
     atom  59 (R=0.032)  charge=  0.8150  magn= -0.0000
     atom  60 (R=0.032)  charge=  0.8221  magn=  0.0000
     atom  61 (R=0.032)  charge=  0.7919  magn= -0.0000
     atom  62 (R=0.032)  charge=  0.8155  magn= -0.0000
     atom  63 (R=0.032)  charge=  0.8211  magn=  0.0000
     atom  64 (R=0.032)  charge=  0.7906  magn=  0.0000
     atom  65 (R=0.032)  charge=  0.8143  magn= -0.0000
     atom  66 (R=0.032)  charge=  0.8215  magn=  0.0000
     atom  67 (R=0.032)  charge=  0.7892  magn= -0.0000
     atom  68 (R=0.032)  charge=  0.8154  magn=  0.0000
     atom  69 (R=0.032)  charge=  0.8204  magn= -0.0000
     atom  70 (R=0.032)  charge=  0.7913  magn= -0.0000
     atom  71 (R=0.032)  charge=  0.8147  magn=  0.0000
     atom  72 (R=0.032)  charge=  0.8198  magn= -0.0000
     atom  73 (R=0.032)  charge=  0.4534  magn= -0.0000

     total cpu time spent up to now is     4065.3 secs

     End of self-consistent calculation

 ------ SPIN UP ------------


          k = 0.0000 0.0000 0.0000 ( 50657 PWs)   bands (ev):

   -20.1655 -20.1530 -20.1100 -20.0265 -18.5882 -18.5822 -18.5467 -18.5317
   -18.5233 -18.4115 -18.4037 -18.3730 -17.7777 -17.6903 -17.6608 -17.6249
   -17.6222 -17.5508 -17.4607 -17.2189 -17.1868 -17.1766 -16.9468 -16.9359
   -16.6972 -16.6884 -16.6774 -16.3197 -16.3078 -16.2938 -15.8869 -15.8785
   -15.8728 -15.3599 -15.3490 -15.3353 -15.1708 -15.1225 -14.8830 -14.8096
   -14.8089 -14.0040 -13.9655 -13.9315 -13.8076 -13.7290 -13.1645 -13.1307
   -13.0804 -12.8655 -12.8649 -12.8353 -12.7364 -12.6335 -12.1041 -12.0405
   -11.6857 -11.6799 -11.6292 -11.5638 -11.5426 -11.4409 -11.2145 -10.9061
   -10.4527 -10.4410 -10.4034 -10.3519 -10.0900 -10.0769 -10.0626  -9.8377
    -9.8130  -9.8059  -9.7342  -9.6613  -9.3225  -8.5567  -8.4897  -8.4657
    -8.4236  -8.3914  -8.3791  -8.3431  -8.3305  -8.3143  -8.2760  -8.2755
    -8.1484  -7.0712  -7.0671  -7.0072  -6.9416  -6.9336  -6.9128  -6.8928
    -6.7696  -6.4565  -6.4506  -6.4255  -6.4018  -6.3866  -6.3849  -6.3813
    -6.3616  -6.3382  -6.3056  -6.1693  -6.1564  -6.0699  -6.0289  -6.0136
    -5.8437  -5.8104  -5.5692  -5.5054  -5.4908  -5.4544  -5.4523  -5.4294
    -4.6513  -4.5483  -4.5326  -4.5009  -4.4894  -4.3712  -4.2560  -4.2503
    -4.2358  -4.1905  -4.1757  -4.0984  -4.0226  -3.7574  -3.7426  -3.6990
    -3.6232  -3.5803  -3.5772  -3.2622  -3.0850  -2.9933  -2.9026  -2.8941
    -2.1618  -1.3774  -1.3615  -1.2367  -1.0230  -1.0106  -0.8985  -0.7874
    -0.5192  -0.3686  -0.3615   0.2490   0.4529   0.5119   0.5773   0.5950
     0.6581   0.7084   0.8988   1.0588   1.0634   1.1866   1.2357   1.2957
     1.5316   1.6706   1.8386   1.8811   2.0934

 ------ SPIN DOWN ----------


          k = 0.0000 0.0000 0.0000 ( 50657 PWs)   bands (ev):

   -20.1654 -20.1530 -20.1100 -20.0265 -18.5882 -18.5822 -18.5467 -18.5317
   -18.5233 -18.4115 -18.4037 -18.3730 -17.7777 -17.6903 -17.6608 -17.6249
   -17.6222 -17.5508 -17.4607 -17.2189 -17.1868 -17.1766 -16.9468 -16.9359
   -16.6972 -16.6884 -16.6774 -16.3197 -16.3078 -16.2938 -15.8869 -15.8785
   -15.8729 -15.3599 -15.3490 -15.3353 -15.1708 -15.1225 -14.8830 -14.8096
   -14.8089 -14.0040 -13.9655 -13.9315 -13.8076 -13.7290 -13.1645 -13.1307
   -13.0804 -12.8655 -12.8649 -12.8353 -12.7364 -12.6335 -12.1041 -12.0405
   -11.6857 -11.6799 -11.6292 -11.5638 -11.5426 -11.4409 -11.2145 -10.9061
   -10.4527 -10.4410 -10.4034 -10.3519 -10.0900 -10.0769 -10.0626  -9.8377
    -9.8130  -9.8059  -9.7342  -9.6613  -9.3225  -8.5567  -8.4897  -8.4657
    -8.4236  -8.3914  -8.3791  -8.3431  -8.3305  -8.3143  -8.2760  -8.2755
    -8.1484  -7.0712  -7.0671  -7.0072  -6.9416  -6.9336  -6.9128  -6.8928
    -6.7696  -6.4565  -6.4506  -6.4255  -6.4019  -6.3866  -6.3849  -6.3812
    -6.3616  -6.3382  -6.3055  -6.1693  -6.1564  -6.0699  -6.0289  -6.0136
    -5.8437  -5.8104  -5.5692  -5.5054  -5.4908  -5.4544  -5.4523  -5.4294
    -4.6513  -4.5482  -4.5326  -4.5009  -4.4894  -4.3712  -4.2560  -4.2503
    -4.2358  -4.1905  -4.1757  -4.0984  -4.0226  -3.7574  -3.7426  -3.6990
    -3.6232  -3.5803  -3.5772  -3.2622  -3.0850  -2.9934  -2.9027  -2.8941
    -2.1619  -1.3774  -1.3615  -1.2368  -1.0230  -1.0106  -0.8985  -0.7874
    -0.5192  -0.3686  -0.3615   0.2490   0.4529   0.5119   0.5773   0.5950
     0.6581   0.7084   0.8988   1.0588   1.0634   1.1866   1.2357   1.2957
     1.5316   1.6706   1.8386   1.8811   2.0934

     the spin up/dw Fermi energies are    -2.1618   -2.1619 ev

!    total energy              =   -1324.90418392 Ry
     estimated scf accuracy    <          4.9E-09 Ry
     smearing contrib. (-TS)   =      -0.00005642 Ry
     internal energy E=F+TS    =   -1324.90412750 Ry

     The total energy is F=E-TS. E is the sum of the following terms:
     one-electron contribution =   -1914.47246835 Ry
     hartree contribution      =    1015.14487591 Ry
     xc contribution           =    -327.54809420 Ry
     ewald contribution        =     346.05665009 Ry
     one-center paw contrib.   =    -444.08509095 Ry

     total magnetization       =     0.00 Bohr mag/cell
     absolute magnetization    =     0.00 Bohr mag/cell

     convergence has been achieved in  15 iterations

     negative rho (up, down):  2.846E-04 2.846E-04

     Forces acting on atoms (cartesian axes, Ry/au):

     atom    1 type  1   force =    -0.00011413    0.00004791   -0.00002307
     atom    2 type  1   force =    -0.00014513    0.00000053    0.00020294
     atom    3 type  1   force =     0.00082391   -0.00028428    0.00010318
     atom    4 type  1   force =     0.00007237    0.00008418   -0.00043506
     atom    5 type  1   force =     0.00031511   -0.00087454    0.00001472
     atom    6 type  1   force =    -0.00004324    0.00041257   -0.00080442
     atom    7 type  1   force =     0.00018680    0.00001495    0.00004374
     atom    8 type  1   force =     0.00023885   -0.00040459    0.00008699
     atom    9 type  1   force =    -0.00049924   -0.00045480    0.00004973
     atom   10 type  1   force =     0.00005061    0.00026019    0.00016660
     atom   11 type  1   force =     0.00037999   -0.00024793    0.00075443
     atom   12 type  1   force =    -0.00012650    0.00082946   -0.00041266
     atom   13 type  1   force =     0.00014601   -0.00021141    0.00015450
     atom   14 type  1   force =    -0.00088974    0.00000121    0.00006761
     atom   15 type  1   force =     0.00045710    0.00001446    0.00051718
     atom   16 type  1   force =     0.00025730   -0.00022358    0.00000546
     atom   17 type  1   force =     0.00000315   -0.00052328   -0.00020691
     atom   18 type  1   force =    -0.00007434    0.00014299    0.00011109
     atom   19 type  1   force =    -0.00015023    0.00044206    0.00026002
     atom   20 type  1   force =    -0.00039375    0.00036047   -0.00021649
     atom   21 type  1   force =     0.00027481    0.00053026    0.00037615
     atom   22 type  1   force =    -0.00053727   -0.00025927    0.00034647
     atom   23 type  1   force =     0.00049706   -0.00052508   -0.00026942
     atom   24 type  1   force =    -0.00046824    0.00006780    0.00022455
     atom   25 type  1   force =     0.00002731    0.00020745    0.00010634
     atom   26 type  1   force =     0.00034327   -0.00023026    0.00050626
     atom   27 type  1   force =    -0.00019581   -0.00068053    0.00034213
     atom   28 type  1   force =    -0.00004685   -0.00012776    0.00006679
     atom   29 type  1   force =    -0.00049698    0.00004659    0.00068547
     atom   30 type  1   force =    -0.00022520   -0.00017076   -0.00009885
     atom   31 type  1   force =     0.00006076   -0.00028340    0.00001171
     atom   32 type  1   force =     0.00001791   -0.00049419   -0.00012114
     atom   33 type  1   force =     0.00023853    0.00023975   -0.00018238
     atom   34 type  1   force =    -0.00049469   -0.00007996   -0.00000391
     atom   35 type  1   force =    -0.00043371    0.00008064   -0.00043078
     atom   36 type  1   force =    -0.00007784    0.00014556   -0.00036196
     atom   37 type  1   force =     0.00007201    0.00000351    0.00020981
     atom   38 type  1   force =    -0.00012300    0.00048075    0.00096584
     atom   39 type  1   force =    -0.00025570   -0.00014292   -0.00079419
     atom   40 type  1   force =    -0.00013003    0.00022065    0.00027991
     atom   41 type  1   force =     0.00007925   -0.00016133    0.00044425
     atom   42 type  1   force =     0.00008100    0.00061693   -0.00068462
     atom   43 type  1   force =    -0.00004158   -0.00023477   -0.00007719
     atom   44 type  1   force =    -0.00017637   -0.00012062    0.00047048
     atom   45 type  1   force =    -0.00003657    0.00007928   -0.00043578
     atom   46 type  1   force =    -0.00027320    0.00012988   -0.00036445
     atom   47 type  1   force =    -0.00005169   -0.00035453    0.00016610
     atom   48 type  1   force =    -0.00009680    0.00003794   -0.00010992
     atom   49 type  1   force =     0.00020652    0.00009340   -0.00011136
     atom   50 type  1   force =    -0.00004305    0.00077188   -0.00035485
     atom   51 type  1   force =     0.00029271    0.00013022    0.00005584
     atom   52 type  1   force =     0.00022533    0.00010919    0.00029967
     atom   53 type  1   force =    -0.00010550    0.00000473    0.00044463
     atom   54 type  1   force =     0.00084551    0.00031236   -0.00023270
     atom   55 type  1   force =     0.00013357   -0.00011765    0.00016949
     atom   56 type  1   force =    -0.00039024    0.00002955   -0.00051441
     atom   57 type  1   force =     0.00059511   -0.00008272    0.00060958
     atom   58 type  1   force =     0.00002716    0.00009830   -0.00010504
     atom   59 type  1   force =     0.00027945   -0.00032335    0.00023511
     atom   60 type  1   force =     0.00018130   -0.00001044   -0.00007154
     atom   61 type  1   force =    -0.00019073    0.00013883    0.00009743
     atom   62 type  1   force =    -0.00053002   -0.00036962    0.00002108
     atom   63 type  1   force =     0.00008112    0.00002062   -0.00024952
     atom   64 type  1   force =     0.00016858    0.00001114   -0.00012222
     atom   65 type  1   force =     0.00018424    0.00043018   -0.00037341
     atom   66 type  1   force =     0.00006658   -0.00036025   -0.00063164
     atom   67 type  1   force =    -0.00012413    0.00021564    0.00023663
     atom   68 type  1   force =     0.00012761   -0.00018092   -0.00041340
     atom   69 type  1   force =    -0.00004194   -0.00032445   -0.00010469
     atom   70 type  1   force =     0.00000791    0.00000965    0.00003942
     atom   71 type  1   force =    -0.00026396    0.00060250   -0.00001844
     atom   72 type  1   force =     0.00041365   -0.00004645   -0.00027473
     atom   73 type  2   force =    -0.00017206    0.00042949   -0.00033821

     Total force =     0.004838     Total SCF correction =     0.000082
     Energy error            =      3.9E-05 Ry
     Gradient error          =      9.7E-04 Ry/Bohr

     bfgs converged in  59 scf cycles and  57 bfgs steps
     (criteria: energy <  1.0E-04 Ry, force <  1.0E-03 Ry/Bohr)

     End of BFGS Geometry Optimization

     Final energy             =   -1324.9041839238 Ry

     File ./pwscf.bfgs deleted, as requested
Begin final coordinates

ATOMIC_POSITIONS (angstrom)
C             6.6620561314        0.9235517393        7.7423961803
C             6.7088224846        1.8382166882        8.7603084862
C             6.9920481893        2.4303323927        9.9212596044
C            -0.1468078522        5.6575919470        7.6904317199
C            13.4482047877        4.6483338005        8.7097858044
C            13.4467711327        3.7695872491        9.5855806420
C             6.6479636141        5.6323828255       12.4266436068
C             6.6648940060        4.5878076985       11.4333694343
C             6.7256874652        3.6654874825       10.6125960628
C            -0.1515864160        0.9063954496       12.4399208760
C            -0.1547298195        1.9184779440       11.4235945388
C            13.4459111796        2.7981314127       10.5493639408
C             7.6845015585        6.6842838792        0.8728947127
C             8.7037718900        6.6810186744        1.8818508347
C             9.5820471138        6.6707185932        2.7576258797
C             7.6764432597       -0.0946410375        5.6389376802
C             8.6941993067       13.5020677815        4.6264010379
C             9.5733927312       13.4940237761        3.7524194283
C            12.4370821145        6.6641745815        5.6199465874
C            11.4260531172        6.6571719492        4.6029627586
C            10.5499373138        6.6609329028        3.7245527043
C            12.4335811061       -0.1171257079        0.8981130100
C            11.4216986390       -0.1145013955        1.9129580469
C            10.5436553464       13.4888918689        2.7883260982
C             0.8802579046        7.7036102768        6.6522144794
C             1.8865472351        8.7242126648        6.6476890864
C             2.7548690643        9.6094291516        6.6419858024
C             5.6265978320        7.6960028700       -0.1473434028
C             4.6137868256        8.7115101403       13.4476507687
C             3.7409150996        9.5931944649       13.4546197364
C             5.6020689898       12.4795550821        6.6520334929
C             4.5867167944       11.4648275378        6.6409823135
C             3.7153889675       10.5830668185        6.6399941604
C             0.8817207964       12.4526741373       -0.1347158644
C             1.8978945788       11.4399993868       13.4632863443
C             2.7750405780       10.5625459840       13.4605032428
C             6.6416638619       12.4700863215        5.6213924088
C             6.6472080751       11.4627627123        4.6131311502
C             6.6527046466       10.5774569124        3.7357822944
C            -0.1414280308        7.6935636735        5.6216263959
C            13.4569197011        8.7062544093        4.6090705893
C            13.4569115293        9.5879220751        3.7381010524
C             6.6568457107        7.7120120217        0.8782939190
C             6.6573624498        8.7310650859        1.8898674050
C             6.6559237838        9.6097458975        2.7709421945
C            -0.1409337637       12.4554859297        0.8945729247
C            -0.1410682914       11.4413508694        1.9056437801
C            13.4579682482       10.5600261246        2.7774088914
C             5.6243459469        6.6614245652       12.4308446136
C             4.6069165747        6.6613106118       11.4223121548
C             3.7302580601        6.6665324366       10.5456429293
C             5.5930281823       -0.1221330160        7.6857960537
C             4.5814082197       13.4658786404        8.6841641233
C             3.7037851472       13.4717772589        9.5643214405
C             0.8790266302        6.6832938092        7.6850624034
C             1.8909249023        6.6839335551        8.6988309946
C             2.7652813026        6.6750100966        9.5774533413
C             0.8728145864       13.4777166566       12.4371706128
C             1.8748098532       13.4758962798       11.4170582236
C             2.7448916518       13.4731919769       10.5324553786
C            12.4344157234        5.6487593623        6.6567069037
C            11.4224703914        4.6385374534        6.6607112660
C            10.5417092626        3.7646806247        6.6625326430
C             7.6757559297        5.6489028241       -0.1451475071
C             8.6883148214        4.6346656168       13.4690279684
C             9.5668867974        3.7597132260       13.4777844483
C             7.6909334451        0.9206250238        6.6561411340
C             8.7007853877        1.9209525943        6.6549395874
C             9.5756056632        2.8034479909        6.6615692157
C            12.4287881628        0.9080137370       -0.1291010745
C            11.4130990878        1.9185202413       -0.1255440185
C            10.5344951419        2.7937017299       13.4788856726
H             7.6347681413        1.7889736610       10.5564086502
End final coordinates



     Writing all to output data dir ./pwscf.save/

     init_run     :      5.44s CPU      5.67s WALL (       1 calls)
     electrons    :   3524.40s CPU   3697.66s WALL (      60 calls)
     update_pot   :     76.41s CPU     79.48s WALL (      58 calls)
     forces       :    176.80s CPU    186.10s WALL (      60 calls)

     Called by init_run:
     wfcinit      :      2.55s CPU      2.65s WALL (       1 calls)
     potinit      :      2.56s CPU      2.68s WALL (       2 calls)
     hinit0       :      0.99s CPU      1.01s WALL (       1 calls)

     Called by electrons:
     c_bands      :   2327.77s CPU   2394.05s WALL (     536 calls)
     sum_band     :    502.53s CPU    531.98s WALL (     536 calls)
     v_of_rho     :    327.10s CPU    346.36s WALL (     573 calls)
     newd         :    128.05s CPU    152.44s WALL (     573 calls)
     PAW_pot      :    255.82s CPU    257.20s WALL (     631 calls)
     mix_rho      :     41.58s CPU     44.72s WALL (     536 calls)

     Called by c_bands:
     init_us_2    :     31.83s CPU     32.30s WALL (    2382 calls)
     init_us_2:cp :     31.81s CPU     32.30s WALL (    2382 calls)
     regterg      :   2280.55s CPU   2346.04s WALL (    1072 calls)

     Called by *egterg:
     rdiaghg      :     66.13s CPU     67.34s WALL (    3914 calls)
     h_psi        :   1372.60s CPU   1421.83s WALL (    4080 calls)
     s_psi        :    228.75s CPU    230.19s WALL (    4080 calls)
     g_psi        :      4.18s CPU      4.25s WALL (    3006 calls)

     Called by h_psi:
     h_psi:calbec :    226.72s CPU    229.20s WALL (    4080 calls)
     vloc_psi     :    905.79s CPU    951.13s WALL (    4080 calls)
     add_vuspsi   :    228.29s CPU    229.59s WALL (    4080 calls)

     General routines
     calbec       :    369.23s CPU    373.19s WALL (    5748 calls)
     fft          :    175.99s CPU    195.11s WALL (   12615 calls)
     ffts         :      6.75s CPU      7.76s WALL (    2218 calls)
     fftw         :    741.01s CPU    783.00s WALL (  536142 calls)
     interpolate  :     22.84s CPU     25.14s WALL (    1146 calls)

     Parallel routines

     PWSCF        :      1h 4m CPU      1h 7m WALL


   This run was terminated on:  19:45: 4  24May2025            

=------------------------------------------------------------------------------=
   JOB DONE.
=------------------------------------------------------------------------------=
