LAMMPS (3 Mar 2020)
Reading data file ...
  orthogonal box = (0 0 0) to (7.097 7.097 24.588)
  1 by 2 by 4 MPI processor grid
  reading atoms ...
  33 atoms
  read_data CPU = 0.0359251 secs
WARNING: Using 'neigh_modify every 1 delay 0 check yes' setting during minimization (../min.cpp:190)
WARNING: Total cutoff < 2*bond cutoff. May need to use an increased neighbor list skin. (../pair_reaxc.cpp:413)
Neighbor list info ...
  update every 1 steps, delay 0 steps, check yes
  max neighbors/atom: 2000, page size: 100000
  master list distance cutoff = 9.5
  ghost atom cutoff = 9.5
  binsize = 4.75, bins = 2 2 6
  2 neighbor lists, perpetual/occasional/extra = 2 0 0
  (1) pair reax/c, perpetual
      attributes: half, newton off, ghost
      pair build: half/bin/newtoff/ghost
      stencil: half/ghost/bin/3d/newtoff
      bin: standard
  (2) fix qeq/reax, perpetual, copy from (1)
      attributes: half, newton off, ghost
      pair build: copy
      stencil: none
      bin: none
Setting up cg style minimization ...
  Unit style    : real
  Current step  : 0
Per MPI rank memory allocation (min/avg/max) = 14.19 | 14.72 | 15.25 Mbytes
Step Temp E_pair E_mol TotEng Press 
       0            0   -5889.7162            0   -5889.7162    12800.559 
     126            0   -5951.0962            0   -5951.0962   -13501.808 
Loop time of 1.16633 on 8 procs for 126 steps with 33 atoms

99.4% CPU use with 8 MPI tasks x no OpenMP threads

Minimization stats:
  Stopping criterion = linesearch alpha is zero
  Energy initial, next-to-last, final = 
        -5889.71623704     -5951.09623545     -5951.09623545
  Force two-norm initial, final = 951.791 21.0333
  Force max component initial, final = 594.383 8.93415
  Final line search alpha, max atom move = 2.08486e-11 1.86265e-10
  Iterations, force evaluations = 126 776

MPI task timing breakdown:
Section |  min time  |  avg time  |  max time  |%varavg| %total
---------------------------------------------------------------
Pair    | 0.80269    | 0.82458    | 0.8481     |   2.0 | 70.70
Neigh   | 0          | 0          | 0          |   0.0 |  0.00
Comm    | 0.012494   | 0.036301   | 0.058231   |   9.4 |  3.11
Output  | 0.00016611 | 0.00020561 | 0.00029456 |   0.0 |  0.02
Modify  | 0.30116    | 0.30125    | 0.30132    |   0.0 | 25.83
Other   |            | 0.003995   |            |       |  0.34

Nlocal:    4.125 ave 9 max 0 min
Histogram: 4 0 0 0 0 0 0 0 3 1
Nghost:    391.375 ave 397 max 385 min
Histogram: 2 0 0 2 0 0 0 2 0 2
Neighs:    400.75 ave 896 max 0 min
Histogram: 4 0 0 0 0 0 0 0 3 1

Total # of neighbors = 3206
Ave neighs/atom = 97.1515
Neighbor list builds = 0
Dangerous builds = 0
WARNING: Using 'neigh_modify every 1 delay 0 check yes' setting during minimization (../min.cpp:190)
WARNING: Total cutoff < 2*bond cutoff. May need to use an increased neighbor list skin. (../pair_reaxc.cpp:413)
Setting up cg style minimization ...
  Unit style    : real
  Current step  : 126
Per MPI rank memory allocation (min/avg/max) = 14.19 | 14.72 | 15.25 Mbytes
Step Temp E_pair E_mol TotEng Press 
     126            0   -5951.0962            0   -5951.0962   -13501.808 
     127            0   -5951.0962            0   -5951.0962   -13501.808 
Loop time of 0.0734371 on 8 procs for 1 steps with 33 atoms

99.4% CPU use with 8 MPI tasks x no OpenMP threads

Minimization stats:
  Stopping criterion = linesearch alpha is zero
  Energy initial, next-to-last, final = 
        -5951.09623545     -5951.09623545     -5951.09623545
  Force two-norm initial, final = 21.0333 21.0333
  Force max component initial, final = 8.93415 8.93415
  Final line search alpha, max atom move = 2.08486e-11 1.86265e-10
  Iterations, force evaluations = 1 53

MPI task timing breakdown:
Section |  min time  |  avg time  |  max time  |%varavg| %total
---------------------------------------------------------------
Pair    | 0.054612   | 0.056138   | 0.057696   |   0.5 | 76.44
Neigh   | 0          | 0          | 0          |   0.0 |  0.00
Comm    | 0.00073138 | 0.0023064  | 0.0038376  |   2.4 |  3.14
Output  | 0          | 0          | 0          |   0.0 |  0.00
Modify  | 0.014737   | 0.014745   | 0.014751   |   0.0 | 20.08
Other   |            | 0.0002476  |            |       |  0.34

Nlocal:    4.125 ave 9 max 0 min
Histogram: 4 0 0 0 0 0 0 0 3 1
Nghost:    394.875 ave 401 max 388 min
Histogram: 2 0 0 2 0 0 2 0 0 2
Neighs:    399.25 ave 894 max 0 min
Histogram: 4 0 0 0 0 0 0 0 3 1

Total # of neighbors = 3194
Ave neighs/atom = 96.7879
Neighbor list builds = 0
Dangerous builds = 0
WARNING: Using 'neigh_modify every 1 delay 0 check yes' setting during minimization (../min.cpp:190)
WARNING: Total cutoff < 2*bond cutoff. May need to use an increased neighbor list skin. (../pair_reaxc.cpp:413)
Setting up cg style minimization ...
  Unit style    : real
  Current step  : 127
WARNING: Energy due to 3 extra global DOFs will be included in minimizer energies
Per MPI rank memory allocation (min/avg/max) = 14.19 | 14.72 | 15.25 Mbytes
Step Temp E_pair E_mol TotEng Press Volume 
     127            0   -5951.0962            0   -5951.0962   -13501.808    1238.4339 
     132            0   -5951.0987            0   -5951.0987   -13445.299    1238.4229 
Loop time of 0.059756 on 8 procs for 5 steps with 33 atoms

99.4% CPU use with 8 MPI tasks x no OpenMP threads

Minimization stats:
  Stopping criterion = energy tolerance
  Energy initial, next-to-last, final = 
        -5951.09623545     -5951.09868642      -5951.0987396
  Force two-norm initial, final = 454.969 452.999
  Force max component initial, final = 378.612 376.854
  Final line search alpha, max atom move = 2.5911e-10 9.76466e-08
  Iterations, force evaluations = 5 44

MPI task timing breakdown:
Section |  min time  |  avg time  |  max time  |%varavg| %total
---------------------------------------------------------------
Pair    | 0.045609   | 0.046869   | 0.04819    |   0.4 | 78.43
Neigh   | 0          | 0          | 0          |   0.0 |  0.00
Comm    | 0.00055712 | 0.0018896  | 0.0031301  |   2.2 |  3.16
Output  | 1.3185e-05 | 3.6307e-05 | 6.951e-05  |   0.0 |  0.06
Modify  | 0.010368   | 0.010372   | 0.010376   |   0.0 | 17.36
Other   |            | 0.0005884  |            |       |  0.98

Nlocal:    4.125 ave 9 max 0 min
Histogram: 4 0 0 0 0 0 0 0 3 1
Nghost:    394.875 ave 401 max 388 min
Histogram: 2 0 0 2 0 0 2 0 0 2
Neighs:    399.25 ave 894 max 0 min
Histogram: 4 0 0 0 0 0 0 0 3 1

Total # of neighbors = 3194
Ave neighs/atom = 96.7879
Neighbor list builds = 0
Dangerous builds = 0
WARNING: Using 'neigh_modify every 1 delay 0 check yes' setting during minimization (../min.cpp:190)
WARNING: Total cutoff < 2*bond cutoff. May need to use an increased neighbor list skin. (../pair_reaxc.cpp:413)
Setting up cg style minimization ...
  Unit style    : real
  Current step  : 132
Per MPI rank memory allocation (min/avg/max) = 14.19 | 14.72 | 15.25 Mbytes
Step Temp E_pair E_mol TotEng Press 
     132            0   -5951.0987            0   -5951.0987   -13445.299 
     133            0   -5951.0987            0   -5951.0987   -13445.299 
Loop time of 0.0750088 on 8 procs for 1 steps with 33 atoms

99.1% CPU use with 8 MPI tasks x no OpenMP threads

Minimization stats:
  Stopping criterion = linesearch alpha is zero
  Energy initial, next-to-last, final = 
         -5951.0987396      -5951.0987396      -5951.0987396
  Force two-norm initial, final = 21.1176 21.1176
  Force max component initial, final = 8.93293 8.93293
  Final line search alpha, max atom move = 2.08514e-11 1.86265e-10
  Iterations, force evaluations = 1 53

MPI task timing breakdown:
Section |  min time  |  avg time  |  max time  |%varavg| %total
---------------------------------------------------------------
Pair    | 0.054717   | 0.05643    | 0.058744   |   0.6 | 75.23
Neigh   | 0          | 0          | 0          |   0.0 |  0.00
Comm    | 0.001409   | 0.0037123  | 0.0054161  |   2.4 |  4.95
Output  | 0          | 0          | 0          |   0.0 |  0.00
Modify  | 0.014607   | 0.014616   | 0.014622   |   0.0 | 19.49
Other   |            | 0.0002508  |            |       |  0.33

Nlocal:    4.125 ave 9 max 0 min
Histogram: 4 0 0 0 0 0 0 0 3 1
Nghost:    394.875 ave 401 max 388 min
Histogram: 2 0 0 2 0 0 2 0 0 2
Neighs:    399.25 ave 894 max 0 min
Histogram: 4 0 0 0 0 0 0 0 3 1

Total # of neighbors = 3194
Ave neighs/atom = 96.7879
Neighbor list builds = 0
Dangerous builds = 0
WARNING: Using 'neigh_modify every 1 delay 0 check yes' setting during minimization (../min.cpp:190)
WARNING: Total cutoff < 2*bond cutoff. May need to use an increased neighbor list skin. (../pair_reaxc.cpp:413)
Setting up cg style minimization ...
  Unit style    : real
  Current step  : 133
WARNING: Energy due to 3 extra global DOFs will be included in minimizer energies
Per MPI rank memory allocation (min/avg/max) = 14.19 | 14.72 | 15.25 Mbytes
Step Temp E_pair E_mol TotEng Press Volume 
     133            0   -5951.0987            0   -5951.0987   -13445.299    1238.4229 
     134            0   -5951.0988            0   -5951.0988   -13444.999    1238.4228 
Loop time of 0.0185798 on 8 procs for 1 steps with 33 atoms

99.3% CPU use with 8 MPI tasks x no OpenMP threads

Minimization stats:
  Stopping criterion = energy tolerance
  Energy initial, next-to-last, final = 
         -5951.0987396      -5951.0987396     -5951.09875289
  Force two-norm initial, final = 452.997 452.987
  Force max component initial, final = 376.852 376.843
  Final line search alpha, max atom move = 6.47842e-11 2.44135e-08
  Iterations, force evaluations = 1 13

MPI task timing breakdown:
Section |  min time  |  avg time  |  max time  |%varavg| %total
---------------------------------------------------------------
Pair    | 0.014253   | 0.01464    | 0.015051   |   0.3 | 78.79
Neigh   | 0          | 0          | 0          |   0.0 |  0.00
Comm    | 0.00017874 | 0.00059111 | 0.00097168 |   0.0 |  3.18
Output  | 0          | 0          | 0          |   0.0 |  0.00
Modify  | 0.0031523  | 0.0031547  | 0.003157   |   0.0 | 16.98
Other   |            | 0.0001941  |            |       |  1.04

Nlocal:    4.125 ave 9 max 0 min
Histogram: 4 0 0 0 0 0 0 0 3 1
Nghost:    394.875 ave 401 max 388 min
Histogram: 2 0 0 2 0 0 2 0 0 2
Neighs:    399.25 ave 894 max 0 min
Histogram: 4 0 0 0 0 0 0 0 3 1

Total # of neighbors = 3194
Ave neighs/atom = 96.7879
Neighbor list builds = 0
Dangerous builds = 0
WARNING: Using 'neigh_modify every 1 delay 0 check yes' setting during minimization (../min.cpp:190)
WARNING: Total cutoff < 2*bond cutoff. May need to use an increased neighbor list skin. (../pair_reaxc.cpp:413)
Setting up cg style minimization ...
  Unit style    : real
  Current step  : 134
Per MPI rank memory allocation (min/avg/max) = 14.19 | 14.72 | 15.25 Mbytes
Step Temp E_pair E_mol TotEng Press 
     134            0   -5951.0988            0   -5951.0988   -13444.999 
     135            0   -5951.0988            0   -5951.0988   -13444.999 
Loop time of 0.0733836 on 8 procs for 1 steps with 33 atoms

99.4% CPU use with 8 MPI tasks x no OpenMP threads

Minimization stats:
  Stopping criterion = linesearch alpha is zero
  Energy initial, next-to-last, final = 
        -5951.09875289     -5951.09875289     -5951.09875289
  Force two-norm initial, final = 21.1181 21.1181
  Force max component initial, final = 8.93292 8.93292
  Final line search alpha, max atom move = 2.08515e-11 1.86265e-10
  Iterations, force evaluations = 1 53

MPI task timing breakdown:
Section |  min time  |  avg time  |  max time  |%varavg| %total
---------------------------------------------------------------
Pair    | 0.054801   | 0.056179   | 0.057725   |   0.5 | 76.56
Neigh   | 0          | 0          | 0          |   0.0 |  0.00
Comm    | 0.0007261  | 0.0022938  | 0.0036737  |   2.4 |  3.13
Output  | 0          | 0          | 0          |   0.0 |  0.00
Modify  | 0.01465    | 0.014658   | 0.014664   |   0.0 | 19.97
Other   |            | 0.0002524  |            |       |  0.34

Nlocal:    4.125 ave 9 max 0 min
Histogram: 4 0 0 0 0 0 0 0 3 1
Nghost:    394.875 ave 401 max 388 min
Histogram: 2 0 0 2 0 0 2 0 0 2
Neighs:    399.25 ave 894 max 0 min
Histogram: 4 0 0 0 0 0 0 0 3 1

Total # of neighbors = 3194
Ave neighs/atom = 96.7879
Neighbor list builds = 0
Dangerous builds = 0
WARNING: Total cutoff < 2*bond cutoff. May need to use an increased neighbor list skin. (../pair_reaxc.cpp:413)
Setting up Verlet run ...
  Unit style    : real
  Current step  : 0
  Time step     : 0.25
Per MPI rank memory allocation (min/avg/max) = 13.07 | 13.59 | 14.12 Mbytes
Step Temp TotEng KinEng PotEng Press 
       0          300    -5922.483    28.615776   -5951.0988   -12388.742 
     200    294.43788   -5909.4923    28.085229   -5937.5775    2894.1232 
     400     323.3631   -5892.9753    30.844288   -5923.8196   -6911.4718 
     600    325.25469   -5893.0903    31.024718    -5924.115   -7748.9402 
     800    248.02338   -5906.1079    23.657939   -5929.7659      11350.8 
    1000    357.99356    -5896.376    34.147546   -5930.5235   -1097.4957 
    1200    260.19013   -5907.9845    24.818475   -5932.8029    940.08904 
    1400    318.08904   -5906.8037    30.341216   -5937.1449   -28805.745 
    1600    326.24494   -5898.2055    31.119175   -5929.3247   -16923.657 
    1800    350.02983   -5888.9475    33.387918   -5922.3354    2414.1565 
    2000    301.18676   -5900.7351    28.728976   -5929.4641   -9001.3561 
    2200    299.19321   -5904.9097     28.53882   -5933.4485    29494.477 
    2400    307.08184   -5902.5263    29.291284   -5931.8176    26058.872 
    2600    323.97192   -5899.5279     30.90236   -5930.4303   -7400.9373 
    2800    325.99442   -5904.9281    31.095278   -5936.0234    19571.267 
    3000    246.82128   -5910.2027    23.543275    -5933.746    1361.9482 
    3200    357.24836   -5896.8946    34.076464   -5930.9711   -5104.0302 
    3400    291.79574   -5908.3193    27.833205   -5936.1526   -4014.5339 
    3600    356.97046   -5902.7384    34.049956   -5936.7884   -30881.676 
    3800    422.49555    -5890.637    40.300127   -5930.9372   -4885.3314 
    4000    278.29312   -5908.3446    26.545246   -5934.8899    20646.286 
    4200    262.27498   -5908.7495     25.01734   -5933.7668   -15107.324 
    4400    311.61188   -5896.7675    29.723387   -5926.4909    26598.934 
    4600    307.47202   -5898.9244    29.328502   -5928.2529   -1761.6082 
    4800    261.17311   -5911.0804    24.912238   -5935.9926   -1244.0795 
    5000    325.84634   -5901.8191    31.081154   -5932.9003   -5598.6636 
    5200    325.29523   -5898.5269    31.028586   -5929.5554   -7289.7026 
    5400    207.74499   -5912.1063    19.815947   -5931.9223   -26224.597 
    5600    241.32766   -5907.7476    23.019261   -5930.7669   -1411.6343 
    5800    292.15144   -5899.0951    27.867134   -5926.9623    13556.086 
    6000    257.25123   -5907.6383    24.538146   -5932.1764   -558.99038 
    6200    291.51647   -5907.1614    27.806567   -5934.9679    7617.4718 
    6400    345.84581   -5898.7551    32.988821   -5931.7439     24195.19 
    6600    283.72491   -5904.2001    27.063362   -5931.2634    7729.6999 
    6800    253.81007   -5910.2434    24.209907   -5934.4533   -3673.0084 
    7000    277.09745   -5905.3018    26.431196    -5931.733   -20989.144 
    7200    290.20074   -5906.1839    27.681065    -5933.865    13089.638 
    7400    224.83259   -5916.9276    21.445864   -5938.3734    14022.162 
    7600    359.77553   -5902.2587    34.317521   -5936.5762    15777.928 
    7800     294.2874   -5904.9617    28.070874   -5933.0325   -21252.466 
    8000    328.41149   -5897.6098    31.325833   -5928.9356   -7838.0088 
    8200    314.14815   -5899.6077    29.965311    -5929.573    1260.1589 
    8400    255.20392   -5906.8606    24.342861   -5931.2035    10722.266 
    8600    323.90257   -5896.9882    30.895745    -5927.884    3709.4132 
    8800    267.94791   -5904.2557    25.558458   -5929.8141     4400.956 
    9000    287.30876   -5904.0843    27.405211   -5931.4896   -12501.705 
    9200    332.13171   -5901.5414     31.68069   -5933.2221    3689.8845 
    9400    238.21694   -5916.0872    22.722542   -5938.8097   -23556.191 
    9600     302.7368    -5908.772    28.876829   -5937.6488   -16371.632 
    9800    268.05326   -5902.8648    25.568507   -5928.4333   -16476.614 
   10000     209.5287   -5912.7691    19.986088   -5932.7552   -6426.6175 
   10200    268.36795   -5906.8164    25.598524   -5932.4149   -6151.9753 
   10400    301.36764   -5899.5202     28.74623   -5928.2664    15239.713 
   10600    314.78978   -5897.2791    30.026513   -5927.3056   -8516.7924 
   10800    341.84976   -5887.9682    32.607655   -5920.5759    15985.846 
   11000     290.0667   -5901.6021     27.66828   -5929.2703    16539.239 
   11200    394.37397   -5893.6904    37.617725   -5931.3081   -1091.7298 
   11400    280.87416   -5906.0042    26.791441   -5932.7956   -11133.417 
   11600    304.27305    -5906.422    29.023365   -5935.4454   -4868.1816 
   11800    336.41652   -5897.8858      32.0894   -5929.9752    17636.872 
   12000    333.73046   -5902.3669    31.833187   -5934.2001   -5291.5347 
   12200    270.49292   -5904.1922    25.801216   -5929.9934   -25893.317 
   12400    335.68511   -5898.8923    32.019634   -5930.9119    1090.1239 
   12600    265.68119   -5912.4744    25.342245   -5937.8167    -2068.253 
   12800    286.38357   -5908.6474    27.316961   -5935.9643   -1149.4188 
   13000    305.85155   -5899.6943    29.173932   -5928.8682    877.10159 
   13200    339.93946   -5892.0669    32.425438   -5924.4923   -5707.0518 
   13400    236.25257   -5908.4524    22.535169   -5930.9876   -10634.019 
   13600    267.39389   -5897.3412    25.505612   -5922.8468    6162.8802 
   13800    346.03087   -5899.9561    33.006474   -5932.9626    5116.9171 
   14000    305.82331   -5903.8272    29.171239   -5932.9984    5647.6157 
   14200     278.0711   -5904.1955    26.524068   -5930.7196     28970.75 
   14400    258.33041   -5907.5703    24.641085   -5932.2113     5688.604 
   14600     260.4772   -5906.5648    24.845858   -5931.4106   -4071.6239 
   14800    304.84853   -5905.6504    29.078258   -5934.7286   -16104.584 
   15000     273.5569   -5914.6292    26.093477   -5940.7227   -4939.6574 
   15200    328.23667   -5908.3538    31.309157   -5939.6629   -11136.486 
   15400    282.97362   -5901.4607      26.9917   -5928.4524   -10714.029 
   15600    229.74786   -5909.3651    21.914711   -5931.2798    -9040.058 
   15800     296.7173   -5899.7492    28.302653   -5928.0518   -9673.2193 
   16000    233.76108    -5900.388    22.297516   -5922.6855   -14973.978 
   16200    285.02044   -5900.6805    27.186937   -5927.8674   -16199.616 
   16400    330.44432   -5892.4327    31.519736   -5923.9525    -12223.04 
   16600     262.5383   -5901.0598    25.042458   -5926.1023    5281.0341 
   16800    423.97334   -5883.6721    40.441088   -5924.1132    8377.7451 
   17000    356.59407   -5897.6935    34.014054   -5931.7076    1212.0416 
   17200     294.7944   -5904.9325    28.119235   -5933.0517    3328.8986 
   17400    262.77762   -5906.8988    25.065286   -5931.9641    3430.1564 
   17600    323.93008   -5898.8311    30.898369   -5929.7295    -16883.54 
   17800    276.73433   -5904.9508    26.396559   -5931.3473    9055.1619 
   18000    352.48115   -5888.8577    33.621739   -5922.4795    26768.751 
   18200    279.14131   -5907.2971    26.626152   -5933.9233   -4986.9968 
   18400    361.29453   -5901.2656    34.462411    -5935.728   -22394.071 
   18600    283.36552   -5908.4678    27.029081   -5935.4969   -1356.7473 
   18800    303.20012    -5904.914    28.921022    -5933.835   -21045.834 
   19000    300.63074   -5902.1446     28.67594   -5930.8206   -8725.1462 
   19200     277.4706   -5902.9757    26.466789   -5929.4425    26651.986 
   19400    364.16516   -5891.6454    34.736229   -5926.3816   -2449.0859 
   19600    256.90117   -5905.2782    24.504755    -5929.783    18142.708 
   19800    324.23661   -5903.8565    30.927608   -5934.7841    4643.2403 
   20000     411.0729   -5885.9521    39.210567   -5925.1627    19510.896 
   20200    312.65318   -5901.9759    29.822711   -5931.7986   -2242.3308 
   20400    207.90352   -5908.7823    19.831069   -5928.6134    12575.703 
   20600    338.32709   -5898.6402    32.271641   -5930.9118    6319.9429 
   20800    310.36853   -5908.9103    29.604788   -5938.5151    7214.7888 
   21000    261.37094   -5911.4111    24.931108   -5936.3422    20414.285 
   21200    282.52509   -5908.3821    26.948916    -5935.331   -7044.5465 
   21400    387.29854    -5899.409    36.942829   -5936.3518   -20943.555 
   21600    313.28864   -5909.3764    29.883325   -5939.2597   -10854.093 
   21800    255.71603   -5909.8904    24.391709   -5934.2821    5659.5268 
   22000    336.42078   -5902.5374    32.089806   -5934.6272    12901.505 
   22200    275.58027   -5908.5198    26.286478   -5934.8063   -718.04536 
   22400    284.53193   -5891.9307    27.140341    -5919.071    4040.9565 
   22600    274.61352   -5893.9346    26.194264   -5920.1288   -20228.292 
   22800    259.40522   -5902.2023    24.743606   -5926.9459   -28202.043 
   23000    294.72903   -5898.4046       28.113   -5926.5176    6644.2256 
   23200    300.94913   -5896.4412     28.70631   -5925.1475    575.61403 
   23400    259.12463   -5908.7728    24.716841   -5933.4897    -6341.059 
   23600    248.89018   -5899.2022    23.740619   -5922.9428   -5170.0327 
   23800    283.90121   -5899.2269    27.080179   -5926.3071    -39860.28 
   24000    267.99595   -5903.9323    25.563041   -5929.4954    7090.1746 
   24200    317.79971   -5901.8407    30.313618   -5932.1543    511.39028 
   24400    335.29866   -5895.9898    31.982772   -5927.9726    8211.4947 
   24600    257.00064   -5904.9792    24.514243   -5929.4935   -6144.6561 
   24800    257.45822   -5903.1304     24.55789   -5927.6883   -10532.884 
   25000    279.95217   -5893.0244    26.703496   -5919.7279   -12306.741 
   25200    275.38372      -5901.8     26.26773   -5928.0678    20057.614 
   25400    276.74567   -5905.5602    26.397641   -5931.9579    4119.4005 
   25600    248.81683    -5912.068    23.733623   -5935.8016    6272.5988 
   25800     345.9787   -5899.8425    33.001497    -5932.844    8275.7183 
   26000    257.47766   -5903.9167    24.559744   -5928.4764    18506.314 
   26200    350.13286   -5893.3139    33.397745   -5926.7116    15818.324 
   26400    287.65862   -5905.8495    27.438582    -5933.288    18194.785 
   26600    309.83425   -5907.1086    29.553825   -5936.6624   -1388.0619 
   26800    335.05374   -5893.7615    31.959409   -5925.7209    7255.3015 
   27000    327.01038   -5895.5957    31.192187   -5926.7879    9450.0399 
   27200    307.89958   -5902.1313    29.369285   -5931.5006   -13090.379 
   27400    324.67986   -5894.5097    30.969888   -5925.4796    3316.1048 
   27600     308.9821   -5904.1518    29.472542   -5933.6244     -12448.4 
   27800    265.20899   -5908.9956    25.297204   -5934.2928   -6499.3646 
   28000    353.22214   -5896.5528     33.69242   -5930.2453   -19939.054 
   28200    302.48351   -5905.4964    28.852669   -5934.3491   -7035.4207 
   28400    303.88142   -5902.1558    28.986009   -5931.1419   -7980.7496 
   28600    326.87956   -5900.9951    31.179708   -5932.1748   -31337.074 
   28800     276.6531   -5908.8718    26.388811   -5935.2606   -16274.484 
   29000    274.85868   -5901.7203    26.217649    -5927.938    19283.025 
   29200    306.80344   -5897.5878    29.264729   -5926.8526    18159.333 
   29400     294.2754   -5902.4633     28.06973    -5930.533    7351.0642 
   29600    308.52115   -5898.0538    29.428574   -5927.4824   -12615.425 
   29800    304.55894   -5901.0887    29.050635   -5930.1393   -16162.793 
   30000    312.63587   -5904.3711     29.82106   -5934.1922     12680.02 
   30200    351.70719   -5896.4063    33.547914   -5929.9542    7619.9672 
   30400    216.63315   -5906.9736    20.663753   -5927.6373    11080.111 
   30600    309.48553   -5894.6437    29.520563   -5924.1643    17490.176 
   30800     390.0791    -5895.611    37.208054   -5932.8191    10113.238 
   31000    259.27156   -5908.2717    24.730857   -5933.0025      17074.5 
   31200    302.43261   -5900.3673    28.847814   -5929.2151    5840.4349 
   31400    333.03616   -5898.8266    31.766961   -5930.5936    11012.762 
   31600    282.67206   -5901.7519    26.962934   -5928.7148   -3074.9376 
   31800    281.00948   -5900.0023    26.804348   -5926.8067    179.37747 
   32000     306.7636   -5902.8254    29.260929   -5932.0863   -7505.1591 
   32200    264.95414   -5909.6364    25.272894   -5934.9093   -4610.5307 
   32400    297.97535   -5899.8343    28.422653   -5928.2569   -15270.364 
   32600    352.72464   -5899.4916    33.644965   -5933.1365   -1308.7513 
   32800    243.05096   -5912.0289     23.18364   -5935.2125    10198.716 
   33000    362.90365   -5898.3406      34.6159   -5932.9565    9379.0869 
   33200    347.49078   -5904.1934    33.145729   -5937.3391    10727.066 
   33400    248.75634   -5908.2172    23.727853    -5931.945    2044.5763 
   33600    331.20803   -5897.0275    31.592584   -5928.6201    1819.0391 
   33800    274.52024   -5903.6742    26.185366   -5929.8596    18739.986 
   34000     261.9507   -5904.7165    24.986409   -5929.7029   -14976.606 
   34200    252.04103   -5907.8771    24.041166   -5931.9183   -8278.0849 
   34400    346.45118   -5895.9232    33.046565   -5928.9698    16214.078 
   34600    285.68467   -5902.9908    27.250295    -5930.241    353.51989 
   34800    305.60681   -5903.0988    29.150587   -5932.2494    9590.2544 
   35000    414.93487   -5894.6466    39.578945   -5934.2255    8423.4542 
   35200    268.21234   -5911.0308    25.583681   -5936.6145   -6341.6693 
   35400    331.99931   -5903.4045     31.66806   -5935.0726   -10867.418 
   35600    320.50659   -5892.2965    30.571816   -5922.8683    19033.394 
   35800    316.17387   -5899.5517    30.158536   -5929.7102   -1544.6872 
   36000    324.76058   -5895.5545    30.977587   -5926.5321   -19369.476 
   36200    371.45178   -5892.4411     35.43127   -5927.8724   -9818.8977 
   36400    253.30251   -5904.5027    24.161493   -5928.6642     1855.992 
   36600    332.16393   -5892.8834    31.683763   -5924.5671   -19521.801 
   36800    228.43737   -5906.5061    21.789709   -5928.2958    11520.236 
   37000    260.26973   -5901.9319    24.826068    -5926.758    1132.3502 
   37200     292.6239   -5902.5664    27.912201   -5930.4786    6981.2206 
   37400    231.81788   -5911.5119    22.112162    -5933.624    10640.749 
   37600    407.36766   -5894.2597     38.85714   -5933.1168   -10765.871 
   37800    334.45627   -5891.8648     31.90242   -5923.7672    19915.549 
   38000    303.26816   -5904.2921    28.927513   -5933.2196    9819.5999 
   38200    363.42804   -5893.7196    34.665919   -5928.3855    11543.752 
   38400    314.52602   -5902.2397    30.001355   -5932.2411    1512.3392 
   38600    267.39397    -5908.675     25.50562   -5934.1806   -10677.059 
   38800    321.42243   -5895.5598    30.659175    -5926.219    238.07569 
   39000    262.34034   -5905.2102    25.023575   -5930.2338     4030.924 
   39200    291.17294   -5899.1949    27.773799   -5926.9687   -11758.736 
   39400    342.59846   -5891.4104    32.679069   -5924.0895    2039.4096 
   39600    340.75721   -5898.8761     32.50344   -5931.3795    -10142.29 
   39800     278.5797   -5909.6371    26.572582   -5936.2097   -16976.606 
   40000    352.57848   -5897.6795    33.631023   -5931.3105    4207.0561 
   40200    265.45024   -5906.8299    25.320216   -5932.1502   -14428.234 
   40400    394.59718   -5893.2427    37.639016   -5930.8817   -10857.157 
   40600     280.1496   -5904.6028    26.722328   -5931.3251   -22686.235 
   40800    237.08359   -5904.2161    22.614437   -5926.8305   -12376.263 
   41000    283.65401   -5899.1833    27.056599   -5926.2399    -13192.44 
   41200    308.58208   -5900.1758    29.434386   -5929.6102   -9060.1939 
   41400    346.63704   -5900.7003    33.064294   -5933.7646    2920.0538 
   41600    271.71998   -5907.8219    25.918261   -5933.7401   -10378.525 
   41800    392.20271    -5895.147    37.410616   -5932.5576    6394.1152 
   42000    299.09708   -5898.5342    28.529651   -5927.0638    21412.026 
   42200    271.18186   -5902.6557    25.866932   -5928.5226    11287.034 
   42400    230.01782   -5911.3281    21.940462   -5933.2686    7948.3352 
   42600    331.89948   -5905.6037    31.658538   -5937.2622   -7088.6792 
   42800    317.55661   -5904.9852     30.29043   -5935.2756    2947.1575 
   43000    273.33789   -5913.4324    26.072586    -5939.505    15078.446 
   43200    315.83358   -5903.5456    30.126077   -5933.6717    7454.4873 
   43400    340.86913   -5896.9384    32.514116   -5929.4525   -2159.7744 
   43600    261.10156   -5909.8753    24.905413   -5934.7807    16988.025 
   43800    289.50144   -5909.2738    27.614362   -5936.8882    22580.825 
   44000     346.6581    -5900.273    33.066302   -5933.3393      19291.9 
   44200    273.61547   -5908.9505    26.099064   -5935.0496     10476.24 
   44400    290.95759   -5906.4556    27.753258   -5934.2088   -4098.7828 
   44600    311.19804   -5898.5342    29.683911   -5928.2181   -15358.142 
   44800    323.09876   -5910.9111    30.819073   -5941.7301   -11319.637 
   45000    268.46909   -5912.4649    25.608172    -5938.073    1802.4185 
   45200     340.6507   -5902.5271    32.493281   -5935.0204    22435.306 
   45400    381.62781    -5906.041    36.401921   -5942.4429    21861.393 
   45600     332.9263   -5902.5444    31.756482   -5934.3008    6583.5164 
   45800    291.37374   -5901.9099    27.792952   -5929.7028   -10578.083 
   46000    214.73602   -5910.8982    20.482793   -5931.3809    -4909.773 
   46200    274.87432   -5904.9491    26.219141   -5931.1683     9664.702 
   46400     354.7872    -5893.895    33.841704   -5927.7367    21762.392 
   46600    312.69157   -5905.4414    29.826374   -5935.2678   -9860.3933 
   46800    339.34745   -5902.0039     32.36897   -5934.3729   -5913.4253 
   47000    364.64748   -5896.6079    34.782236   -5931.3901     8143.671 
   47200    246.55827    -5909.212    23.518187   -5932.7302    17883.654 
   47400    307.58732    -5899.976      29.3395   -5929.3155   -11158.864 
   47600    289.67807   -5899.9921     27.63121   -5927.6233   -19156.359 
   47800    349.10651   -5896.8746    33.299847   -5930.1744    2767.8475 
   48000     257.1551    -5902.998    24.528976    -5927.527    9611.9948 
   48200    294.36313   -5903.2244    28.078098   -5931.3025   -8780.1928 
   48400    294.33739   -5893.8424    28.075643    -5921.918    9987.2941 
   48600    277.29014   -5897.5742    26.449575   -5924.0237   -1314.6818 
   48800     245.6997   -5904.3769    23.436292   -5927.8132   -22772.645 
   49000    289.74444   -5895.5597     27.63754   -5923.1972   -813.32055 
   49200    304.16892   -5903.2282    29.013433   -5932.2416   -12741.273 
   49400     216.3681   -5907.2593    20.638471   -5927.8978     22139.72 
   49600    455.48765   -5885.2129    43.447109     -5928.66   -5188.8267 
   49800    259.07817   -5907.8771     24.71241   -5932.5895     2906.323 
   50000     324.2664   -5904.9158    30.930449   -5935.8463   -6994.6803 
   50200    221.55194   -5911.0075    21.132936   -5932.1404    19015.905 
   50400    303.34123    -5908.942    28.934483   -5937.8765    7543.4382 
   50600    349.19034   -5896.7613    33.307842   -5930.0692    13553.323 
   50800    248.51291   -5904.4674    23.704633    -5928.172    11197.596 
   51000    255.95387   -5914.5568    24.414396   -5938.9712    18938.351 
   51200    319.92631   -5902.5958    30.516466   -5933.1123   -6639.9213 
   51400    299.55968   -5905.2589    28.573776   -5933.8327   -8868.0097 
   51600    229.61137   -5914.7399    21.901692   -5936.6416   -19778.855 
   51800    313.32322   -5898.5595    29.886624   -5928.4461    11606.825 
   52000    305.97159   -5892.2467    29.185382   -5921.4321    87.337422 
   52200    314.68238   -5903.6468    30.016269    -5933.663    5795.4106 
   52400     297.3342    -5900.547    28.361497   -5928.9085   -7442.9614 
   52600    342.85848   -5898.1439    32.703872   -5930.8478    13789.444 
   52800    290.72584   -5902.9841    27.731152   -5930.7153    18547.727 
   53000    365.76138   -5897.5374    34.888486   -5932.4259   -13001.185 
   53200    244.79514   -5905.2622     23.35001   -5928.6122    7242.6254 
   53400    288.90106   -5905.1336    27.557094   -5932.6906   -6023.7515 
   53600    333.67036   -5896.0182    31.827455   -5927.8456   -18285.328 
   53800    263.05642   -5902.8075    25.091879   -5927.8994     11561.42 
   54000    210.04375   -5911.3662    20.035217   -5931.4014    15807.897 
   54200    315.03095   -5898.0123    30.049517   -5928.0618    32691.604 
   54400     273.1731   -5901.0008    26.056868   -5927.0577    1826.0802 
   54600    279.08384     -5912.94     26.62067   -5939.5607    3970.0409 
   54800    269.58475   -5908.8049    25.714589   -5934.5195    328.53594 
   55000    290.84185   -5903.5305    27.742218   -5931.2727   -15077.527 
   55200    245.94357   -5913.7699    23.459554   -5937.2295   -4316.0138 
   55400    365.44939   -5902.2092    34.858727    -5937.068   -14780.043 
   55600    321.20732   -5897.8434    30.638656   -5928.4821   -11083.887 
   55800    304.57851   -5884.7273    29.052501   -5913.7798   -192.51189 
   56000    300.48523    -5898.729     28.66206    -5927.391    4305.7499 
   56200    275.95577   -5897.6732    26.322296   -5923.9955    19152.317 
   56400    213.54709   -5904.0819    20.369386   -5924.4513    9083.4196 
   56600    333.72077   -5902.2664    31.832263   -5934.0987    9113.1707 
   56800    253.15705   -5906.2649    24.147618   -5930.4125    30765.843 
   57000    266.73195   -5910.8737    25.442473   -5936.3162    14093.164 
   57200    303.21736   -5906.7222    28.922667   -5935.6449   -1099.0836 
   57400    410.02968   -5901.0527    39.111059   -5940.1638    2509.9298 
   57600    262.48065   -5908.8238    25.036959   -5933.8607   -2386.5926 
   57800    321.35565   -5898.2085    30.652805   -5928.8613    16622.705 
   58000    369.88778    -5900.306    35.282087   -5935.5881   -2730.9539 
   58200    288.08079   -5906.1454    27.478851   -5933.6242    9586.3881 
   58400     363.0329   -5896.2546    34.628228   -5930.8829    19186.673 
   58600    233.80433   -5896.9026    22.301642   -5919.2042    18537.877 
   58800     262.8225   -5899.0276    25.069567   -5924.0972   -10679.274 
   59000    225.56285   -5912.3711    21.515521   -5933.8866    11426.015 
   59200    279.89197   -5903.9199    26.697753   -5930.6176   -7891.4327 
   59400    327.96149   -5895.5059    31.282909   -5926.7888    15977.841 
   59600    232.76866   -5910.2558    22.202853   -5932.4586   -9228.7729 
   59800    282.95496   -5902.8038     26.98992   -5929.7937   -3626.1176 
   60000    317.53315   -5901.0432    30.288192   -5931.3314   -6193.3602 
   60200    175.12284   -5913.7913    16.704254   -5930.4955   -831.37534 
   60400     255.5349   -5901.8334    24.374432   -5926.2078    -5242.857 
   60600    283.64461   -5900.3199    27.055703   -5927.3756     1787.418 
   60800    284.97826   -5907.9365    27.182914   -5935.1194   -24726.848 
   61000     323.9907   -5904.0177    30.904152   -5934.9218   -7138.4431 
   61200    352.20894   -5899.7057    33.595775   -5933.3015   -1615.7319 
   61400    311.64185   -5903.4252    29.726245   -5933.1515    2098.8778 
   61600    364.93343   -5892.8939    34.809512   -5927.7034    1217.1234 
   61800     252.1348   -5903.3092     24.05011   -5927.3593    7791.8158 
   62000    306.21156   -5904.3694    29.208271   -5933.5777   -17580.157 
   62200    316.36823   -5900.3028    30.177075   -5930.4799   -16167.849 
   62400    245.96743   -5913.4903     23.46183   -5936.9521   -3033.9945 
   62600    288.63197   -5902.8581    27.531426   -5930.3895    3793.4916 
   62800    256.50065   -5898.7195    24.466551   -5923.1861   -22438.559 
   63000    339.87567   -5892.4215    32.419354   -5924.8409    1329.5865 
   63200    224.20208   -5908.7971    21.385722   -5930.1828    15819.699 
   63400    338.76145   -5897.2726    32.313073   -5929.5856   -619.36119 
   63600    275.70729   -5909.2229    26.298594   -5935.5215   -25931.265 
   63800    247.57102   -5905.6182     23.61479    -5929.233    -4289.345 
   64000    283.99594   -5898.2649    27.089215   -5925.3541    7941.1941 
   64200    408.42519   -5897.0134    38.958013   -5935.9714   -10676.816 
   64400    223.80009   -5910.0644    21.347378   -5931.4118    25902.743 
   64600    298.97397    -5898.629    28.517908   -5927.1469   -19443.363 
   64800    314.63487    -5902.097    30.011737   -5932.1088    -10640.15 
   65000    319.57346   -5898.7441    30.482809   -5929.2269    11645.058 
   65200    358.35266   -5893.5218    34.181798   -5927.7036   -19469.786 
   65400    303.16912   -5903.3185    28.918066   -5932.2366    8206.8467 
   65600    311.09038   -5905.9445    29.673643   -5935.6181   -1.8768937 
   65800    332.06597   -5898.8947    31.674418   -5930.5692   -4034.2618 
   66000    282.32892   -5910.5286    26.930204   -5937.4588   -2366.0644 
   66200    275.57289   -5910.1371    26.285774   -5936.4228   -11959.228 
   66400    316.16212   -5902.2678    30.157415   -5932.4253   -4959.6236 
   66600    300.32316   -5901.2758    28.646601   -5929.9224    7071.8579 
   66800    355.14982   -5894.7037    33.876293     -5928.58    21075.118 
   67000    290.05305    -5897.595    27.666977    -5925.262    23129.747 
   67200    281.00387   -5905.4411    26.803813   -5932.2449    4830.4095 
   67400    336.03515   -5891.3247    32.053023   -5923.3777   -13815.689 
   67600    327.71034   -5892.6199    31.258953   -5923.8788    19032.132 
   67800    297.08189    -5903.097     28.33743   -5931.4345    4595.1937 
   68000    270.87151   -5908.0928    25.837328   -5933.9301   -6451.6714 
   68200     347.5525   -5895.9303    33.151615   -5929.0819    8525.8561 
   68400    278.13412   -5907.6228    26.530079   -5934.1528    354.68822 
   68600    247.34933   -5906.1684    23.593644    -5929.762    13311.144 
   68800    331.27692   -5898.6596    31.599155   -5930.2587   -8560.8579 
   69000    298.03299   -5908.6332    28.428151   -5937.0614   -3631.6687 
   69200     268.5089   -5902.9641    25.611969   -5928.5761   -4462.7076 
   69400    342.69547   -5894.3747    32.688323   -5927.0631   -4703.0859 
   69600    260.58552   -5910.2945     24.85619   -5935.1507    191.76319 
   69800    292.70638   -5899.7415    27.920067   -5927.6616   -8672.7058 
   70000    266.98415   -5903.3832    25.466529   -5928.8497   -4986.8476 
   70200    256.61519   -5909.6076    24.477476   -5934.0851   -15641.251 
   70400    336.38736   -5901.7963    32.086619   -5933.8829   -8407.1645 
   70600    301.34253   -5896.9094    28.743835   -5925.6532    -18869.16 
   70800    363.28646   -5888.9962    34.652414   -5923.6486    14977.263 
   71000    261.83043    -5899.568    24.974937   -5924.5429   -14676.795 
   71200    247.75692   -5903.4249    23.632522   -5927.0574   -5997.9377 
   71400    399.88038   -5887.7676    38.142959   -5925.9106    18954.555 
   71600    324.36547   -5900.7064    30.939899   -5931.6463   -15738.835 
   71800    300.19756   -5902.4286    28.634621   -5931.0632   -10264.321 
   72000    305.32165   -5891.6229    29.123387   -5920.7463   -16261.964 
   72200    251.93868   -5901.5086    24.031403     -5925.54    -13816.54 
   72400    318.86081    -5901.316    30.414832   -5931.7308   -3798.5959 
   72600    381.72665   -5890.3709    36.411349   -5926.7822   -10325.936 
   72800    291.53003   -5898.7762     27.80786    -5926.584    778.20674 
   73000    222.89339   -5905.0944    21.260892   -5926.3553    -27326.23 
   73200    339.47423   -5890.5327    32.381063   -5922.9137   -6385.0784 
   73400    304.04889   -5897.6336    29.001984   -5926.6356   -430.51816 
   73600    258.91032   -5904.7696    24.696399    -5929.466   -13867.223 
   73800    358.64603   -5890.1503    34.209782     -5924.36   -15846.254 
   74000    357.19249   -5899.4711    34.071135   -5933.5423    6777.6904 
   74200    325.33952   -5904.5164     31.03281   -5935.5492    10511.923 
   74400    231.40051   -5912.1125    22.072351   -5934.1848    -9170.527 
   74600    303.72896   -5901.5268    28.971467   -5930.4982   -15137.846 
   74800    270.34715   -5903.2302    25.787312   -5929.0175   -1557.4936 
   75000    243.88107    -5912.475     23.26282   -5935.7378   -1467.2706 
   75200    314.48027   -5898.4947    29.996991   -5928.4916    -4111.811 
   75400     330.5514   -5893.9355     31.52995   -5925.4654    1281.8342 
   75600    264.46239     -5910.27    25.225988   -5935.4959   -11440.681 
   75800    328.45028   -5902.0568    31.329532   -5933.3863    3411.7212 
   76000    315.10117   -5899.6691    30.056216   -5929.7253   -3753.3783 
   76200    249.06685   -5907.5726    23.757471   -5931.3301    1751.2692 
   76400    249.38114   -5914.0915     23.78745   -5937.8789    6404.3884 
   76600    313.36892   -5904.6284    29.890984   -5934.5194    12146.021 
   76800    367.65655   -5897.7197    35.069259    -5932.789   -6507.9695 
   77000    261.65177   -5903.3303    24.957896   -5928.2881    26469.808 
   77200    286.67135    -5906.444     27.34441   -5933.7884     13236.87 
   77400    360.84122   -5891.9491    34.419172   -5926.3683   -4237.7563 
   77600    252.50262   -5907.5152    24.085195   -5931.6004    1241.8835 
   77800    287.28287   -5901.7957    27.402741   -5929.1984    2163.6402 
   78000     301.0587   -5896.6124    28.716762   -5925.3292    7824.2033 
   78200    257.53232   -5912.8001    24.564958   -5937.3651    10060.651 
   78400    273.68477   -5901.8936    26.105674   -5927.9993   -5518.3334 
   78600    317.98937   -5898.3112    30.331709   -5928.6429    6808.2608 
   78800    274.87802   -5911.1558    26.219494   -5937.3752    12563.336 
   79000    432.50972   -5893.6887    41.255338   -5934.9441    2372.6067 
   79200    341.97201   -5902.7016    32.619316   -5935.3209   -4490.6079 
   79400    320.74307   -5906.4168    30.594373   -5937.0111    5343.5765 
   79600    355.95116   -5896.3828    33.952729   -5930.3355   -16708.316 
   79800    279.26205   -5907.3252    26.637668   -5933.9628    16093.059 
   80000    325.53158   -5902.1415     31.05113   -5933.1926    -7947.468 
   80200    327.05452   -5894.8326    31.196397    -5926.029    44456.134 
   80400    298.37985   -5898.8048    28.461237    -5927.266    21963.081 
   80600    262.23416   -5905.4658    25.013447   -5930.4792    -14213.97 
   80800    381.17671    -5887.828    36.358892   -5924.1869   -1961.0594 
   81000    310.96132   -5903.2174    29.661332   -5932.8787   -10686.964 
   81200    313.77475    -5898.383    29.929694   -5928.3127   -6213.2326 
   81400    298.08405   -5906.6103    28.433022   -5935.0433    9623.5916 
   81600    289.53465   -5908.3561    27.617529   -5935.9736    4845.8163 
   81800    321.22034   -5892.7871    30.639899    -5923.427    11483.107 
   82000     374.3492   -5886.2404    35.707643    -5921.948   -6705.7856 
   82200    275.88467   -5900.1604    26.315514   -5926.4759    20207.831 
   82400    222.84561   -5903.8316    21.256333   -5925.0879   -7603.3658 
   82600    311.33174   -5896.7473    29.696665   -5926.4439    3830.1839 
   82800    272.75506   -5900.2246    26.016993   -5926.2416   -14227.691 
   83000    291.07062   -5907.1724    27.764039   -5934.9365    13308.361 
   83200    326.12385   -5892.5442    31.107624   -5923.6518    2914.8833 
   83400    312.68921   -5900.1455    29.826148   -5929.9716   -5549.5769 
   83600    279.57802   -5905.3453    26.667807   -5932.0131    4724.7868 
   83800    331.69208   -5899.3544    31.638754   -5930.9931    4782.9362 
   84000    371.08705   -5894.2232     35.39648   -5929.6197   -19877.211 
   84200    262.42426   -5905.3675     25.03158   -5930.3991    14715.421 
   84400    361.19481   -5893.7602      34.4529   -5928.2131    15927.665 
   84600    323.07853   -5901.8029    30.817144   -5932.6201    10567.742 
   84800     297.1087   -5905.7035    28.339988   -5934.0435   -4457.1484 
   85000    330.37171   -5896.3619     31.51281   -5927.8747    1055.0288 
   85200    367.76103   -5894.6277    35.079225    -5929.707    5983.3288 
   85400    241.48345   -5907.3842    23.034121   -5930.4183    -4279.544 
   85600     369.6881   -5896.9206     35.26304   -5932.1837     6098.169 
   85800    214.52852   -5912.1733    20.463001   -5932.6363    2540.1808 
   86000    300.62219   -5903.3113    28.675125   -5931.9865   -2712.9993 
   86200    299.90678   -5896.4243    28.606885   -5925.0312    13062.821 
   86400    291.41599   -5904.9408    27.796983   -5932.7378    8364.7481 
   86600    290.44364    -5901.194    27.704235   -5928.8983    23019.098 
   86800    325.35875   -5894.3089    31.034644   -5925.3436   -22082.299 
   87000    249.93598   -5904.9254    23.840373   -5928.7658   -7514.3159 
   87200    214.34729   -5903.2854    20.445714   -5923.7311   -13630.612 
   87400    340.13777   -5892.9373    32.444354   -5925.3817   -5481.1554 
   87600    246.34636    -5908.833    23.497974    -5932.331   -5184.5859 
   87800    347.16366   -5901.6791    33.114526   -5934.7936   -4404.1641 
   88000    367.79404   -5901.1082    35.082374   -5936.1906   -10214.784 
   88200    272.74733   -5912.9886    26.016255   -5939.0049    1808.8518 
   88400    310.36141   -5900.1298     29.60411   -5929.7339     9391.129 
   88600    338.32275   -5900.0403    32.271227   -5932.3116   -665.10882 
   88800    254.57991   -5913.7863    24.283339   -5938.0696     17339.05 
   89000    222.35503   -5902.5043    21.209539   -5923.7139   -18127.937 
   89200    255.30008   -5902.7402    24.352033   -5927.0923    18010.589 
   89400     202.9967   -5906.3687    19.363028   -5925.7318   -6761.0792 
   89600    330.67508   -5900.1909    31.541747   -5931.7327     6786.462 
   89800    355.20774     -5893.76    33.881818   -5927.6418   -4198.4179 
   90000    291.65289   -5910.0677    27.819579   -5937.8873    1801.1424 
   90200    299.28274   -5900.1511     28.54736   -5928.6985    4660.2919 
   90400    301.50853   -5910.2943    28.759669    -5939.054    5876.8656 
   90600    269.67854   -5908.1834    25.723536   -5933.9069    1738.8779 
   90800     310.9882   -5901.5654    29.663896   -5931.2293   -5793.9447 
   91000     287.5398   -5907.2911    27.427249   -5934.7184    1724.5263 
   91200    307.18291   -5908.0494    29.300925   -5937.3503    109.45006 
   91400    309.77167   -5896.0344    29.547856   -5925.5823    17717.105 
   91600    308.14681    -5897.893    29.392868   -5927.2858   -9443.3604 
   91800    240.73846   -5906.3506     22.96306   -5929.3136    11941.489 
   92000    356.63761   -5895.0391    34.018207   -5929.0573     15511.54 
   92200    270.34893   -5906.2734    25.787482   -5932.0609   -3412.6427 
   92400    316.39731   -5904.2582    30.179849   -5934.4381    -12810.53 
   92600    304.66463   -5901.7746    29.060717   -5930.8354   -9030.9417 
   92800    330.45945   -5889.8391     31.52118   -5921.3603    4095.9628 
   93000    280.49054   -5896.9397    26.754848   -5923.6946   -19464.892 
   93200    328.51938   -5898.2475    31.336124   -5929.5837   -9301.5492 
   93400    219.90529   -5910.3747    20.975868   -5931.3506   -1522.4925 
   93600    249.69344   -5901.7238    23.817239   -5925.5411    12849.153 
   93800    310.82456   -5899.2236    29.648287   -5928.8718   -5975.0035 
   94000    283.49389   -5904.9199    27.041326   -5931.9612    8547.9748 
   94200    395.22557   -5891.4999    37.698955   -5929.1989    9843.1708 
   94400    337.93784   -5902.2253    32.234512   -5934.4598    28611.803 
   94600    287.94379   -5905.7087    27.465784   -5933.1745   -108.03409 
   94800    244.67193   -5909.7913    23.338257   -5933.1296   -1356.0552 
   95000     340.8678    -5900.825    32.513989    -5933.339    10414.244 
   95200    292.96206   -5900.1362    27.944456   -5928.0807     6726.922 
   95400    297.90631    -5909.976    28.416068   -5938.3921    11319.296 
   95600    314.68448   -5896.3872    30.016469   -5926.4036   -19071.961 
   95800    310.52815   -5902.3571    29.620014   -5931.9771    20730.489 
   96000    261.76665   -5909.6827    24.968854   -5934.6516   -15240.302 
   96200     376.3374   -5892.9576     35.89729   -5928.8549    19412.885 
   96400    249.86043   -5903.7823    23.833167   -5927.6155    9847.9863 
   96600    257.75294   -5900.1604    24.586001   -5924.7464    18967.303 
   96800    347.93742   -5895.0879    33.188331   -5928.2762   -3614.8714 
   97000    326.00211    -5900.346    31.096012    -5931.442    -4549.855 
   97200    214.09121   -5911.1478    20.421288   -5931.5691    3688.1517 
   97400    295.45397   -5900.7085     28.18215   -5928.8907   -3247.0522 
   97600     281.9243   -5901.4737    26.891609   -5928.3653    3649.9053 
   97800     242.4907   -5909.6453    23.130198   -5932.7755   -15604.168 
   98000    350.63609   -5898.4027    33.445747   -5931.8485    12845.976 
   98200    443.86284    -5884.509    42.338266   -5926.8473   -7668.3452 
   98400    341.95684   -5901.6864    32.617869   -5934.3042    2499.5711 
   98600    227.03852   -5899.6599    21.656279   -5921.3161    3817.6773 
   98800    347.66543   -5891.6155    33.162387   -5924.7779   -8730.9106 
   99000    287.93376   -5902.5846    27.464827   -5930.0494   -30762.006 
   99200    284.87452   -5906.3107    27.173019   -5933.4837    3240.9915 
   99400    381.92402   -5893.6563    36.430175   -5930.0865   -21047.373 
   99600    308.70203   -5906.8888    29.445828   -5936.3346   -5462.6463 
   99800     301.2373   -5906.2346    28.733798   -5934.9684    16728.991 
  100000     325.2263    -5899.883    31.022011    -5930.905    429.93032 
  100200    258.83393   -5910.9577    24.689113   -5935.6468    2073.2668 
  100400     305.7268   -5904.0312    29.162032   -5933.1932    23977.949 
  100600     390.0893    -5895.507    37.209028    -5932.716   -9792.4546 
  100800    332.58512   -5897.7424    31.723938   -5929.4664   -28985.263 
  101000    253.00837   -5908.0739    24.133436   -5932.2073    12614.435 
  101200    308.91308   -5893.4322    29.465959   -5922.8982    57.560094 
  101400    314.25818   -5903.0323    29.975806   -5933.0081    23584.443 
  101600    278.79457   -5906.4306    26.593077   -5933.0237    6528.5173 
  101800    336.07829   -5891.2138    32.057137   -5923.2709   -6587.8733 
  102000    308.90731   -5902.7414    29.465409   -5932.2068    -3606.428 
  102200    227.79848   -5909.6018    21.728768   -5931.3305   -18210.754 
  102400    310.90692   -5895.3047    29.656143   -5924.9608    4081.5486 
  102600    305.35029   -5903.2152    29.126119   -5932.3414   -15413.956 
  102800     264.6242   -5903.5059    25.241424   -5928.7473    19293.515 
  103000    324.01999   -5893.8476    30.906945   -5924.7545     25671.08 
  103200    272.43376   -5902.9101    25.986345   -5928.8964    17356.645 
  103400    252.47491   -5905.5705    24.082552    -5929.653    10958.168 
  103600    336.16935   -5893.4704    32.065824   -5925.5362   -17550.787 
  103800    316.10172   -5899.7678    30.151654   -5929.9195    5171.5374 
  104000    282.44226   -5901.7314    26.941016   -5928.6724    2971.5844 
  104200    336.60875     -5900.25    32.107735   -5932.3577    1761.4545 
  104400     306.9429   -5900.5608    29.278032   -5929.8389     14147.74 
  104600    382.47728    -5888.207    36.482948   -5924.6899   -18886.051 
  104800    250.90403   -5896.4163    23.932712    -5920.349    1032.0779 
  105000    303.94686   -5898.7871    28.992251   -5927.7794   -6410.9564 
  105200    256.59612   -5900.1054    24.475658   -5924.5811    22315.996 
  105400    232.57044   -5907.8262    22.183946   -5930.0102    13215.414 
  105600    282.81222   -5900.2451    26.976304   -5927.2214    28505.978 
  105800     390.1251   -5896.0809    37.212442   -5933.2933     1691.807 
  106000    245.78263   -5903.4083    23.444202   -5926.8525   -17679.266 
  106200     279.0964     -5897.68    26.621868   -5924.3019    49.797883 
  106400    327.17903   -5888.5517    31.208273   -5919.7599   -6833.9445 
  106600    320.24968   -5898.6191     30.54731   -5929.1664    16298.123 
  106800    337.42051   -5904.1274    32.185166   -5936.3126    8564.6074 
  107000    348.17388   -5891.5235    33.210887   -5924.7344   -79.311521 
  107200     293.8041   -5899.5629    28.024775   -5927.5876   -2530.7538 
  107400    275.63955   -5903.8316    26.292132   -5930.1238    13501.822 
  107600    285.94921   -5906.5823    27.275529   -5933.8578   -12088.355 
  107800    317.22084   -5903.0765    30.258402   -5933.3349    6922.8575 
  108000    256.46566    -5910.336    24.463213   -5934.7992    13449.829 
  108200    327.71189   -5903.7675    31.259101   -5935.0266   -18357.789 
  108400    351.70957   -5896.4279    33.548141   -5929.9761    8258.4341 
  108600    255.09521   -5908.3186    24.332492    -5932.651   -15609.949 
  108800    282.04115    -5904.587    26.902755   -5931.4898   -6406.6084 
  109000    342.38889   -5896.1275    32.659079   -5928.7866   -15919.944 
  109200    205.12841   -5906.7873    19.566362   -5926.3536   -14336.242 
  109400    309.93243   -5903.0081     29.56319   -5932.5713    7995.9513 
  109600     381.1313   -5890.1115     36.35456    -5926.466   -2463.2809 
  109800    252.23901   -5911.0468    24.060051   -5935.1069    11226.714 
  110000    325.02023   -5904.1791    31.002354   -5935.1815    8797.5017 
  110200    320.66992   -5899.6508    30.587396   -5930.2382    5740.4115 
  110400    231.16697   -5912.6125    22.050075   -5934.6626      5365.29 
  110600    362.89182   -5903.2558    34.614771   -5937.8705   -20285.376 
  110800    282.82783   -5900.1931    26.977793   -5927.1709    35485.118 
  111000    233.94395   -5911.9755    22.314959   -5934.2905    13399.777 
  111200    272.85629   -5902.6468    26.026649   -5928.6734    987.63154 
  111400    307.15747   -5895.2348    29.298499   -5924.5333    22070.023 
  111600    264.01356   -5904.5719    25.183176   -5929.7551     5516.774 
  111800    315.98273   -5905.1828    30.140304   -5935.3231   -6503.0765 
  112000    315.10617   -5898.1741    30.056692   -5928.2308    3562.5327 
  112200    284.10248   -5906.2108    27.099377   -5933.3102   -2383.6887 
  112400    229.22546   -5907.1682    21.864882   -5929.0331   -12846.442 
  112600    328.59382   -5894.8596    31.343225   -5926.2028    13869.499 
  112800    271.45903   -5907.5393     25.89337   -5933.4327   -3864.6117 
  113000    317.62315   -5901.8149    30.296776   -5932.1116   -1994.9712 
  113200    331.27181    -5901.707    31.598667   -5933.3057    8624.8753 
  113400    270.44272   -5906.5335    25.796428   -5932.3299   -24361.934 
  113600     302.8122   -5899.7837    28.884021   -5928.6677    4825.3948 
  113800    279.15407    -5897.022    26.627368   -5923.6494   -22645.125 
  114000    238.16969   -5910.4171    22.718036   -5933.1351    22886.783 
  114200    295.43516   -5903.5343    28.180355   -5931.7147   -8312.6353 
  114400    295.74377   -5904.4692    28.209792   -5932.6789    7122.2665 
  114600    293.87855   -5910.3134    28.031876   -5938.3453   -12050.012 
  114800     366.7925    -5895.702     34.98684   -5930.6888   -9781.5972 
  115000    272.02038   -5906.1024    25.946914   -5932.0494    10000.048 
  115200    231.98654   -5915.2527     22.12825   -5937.3809   -8404.6236 
  115400     268.0236   -5908.4828    25.565678   -5934.0484   -10369.069 
  115600    380.46645    -5899.122    36.291143   -5935.4131   -968.06254 
  115800    305.27329   -5906.7103    29.118774   -5935.8291   -26192.666 
  116000     256.3542   -5909.8283    24.452582   -5934.2809   -5311.1288 
  116200    259.83346   -5901.0584    24.784454   -5925.8429   -6306.9175 
  116400    323.94124   -5892.9446    30.899434    -5923.844   -9497.8944 
  116600     303.7587   -5898.6683    28.974304   -5927.6426    2958.0646 
  116800    268.06851   -5906.6827    25.569962   -5932.2527   -19028.057 
  117000    335.84952   -5891.8619    32.035316   -5923.8972   -17169.733 
  117200    326.85029   -5898.3058    31.176916   -5929.4827    16324.216 
  117400    321.79109   -5904.8471     30.69434   -5935.5414    14020.573 
  117600    355.06563    -5891.598    33.868262   -5925.4663    4885.7391 
  117800    340.99391   -5896.1691    32.526018   -5928.6951   -1089.7226 
  118000     232.8335   -5903.5106    22.209038   -5925.7196   -10560.589 
  118200    368.65453    -5897.391    35.164453   -5932.5554     24997.77 
  118400    238.07584   -5910.7614    22.709084   -5933.4705    2536.0378 
  118600    309.38006   -5908.6677    29.510503   -5938.1782   -6808.5035 
  118800    318.26179   -5899.5506    30.357694   -5929.9083   -24097.768 
  119000    333.22268   -5899.8223    31.784752    -5931.607   -20897.214 
  119200    294.08324   -5894.3036    28.051401    -5922.355   -5948.1409 
  119400    313.28576   -5899.0861    29.883051   -5928.9691    3106.8557 
  119600    275.14245   -5908.1967    26.244716   -5934.4414   -7703.7017 
  119800     354.7509   -5903.8609    33.838241   -5937.6991    9052.8835 
  120000    329.98773    -5899.242    31.476184   -5930.7182    3765.9934 
  120200    259.97491   -5908.0711    24.797946   -5932.8691   -594.66159 
  120400    264.60788   -5899.1366    25.239867   -5924.3764   -7194.0431 
  120600    286.65333   -5898.7389    27.342692   -5926.0816    10611.835 
  120800    280.36211   -5912.3858    26.742598   -5939.1284    9147.0055 
  121000    300.81708   -5905.3645    28.693715   -5934.0582   -11917.249 
  121200    275.04847   -5902.7379    26.235752   -5928.9737   -14117.447 
  121400    251.42932   -5902.1144    23.982817   -5926.0972    16702.266 
  121600    410.77675   -5885.8789    39.182319   -5925.0612    3122.6409 
  121800    318.52082   -5899.3277    30.382402   -5929.7101   -25869.934 
  122000    278.44445   -5903.1786    26.559681   -5929.7383    6202.2194 
  122200     287.4722   -5905.8809    27.420801   -5933.3017    -11419.18 
  122400    333.75259   -5907.8013    31.835298   -5939.6366    10851.693 
  122600    427.54335   -5896.6568    40.781616   -5937.4384    17187.982 
  122800    224.83036   -5912.1183    21.445651    -5933.564    -10859.42 
  123000    229.55011   -5912.0222    21.895849    -5933.918   -11383.633 
  123200    336.17072   -5899.5777    32.065954   -5931.6436    14719.088 
  123400    306.74274   -5903.7304    29.258939   -5932.9893   -5661.4625 
  123600    276.18913   -5910.8503    26.344555   -5937.1949    7217.2442 
  123800     249.9591   -5905.1223    23.842579   -5928.9648    4302.6774 
  124000    366.38551   -5899.9224     34.94802   -5934.8704   -3200.0858 
  124200    213.47348    -5912.619    20.362365   -5932.9814   -7542.9976 
  124400    278.33671   -5901.4088    26.549404   -5927.9582   -7231.8921 
  124600    277.64667   -5899.9905    26.483583   -5926.4741   -10295.225 
  124800    269.59038   -5914.9316    25.715126   -5940.6467   -11097.964 
  125000    376.90411   -5903.9494    35.951346   -5939.9007    19181.335 
  125200     298.4083   -5900.9185    28.463951   -5929.3824    11582.011 
  125400    257.98492   -5903.7654    24.608129   -5928.3735   -4679.8649 
  125600    324.17241   -5900.1482    30.921484   -5931.0697   -10988.335 
  125800     340.3516   -5893.5066    32.464751   -5925.9714   -17873.524 
  126000    275.76418   -5905.0722     26.30402   -5931.3762     29347.81 
  126200    366.25695   -5899.6177    34.935757   -5934.5534   -646.22683 
  126400    332.79709   -5903.3922    31.744157   -5935.1364   -10209.112 
  126600    281.36606   -5907.9774    26.838361   -5934.8158    16253.594 
  126800    291.51231   -5894.2156     27.80617   -5922.0218    31392.267 
  127000    285.27935    -5903.104    27.211633   -5930.3156    10059.302 
  127200    279.05279   -5905.0737    26.617707   -5931.6914    4107.4509 
  127400    293.39028   -5901.5353    27.985303   -5929.5206    4653.0408 
  127600    319.35492   -5903.4911    30.461964    -5933.953    8399.4634 
  127800    231.45611   -5915.1113    22.077654    -5937.189    88.946238 
  128000    277.82984   -5902.1501    26.501055   -5928.6511   -18339.751 
  128200    289.51574    -5899.027    27.615725   -5926.6427    11926.111 
  128400    257.81287   -5913.9057    24.591718   -5938.4974   -5274.4955 
  128600    321.57731   -5906.9235    30.673949   -5937.5975     5819.729 
  128800    344.92616   -5902.8802      32.9011   -5935.7813   -12816.279 
  129000    260.44184   -5906.0846    24.842485   -5930.9271   -8840.3058 
  129200    270.40474   -5913.1862    25.792806    -5938.979   -14593.453 
  129400     287.3332   -5902.4519    27.407543   -5929.8594    10587.946 
  129600    338.73219   -5900.2933    32.310282   -5932.6036   -2767.0141 
  129800    261.93982   -5913.5422    24.985371   -5938.5276    2243.8669 
  130000    288.12735   -5903.8026    27.483293   -5931.2859    13142.049 
  130200    290.96084   -5905.2215    27.753568   -5932.9751    12255.623 
  130400    319.63761   -5900.3175    30.488928   -5930.8064    3466.4077 
  130600    260.16052   -5901.1032    24.815651   -5925.9188   -5674.1989 
  130800    272.25232   -5907.2911    25.969038   -5933.2602   -13477.832 
  131000    407.62884   -5892.2442    38.882052   -5931.1263   -15930.296 
  131200    296.49465   -5899.7397    28.281415   -5928.0211    9235.6304 
  131400    296.41901   -5903.9193      28.2742   -5932.1935    7377.2693 
  131600    274.53922   -5898.0371    26.187176   -5924.2243    18087.881 
  131800    303.03484   -5900.2047    28.905257     -5929.11    21877.758 
  132000    273.05142   -5902.1832    26.045261   -5928.2285   -7983.0549 
  132200    307.67303   -5895.3326    29.347675   -5924.6802     16165.85 
  132400    313.90327   -5902.7894    29.941952   -5932.7313   -6667.7505 
  132600     283.4335   -5901.5715    27.035566   -5928.6071   -31563.621 
  132800    309.05858   -5897.7008    29.479837   -5927.1806   -23918.022 
  133000    246.46941   -5908.3718    23.509712   -5931.8815   -117.15403 
  133200    279.07269   -5905.8856    26.619605   -5932.5052     1453.272 
  133400     382.7873   -5895.9634    36.512519   -5932.4759   -14229.713 
  133600    287.38516   -5913.2667    27.412498   -5940.6792   -9914.7851 
  133800    306.20893   -5902.9294    29.208021   -5932.1374    2137.1098 
  134000    312.64491   -5901.4356    29.821923   -5931.2575    4850.2525 
  134200    252.21986   -5914.6414    24.058224   -5938.6997   -11433.832 
  134400    296.38292   -5904.5944    28.270758   -5932.8652   -9552.9473 
  134600    269.63924   -5895.3163    25.719787   -5921.0361   -2770.7638 
  134800     296.1378   -5901.5533    28.247377   -5929.8007   -5329.0596 
  135000    318.92026   -5908.9578    30.420503   -5939.3783   -9317.6443 
  135200    294.30259   -5902.4438    28.072324   -5930.5161   -8947.4096 
  135400    325.39015    -5905.874    31.037639   -5936.9116   -15848.399 
  135600    255.94067   -5913.3639    24.413136    -5937.777   -18472.607 
  135800    316.18065   -5900.1989    30.159183   -5930.3581   -31797.315 
  136000    301.69515   -5905.8695     28.77747   -5934.6469   -3646.9845 
  136200    283.15133   -5908.4458    27.008651   -5935.4545   -8422.4096 
  136400    354.38138   -5901.2964    33.802994   -5935.0994    9916.1952 
  136600    317.40088   -5893.5117    30.275575   -5923.7872    13361.295 
  136800     241.2318    -5904.464    23.010117   -5927.4741    3132.6304 
  137000    296.01771   -5908.5976    28.235922   -5936.8335   -559.26721 
  137200    294.24859   -5894.4659    28.067173   -5922.5331   -16235.707 
  137400    280.55052   -5899.5981    26.760569   -5926.3587    4245.3043 
  137600    283.88359   -5908.1696    27.078498   -5935.2481   -25893.179 
  137800    293.31429   -5902.2689    27.978054    -5930.247   -11420.691 
  138000    305.08071   -5909.2864    29.100404   -5938.3868   -20667.655 
  138200    286.60579   -5910.9205    27.338157   -5938.2587    -12808.02 
  138400    310.95459   -5901.2542     29.66069   -5930.9149    8307.4338 
  138600     294.8145   -5905.8608    28.121152   -5933.9819    459.25015 
  138800    287.25981   -5913.0568    27.400542   -5940.4573    9080.4427 
  139000    355.48749    -5899.195    33.908502   -5933.1035    10946.613 
  139200     285.1503   -5897.4545    27.199324   -5924.6538    18241.538 
  139400    254.51832   -5901.4065    24.277465    -5925.684   -18508.002 
  139600    309.44572    -5907.997    29.516765   -5937.5138   -3837.7153 
  139800    414.51506    -5894.924    39.538901   -5934.4629   -5091.7533 
  140000    291.99052   -5902.1041    27.851785   -5929.9559    27765.627 
  140200    305.85528   -5905.1599    29.174287   -5934.3342    5008.6143 
  140400    265.93628   -5908.3371    25.366577   -5933.7037   -8464.2567 
  140600    321.22218   -5892.9506    30.640074   -5923.5907   -8074.0229 
  140800    259.01093   -5908.5866    24.705996   -5933.2926   -3415.2889 
  141000    321.15258    -5901.068    30.633435   -5931.7014   -16948.089 
  141200    306.94862   -5895.6637    29.278577   -5924.9423   -9448.4905 
  141400    260.57295   -5901.0619    24.854991   -5925.9168   -15565.549 
  141600    254.79567   -5903.7115     24.30392   -5928.0154   -5010.9769 
  141800    334.19996   -5890.1451    31.877971   -5922.0231   -20370.098 
  142000    299.76742   -5900.0278    28.593591   -5928.6214   -14507.171 
  142200    320.22278   -5900.6115    30.544745   -5931.1563    19747.797 
  142400    320.44162   -5901.0944     30.56562     -5931.66   -1368.9529 
  142600     255.8358   -5909.2057    24.403134   -5933.6088    1606.4114 
  142800    317.32821   -5896.5777    30.268644   -5926.8463     3203.887 
  143000    340.64919   -5901.2939    32.493137   -5933.7871    24694.425 
  143200    234.52693   -5909.8281    22.370568   -5932.1987    20189.752 
  143400    287.62431    -5903.041     27.43531   -5930.4763    20131.316 
  143600     336.5183   -5894.4214    32.099108   -5926.5206   -19061.778 
  143800    286.92379   -5908.9816     27.36849   -5936.3501   -5985.8755 
  144000    275.09708    -5900.541    26.240389   -5926.7814     8127.362 
  144200      318.709    -5900.435    30.400352   -5930.8353    14397.329 
  144400    233.35383   -5914.5481     22.25867   -5936.8068    8505.6934 
  144600     265.4698   -5904.7493    25.322082   -5930.0714    16894.481 
  144800    356.67995   -5900.1026    34.022246   -5934.1248   -2509.3271 
  145000    244.69148   -5915.4342    23.340122   -5938.7743   -14361.273 
  145200    258.88536   -5910.2748    24.694018   -5934.9688   -6432.7953 
  145400     294.0299   -5904.2699    28.046313   -5932.3162   -14708.219 
  145600    337.82897    -5898.383    32.224128   -5930.6071   -2890.2518 
  145800    274.85992   -5902.9036    26.217767   -5929.1213     21144.86 
  146000    290.55227   -5908.6754    27.714596     -5936.39   -7659.7113 
  146200    348.68111   -5893.0878    33.259269    -5926.347    3692.9137 
  146400    305.00006   -5901.0369    29.092712   -5930.1296   -12385.346 
  146600    267.19548   -5906.1113    25.486688    -5931.598    -14278.19 
  146800    304.40843   -5900.9017    29.036278    -5929.938   -20271.956 
  147000    221.09302   -5904.1238    21.089161    -5925.213   -25727.867 
  147200    293.40773   -5911.7488    27.986967   -5939.7358   -12501.724 
  147400    320.12207   -5896.6707    30.535139   -5927.2059    4328.6842 
  147600    349.40558   -5898.0822    33.328373   -5931.4105    11719.309 
  147800    224.31741   -5911.6952    21.396722   -5933.0919   -9549.2446 
  148000    270.27636   -5901.0598     25.78056   -5926.8403   -6733.9681 
  148200    283.73649   -5899.0459    27.064467   -5926.1104    9656.3804 
  148400    298.41208   -5895.9677    28.464312    -5924.432    8754.9431 
  148600    239.81716   -5908.3773    22.875181   -5931.2525   -11721.588 
  148800    320.72461    -5902.946    30.592613   -5933.5386    95.109723 
  149000    292.26017    -5899.645    27.877506   -5927.5225    8716.7203 
  149200    388.71853   -5889.6927    37.078275    -5926.771    8611.7121 
  149400    266.29635   -5904.5434    25.400922   -5929.9443    4653.2617 
  149600    313.30512   -5900.3286    29.884897   -5930.2135   -11338.738 
  149800    397.23103   -5890.3586    37.890248   -5928.2488   -3231.8007 
  150000    340.62921   -5899.9842    32.491231   -5932.4755   -2359.5807 
  150200    261.53393   -5905.2148    24.946655   -5930.1615   -20347.947 
  150400    362.45682   -5889.7978    34.573278   -5924.3711   -12596.004 
  150600    278.02028   -5905.1447    26.519221   -5931.6639    11398.987 
  150800    260.37835   -5910.7963    24.836429   -5935.6328    7451.6422 
  151000    306.41126   -5898.4933     29.22732   -5927.7206   -6876.1724 
  151200    316.30451   -5902.4264    30.170997   -5932.5974    -12292.58 
  151400    289.78861   -5906.3115    27.641754   -5933.9532     -15038.6 
  151600    305.98716   -5897.4413    29.186867   -5926.6282    5822.9178 
  151800    284.91673   -5889.8187    27.177045   -5916.9957   -24164.749 
  152000    290.27435   -5904.9348    27.688086   -5932.6229   -17009.363 
  152200    328.28718   -5897.5514    31.313975   -5928.8654   -9798.2031 
  152400     356.6472   -5885.5582    34.019122   -5919.5773    3343.6357 
  152600    273.04224   -5901.4579    26.044386   -5927.5023   -18835.484 
  152800     265.8605   -5907.8482    25.359349   -5933.2075   -8741.6962 
  153000    365.93476   -5895.6228    34.905025   -5930.5278   -188.35016 
  153200    289.64116    -5908.922    27.627689   -5936.5497    12043.944 
  153400    352.15879   -5905.6264    33.590991   -5939.2174    4101.9386 
  153600    309.90781     -5898.79    29.560842   -5928.3509    10777.697 
  153800    375.59371   -5896.7217    35.826353    -5932.548   -5639.3563 
  154000    266.25741   -5903.0434    25.397209   -5928.4406    -28952.28 
  154200      368.751   -5896.2081    35.173654   -5931.3817    1295.4408 
  154400    356.47174   -5893.8075    34.002385   -5927.8099    7797.6726 
  154600     302.3142   -5902.4538    28.836518   -5931.2903   -6579.2575 
  154800    290.76488   -5904.7289    27.734876   -5932.4638    1089.5179 
  155000    312.03487   -5895.4026    29.763734   -5925.1663    15687.033 
  155200    274.36143   -5910.5581    26.170218   -5936.7283   -425.89697 
  155400    317.34712    -5905.999    30.270448   -5936.2695   -2517.2456 
  155600    392.00006   -5897.5628    37.391287   -5934.9541    7200.9973 
  155800    269.38765    -5908.445    25.695789   -5934.1408   -3105.0323 
  156000    254.42008   -5909.7286    24.268093   -5933.9966   -7938.4446 
  156200    306.81109   -5902.3845    29.265459     -5931.65   -324.16335 
  156400    271.42987   -5904.2552    25.890588   -5930.1458   -7517.1027 
  156600    345.26118   -5894.6297    32.933056   -5927.5627    9236.9461 
  156800    304.79854   -5899.9548     29.07349   -5929.0283   -3514.0408 
  157000    293.31511    -5905.967    27.978132   -5933.9451   -13275.646 
  157200    328.97758   -5891.1149     31.37983   -5922.4947   -7104.9884 
  157400    281.15481   -5903.3458    26.818211    -5930.164   -9415.9017 
  157600    286.07041   -5911.6589     27.28709    -5938.946    11689.587 
  157800      319.486   -5900.2112    30.474467   -5930.6857    4929.6716 
  158000    350.55672   -5907.2128    33.438176    -5940.651   -5885.2352 
  158200    286.48283   -5908.4944    27.326429   -5935.8208    17024.491 
  158400    303.17719   -5903.7822    28.918836   -5932.7011    14625.995 
  158600    207.39472   -5911.0658    19.782536   -5930.8483   -821.84195 
  158800    289.75374   -5905.0184    27.638428   -5932.6568    3364.7781 
  159000    306.53809   -5895.4966    29.239418    -5924.736   -5475.2548 
  159200    330.33598   -5893.6058    31.509402   -5925.1152    4255.6336 
  159400    187.54308   -5908.1922    17.888969   -5926.0812   -1691.8038 
  159600    324.97675   -5895.9576    30.998207   -5926.9558   -17604.951 
  159800    309.77361   -5908.0403    29.548042   -5937.5883    13632.112 
  160000    270.68709     -5905.43    25.819738   -5931.2497    21721.821 
  160200    390.24203   -5902.3908    37.223595   -5939.6144   -693.97354 
  160400    236.13849   -5912.5248    22.524287   -5935.0491     5332.257 
  160600    326.73505     -5901.41    31.165924   -5932.5759    904.89944 
  160800    314.56102   -5892.9377    30.004693   -5922.9424   -13209.513 
  161000    276.62445   -5909.0721    26.386078   -5935.4582    10830.508 
  161200    286.66665    -5898.022    27.343963    -5925.366    18778.224 
  161400    314.27385   -5897.6595    29.977301   -5927.6368   -6016.8345 
  161600    204.88626   -5908.4106    19.543265   -5927.9539   -11322.224 
  161800    283.88308   -5898.8377    27.078449   -5925.9162   -14276.542 
  162000    287.69621   -5903.3834    27.442168   -5930.8256   -9326.3959 
  162200    361.11179   -5906.4217    34.444981   -5940.8667   -5589.2475 
  162400    259.70693   -5910.2613    24.772385   -5935.0337    7925.3977 
  162600    359.16626   -5898.3756    34.259405    -5932.635    2101.6088 
  162800    279.68227   -5911.2142    26.677751   -5937.8919    12707.109 
  163000    298.88895   -5907.4212    28.509798    -5935.931    14106.541 
  163200    319.12579   -5899.4946    30.440108   -5929.9347    18773.151 
  163400     381.8281    -5891.893    36.421026    -5928.314    11081.781 
  163600    321.92765   -5903.0277    30.707365   -5933.7351    25170.816 
  163800    296.08789   -5899.9483    28.242616   -5928.1909   -7726.3196 
  164000     333.5916   -5893.5517    31.819942   -5925.3716    6947.6716 
  164200    250.00277   -5901.3743    23.846745    -5925.221   -5072.9222 
  164400    251.46195    -5912.876     23.98593   -5936.8619   -20065.669 
  164600    289.45918   -5900.3379    27.610331   -5927.9482   -1732.1026 
  164800    315.43264   -5903.1011    30.087833    -5933.189    10346.086 
  165000    275.03625   -5912.7323    26.234586   -5938.9669    21194.443 
  165200    272.48685   -5899.1991     25.99141   -5925.1905   -3385.6953 
  165400    320.31178   -5902.3808    30.553234    -5932.934   -4724.7773 
  165600     272.6395   -5910.9179     26.00597   -5936.9239   -6056.5449 
  165800    322.63985   -5904.1033    30.775299   -5934.8786    61.084428 
  166000    381.22568   -5893.8665    36.363563     -5930.23   -5503.6438 
  166200    262.96387   -5902.5179    25.083051    -5927.601     4486.257 
  166400    291.53548   -5902.5705     27.80838   -5930.3789    5130.6348 
  166600    305.27534   -5894.7519    29.118969   -5923.8708   -4106.9708 
  166800    307.73357   -5902.9882     29.35345   -5932.3417   -13895.925 
  167000    288.69497   -5908.5137    27.537436   -5936.0511    4648.3012 
  167200    287.57078   -5900.5059    27.430204   -5927.9361   -3386.6897 
  167400    292.09435   -5900.9697    27.861689   -5928.8314    18753.939 
  167600    322.54245   -5907.2477    30.766009   -5938.0137   -10069.306 
  167800    302.15496   -5905.7336    28.821329   -5934.5549    -5637.733 
  168000    286.54044   -5899.7429    27.331924   -5927.0748     22534.46 
  168200    245.64262    -5908.535    23.430847   -5931.9659    -3627.468 
  168400    362.87262   -5895.1798     34.61294   -5929.7927     11828.17 
  168600    260.16286   -5900.1629    24.815874   -5924.9788    3484.7427 
  168800    283.00365   -5900.5915    26.994564    -5927.586    4879.3252 
  169000    341.57086    -5896.896    32.581051   -5929.4771   -6716.3596 
  169200    291.32912   -5905.7564    27.788697   -5933.5451   -5183.5608 
  169400    269.97628   -5904.8903    25.751936   -5930.6422   -9624.4985 
  169600    216.05268   -5899.8596    20.608384    -5920.468    10761.615 
  169800    263.18319   -5908.5759    25.103971   -5933.6799    2894.5032 
  170000    335.01576    -5897.885    31.955787   -5929.8407    2344.2692 
  170200    310.94504   -5899.9949    29.659779   -5929.6547   -8066.0798 
  170400     282.2764   -5906.6501    26.925194   -5933.5753    4192.5763 
  170600    322.31739    -5890.843    30.744541   -5921.5875   -3865.0369 
  170800    232.45984   -5903.0838    22.173396   -5925.2572   -3291.4096 
  171000    263.28677   -5904.1247    25.113851   -5929.2385   -9146.4696 
  171200      479.968   -5887.0503     45.78219   -5932.8325    6572.4144 
  171400    309.42843   -5906.7331    29.515116   -5936.2482     23.90633 
  171600    276.31727   -5905.4678    26.356778   -5931.8246    6554.5863 
  171800    324.93957   -5896.9214    30.994661   -5927.9161    12526.182 
  172000    221.67223   -5911.1315     21.14441   -5932.2759   -14932.872 
  172200    301.56718   -5901.7328    28.765263   -5930.4981   -7269.9742 
  172400    272.50187   -5907.2623    25.992842   -5933.2551   -17797.001 
  172600    272.94575    -5913.632    26.035182   -5939.6672    4608.8475 
  172800    268.24147   -5904.0026     25.58646   -5929.5891   -13249.533 
  173000    305.14982   -5904.1262    29.106997   -5933.2332    26484.296 
  173200    225.80601   -5901.8449    21.538714   -5923.3836    20432.306 
  173400      351.841   -5892.6187    33.560678   -5926.1794     11698.04 
  173600    240.61195   -5908.1202    22.950993   -5931.0712   -12410.467 
  173800    314.34605   -5904.0677    29.984188   -5934.0519    10118.773 
  174000    262.39741   -5906.8515    25.029019   -5931.8805   -5482.8325 
  174200    234.46069   -5912.7098    22.364249    -5935.074    19791.522 
  174400    310.84447   -5900.0375    29.650186   -5929.6876    465.97951 
  174600    240.67746   -5905.4765    22.957241   -5928.4337    12941.602 
  174800    276.19038   -5912.5037    26.344673   -5938.8484   -8341.3535 
  175000    330.58162   -5898.5668    31.532832   -5930.0996    7209.5684 
  175200    300.87691   -5905.0462    28.699422   -5933.7456   -16606.981 
  175400     174.9842   -5919.0533    16.691029   -5935.7444    2321.4842 
  175600    299.87076   -5904.6304    28.603449   -5933.2339   -12771.037 
  175800    332.13973   -5897.5685    31.681455     -5929.25    15954.368 
  176000    269.09445   -5908.7239    25.667822   -5934.3918    5151.9454 
  176200    330.81063   -5899.9544    31.554677   -5931.5091    4969.1268 
  176400    314.91859   -5902.7738      30.0388   -5932.8126   -13525.031 
  176600    264.10444   -5911.2206    25.191846   -5936.4124   -11923.725 
  176800    342.79764   -5895.4888    32.698069   -5928.1869     25961.35 
  177000    271.85491   -5905.3672    25.931131   -5931.2983    5450.7388 
  177200    277.10153   -5906.2838    26.431585   -5932.7154   -5639.3024 
  177400    310.62437   -5894.7255    29.629192   -5924.3547   -11117.503 
  177600    195.60974    -5905.341    18.658415   -5923.9994   -29791.658 
  177800    238.98721   -5903.7655    22.796015   -5926.5615   -12951.688 
  178000    291.25098   -5897.1536    27.781243   -5924.9348   -4873.8043 
  178200    309.91531   -5905.3686    29.561558   -5934.9302    5533.7447 
  178400    282.74813   -5902.8447    26.970191   -5929.8149    18074.832 
  178600    292.95149   -5896.9193    27.943448   -5924.8627    14849.595 
  178800    268.89175   -5906.6231    25.648487   -5932.2716     10927.61 
  179000    321.17222   -5895.0708    30.635308   -5925.7061    9341.6718 
  179200    280.49459   -5900.0137    26.755235   -5926.7689      5234.54 
  179400    259.59773   -5902.4761    24.761969   -5927.2381   -239.46319 
[...]
  950000     312.2626   -5903.1882    29.785456   -5932.9737    2384.6074 
  950200     325.4584   -5894.9467     31.04415   -5925.9909    20083.965 
  950400    281.51156   -5908.5454     26.85224   -5935.3976   -7380.4645 
  950600    350.68863   -5899.7648    33.450759   -5933.2156    24942.645 
  950800    308.96204    -5895.996    29.470629   -5925.4666   -4184.5047 
  951000     285.7847   -5909.7864    27.259837   -5937.0462   -14621.348 
  951200     288.1319   -5898.9513    27.483727   -5926.4351   -27093.733 
  951400    347.29284   -5895.5989    33.126848   -5928.7258   -2150.5672 
  951600    247.72543   -5909.6412    23.629518   -5933.2707   -3903.1698 
  951800    350.41505   -5898.4356    33.424663   -5931.8602    7912.8157 
  952000    288.60931   -5907.2068    27.529265   -5934.7361    43.377517 
  952200    294.31427   -5904.3045    28.073438   -5932.3779     17508.14 
  952400    348.70976   -5900.8824    33.262002   -5934.1444    3156.6506 
  952600    255.99993   -5906.1637    24.418789   -5930.5825    22542.797 
  952800    377.25519   -5889.9236    35.984834   -5925.9084   -8257.7065 
  953000    320.03382   -5899.5597    30.526721   -5930.0864   -6909.1923 
  953200    306.84028   -5905.7513    29.268243   -5935.0195    23390.603 
  953400    347.61552   -5905.6271    33.157627   -5938.7847   -6332.7079 
  953600    376.74618   -5892.7951    35.936281   -5928.7314   -6892.8295 
  953800    312.30661   -5900.8387    29.789654   -5930.6283   -27791.078 
  954000    341.76307   -5899.7704    32.599386   -5932.3698   -24740.392 
  954200    264.69175   -5910.7033    25.247866   -5935.9511    11258.282 
  954400    349.00068   -5901.1472    33.289752   -5934.4369    12446.923 
  954600    285.14945   -5903.5686    27.199243   -5930.7679   -4747.0763 
  954800    262.01293   -5914.7817    24.992345    -5939.774    7922.4452 
  955000    326.27932   -5899.5423    31.122453   -5930.6648    20328.893 
  955200    345.21533   -5899.7233    32.928683    -5932.652    23.012438 
  955400    240.73496   -5910.1564    22.962726   -5933.1192    -15150.43 
  955600    328.89551   -5895.7106    31.372001   -5927.0826    735.38665 
  955800    247.24405   -5909.4397    23.583601   -5933.0233     18026.56 
  956000    257.70114   -5903.1804    24.581061   -5927.7615   -3740.0517 
  956200    301.88939   -5901.3315    28.795998   -5930.1275   -1148.6155 
  956400    275.84035   -5909.5086    26.311286   -5935.8199   -684.04575 
  956600    318.82794   -5901.4021    30.411697   -5931.8138    -14339.87 
  956800    353.55229   -5895.2106    33.723911   -5928.9345   -7835.9277 
  957000    314.80148   -5906.9109    30.027629   -5936.9385   -348.67024 
  957200    309.02557   -5904.7408    29.476689   -5934.2175   -12581.362 
  957400    330.88684    -5891.551    31.561946    -5923.113    -13212.12 
  957600    279.69534   -5904.2689    26.678998   -5930.9479   -16212.935 
  957800    329.75101   -5900.2196    31.453604   -5931.6732   -31885.566 
  958000    329.63655   -5893.0616    31.442686   -5924.5042    -9466.305 
  958200    263.85982   -5905.1945    25.168512   -5930.3631    3788.4415 
  958400    334.87673   -5894.9514    31.942525   -5926.8939    15666.338 
  958600     372.3884   -5892.7491     35.52061   -5928.2697   -2127.8305 
  958800    239.24688   -5906.3966    22.820784   -5929.2174     480.9218 
  959000    268.44796   -5898.2688    25.606156   -5923.8749   -14206.358 
  959200    266.48882   -5900.2846    25.419282   -5925.7039   -6377.6095 
  959400    289.07752   -5906.1477    27.573925   -5933.7216    2.5347742 
  959600    350.54032   -5892.8933    33.436611   -5926.3299    28332.748 
  959800    336.02303   -5906.0943    32.051866   -5938.1462   -32.491679 
  960000    317.23295   -5904.3647    30.259557   -5934.6242    -23113.21 
  960200    382.59226   -5893.4454    36.493915   -5929.9393   -23961.007 
  960400    301.45898   -5907.4289    28.754942   -5936.1838     4521.263 
  960600    309.61341   -5903.5043    29.532761   -5933.0371    3004.1103 
  960800    323.26134   -5898.1884     30.83458   -5929.0229    13935.393 
  961000    303.95492   -5903.9142     28.99302   -5932.9072    2566.7092 
  961200    267.82302   -5904.6762    25.546545   -5930.2227   -17486.227 
  961400    352.22004   -5892.6292    33.596833    -5926.226    6985.7048 
  961600    293.59197   -5898.2374     28.00454   -5926.2419   -10212.147 
  961800    316.77702   -5903.4021    30.216068   -5933.6182   -9669.1975 
  962000    331.91399   -5899.9352    31.659922   -5931.5952   -14209.038 
  962200    240.75956   -5908.5202    22.965073   -5931.4853    11858.902 
  962400    258.24201   -5913.6332    24.632652   -5938.2658   -16807.854 
  962600    263.37325   -5900.1188    25.122101   -5925.2409   -2735.3091 
  962800    336.85995   -5901.7826    32.131697   -5933.9143    16517.326 
  963000    242.00005   -5911.1495    23.083398   -5934.2329    15174.341 
  963200     343.5976   -5902.6297    32.774374    -5935.404   -1678.5624 
  963400    348.18066    -5904.327    33.211533   -5937.5385   -13092.171 
  963600    269.35497   -5903.8202    25.692672   -5929.5129     -15355.7 
  963800    279.71254   -5903.3482    26.680639   -5930.0288     30711.21 
  964000     258.9487   -5905.2036    24.700061   -5929.9036    14044.942 
  964200    389.08368   -5892.8725    37.113105   -5929.9856    14120.885 
  964400    227.20607    -5905.783    21.672261   -5927.4552   -7520.3026 
  964600    237.88542    -5910.634     22.69092   -5933.3249    2028.7365 
  964800    370.48347   -5891.2645    35.338908   -5926.6034    7891.3816 
  965000    309.29628   -5901.8529    29.502511   -5931.3554    5349.1183 
  965200    225.92532   -5908.0552    21.550094   -5929.6053    4822.6769 
  965400    321.67414   -5899.2751    30.683184   -5929.9583   -12731.965 
  965600    279.07639   -5905.5399    26.619959   -5932.1598    7517.8285 
  965800    314.06215   -5905.7157    29.957107   -5935.6728   -285.20108 
  966000    349.27248   -5897.9253    33.315678   -5931.2409    1733.9509 
  966200    320.29667   -5906.5035    30.551793   -5937.0553   -10037.918 
  966400    321.22461   -5906.0456    30.640306   -5936.6859    3735.0213 
  966600    353.90025     -5903.85    33.757102   -5937.6071   -17040.716 
  966800    323.39752   -5900.3494     30.84757   -5931.1969   -2585.2573 
  967000    266.21313   -5899.5895    25.392985   -5924.9825    3820.0959 
  967200    296.09286   -5907.1039     28.24309    -5935.347   -343.39622 
  967400    285.24149   -5906.6761    27.208022   -5933.8842    20949.446 
  967600    386.41266   -5894.8224    36.858328   -5931.6808     28484.89 
  967800    290.56505   -5904.1313    27.715815   -5931.8471   -22746.985 
  968000    314.38884   -5899.1506    29.988269   -5929.1388   -7320.6129 
  968200    377.93381   -5883.0253    36.049564   -5919.0749    9389.9267 
  968400    322.58732   -5896.6848    30.770289   -5927.4551   -22862.037 
  968600    281.24165   -5901.2497    26.826494   -5928.0762   -16520.048 
  968800    345.84886   -5899.8187    32.989112   -5932.8079   -2250.2575 
  969000    343.31555   -5898.2034     32.74747   -5930.9508    9432.3732 
  969200     290.8251   -5908.9925     27.74062   -5936.7331    9728.4029 
  969400    304.17001   -5901.9658    29.013537   -5930.9794    16071.119 
  969600    326.32395     -5899.25     31.12671   -5930.3767    19492.101 
  969800    284.96004   -5900.0138    27.181176    -5927.195    10057.277 
  970000    255.12548   -5898.5411    24.335379   -5922.8765   -19766.287 
  970200    261.06873   -5891.6286    24.902281   -5916.5309    26157.192 
  970400    207.57416   -5905.2305    19.799653   -5925.0301   -20977.448 
  970600     360.8939   -5898.4025    34.424197   -5932.8267   -1169.1094 
  970800     267.9119   -5899.8635    25.555024   -5925.4185   -1154.1134 
  971000    272.64603    -5902.515    26.006593   -5928.5216   -5383.3747 
  971200    212.17259   -5916.7659    20.238278   -5937.0042    12226.477 
  971400    317.02193   -5903.1278    30.239429   -5933.3672   -11499.383 
  971600    319.68634    -5901.652    30.493576   -5932.1456    9667.0137 
  971800     398.6907   -5892.6952     38.02948   -5930.7247   -9220.3437 
  972000    284.78596   -5907.0235    27.164571   -5934.1881   -7171.8736 
  972200     301.6179   -5899.8895    28.770102   -5928.6596    13742.764 
  972400    343.92478   -5900.2742    32.805583   -5933.0798     521.1289 
  972600    226.38169    -5913.873    21.593626   -5935.4667    11447.139 
  972800    284.95426   -5902.4694    27.180624     -5929.65   -12496.413 
  973000    302.33111    -5903.727    28.838132   -5932.5651    33223.998 
  973200    231.78543   -5911.0553    22.109067   -5933.1644    3890.6857 
  973400    351.88607   -5902.9163    33.564977   -5936.4812    6374.4114 
  973600     322.7285    -5905.336    30.783755   -5936.1197   -19958.587 
  973800    328.58611   -5897.5274    31.342489   -5928.8699   -3268.9161 
  974000    354.45814   -5893.5978    33.810316   -5927.4081    6143.2911 
  974200    249.64967   -5904.4506    23.813064   -5928.2637   -8646.1962 
  974400    312.15779   -5900.6953    29.775458   -5930.4708    8641.0856 
  974600    324.35196   -5895.4846     30.93861   -5926.4232   -2810.1131 
  974800    261.05007   -5905.6737    24.900502   -5930.5742    28506.473 
  975000    274.68091   -5900.8242    26.200692   -5927.0249    5592.6545 
  975200    293.28633   -5899.5043    27.975387   -5927.4797   -482.64178 
  975400    310.45522   -5910.8592    29.613057   -5940.4722   -30711.272 
  975600    282.50955   -5899.9937    26.947434   -5926.9411    10729.924 
  975800    347.93111   -5894.9481    33.187729   -5928.1358    7649.6347 
  976000    284.11355   -5907.6857    27.100433   -5934.7861    7109.0053 
  976200    316.86602   -5894.6754    30.224558   -5924.8999   -4946.6582 
  976400    340.49846   -5897.9288    32.478759   -5930.4076   -6289.4317 
  976600    290.16412   -5910.5274    27.677572   -5938.2049   -18896.012 
  976800    239.28315   -5909.5417    22.824244   -5932.3659   -4790.6494 
  977000      330.805   -5901.8474    31.554139   -5933.4015    5633.6644 
  977200    265.66408   -5905.5378    25.340613   -5930.8784   -10700.365 
  977400    202.71352   -5912.1885    19.336016   -5931.5245     19770.27 
  977600    353.20814   -5899.0224    33.691084   -5932.7135    4730.1475 
  977800    228.88148   -5909.0192    21.832071   -5930.8513    17784.686 
  978000     327.2323   -5901.7947    31.213355   -5933.0081    32571.264 
  978200    336.51645   -5893.7848    32.098932   -5925.8837     -11460.7 
  978400    278.43596   -5903.6189    26.558871   -5930.1778   -2479.8434 
  978600    390.93927   -5893.4357    37.290102   -5930.7258   -1347.1907 
  978800    313.23842    -5895.267    29.878536   -5925.1456    17484.944 
  979000    324.84729   -5903.0353    30.985858   -5934.0211    19473.644 
  979200    332.53853   -5902.7575    31.719494    -5934.477   -3393.7051 
  979400    267.47818    -5903.458    25.513653   -5928.9717    10092.045 
  979600    260.05918   -5908.3918    24.805985   -5933.1978   -15905.885 
  979800    357.94252   -5895.8697    34.142677   -5930.0123   -6272.9386 
  980000    270.85928   -5906.8798    25.836162   -5932.7159   -1634.7067 
  980200    335.42878   -5907.8421    31.995183   -5939.8373    2496.7045 
  980400    203.47446   -5912.0398    19.408599   -5931.4484   -4834.8952 
  980600    319.79247   -5899.0644    30.503699   -5929.5681   -3497.4617 
  980800    354.32548    -5894.483    33.797662   -5928.2807   -32562.869 
  981000    282.83235   -5899.7207    26.978224   -5926.6989    22470.635 
  981200    278.16466   -5905.3821    26.532992   -5931.9151     9499.978 
  981400    319.53101   -5891.1412     30.47876   -5921.6199   -12920.603 
  981600    265.21075     -5901.74    25.297372   -5927.0374    12431.304 
  981800    302.39862   -5901.6937    28.844571   -5930.5382   -8924.5278 
  982000    381.66451    -5891.153    36.405421   -5927.5585    16343.226 
  982200    300.74141   -5905.2452    28.686496   -5933.9317   -9310.7084 
  982400    240.11982   -5902.9411     22.90405   -5925.8451     -2094.26 
  982600    311.54708   -5894.5149    29.717206   -5924.2321     16136.09 
  982800    316.97268   -5886.6842    30.234731    -5916.919   -18728.329 
  983000     261.1354   -5901.9369     24.90864   -5926.8455    881.60398 
  983200    283.62587   -5898.3276    27.053915   -5925.3815    2912.9816 
  983400    396.06058   -5881.7508    37.778603   -5919.5294   -11144.424 
  983600    284.13229   -5900.3229    27.102221   -5927.4251    7892.3539 
  983800     256.0255   -5907.2473    24.421228   -5931.6685    7271.0095 
  984000    332.28813   -5893.3165     31.69561   -5925.0121    19830.507 
  984200    352.68096    -5895.176    33.640799   -5928.8168    3728.4344 
  984400    350.97219   -5901.1104    33.477806   -5934.5882   -3063.2219 
  984600    379.25987   -5891.9662    36.176052   -5928.1422     3826.202 
  984800    314.30001   -5904.1008    29.979797   -5934.0806    13573.129 
  985000    280.46878   -5904.7145    26.752773   -5931.4673    10402.007 
  985200    276.64198   -5900.0861     26.38775   -5926.4738   -319.45438 
  985400    326.37666   -5896.9441    31.131738   -5928.0759   -15894.814 
  985600    283.87227   -5909.2372    27.077418   -5936.3146    12219.275 
  985800    308.37722   -5899.0666    29.414845   -5928.4815     16706.46 
  986000    331.90136    -5898.591    31.658717   -5930.2497     2378.984 
  986200    281.72541   -5905.4418    26.872638   -5932.3144    21515.966 
  986400    316.20804   -5900.7362    30.161796    -5930.898    11828.036 
  986600    311.77347   -5895.5562      29.7388    -5925.295    4365.3858 
  986800    289.98421   -5907.2966    27.660411    -5934.957    9228.0848 
  987000    277.62442   -5905.7267    26.481461   -5932.2082   -3018.1572 
  987200    393.72585   -5890.6779    37.555903   -5928.2338   -32629.947 
  987400    263.72745   -5905.1532    25.155886   -5930.3091   -2575.3838 
  987600    281.67966   -5901.2303    26.868274   -5928.0986    -8053.942 
  987800    321.27746   -5890.1903    30.645347   -5920.8357    13220.553 
  988000    301.37895   -5901.6739    28.747308   -5930.4212   -4443.4139 
  988200    286.97958   -5907.3603    27.373812   -5934.7341   -14745.134 
  988400    380.95035   -5892.3088      36.3373   -5928.6461   -19347.399 
  988600    365.64077   -5898.0812    34.876982   -5932.9582    14511.115 
  988800    317.09619   -5908.9022    30.246513   -5939.1487     -11072.1 
  989000    315.32048   -5903.0686    30.077135   -5933.1458   -18040.918 
  989200    228.11219   -5907.4069    21.758691   -5929.1656    26055.761 
  989400    241.91782   -5912.4076    23.075554   -5935.4831    1238.4412 
  989600    254.99064   -5902.6628    24.322517   -5926.9853   -3305.1493 
  989800    365.90301    -5896.307    34.901996    -5931.209   -985.46581 
  990000    311.33882   -5910.0586     29.69734   -5939.7559    9224.5336 
  990200    274.23804   -5904.4482    26.158448   -5930.6067   -11261.454 
  990400    318.28696   -5894.6764    30.360095   -5925.0365     21710.78 
  990600    334.34599   -5891.4657    31.891901   -5923.3576   -363.31943 
  990800    223.21633   -5903.2444    21.291695   -5924.5361   -28652.253 
  991000    350.01392   -5897.6421      33.3864   -5931.0285    20004.162 
  991200    380.30294   -5896.2072    36.275547   -5932.4827    25939.333 
  991400    326.44194   -5906.2054    31.137965   -5937.3434   -15527.673 
  991600    283.92525   -5904.2199    27.082472   -5931.3024    7243.8786 
  991800    338.72593   -5895.2463    32.309685    -5927.556   -993.30232 
  992000    257.32485   -5910.5182    24.545168   -5935.0634   -12605.805 
  992200    273.23142    -5906.517    26.062431   -5932.5795   -1281.6093 
  992400    322.82087   -5899.7222    30.792566   -5930.5148   -17143.942 
  992600    231.92857   -5912.5784     22.12272   -5934.7012    1120.6564 
  992800    253.85239   -5901.7297    24.213945   -5925.9437    28090.399 
  993000    307.94154   -5896.6082    29.373288   -5925.9815   -2492.6689 
  993200    281.65517   -5906.2795    26.865938   -5933.1454   -13311.687 
  993400    282.60578   -5907.5224    26.956613    -5934.479   -3874.1444 
  993600     387.7168   -5890.4449    36.982724   -5927.4277    13842.792 
  993800    326.30055   -5897.8146    31.124478   -5928.9391   -20776.885 
  994000    277.43081   -5904.0441    26.462993   -5930.5071    -27925.88 
  994200    277.82111   -5901.6715    26.500223   -5928.1717    3356.2468 
  994400    269.07547   -5902.5448    25.666012   -5928.2108     1058.785 
  994600     236.0723   -5911.6899    22.517974   -5934.2078    9461.4005 
  994800    342.60298   -5897.5217    32.679501   -5930.2012   -645.78232 
  995000    309.18904   -5900.9281    29.492281   -5930.4203    11096.034 
  995200    303.10935   -5907.5055    28.912365   -5936.4178     16371.41 
  995400    302.44118   -5906.7626    28.848631   -5935.6112    2402.0954 
  995600     310.3453    -5898.923    29.602572   -5928.5255   -14036.147 
  995800    280.25694   -5906.7311    26.732567   -5933.4637   -6653.7802 
  996000    331.64075   -5902.9729    31.633859   -5934.6068    4342.6775 
  996200    284.18571   -5895.9642    27.107316   -5923.0715    5798.0992 
  996400    329.96149   -5906.6239    31.473681   -5938.0976   -20256.517 
  996600    313.61711   -5908.7031    29.914657   -5938.6177   -10153.494 
  996800    298.11982   -5902.4019    28.436434   -5930.8384   -14244.056 
  997000    293.55404   -5902.7816    28.000922   -5930.7825   -10679.983 
  997200    353.10657   -5889.1578    33.681396   -5922.8392    12783.399 
  997400    347.27575   -5897.3453    33.125218   -5930.4705    4040.7672 
  997600    277.70079   -5905.8819    26.488746   -5932.3706    418.84954 
  997800    299.71122   -5899.4169    28.588231   -5928.0051    4303.7592 
  998000    319.57551   -5895.5383    30.483005   -5926.0213    -16465.43 
  998200    294.69432   -5904.5043    28.109689    -5932.614    16295.104 
  998400    258.26018   -5902.7829    24.634385   -5927.4173    7764.8539 
  998600    325.19922   -5893.1099    31.019427   -5924.1294    15792.784 
  998800    290.75214     -5908.99    27.733661   -5936.7236   -3249.0525 
  999000    335.01845   -5900.3454    31.956044   -5932.3015   -12298.627 
  999200    370.53014   -5895.3884    35.343359   -5930.7318     6731.794 
  999400    299.78516    -5899.058    28.595283   -5927.6533    6622.7221 
  999600    267.96077   -5911.2061    25.559685   -5936.7658    14819.871 
  999800    233.26119   -5911.8164    22.249833   -5934.0662    8363.4549 
 1000000    268.64247   -5904.5014    25.624709   -5930.1261   -2088.7378 
Loop time of 1348.38 on 8 procs for 1000000 steps with 33 atoms

Performance: 16.019 ns/day, 1.498 hours/ns, 741.631 timesteps/s
99.4% CPU use with 8 MPI tasks x no OpenMP threads

MPI task timing breakdown:
Section |  min time  |  avg time  |  max time  |%varavg| %total
---------------------------------------------------------------
Pair    | 984.94     | 1030.3     | 1071.2     |  91.5 | 76.41
Neigh   | 0.44792    | 0.46232    | 0.47217    |   1.2 |  0.03
Comm    | 21.146     | 62.006     | 107.57     | 373.0 |  4.60
Output  | 0.064801   | 0.070559   | 0.10781    |   5.3 |  0.01
Modify  | 253.85     | 254.02     | 254.29     |   0.9 | 18.84
Other   |            | 1.469      |            |       |  0.11

Nlocal:    4.125 ave 9 max 0 min
Histogram: 2 2 0 0 0 0 0 2 1 1
Nghost:    388.875 ave 404 max 374 min
Histogram: 2 0 2 0 0 0 0 2 0 2
Neighs:    420.75 ave 942 max 0 min
Histogram: 2 2 0 0 0 0 0 2 1 1

Total # of neighbors = 3366
Ave neighs/atom = 102
Neighbor list builds = 1083
Dangerous builds = 0

Please see the log.cite file for references relevant to this simulation

Total wall time: 0:22:29
