ITEM: TIMESTEP
0
ITEM: NUMBER OF ATOMS
34
ITEM: BOX BOUNDS pp pp pp
0.0000000000000000e+00 7.0970000000000004e+00
0.0000000000000000e+00 7.0970000000000004e+00
0.0000000000000000e+00 2.4588000000000001e+01
ITEM: ATOMS id type x y z 
2 1 3.339 1.632 13.319 
5 1 4.651 1.581 18.133 
7 1 3.391 1.602 15.981 
8 1 2.166 1.581 18.134 
18 1 3.408 1.581 17.416 
21 1 3.338 2.875 12.602 
23 1 3.367 1.619 14.753 
24 1 3.338 0.39 12.601 
17 1 7.023 2.875 24.28 
19 1 6.997 1.619 22.129 
20 1 7.023 0.39 24.281 
22 1 6.957 1.581 19.466 
25 1 5.714 1.581 18.748 
27 1 6.974 1.602 20.9 
28 1 1.102 1.581 18.748 
30 1 7.024 1.631 23.563 
10 1 6.954 5.232 5.122 
13 1 7.023 3.938 0.307 
15 1 6.994 5.194 2.459 
16 1 7.023 6.423 0.307 
26 1 7.022 5.181 1.025 
29 1 5.711 5.232 5.839 
31 1 6.97 5.211 3.688 
32 1 1.098 5.232 5.84 
1 1 4.647 5.232 6.454 
3 1 3.388 5.211 8.606 
4 1 2.163 5.232 6.454 
6 1 3.338 5.182 11.269 
9 1 3.338 3.939 11.986 
11 1 3.365 5.194 9.834 
12 1 3.338 6.423 11.987 
14 1 3.404 5.232 7.171 
33 2 1.784 4.862 7.712 
34 3 0.808 4.62 7.712 
ITEM: TIMESTEP
10
ITEM: NUMBER OF ATOMS
34
ITEM: BOX BOUNDS pp pp pp
0.0000000000000000e+00 7.0970000000000004e+00
0.0000000000000000e+00 7.0970000000000004e+00
0.0000000000000000e+00 2.4588000000000001e+01
ITEM: ATOMS id type x y z 
2 1 3.33883 1.63354 13.3192 
5 1 4.65683 1.58104 18.1342 
7 1 3.39183 1.60221 15.9715 
8 1 2.16311 1.58093 18.138 
18 1 3.40786 1.58084 17.4151 
21 1 3.33891 2.88454 12.599 
23 1 3.36757 1.61935 14.7628 
24 1 3.33835 0.387742 12.5939 
17 1 7.02594 2.88651 24.2773 
19 1 6.99506 1.61893 22.1145 
20 1 7.02554 0.396215 24.2878 
22 1 6.95705 1.58088 19.4651 
25 1 5.7084 1.58102 18.7469 
27 1 6.97375 1.60215 20.9151 
28 1 1.10493 1.58085 18.7438 
30 1 7.02229 1.63352 23.5638 
10 1 6.96465 5.2299 5.16961 
13 1 7.02233 3.92883 0.313162 
15 1 6.99374 5.197 2.48669 
16 1 7.02173 6.41202 0.301895 
26 1 7.02124 5.18082 1.03034 
29 1 5.71094 5.23056 5.83072 
31 1 6.97331 5.21734 3.69151 
32 1 1.01603 5.14982 6.06831 
1 1 4.71325 5.23562 6.41988 
3 1 3.42262 5.21819 8.58524 
4 1 2.42855 5.38333 6.02959 
6 1 3.33287 5.18206 11.2533 
9 1 3.33583 3.93345 11.9868 
11 1 3.37954 5.1931 9.83767 
12 1 3.33658 6.42072 11.9903 
14 1 3.47495 5.25081 7.15714 
33 2 1.5728 4.76678 7.9152 
34 3 0.642768 4.61037 7.7106 
ITEM: TIMESTEP
20
ITEM: NUMBER OF ATOMS
34
ITEM: BOX BOUNDS pp pp pp
0.0000000000000000e+00 7.0970000000000004e+00
0.0000000000000000e+00 7.0970000000000004e+00
0.0000000000000000e+00 2.4588000000000001e+01
ITEM: ATOMS id type x y z 
2 1 3.34 1.63258 13.3161 
5 1 4.6556 1.58096 18.1333 
7 1 3.39181 1.60196 15.975 
8 1 2.16381 1.58083 18.1378 
18 1 3.40806 1.581 17.4151 
21 1 3.33727 2.88274 12.6 
23 1 3.36808 1.61958 14.7563 
24 1 3.33763 0.386207 12.5938 
17 1 7.02406 2.88574 24.2785 
19 1 6.99607 1.61917 22.1242 
20 1 7.02364 0.387818 24.291 
22 1 6.95693 1.58096 19.4657 
25 1 5.7093 1.58096 18.7475 
27 1 6.97284 1.60181 20.9074 
28 1 1.10453 1.58084 18.7438 
30 1 7.02382 1.63274 23.5665 
10 1 6.9964 5.2259 5.16292 
13 1 7.02289 3.93415 0.315533 
15 1 6.99678 5.19951 2.48934 
16 1 7.02293 6.41751 0.301341 
26 1 7.01984 5.18021 1.0367 
29 1 5.73842 5.22903 5.81237 
31 1 6.97848 5.21749 3.70577 
32 1 1.00295 5.13153 6.10614 
1 1 4.68697 5.23928 6.4456 
3 1 3.41517 5.21897 8.59077 
4 1 2.40393 5.37718 6.04025 
6 1 3.33468 5.18028 11.2532 
9 1 3.33626 3.93839 11.9836 
11 1 3.37898 5.19466 9.80616 
12 1 3.33581 6.42044 11.9882 
14 1 3.47511 5.25327 7.14992 
33 2 1.55251 4.75473 7.95169 
34 3 0.668448 4.64256 7.63444 
ITEM: TIMESTEP
30
ITEM: NUMBER OF ATOMS
34
ITEM: BOX BOUNDS pp pp pp
0.0000000000000000e+00 7.0970000000000004e+00
0.0000000000000000e+00 7.0970000000000004e+00
0.0000000000000000e+00 2.4588000000000001e+01
ITEM: ATOMS id type x y z 
2 1 3.33922 1.63241 13.3122 
5 1 4.6556 1.58097 18.1328 
7 1 3.39219 1.60201 15.9729 
8 1 2.16374 1.58078 18.1377 
18 1 3.40815 1.581 17.4134 
21 1 3.33777 2.88685 12.5967 
23 1 3.368 1.61974 14.7529 
24 1 3.33746 0.380592 12.5913 
17 1 7.02354 2.88682 24.2823 
19 1 6.99644 1.61924 22.1292 
20 1 7.02359 0.382596 24.2914 
22 1 6.95683 1.58102 19.4682 
25 1 5.70963 1.58092 18.7482 
27 1 6.97231 1.60173 20.9083 
28 1 1.10434 1.58076 18.7439 
30 1 7.02488 1.63264 23.5694 
10 1 7.00332 5.22423 5.14408 
13 1 7.02118 3.93655 0.316729 
15 1 7.00308 5.20279 2.4905 
16 1 7.02199 6.41972 0.305408 
26 1 7.01847 5.18116 1.04746 
29 1 5.7467 5.23012 5.80454 
31 1 6.99206 5.21688 3.71188 
32 1 0.979753 5.10332 6.15304 
1 1 4.7072 5.2402 6.44899 
3 1 3.40072 5.22009 8.58488 
4 1 2.40258 5.37779 6.04078 
6 1 3.33718 5.17927 11.2463 
9 1 3.33697 3.9369 11.9829 
11 1 3.37212 5.19624 9.80296 
12 1 3.33607 6.42198 11.9853 
14 1 3.46745 5.25939 7.13395 
33 2 1.54051 4.74063 8.01177 
34 3 0.678994 4.67368 7.56377 
ITEM: TIMESTEP
35
ITEM: NUMBER OF ATOMS
34
ITEM: BOX BOUNDS pp pp pp
0.0000000000000000e+00 7.0970000000000004e+00
0.0000000000000000e+00 7.0970000000000004e+00
0.0000000000000000e+00 2.4588000000000001e+01
ITEM: ATOMS id type x y z 
2 1 3.33872 1.63181 13.3108 
5 1 4.65603 1.58095 18.1326 
7 1 3.3925 1.60208 15.971 
8 1 2.16343 1.58073 18.1376 
18 1 3.40804 1.58102 17.4123 
21 1 3.33793 2.88717 12.5959 
23 1 3.36769 1.61981 14.751 
24 1 3.33684 0.379795 12.59 
17 1 7.02309 2.88661 24.2838 
19 1 6.99656 1.61928 22.1311 
20 1 7.02336 0.381972 24.2909 
22 1 6.9568 1.58102 19.4689 
25 1 5.70965 1.58096 18.7487 
27 1 6.97213 1.60177 20.9102 
28 1 1.10433 1.58074 18.7443 
30 1 7.0254 1.63263 23.5714 
10 1 7.00342 5.22446 5.14562 
13 1 7.02073 3.93642 0.317906 
15 1 7.00715 5.20543 2.48909 
16 1 7.02149 6.42088 0.308055 
26 1 7.01754 5.18173 1.04969 
29 1 5.75011 5.23303 5.7992 
31 1 7.0022 5.21496 3.71053 
32 1 0.983617 5.09799 6.15182 
1 1 4.71284 5.23938 6.45122 
3 1 3.39095 5.22028 8.582 
4 1 2.40776 5.37998 6.03382 
6 1 3.33807 5.17912 11.2456 
9 1 3.33791 3.93696 11.9809 
11 1 3.36645 5.19773 9.79793 
12 1 3.33774 6.42107 11.9829 
14 1 3.46897 5.265 7.11417 
33 2 1.53227 4.73413 8.04359 
34 3 0.668283 4.6741 7.57143 
ITEM: TIMESTEP
40
ITEM: NUMBER OF ATOMS
34
ITEM: BOX BOUNDS pp pp pp
0.0000000000000000e+00 7.0970000000000004e+00
0.0000000000000000e+00 7.0970000000000004e+00
0.0000000000000000e+00 2.4588000000000001e+01
ITEM: ATOMS id type x y z 
2 1 3.33819 1.63167 13.3107 
5 1 4.65606 1.58096 18.1326 
7 1 3.39249 1.60208 15.971 
8 1 2.16338 1.58074 18.1376 
18 1 3.40807 1.58103 17.4122 
21 1 3.33796 2.88569 12.5967 
23 1 3.36773 1.6198 14.751 
24 1 3.33795 0.38081 12.5901 
17 1 7.02314 2.88677 24.2841 
19 1 6.99655 1.61928 22.1307 
20 1 7.02335 0.382403 24.2907 
22 1 6.95683 1.58102 19.4691 
25 1 5.7095 1.58096 18.7486 
27 1 6.97213 1.60178 20.9107 
28 1 1.10446 1.58074 18.7442 
30 1 7.02542 1.63268 23.5714 
10 1 7.00521 5.22422 5.14636 
13 1 7.0206 3.9364 0.31804 
15 1 7.00793 5.2056 2.48952 
16 1 7.02141 6.42041 0.308578 
26 1 7.01733 5.18163 1.04926 
29 1 5.75016 5.23284 5.79894 
31 1 7.00301 5.21504 3.71063 
4 1 2.40523 5.37974 6.03241 
1 1 4.71394 5.23992 6.45096 
3 1 3.39014 5.22012 8.57982 
34 3 0.669523 4.67511 7.5697 
6 1 3.33823 5.17904 11.2453 
9 1 3.33791 3.93848 11.9798 
11 1 3.36603 5.19812 9.79794 
12 1 3.3371 6.41996 11.9822 
14 1 3.46951 5.26526 7.11585 
33 2 1.52992 4.73365 8.04524 
32 1 0.983626 5.09708 6.15399 
ITEM: TIMESTEP
50
ITEM: NUMBER OF ATOMS
34
ITEM: BOX BOUNDS pp pp pp
-2.2181590332031251e-03 7.0992181590332022e+00
-1.4254034460489374e-03 7.0984254034460488e+00
-5.1711765279056745e-03 2.4593171176527907e+01
ITEM: ATOMS id type x y z 
2 1 3.33808 1.6309 13.3112 
5 1 4.65677 1.58017 18.1351 
7 1 3.39239 1.6013 15.9725 
8 1 2.16249 1.57994 18.14 
18 1 3.40798 1.58024 17.4144 
21 1 3.33782 2.88543 12.5968 
23 1 3.36762 1.61902 14.752 
24 1 3.33778 0.379528 12.5902 
17 1 7.02531 2.88652 24.2892 
19 1 6.9987 1.61851 22.1348 
20 1 7.02552 0.381118 24.2957 
22 1 6.95896 1.58023 19.4721 
25 1 5.71083 1.58017 18.7513 
27 1 6.97427 1.601 20.9144 
28 1 1.10296 1.57995 18.7469 
30 1 7.0276 1.63191 23.5761 
10 1 7.00743 5.22489 5.14337 
13 1 7.02277 3.93655 0.313001 
15 1 7.01012 5.20627 2.48543 
16 1 7.02358 6.42158 0.303539 
26 1 7.01949 5.18228 1.04452 
29 1 5.75132 5.23351 5.79635 
31 1 7.0052 5.21571 3.707 
4 1 2.40443 5.38046 6.02975 
1 1 4.71488 5.24062 6.44839 
3 1 3.39001 5.22078 8.57822 
34 3 0.667764 4.6756 7.56766 
6 1 3.3381 5.17969 11.2448 
9 1 3.33778 3.93863 11.9797 
11 1 3.3659 5.1988 9.79684 
12 1 3.337 6.42112 11.9821 
14 1 3.4695 5.26596 7.11368 
33 2 1.52857 4.7341 8.04352 
32 1 0.98205 5.09767 6.15148 
ITEM: TIMESTEP
51
ITEM: NUMBER OF ATOMS
34
ITEM: BOX BOUNDS pp pp pp
-2.2181590332031251e-03 7.0992181590332022e+00
-1.4254034460489374e-03 7.0984254034460488e+00
-5.1711765279056745e-03 2.4593171176527907e+01
ITEM: ATOMS id type x y z 
2 1 3.33808 1.6309 13.3112 
5 1 4.65677 1.58017 18.1351 
7 1 3.39239 1.6013 15.9725 
8 1 2.16249 1.57994 18.14 
18 1 3.40798 1.58024 17.4144 
21 1 3.33782 2.88543 12.5968 
23 1 3.36762 1.61902 14.752 
24 1 3.33778 0.379528 12.5902 
17 1 7.02531 2.88652 24.2892 
19 1 6.9987 1.61851 22.1348 
20 1 7.02552 0.381118 24.2957 
22 1 6.95896 1.58023 19.4721 
25 1 5.71083 1.58017 18.7513 
27 1 6.97427 1.601 20.9144 
28 1 1.10296 1.57995 18.7469 
30 1 7.0276 1.63191 23.5761 
10 1 7.00743 5.22489 5.14337 
13 1 7.02277 3.93655 0.313001 
15 1 7.01012 5.20627 2.48543 
16 1 7.02358 6.42158 0.303539 
26 1 7.01949 5.18228 1.04452 
29 1 5.75132 5.23351 5.79635 
31 1 7.0052 5.21571 3.707 
4 1 2.40443 5.38046 6.02975 
1 1 4.71488 5.24062 6.44839 
3 1 3.39001 5.22078 8.57822 
34 3 0.667764 4.6756 7.56766 
6 1 3.3381 5.17969 11.2448 
9 1 3.33778 3.93863 11.9797 
11 1 3.3659 5.1988 9.79684 
12 1 3.337 6.42112 11.9821 
14 1 3.4695 5.26596 7.11368 
33 2 1.52857 4.7341 8.04352 
32 1 0.98205 5.09767 6.15148 
ITEM: TIMESTEP
52
ITEM: NUMBER OF ATOMS
34
ITEM: BOX BOUNDS pp pp pp
-2.2185057830233432e-03 7.0992185057830222e+00
-1.4256737222815693e-03 7.0984256737222813e+00
-5.1715368229530538e-03 2.4593171536822954e+01
ITEM: ATOMS id type x y z 
2 1 3.33808 1.6309 13.3112 
5 1 4.65677 1.58017 18.1351 
7 1 3.39239 1.6013 15.9725 
8 1 2.16249 1.57994 18.14 
18 1 3.40798 1.58024 17.4144 
21 1 3.33782 2.88543 12.5968 
23 1 3.36762 1.61902 14.752 
24 1 3.33778 0.379527 12.5902 
17 1 7.02531 2.88652 24.2892 
19 1 6.9987 1.61851 22.1348 
20 1 7.02552 0.381118 24.2957 
22 1 6.95896 1.58023 19.4721 
25 1 5.71083 1.58017 18.7513 
27 1 6.97427 1.601 20.9144 
28 1 1.10296 1.57995 18.7469 
30 1 7.0276 1.63191 23.5761 
10 1 7.00743 5.22489 5.14337 
13 1 7.02277 3.93655 0.313001 
15 1 7.01012 5.20627 2.48543 
16 1 7.02358 6.42158 0.303539 
26 1 7.01949 5.18228 1.04452 
29 1 5.75132 5.23351 5.79635 
31 1 7.0052 5.21571 3.707 
4 1 2.40443 5.38046 6.02975 
1 1 4.71488 5.24062 6.44839 
3 1 3.39001 5.22078 8.57822 
34 3 0.667763 4.6756 7.56766 
6 1 3.3381 5.17969 11.2448 
9 1 3.33778 3.93863 11.9797 
11 1 3.3659 5.1988 9.79684 
12 1 3.337 6.42112 11.9821 
14 1 3.4695 5.26596 7.11368 
33 2 1.52857 4.7341 8.04352 
32 1 0.98205 5.09767 6.15148 
ITEM: TIMESTEP
53
ITEM: NUMBER OF ATOMS
34
ITEM: BOX BOUNDS pp pp pp
-2.2185057830233432e-03 7.0992185057830222e+00
-1.4256737222815693e-03 7.0984256737222813e+00
-5.1715368229530538e-03 2.4593171536822954e+01
ITEM: ATOMS id type x y z 
2 1 3.33808 1.6309 13.3112 
5 1 4.65677 1.58017 18.1351 
7 1 3.39239 1.6013 15.9725 
8 1 2.16249 1.57994 18.14 
18 1 3.40798 1.58024 17.4144 
21 1 3.33782 2.88543 12.5968 
23 1 3.36762 1.61902 14.752 
24 1 3.33778 0.379527 12.5902 
17 1 7.02531 2.88652 24.2892 
19 1 6.9987 1.61851 22.1348 
20 1 7.02552 0.381118 24.2957 
22 1 6.95896 1.58023 19.4721 
25 1 5.71083 1.58017 18.7513 
27 1 6.97427 1.601 20.9144 
28 1 1.10296 1.57995 18.7469 
30 1 7.0276 1.63191 23.5761 
10 1 7.00743 5.22489 5.14337 
13 1 7.02277 3.93655 0.313001 
15 1 7.01012 5.20627 2.48543 
16 1 7.02358 6.42158 0.303539 
26 1 7.01949 5.18228 1.04452 
29 1 5.75132 5.23351 5.79635 
31 1 7.0052 5.21571 3.707 
4 1 2.40443 5.38046 6.02975 
1 1 4.71488 5.24062 6.44839 
3 1 3.39001 5.22078 8.57822 
34 3 0.667763 4.6756 7.56766 
6 1 3.3381 5.17969 11.2448 
9 1 3.33778 3.93863 11.9797 
11 1 3.3659 5.1988 9.79684 
12 1 3.337 6.42112 11.9821 
14 1 3.4695 5.26596 7.11368 
33 2 1.52857 4.7341 8.04352 
32 1 0.98205 5.09767 6.15148 
