ITEM: TIMESTEP
0
ITEM: NUMBER OF ATOMS
129
ITEM: BOX BOUNDS xy xz yz pp pp pp
0.0000000000000000e+00 2.3654499999999999e+01 7.8845000000000001e+00
0.0000000000000000e+00 1.3658086643083999e+01 0.0000000000000000e+00
0.0000000000000000e+00 2.5747000000000000e+01 0.0000000000000000e+00
ITEM: ATOMS id type x y z 
18 1 10.522 6.683 2.644 
28 1 5.247 4.273 12.803 
31 1 9.65 6.514 0.446 
62 1 9.171 5.15 12.405 
91 1 9.65 6.514 11.889 
92 1 10.81 6.18 11.007 
106 1 10.522 6.683 9.691 
127 1 10.81 6.18 1.328 
4 1 4.402 5.735 13.319 
5 1 3.307 5.568 14.201 
43 1 4.549 6.796 15.517 
52 1 9.172 5.15 25.677 
66 1 4.402 5.735 24.762 
67 1 5.003 6.76 23.881 
88 1 5.247 4.273 25.278 
107 1 3.307 5.568 23.881 
116 1 4.549 6.796 22.565 
117 1 5.003 6.76 14.201 
11 1 11.272 7.494 3.321 
12 1 10.477 8.871 4.018 
14 1 9.018 11.397 0.446 
15 1 10.114 11.565 1.328 
16 1 8.412 9.024 0.654 
19 1 10.477 8.871 5.569 
29 1 10.927 10.156 3.321 
32 1 8.77 7.648 1.328 
35 1 12.036 9.594 2.644 
45 1 9.231 8.963 3.321 
47 1 12.762 8.702 0.446 
49 1 11.224 11 0.654 
51 1 8.872 10.337 2.644 
53 1 11.272 7.494 9.014 
54 1 10.477 8.871 8.317 
56 1 9.018 11.397 11.889 
57 1 8.418 10.372 11.007 
58 1 11.224 11 11.681 
60 1 12.255 7.901 9.691 
61 1 10.477 8.871 6.766 
73 1 9.231 8.963 9.014 
75 1 12.762 8.702 11.889 
76 1 12.202 10.061 11.007 
79 1 9.224 7.617 9.691 
80 1 8.174 12.859 12.405 
89 1 10.927 10.156 9.014 
93 1 8.412 9.024 11.681 
95 1 9.951 11.095 9.691 
105 1 10.114 11.565 11.007 
109 1 8.77 7.648 11.007 
110 1 12.036 9.594 9.691 
114 1 8.872 10.337 9.691 
119 1 8.418 10.372 1.328 
120 1 12.255 7.901 2.644 
123 1 12.202 10.061 1.328 
124 1 9.224 7.617 2.644 
128 1 9.951 11.095 2.644 
129 2 13.552 10.061 11.007 
6 1 5.009 8.108 13.527 
13 1 9.663 10.28 25.128 
17 1 9.204 8.965 25.162 
30 1 10.016 7.556 25.128 
34 1 11.289 7.464 25.162 
36 1 8.174 12.859 25.677 
46 1 11.752 8.777 25.128 
50 1 10.937 10.184 25.162 
55 1 9.663 10.28 12.954 
59 1 10.937 10.184 12.919 
74 1 11.752 8.777 12.954 
78 1 11.289 7.464 12.919 
90 1 10.016 7.556 12.954 
94 1 9.204 8.965 12.919 
101 1 5.009 8.108 24.555 
33 1 11.795 6.589 0.654 
77 1 11.795 6.589 11.681 
41 1 17.967 6.132 13.527 
68 1 17.967 6.132 24.554 
103 1 19.24 6.037 22.565 
126 1 19.24 6.037 15.517 
3 1 19.528 6.852 12.254 
7 1 19.987 8.167 12.289 
10 1 15.106 8.528 12.804 
22 1 19.175 9.576 12.254 
26 1 17.902 9.668 12.289 
38 1 17.439 8.356 12.254 
42 1 18.254 6.949 12.289 
44 1 20.019 11.982 12.804 
48 1 12.546 7.4 1.328 
65 1 19.528 6.852 0.081 
69 1 18.254 6.949 0.046 
82 1 17.439 8.356 0.081 
86 1 17.902 9.668 0.046 
96 1 14.084 8.604 12.405 
98 1 19.175 9.576 0.081 
102 1 19.987 8.167 0.046 
113 1 12.546 7.4 11.007 
1 1 17.919 9.638 16.194 
2 1 18.714 8.261 16.892 
8 1 18.669 10.449 15.517 
9 1 18.714 8.261 18.442 
20 1 14.084 8.604 25.677 
21 1 18.264 6.977 16.194 
23 1 19.541 10.618 13.32 
24 1 20.421 9.484 14.201 
25 1 17.396 10.544 13.527 
27 1 17.155 7.538 15.517 
37 1 19.96 8.169 16.194 
39 1 16.429 8.43 13.319 
40 1 16.644 9.732 14.201 
63 1 17.919 9.638 21.888 
64 1 18.714 8.261 21.19 
70 1 16.936 9.231 22.565 
71 1 18.714 8.261 19.64 
72 1 20.019 11.982 25.278 
81 1 19.96 8.169 21.888 
83 1 16.429 8.43 24.762 
84 1 16.989 7.071 23.881 
85 1 17.396 10.544 24.555 
87 1 19.967 9.515 22.565 
97 1 18.263 6.977 21.888 
99 1 19.541 10.618 24.762 
100 1 18.38 10.953 23.881 
104 1 15.106 8.528 25.278 
108 1 18.669 10.449 22.565 
111 1 20.421 9.484 23.881 
112 1 17.155 7.538 22.565 
115 1 16.644 9.732 23.881 
118 1 16.936 9.231 15.517 
121 1 16.989 7.071 14.201 
122 1 19.967 9.515 15.517 
125 1 18.38 10.953 14.201 
ITEM: TIMESTEP
10
ITEM: NUMBER OF ATOMS
129
ITEM: BOX BOUNDS xy xz yz pp pp pp
0.0000000000000000e+00 2.3654499999999999e+01 7.8845000000000001e+00
0.0000000000000000e+00 1.3658086643083999e+01 0.0000000000000000e+00
0.0000000000000000e+00 2.5747000000000000e+01 0.0000000000000000e+00
ITEM: ATOMS id type x y z 
18 1 10.3913 6.73545 2.66614 
28 1 5.1252 4.52491 12.8774 
31 1 9.36169 6.49438 0.403782 
62 1 9.13128 5.24992 12.3797 
91 1 9.36378 6.49262 11.9222 
92 1 10.8126 6.16591 10.9506 
106 1 10.3902 6.75081 9.6913 
127 1 10.8366 6.16248 1.35594 
4 1 4.43929 5.82427 13.2363 
5 1 3.20237 5.59352 14.2185 
43 1 4.59158 6.95411 15.4625 
52 1 9.13192 5.25138 25.7029 
66 1 4.47879 5.77044 24.8431 
67 1 5.12798 6.93572 23.8779 
88 1 5.13659 4.50497 25.2071 
107 1 3.1774 5.56247 23.8381 
116 1 4.60021 6.94638 22.5744 
117 1 5.09967 6.93358 14.1908 
11 1 11.3798 7.60736 3.34252 
12 1 10.5015 8.82296 4.13092 
14 1 8.97348 11.3183 0.373439 
15 1 10.215 11.5517 1.3446 
16 1 8.43268 8.91779 0.757014 
19 1 10.473 8.86922 5.53949 
29 1 10.944 10.1283 3.32578 
32 1 8.72343 7.72468 1.26563 
35 1 11.9864 9.59618 2.60562 
45 1 9.25367 8.97166 3.25505 
47 1 12.7603 8.7181 0.547219 
49 1 11.2783 11.0294 0.674229 
51 1 8.83432 10.1764 2.58374 
53 1 11.3049 7.55244 8.96914 
54 1 10.4803 8.77177 8.18521 
56 1 8.94103 11.336 11.9302 
57 1 8.32546 10.2031 11.0174 
58 1 11.189 10.9895 11.7641 
60 1 12.2595 8.0311 9.56105 
61 1 10.4657 8.85675 6.77026 
73 1 9.24648 8.97195 9.09151 
75 1 12.8173 8.71201 11.8354 
76 1 12.3324 10.1681 10.9517 
79 1 9.20882 7.68532 9.79789 
80 1 8.30316 12.5833 12.3238 
89 1 10.8972 10.1506 8.99169 
93 1 8.43083 8.92019 11.6151 
95 1 10.0369 11.0209 9.7149 
105 1 10.1996 11.5363 11.0123 
109 1 8.73189 7.71715 11.0633 
110 1 11.9561 9.57178 9.62847 
114 1 8.85674 10.1942 9.75541 
119 1 8.31699 10.1922 1.32606 
120 1 12.2307 8.0403 2.75228 
123 1 12.2409 10.0679 1.2211 
124 1 9.17718 7.69391 2.53579 
128 1 10.0477 11.0317 2.63738 
129 2 13.727 10.1513 11.0757 
6 1 4.97769 8.18859 13.5883 
13 1 9.58702 10.3182 25.1421 
17 1 9.15399 8.97698 25.1425 
30 1 9.9464 7.71134 25.064 
34 1 11.3061 7.48545 25.1414 
36 1 8.3009 12.5974 25.7532 
46 1 11.6852 8.78069 25.0451 
50 1 11.0617 10.1146 25.2712 
55 1 9.63237 10.3009 12.9597 
59 1 11.0161 10.1241 12.9136 
74 1 11.6686 8.83077 13.0154 
78 1 11.2837 7.5172 12.9655 
90 1 9.90601 7.731 13.0113 
94 1 9.16298 8.95979 12.884 
101 1 5.00586 8.19234 24.5078 
33 1 11.7435 6.59425 0.681525 
77 1 11.7248 6.57638 11.664 
41 1 17.9002 6.14312 13.5459 
68 1 17.8951 6.12315 24.5305 
103 1 19.1335 6.104 22.5579 
126 1 19.1421 6.09576 15.5061 
3 1 19.5852 6.85623 12.3027 
7 1 20.0217 8.1044 12.2853 
10 1 15.1627 8.46769 12.868 
22 1 19.1474 9.41592 12.2004 
26 1 17.9752 9.64143 12.2813 
38 1 17.5149 8.34078 12.1747 
42 1 18.1479 7.02689 12.4317 
44 1 20.0615 11.8886 12.8268 
48 1 12.5967 7.5513 1.37819 
65 1 19.6453 6.76353 0.128353 
69 1 18.1857 7.06942 -0.0538027 
82 1 17.5184 8.39525 0.163311 
86 1 17.9621 9.6664 0.093941 
96 1 14.0496 8.58539 12.3968 
98 1 19.1207 9.43519 0.111854 
102 1 19.9559 8.11374 0.0868205 
113 1 12.6225 7.53364 10.9495 
1 1 17.8217 9.53215 16.2199 
2 1 18.689 8.31002 17.0027 
8 1 18.7942 10.3974 15.541 
9 1 18.7203 8.26532 18.4224 
20 1 14.0375 8.66845 25.7252 
21 1 18.2339 7.00269 16.1928 
23 1 19.8283 10.6415 13.2738 
24 1 20.4654 9.43042 14.138 
25 1 17.4378 10.5287 13.5483 
27 1 17.2019 7.51408 15.44 
37 1 19.9408 8.16015 16.132 
39 1 16.4286 8.40078 13.4233 
40 1 16.5986 9.57048 14.2425 
63 1 17.8423 9.54465 21.879 
64 1 18.68 8.31457 21.0771 
70 1 16.9566 9.09253 22.4659 
71 1 18.7186 8.26572 19.6544 
72 1 20.0577 11.8758 25.2503 
81 1 19.9486 8.16744 21.9453 
83 1 16.4344 8.40859 24.6487 
84 1 16.9633 7.07064 23.9826 
85 1 17.4264 10.5358 24.5198 
87 1 19.9619 9.47137 22.637 
97 1 18.2343 6.99393 21.8823 
99 1 19.8101 10.6396 24.8216 
100 1 18.3823 10.9662 23.8166 
104 1 15.1474 8.46355 25.229 
108 1 18.7901 10.3711 22.5516 
111 1 20.4825 9.45967 23.9449 
112 1 17.1997 7.53259 22.6161 
115 1 16.5989 9.57736 23.8331 
118 1 16.9493 9.08858 15.6112 
121 1 16.993 7.09019 14.0787 
122 1 20.009 9.44305 15.4133 
125 1 18.3565 10.9708 14.2372 
ITEM: TIMESTEP
20
ITEM: NUMBER OF ATOMS
129
ITEM: BOX BOUNDS xy xz yz pp pp pp
0.0000000000000000e+00 2.3654499999999999e+01 7.8845000000000001e+00
0.0000000000000000e+00 1.3658086643083999e+01 0.0000000000000000e+00
0.0000000000000000e+00 2.5747000000000000e+01 0.0000000000000000e+00
ITEM: ATOMS id type x y z 
18 1 10.3862 6.803 2.63485 
28 1 5.09167 4.61545 12.8924 
31 1 9.38828 6.53459 0.398329 
62 1 9.08075 5.27518 12.375 
91 1 9.37736 6.53195 11.9274 
92 1 10.7837 6.19751 10.9685 
106 1 10.3767 6.78567 9.69667 
127 1 10.7853 6.2019 1.3746 
4 1 4.44863 5.82336 13.3013 
5 1 3.19289 5.61869 14.2083 
43 1 4.58169 6.96773 15.4711 
52 1 9.08223 5.28483 25.7095 
66 1 4.45221 5.80915 24.7827 
67 1 5.08704 6.9712 23.8921 
88 1 5.10187 4.60043 25.1849 
107 1 3.17883 5.62738 23.8697 
116 1 4.59089 6.96983 22.601 
117 1 5.10112 6.95471 14.1889 
11 1 11.3311 7.58566 3.37122 
12 1 10.5008 8.83028 4.09943 
14 1 8.98215 11.2722 0.399862 
15 1 10.2223 11.5328 1.34918 
16 1 8.37307 8.91229 0.694843 
19 1 10.4709 8.86373 5.55238 
29 1 10.9605 10.1342 3.33123 
32 1 8.67322 7.66377 1.26965 
35 1 12.0237 9.62041 2.56265 
45 1 9.22731 8.93209 3.26331 
47 1 12.7174 8.7449 0.506175 
49 1 11.3361 11.048 0.67329 
51 1 8.84658 10.1653 2.59867 
53 1 11.3109 7.56383 8.94617 
54 1 10.4584 8.79886 8.21993 
56 1 8.92123 11.3188 11.9017 
57 1 8.30882 10.1705 11.0068 
58 1 11.2321 10.9695 11.7876 
60 1 12.2561 8.06986 9.56744 
61 1 10.4586 8.84632 6.77067 
73 1 9.22382 8.92456 9.06199 
75 1 12.7639 8.69082 11.85 
76 1 12.4274 10.1883 10.9475 
79 1 9.19269 7.65934 9.80146 
80 1 8.3168 12.5198 12.3103 
89 1 10.9296 10.1288 8.97217 
93 1 8.35329 8.91344 11.649 
95 1 10.0312 11.0268 9.70922 
105 1 10.2275 11.5064 11.0117 
109 1 8.67885 7.65153 11.0685 
110 1 11.99 9.56462 9.64911 
114 1 8.85021 10.1624 9.74138 
119 1 8.31745 10.1704 1.31352 
120 1 12.2686 8.06498 2.73725 
123 1 12.2364 10.0886 1.2488 
124 1 9.19465 7.65692 2.54012 
128 1 10.0228 11.0359 2.64119 
129 2 13.733 10.2529 11.0703 
6 1 5.03849 8.21969 13.5521 
13 1 9.65757 10.2448 25.1398 
17 1 9.12834 8.94765 25.1427 
30 1 9.90471 7.73504 25.0459 
34 1 11.2421 7.50642 25.1402 
36 1 8.33021 12.5146 25.7649 
46 1 11.718 8.80112 25.0954 
50 1 11.0617 10.1411 25.2528 
55 1 9.67681 10.2861 12.9887 
59 1 11.0489 10.1337 12.9287 
74 1 11.7095 8.82053 12.9899 
78 1 11.2333 7.50868 12.9335 
90 1 9.90034 7.74366 13.03 
94 1 9.15319 8.95131 12.9067 
101 1 5.01768 8.21489 24.5415 
33 1 11.7194 6.61872 0.710705 
77 1 11.7018 6.63184 11.6398 
41 1 17.8315 6.14202 13.5317 
68 1 17.859 6.16214 24.5275 
103 1 19.1596 6.10495 22.5644 
126 1 19.1643 6.09764 15.5156 
3 1 19.5442 6.88109 12.2385 
7 1 20.0746 8.15131 12.2863 
10 1 15.1415 8.43975 12.8676 
22 1 19.1848 9.38408 12.1338 
26 1 17.9871 9.63325 12.274 
38 1 17.5179 8.30076 12.1852 
42 1 18.1653 7.01277 12.3535 
44 1 20.1162 11.8561 12.8344 
48 1 12.5614 7.55894 1.40976 
65 1 19.5935 6.79968 0.132863 
69 1 18.2284 7.04494 -0.00341005 
82 1 17.5152 8.3488 0.127875 
86 1 17.9494 9.68701 0.0652435 
96 1 14.0344 8.57611 12.3992 
98 1 19.1518 9.41885 0.153039 
102 1 20.0198 8.10715 0.0482223 
113 1 12.5573 7.57289 10.9309 
1 1 17.8531 9.54464 16.2485 
2 1 18.689 8.29296 16.9696 
8 1 18.8107 10.3369 15.5205 
9 1 18.7213 8.26956 18.4345 
20 1 14.0591 8.68298 25.7144 
21 1 18.247 7.00279 16.2065 
23 1 19.8186 10.6266 13.3028 
24 1 20.5102 9.48128 14.1331 
25 1 17.4543 10.5259 13.6042 
27 1 17.1579 7.50452 15.4378 
37 1 19.957 8.19828 16.1279 
39 1 16.4551 8.35409 13.3867 
40 1 16.6327 9.57815 14.2753 
63 1 17.8516 9.53521 21.8311 
64 1 18.6867 8.28683 21.1122 
70 1 16.9305 9.079 22.4758 
71 1 18.7209 8.27013 19.6503 
72 1 20.108 11.8493 25.2479 
81 1 19.9581 8.20724 21.947 
83 1 16.485 8.346 24.7096 
84 1 16.9437 7.03846 23.916 
85 1 17.425 10.4821 24.5145 
87 1 19.9931 9.45936 22.6762 
97 1 18.2388 7.00489 21.8715 
99 1 19.7767 10.6012 24.765 
100 1 18.5005 10.9187 23.8097 
104 1 15.1395 8.44757 25.232 
108 1 18.8121 10.3649 22.5695 
111 1 20.5021 9.4828 23.9589 
112 1 17.1553 7.50532 22.6398 
115 1 16.6277 9.59202 23.8105 
118 1 16.9183 9.07687 15.6051 
121 1 16.9274 7.05304 14.1723 
122 1 19.9948 9.46222 15.4053 
125 1 18.4083 10.9386 14.251 
ITEM: TIMESTEP
30
ITEM: NUMBER OF ATOMS
129
ITEM: BOX BOUNDS xy xz yz pp pp pp
0.0000000000000000e+00 2.3654499999999999e+01 7.8845000000000001e+00
0.0000000000000000e+00 1.3658086643083999e+01 0.0000000000000000e+00
0.0000000000000000e+00 2.5747000000000000e+01 0.0000000000000000e+00
ITEM: ATOMS id type x y z 
18 1 10.3703 6.8092 2.64452 
28 1 5.09594 4.62332 12.8921 
31 1 9.38261 6.56109 0.407767 
62 1 9.04907 5.28268 12.3755 
91 1 9.37259 6.55086 11.9214 
92 1 10.7621 6.21774 10.9697 
106 1 10.3666 6.7915 9.68822 
127 1 10.7664 6.21885 1.36785 
4 1 4.42324 5.85824 13.3152 
5 1 3.17901 5.66223 14.2055 
43 1 4.57134 6.98056 15.4703 
52 1 9.05094 5.29079 25.7076 
66 1 4.43397 5.84161 24.7753 
67 1 5.08348 6.98399 23.8943 
88 1 5.10774 4.60551 25.1832 
107 1 3.16972 5.65827 23.8692 
116 1 4.57719 6.9787 22.6042 
117 1 5.09446 6.97596 14.1883 
11 1 11.3344 7.60106 3.37208 
12 1 10.4986 8.84203 4.09447 
14 1 9.00244 11.244 0.407415 
15 1 10.2356 11.5089 1.34636 
16 1 8.34673 8.89282 0.675787 
19 1 10.4685 8.85989 5.5505 
29 1 10.9513 10.1217 3.32258 
32 1 8.64961 7.64858 1.26485 
35 1 12.0385 9.62144 2.56952 
45 1 9.22838 8.92459 3.26177 
47 1 12.7117 8.77461 0.515997 
49 1 11.3502 11.0338 0.671004 
51 1 8.85033 10.1558 2.59971 
53 1 11.3104 7.58095 8.94673 
54 1 10.458 8.8052 8.22404 
56 1 8.94936 11.2726 11.8944 
57 1 8.31575 10.1588 11.02 
58 1 11.2665 10.9563 11.7916 
60 1 12.2425 8.07947 9.56522 
61 1 10.4553 8.84451 6.76983 
73 1 9.20703 8.91553 9.06831 
75 1 12.7484 8.7204 11.836 
76 1 12.4319 10.2137 10.9476 
79 1 9.18552 7.65009 9.79886 
80 1 8.3087 12.5131 12.3102 
89 1 10.9312 10.1111 8.97517 
93 1 8.33187 8.8918 11.6647 
95 1 10.0277 11.0188 9.69902 
105 1 10.2205 11.4763 11.0232 
109 1 8.64799 7.64346 11.0744 
110 1 12.0208 9.56491 9.65753 
114 1 8.85963 10.1549 9.73161 
119 1 8.32266 10.1466 1.31505 
120 1 12.264 8.07835 2.73703 
123 1 12.2486 10.0951 1.25079 
124 1 9.19065 7.65365 2.54111 
128 1 10.0226 11.0367 2.65182 
129 2 13.7523 10.2894 11.0718 
6 1 5.0622 8.24168 13.5362 
13 1 9.65252 10.2299 25.1415 
17 1 9.11484 8.9474 25.1394 
30 1 9.90764 7.73467 25.0384 
34 1 11.2395 7.49549 25.1322 
36 1 8.32863 12.4995 25.7622 
46 1 11.7009 8.79986 25.1174 
50 1 11.0809 10.1632 25.2482 
55 1 9.67294 10.2822 12.9752 
59 1 11.0599 10.1326 12.9194 
74 1 11.6936 8.81743 12.9785 
78 1 11.2334 7.50714 12.9528 
90 1 9.90132 7.74661 13.0386 
94 1 9.13389 8.96023 12.9111 
101 1 5.0401 8.23306 24.5481 
33 1 11.7064 6.63812 0.712446 
77 1 11.6966 6.64422 11.6309 
41 1 17.8116 6.154 13.5227 
68 1 17.8423 6.186 24.545 
103 1 19.1663 6.10135 22.5548 
126 1 19.1625 6.09308 15.5174 
3 1 19.5526 6.88946 12.2244 
7 1 20.0929 8.15622 12.2925 
10 1 15.1408 8.42774 12.8679 
22 1 19.18 9.38614 12.1029 
26 1 17.9964 9.62204 12.282 
38 1 17.5241 8.29706 12.1973 
42 1 18.1694 6.99112 12.3449 
44 1 20.15 11.8332 12.8401 
48 1 12.5532 7.58081 1.40075 
65 1 19.6052 6.81186 0.136904 
69 1 18.2298 7.02731 0.0175658 
82 1 17.5047 8.32867 0.115983 
86 1 17.962 9.68422 0.0499911 
96 1 14.0272 8.57022 12.4068 
98 1 19.1615 9.41386 0.162714 
102 1 20.005 8.13549 0.0596333 
113 1 12.5378 7.58037 10.9174 
1 1 17.8552 9.53323 16.2483 
2 1 18.7012 8.27686 16.96 
8 1 18.8286 10.3254 15.5293 
9 1 18.7228 8.27051 18.4285 
20 1 14.0582 8.68195 25.7082 
21 1 18.244 7.007 16.2077 
23 1 19.8051 10.6119 13.3252 
24 1 20.5278 9.50201 14.1208 
25 1 17.4674 10.5197 13.6066 
27 1 17.1318 7.49425 15.4586 
37 1 19.9676 8.21022 16.1317 
39 1 16.497 8.3284 13.3979 
40 1 16.642 9.54854 14.2675 
63 1 17.8566 9.53391 21.8307 
64 1 18.6921 8.28698 21.1152 
70 1 16.9241 9.07053 22.4736 
71 1 18.7217 8.27032 19.6443 
72 1 20.1393 11.8419 25.2529 
81 1 19.9649 8.20878 21.9472 
83 1 16.5124 8.32108 24.7037 
84 1 16.9177 7.0481 23.9017 
85 1 17.4282 10.4468 24.5224 
87 1 20.0034 9.46951 22.6741 
97 1 18.2412 7.01037 21.875 
99 1 19.7663 10.6012 24.751 
100 1 18.5502 10.8947 23.8235 
104 1 15.1456 8.44774 25.2338 
108 1 18.8273 10.351 22.5416 
111 1 20.5186 9.49003 23.9666 
112 1 17.1305 7.49788 22.6232 
115 1 16.6328 9.56318 23.8307 
118 1 16.9181 9.07554 15.6116 
121 1 16.9078 7.0517 14.1858 
122 1 19.9983 9.47408 15.3999 
125 1 18.4364 10.922 14.2459 
ITEM: TIMESTEP
40
ITEM: NUMBER OF ATOMS
129
ITEM: BOX BOUNDS xy xz yz pp pp pp
0.0000000000000000e+00 2.3654499999999999e+01 7.8845000000000001e+00
0.0000000000000000e+00 1.3658086643083999e+01 0.0000000000000000e+00
0.0000000000000000e+00 2.5747000000000000e+01 0.0000000000000000e+00
ITEM: ATOMS id type x y z 
18 1 10.3632 6.81355 2.6538 
28 1 5.09005 4.66374 12.9009 
31 1 9.35271 6.56925 0.402668 
62 1 8.99231 5.29678 12.3776 
91 1 9.34621 6.55903 11.9255 
92 1 10.7371 6.24698 10.9703 
106 1 10.3519 6.80137 9.681 
127 1 10.7413 6.24792 1.36378 
4 1 4.42051 5.88954 13.3066 
5 1 3.14019 5.68424 14.2018 
43 1 4.57666 6.98534 15.4665 
52 1 8.99603 5.30721 25.7061 
66 1 4.43077 5.86653 24.7765 
67 1 5.0828 7.01593 23.8999 
88 1 5.10458 4.63938 25.171 
107 1 3.14902 5.69378 23.8746 
116 1 4.57453 6.98697 22.6142 
117 1 5.10112 7.00907 14.1813 
11 1 11.3313 7.61662 3.37529 
12 1 10.4963 8.83158 4.09321 
14 1 9.01179 11.2118 0.411337 
15 1 10.245 11.503 1.34842 
16 1 8.30816 8.86668 0.657755 
19 1 10.4642 8.85506 5.54972 
29 1 10.9603 10.1112 3.31577 
32 1 8.61203 7.63445 1.26979 
35 1 12.0474 9.64131 2.5712 
45 1 9.22974 8.9189 3.25921 
47 1 12.6988 8.79315 0.520855 
49 1 11.3663 11.0545 0.674333 
51 1 8.83815 10.1408 2.59786 
53 1 11.3008 7.59326 8.94245 
54 1 10.451 8.78755 8.21877 
56 1 8.95057 11.2503 11.895 
57 1 8.30965 10.123 11.0245 
58 1 11.2754 10.9598 11.7974 
60 1 12.2373 8.09607 9.55934 
61 1 10.4495 8.8412 6.76779 
73 1 9.20613 8.91193 9.07239 
75 1 12.7331 8.74734 11.8092 
76 1 12.4758 10.2401 10.9367 
79 1 9.15415 7.64749 9.80541 
80 1 8.30803 12.475 12.3024 
89 1 10.9393 10.0949 8.98834 
93 1 8.30616 8.8727 11.6821 
95 1 10.0275 11.0033 9.7002 
105 1 10.2389 11.4518 11.0174 
109 1 8.60594 7.63058 11.0685 
110 1 12.0442 9.57812 9.64892 
114 1 8.83918 10.1415 9.74329 
119 1 8.32264 10.1109 1.30684 
120 1 12.2619 8.10015 2.73722 
123 1 12.2663 10.1068 1.2474 
124 1 9.16174 7.65788 2.53584 
128 1 10.0201 11.036 2.6564 
129 2 13.7855 10.3578 11.0732 
6 1 5.1001 8.26699 13.5189 
13 1 9.67598 10.2122 25.1432 
17 1 9.11254 8.93372 25.1373 
30 1 9.89669 7.73293 25.0258 
34 1 11.2287 7.49782 25.1217 
36 1 8.33223 12.4586 25.7605 
46 1 11.696 8.79778 25.1229 
50 1 11.0918 10.1653 25.2659 
55 1 9.6838 10.2689 12.9654 
59 1 11.0694 10.1283 12.9364 
74 1 11.7026 8.81111 12.9844 
78 1 11.2262 7.50158 12.9489 
90 1 9.8795 7.74665 13.0561 
94 1 9.12331 8.95334 12.9101 
101 1 5.05948 8.25477 24.5654 
33 1 11.6839 6.66371 0.713836 
77 1 11.672 6.66995 11.6359 
41 1 17.7928 6.18134 13.5268 
68 1 17.8282 6.22506 24.5461 
103 1 19.1583 6.10887 22.5566 
126 1 19.1588 6.10142 15.5126 
3 1 19.5673 6.90377 12.2153 
7 1 20.0993 8.17889 12.2808 
10 1 15.1426 8.4031 12.8768 
22 1 19.1833 9.36084 12.0441 
26 1 18.0121 9.59942 12.2849 
38 1 17.5208 8.276 12.1954 
42 1 18.173 6.97432 12.3199 
44 1 20.2208 11.8343 12.8317 
48 1 12.5472 7.60664 1.39835 
65 1 19.6165 6.81457 0.157575 
69 1 18.2443 7.01473 0.042673 
82 1 17.5056 8.31249 0.12317 
86 1 17.9601 9.67517 0.0513919 
96 1 14.0441 8.56045 12.4234 
98 1 19.1683 9.41576 0.188842 
102 1 20.007 8.14791 0.0638917 
113 1 12.5226 7.60213 10.9175 
1 1 17.8591 9.52626 16.2455 
2 1 18.7026 8.2932 16.9698 
8 1 18.8351 10.3152 15.5346 
9 1 18.7262 8.2698 18.4285 
20 1 14.0637 8.68218 25.6963 
21 1 18.2397 7.01603 16.2033 
23 1 19.836 10.6336 13.3255 
24 1 20.5706 9.5042 14.1362 
25 1 17.4806 10.5032 13.6201 
27 1 17.1122 7.48502 15.4861 
37 1 19.9641 8.20985 16.1248 
39 1 16.5098 8.29344 13.3927 
40 1 16.6593 9.52084 14.2681 
63 1 17.8534 9.52731 21.8297 
64 1 18.6957 8.2975 21.1093 
70 1 16.926 9.05501 22.4705 
71 1 18.7246 8.27279 19.6487 
72 1 20.1962 11.8374 25.269 
81 1 19.9703 8.20981 21.9478 
83 1 16.5352 8.2818 24.6957 
84 1 16.8794 7.04084 23.8819 
85 1 17.4603 10.4155 24.5092 
87 1 20.0347 9.47158 22.6668 
97 1 18.2381 7.01806 21.876 
99 1 19.8011 10.6038 24.7508 
100 1 18.5679 10.8643 23.8108 
104 1 15.1539 8.43946 25.2371 
108 1 18.8419 10.3381 22.5344 
111 1 20.5492 9.4982 23.9583 
112 1 17.1093 7.48536 22.5956 
115 1 16.6393 9.52678 23.8273 
118 1 16.9189 9.051 15.6185 
121 1 16.8681 7.03373 14.2187 
122 1 20.023 9.47231 15.404 
125 1 18.442 10.8979 14.2672 
ITEM: TIMESTEP
50
ITEM: NUMBER OF ATOMS
129
ITEM: BOX BOUNDS xy xz yz pp pp pp
0.0000000000000000e+00 2.3654499999999999e+01 7.8845000000000001e+00
0.0000000000000000e+00 1.3658086643083999e+01 0.0000000000000000e+00
0.0000000000000000e+00 2.5747000000000000e+01 0.0000000000000000e+00
ITEM: ATOMS id type x y z 
18 1 10.3585 6.82243 2.65242 
28 1 5.09022 4.67141 12.902 
31 1 9.34637 6.57236 0.401696 
62 1 8.97622 5.3001 12.3785 
91 1 9.3401 6.56299 11.9283 
92 1 10.7292 6.25159 10.9719 
106 1 10.3458 6.80788 9.68044 
127 1 10.7345 6.25399 1.36524 
4 1 4.41608 5.90117 13.3085 
5 1 3.14483 5.69108 14.2007 
43 1 4.57458 6.98587 15.46 
52 1 8.9793 5.30681 25.7039 
66 1 4.43008 5.87525 24.7796 
67 1 5.08455 7.02082 23.904 
88 1 5.10602 4.64479 25.1687 
107 1 3.14747 5.6985 23.8751 
116 1 4.57424 6.98552 22.6153 
117 1 5.09661 7.01607 14.1792 
11 1 11.3287 7.61555 3.37262 
12 1 10.4985 8.82982 4.09384 
14 1 9.01429 11.2055 0.412095 
15 1 10.2435 11.4994 1.35411 
16 1 8.30153 8.86105 0.65403 
19 1 10.4631 8.85399 5.54942 
29 1 10.9541 10.1148 3.31438 
32 1 8.60204 7.63237 1.26796 
35 1 12.0525 9.64258 2.57248 
45 1 9.22569 8.91959 3.25816 
47 1 12.7042 8.79589 0.517201 
49 1 11.3715 11.0568 0.675103 
51 1 8.84206 10.1431 2.59528 
53 1 11.2974 7.59527 8.94287 
54 1 10.4524 8.78785 8.22099 
56 1 8.95429 11.2434 11.893 
57 1 8.30401 10.1187 11.0252 
58 1 11.2829 10.9525 11.7964 
60 1 12.2351 8.10095 9.5568 
61 1 10.4478 8.83959 6.76908 
73 1 9.20248 8.90952 9.07319 
75 1 12.7267 8.75376 11.8115 
76 1 12.4806 10.2452 10.9343 
79 1 9.15004 7.64479 9.804 
80 1 8.30523 12.4697 12.3022 
89 1 10.9372 10.0897 8.99032 
93 1 8.29779 8.86619 11.6835 
95 1 10.0266 10.9958 9.70344 
105 1 10.2429 11.444 11.0192 
109 1 8.59675 7.62629 11.071 
110 1 12.0497 9.58186 9.64978 
114 1 8.8414 10.1415 9.74267 
119 1 8.32177 10.1054 1.30576 
120 1 12.2597 8.10533 2.73858 
123 1 12.2747 10.1136 1.25086 
124 1 9.16128 7.65219 2.53717 
128 1 10.0159 11.029 2.65218 
129 2 13.7919 10.3774 11.0723 
6 1 5.10331 8.27445 13.5183 
13 1 9.67137 10.2077 25.1453 
17 1 9.10996 8.93336 25.1382 
30 1 9.89629 7.73111 25.0231 
34 1 11.2265 7.49484 25.1223 
36 1 8.33192 12.449 25.7592 
46 1 11.6974 8.79553 25.1218 
50 1 11.0938 10.1693 25.2634 
55 1 9.68632 10.2661 12.969 
59 1 11.0729 10.1293 12.9317 
74 1 11.6995 8.80896 12.9778 
78 1 11.2189 7.50409 12.9534 
90 1 9.88599 7.74847 13.0548 
94 1 9.12206 8.94627 12.9141 
101 1 5.06347 8.26039 24.5661 
33 1 11.6793 6.67135 0.712885 
77 1 11.6667 6.67394 11.6336 
41 1 17.7869 6.18754 13.5231 
68 1 17.826 6.22892 24.5499 
103 1 19.1592 6.11294 22.5581 
126 1 19.1597 6.10917 15.5122 
3 1 19.5659 6.90851 12.2199 
7 1 20.1076 8.18185 12.2776 
10 1 15.1461 8.39438 12.8807 
22 1 19.184 9.35612 12.0327 
26 1 18.0186 9.59635 12.2874 
38 1 17.5192 8.2731 12.1949 
42 1 18.1748 6.96983 12.3164 
44 1 20.2368 11.8185 12.8356 
48 1 12.5449 7.60974 1.39673 
65 1 19.6193 6.8185 0.159012 
69 1 18.2461 7.01806 0.0455171 
82 1 17.5103 8.31191 0.123523 
86 1 17.9637 9.66916 0.0541067 
96 1 14.0378 8.56015 12.4229 
98 1 19.1651 9.41555 0.192969 
102 1 20.0061 8.14769 0.0680671 
113 1 12.5214 7.60971 10.9197 
1 1 17.8585 9.52345 16.2478 
2 1 18.7046 8.29224 16.9679 
8 1 18.8428 10.3111 15.5404 
9 1 18.7274 8.27075 18.4294 
20 1 14.0634 8.68257 25.6957 
21 1 18.2426 7.01458 16.2069 
23 1 19.8419 10.6366 13.3408 
24 1 20.5711 9.51459 14.1266 
25 1 17.4854 10.4926 13.6198 
27 1 17.1012 7.47873 15.4908 
37 1 19.9681 8.20895 16.1261 
39 1 16.5124 8.28656 13.3965 
40 1 16.6647 9.5139 14.265 
63 1 17.8544 9.52523 21.8283 
64 1 18.6968 8.30043 21.1093 
70 1 16.9257 9.04882 22.4651 
71 1 18.7254 8.27353 19.6477 
72 1 20.211 11.8329 25.2708 
81 1 19.9691 8.21236 21.9459 
83 1 16.5299 8.27935 24.7008 
84 1 16.8724 7.03647 23.8776 
85 1 17.4613 10.4082 24.5088 
87 1 20.0402 9.47278 22.6659 
97 1 18.239 7.0206 21.8727 
99 1 19.8062 10.6042 24.7497 
100 1 18.5796 10.859 23.8132 
104 1 15.1563 8.43622 25.2368 
108 1 18.849 10.3325 22.531 
111 1 20.5558 9.50273 23.958 
112 1 17.1026 7.48431 22.5907 
115 1 16.6453 9.52124 23.8277 
118 1 16.9196 9.04961 15.6211 
121 1 16.8626 7.03074 14.2194 
122 1 20.0302 9.47642 15.3977 
125 1 18.4514 10.8981 14.2584 
ITEM: TIMESTEP
60
ITEM: NUMBER OF ATOMS
129
ITEM: BOX BOUNDS xy xz yz pp pp pp
0.0000000000000000e+00 2.3654499999999999e+01 7.8845000000000001e+00
0.0000000000000000e+00 1.3658086643083999e+01 0.0000000000000000e+00
0.0000000000000000e+00 2.5747000000000000e+01 0.0000000000000000e+00
ITEM: ATOMS id type x y z 
18 1 10.3499 6.83183 2.65089 
28 1 5.09399 4.68621 12.9028 
31 1 9.33075 6.57753 0.399823 
62 1 8.93226 5.30773 12.3821 
91 1 9.32144 6.56861 11.9319 
92 1 10.711 6.26573 10.9751 
106 1 10.3332 6.81716 9.68134 
127 1 10.7146 6.27053 1.36123 
4 1 4.409 5.92217 13.3076 
5 1 3.13978 5.70751 14.1974 
43 1 4.57585 6.98985 15.4533 
52 1 8.93654 5.31578 25.7013 
66 1 4.42814 5.89356 24.7837 
67 1 5.08706 7.03525 23.9078 
88 1 5.11058 4.65834 25.1626 
107 1 3.14245 5.7148 23.8799 
116 1 4.57552 6.99039 22.6209 
117 1 5.10099 7.04 14.1731 
11 1 11.3265 7.62104 3.36981 
12 1 10.4974 8.82841 4.09094 
14 1 9.01943 11.1892 0.41457 
15 1 10.248 11.4922 1.35684 
16 1 8.28222 8.84972 0.646279 
19 1 10.4602 8.85085 5.54888 
29 1 10.951 10.1112 3.31161 
32 1 8.58127 7.62012 1.26607 
35 1 12.0591 9.65166 2.57283 
45 1 9.2227 8.91612 3.25759 
47 1 12.7105 8.80543 0.512863 
49 1 11.381 11.0617 0.677686 
51 1 8.83867 10.1372 2.58948 
53 1 11.2934 7.60115 8.94512 
54 1 10.4506 8.78365 8.22292 
56 1 8.95774 11.2245 11.8896 
57 1 8.29518 10.1053 11.0292 
58 1 11.2934 10.9408 11.7966 
60 1 12.2318 8.11116 9.5563 
61 1 10.4434 8.83543 6.76735 
73 1 9.19623 8.90675 9.07507 
75 1 12.7233 8.7715 11.8097 
76 1 12.5006 10.2581 10.9279 
79 1 9.13076 7.64193 9.80468 
80 1 8.29969 12.4514 12.3003 
89 1 10.9368 10.0788 8.99426 
93 1 8.28156 8.85531 11.6936 
95 1 10.025 10.984 9.70932 
105 1 10.248 11.4315 11.0218 
109 1 8.57355 7.61782 11.0731 
110 1 12.0634 9.58805 9.64707 
114 1 8.83455 10.1344 9.74696 
119 1 8.31607 10.088 1.30283 
120 1 12.2561 8.11739 2.73764 
123 1 12.2871 10.1236 1.25182 
124 1 9.1454 7.65061 2.53587 
128 1 10.0114 11.0252 2.65018 
129 2 13.8075 10.4284 11.0711 
6 1 5.11672 8.28794 13.5093 
13 1 9.67501 10.1966 25.149 
17 1 9.1054 8.92643 25.137 
30 1 9.89382 7.72959 25.0199 
34 1 11.2231 7.49304 25.1165 
36 1 8.32776 12.4294 25.7536 
46 1 11.6931 8.79476 25.1235 
50 1 11.0994 10.1698 25.2683 
55 1 9.69252 10.2587 12.9667 
59 1 11.0806 10.1308 12.9364 
74 1 11.7002 8.80156 12.9746 
78 1 11.217 7.49781 12.9579 
90 1 9.88302 7.74778 13.0585 
94 1 9.11338 8.94334 12.9128 
101 1 5.07196 8.27338 24.572 
33 1 11.6669 6.68496 0.715197 
77 1 11.6531 6.68819 11.6301 
41 1 17.7787 6.19679 13.5217 
68 1 17.8193 6.23917 24.552 
103 1 19.1582 6.12219 22.5611 
126 1 19.157 6.11744 15.5105 
3 1 19.5655 6.92227 12.2195 
7 1 20.1235 8.1934 12.2628 
10 1 15.141 8.37439 12.8851 
22 1 19.1883 9.33561 11.9983 
26 1 18.0337 9.58487 12.2895 
38 1 17.5121 8.26537 12.1974 
42 1 18.1724 6.96528 12.3069 
44 1 20.2867 11.8001 12.8356 
48 1 12.5387 7.62391 1.39551 
65 1 19.6246 6.82501 0.168061 
69 1 18.2507 7.02096 0.0524508 
82 1 17.5131 8.30747 0.128447 
86 1 17.9659 9.66403 0.0591437 
96 1 14.0372 8.55641 12.4263 
98 1 19.1688 9.41447 0.20449 
102 1 20.01 8.15489 0.0752455 
113 1 12.5116 7.62579 10.9207 
1 1 17.8601 9.5203 16.2483 
2 1 18.7066 8.29555 16.9674 
8 1 18.8551 10.3007 15.5417 
9 1 18.7309 8.27299 18.4296 
20 1 14.0628 8.68354 25.6941 
21 1 18.2435 7.0205 16.2084 
23 1 19.8496 10.6493 13.3734 
24 1 20.5885 9.53219 14.1202 
25 1 17.504 10.4704 13.6218 
27 1 17.0848 7.46981 15.5036 
37 1 19.9712 8.21237 16.1225 
39 1 16.5161 8.26959 13.3994 
40 1 16.6767 9.49348 14.2637 
63 1 17.8564 9.52273 21.827 
64 1 18.6973 8.30584 21.1101 
70 1 16.9257 9.03624 22.4571 
71 1 18.7278 8.27597 19.6469 
72 1 20.2516 11.8235 25.2771 
81 1 19.9734 8.20997 21.946 
83 1 16.5261 8.26579 24.7031 
84 1 16.8605 7.03111 23.8701 
85 1 17.4746 10.3896 24.5046 
87 1 20.0572 9.47552 22.6616 
97 1 18.2376 7.02745 21.8706 
99 1 19.8226 10.604 24.7497 
100 1 18.5986 10.8436 23.8155 
104 1 15.1568 8.4286 25.2372 
108 1 18.8613 10.321 22.5273 
111 1 20.5757 9.51213 23.9576 
112 1 17.0893 7.4766 22.5804 
115 1 16.6595 9.50445 23.8235 
118 1 16.9228 9.03692 15.6252 
121 1 16.8483 7.02302 14.2288 
122 1 20.0399 9.47943 15.3958 
125 1 18.4694 10.892 14.2552 
ITEM: TIMESTEP
70
ITEM: NUMBER OF ATOMS
129
ITEM: BOX BOUNDS xy xz yz pp pp pp
0.0000000000000000e+00 2.3654499999999999e+01 7.8845000000000001e+00
0.0000000000000000e+00 1.3658086643083999e+01 0.0000000000000000e+00
0.0000000000000000e+00 2.5747000000000000e+01 0.0000000000000000e+00
ITEM: ATOMS id type x y z 
18 1 10.3214 6.85575 2.64905 
28 1 5.09324 4.74986 12.9105 
31 1 9.28551 6.57467 0.38746 
62 1 8.81462 5.33287 12.3931 
91 1 9.2783 6.57276 11.9453 
92 1 10.6613 6.30029 10.9883 
106 1 10.3032 6.83877 9.68693 
127 1 10.6753 6.30476 1.34492 
4 1 4.42156 5.96012 13.2994 
5 1 3.1292 5.73128 14.1894 
43 1 4.59036 7.00358 15.4332 
52 1 8.82036 5.33533 25.6897 
66 1 4.43754 5.92245 24.7956 
67 1 5.09806 7.06561 23.9247 
88 1 5.12352 4.69684 25.1465 
107 1 3.13692 5.7436 23.8889 
116 1 4.59052 6.99515 22.6326 
117 1 5.10423 7.06711 14.1523 
11 1 11.3163 7.63429 3.36044 
12 1 10.4927 8.81759 4.09233 
14 1 9.0164 11.1613 0.423319 
15 1 10.2505 11.4842 1.35433 
16 1 8.24031 8.81868 0.629012 
19 1 10.4512 8.84118 5.54785 
29 1 10.9427 10.1076 3.29975 
32 1 8.52759 7.61153 1.26828 
35 1 12.0668 9.67353 2.57366 
45 1 9.21353 8.91703 3.24975 
47 1 12.6998 8.82673 0.517047 
49 1 11.3946 11.0812 0.682264 
51 1 8.82168 10.1252 2.57754 
53 1 11.2813 7.60977 8.9578 
54 1 10.4355 8.76691 8.21793 