ITEM: TIMESTEP
0
ITEM: NUMBER OF ATOMS
200
ITEM: BOX BOUNDS pp pp pp
0.0000000000000000e+00 1.6077000000000002e+01
0.0000000000000000e+00 1.6077000000000002e+01
0.0000000000000000e+00 1.6077000000000002e+01
ITEM: ATOMS id type x y z 
5 1 5.31361 5.31361 5.31361 
24 1 0 5.64013 6.65138 
44 1 6.65138 0 5.64013 
64 1 5.64013 6.65138 0 
65 1 5.68467 6.67662 2.45512 
66 1 5.31264 7.33192 3.68806 
68 1 4.81426 6.5853 4.81426 
76 1 5.64013 0 6.65138 
79 1 5.37052 7.3205 1.22828 
89 1 6.67662 2.45512 5.68467 
90 1 7.33192 3.68806 5.31264 
92 1 6.5853 4.81426 4.81426 
98 1 0 6.65138 5.64013 
101 1 7.3205 1.22828 5.37052 
109 1 2.45512 5.68467 6.67662 
110 1 3.68806 5.31264 7.33192 
112 1 4.81426 4.81426 6.5853 
118 1 6.65138 5.64013 0 
121 1 1.22828 5.37052 7.3205 
129 1 6.67662 5.68467 2.45512 
130 1 7.33192 5.31264 3.68806 
137 1 7.3205 5.37052 1.22828 
141 1 2.45512 6.67662 5.68467 
142 1 3.68806 7.33192 5.31264 
149 1 1.22828 7.3205 5.37052 
153 1 5.68467 2.45512 6.67662 
154 1 5.31264 3.68806 7.33192 
161 1 5.37052 1.22828 7.3205 
6 1 0 5.64013 9.42562 
7 1 6.67662 5.68467 13.6219 
8 1 7.33192 5.31264 12.3889 
10 1 6.5853 4.81426 11.2627 
21 1 7.3205 5.37052 14.8487 
32 1 1.22828 7.3205 10.7065 
39 1 6.65138 0 10.4369 
40 1 2.45512 6.67662 10.3923 
41 1 3.68806 7.33192 10.7644 
43 1 4.81426 6.5853 11.2627 
47 1 5.37052 1.22828 8.7565 
55 1 5.68467 2.45512 9.40038 
56 1 5.31264 3.68806 8.74508 
58 1 4.81426 4.81426 9.4917 
75 1 5.31361 5.31361 10.7634 
82 1 5.64013 0 9.42562 
93 1 0 6.65138 10.4369 
168 1 5.68467 6.67662 13.6219 
169 1 5.31264 7.33192 12.3889 
176 1 5.37052 7.3205 14.8487 
182 1 7.3205 1.22828 10.7065 
186 1 6.67662 2.45512 10.3923 
187 1 7.33192 3.68806 10.7644 
191 1 1.22828 5.37052 8.7565 
195 1 2.45512 5.68467 9.40038 
196 1 3.68806 5.31264 8.74508 
9 1 7.3205 10.7065 1.22828 
18 1 0 10.4369 6.65138 
19 1 6.67662 10.3923 2.45512 
20 1 7.33192 10.7644 3.68806 
22 1 6.5853 11.2627 4.81426 
27 1 1.22828 8.7565 5.37052 
35 1 2.45512 9.40038 5.68467 
36 1 3.68806 8.74508 5.31264 
38 1 4.81426 9.4917 4.81426 
49 1 5.64013 9.42562 0 
50 1 5.68467 13.6219 6.67662 
51 1 5.31264 12.3889 7.33192 
53 1 4.81426 11.2627 6.5853 
62 1 5.37052 14.8487 7.3205 
81 1 5.31361 10.7634 5.31361 
103 1 0 9.42562 5.64013 
113 1 6.65138 10.4369 0 
167 1 5.37052 8.7565 1.22828 
171 1 5.68467 9.40038 2.45512 
172 1 5.31264 8.74508 3.68806 
180 1 6.67662 13.6219 5.68467 
181 1 7.33192 12.3889 5.31264 
188 1 7.3205 14.8487 5.37052 
194 1 1.22828 10.7065 7.3205 
198 1 2.45512 10.3923 6.67662 
199 1 3.68806 10.7644 7.33192 
12 1 0 10.4369 9.42562 
17 1 5.31361 10.7634 10.7634 
73 1 5.37052 8.7565 14.8487 
83 1 5.68467 9.40038 13.6219 
84 1 5.31264 8.74508 12.3889 
86 1 4.81426 9.4917 11.2627 
91 1 7.3205 14.8487 10.7065 
99 1 6.67662 13.6219 10.3923 
100 1 7.33192 12.3889 10.7644 
102 1 6.5853 11.2627 11.2627 
108 1 0 9.42562 10.4369 
114 1 2.45512 10.3923 9.40038 
115 1 3.68806 10.7644 8.74508 
117 1 4.81426 11.2627 9.4917 
126 1 1.22828 10.7065 8.7565 
131 1 7.3205 10.7065 14.8487 
135 1 6.67662 10.3923 13.6219 
136 1 7.33192 10.7644 12.3889 
144 1 2.45512 9.40038 10.3923 
145 1 3.68806 8.74508 10.7644 
152 1 1.22828 8.7565 10.7065 
158 1 5.37052 14.8487 8.7565 
162 1 5.68467 13.6219 9.40038 
163 1 5.31264 12.3889 8.74508 
3 1 8.7565 5.37052 1.22828 
13 1 9.40038 5.68467 2.45512 
14 1 8.74508 5.31264 3.68806 
16 1 9.4917 4.81426 4.81426 
29 1 9.42562 0 5.64013 
30 1 13.6219 6.67662 5.68467 
31 1 12.3889 7.33192 5.31264 
33 1 11.2627 6.5853 4.81426 
42 1 14.8487 7.3205 5.37052 
52 1 10.7065 1.22828 7.3205 
59 1 10.4369 6.65138 0 
60 1 10.3923 2.45512 6.67662 
61 1 10.7644 3.68806 7.33192 
63 1 11.2627 4.81426 6.5853 
70 1 10.4369 0 6.65138 
87 1 10.7634 5.31361 5.31361 
123 1 9.42562 5.64013 0 
170 1 10.7065 7.3205 1.22828 
174 1 10.3923 6.67662 2.45512 
175 1 10.7644 7.33192 3.68806 
179 1 8.7565 1.22828 5.37052 
183 1 9.40038 2.45512 5.68467 
184 1 8.74508 3.68806 5.31264 
192 1 13.6219 5.68467 6.67662 
193 1 12.3889 5.31264 7.33192 
200 1 14.8487 5.37052 7.3205 
23 1 10.7634 5.31361 10.7634 
34 1 9.42562 0 10.4369 
67 1 10.7065 7.3205 14.8487 
77 1 10.3923 6.67662 13.6219 
78 1 10.7644 7.33192 12.3889 
80 1 11.2627 6.5853 11.2627 
88 1 10.4369 0 9.42562 
94 1 9.40038 2.45512 10.3923 
95 1 8.74508 3.68806 10.7644 
97 1 9.4917 4.81426 11.2627 
106 1 8.7565 1.22828 10.7065 
116 1 14.8487 5.37052 8.7565 
124 1 13.6219 5.68467 9.40038 
125 1 12.3889 5.31264 8.74508 
127 1 11.2627 4.81426 9.4917 
134 1 8.7565 5.37052 14.8487 
138 1 9.40038 5.68467 13.6219 
139 1 8.74508 5.31264 12.3889 
143 1 14.8487 7.3205 10.7065 
147 1 13.6219 6.67662 10.3923 
148 1 12.3889 7.33192 10.7644 
156 1 10.3923 2.45512 9.40038 
157 1 10.7644 3.68806 8.74508 
164 1 10.7065 1.22828 8.7565 
11 1 10.7634 10.7634 5.31361 
54 1 10.4369 9.42562 0 
71 1 10.3923 9.40038 2.45512 
72 1 10.7644 8.74508 3.68806 
74 1 11.2627 9.4917 4.81426 
85 1 10.7065 8.7565 1.22828 
96 1 8.7565 14.8487 5.37052 
104 1 9.40038 13.6219 5.68467 
105 1 8.74508 12.3889 5.31264 
107 1 9.4917 11.2627 4.81426 
111 1 14.8487 10.7065 7.3205 
119 1 13.6219 10.3923 6.67662 
120 1 12.3889 10.7644 7.33192 
122 1 11.2627 11.2627 6.5853 
128 1 9.42562 10.4369 0 
132 1 9.40038 10.3923 2.45512 
133 1 8.74508 10.7644 3.68806 
140 1 8.7565 10.7065 1.22828 
146 1 14.8487 8.7565 5.37052 
150 1 13.6219 9.40038 5.68467 
151 1 12.3889 8.74508 5.31264 
155 1 10.7065 14.8487 7.3205 
159 1 10.3923 13.6219 6.67662 
160 1 10.7644 12.3889 7.33192 
1 1 9.40038 10.3923 13.6219 
2 1 8.74508 10.7644 12.3889 
4 1 9.4917 11.2627 11.2627 
15 1 8.7565 10.7065 14.8487 
25 1 13.6219 9.40038 10.3923 
26 1 12.3889 8.74508 10.7644 
28 1 11.2627 9.4917 11.2627 
37 1 14.8487 8.7565 10.7065 
45 1 10.3923 13.6219 9.40038 
46 1 10.7644 12.3889 8.74508 
48 1 11.2627 11.2627 9.4917 
57 1 10.7065 14.8487 8.7565 
69 1 10.7634 10.7634 10.7634 
165 1 10.3923 9.40038 13.6219 
166 1 10.7644 8.74508 12.3889 
173 1 10.7065 8.7565 14.8487 
177 1 9.40038 13.6219 10.3923 
178 1 8.74508 12.3889 10.7644 
185 1 8.7565 14.8487 10.7065 
189 1 13.6219 10.3923 9.40038 
190 1 12.3889 10.7644 8.74508 
197 1 14.8487 10.7065 8.7565 
ITEM: TIMESTEP
10
ITEM: NUMBER OF ATOMS
200
ITEM: BOX BOUNDS pp pp pp
0.0000000000000000e+00 1.6077000000000002e+01
0.0000000000000000e+00 1.6077000000000002e+01
0.0000000000000000e+00 1.6077000000000002e+01
ITEM: ATOMS id type x y z 
5 1 5.3201 5.3201 5.3201 
24 1 -1.55706e-15 5.61501 6.63131 
44 1 6.63131 -9.11208e-16 5.61501 
64 1 5.61501 6.63131 -1.44135e-15 
65 1 5.66039 6.66377 2.46309 
66 1 5.31877 7.32057 3.70908 
68 1 4.82881 6.56489 4.82881 
76 1 5.61501 -2.27182e-15 6.63131 
79 1 5.34051 7.32086 1.22638 
89 1 6.66377 2.46309 5.66039 
90 1 7.32057 3.70908 5.31877 
92 1 6.56489 4.82881 4.82881 
98 1 -1.5534e-15 6.63131 5.61501 
101 1 7.32086 1.22638 5.34051 
109 1 2.46309 5.66039 6.66377 
110 1 3.70908 5.31877 7.32057 
112 1 4.82881 4.82881 6.56489 
118 1 6.63131 5.61501 -1.38864e-15 
121 1 1.22638 5.34051 7.32086 
129 1 6.66377 5.66039 2.46309 
130 1 7.32057 5.31877 3.70908 
137 1 7.32086 5.34051 1.22638 
141 1 2.46309 6.66377 5.66039 
142 1 3.70908 7.32057 5.31877 
149 1 1.22638 7.32086 5.34051 
153 1 5.66039 2.46309 6.66377 
154 1 5.31877 3.70908 7.32057 
161 1 5.34051 1.22638 7.32086 
6 1 -1.32867e-15 5.61501 9.44569 
7 1 6.66377 5.66039 13.6139 
8 1 7.32057 5.31877 12.3679 
10 1 6.56489 4.82881 11.2482 
21 1 7.32086 5.34051 14.8506 
32 1 1.22638 7.32086 10.7365 
39 1 6.63131 1.3899e-15 10.462 
40 1 2.46309 6.66377 10.4166 
41 1 3.70908 7.32057 10.7582 
43 1 4.82881 6.56489 11.2482 
47 1 5.34051 1.22638 8.75614 
55 1 5.66039 2.46309 9.41323 
56 1 5.31877 3.70908 8.75643 
58 1 4.82881 4.82881 9.51211 
75 1 5.3201 5.3201 10.7569 
82 1 5.61501 1.32625e-16 9.44569 
93 1 7.13612e-16 6.63131 10.462 
168 1 5.66039 6.66377 13.6139 
169 1 5.31877 7.32057 12.3679 
176 1 5.34051 7.32086 14.8506 
182 1 7.32086 1.22638 10.7365 
186 1 6.66377 2.46309 10.4166 
187 1 7.32057 3.70908 10.7582 
191 1 1.22638 5.34051 8.75614 
195 1 2.46309 5.66039 9.41323 
196 1 3.70908 5.31877 8.75643 
9 1 7.32086 10.7365 1.22638 
18 1 -2.74971e-16 10.462 6.63131 
19 1 6.66377 10.4166 2.46309 
20 1 7.32057 10.7582 3.70908 
22 1 6.56489 11.2482 4.82881 
27 1 1.22638 8.75614 5.34051 
35 1 2.46309 9.41323 5.66039 
36 1 3.70908 8.75643 5.31877 
38 1 4.82881 9.51211 4.82881 
49 1 5.61501 9.44569 -5.10238e-18 
50 1 5.66039 13.6139 6.66377 
51 1 5.31877 12.3679 7.32057 
53 1 4.82881 11.2482 6.56489 
62 1 5.34051 14.8506 7.32086 
81 1 5.3201 10.7569 5.3201 
103 1 3.73281e-16 9.44569 5.61501 
113 1 6.63131 10.462 9.6993e-16 
167 1 5.34051 8.75614 1.22638 
171 1 5.66039 9.41323 2.46309 
172 1 5.31877 8.75643 3.70908 
180 1 6.66377 13.6139 5.66039 
181 1 7.32057 12.3679 5.31877 
188 1 7.32086 14.8506 5.34051 
194 1 1.22638 10.7365 7.32086 
198 1 2.46309 10.4166 6.66377 
199 1 3.70908 10.7582 7.32057 
12 1 -4.63213e-16 10.462 9.44569 
17 1 5.3201 10.7569 10.7569 
73 1 5.34051 8.75614 14.8506 
83 1 5.66039 9.41323 13.6139 
84 1 5.31877 8.75643 12.3679 
86 1 4.82881 9.51211 11.2482 
91 1 7.32086 14.8506 10.7365 
99 1 6.66377 13.6139 10.4166 
100 1 7.32057 12.3679 10.7582 
102 1 6.56489 11.2482 11.2482 
108 1 -9.24661e-16 9.44569 10.462 
114 1 2.46309 10.4166 9.41323 
115 1 3.70908 10.7582 8.75643 
117 1 4.82881 11.2482 9.51211 
126 1 1.22638 10.7365 8.75614 
131 1 7.32086 10.7365 14.8506 
135 1 6.66377 10.4166 13.6139 
136 1 7.32057 10.7582 12.3679 
144 1 2.46309 9.41323 10.4166 
145 1 3.70908 8.75643 10.7582 
152 1 1.22638 8.75614 10.7365 
158 1 5.34051 14.8506 8.75614 
162 1 5.66039 13.6139 9.41323 
163 1 5.31877 12.3679 8.75643 
3 1 8.75614 5.34051 1.22638 
13 1 9.41323 5.66039 2.46309 
14 1 8.75643 5.31877 3.70908 
16 1 9.51211 4.82881 4.82881 
29 1 9.44569 -1.29896e-16 5.61501 
30 1 13.6139 6.66377 5.66039 
31 1 12.3679 7.32057 5.31877 
33 1 11.2482 6.56489 4.82881 
42 1 14.8506 7.32086 5.34051 
52 1 10.7365 1.22638 7.32086 
59 1 10.462 6.63131 5.42256e-16 
60 1 10.4166 2.46309 6.66377 
61 1 10.7582 3.70908 7.32057 
63 1 11.2482 4.82881 6.56489 
70 1 10.462 3.37756e-16 6.63131 
87 1 10.7569 5.3201 5.3201 
123 1 9.44569 5.61501 1.36156e-16 
170 1 10.7365 7.32086 1.22638 
174 1 10.4166 6.66377 2.46309 
175 1 10.7582 7.32057 3.70908 
179 1 8.75614 1.22638 5.34051 
183 1 9.41323 2.46309 5.66039 
184 1 8.75643 3.70908 5.31877 
192 1 13.6139 5.66039 6.66377 
193 1 12.3679 5.31877 7.32057 
200 1 14.8506 5.34051 7.32086 
23 1 10.7569 5.3201 10.7569 
34 1 9.44569 3.7824e-17 10.462 
67 1 10.7365 7.32086 14.8506 
77 1 10.4166 6.66377 13.6139 
78 1 10.7582 7.32057 12.3679 
80 1 11.2482 6.56489 11.2482 
88 1 10.462 -1.40052e-16 9.44569 
94 1 9.41323 2.46309 10.4166 
95 1 8.75643 3.70908 10.7582 
97 1 9.51211 4.82881 11.2482 
106 1 8.75614 1.22638 10.7365 
116 1 14.8506 5.34051 8.75614 
124 1 13.6139 5.66039 9.41323 
125 1 12.3679 5.31877 8.75643 
127 1 11.2482 4.82881 9.51211 
134 1 8.75614 5.34051 14.8506 
138 1 9.41323 5.66039 13.6139 
139 1 8.75643 5.31877 12.3679 
143 1 14.8506 7.32086 10.7365 
147 1 13.6139 6.66377 10.4166 
148 1 12.3679 7.32057 10.7582 
156 1 10.4166 2.46309 9.41323 
157 1 10.7582 3.70908 8.75643 
164 1 10.7365 1.22638 8.75614 
11 1 10.7569 10.7569 5.3201 
54 1 10.462 9.44569 -8.72474e-16 
71 1 10.4166 9.41323 2.46309 
72 1 10.7582 8.75643 3.70908 
74 1 11.2482 9.51211 4.82881 
85 1 10.7365 8.75614 1.22638 
96 1 8.75614 14.8506 5.34051 
104 1 9.41323 13.6139 5.66039 
105 1 8.75643 12.3679 5.31877 
107 1 9.51211 11.2482 4.82881 
111 1 14.8506 10.7365 7.32086 
119 1 13.6139 10.4166 6.66377 
120 1 12.3679 10.7582 7.32057 
122 1 11.2482 11.2482 6.56489 
128 1 9.44569 10.462 -1.03678e-16 
132 1 9.41323 10.4166 2.46309 
133 1 8.75643 10.7582 3.70908 
140 1 8.75614 10.7365 1.22638 
146 1 14.8506 8.75614 5.34051 
150 1 13.6139 9.41323 5.66039 
151 1 12.3679 8.75643 5.31877 
155 1 10.7365 14.8506 7.32086 
159 1 10.4166 13.6139 6.66377 
160 1 10.7582 12.3679 7.32057 
1 1 9.41323 10.4166 13.6139 
2 1 8.75643 10.7582 12.3679 
4 1 9.51211 11.2482 11.2482 
15 1 8.75614 10.7365 14.8506 
25 1 13.6139 9.41323 10.4166 
26 1 12.3679 8.75643 10.7582 
28 1 11.2482 9.51211 11.2482 
37 1 14.8506 8.75614 10.7365 
45 1 10.4166 13.6139 9.41323 
46 1 10.7582 12.3679 8.75643 
48 1 11.2482 11.2482 9.51211 
57 1 10.7365 14.8506 8.75614 
69 1 10.7569 10.7569 10.7569 
165 1 10.4166 9.41323 13.6139 
166 1 10.7582 8.75643 12.3679 
173 1 10.7365 8.75614 14.8506 
177 1 9.41323 13.6139 10.4166 
178 1 8.75643 12.3679 10.7582 
185 1 8.75614 14.8506 10.7365 
189 1 13.6139 10.4166 9.41323 
190 1 12.3679 10.7582 8.75643 
197 1 14.8506 10.7365 8.75614 
ITEM: TIMESTEP
20
ITEM: NUMBER OF ATOMS
200
ITEM: BOX BOUNDS pp pp pp
0.0000000000000000e+00 1.6077000000000002e+01
0.0000000000000000e+00 1.6077000000000002e+01
0.0000000000000000e+00 1.6077000000000002e+01
ITEM: ATOMS id type x y z 
5 1 5.34281 5.34281 5.34281 
24 1 3.5853e-15 5.6131 6.62949 
44 1 6.62949 9.76037e-15 5.6131 
64 1 5.6131 6.62949 1.01001e-14 
65 1 5.65534 6.65897 2.46366 
66 1 5.3274 7.32154 3.70999 
68 1 4.84306 6.58048 4.84306 
76 1 5.6131 7.27978e-15 6.62949 
79 1 5.3451 7.32098 1.22719 
89 1 6.65897 2.46366 5.65534 
90 1 7.32154 3.70999 5.3274 
92 1 6.58048 4.84306 4.84306 
98 1 9.38176e-15 6.62949 5.6131 
101 1 7.32098 1.22719 5.3451 
109 1 2.46366 5.65534 6.65897 
110 1 3.70999 5.3274 7.32154 
112 1 4.84306 4.84306 6.58048 
118 1 6.62949 5.6131 1.0836e-14 
121 1 1.22719 5.3451 7.32098 
129 1 6.65897 5.65534 2.46366 
130 1 7.32154 5.3274 3.70999 
137 1 7.32098 5.3451 1.22719 
141 1 2.46366 6.65897 5.65534 
142 1 3.70999 7.32154 5.3274 
149 1 1.22719 7.32098 5.3451 
153 1 5.65534 2.46366 6.65897 
154 1 5.3274 3.70999 7.32154 
161 1 5.3451 1.22719 7.32098 
6 1 -2.05585e-15 5.6131 9.44751 
7 1 6.65897 5.65534 13.6133 
8 1 7.32154 5.3274 12.367 
10 1 6.58048 4.84306 11.2339 
21 1 7.32098 5.3451 14.8498 
32 1 1.22719 7.32098 10.7319 
39 1 6.62949 1.95842e-16 10.4639 
40 1 2.46366 6.65897 10.4217 
41 1 3.70999 7.32154 10.7496 
43 1 4.84306 6.58048 11.2339 
47 1 5.3451 1.22719 8.75602 
55 1 5.65534 2.46366 9.41803 
56 1 5.3274 3.70999 8.75546 
58 1 4.84306 4.84306 9.49652 
75 1 5.34281 5.34281 10.7342 
82 1 5.6131 -6.56485e-15 9.44751 
93 1 4.09858e-15 6.62949 10.4639 
168 1 5.65534 6.65897 13.6133 
169 1 5.3274 7.32154 12.367 
176 1 5.3451 7.32098 14.8498 
182 1 7.32098 1.22719 10.7319 
186 1 6.65897 2.46366 10.4217 
187 1 7.32154 3.70999 10.7496 
191 1 1.22719 5.3451 8.75602 
195 1 2.46366 5.65534 9.41803 
196 1 3.70999 5.3274 8.75546 
9 1 7.32098 10.7319 1.22719 
18 1 2.04492e-16 10.4639 6.62949 
19 1 6.65897 10.4217 2.46366 
20 1 7.32154 10.7496 3.70999 
22 1 6.58048 11.2339 4.84306 
27 1 1.22719 8.75602 5.3451 
35 1 2.46366 9.41803 5.65534 
36 1 3.70999 8.75546 5.3274 
38 1 4.84306 9.49652 4.84306 
49 1 5.6131 9.44751 -7.1271e-15 
50 1 5.65534 13.6133 6.65897 
51 1 5.3274 12.367 7.32154 
53 1 4.84306 11.2339 6.58048 
62 1 5.3451 14.8498 7.32098 
81 1 5.34281 10.7342 5.34281 
103 1 -3.92115e-15 9.44751 5.6131 
113 1 6.62949 10.4639 -2.2405e-15 
167 1 5.3451 8.75602 1.22719 
171 1 5.65534 9.41803 2.46366 
172 1 5.3274 8.75546 3.70999 
180 1 6.65897 13.6133 5.65534 
181 1 7.32154 12.367 5.3274 
188 1 7.32098 14.8498 5.3451 
194 1 1.22719 10.7319 7.32098 
198 1 2.46366 10.4217 6.65897 
199 1 3.70999 10.7496 7.32154 
12 1 -2.60331e-15 10.4639 9.44751 
17 1 5.34281 10.7342 10.7342 
73 1 5.3451 8.75602 14.8498 
83 1 5.65534 9.41803 13.6133 
84 1 5.3274 8.75546 12.367 
86 1 4.84306 9.49652 11.2339 
91 1 7.32098 14.8498 10.7319 
99 1 6.65897 13.6133 10.4217 
100 1 7.32154 12.367 10.7496 
102 1 6.58048 11.2339 11.2339 
108 1 -7.16693e-15 9.44751 10.4639 
114 1 2.46366 10.4217 9.41803 
115 1 3.70999 10.7496 8.75546 
117 1 4.84306 11.2339 9.49652 
126 1 1.22719 10.7319 8.75602 
131 1 7.32098 10.7319 14.8498 
135 1 6.65897 10.4217 13.6133 
136 1 7.32154 10.7496 12.367 
144 1 2.46366 9.41803 10.4217 
145 1 3.70999 8.75546 10.7496 
152 1 1.22719 8.75602 10.7319 
158 1 5.3451 14.8498 8.75602 
162 1 5.65534 13.6133 9.41803 
163 1 5.3274 12.367 8.75546 
3 1 8.75602 5.3451 1.22719 
13 1 9.41803 5.65534 2.46366 
14 1 8.75546 5.3274 3.70999 
16 1 9.49652 4.84306 4.84306 
29 1 9.44751 2.52359e-16 5.6131 
30 1 13.6133 6.65897 5.65534 
31 1 12.367 7.32154 5.3274 
33 1 11.2339 6.58048 4.84306 
42 1 14.8498 7.32098 5.3451 
52 1 10.7319 1.22719 7.32098 
59 1 10.4639 6.62949 -1.40851e-15 
60 1 10.4217 2.46366 6.65897 
61 1 10.7496 3.70999 7.32154 
63 1 11.2339 4.84306 6.58048 
70 1 10.4639 -2.03363e-15 6.62949 
87 1 10.7342 5.34281 5.34281 
123 1 9.44751 5.6131 -1.38388e-15 
170 1 10.7319 7.32098 1.22719 
174 1 10.4217 6.65897 2.46366 
175 1 10.7496 7.32154 3.70999 
179 1 8.75602 1.22719 5.3451 
183 1 9.41803 2.46366 5.65534 
184 1 8.75546 3.70999 5.3274 
192 1 13.6133 5.65534 6.65897 
193 1 12.367 5.3274 7.32154 
200 1 14.8498 5.3451 7.32098 
23 1 10.7342 5.34281 10.7342 
34 1 9.44751 -4.63595e-15 10.4639 
67 1 10.7319 7.32098 14.8498 
77 1 10.4217 6.65897 13.6133 
78 1 10.7496 7.32154 12.367 
80 1 11.2339 6.58048 11.2339 
88 1 10.4639 -1.18221e-14 9.44751 
94 1 9.41803 2.46366 10.4217 
95 1 8.75546 3.70999 10.7496 
97 1 9.49652 4.84306 11.2339 
106 1 8.75602 1.22719 10.7319 
116 1 14.8498 5.3451 8.75602 
124 1 13.6133 5.65534 9.41803 
125 1 12.367 5.3274 8.75546 
127 1 11.2339 4.84306 9.49652 
134 1 8.75602 5.3451 14.8498 
138 1 9.41803 5.65534 13.6133 
139 1 8.75546 5.3274 12.367 
143 1 14.8498 7.32098 10.7319 
147 1 13.6133 6.65897 10.4217 
148 1 12.367 7.32154 10.7496 
156 1 10.4217 2.46366 9.41803 
157 1 10.7496 3.70999 8.75546 
164 1 10.7319 1.22719 8.75602 
11 1 10.7342 10.7342 5.34281 
54 1 10.4639 9.44751 -1.24758e-14 
71 1 10.4217 9.41803 2.46366 
72 1 10.7496 8.75546 3.70999 
74 1 11.2339 9.49652 4.84306 
85 1 10.7319 8.75602 1.22719 
96 1 8.75602 14.8498 5.3451 
104 1 9.41803 13.6133 5.65534 
105 1 8.75546 12.367 5.3274 
107 1 9.49652 11.2339 4.84306 
111 1 14.8498 10.7319 7.32098 
119 1 13.6133 10.4217 6.65897 
120 1 12.367 10.7496 7.32154 
122 1 11.2339 11.2339 6.58048 
128 1 9.44751 10.4639 -6.52652e-15 
132 1 9.41803 10.4217 2.46366 
133 1 8.75546 10.7496 3.70999 
140 1 8.75602 10.7319 1.22719 
146 1 14.8498 8.75602 5.3451 
150 1 13.6133 9.41803 5.65534 
151 1 12.367 8.75546 5.3274 
155 1 10.7319 14.8498 7.32098 
159 1 10.4217 13.6133 6.65897 
160 1 10.7496 12.367 7.32154 
1 1 9.41803 10.4217 13.6133 
2 1 8.75546 10.7496 12.367 
4 1 9.49652 11.2339 11.2339 
15 1 8.75602 10.7319 14.8498 
25 1 13.6133 9.41803 10.4217 
26 1 12.367 8.75546 10.7496 
28 1 11.2339 9.49652 11.2339 
37 1 14.8498 8.75602 10.7319 
45 1 10.4217 13.6133 9.41803 
46 1 10.7496 12.367 8.75546 
48 1 11.2339 11.2339 9.49652 
57 1 10.7319 14.8498 8.75602 
69 1 10.7342 10.7342 10.7342 
165 1 10.4217 9.41803 13.6133 
166 1 10.7496 8.75546 12.367 
173 1 10.7319 8.75602 14.8498 
177 1 9.41803 13.6133 10.4217 
178 1 8.75546 12.367 10.7496 
185 1 8.75602 14.8498 10.7319 
189 1 13.6133 10.4217 9.41803 
190 1 12.367 10.7496 8.75546 
197 1 14.8498 10.7319 8.75602 
ITEM: TIMESTEP
30
ITEM: NUMBER OF ATOMS
200
ITEM: BOX BOUNDS pp pp pp
0.0000000000000000e+00 1.6077000000000002e+01
0.0000000000000000e+00 1.6077000000000002e+01
0.0000000000000000e+00 1.6077000000000002e+01
ITEM: ATOMS id type x y z 
5 1 5.37438 5.37438 5.37438 
24 1 3.88418e-14 5.61559 6.63142 
44 1 6.63142 -9.64771e-16 5.61559 
64 1 5.61559 6.63142 -1.6089e-14 
65 1 5.65112 6.65464 2.46441 
66 1 5.33865 7.32297 3.71279 
68 1 4.86469 6.60403 4.86469 
76 1 5.61559 1.04507e-14 6.63142 
79 1 5.34843 7.32069 1.22903 
89 1 6.65464 2.46441 5.65112 
90 1 7.32297 3.71279 5.33865 
92 1 6.60403 4.86469 4.86469 
98 1 -7.78362e-15 6.63142 5.61559 
101 1 7.32069 1.22903 5.34843 
109 1 2.46441 5.65112 6.65464 
110 1 3.71279 5.33865 7.32297 
112 1 4.86469 4.86469 6.60403 
118 1 6.63142 5.61559 -1.07571e-14 
121 1 1.22903 5.34843 7.32069 
129 1 6.65464 5.65112 2.46441 
130 1 7.32297 5.33865 3.71279 
137 1 7.32069 5.34843 1.22903 
141 1 2.46441 6.65464 5.65112 
142 1 3.71279 7.32297 5.33865 
149 1 1.22903 7.32069 5.34843 
153 1 5.65112 2.46441 6.65464 
154 1 5.33865 3.71279 7.32297 
161 1 5.34843 1.22903 7.32069 
6 1 -2.56662e-14 5.61559 9.44558 
7 1 6.65464 5.65112 13.6126 
8 1 7.32297 5.33865 12.3642 
10 1 6.60403 4.86469 11.2123 
21 1 7.32069 5.34843 14.848 
32 1 1.22903 7.32069 10.7286 
39 1 6.63142 9.63567e-16 10.4614 
40 1 2.46441 6.65464 10.4259 
41 1 3.71279 7.32297 10.7384 
43 1 4.86469 6.60403 11.2123 
47 1 5.34843 1.22903 8.75631 
55 1 5.65112 2.46441 9.42236 
56 1 5.33865 3.71279 8.75403 
58 1 4.86469 4.86469 9.47297 
75 1 5.37438 5.37438 10.7026 
82 1 5.61559 -7.17885e-15 9.44558 
93 1 -4.4973e-14 6.63142 10.4614 
168 1 5.65112 6.65464 13.6126 
169 1 5.33865 7.32297 12.3642 
176 1 5.34843 7.32069 14.848 
182 1 7.32069 1.22903 10.7286 
186 1 6.65464 2.46441 10.4259 
187 1 7.32297 3.71279 10.7384 
191 1 1.22903 5.34843 8.75631 
195 1 2.46441 5.65112 9.42236 
196 1 3.71279 5.33865 8.75403 
9 1 7.32069 10.7286 1.22903 
18 1 -8.93006e-15 10.4614 6.63142 
19 1 6.65464 10.4259 2.46441 
20 1 7.32297 10.7384 3.71279 
22 1 6.60403 11.2123 4.86469 
27 1 1.22903 8.75631 5.34843 
35 1 2.46441 9.42236 5.65112 
36 1 3.71279 8.75403 5.33865 
38 1 4.86469 9.47297 4.86469 
49 1 5.61559 9.44558 -3.14822e-14 
50 1 5.65112 13.6126 6.65464 
51 1 5.33865 12.3642 7.32297 
53 1 4.86469 11.2123 6.60403 
62 1 5.34843 14.848 7.32069 
81 1 5.37438 10.7026 5.37438 
103 1 -2.47836e-14 9.44558 5.61559 
113 1 6.63142 10.4614 -7.13601e-15 
167 1 5.34843 8.75631 1.22903 
171 1 5.65112 9.42236 2.46441 
172 1 5.33865 8.75403 3.71279 
180 1 6.65464 13.6126 5.65112 
181 1 7.32297 12.3642 5.33865 
188 1 7.32069 14.848 5.34843 
194 1 1.22903 10.7286 7.32069 
198 1 2.46441 10.4259 6.65464 
199 1 3.71279 10.7384 7.32297 
12 1 5.33872e-14 10.4614 9.44558 
17 1 5.37438 10.7026 10.7026 
73 1 5.34843 8.75631 14.848 
83 1 5.65112 9.42236 13.6126 
84 1 5.33865 8.75403 12.3642 
86 1 4.86469 9.47297 11.2123 
91 1 7.32069 14.848 10.7286 
99 1 6.65464 13.6126 10.4259 
100 1 7.32297 12.3642 10.7384 
102 1 6.60403 11.2123 11.2123 
108 1 3.67124e-14 9.44558 10.4614 
114 1 2.46441 10.4259 9.42236 
115 1 3.71279 10.7384 8.75403 
117 1 4.86469 11.2123 9.47297 
126 1 1.22903 10.7286 8.75631 
131 1 7.32069 10.7286 14.848 
135 1 6.65464 10.4259 13.6126 
136 1 7.32297 10.7384 12.3642 
144 1 2.46441 9.42236 10.4259 
145 1 3.71279 8.75403 10.7384 
152 1 1.22903 8.75631 10.7286 
158 1 5.34843 14.848 8.75631 
162 1 5.65112 13.6126 9.42236 
163 1 5.33865 12.3642 8.75403 
3 1 8.75631 5.34843 1.22903 
13 1 9.42236 5.65112 2.46441 
14 1 8.75403 5.33865 3.71279 
16 1 9.47297 4.86469 4.86469 
29 1 9.44558 -4.77127e-14 5.61559 
30 1 13.6126 6.65464 5.65112 
31 1 12.3642 7.32297 5.33865 
33 1 11.2123 6.60403 4.86469 
42 1 14.848 7.32069 5.34843 
52 1 10.7286 1.22903 7.32069 
59 1 10.4614 6.63142 -3.06782e-14 
60 1 10.4259 2.46441 6.65464 
61 1 10.7384 3.71279 7.32297 
63 1 11.2123 4.86469 6.60403 
70 1 10.4614 -1.07598e-14 6.63142 
87 1 10.7026 5.37438 5.37438 
123 1 9.44558 5.61559 -4.72829e-14 
170 1 10.7286 7.32069 1.22903 
174 1 10.4259 6.65464 2.46441 
175 1 10.7384 7.32297 3.71279 
179 1 8.75631 1.22903 5.34843 
183 1 9.42236 2.46441 5.65112 
184 1 8.75403 3.71279 5.33865 
192 1 13.6126 5.65112 6.65464 
193 1 12.3642 5.33865 7.32297 
200 1 14.848 5.34843 7.32069 
23 1 10.7026 5.37438 10.7026 
34 1 9.44558 7.7411e-14 10.4614 
67 1 10.7286 7.32069 14.848 
77 1 10.4259 6.65464 13.6126 
78 1 10.7384 7.32297 12.3642 
80 1 11.2123 6.60403 11.2123 
88 1 10.4614 4.14351e-14 9.44558 
94 1 9.42236 2.46441 10.4259 
95 1 8.75403 3.71279 10.7384 
97 1 9.47297 4.86469 11.2123 
106 1 8.75631 1.22903 10.7286 
116 1 14.848 5.34843 8.75631 
124 1 13.6126 5.65112 9.42236 
125 1 12.3642 5.33865 8.75403 
127 1 11.2123 4.86469 9.47297 
134 1 8.75631 5.34843 14.848 
138 1 9.42236 5.65112 13.6126 
139 1 8.75403 5.33865 12.3642 
143 1 14.848 7.32069 10.7286 
147 1 13.6126 6.65464 10.4259 
148 1 12.3642 7.32297 10.7384 
156 1 10.4259 2.46441 9.42236 
157 1 10.7384 3.71279 8.75403 
164 1 10.7286 1.22903 8.75631 
11 1 10.7026 10.7026 5.37438 
54 1 10.4614 9.44558 4.57578e-14 
71 1 10.4259 9.42236 2.46441 
72 1 10.7384 8.75403 3.71279 
74 1 11.2123 9.47297 4.86469 
85 1 10.7286 8.75631 1.22903 
96 1 8.75631 14.848 5.34843 
104 1 9.42236 13.6126 5.65112 
105 1 8.75403 12.3642 5.33865 
107 1 9.47297 11.2123 4.86469 
111 1 14.848 10.7286 7.32069 
119 1 13.6126 10.4259 6.65464 
120 1 12.3642 10.7384 7.32297 
122 1 11.2123 11.2123 6.60403 
128 1 9.44558 10.4614 5.94401e-14 
132 1 9.42236 10.4259 2.46441 
133 1 8.75403 10.7384 3.71279 
140 1 8.75631 10.7286 1.22903 
146 1 14.848 8.75631 5.34843 
150 1 13.6126 9.42236 5.65112 
151 1 12.3642 8.75403 5.33865 
155 1 10.7286 14.848 7.32069 
159 1 10.4259 13.6126 6.65464 
160 1 10.7384 12.3642 7.32297 
1 1 9.42236 10.4259 13.6126 
2 1 8.75403 10.7384 12.3642 
4 1 9.47297 11.2123 11.2123 
15 1 8.75631 10.7286 14.848 
25 1 13.6126 9.42236 10.4259 
26 1 12.3642 8.75403 10.7384 
28 1 11.2123 9.47297 11.2123 
37 1 14.848 8.75631 10.7286 
45 1 10.4259 13.6126 9.42236 
46 1 10.7384 12.3642 8.75403 
48 1 11.2123 11.2123 9.47297 
57 1 10.7286 14.848 8.75631 
69 1 10.7026 10.7026 10.7026 
165 1 10.4259 9.42236 13.6126 
166 1 10.7384 8.75403 12.3642 
173 1 10.7286 8.75631 14.848 
177 1 9.42236 13.6126 10.4259 
178 1 8.75403 12.3642 10.7384 
185 1 8.75631 14.848 10.7286 
189 1 13.6126 10.4259 9.42236 
190 1 12.3642 10.7384 8.75403 
197 1 14.848 10.7286 8.75631 
ITEM: TIMESTEP
40
ITEM: NUMBER OF ATOMS
200
ITEM: BOX BOUNDS pp pp pp
0.0000000000000000e+00 1.6077000000000002e+01
0.0000000000000000e+00 1.6077000000000002e+01
0.0000000000000000e+00 1.6077000000000002e+01
ITEM: ATOMS id type x y z 
5 1 5.37705 5.37705 5.37705 
24 1 6.13812e-15 5.61645 6.63223 
44 1 6.63223 -9.11166e-15 5.61645 
64 1 5.61645 6.63223 -1.34271e-14 
65 1 5.65132 6.65482 2.46466 
66 1 5.34021 7.32309 3.71326 
68 1 4.86596 6.60524 4.86596 
76 1 5.61645 -7.25059e-15 6.63223 
79 1 5.34828 7.3208 1.2292 
89 1 6.65482 2.46466 5.65132 
90 1 7.32309 3.71326 5.34021 
92 1 6.60524 4.86596 4.86596 
98 1 -4.45968e-14 6.63223 5.61645 
101 1 7.3208 1.2292 5.34828 
109 1 2.46466 5.65132 6.65482 
110 1 3.71326 5.34021 7.32309 
112 1 4.86596 4.86596 6.60524 
118 1 6.63223 5.61645 -5.48956e-14 
121 1 1.2292 5.34828 7.3208 
129 1 6.65482 5.65132 2.46466 
130 1 7.32309 5.34021 3.71326 
137 1 7.3208 5.34828 1.2292 
141 1 2.46466 6.65482 5.65132 
142 1 3.71326 7.32309 5.34021 
149 1 1.2292 7.3208 5.34828 
153 1 5.65132 2.46466 6.65482 
154 1 5.34021 3.71326 7.32309 
161 1 5.34828 1.2292 7.3208 
6 1 2.00711e-17 5.61645 9.44477 
7 1 6.65482 5.65132 13.6123 
8 1 7.32309 5.34021 12.3637 
10 1 6.60524 4.86596 11.211 
21 1 7.3208 5.34828 14.8478 
32 1 1.2292 7.3208 10.7287 
39 1 6.63223 -1.21187e-14 10.4606 
40 1 2.46466 6.65482 10.4257 
41 1 3.71326 7.32309 10.7368 
43 1 4.86596 6.60524 11.211 
47 1 5.34828 1.2292 8.7562 
55 1 5.65132 2.46466 9.42218 
56 1 5.34021 3.71326 8.75391 
58 1 4.86596 4.86596 9.47176 
75 1 5.37705 5.37705 10.6999 
82 1 5.61645 2.18031e-14 9.44477 
93 1 -8.05623e-15 6.63223 10.4606 
168 1 5.65132 6.65482 13.6123 
169 1 5.34021 7.32309 12.3637 
176 1 5.34828 7.3208 14.8478 
182 1 7.3208 1.2292 10.7287 
186 1 6.65482 2.46466 10.4257 
187 1 7.32309 3.71326 10.7368 
191 1 1.2292 5.34828 8.7562 
195 1 2.46466 5.65132 9.42218 
196 1 3.71326 5.34021 8.75391 
9 1 7.3208 10.7287 1.2292 
18 1 1.0862e-14 10.4606 6.63223 
19 1 6.65482 10.4257 2.46466 
20 1 7.32309 10.7368 3.71326 
22 1 6.60524 11.211 4.86596 
27 1 1.2292 8.7562 5.34828 
35 1 2.46466 9.42218 5.65132 
36 1 3.71326 8.75391 5.34021 
38 1 4.86596 9.47176 4.86596 
49 1 5.61645 9.44477 -2.27349e-14 
50 1 5.65132 13.6123 6.65482 
51 1 5.34021 12.3637 7.32309 
53 1 4.86596 11.211 6.60524 
62 1 5.34828 14.8478 7.3208 
81 1 5.37705 10.6999 5.37705 
103 1 -4.50588e-14 9.44477 5.61645 
113 1 6.63223 10.4606 1.08144e-14 
167 1 5.34828 8.7562 1.2292 
171 1 5.65132 9.42218 2.46466 
172 1 5.34021 8.75391 3.71326 
180 1 6.65482 13.6123 5.65132 
181 1 7.32309 12.3637 5.34021 
188 1 7.3208 14.8478 5.34828 
194 1 1.2292 10.7287 7.3208 
198 1 2.46466 10.4257 6.65482 
199 1 3.71326 10.7368 7.32309 
12 1 5.67466e-14 10.4606 9.44477 
17 1 5.37705 10.6999 10.6999 
73 1 5.34828 8.7562 14.8478 
83 1 5.65132 9.42218 13.6123 
84 1 5.34021 8.75391 12.3637 
86 1 4.86596 9.47176 11.211 
91 1 7.3208 14.8478 10.7287 
99 1 6.65482 13.6123 10.4257 
100 1 7.32309 12.3637 10.7368 
102 1 6.60524 11.211 11.211 
108 1 7.60887e-14 9.44477 10.4606 
114 1 2.46466 10.4257 9.42218 
115 1 3.71326 10.7368 8.75391 
117 1 4.86596 11.211 9.47176 
126 1 1.2292 10.7287 8.7562 
131 1 7.3208 10.7287 14.8478 
135 1 6.65482 10.4257 13.6123 
136 1 7.32309 10.7368 12.3637 
144 1 2.46466 9.42218 10.4257 
145 1 3.71326 8.75391 10.7368 
152 1 1.2292 8.7562 10.7287 
158 1 5.34828 14.8478 8.7562 
162 1 5.65132 13.6123 9.42218 
163 1 5.34021 12.3637 8.75391 
3 1 8.7562 5.34828 1.2292 
13 1 9.42218 5.65132 2.46466 
14 1 8.75391 5.34021 3.71326 
16 1 9.47176 4.86596 4.86596 
29 1 9.44477 -4.1234e-15 5.61645 
30 1 13.6123 6.65482 5.65132 
31 1 12.3637 7.32309 5.34021 
33 1 11.211 6.60524 4.86596 
42 1 14.8478 7.3208 5.34828 
52 1 10.7287 1.2292 7.3208 
59 1 10.4606 6.63223 -1.89208e-14 
60 1 10.4257 2.46466 6.65482 
61 1 10.7368 3.71326 7.32309 
63 1 11.211 4.86596 6.60524 
70 1 10.4606 -2.4871e-14 6.63223 
87 1 10.6999 5.37705 5.37705 
123 1 9.44477 5.61645 -2.91089e-14 
170 1 10.7287 7.3208 1.2292 
174 1 10.4257 6.65482 2.46466 
175 1 10.7368 7.32309 3.71326 
179 1 8.7562 1.2292 5.34828 
183 1 9.42218 2.46466 5.65132 
184 1 8.75391 3.71326 5.34021 
192 1 13.6123 5.65132 6.65482 
193 1 12.3637 5.34021 7.32309 
200 1 14.8478 5.34828 7.3208 
23 1 10.6999 5.37705 10.6999 
34 1 9.44477 3.96406e-14 10.4606 
67 1 10.7287 7.3208 14.8478 
77 1 10.4257 6.65482 13.6123 
78 1 10.7368 7.32309 12.3637 
80 1 11.211 6.60524 11.211 
88 1 10.4606 6.30046e-14 9.44477 
94 1 9.42218 2.46466 10.4257 
95 1 8.75391 3.71326 10.7368 
97 1 9.47176 4.86596 11.211 
106 1 8.7562 1.2292 10.7287 
116 1 14.8478 5.34828 8.7562 
124 1 13.6123 5.65132 9.42218 
125 1 12.3637 5.34021 8.75391 
127 1 11.211 4.86596 9.47176 
134 1 8.7562 5.34828 14.8478 