ITEM: TIMESTEP
0
ITEM: NUMBER OF ATOMS
131
ITEM: BOX BOUNDS xy xz yz pp pp pp
0.0000000000000000e+00 2.3654499999999999e+01 7.8845000000000001e+00
0.0000000000000000e+00 1.3658086643083999e+01 0.0000000000000000e+00
0.0000000000000000e+00 2.5747000000000000e+01 0.0000000000000000e+00
ITEM: ATOMS id type x y z 
18 1 10.522 6.683 2.644 
28 1 5.247 4.273 12.803 
31 1 9.65 6.514 0.446 
62 1 9.171 5.15 12.405 
91 1 9.65 6.514 11.889 
92 1 10.81 6.18 11.007 
106 1 10.522 6.683 9.691 
127 1 10.81 6.18 1.328 
4 1 4.402 5.735 13.319 
5 1 3.307 5.568 14.201 
43 1 4.549 6.796 15.517 
52 1 9.172 5.15 25.677 
66 1 4.402 5.735 24.762 
67 1 5.003 6.76 23.881 
88 1 5.247 4.273 25.278 
107 1 3.307 5.568 23.881 
116 1 4.549 6.796 22.565 
117 1 5.003 6.76 14.201 
11 1 11.272 7.494 3.321 
12 1 10.477 8.871 4.018 
14 1 9.018 11.397 0.446 
15 1 10.114 11.565 1.328 
16 1 8.412 9.024 0.654 
19 1 10.477 8.871 5.569 
29 1 10.927 10.156 3.321 
32 1 8.77 7.648 1.328 
35 1 12.036 9.594 2.644 
45 1 9.231 8.963 3.321 
47 1 12.762 8.702 0.446 
49 1 11.224 11 0.654 
51 1 8.872 10.337 2.644 
53 1 11.272 7.494 9.014 
54 1 10.477 8.871 8.317 
56 1 9.018 11.397 11.889 
57 1 8.418 10.372 11.007 
58 1 11.224 11 11.681 
60 1 12.255 7.901 9.691 
61 1 10.477 8.871 6.766 
73 1 9.231 8.963 9.014 
75 1 12.762 8.702 11.889 
76 1 12.202 10.061 11.007 
79 1 9.224 7.617 9.691 
80 1 8.174 12.859 12.405 
89 1 10.927 10.156 9.014 
93 1 8.412 9.024 11.681 
95 1 9.951 11.095 9.691 
105 1 10.114 11.565 11.007 
109 1 8.77 7.648 11.007 
110 1 12.036 9.594 9.691 
114 1 8.872 10.337 9.691 
119 1 8.418 10.372 1.328 
120 1 12.255 7.901 2.644 
123 1 12.202 10.061 1.328 
124 1 9.224 7.617 2.644 
128 1 9.951 11.095 2.644 
6 1 5.009 8.108 13.527 
13 1 9.663 10.28 25.128 
17 1 9.204 8.965 25.162 
30 1 10.016 7.556 25.128 
34 1 11.289 7.464 25.162 
36 1 8.174 12.859 25.677 
46 1 11.752 8.777 25.128 
50 1 10.937 10.184 25.162 
55 1 9.663 10.28 12.954 
59 1 10.937 10.184 12.919 
74 1 11.752 8.777 12.954 
78 1 11.289 7.464 12.919 
90 1 10.016 7.556 12.954 
94 1 9.204 8.965 12.919 
101 1 5.009 8.108 24.555 
33 1 11.795 6.589 0.654 
77 1 11.795 6.589 11.681 
41 1 17.967 6.132 13.527 
68 1 17.967 6.132 24.554 
103 1 19.24 6.037 22.565 
126 1 19.24 6.037 15.517 
3 1 19.528 6.852 12.254 
7 1 19.987 8.167 12.289 
10 1 15.106 8.528 12.804 
22 1 19.175 9.576 12.254 
26 1 17.902 9.668 12.289 
38 1 17.439 8.356 12.254 
42 1 18.254 6.949 12.289 
44 1 20.019 11.982 12.804 
48 1 12.546 7.4 1.328 
65 1 19.528 6.852 0.081 
69 1 18.254 6.949 0.046 
82 1 17.439 8.356 0.081 
86 1 17.902 9.668 0.046 
96 1 14.084 8.604 12.405 
98 1 19.175 9.576 0.081 
102 1 19.987 8.167 0.046 
113 1 12.546 7.4 11.007 
1 1 17.919 9.638 16.194 
2 1 18.714 8.261 16.892 
8 1 18.669 10.449 15.517 
9 1 18.714 8.261 18.442 
20 1 14.084 8.604 25.677 
21 1 18.264 6.977 16.194 
23 1 19.541 10.618 13.32 
24 1 20.421 9.484 14.201 
25 1 17.396 10.544 13.527 
27 1 17.155 7.538 15.517 
37 1 19.96 8.169 16.194 
39 1 16.429 8.43 13.319 
40 1 16.644 9.732 14.201 
63 1 17.919 9.638 21.888 
64 1 18.714 8.261 21.19 
70 1 16.936 9.231 22.565 
71 1 18.714 8.261 19.64 
72 1 20.019 11.982 25.278 
81 1 19.96 8.169 21.888 
83 1 16.429 8.43 24.762 
84 1 16.989 7.071 23.881 
85 1 17.396 10.544 24.555 
87 1 19.967 9.515 22.565 
97 1 18.263 6.977 21.888 
99 1 19.541 10.618 24.762 
100 1 18.38 10.953 23.881 
104 1 15.106 8.528 25.278 
108 1 18.669 10.449 22.565 
111 1 20.421 9.484 23.881 
112 1 17.155 7.538 22.565 
115 1 16.644 9.732 23.881 
118 1 16.936 9.231 15.517 
121 1 16.989 7.071 14.201 
122 1 19.967 9.515 15.517 
125 1 18.38 10.953 14.201 
129 2 18.714 9.612 18.442 
130 2 18.707 11.032 17.948 
131 3 18.506 11.601 18.723 
ITEM: TIMESTEP
10
ITEM: NUMBER OF ATOMS
131
ITEM: BOX BOUNDS xy xz yz pp pp pp
0.0000000000000000e+00 2.3654499999999999e+01 7.8845000000000001e+00
0.0000000000000000e+00 1.3658086643083999e+01 0.0000000000000000e+00
0.0000000000000000e+00 2.5747000000000000e+01 0.0000000000000000e+00
ITEM: ATOMS id type x y z 
18 1 10.37 6.76544 2.63856 
28 1 5.12485 4.52495 12.8765 
31 1 9.36901 6.46515 0.387713 
62 1 9.1366 5.26829 12.3728 
91 1 9.37034 6.47715 11.9398 
92 1 10.8332 6.18128 10.9573 
106 1 10.3791 6.77081 9.69877 
127 1 10.8328 6.17664 1.36751 
4 1 4.44801 5.80591 13.2357 
5 1 3.20215 5.58727 14.2339 
43 1 4.58284 6.92269 15.454 
52 1 9.14247 5.29448 25.7188 
66 1 4.46323 5.77202 24.8347 
67 1 5.11891 6.94606 23.8941 
88 1 5.13179 4.51274 25.205 
107 1 3.17494 5.58317 23.8638 
116 1 4.62853 6.94275 22.5849 
117 1 5.10976 6.94081 14.1852 
11 1 11.275 7.53805 3.39938 
12 1 10.4898 8.81567 4.14461 
14 1 8.97863 11.3251 0.36406 
15 1 10.2157 11.5455 1.36109 
16 1 8.45551 8.93194 0.726601 
19 1 10.471 8.8661 5.54316 
29 1 10.9345 10.1518 3.3509 
32 1 8.73182 7.71903 1.25979 
35 1 12.0199 9.58914 2.58365 
45 1 9.24678 8.9747 3.25586 
47 1 12.7567 8.72967 0.544124 
49 1 11.2835 11.0177 0.683316 
51 1 8.85442 10.1844 2.58414 
53 1 11.3305 7.56185 8.98536 
54 1 10.4987 8.83815 8.20389 
56 1 8.98932 11.3411 11.951 
57 1 8.31192 10.1922 11.0147 
58 1 11.321 10.935 11.6873 
60 1 12.2609 8.04085 9.60802 
61 1 10.4724 8.8696 6.78938 
73 1 9.24012 8.97155 9.07765 
75 1 12.737 8.78042 11.7634 
76 1 12.2579 10.0613 11.0229 
79 1 9.22987 7.65286 9.78125 
80 1 8.30205 12.5986 12.328 
89 1 10.924 10.1443 8.99688 
93 1 8.42648 8.93709 11.5972 
95 1 10.0363 11.0292 9.71681 
105 1 10.2392 11.5175 10.9888 
109 1 8.7249 7.69525 11.0587 
110 1 12.0332 9.60478 9.73712 
114 1 8.85844 10.1823 9.75116 
119 1 8.31044 10.184 1.32215 
120 1 12.3211 8.08675 2.6911 
123 1 12.2421 10.0659 1.23293 
124 1 9.22001 7.65984 2.54313 
128 1 10.0238 11.0357 2.61317 
6 1 4.96106 8.19252 13.5863 
13 1 9.57407 10.299 25.1574 
17 1 9.16902 8.96305 25.176 
30 1 9.96403 7.73278 25.078 
34 1 11.277 7.49258 25.1483 
36 1 8.29742 12.6051 25.7507 
46 1 11.6643 8.77768 25.0493 
50 1 11.0519 10.1054 25.241 
55 1 9.62047 10.2997 12.9704 
59 1 10.9866 10.0969 12.8789 
74 1 11.6328 8.83032 13.0234 
78 1 11.2483 7.52602 12.9216 
90 1 10.0128 7.70429 13.0051 
94 1 9.15228 8.96746 12.933 
101 1 5.00421 8.19614 24.464 
33 1 11.7261 6.58108 0.682768 
77 1 11.7249 6.59675 11.6667 
41 1 17.8898 6.12104 13.577 
68 1 17.8785 6.17443 24.5247 
103 1 19.1537 6.06192 22.588 
126 1 19.1846 6.07597 15.4728 
3 1 19.636 6.8364 12.2803 
7 1 20.0327 8.14886 12.3158 
10 1 15.1302 8.45916 12.8406 
22 1 19.1813 9.40602 12.2039 
26 1 17.9581 9.647 12.2784 
38 1 17.507 8.3795 12.1538 
42 1 18.1197 7.0058 12.404 
44 1 20.062 11.9125 12.8189 
48 1 12.6063 7.54808 1.37784 
65 1 19.6277 6.73169 0.112211 
69 1 18.2841 7.09612 -0.0397519 
82 1 17.5199 8.35537 0.186528 
86 1 17.95 9.67962 0.0970214 
96 1 14.0361 8.67587 12.3571 
98 1 19.1355 9.45961 0.107143 
102 1 19.9195 8.09554 0.105908 
113 1 12.599 7.55157 10.9616 
1 1 17.9 9.56167 16.2581 
2 1 18.6891 8.28955 16.8958 
8 1 18.813 10.385 15.517 
9 1 18.7149 8.47838 18.5072 
20 1 14.0534 8.66751 25.7173 
21 1 18.2447 6.98036 16.2277 
23 1 19.8254 10.6205 13.2761 
24 1 20.4588 9.41412 14.1162 
25 1 17.4603 10.5553 13.5394 
27 1 17.1434 7.55816 15.4156 
37 1 19.9462 8.13154 16.1401 
39 1 16.4308 8.38223 13.4307 
40 1 16.5715 9.5836 14.2626 
63 1 17.8794 9.61172 21.7994 
64 1 18.688 8.3238 21.0965 
70 1 16.8564 9.0266 22.5223 
71 1 18.7159 8.2128 19.6795 
72 1 20.0611 11.9103 25.2615 
81 1 19.9571 8.17293 21.9743 
83 1 16.4298 8.3615 24.6303 
84 1 16.975 7.06938 23.9378 
85 1 17.455 10.5667 24.5141 
87 1 19.9813 9.44401 22.6541 
97 1 18.2233 6.95574 21.867 
99 1 19.8164 10.6077 24.8014 
100 1 18.3512 10.9634 23.8533 
104 1 15.1302 8.46539 25.2359 
108 1 18.8363 10.4061 22.5565 
111 1 20.4643 9.42598 23.942 
112 1 17.1671 7.54913 22.6665 
115 1 16.5778 9.58332 23.8224 
118 1 16.878 9.01871 15.5537 
121 1 16.9946 7.07902 14.086 
122 1 20.0018 9.49625 15.4029 
125 1 18.3514 10.973 14.234 
129 2 18.7191 9.52409 18.4461 
130 2 18.7093 11.0611 17.9626 
131 3 18.5074 11.5892 18.7188 
ITEM: TIMESTEP
20
ITEM: NUMBER OF ATOMS
131
ITEM: BOX BOUNDS xy xz yz pp pp pp
0.0000000000000000e+00 2.3654499999999999e+01 7.8845000000000001e+00
0.0000000000000000e+00 1.3658086643083999e+01 0.0000000000000000e+00
0.0000000000000000e+00 2.5747000000000000e+01 0.0000000000000000e+00
ITEM: ATOMS id type x y z 
18 1 10.3894 6.77563 2.65179 
28 1 5.11029 4.56463 12.8817 
31 1 9.39964 6.52585 0.404975 
62 1 9.11475 5.28352 12.3688 
91 1 9.37458 6.47183 11.9325 
92 1 10.8134 6.18722 10.9572 
106 1 10.3871 6.77063 9.69628 
127 1 10.8009 6.18791 1.36739 
4 1 4.45017 5.81151 13.2661 
5 1 3.20643 5.59257 14.2124 
43 1 4.59122 6.93408 15.4654 
52 1 9.11324 5.2698 25.7078 
66 1 4.45444 5.77815 24.7971 
67 1 5.09422 6.94873 23.8923 
88 1 5.11716 4.55147 25.1949 
107 1 3.1896 5.6156 23.8759 
116 1 4.60667 6.94178 22.5957 
117 1 5.10612 6.9227 14.1825 
11 1 11.2468 7.56313 3.40679 
12 1 10.5071 8.81058 4.09096 
14 1 8.98292 11.3112 0.389816 
15 1 10.2124 11.5333 1.33706 
16 1 8.40683 8.93362 0.702563 
19 1 10.4697 8.8634 5.55916 
29 1 10.9552 10.1288 3.32797 
32 1 8.71349 7.66615 1.27308 
35 1 12.023 9.59719 2.57945 
45 1 9.23674 8.94167 3.26108 
47 1 12.7248 8.76246 0.51274 
49 1 11.3206 11.0069 0.686932 
51 1 8.84129 10.1737 2.5949 
53 1 11.3326 7.57275 8.97448 
54 1 10.4897 8.8481 8.23705 
56 1 8.99413 11.344 11.9242 
57 1 8.31289 10.197 11.0244 
58 1 11.3493 10.9364 11.6776 
60 1 12.2684 8.03615 9.60639 
61 1 10.4708 8.869 6.77586 
73 1 9.23517 8.93696 9.06823 
75 1 12.7235 8.80162 11.7781 
76 1 12.2649 10.0752 11.0039 
79 1 9.20952 7.66133 9.78414 
80 1 8.32084 12.5565 12.3179 
89 1 10.9459 10.1388 8.99073 
93 1 8.39315 8.91427 11.6422 
95 1 10.0453 11.0415 9.70218 
105 1 10.2381 11.4972 11.0164 
109 1 8.70195 7.67435 11.0492 
110 1 12.0457 9.62385 9.73217 
114 1 8.85011 10.1771 9.73648 
119 1 8.31798 10.1921 1.31614 
120 1 12.3088 8.10639 2.67668 
123 1 12.2196 10.0745 1.23862 
124 1 9.20444 7.67267 2.55095 
128 1 10.0443 11.0352 2.64743 
6 1 5.01351 8.19805 13.5726 
13 1 9.61734 10.2819 25.144 
17 1 9.1532 8.95555 25.156 
30 1 9.92882 7.72217 25.065 
34 1 11.2697 7.48961 25.1445 
36 1 8.31324 12.5639 25.7561 
46 1 11.6966 8.79512 25.0854 
50 1 11.0541 10.1308 25.2471 
55 1 9.60159 10.2702 13.0034 
59 1 10.9985 10.1344 12.8875 
74 1 11.6506 8.84323 13.0218 
78 1 11.25 7.49984 12.927 
90 1 9.97672 7.74136 13.0424 
94 1 9.13997 8.95838 12.9175 
101 1 4.99308 8.19589 24.5277 
33 1 11.7288 6.60208 0.699072 
77 1 11.7334 6.60414 11.6388 
41 1 17.8722 6.12908 13.5525 
68 1 17.8686 6.1869 24.5304 
103 1 19.1522 6.09835 22.5722 
126 1 19.1699 6.08997 15.5061 
3 1 19.5724 6.84121 12.2604 
7 1 20.054 8.15386 12.2863 
10 1 15.1309 8.4537 12.8398 
22 1 19.1814 9.33499 12.1558 
26 1 17.8806 9.69331 12.2763 
38 1 17.5929 8.38325 12.1772 
42 1 18.1504 6.98364 12.3791 
44 1 20.0833 11.8758 12.8306 
48 1 12.5872 7.5458 1.40933 
65 1 19.6276 6.76794 0.135927 
69 1 18.2609 7.08427 -0.0093106 
82 1 17.525 8.34008 0.148355 
86 1 17.9531 9.66686 0.0931367 
96 1 14.0353 8.6827 12.3561 
98 1 19.1416 9.44218 0.129273 
102 1 19.983 8.1007 0.0533528 
113 1 12.5702 7.55168 10.9435 
1 1 17.9578 9.54216 16.2708 
2 1 18.6799 8.29141 16.8678 
8 1 18.8088 10.3571 15.5145 
9 1 18.7192 8.4662 18.5049 
20 1 14.0479 8.67598 25.7163 
21 1 18.2293 6.99734 16.2166 
23 1 19.8012 10.6312 13.2864 
24 1 20.4839 9.47353 14.144 
25 1 17.4514 10.547 13.5783 
27 1 17.1384 7.53243 15.4403 
37 1 19.9562 8.18243 16.1309 
39 1 16.4506 8.37039 13.3948 
40 1 16.5921 9.58781 14.2747 
63 1 17.9348 9.58971 21.819 
64 1 18.6725 8.30967 21.1111 
70 1 16.8702 9.04632 22.53 
71 1 18.7132 8.22017 19.714 
72 1 20.0799 11.8704 25.2483 
81 1 19.9482 8.1817 21.9676 
83 1 16.4674 8.34271 24.6749 
84 1 16.9511 7.0475 23.9165 
85 1 17.4394 10.547 24.4882 
87 1 19.982 9.44821 22.6624 
97 1 18.2448 6.9824 21.8929 
99 1 19.792 10.606 24.7861 
100 1 18.3984 10.9428 23.8401 
104 1 15.1387 8.46049 25.2314 
108 1 18.8077 10.3625 22.5422 
111 1 20.4744 9.4586 23.9469 
112 1 17.1605 7.53046 22.6313 
115 1 16.6036 9.58426 23.8033 
118 1 16.8623 9.0164 15.5351 
121 1 16.9631 7.05735 14.1142 
122 1 19.9952 9.47682 15.4159 
125 1 18.387 10.9514 14.242 
129 2 18.7211 9.5611 18.4462 
130 2 18.7119 11.0645 17.9595 
131 3 18.5058 11.5921 18.7252 
ITEM: TIMESTEP
30
ITEM: NUMBER OF ATOMS
131
ITEM: BOX BOUNDS xy xz yz pp pp pp
0.0000000000000000e+00 2.3654499999999999e+01 7.8845000000000001e+00
0.0000000000000000e+00 1.3658086643083999e+01 0.0000000000000000e+00
0.0000000000000000e+00 2.5747000000000000e+01 0.0000000000000000e+00
ITEM: ATOMS id type x y z 
18 1 10.3638 6.78507 2.66459 
28 1 5.10604 4.6008 12.882 
31 1 9.40123 6.5669 0.410478 
62 1 9.06575 5.31006 12.3625 
91 1 9.36643 6.49932 11.9276 
92 1 10.799 6.20217 10.9575 
106 1 10.3699 6.78793 9.6812 
127 1 10.7695 6.22035 1.36748 
4 1 4.42559 5.87185 13.2743 
5 1 3.19313 5.61433 14.2287 
43 1 4.58264 6.95347 15.4717 
52 1 9.05938 5.27431 25.7041 
66 1 4.43542 5.83512 24.7818 
67 1 5.0784 6.96125 23.892 
88 1 5.1131 4.58325 25.1838 
107 1 3.17312 5.67084 23.8802 
116 1 4.57409 6.97004 22.6051 
117 1 5.09541 6.9863 14.1753 
11 1 11.2234 7.58585 3.43137 
12 1 10.5228 8.80177 4.06287 
14 1 8.99698 11.253 0.414352 
15 1 10.2264 11.5085 1.35142 
16 1 8.35936 8.89317 0.67187 
19 1 10.4716 8.85815 5.56859 
29 1 10.9447 10.1043 3.31472 
32 1 8.65075 7.65741 1.27565 
35 1 12.064 9.59877 2.58408 
45 1 9.20458 8.93272 3.25596 
47 1 12.6835 8.7845 0.505136 
49 1 11.3423 11.0317 0.659828 
51 1 8.85785 10.1574 2.60685 
53 1 11.3292 7.59709 8.96469 
54 1 10.4866 8.85147 8.25959 
56 1 8.99815 11.2462 11.9274 
57 1 8.35053 10.1611 11.0325 
58 1 11.3797 10.945 11.7023 
60 1 12.2713 8.0578 9.58984 
61 1 10.4638 8.86821 6.77502 
73 1 9.21649 8.93524 9.07932 
75 1 12.6707 8.8315 11.7937 
76 1 12.2999 10.077 10.9935 
79 1 9.18696 7.64828 9.80868 
80 1 8.32792 12.5219 12.3121 
89 1 10.956 10.1255 8.98917 
93 1 8.34597 8.86942 11.6437 
95 1 10.0239 11.0397 9.69186 
105 1 10.2636 11.4497 11.0112 
109 1 8.66319 7.68274 11.063 
110 1 12.0806 9.63549 9.71004 
114 1 8.87016 10.1565 9.73437 
119 1 8.33557 10.1575 1.30362 
120 1 12.3077 8.13982 2.67942 
123 1 12.2482 10.0874 1.23701 
124 1 9.18909 7.65901 2.55163 
128 1 10.0326 11.0386 2.66351 
6 1 5.06628 8.24134 13.5582 
13 1 9.6611 10.2251 25.1356 
17 1 9.12228 8.93766 25.1498 
30 1 9.90953 7.72187 25.045 
34 1 11.2208 7.49445 25.1421 
36 1 8.32608 12.512 25.7602 
46 1 11.7341 8.78701 25.1169 
50 1 11.0744 10.1904 25.26 
55 1 9.63583 10.2476 12.9874 
59 1 11.0007 10.1485 12.8926 
74 1 11.6972 8.88204 12.9722 
78 1 11.2021 7.5346 12.9363 
90 1 9.92199 7.74709 13.0568 
94 1 9.11759 8.92184 12.9473 
101 1 5.02542 8.22771 24.5554 
33 1 11.7052 6.64556 0.711789 
77 1 11.7115 6.64056 11.6317 
41 1 17.8469 6.09155 13.5455 
68 1 17.8389 6.20947 24.5525 
103 1 19.165 6.09099 22.5539 
126 1 19.1666 6.09146 15.5275 
3 1 19.5456 6.88191 12.2727 
7 1 20.0605 8.18079 12.2626 
10 1 15.126 8.46004 12.828 
22 1 19.2576 9.37011 12.156 
26 1 17.9397 9.69552 12.2767 
38 1 17.5052 8.33547 12.2272 
42 1 18.119 6.97413 12.364 
44 1 20.1313 11.8066 12.8489 
48 1 12.5848 7.59153 1.39597 
65 1 19.614 6.82358 0.150997 
69 1 18.2395 6.98854 0.0314362 
82 1 17.5043 8.33418 0.126547 
86 1 17.973 9.64784 0.070975 
96 1 14.0352 8.68062 12.36 
98 1 19.1468 9.42649 0.196513 
102 1 20.0586 8.1217 0.0499941 
113 1 12.5405 7.59109 10.9394 
1 1 17.9679 9.50931 16.2857 
2 1 18.6721 8.304 16.8624 
8 1 18.8441 10.3351 15.5199 
9 1 18.7314 8.47727 18.54 
20 1 14.0441 8.68839 25.7056 
21 1 18.2421 7.01973 16.1957 
23 1 19.7597 10.5793 13.2862 
24 1 20.5274 9.4945 14.1193 
25 1 17.4713 10.5052 13.5979 
27 1 17.0951 7.52409 15.442 
37 1 19.9774 8.19146 16.1211 
39 1 16.5236 8.35288 13.348 
40 1 16.6087 9.55654 14.2747 
63 1 17.9734 9.53018 21.7846 
64 1 18.6607 8.29455 21.129 
70 1 16.8731 9.02362 22.5238 
71 1 18.7028 8.23282 19.7479 
72 1 20.1396 11.8585 25.2504 
81 1 19.9766 8.18703 21.9532 
83 1 16.5384 8.29647 24.7043 
84 1 16.9075 7.03468 23.8798 
85 1 17.4374 10.5297 24.4559 
87 1 19.9941 9.45895 22.6658 
97 1 18.2473 7.01541 21.8821 
99 1 19.7904 10.6034 24.7674 
100 1 18.4245 10.9093 23.8297 
104 1 15.1424 8.457 25.2315 
108 1 18.8373 10.3472 22.5304 
111 1 20.52 9.47648 23.9484 
112 1 17.1112 7.53198 22.6076 
115 1 16.6222 9.54544 23.814 
118 1 16.864 8.98206 15.5343 
121 1 16.9427 7.03827 14.1052 
122 1 20.0155 9.48383 15.4038 
125 1 18.4197 10.915 14.24 
129 2 18.7262 9.60292 18.445 
130 2 18.7168 11.0779 17.9571 
131 3 18.5033 11.5946 18.735 
ITEM: TIMESTEP
40
ITEM: NUMBER OF ATOMS
131
ITEM: BOX BOUNDS xy xz yz pp pp pp
0.0000000000000000e+00 2.3654499999999999e+01 7.8845000000000001e+00
0.0000000000000000e+00 1.3658086643083999e+01 0.0000000000000000e+00
0.0000000000000000e+00 2.5747000000000000e+01 0.0000000000000000e+00
ITEM: ATOMS id type x y z 
18 1 10.3612 6.79302 2.67159 
28 1 5.0964 4.63232 12.8864 
31 1 9.37987 6.56188 0.411353 
62 1 9.04276 5.31428 12.363 
91 1 9.366 6.50008 11.9237 
92 1 10.7857 6.21421 10.9517 
106 1 10.3694 6.79544 9.68902 
127 1 10.7608 6.23142 1.36976 
4 1 4.42143 5.88036 13.2818 
5 1 3.19159 5.62169 14.2248 
43 1 4.58382 6.95345 15.4659 
52 1 9.04016 5.29265 25.7076 
66 1 4.43989 5.83724 24.7782 
67 1 5.08431 6.98082 23.9059 
88 1 5.10641 4.60694 25.1755 
107 1 3.16448 5.67842 23.88 
116 1 4.58234 6.96425 22.6082 
117 1 5.09527 6.98795 14.1745 
11 1 11.2368 7.57622 3.41704 
12 1 10.5084 8.79711 4.07717 
14 1 9.00813 11.2386 0.40888 
15 1 10.2331 11.5065 1.3527 
16 1 8.34008 8.8838 0.670563 
19 1 10.471 8.85652 5.56365 
29 1 10.9474 10.1052 3.3062 
32 1 8.6414 7.64425 1.27341 
35 1 12.0658 9.616 2.58346 
45 1 9.21157 8.92975 3.25704 
47 1 12.6924 8.79885 0.503878 
49 1 11.3545 11.0395 0.674381 
51 1 8.84906 10.1562 2.59997 
53 1 11.3258 7.59796 8.96414 
54 1 10.4873 8.83869 8.2534 
56 1 9.00724 11.2433 11.9283 
57 1 8.33894 10.1448 11.0313 
58 1 11.3925 10.9404 11.6867 
60 1 12.2711 8.06764 9.58528 
61 1 10.4622 8.86744 6.77608 
73 1 9.2294 8.92609 9.0788 
75 1 12.6819 8.83853 11.7876 
76 1 12.3114 10.0933 10.9854 
79 1 9.18132 7.65194 9.80479 
80 1 8.33596 12.4954 12.3071 
89 1 10.9489 10.1257 8.99585 
93 1 8.32824 8.87697 11.6638 
95 1 10.0393 11.0348 9.69301 
105 1 10.2649 11.4426 11.0169 
109 1 8.64938 7.65643 11.0572 
110 1 12.0844 9.64179 9.70835 
114 1 8.85769 10.1619 9.74289 
119 1 8.3298 10.1402 1.30746 
120 1 12.3026 8.13834 2.68403 
123 1 12.2577 10.1008 1.23729 
124 1 9.16936 7.66167 2.54724 
128 1 10.0344 11.0336 2.66303 
6 1 5.08074 8.24826 13.5326 
13 1 9.66288 10.2234 25.1445 
17 1 9.12198 8.93959 25.1397 
30 1 9.90467 7.72875 25.0383 
34 1 11.2382 7.49309 25.1377 
36 1 8.33031 12.4902 25.7618 
46 1 11.6983 8.79496 25.11 
50 1 11.0844 10.1671 25.2483 
55 1 9.62428 10.234 12.9964 
59 1 11.0108 10.1586 12.8986 
74 1 11.6762 8.85812 12.9785 
78 1 11.228 7.54122 12.9316 
90 1 9.90666 7.74699 13.0702 
94 1 9.09874 8.93677 12.9502 
101 1 5.03714 8.23542 24.5509 
33 1 11.6983 6.65744 0.717344 
77 1 11.6941 6.65446 11.6355 
41 1 17.8393 6.09633 13.5397 
68 1 17.837 6.22097 24.5515 
103 1 19.1527 6.10204 22.5571 
126 1 19.1689 6.09967 15.5249 
3 1 19.5356 6.89033 12.2658 
7 1 20.0674 8.18255 12.2687 
10 1 15.1362 8.45549 12.8246 
22 1 19.2807 9.39671 12.1434 
26 1 17.9441 9.65231 12.2628 
38 1 17.4861 8.34344 12.2253 
42 1 18.1164 6.96454 12.3761 
44 1 20.1582 11.8259 12.8379 
48 1 12.5758 7.5974 1.40241 
65 1 19.6274 6.80775 0.165028 
69 1 18.2574 7.02155 0.033111 
82 1 17.5223 8.31724 0.135661 
86 1 17.9773 9.65226 0.0629312 
96 1 14.0388 8.68376 12.3633 
98 1 19.1518 9.41941 0.21162 
102 1 20.0161 8.12189 0.0523154 
113 1 12.5357 7.60683 10.9376 
1 1 17.9656 9.51349 16.2806 
2 1 18.6833 8.30264 16.877 
8 1 18.8376 10.3273 15.5303 
9 1 18.7351 8.49651 18.5439 
20 1 14.0586 8.69102 25.6944 
21 1 18.2318 7.02563 16.1899 
23 1 19.7855 10.5692 13.2839 
24 1 20.5529 9.49384 14.1326 
25 1 17.4825 10.4952 13.5937 
27 1 17.0982 7.50462 15.4447 
37 1 19.9726 8.19763 16.1297 
39 1 16.5005 8.33996 13.3562 
40 1 16.6055 9.53499 14.2662 
63 1 17.9634 9.54078 21.7867 
64 1 18.6826 8.29318 21.1349 
70 1 16.8797 9.01623 22.5174 
71 1 18.7031 8.23143 19.7454 
72 1 20.1616 11.8399 25.2459 
81 1 19.9645 8.19637 21.9396 
83 1 16.5228 8.28494 24.6993 
84 1 16.8907 7.03622 23.8927 
85 1 17.4477 10.5225 24.4508 
87 1 20.0178 9.45884 22.6732 
97 1 18.2405 7.01386 21.8785 
99 1 19.7964 10.602 24.767 
100 1 18.4327 10.9031 23.826 
104 1 15.1524 8.45366 25.2315 
108 1 18.839 10.3299 22.5208 
111 1 20.5267 9.48393 23.9541 
112 1 17.1013 7.51666 22.5989 
115 1 16.6259 9.52231 23.8166 
118 1 16.8654 8.97563 15.5414 
121 1 16.9271 7.03211 14.1019 
122 1 20.0351 9.48063 15.4054 
125 1 18.4204 10.9102 14.2533 
129 2 18.7293 9.60886 18.4442 
130 2 18.7184 11.0855 17.9574 
131 3 18.5027 11.5942 18.7377 
ITEM: TIMESTEP
50
ITEM: NUMBER OF ATOMS
131
ITEM: BOX BOUNDS xy xz yz pp pp pp
0.0000000000000000e+00 2.3654499999999999e+01 7.8845000000000001e+00
0.0000000000000000e+00 1.3658086643083999e+01 0.0000000000000000e+00
0.0000000000000000e+00 2.5747000000000000e+01 0.0000000000000000e+00
ITEM: ATOMS id type x y z 
18 1 10.3564 6.79652 2.67224 
28 1 5.09557 4.64242 12.8862 
31 1 9.372 6.56317 0.411081 
62 1 9.02603 5.30989 12.3659 
91 1 9.37065 6.52172 11.9208 
92 1 10.7769 6.22089 10.9561 
106 1 10.3662 6.80051 9.68794 
127 1 10.7554 6.23776 1.37132 
4 1 4.4173 5.89035 13.2804 
5 1 3.18647 5.62466 14.2262 
43 1 4.58459 6.95853 15.4649 
52 1 9.02569 5.29469 25.7067 
66 1 4.43609 5.8474 24.7836 
67 1 5.08519 6.98903 23.9012 
88 1 5.10703 4.61271 25.1731 
107 1 3.15986 5.68418 23.8794 
116 1 4.58061 6.96726 22.6122 
117 1 5.09682 6.997 14.1726 
11 1 11.2351 7.5793 3.41824 
12 1 10.5091 8.79389 4.07681 
14 1 9.01164 11.2309 0.410095 
15 1 10.237 11.5039 1.35371 
16 1 8.33194 8.87836 0.666378 
19 1 10.4701 8.85561 5.56446 
29 1 10.9466 10.1021 3.30641 
32 1 8.63133 7.64256 1.27294 
35 1 12.0685 9.62031 2.58323 
45 1 9.20958 8.92816 3.25632 
47 1 12.6992 8.80302 0.503676 
49 1 11.359 11.0424 0.675055 
51 1 8.84786 10.1535 2.59892 
53 1 11.3251 7.59951 8.96333 
54 1 10.4873 8.83747 8.25118 
56 1 9.01082 11.2353 11.9297 
57 1 8.33674 10.1346 11.0317 
58 1 11.3972 10.9384 11.6861 
60 1 12.2706 8.0708 9.58322 
61 1 10.4617 8.86645 6.77636 
73 1 9.22711 8.92717 9.08097 
75 1 12.6829 8.84617 11.7864 
76 1 12.3199 10.098 10.9822 
79 1 9.17863 7.65031 9.80367 
80 1 8.33744 12.4856 12.3063 
89 1 10.9506 10.1229 8.99401 
93 1 8.32057 8.87194 11.6667 
95 1 10.038 11.0308 9.69531 
105 1 10.2682 11.4395 11.0166 
109 1 8.64128 7.64882 11.0659 
110 1 12.0891 9.64814 9.70567 
114 1 8.85779 10.1582 9.74421 
119 1 8.32853 10.1309 1.30677 
120 1 12.3027 8.14304 2.68247 
123 1 12.2651 10.1054 1.23681 
124 1 9.16256 7.6607 2.54729 
128 1 10.0332 11.0307 2.66211 
6 1 5.09002 8.25216 13.5317 
13 1 9.66421 10.2205 25.1443 
17 1 9.11832 8.93703 25.1408 
30 1 9.90203 7.72744 25.0347 
34 1 11.2347 7.49147 25.1332 
36 1 8.33136 12.4797 25.7615 
46 1 11.6999 8.79616 25.1092 
50 1 11.087 10.1698 25.2506 
55 1 9.6283 10.2303 12.9962 
59 1 11.01 10.1572 12.9025 
74 1 11.6702 8.86103 12.9777 
78 1 11.223 7.54105 12.9315 
90 1 9.89849 7.74617 13.0678 
94 1 9.09501 8.92999 12.9535 
101 1 5.04277 8.24259 24.5521 
33 1 11.6949 6.66374 0.720774 
77 1 11.689 6.66361 11.6354 
41 1 17.8355 6.09187 13.5426 
68 1 17.8338 6.22361 24.5508 
103 1 19.1534 6.10664 22.5595 
126 1 19.168 6.10374 15.5235 
3 1 19.5327 6.89807 12.2676 
7 1 20.0668 8.18866 12.2654 
10 1 15.1337 8.45176 12.8216 
22 1 19.2837 9.39966 12.1424 
26 1 17.953 9.64654 12.2613 
38 1 17.4852 8.33889 12.2245 
42 1 18.1115 6.96517 12.3756 
44 1 20.1731 11.8281 12.835 
48 1 12.5726 7.60659 1.40141 
65 1 19.6269 6.81114 0.160707 
69 1 18.2549 7.01478 0.0405842 
82 1 17.5205 8.31678 0.134496 
86 1 17.9788 9.64867 0.0599469 
96 1 14.0366 8.6861 12.362 
98 1 19.1566 9.41916 0.220208 
102 1 20.0236 8.12708 0.0572247 
113 1 12.5301 7.61178 10.9351 
1 1 17.9659 9.50797 16.2819 
2 1 18.6832 8.30233 16.8808 
8 1 18.8431 10.3202 15.5314 
9 1 18.7362 8.50547 18.5463 
20 1 14.0574 8.69298 25.6926 
21 1 18.2328 7.02858 16.1921 
23 1 19.7997 10.5682 13.2804 
24 1 20.5635 9.49181 14.1342 
25 1 17.4858 10.4818 13.5946 
27 1 17.0949 7.50194 15.4442 
37 1 19.9746 8.19853 16.1311 
39 1 16.4981 8.33483 13.3596 
40 1 16.6116 9.53035 14.2658 
63 1 17.9627 9.53711 21.7856 
64 1 18.6836 8.29571 21.1338 
70 1 16.8821 9.01111 22.5159 
71 1 18.7051 8.23117 19.7454 
72 1 20.1768 11.8338 25.2454 
81 1 19.9687 8.19356 21.9417 
83 1 16.5258 8.279 24.704 
84 1 16.8825 7.03475 23.8921 
85 1 17.452 10.5154 24.4467 
87 1 20.0249 9.45866 22.674 
97 1 18.24 7.01732 21.8758 
99 1 19.7992 10.6 24.7665 
100 1 18.4375 10.8993 23.8229 
104 1 15.1524 8.45131 25.2332 
108 1 18.8439 10.3242 22.5194 
111 1 20.5319 9.48691 23.9542 
112 1 17.0929 7.50854 22.5953 
115 1 16.6307 9.51481 23.8142 
118 1 16.8661 8.96988 15.5396 
121 1 16.9208 7.02428 14.1011 
122 1 20.0404 9.48176 15.4063 
125 1 18.4219 10.9042 14.254 
129 2 18.7315 9.61615 18.4438 
130 2 18.7197 11.0903 17.9572 
131 3 18.5021 11.5942 18.7399 
ITEM: TIMESTEP
60
ITEM: NUMBER OF ATOMS
131
ITEM: BOX BOUNDS xy xz yz pp pp pp
0.0000000000000000e+00 2.3654499999999999e+01 7.8845000000000001e+00
0.0000000000000000e+00 1.3658086643083999e+01 0.0000000000000000e+00
0.0000000000000000e+00 2.5747000000000000e+01 0.0000000000000000e+00
ITEM: ATOMS id type x y z 
18 1 10.3297 6.82094 2.67854 
28 1 5.09 4.71016 12.8831 
31 1 9.32946 6.57417 0.407667 
62 1 8.91365 5.2723 12.3912 
91 1 9.37776 6.63125 11.9199 
92 1 10.7189 6.27083 10.9814 
106 1 10.3462 6.82786 9.6785 
127 1 10.7167 6.27766 1.37015 
4 1 4.39415 5.94575 13.2808 
5 1 3.16787 5.64343 14.2311 
43 1 4.59128 6.98424 15.4546 
52 1 8.93055 5.31579 25.7034 
66 1 4.43016 5.89235 24.7839 
67 1 5.09467 7.0353 23.9094 
88 1 5.10717 4.65906 25.1554 
107 1 3.13755 5.71995 23.8852 
116 1 4.58163 6.97506 22.6271 
117 1 5.10667 7.04021 14.1649 
11 1 11.2352 7.58982 3.4136 
12 1 10.5066 8.78037 4.07934 
14 1 9.03153 11.182 0.419017 
15 1 10.257 11.4871 1.36002 
16 1 8.27792 8.84489 0.642506 
19 1 10.4645 8.84856 5.56288 
29 1 10.941 10.0869 3.29973 
32 1 8.57188 7.61944 1.26955 
35 1 12.0841 9.64611 2.58134 
45 1 9.19833 8.91855 3.25241 
47 1 12.7097 8.83689 0.492476 
49 1 11.3877 11.06 0.677513 
51 1 8.83535 10.1358 2.59028 
53 1 11.3246 7.6102 8.95509 
54 1 10.4895 8.82688 8.24675 
56 1 9.02684 11.1879 11.9286 
57 1 8.3258 10.0859 11.0416 
58 1 11.423 10.9267 11.685 
60 1 12.2672 8.10327 9.56559 
61 1 10.4573 8.86041 6.77497 
73 1 9.22339 8.91914 9.08676 
75 1 12.6885 8.88841 11.7729 
76 1 12.3665 10.1315 10.9608 
79 1 9.1532 7.64646 9.79793 
80 1 8.3448 12.4245 12.303 
89 1 10.9523 10.1091 8.99326 
93 1 8.2671 8.84732 11.7019 
95 1 10.0373 11.0077 9.70596 
105 1 10.2894 11.4121 11.0196 
109 1 8.5809 7.60157 11.0793 
110 1 12.1168 9.67521 9.68753 
114 1 8.84774 10.144 9.75845 
119 1 8.31909 10.0831 1.30122 
120 1 12.2927 8.17651 2.68385 
123 1 12.3043 10.1356 1.23413 
124 1 9.11628 7.65533 2.54454 
128 1 10.0275 11.0144 2.65846 
6 1 5.14453 8.28222 13.5103 
13 1 9.67878 10.1937 25.1492 
17 1 9.10548 8.92326 25.1388 
30 1 9.8932 7.72521 25.0196 
34 1 11.2225 7.49378 25.1234 
36 1 8.33393 12.4174 25.7564 
46 1 11.6925 8.79501 25.114 
50 1 11.1018 10.1713 25.2635 
55 1 9.62992 10.2011 13.0098 
59 1 11.0153 10.1616 12.9129 
74 1 11.6327 8.85754 12.9733 
78 1 11.2166 7.54548 12.9559 
90 1 9.86847 7.72841 13.0584 
94 1 9.05945 8.92005 12.9661 
101 1 5.07324 8.27267 24.5719 
33 1 11.6626 6.70458 0.728012 
77 1 11.6641 6.71058 11.6291 
41 1 17.8066 6.06679 13.5486 
68 1 17.8116 6.24701 24.5599 
103 1 19.144 6.12702 22.5647 
126 1 19.1687 6.12701 15.5184 
3 1 19.5118 6.94189 12.2724 
7 1 20.0867 8.212 12.2566 
10 1 15.1242 8.42889 12.8078 
22 1 19.3005 9.40905 12.1408 
26 1 17.9726 9.63023 12.247 
38 1 17.5028 8.33081 12.2279 
42 1 18.0852 6.95886 12.3813 
44 1 20.2649 11.8104 12.8278 
48 1 12.556 7.64607 1.39951 
65 1 19.6374 6.82635 0.177716 
69 1 18.2651 7.01347 0.0622662 
82 1 17.5295 8.30885 0.146655 
86 1 18.003 9.63674 0.0425574 
96 1 14.0319 8.69737 12.3542 
98 1 19.1679 9.40219 0.274251 
102 1 20.0214 8.14767 0.0666664 
113 1 12.5029 7.65382 10.9257 
1 1 17.9694 9.48185 16.2821 
2 1 18.6897 8.30217 16.9104 
8 1 18.8642 10.2838 15.5317 
9 1 18.7451 8.56407 18.5596 
20 1 14.0639 8.70656 25.6767 
21 1 18.2337 7.04274 16.1962 
23 1 19.8667 10.5644 13.2754 
24 1 20.6188 9.50923 14.1329 
25 1 17.5258 10.4254 13.5997 
27 1 17.081 7.47364 15.4417 
37 1 19.9812 8.20643 16.1427 
39 1 16.4752 8.29619 13.3634 
40 1 16.6276 9.48941 14.2651 
63 1 17.965 9.5178 21.7775 
64 1 18.6892 8.30759 21.1267 
70 1 16.8932 8.96018 22.5052 
71 1 18.7165 8.23008 19.7399 
72 1 20.2782 11.7982 25.2439 
81 1 19.9834 8.19193 21.9421 
83 1 16.5316 8.24454 24.7141 
84 1 16.8411 7.01795 23.8808 
85 1 17.4837 10.472 24.425 
87 1 20.0676 9.45764 22.6694 
97 1 18.2361 7.03754 21.8745 
99 1 19.8192 10.5967 24.7624 
100 1 18.4694 10.8748 23.808 
104 1 15.1604 8.43435 25.2378 
108 1 18.87 10.2929 22.5065 
111 1 20.5724 9.50771 23.9582 
112 1 17.0525 7.471 22.5723 
115 1 16.6571 9.46694 23.8045 
118 1 16.8738 8.93584 15.5401 
121 1 16.8816 6.98662 14.1004 
122 1 20.0834 9.48101 15.408 
125 1 18.464 10.857 14.247 
129 2 18.7465 9.67023 18.4417 
130 2 18.728 11.1238 17.9548 
131 3 18.4983 11.5943 18.7553 
ITEM: TIMESTEP
70
ITEM: NUMBER OF ATOMS
131
ITEM: BOX BOUNDS xy xz yz pp pp pp
0.0000000000000000e+00 2.3654499999999999e+01 7.8845000000000001e+00
0.0000000000000000e+00 1.3658086643083999e+01 0.0000000000000000e+00
0.0000000000000000e+00 2.5747000000000000e+01 0.0000000000000000e+00
ITEM: ATOMS id type x y z 
18 1 10.3264 6.82355 2.67728 
28 1 5.09243 4.71644 12.8793 
31 1 9.32491 6.57508 0.406074 
62 1 8.90745 5.30458 12.3842 
91 1 9.34184 6.58786 11.9391 
92 1 10.7173 6.28319 10.9787 
106 1 10.345 6.83069 9.68351 
127 1 10.7095 6.28273 1.36719 
4 1 4.39434 5.94984 13.2841 
5 1 3.16779 5.64645 14.2306 
43 1 4.59311 6.98569 15.4528 
52 1 8.91322 5.31887 25.7021 
66 1 4.43193 5.89594 24.7829 
67 1 5.09606 7.03756 23.9112 
88 1 5.11069 4.66182 25.1537 
107 1 3.13701 5.72365 23.8872 
116 1 4.58441 6.97647 22.6283 
117 1 5.10788 7.04554 14.1639 
11 1 11.2348 7.5899 3.41127 
12 1 10.5046 8.78081 4.07772 