LAMMPS (3 Mar 2020)
# Alpha
clear
units		real
dimension 3
boundary        p p p
atom_style	charge
newton on
read_data       OOH_1.lmp
  orthogonal box = (0 0 0) to (14.19 14.19 14.19)
  2 by 2 by 2 MPI processor grid
  reading atoms ...
  67 atoms
  read_data CPU = 0.00887043 secs

timestep 0.25

# ---------- Define Interatomic Potential ---------------------
pair_style      reax/c NULL checkqeq no
pair_coeff      * * ffield.reax C H O
fix             2 all qeq/reax 1 0.0 10.0 1.0e-6 reax/c

#------------ Equilibration of the system -------------------------
reset_timestep 0

dump 1 all custom 10 min.lammpstrj id type x y z

minimize 1.0e-8 1.0e-8 100000 100000
WARNING: Using 'neigh_modify every 1 delay 0 check yes' setting during minimization (../min.cpp:190)
WARNING: Total cutoff < 2*bond cutoff. May need to use an increased neighbor list skin. (../pair_reaxc.cpp:413)
Neighbor list info ...
  update every 1 steps, delay 0 steps, check yes
  max neighbors/atom: 2000, page size: 100000
  master list distance cutoff = 9.5
  ghost atom cutoff = 9.5
  binsize = 4.75, bins = 3 3 3
  2 neighbor lists, perpetual/occasional/extra = 2 0 0
  (1) pair reax/c, perpetual
      attributes: half, newton off, ghost
      pair build: half/bin/newtoff/ghost
      stencil: half/ghost/bin/3d/newtoff
      bin: standard
  (2) fix qeq/reax, perpetual, copy from (1)
      attributes: half, newton off, ghost
      pair build: copy
      stencil: none
      bin: none
Per MPI rank memory allocation (min/avg/max) = 15.32 | 15.39 | 15.46 Mbytes
Step Temp E_pair E_mol TotEng Press 
       0            0   -11404.067            0   -11404.067     1606.961 
      45            0   -11443.718            0   -11443.718     10347.81 
Loop time of 0.607973 on 8 procs for 45 steps with 67 atoms

99.3% CPU use with 8 MPI tasks x no OpenMP threads

Minimization stats:
  Stopping criterion = energy tolerance
  Energy initial, next-to-last, final = 
        -11404.0666124     -11443.7178291     -11443.7179014
  Force two-norm initial, final = 342.123 284.597
  Force max component initial, final = 118.581 98.8045
  Final line search alpha, max atom move = 3.94978e-06 0.000390256
  Iterations, force evaluations = 45 386

MPI task timing breakdown:
Section |  min time  |  avg time  |  max time  |%varavg| %total
---------------------------------------------------------------
Pair    | 0.36229    | 0.37535    | 0.39084    |   1.4 | 61.74
Neigh   | 0          | 0          | 0          |   0.0 |  0.00
Comm    | 0.0053318  | 0.021042   | 0.034237   |   6.0 |  3.46
Output  | 7.1715e-05 | 8.5004e-05 | 0.00011484 |   0.0 |  0.01
Modify  | 0.20939    | 0.20955    | 0.20973    |   0.0 | 34.47
Other   |            | 0.00195    |            |       |  0.32

Nlocal:    8.375 ave 11 max 8 min
Histogram: 7 0 0 0 0 0 0 0 0 1
Nghost:    397.625 ave 402 max 391 min
Histogram: 1 0 3 0 0 0 0 0 0 4
Neighs:    579.875 ave 761 max 539 min
Histogram: 6 1 0 0 0 0 0 0 0 1

Total # of neighbors = 4639
Ave neighs/atom = 69.2388
Neighbor list builds = 0
Dangerous builds = 0

###
min_style cg
minimize 1.0e-8 1.0e-8 100000 100000
WARNING: Using 'neigh_modify every 1 delay 0 check yes' setting during minimization (../min.cpp:190)
WARNING: Total cutoff < 2*bond cutoff. May need to use an increased neighbor list skin. (../pair_reaxc.cpp:413)
Per MPI rank memory allocation (min/avg/max) = 15.32 | 15.39 | 15.46 Mbytes
Step Temp E_pair E_mol TotEng Press 
      45            0   -11443.718            0   -11443.718     10347.81 
      46            0   -11443.718            0   -11443.718    10347.684 
Loop time of 0.0194634 on 8 procs for 1 steps with 67 atoms

99.1% CPU use with 8 MPI tasks x no OpenMP threads

Minimization stats:
  Stopping criterion = energy tolerance
  Energy initial, next-to-last, final = 
        -11443.7179014     -11443.7179014     -11443.7179156
  Force two-norm initial, final = 284.597 284.568
  Force max component initial, final = 98.8045 98.7862
  Final line search alpha, max atom move = 3.95351e-06 0.000390552
  Iterations, force evaluations = 1 12

MPI task timing breakdown:
Section |  min time  |  avg time  |  max time  |%varavg| %total
---------------------------------------------------------------
Pair    | 0.011829   | 0.012261   | 0.012806   |   0.3 | 62.99
Neigh   | 0          | 0          | 0          |   0.0 |  0.00
Comm    | 0.00017288 | 0.0007233  | 0.0011596  |   0.0 |  3.72
Output  | 0          | 0          | 0          |   0.0 |  0.00
Modify  | 0.0063774  | 0.0063818  | 0.0063871  |   0.0 | 32.79
Other   |            | 9.762e-05  |            |       |  0.50

Nlocal:    8.375 ave 11 max 8 min
Histogram: 7 0 0 0 0 0 0 0 0 1
Nghost:    397.625 ave 402 max 391 min
Histogram: 1 0 3 0 0 0 0 0 0 4
Neighs:    585.875 ave 778 max 542 min
Histogram: 7 0 0 0 0 0 0 0 0 1

Total # of neighbors = 4687
Ave neighs/atom = 69.9552
Neighbor list builds = 0
Dangerous builds = 0

###
fix 1 all box/relax aniso 0.0
min_style cg
minimize 1.0e-8 1.0e-8 100000 100000
WARNING: Using 'neigh_modify every 1 delay 0 check yes' setting during minimization (../min.cpp:190)
WARNING: Total cutoff < 2*bond cutoff. May need to use an increased neighbor list skin. (../pair_reaxc.cpp:413)
Per MPI rank memory allocation (min/avg/max) = 15.32 | 15.39 | 15.46 Mbytes
Step Temp E_pair E_mol TotEng Press Volume 
      46            0   -11443.718            0   -11443.718    10347.684    2857.2431 
    2631            0   -11523.736            0   -11523.736    69.264429    2744.9786 
Loop time of 3.80235 on 8 procs for 2585 steps with 67 atoms

99.4% CPU use with 8 MPI tasks x no OpenMP threads

Minimization stats:
  Stopping criterion = linesearch alpha is zero
  Energy initial, next-to-last, final = 
        -11443.7179156     -11523.7359528     -11523.7359528
  Force two-norm initial, final = 804.671 110.762
  Force max component initial, final = 507.523 26.3322
  Final line search alpha, max atom move = 8.60057e-13 2.26472e-11
  Iterations, force evaluations = 2585 2724

MPI task timing breakdown:
Section |  min time  |  avg time  |  max time  |%varavg| %total
---------------------------------------------------------------
Pair    | 2.6849     | 2.7836     | 2.8962     |   3.7 | 73.21
Neigh   | 0.0012888  | 0.001313   | 0.0013448  |   0.0 |  0.03
Comm    | 0.038868   | 0.15251    | 0.25193    |  15.9 |  4.01
Output  | 0.0038547  | 0.0051534  | 0.010668   |   2.9 |  0.14
Modify  | 0.80946    | 0.81033    | 0.81123    |   0.1 | 21.31
Other   |            | 0.04947    |            |       |  1.30

Nlocal:    8.375 ave 11 max 8 min
Histogram: 7 0 0 0 0 0 0 0 0 1
Nghost:    443.625 ave 448 max 439 min
Histogram: 1 1 0 2 0 0 0 3 0 1
Neighs:    666.125 ave 847 max 625 min
Histogram: 5 2 0 0 0 0 0 0 0 1

Total # of neighbors = 5329
Ave neighs/atom = 79.5373
Neighbor list builds = 3
Dangerous builds = 0

unfix 1
###
min_style cg
minimize 1.0e-8 1.0e-8 100000 100000
WARNING: Using 'neigh_modify every 1 delay 0 check yes' setting during minimization (../min.cpp:190)
WARNING: Total cutoff < 2*bond cutoff. May need to use an increased neighbor list skin. (../pair_reaxc.cpp:413)
Per MPI rank memory allocation (min/avg/max) = 15.91 | 16.06 | 16.22 Mbytes
Step Temp E_pair E_mol TotEng Press 
    2631            0   -11523.736            0   -11523.736    69.264429 
    2632            0   -11523.736            0   -11523.736    69.264429 
Loop time of 0.0809299 on 8 procs for 1 steps with 67 atoms

99.4% CPU use with 8 MPI tasks x no OpenMP threads

Minimization stats:
  Stopping criterion = linesearch alpha is zero
  Energy initial, next-to-last, final = 
        -11523.7359528     -11523.7359528     -11523.7359528
  Force two-norm initial, final = 106.368 106.368
  Force max component initial, final = 25.9988 25.9988
  Final line search alpha, max atom move = 8.95543e-13 2.32831e-11
  Iterations, force evaluations = 1 55

MPI task timing breakdown:
Section |  min time  |  avg time  |  max time  |%varavg| %total
---------------------------------------------------------------
Pair    | 0.056625   | 0.058285   | 0.06047    |   0.6 | 72.02
Neigh   | 0          | 0          | 0          |   0.0 |  0.00
Comm    | 0.00079967 | 0.0029939  | 0.0046702  |   2.5 |  3.70
Output  | 0          | 0          | 0          |   0.0 |  0.00
Modify  | 0.019346   | 0.019373   | 0.019393   |   0.0 | 23.94
Other   |            | 0.0002781  |            |       |  0.34

Nlocal:    8.375 ave 11 max 8 min
Histogram: 7 0 0 0 0 0 0 0 0 1
Nghost:    422.625 ave 432 max 416 min
Histogram: 2 0 2 1 0 1 0 0 0 2
Neighs:    652.125 ave 845 max 608 min
Histogram: 5 2 0 0 0 0 0 0 0 1

Total # of neighbors = 5217
Ave neighs/atom = 77.8657
Neighbor list builds = 0
Dangerous builds = 0

###
fix 1 all box/relax aniso 0.0
min_style cg
minimize 1.0e-8 1.0e-8 100000 100000
WARNING: Using 'neigh_modify every 1 delay 0 check yes' setting during minimization (../min.cpp:190)
WARNING: Total cutoff < 2*bond cutoff. May need to use an increased neighbor list skin. (../pair_reaxc.cpp:413)
Per MPI rank memory allocation (min/avg/max) = 15.91 | 16.06 | 16.22 Mbytes
Step Temp E_pair E_mol TotEng Press Volume 
    2632            0   -11523.736            0   -11523.736    69.264429    2744.9786 
    2633            0   -11523.736            0   -11523.736    69.264429    2744.9786 
Loop time of 0.0636223 on 8 procs for 1 steps with 67 atoms

99.4% CPU use with 8 MPI tasks x no OpenMP threads

Minimization stats:
  Stopping criterion = linesearch alpha is zero
  Energy initial, next-to-last, final = 
        -11523.7359528     -11523.7359528     -11523.7359528
  Force two-norm initial, final = 110.336 110.336
  Force max component initial, final = 25.9988 25.9988
  Final line search alpha, max atom move = 9.24646e-13 2.40397e-11
  Iterations, force evaluations = 1 44

MPI task timing breakdown:
Section |  min time  |  avg time  |  max time  |%varavg| %total
---------------------------------------------------------------
Pair    | 0.04544    | 0.046753   | 0.048464   |   0.5 | 73.49
Neigh   | 0          | 0          | 0          |   0.0 |  0.00
Comm    | 0.00062722 | 0.0023478  | 0.0036663  |   2.2 |  3.69
Output  | 0          | 0          | 0          |   0.0 |  0.00
Modify  | 0.013963   | 0.013979   | 0.013993   |   0.0 | 21.97
Other   |            | 0.0005419  |            |       |  0.85

Nlocal:    8.375 ave 11 max 8 min
Histogram: 7 0 0 0 0 0 0 0 0 1
Nghost:    422.625 ave 432 max 416 min
Histogram: 2 0 2 1 0 1 0 0 0 2
Neighs:    652.125 ave 845 max 608 min
Histogram: 5 2 0 0 0 0 0 0 0 1

Total # of neighbors = 5217
Ave neighs/atom = 77.8657
Neighbor list builds = 0
Dangerous builds = 0

unfix 1
###
min_style cg
minimize 1.0e-8 1.0e-8 100000 100000
WARNING: Using 'neigh_modify every 1 delay 0 check yes' setting during minimization (../min.cpp:190)
WARNING: Total cutoff < 2*bond cutoff. May need to use an increased neighbor list skin. (../pair_reaxc.cpp:413)
Per MPI rank memory allocation (min/avg/max) = 15.91 | 16.06 | 16.22 Mbytes
Step Temp E_pair E_mol TotEng Press 
    2633            0   -11523.736            0   -11523.736    69.264429 
    2634            0   -11523.736            0   -11523.736    69.264429 
Loop time of 0.0809798 on 8 procs for 1 steps with 67 atoms

99.3% CPU use with 8 MPI tasks x no OpenMP threads

Minimization stats:
  Stopping criterion = linesearch alpha is zero
  Energy initial, next-to-last, final = 
        -11523.7359528     -11523.7359528     -11523.7359529
  Force two-norm initial, final = 106.368 106.368
  Force max component initial, final = 25.9988 25.9988
  Final line search alpha, max atom move = 8.95543e-13 2.32831e-11
  Iterations, force evaluations = 1 55

MPI task timing breakdown:
Section |  min time  |  avg time  |  max time  |%varavg| %total
---------------------------------------------------------------
Pair    | 0.056592   | 0.05821    | 0.060343   |   0.6 | 71.88
Neigh   | 0          | 0          | 0          |   0.0 |  0.00
Comm    | 0.00082305 | 0.0029636  | 0.0045895  |   2.5 |  3.66
Output  | 0          | 0          | 0          |   0.0 |  0.00
Modify  | 0.019512   | 0.019537   | 0.019557   |   0.0 | 24.13
Other   |            | 0.0002691  |            |       |  0.33

Nlocal:    8.375 ave 11 max 8 min
Histogram: 7 0 0 0 0 0 0 0 0 1
Nghost:    422.625 ave 432 max 416 min
Histogram: 2 0 2 1 0 1 0 0 0 2
Neighs:    652.125 ave 845 max 608 min
Histogram: 5 2 0 0 0 0 0 0 0 1

Total # of neighbors = 5217
Ave neighs/atom = 77.8657
Neighbor list builds = 0
Dangerous builds = 0

undump 1
#############
#----------- Thermo ------------
reset_timestep 0
thermo  200

thermo_style    custom step temp etotal ke pe press
velocity all create 300 12345 mom yes rot yes
fix 1 all npt temp 300 300 25.0 iso 0.0 0.0 250.0

variable vpe equal pe
variable vtemp equal temp
variable vstep equal step

fix output all print 2500 "${vstep} ${vtemp} ${vpe}" file temp-tpdh-Pt.dat screen no

dump 1 all custom 2500 thermo-tpdh-Pt.lammpstrj id type x y z

run 1000000
WARNING: Total cutoff < 2*bond cutoff. May need to use an increased neighbor list skin. (../pair_reaxc.cpp:413)
Per MPI rank memory allocation (min/avg/max) = 14.79 | 14.93 | 15.09 Mbytes
Step Temp TotEng KinEng PotEng Press 
       0          300   -11464.716    59.020039   -11523.736    1052.1283 
     200     299.6415   -11442.835    58.949509   -11501.785   -6636.4167 
     400    307.73814   -11439.442    60.542389   -11499.985   -2097.2323 
     600     273.6318    -11444.71    53.832531   -11498.543    1742.9292 
     800    270.89756   -11445.277    53.294616   -11498.571    2596.4412 
    1000    311.95973   -11442.244    61.372918   -11503.617   -1954.1301 
    1200     276.0609    -11442.35    54.310417   -11496.661    11881.292 
    1400    312.92326   -11436.497    61.562478   -11498.059    6322.2894 
    1600    324.61945    -11419.16    63.863508   -11483.024    -13129.85 
    1800    312.35489   -11441.153    61.450659   -11502.604    3905.3312 
    2000    278.80795   -11440.877    54.850853   -11495.728    2375.5702 
    2200    345.74309   -11424.631    68.019235    -11492.65    -12633.26 
    2400    304.60197   -11437.722    59.925401   -11497.647    4002.6736 
    2600    302.14411   -11442.999    59.441857    -11502.44   -810.07989 
    2800    339.49342   -11421.701    66.789717   -11488.491   -12692.863 
    3000    295.09767   -11440.067    58.055587   -11498.123    15281.908 
    3200     266.3753   -11445.673    52.404936   -11498.078    4616.0709 
    3400    332.34486   -11428.958    65.383355   -11494.341    12583.502 
    3600    309.63645   -11430.603     60.91585   -11491.519   -2989.1696 
    3800    318.54904   -11435.443    62.669255   -11498.112   -14356.893 
    4000    344.56154   -11431.809    67.786785   -11499.596   -13278.586 
    4200    328.48471   -11425.582    64.623934   -11490.206   -6658.0826 
    4400    283.14027   -11443.809    55.703165   -11499.512   -1832.8165 
    4600    303.63142   -11429.873    59.734461   -11489.607   -11770.648 
    4800    350.29153   -11428.997    68.914065   -11497.911    19985.793 
    5000    261.67496   -11435.392    51.480222   -11486.872    2022.9199 
    5200    297.21694   -11439.055    58.472519   -11497.528   -10517.053 
    5400    326.82769   -11434.498    64.297943   -11498.796   -11700.343 
    5600    249.81901   -11439.782    49.147759   -11488.929   -6253.3268 
    5800    328.54709   -11436.848    64.636206   -11501.485    9026.2428 
    6000     337.5146   -11417.338    66.400415   -11483.739   -12286.252 
    6200    303.63589   -11433.662    59.735339   -11493.398    11852.342 
    6400    293.95317   -11451.682    57.830425   -11509.512    2090.0385 
    6600    309.99497   -11448.873    60.986384   -11509.859   -1544.0021 
    6800    298.29344    -11434.57    58.684302   -11493.254    10201.615 
    7000    303.69209   -11456.401    59.746396   -11516.147    7475.1836 
    7200    313.09705   -11447.148    61.596668   -11508.744   -10300.807 
    7400    384.08572   -11430.541    75.562513   -11506.104   -4203.8635 
    7600    291.20485   -11450.737    57.289739   -11508.027    2144.3854 
    7800    307.38378    -11452.12    60.472676   -11512.593   -8396.8001 
    8000    331.19676   -11441.032    65.157486    -11506.19    -2562.785 
    8200    264.49977   -11461.712    52.035955   -11513.748   -13457.186 
    8400    307.75141   -11447.657    60.545001   -11508.202   -9517.1234 
    8600    286.04546   -11441.828    56.274713   -11498.103    8904.5571 
    8800    294.68537   -11448.545    57.974473   -11506.519    6288.8571 
    9000    292.47567   -11458.521    57.539752   -11516.061   -952.86145 
    9200    290.46958   -11458.616    57.145087   -11515.761    7630.1345 
    9400    285.20472   -11438.093    56.109313   -11494.203   -10037.805 
    9600    327.02895    -11446.63    64.337538   -11510.968    -9011.425 
    9800    280.97186   -11459.552    55.276567   -11514.828   -2819.5024 
   10000    289.70217   -11450.589    56.994111   -11507.583    8659.1281 
   10200     335.3806   -11433.717    65.980588   -11499.698    23262.172 
   10400    278.49823   -11453.877    54.789922   -11508.667    14912.842 
   10600      326.885   -11454.589    64.309218   -11518.899   -9327.4795 
   10800    319.13459   -11442.021    62.784453   -11504.806    5915.8658 
   11000    285.17989   -11458.939    56.104427   -11515.043    4131.6954 
   11200    293.08502   -11458.599    57.659631   -11516.258    -13974.92 
   11400    300.27982   -11444.362     59.07509   -11503.437   -4227.6599 
   11600    324.96991   -11451.686    63.932456   -11515.619   -1481.9369 
   11800    280.31049    -11442.32    55.146453   -11497.467    15354.312 
   12000     341.6178   -11436.192    67.207654   -11503.399    5724.5405 
   12200     267.1335   -11458.564    52.554098   -11511.118   -13086.045 
   12400    307.73633   -11445.973    60.542034   -11506.515   -30858.882 
   12600    262.69141    -11464.49    51.680192    -11516.17   -1483.8104 
   12800    261.34071   -11463.999    51.414464   -11515.414   -6058.8809 
   13000    287.10511   -11449.121    56.483182   -11505.604   -9367.5006 
   13200    350.06673   -11438.198    68.869841   -11507.068    14050.581 
   13400    293.06622   -11437.495    57.655933   -11495.151    2750.9492 
   13600    300.26974   -11454.618    59.073106   -11513.691    3171.0384 
   13800    252.36404   -11459.137    49.648451   -11508.785    13918.245 
   14000    322.67072   -11449.094    63.480129   -11512.574   -27158.736 
   14200    308.13612   -11445.622    60.620686   -11506.243   -13085.483 
   14400    267.25869   -11462.509    52.578729   -11515.087   -3256.6576 
   14600    266.61852   -11461.529    52.452784   -11513.982   -12471.546 
   14800    281.74039   -11443.697    55.427763   -11499.125    9160.3491 
   15000    310.05919   -11437.514    60.999018   -11498.513    5265.9513 
   15200    252.20317   -11457.067    49.616803   -11506.684   -20959.307 
   15400    315.09546   -11442.891    61.989821   -11504.881   -5444.7528 
   15600    292.68044    -11447.48    57.580038    -11505.06   -10057.471 
   15800    278.84652   -11453.536    54.858442   -11508.394    -25365.45 
   16000    304.67482   -11441.364    59.939733   -11501.303    1578.5818 
   16200    281.65705   -11457.703    55.411366   -11513.114    4762.8911 
   16400    339.91471   -11442.544    66.872599   -11509.417    11074.549 
   16600    312.93686    -11445.66    61.565152   -11507.225    -5728.468 
   16800      285.052    -11453.27    56.079268    -11509.35    -2230.222 
   17000    260.71321   -11453.169    51.291012    -11504.46    26304.742 
   17200    315.00959   -11437.774    61.972927   -11499.747    626.30966 
   17400    259.09738   -11453.894    50.973125   -11504.867    -15578.73 
   17600    283.53051   -11456.063    55.779939   -11511.843    8691.0099 
   17800    285.11444    -11451.41     56.09155   -11507.502    5805.5563 
   18000    294.59812    -11465.45    57.957308   -11523.408    5883.6007 
   18200    320.14781   -11444.513    62.983788   -11507.497    -1591.863 
   18400    340.51954   -11442.792    66.991588   -11509.783    1941.9647 
   18600    270.97636    -11459.63    53.310117    -11512.94    22783.306 
   18800    276.06588   -11461.429    54.311396   -11515.741    6964.7837 
   19000    358.88489    -11442.64    70.604666   -11513.245   -303.10781 
   19200    269.41074   -11454.482    53.002109   -11507.484    5748.7838 
   19400    266.73812   -11463.927    52.476313   -11516.403    13210.613 
   19600    352.81185   -11442.141    69.409897    -11511.55    3738.8263 
   19800     254.7475   -11455.178    50.117358   -11505.295   -1138.1865 
   20000     297.7181   -11451.157    58.571113   -11509.728    3771.9665 
   20200    295.55354   -11449.328    58.145271   -11507.473    12354.314 
   20400    294.23598    -11468.06    57.886064   -11525.946   -1927.0212 
   20600      319.201   -11485.593    62.797519   -11548.391   -2304.0672 
   20800     280.9999   -11496.703    55.282083   -11551.986   -4683.8946 
   21000    288.62283   -11496.188    56.781769    -11552.97    8709.0694 
   21200    326.96472    -11474.63    64.324901   -11538.955    19010.783 
   21400    281.70721   -11488.157    55.421234   -11543.578    7680.3876 
   21600    263.95378   -11497.712     51.92854    -11549.64     4632.607 
   21800     296.5824   -11479.722    58.347682    -11538.07    7525.4096 
   22000    365.05956   -11486.874    71.819432   -11558.694    16741.486 
   22200    282.40829   -11506.641    55.559161     -11562.2    11185.124 
   22400    252.49458    -11509.46    49.674134   -11559.134    17214.292 
   22600    337.31626   -11492.164    66.361396   -11558.526    19085.444 
   22800    348.18126   -11507.758    68.498905   -11576.257    9771.2137 
   23000    321.56084   -11529.428    63.261778    -11592.69   -4166.0935 
   23200    316.21805   -11527.522    62.210672   -11589.733   -11323.217 
   23400    276.26664   -11524.833    54.350892   -11579.184    7477.7139 
   23600    281.74275   -11534.197    55.428228   -11589.625    15153.241 
   23800    333.56478   -11513.914    65.623355   -11579.538   -6012.8671 
   24000    298.24711   -11530.793    58.675186   -11589.468   -14730.977 
   24200    247.55845    -11543.98    48.703031   -11592.683    4435.5217 
   24400    279.43244   -11546.381    54.973712   -11601.355    15572.269 
   24600    262.23906   -11558.769    51.591198   -11610.361     11967.38 
   24800    291.82593   -11546.566    57.411925   -11603.978   -1155.3819 
   25000    307.98696   -11539.482    60.591342   -11600.073    2996.3019 
   25200    261.11947   -11557.867    51.370938   -11609.238     1007.184 
   25400    341.91289   -11545.716    67.265706   -11612.982   -14249.804 
   25600    290.65396   -11541.707     57.18136   -11598.889   -11463.756 
   25800    263.78039   -11540.748     51.89443   -11592.642    2270.4934 
   26000    281.65063   -11544.317    55.410104   -11599.727   -36502.614 
   26200    359.09755   -11528.681    70.646505   -11599.328    3362.2871 
   26400     297.6248   -11547.134    58.552758   -11605.687   -7919.8699 
   26600    316.33134   -11544.368    62.232959   -11606.601    -19742.34 
   26800    296.09063   -11543.937    58.250935   -11602.188   -10451.049 
   27000    300.01135   -11551.686    59.022271   -11610.708   -631.97238 
   27200    296.47345   -11552.129    58.326248   -11610.455    4.3277945 
   27400    315.47701   -11542.136    62.064885   -11604.201    4356.1758 
   27600    308.81731    -11547.25    60.754699   -11608.005    -8147.013 
   27800    348.34012   -11530.803    68.530159   -11599.334    4136.7725 
   28000    320.86964   -11543.139    63.125796   -11606.265   -16893.547 
   28200    287.29141   -11547.299    56.519835   -11603.819   -8576.0749 
   28400    325.73262   -11541.946    64.082506   -11606.028    13131.464 
   28600    294.96014   -11555.188    58.028529   -11613.217   -4616.1812 
   28800    328.61422   -11544.908    64.649413   -11609.558    12938.648 
   29000    284.07194   -11541.923    55.886456   -11597.809   -25999.099 
   29200    340.94623   -11539.287    67.075534   -11606.363   -4846.8294 
   29400    323.88882   -11542.989    63.719769   -11606.709   -9632.7002 
   29600    256.82138   -11555.224     50.52536    -11605.75   -8093.8127 
   29800    285.40998    -11534.47    56.149693    -11590.62   -16742.429 
   30000    314.89845   -11537.652    61.951062   -11599.603    8190.6189 
   30200    296.47453   -11554.191     58.32646   -11612.518    5052.9189 
   30400    249.20509   -11558.636    49.026981   -11607.663   -6303.8299 
   30600    320.09447   -11547.706    62.973295   -11610.679   -3871.1845 
   30800    300.10597   -11542.384    59.040887   -11601.424   -4269.1543 
   31000    333.02418   -11537.497       65.517   -11603.014    11081.522 
   31200    266.92817   -11554.721    52.513704   -11607.234   -23262.968 
   31400    274.21889    -11539.53    53.948032   -11593.478   -14456.175 
   31600    310.30102   -11538.234    61.046594   -11599.281   -12222.594 
   31800    284.12888   -11555.952    55.897659   -11611.849    7642.4075 
   32000    344.08083   -11540.575    67.692212   -11608.267   -5506.0371 
   32200    286.61248   -11536.138    56.386267   -11592.525    4945.9053 
   32400    245.79049   -11554.904    48.355214   -11603.259   -3409.8576 
   32600    271.50669    -11554.29     53.41445   -11607.705    9821.4311 
   32800    300.79219   -11535.808     59.17589   -11594.984    -5872.012 
   33000    249.75338   -11557.129    49.134847   -11606.264    -1683.378 
   33200     320.1982   -11547.252      62.9937   -11610.245    -15014.28 
   33400    261.69388   -11539.798    51.483943   -11591.282    21124.323 
   33600    283.86431   -11541.852    55.845609   -11597.697   -1209.3648 
   33800     346.1569   -11535.263    68.100645   -11603.363    5580.3399 
   34000    342.34608   -11535.599     67.35093    -11602.95   -10239.541 
   34200    310.79413   -11548.239    61.143606   -11609.383   -2131.5274 
   34400    321.99971   -11540.783    63.348118   -11604.131   -13900.313 
   34600    321.82149   -11543.187    63.313057     -11606.5    8365.0808 
   34800    283.52306   -11556.476    55.778473   -11612.254    -2869.236 
   35000    293.51127   -11539.584    57.743488   -11597.328    27488.382 
   35200    313.77424   -11540.984    61.729893   -11602.714     7258.867 
   35400    293.21472   -11549.111    57.685148   -11606.796    9237.6225 
   35600    275.87106    -11547.07    54.273069   -11601.343    -77.76291 
   35800    357.31329   -11534.045    70.295481    -11604.34    9576.8501 
   36000    311.54051   -11538.133    61.290444   -11599.423    -6370.249 
   36200    268.85914   -11550.177    52.893589   -11603.071   -1918.8489 
   36400    313.33001   -11550.055    61.642499   -11611.698   -822.39773 
   36600    336.05255   -11535.836    66.112782   -11601.948    4119.0241 
   36800    282.82426   -11553.283    55.640996   -11608.924   -8222.2078 
   37000    277.60583   -11559.284    54.614357   -11613.899   -2757.5178 
   37200    316.51507   -11543.169    62.269105   -11605.438    4073.6875 
   37400    325.66176    -11536.16    64.068566   -11600.228   -12.698532 
   37600    324.89863   -11533.552    63.918432    -11597.47   -13555.021 
   37800    245.99915   -11551.821    48.396265   -11600.218   -13242.692 
   38000    331.90856    -11535.12     65.29752   -11600.418    7670.4535 
   38200    317.94611   -11531.959    62.550639    -11594.51    1507.1503 
   38400    305.32386   -11543.034    60.067421   -11603.102   -5659.6958 
   38600    272.13026   -11558.794    53.537128   -11612.331   -9267.7756 
   38800    319.68786   -11533.932    62.893301   -11596.825   -11429.102 
   39000     288.4135   -11540.714    56.740588   -11597.454    8059.1503 
   39200    266.92612   -11555.144    52.513301   -11607.658   -2280.3588 
   39400    339.02459   -11538.433    66.697482    -11605.13    5707.7477 
   39600    344.30347    -11538.98    67.736013   -11606.716    5015.7307 
   39800    260.66389   -11550.985     51.28131   -11602.266    15390.316 
   40000    363.58047   -11530.505    71.528444   -11602.034    14009.503 
   40200    254.65142   -11546.944    50.098455   -11597.043   -15007.942 
   40400    265.48649   -11554.356    52.230076   -11606.587     8935.005 
   40600    360.91768   -11544.476    71.004585   -11615.481    7607.8145 
   40800    295.48187   -11546.581    58.131172   -11604.713    -11031.98 
   41000    267.40835    -11562.11    52.608171   -11614.718    4028.3115 
   41200    321.68636   -11549.718    63.286471   -11613.005    8276.1818 
   41400    291.70869    -11546.82    57.388861   -11604.208   -19115.327 
   41600    377.42752   -11527.884    74.252624   -11602.137    4811.0748 
   41800    244.38051    -11546.05    48.077825   -11594.127    1771.2393 
   42000    254.28338   -11547.904     50.02605    -11597.93    17214.479 
   42200     339.6974   -11523.825    66.829847   -11590.655   -11566.121 
   42400    297.48081   -11542.374     58.52443   -11600.898   -5435.1032 
   42600    287.55048   -11543.881    56.570803   -11600.452   -636.52312 
   42800    328.85222    -11539.92    64.696237   -11604.617   -4474.5447 
   43000    275.63209   -11553.352    54.226055   -11607.578    -4219.054 
   43200    330.21658   -11536.738    64.964652   -11601.702   -21191.768 
   43400    295.62129    -11546.22    58.158601   -11604.379   -1527.6342 
   43600    288.94135   -11559.715    56.844433    -11616.56     6259.015 
   43800    304.46424   -11541.266    59.898304   -11601.164   -7053.9757 
   44000    303.53432   -11535.453    59.715358   -11595.169   -10361.904 
   44200    263.46643   -11555.959    51.832663   -11607.792   -5939.5175 
   44400    309.73233   -11550.846    60.934714   -11611.781    9934.0341 
   44600    327.10375   -11535.414    64.352253   -11599.767   -6331.7664 
   44800    273.16976   -11548.606    53.741632   -11602.348    -6257.773 
   45000    280.84079   -11550.841    55.250782   -11606.092    13439.324 
   45200    285.02913   -11557.786    56.074769   -11613.861   -1678.5428 
   45400    307.22261   -11538.377    60.440969   -11598.818    1107.9507 
   45600    303.99637   -11542.295    59.806259   -11602.101    10166.777 
   45800    249.87792   -11565.313    49.159348   -11614.472   -4355.1315 
   46000    330.01185   -11548.391    64.924374   -11613.315    6920.2634 
   46200    282.49118   -11541.421    55.575468   -11596.997   -3098.1036 
   46400    299.52222   -11541.659    58.926043   -11600.585    14671.072 
   46600    285.37609    -11559.08    56.143026   -11615.223    2014.6533 
   46800    310.18515   -11540.803      61.0238   -11601.827   -11833.345 
   47000    293.91682   -11542.634    57.823275   -11600.458   -14831.054 
   47200    338.14498   -11530.088    66.524432   -11596.613    12600.269 
   47400    335.97924   -11542.424    66.098359   -11608.523   -8862.0705 
   47600    295.35179   -11549.067    58.105581   -11607.173    8333.0756 
   47800    347.33312   -11530.936    68.332047   -11599.268    13511.852 
   48000    323.89815   -11535.751    63.721604   -11599.473    -7341.076 
   48200    319.76926     -11549.1    62.909314   -11612.009   -846.00502 
   48400    245.22492    -11552.71    48.243948   -11600.954   -1656.8583 
   48600    294.74323   -11537.592    57.985857   -11595.578    460.81395 
   48800    353.13914   -11542.264    69.474286   -11611.738    18704.597 
   49000     278.1325   -11556.505    54.717969   -11611.223   -1531.0322 
   49200    277.04052   -11532.526    54.503141   -11587.029   -109.83893 
   49400    291.58703   -11542.015    57.364926    -11599.38   -5591.9561 
   49600    296.78446   -11546.398    58.387434   -11604.785    134.30689 
   49800    297.03662   -11533.392    58.437042   -11591.829    12794.743 
   50000    351.88528   -11529.655    69.227611   -11598.883   -4574.7061 
   50200     267.6181    -11548.92    52.649435    -11601.57   -6819.7417 
   50400    265.60761   -11546.667    52.253905   -11598.921   -15.968792 
   50600    312.29773    -11541.56    61.439414   -11602.999   -3288.0222 
   50800    258.99991   -11560.308    50.953949   -11611.262    2950.7839 
   51000    317.04691   -11544.104    62.373736   -11606.478   -23932.872 
   51200    308.32941   -11540.211    60.658712    -11600.87   -10943.388 
   51400    297.23254   -11549.728    58.475586   -11608.204   -1745.2979 
   51600    367.18589   -11525.808    72.237751   -11598.046   -10237.882 
   51800    294.95752   -11538.145    58.028014   -11596.173   -6586.3026 
   52000    310.63922   -11548.373     61.11313   -11609.486   -311.63817 
   52200    360.27914   -11539.608    70.878963   -11610.487    3512.3956 
   52400    311.46115   -11546.135    61.274831   -11607.409     13483.02 
   52600     322.5335   -11551.594    63.453133   -11615.047    11173.477 
   52800    346.95824   -11539.312    68.258296    -11607.57    7167.8899 
   53000    347.50272   -11539.945    68.365414    -11608.31   -9.7235598 
   53200    286.87219   -11552.579    56.437359   -11609.016   -11541.486 
   53400    287.43214   -11546.574     56.54752   -11603.122   -1947.7448 
   53600    301.28062   -11531.524    59.271979   -11590.796   -2125.0562 
   53800    294.61398   -11549.393    57.960428   -11607.354   -82.089451 
   54000    301.92265   -11547.866    59.398288   -11607.265    11384.338 
   54200    348.06442   -11526.726    68.475919   -11595.202   -2678.0941 
   54400    273.01165   -11549.881    53.710528   -11603.592    5951.1538 
   54600    307.11275   -11546.738    60.419356   -11607.158   -7005.0485 
   54800    292.44686   -11546.261    57.534083   -11603.795    21719.361 
   55000    261.40353   -11555.544    51.426822   -11606.971    11390.871 
   55200    326.37944   -11541.488    64.209758   -11605.697   -2677.1787 
   55400    322.95305   -11549.308    63.535672   -11612.843    1446.6033 
   55600    291.53218    -11564.92    57.354136   -11622.274   -4757.0858 
   55800    293.95707   -11545.827    57.831192   -11603.658   -3031.1202 
   56000    313.85709   -11546.887    61.746193   -11608.633   -4788.5757 
   56200    347.90655   -11536.379     68.44486   -11604.823    934.91723 
   56400    297.52967   -11550.642    58.534043   -11609.176   -236.74854 
   56600    296.73648   -11550.944    58.377995   -11609.322    684.26858 
   56800    332.09544   -11543.929    65.334287   -11609.263   -5950.0499 
   57000    290.51607   -11542.665    57.154233   -11599.819    -2045.381 
   57200    368.83219   -11536.316    72.561634   -11608.878    2949.8791 
   57400     278.8163   -11547.392    54.852496   -11602.244   -1189.0384 
   57600    329.98186   -11539.677    64.918474   -11604.596    12075.503 
   57800    256.59154   -11560.178    50.480142   -11610.658    12891.579 
   58000    274.60501   -11547.277    54.023995   -11601.301   -725.99411 
   58200    275.85993    -11548.05    54.270879   -11602.321    12744.396 
   58400     293.3593   -11558.889    57.713592   -11616.603    14688.873 
   58600    320.39406   -11539.348    63.032233    -11602.38   -7383.3696 
   58800    227.59287   -11549.134    44.775133    -11593.91    3563.2934 
   59000     265.2371   -11564.657    52.181014   -11616.838    1642.6638 
   59200    316.29177   -11545.373    62.225176   -11607.599    7720.6484 
   59400    270.80329   -11547.337    53.276068   -11600.613    2312.1718 
   59600    248.28259   -11566.501    48.845495   -11615.346    3566.4188 
   59800    287.25955     -11551.6    56.513566   -11608.114   -377.91637 
   60000    293.08529   -11546.431    57.659684    -11604.09   -15783.246 
   60200    312.25639   -11555.049    61.431281    -11616.48   -5060.5078 
   60400    300.88989     -11548.9     59.19511   -11608.095    -10425.39 
   60600    317.09834   -11540.388    62.383855   -11602.771   -8994.5334 
   60800    285.98815   -11555.207     56.26344   -11611.471    4283.1955 
   61000    317.06519   -11543.656    62.377332   -11606.033    4070.6987 
   61200    318.54785   -11535.305    62.669023   -11597.974   -8116.9505 
   61400    259.62808   -11553.951    51.077531   -11605.029   -6794.0093 
   61600     291.9271   -11542.906     57.43183   -11600.338    1105.9163 
   61800    319.51723   -11541.595    62.859732   -11604.455     10947.73 
   62000    299.32431   -11554.448    58.887109   -11613.335   -6182.8778 
   62200    285.00287   -11556.405    56.069602   -11612.475    4737.6171 
   62400     291.5862   -11537.101    57.364762   -11594.465    14423.156 
   62600    291.99419   -11550.949    57.445029   -11608.394    936.90473 
   62800    285.99204    -11550.33    56.264204   -11606.594   -5523.1527 
   63000    302.16681   -11532.218    59.446323   -11591.664   -6781.2092 
   63200    298.11929   -11548.628    58.650041   -11607.278     3293.861 
   63400    325.31689   -11538.433    64.000719   -11602.433   -3413.6152 
   63600     307.1841   -11537.564    60.433391   -11597.997   -4490.9661 
   63800    359.10394   -11538.229    70.647762   -11608.877     7287.405 
   64000    296.31833   -11556.999    58.295731   -11615.294    7373.3083 
   64200    289.49677   -11549.178    56.953702   -11606.131   -493.61046 
   64400    275.09821   -11537.731    54.121024   -11591.852   -2457.6305 
   64600    272.39306   -11547.542     53.58883   -11601.131    -4775.919 
   64800    292.51155   -11565.255    57.546811   -11622.801   -3817.2283 
   65000    265.71492   -11553.949    52.275017   -11606.224    -9106.459 
   65200    328.98012    -11541.58    64.721399   -11606.302   -6993.4301 
   65400    315.38949   -11531.403    62.047667   -11593.451   -23452.102 
   65600    298.28077   -11547.651    58.681808   -11606.332   -7301.4959 
   65800     253.4771    -11553.59    49.867427   -11603.457   -11142.168 
   66000    319.83193   -11536.497    62.921642   -11599.419   -25714.899 
   66200    315.43646   -11546.957    62.056907   -11609.014   -509.93333 
   66400    302.02322   -11545.682    59.418074   -11605.101    -12373.51 
   66600    354.05979   -11534.019     69.65541   -11603.674   -15852.127 
   66800    313.61991   -11538.616     61.69953   -11600.316    10789.374 
   67000    255.26117   -11557.345    50.218415   -11607.563    -2462.408 
   67200    284.05665   -11542.962    55.883449   -11598.846    -7465.795 
   67400    298.72633   -11531.101    58.769465   -11589.871    1819.4211 
   67600    268.97944   -11556.747    52.917258   -11609.665    2312.6895 
   67800    310.48559   -11542.272    61.082905   -11603.354   -164.88676 
   68000    339.24855   -11535.357    66.741541   -11602.098    9919.5947 
   68200    281.50176   -11548.751    55.380816   -11604.132   -9311.1299 
   68400    312.56529    -11542.53    61.492052   -11604.022   -5762.0447 
   68600    295.38809   -11541.005    58.112722   -11599.118   -6429.4915 
   68800    301.87144   -11551.374    59.388213   -11610.762    2099.0935 
   69000    351.38145   -11533.596     69.12849   -11602.724    2826.6485 
   69200    287.11984   -11542.257     56.48608   -11598.743    12635.032 
   69400    283.78501   -11549.222    55.830008   -11605.052    9025.1051 
   69600    252.25658   -11561.814    49.627312   -11611.441    7363.6898 
   69800    310.47659   -11543.036    61.081134   -11604.117    8200.9075 
   70000    321.45431   -11541.748     63.24082   -11604.989   -8423.9219 
   70200     312.5239   -11553.603    61.483909   -11615.087    -15768.75 
   70400    290.73345   -11555.941    57.196999   -11613.138    11953.032 
   70600    302.20695   -11535.989     59.45422   -11595.443    3390.9762 
   70800    267.09736    -11550.49    52.546988   -11603.037   -10352.352 
   71000    306.25609   -11549.019    60.250821    -11609.27   -5337.9135 
   71200    331.66123   -11535.275    65.248863   -11600.523    3685.2457 
   71400     300.3837   -11551.006    59.095525   -11610.102    10108.808 
   71600    309.22382   -11550.721    60.834674   -11611.556    7575.1926 
   71800    233.95247   -11559.039     46.02628   -11605.065    1471.0771 
   72000     331.0775   -11549.949    65.134024   -11615.083    2819.9056 
   72200    299.73791   -11546.131    58.968477     -11605.1   -10785.526 
   72400    316.82368   -11535.971    62.329819   -11598.301    18116.479 
   72600    290.15312   -11546.164    57.082828   -11603.247   -3563.9559 
   72800    305.75796   -11540.556    60.152822   -11600.709    8193.7237 
   73000     284.3196   -11556.666    55.935179   -11612.602    9047.6138 
   73200    284.62205   -11549.691    55.994681   -11605.686   -674.39125 
   73400     290.4228   -11543.825    57.135884   -11600.961    15842.372 
   73600    292.70989   -11554.437    57.585831   -11612.023   -4801.1647 
   73800    285.79146   -11552.231    56.224744   -11608.456    13171.585 
   74000    298.01913   -11545.761    58.630336   -11604.391   -1650.9453 
   74200     287.5523   -11533.175     56.57116   -11589.747   -7014.9126 
   74400    272.77229   -11549.816    53.663438   -11603.479     6086.396 
   74600    308.94287   -11542.795    60.779401   -11603.574    475.05258 
   74800    328.82642   -11524.196     64.69116   -11588.887   -8750.1825 
   75000    279.09994   -11544.232    54.908298    -11599.14   -8959.5279 
   75200    291.76054   -11548.787    57.399062   -11606.187     16841.95 
   75400     290.2666   -11542.571    57.105153   -11599.676   -5495.2924 
   75600    253.63522   -11553.513    49.898535   -11603.411   -5104.7276 
   75800    328.37429   -11539.661    64.602211   -11604.264   -3148.1895 
   76000    280.93456   -11542.222    55.269229   -11597.491   -11682.623 
   76200     284.4202   -11548.026    55.954972   -11603.981   -3481.3233 
   76400    318.73041   -11547.294    62.704937   -11609.999   -5488.5344 
   76600    330.53335   -11547.607     65.02697   -11612.634    10019.484 
   76800    341.43647   -11528.557     67.17198   -11595.729    -12782.69 
   77000    297.72409   -11549.481    58.572291   -11608.053    5201.3015 
   77200    289.07692   -11549.536    56.871104   -11606.407    9853.7836 
   77400    314.99147    -11542.07    61.969363    -11604.04    8705.2399 
   77600    266.66893   -11553.014    52.462701   -11605.477   -2286.7618 
   77800    306.41811   -11549.044    60.282696   -11609.326    2801.7657 
   78000    331.62903   -11531.291    65.242528   -11596.533    2648.7735 
   78200    288.93043    -11552.84    56.842284   -11609.682    -3314.888 
   78400    286.06469   -11546.144    56.278496   -11602.422    3156.8158 
   78600    314.59737   -11532.231    61.891831   -11594.123     2932.242 
   78800    283.07773   -11543.825    55.690863   -11599.516    7808.4486 
   79000    262.92198   -11549.167    51.725551   -11600.893    6251.2658 
   79200    424.21958   -11524.296    83.458187   -11607.754    435.75547 
   79400    315.56313   -11542.862    62.081828   -11604.944   -975.02356 
   79600    267.61519   -11550.919    52.648863   -11603.568    -7743.771 
   79800    310.05609   -11549.018    60.998408   -11610.017   -6078.1677 
   80000    314.87851   -11537.112    61.947139   -11599.059   -2714.9664 
   80200    277.28869   -11544.621    54.551964   -11599.173   -1845.3105 
   80400    256.14163   -11559.894     50.39163   -11610.286     12105.25 
   80600    304.28724   -11538.693    59.863482   -11598.556   -758.90712 
   80800     301.7535   -11545.533    59.365012   -11604.898    3443.8931 
   81000    304.04274   -11554.861    59.815382   -11614.676   -4493.3071 
   81200    304.74631   -11536.462    59.953797   -11596.416    -17669.06 
   81400      340.735   -11531.061    67.033977   -11598.095   -3334.3426 
   81600    359.91315   -11543.789     70.80696   -11614.596   -8330.0801 
   81800    278.15897   -11553.694    54.723177   -11608.417    6514.7514 
   82000    237.80746   -11546.152    46.784685   -11592.937    11978.288 
   82200    336.54567   -11539.229    66.209796   -11605.438    2408.9628 
   82400    280.36253   -11560.778    55.156691   -11615.935    -1058.319 
   82600    310.93216   -11553.916     61.17076   -11615.087   -4915.0684 
   82800    307.49439   -11544.682    60.494436   -11605.176    11155.184 
   83000    291.26115   -11545.283    57.300815   -11602.584    471.20384 
   83200    311.99753   -11550.099    61.380355   -11611.479    1482.7317 
   83400    285.29537   -11557.756    56.127147   -11613.883   -6230.3581 
   83600    319.69582   -11541.705    62.894866     -11604.6    6095.5162 
   83800    248.27118   -11555.362    48.843248   -11604.206   -9756.1303 
   84000    295.51211   -11550.421    58.137121   -11608.558    8580.0606 
   84200    291.87382   -11538.828    57.421348   -11596.249    16122.597 
   84400    275.75488    -11550.42    54.250214    -11604.67     803.3302 
   84600    282.24034   -11550.535     55.52612   -11606.061   -9830.1527 
   84800    310.60481   -11540.242    61.106361   -11601.348    16257.576 
   85000      279.584   -11562.458    55.003529   -11617.461    5102.0926 
   85200    262.86218   -11556.364    51.713788   -11608.077     5723.469 
   85400     312.3544   -11542.063    61.450564   -11603.514    9154.8707 
   85600    347.33649   -11532.588    68.332711    -11600.92   -4291.7077 
   85800    288.76564   -11555.415    56.809864   -11612.224    13245.593 
   86000    279.87176    -11550.68     55.06014    -11605.74    5244.0672 
   86200    337.59613   -11534.519    66.416455   -11600.936   -9982.9823 
   86400    312.79065   -11549.957    61.536388   -11611.493    -6540.811 
   86600    287.00012   -11548.681    56.462528   -11605.143    22645.117 
   86800    308.08776   -11539.518    60.611172   -11600.129     18004.68 
   87000    307.54833   -11527.955    60.505049    -11588.46    12833.116 
   87200    292.29831   -11541.978    57.504859   -11599.483   -6287.3551 
   87400    306.30592   -11557.255    60.260625   -11617.515   -14120.609 
   87600    311.25095   -11548.427    61.233478    -11609.66    5858.2277 
   87800    319.75821    -11540.67    62.907139   -11603.577    6608.3721 
   88000    319.74551   -11552.213    62.904641   -11615.118   -15696.402 
   88200    241.70229   -11563.002    47.550929   -11610.553    2372.7248 
   88400    342.59295   -11541.294    67.399498   -11608.694    511.00733 
   88600    320.28355   -11548.916    63.010492   -11611.927   -3358.7593 
   88800    298.60144   -11561.861    58.744896   -11620.606    1544.2728 
   89000    274.80683   -11551.708      54.0637   -11605.772    9392.8688 
   89200    292.98178   -11552.088    57.639321   -11609.727    7838.9895 
   89400    270.97074    -11564.64    53.309013   -11617.949    2853.4551 
   89600    341.28165   -11545.719    67.141522    -11612.86    4498.7556 
   89800    275.47507   -11550.609    54.195164   -11604.805   -2943.2084 
   90000    307.64216   -11537.807    60.523507   -11598.331   -3305.4022 
   90200    287.34591   -11545.783    56.530555   -11602.313    8966.4031 
   90400    281.74783   -11546.678    55.429226   -11602.108    28760.708 
   90600    317.24808    -11550.14    62.413314   -11612.553   -15856.826 
   90800    325.25386   -11543.832    63.988318    -11607.82     5368.259 
   91000    308.16672   -11538.786    60.626706   -11599.412    9867.9179 
   91200    263.76671    -11556.12    51.891738   -11608.012    4975.0515 
   91400    339.17775    -11536.92    66.727613   -11603.648    10380.155 
   91600    348.14935   -11538.465    68.492628   -11606.958   -13604.942 
   91800    319.60682   -11553.209    62.877357   -11616.087    5393.1408 
   92000     302.2883   -11544.792    59.470225   -11604.262   -296.16507 
   92200    312.39739   -11537.398     61.45902   -11598.857    -23990.85 
   92400    248.90653   -11551.084    48.968244   -11600.052    74.147692 
   92600    344.61354   -11531.252    67.797015   -11599.049   -2736.0715 
   92800     264.0745   -11546.769    51.952291   -11598.721   -9186.1732 
   93000     285.8992    -11552.05     56.24594   -11608.296    3074.2874 
   93200    309.67576   -11559.538    60.923584   -11620.461   -1233.1769 
   93400    304.58401   -11556.848    59.921868    -11616.77   -3579.6544 
   93600    287.20587    -11537.61    56.503006   -11594.113   -7641.3822 
   93800    252.30385   -11540.793     49.63661   -11590.429   -8233.3657 
   94000    302.72198   -11540.672    59.555543   -11600.228   -11299.047 
   94200    310.38493   -11539.582    61.063103   -11600.645   -6015.7589 
   94400    342.40458   -11529.067    67.362439   -11596.429    8336.3645 
   94600    292.50449   -11547.589    57.545421   -11605.134    1605.8469 
   94800    280.74378   -11547.995    55.231697   -11603.227   -28386.219 
   95000    300.85575    -11557.43    59.188394   -11616.618    8339.6651 
   95200    326.35305   -11555.841    64.204566   -11620.045   -8143.7693 
   95400    296.48936   -11541.672    58.329378   -11600.002    4470.3513 
   95600    247.50293   -11564.191    48.692109   -11612.883   -8241.9078 
   95800    342.02859   -11547.293    67.288469   -11614.582    -13874.17 
   96000    309.35076   -11535.438    60.859646   -11596.298   -20281.978 
   96200    350.78861   -11514.023    69.011858   -11583.034   -536.70651 
   96400    322.58852   -11535.986    63.463957    -11599.45    1728.1135 
   96600    314.55768   -11548.629    61.884021   -11610.513    2788.6453 
   96800    300.85253   -11555.415     59.18776   -11614.603    12236.195 
   97000    359.03854   -11536.846    70.634895   -11607.481   -14274.933 
   97200    309.91092   -11554.493    60.969848   -11615.463    7500.5168 
   97400    303.29226   -11552.089    59.667737   -11611.756   -3468.6941 
   97600    283.86623   -11539.455    55.845987   -11595.301    -10957.54 
   97800    319.73128   -11541.448    62.901842    -11604.35    2404.2272 
   98000    311.10832   -11547.642    61.205417   -11608.847   -2280.3188 
   98200    323.15351   -11528.756    63.575109   -11592.331    8517.7526 
   98400     297.2492   -11535.237    58.478865   -11593.716    1809.8501 
   98600    305.35708   -11544.095    60.073956   -11604.169    -20634.04 
   98800    308.01221   -11545.401    60.596308   -11605.997   -5162.6638 
   99000    378.28301   -11532.183    74.420927   -11606.604     2115.891 
   99200     312.1851   -11554.081    61.417255   -11615.498   -3757.4306 
   99400    306.95188   -11553.031    60.387706   -11613.418    6283.0898 
   99600    307.10157   -11541.333    60.417156    -11601.75   -27519.833 
   99800    298.69028   -11542.113    58.762374   -11600.875    15571.873 
  100000    309.39216   -11554.401    60.867791   -11615.268   -2603.3894 
  100200    298.31777   -11534.189    58.689087   -11592.878   -6462.9947 
  100400    326.73239   -11530.424    64.279194   -11594.703    9518.7412 
  100600     290.1397   -11544.775    57.080188   -11601.855    2791.3151 
  100800    232.34443   -11559.966    45.709925   -11605.676    4150.3768 
  101000    307.93576   -11549.687    60.581268   -11610.268   -4142.7428 
  101200    319.52311   -11538.028    62.860889   -11600.889    3404.9907 
  101400    267.98138   -11559.373    52.720905   -11612.094   -6655.6639 
  101600    254.22008   -11554.821    50.013596   -11604.835   -1186.2013 
  101800     347.4139   -11539.296    68.347939   -11607.644   -7410.1957 
  102000    297.19608   -11543.443    58.468414   -11601.911   -23123.671 
  102200    372.12733   -11533.582    73.209898   -11606.792   -2255.5106 
  102400    266.70841   -11542.022    52.470468   -11594.493    1660.0715 
  102600    348.00735    -11531.94    68.464691   -11600.405   -9922.5117 
  102800    260.78353   -11545.788    51.304847   -11597.092    5236.3185 
  103000    296.75146   -11552.825    58.380943   -11611.206   -8661.0508 
  103200    251.90704   -11567.172    49.558545    -11616.73    4573.8076 
  103400    324.53223   -11548.593    63.846349    -11612.44   -5271.7674 
  103600    328.01927   -11552.438    64.532366    -11616.97   -8279.7712 
  103800    257.35207   -11560.443    50.629765   -11611.073    2781.8674 
  104000    267.62159   -11541.291    52.650121   -11593.942    14463.925 
  104200    298.53291   -11543.519    58.731413    -11602.25     -17713.7 
  104400    247.73315   -11552.821    48.737401   -11601.559    4682.2071 
  104600    339.47285   -11532.444    66.785669    -11599.23    2985.7965 
  104800    327.34779   -11536.027    64.400263   -11600.427   -4250.8339 
  105000    260.19437   -11556.234     51.18894   -11607.423    831.53748 
  105200     292.1471   -11553.896    57.475111   -11611.371    11267.443 
  105400    365.89804   -11527.004    71.984388   -11598.988   -13469.079 
  105600    316.38575   -11541.802    62.243664   -11604.045   -1194.8508 
  105800     303.2912   -11553.977    59.667529   -11613.645    954.15436 
  106000    309.70757   -11548.238    60.929843   -11609.168   -3577.3761 
  106200     306.8611    -11533.12    60.369847    -11593.49   -22493.238 
  106400    293.59456   -11551.281    57.759874   -11609.041   -2933.1264 
  106600    225.08194   -11549.676    44.281149   -11593.957   -599.71662 
  106800    300.95923   -11536.628    59.208752   -11595.837   -16445.452 
  107000    290.75457   -11544.406    57.201154   -11601.607    949.10013 
  107200    254.27708   -11558.975    50.024811       -11609    4835.7289 
  107400    325.06291   -11544.692    63.950752   -11608.643    4454.6407 
  107600    365.81149   -11534.514    71.967361   -11606.481   -1876.1583 
  107800    254.68566   -11557.742    50.105192   -11607.847    2876.8754 
  108000    305.59422   -11546.655    60.120609   -11606.775    272.12296 
  108200    259.34221   -11549.529    51.021292    -11600.55    1618.2917 
  108400    315.51272   -11534.894     62.07191   -11596.966    202.13405 
  108600    224.22522   -11555.392    44.112604   -11599.504    14236.358 
  108800    284.24224   -11545.586    55.919961   -11601.506    1843.8436 
  109000    338.54413   -11529.102     66.60296   -11595.705   -4932.8371 
  109200    313.54166   -11540.108    61.684137   -11601.792   -2768.8744 
  109400    300.42326    -11555.33    59.103308   -11614.433    -8263.934 
  109600    340.29098   -11542.426    66.946623   -11609.372   -12612.137 
  109800    285.17292   -11553.433    56.103057   -11609.537   -6456.4542 
  110000    273.99676   -11559.095    53.904332       -11613   -14076.426 
  110200    295.30369   -11543.266    58.096117   -11601.362   -33168.713 
  110400    282.72081   -11543.248    55.620645   -11598.869   -6147.2158 
  110600     331.7739    -11542.62    65.271029   -11607.891    8815.8558 
  110800    364.50973   -11532.763    71.711262   -11604.474    607.26408 
  111000    288.15277    -11554.14    56.689293    -11610.83   -825.54306 
  111200    345.94239   -11545.503    68.058445   -11613.561    11096.897 
  111400    293.31874   -11542.952    57.705611   -11600.657   -7720.9289 
  111600     292.3173   -11559.103    57.508594   -11616.611     14081.36 
  111800    300.52597   -11550.331    59.123515   -11609.455     62.30412 
  112000    292.91076   -11539.919    57.625347   -11597.544     6283.797 
  112200    270.12161   -11551.564    53.141959   -11604.706    11876.209 
  112400    294.77391   -11553.386    57.991892   -11611.378   -7273.0691 
  112600    292.32161   -11537.486    57.509442   -11594.996   -2920.5845 
  112800    292.55812   -11539.558    57.555972   -11597.114   -2361.6567 
  113000    278.65184   -11555.829    54.820141   -11610.649   -6504.2041 
  113200    261.31128   -11560.334    51.408674   -11611.743    424.51621 
  113400    304.59893   -11544.687    59.924803   -11604.611   -12095.862 
  113600    318.84105   -11554.891    62.726704   -11617.618    14932.031 
  113800    233.39663   -11570.277    45.916926   -11616.194   -19372.725 
  114000      328.641   -11553.165    64.654681    -11617.82   -1854.3741 
  114200    331.86323   -11536.337    65.288602   -11601.625    9542.2967 
  114400    289.19127   -11551.242    56.893601   -11608.136   -1874.0195 
  114600    294.45724   -11547.531    57.929593    -11605.46    19616.356 
  114800    301.45246   -11534.408    59.305787   -11593.714   -23678.704 
  115000    277.15255     -11548.3     54.52518   -11602.826    17164.961 
  115200    291.20959   -11553.484    57.290671   -11610.775   -12032.453 
  115400    314.31719   -11530.602    61.836709   -11592.439   -2489.5767 
  115600    297.05957    -11544.54    58.441559   -11602.982    6771.1924 
  115800     282.1692   -11549.584    55.512124   -11605.097   -2862.2059 
  116000    299.67333   -11537.227    58.955773   -11596.182    6305.7641 
  116200    254.19807   -11550.691    50.009267     -11600.7    569.41879 
  116400    251.22164   -11550.757    49.423703   -11600.181   -22519.069 
  116600    286.35511   -11533.698    56.335632   -11590.033    5823.3773 
  116800    320.57528    -11545.82    63.067885   -11608.887    11213.939 
  117000     250.3499    -11563.08    49.252202   -11612.332    5605.2139 
  117200    282.99607   -11549.754    55.674798   -11605.429   -30024.903 
  117400    338.58415   -11534.002    66.610832   -11600.613   -1250.1168 
  117600    282.46107   -11554.458    55.569544   -11610.027    11069.507 
  117800    320.91912   -11546.026     63.13553   -11609.162   -1609.1616 
  118000    280.20988    -11544.72    55.126661   -11599.847    11190.062 
  118200    302.09918    -11544.22    59.433018   -11603.653    3778.4256 
  118400    299.30234   -11539.527    58.882786    -11598.41   -4277.3756 
  118600    312.58319   -11528.469    61.495573   -11589.964    1109.9452 
  118800    325.45869    -11539.86    64.028616   -11603.889   -3431.8933 
  119000     308.5951   -11551.554    60.710984   -11612.265    2794.5144 
  119200    372.80881    -11541.09    73.343968   -11614.434   -2480.4341 
  119400    359.48981   -11535.126    70.723676   -11605.849    -2192.949 
  119600    290.02116   -11550.645    57.056867   -11607.701    -17593.55 
  119800    287.91733    -11540.07    56.642973   -11596.713   -13674.816 
  120000    287.57049   -11537.126    56.574739   -11593.701     -16938.2 
  120200    300.62727   -11539.674    59.143443   -11598.817    1320.4984 
  120400     239.2368   -11555.934    47.065883       -11603    11588.042 
  120600    307.12033    -11545.41    60.420846   -11605.831    -3513.443 
  120800    380.21742   -11539.919    74.801491    -11614.72   -6991.1876 
  121000     328.7013    -11548.21    64.666546   -11612.876    720.88611 
  121200    298.11667   -11548.646    58.649524   -11607.295   -7581.2342 
  121400    263.07257   -11550.214    51.755178   -11601.969    7147.8078 
  121600    330.56882   -11540.777    65.033949   -11605.811    11480.783 
  121800    266.79674   -11557.227    52.487847   -11609.715   -20824.032 
  122000    348.85602   -11539.484    68.631652   -11608.115   -10953.345 
  122200    333.93593   -11537.566    65.696373   -11603.262    8221.5359 
  122400    246.28537   -11553.491    48.452574   -11601.943    19658.765 
  122600    335.58641   -11532.635    66.021077   -11598.656    6926.7827 
  122800    303.61503   -11539.433    59.731237   -11599.164   -1911.4966 
  123000    286.70814   -11559.356    56.405085   -11615.761   -11668.644 
  123200    244.17152   -11555.704    48.036708   -11603.741    16783.504 
  123400    301.27715    -11545.99    59.271298   -11605.262    -8213.275 
  123600    295.82453   -11539.323    58.198584   -11597.521   -10271.863 
  123800    247.07312   -11559.505     48.60755   -11608.112    19476.903 
  124000     318.1421   -11541.835    62.589197   -11604.424    2358.2653 
  124200     342.8728   -11542.707    67.454553   -11610.162   -8488.2979 
  124400     313.8072   -11541.224    61.736377    -11602.96    3525.4977 
  124600    294.24628   -11551.893    57.888089   -11609.781   -11753.016 
  124800    274.73693   -11552.225    54.049949   -11606.275   -15533.787 
  125000    361.42693   -11531.554    71.104771   -11602.659    4418.5378 
  125200    327.40342   -11546.838    64.411209   -11611.249   -2926.9824 
  125400    285.50862   -11552.504    56.169099   -11608.673   -3467.9978 
  125600    279.32624   -11542.442    54.952818   -11597.395    4772.7586 
  125800    310.85567   -11533.297    61.155712   -11594.453   -4883.2867 
  126000    288.13575    -11544.04    56.685944   -11600.726    8887.2074 
  126200    267.96067   -11561.355    52.716832   -11614.072    10976.563 
  126400    334.08464   -11544.725    65.725628   -11610.451    5816.4827 
  126600    257.57427   -11543.637    50.673478    -11594.31    2105.6997 
  126800    348.12133   -11542.213    68.487115     -11610.7    12050.005 
  127000    272.90475   -11554.251    53.689496   -11607.941    2349.4349 
  127200    340.00229   -11540.621    66.889827   -11607.511    2288.3299 
  127400    286.14259   -11559.557    56.293823   -11615.851   -17311.933 
  127600    295.89645   -11555.963    58.212734   -11614.176   -3799.6046 
  127800    307.84208   -11538.021    60.562839   -11598.584    11649.984 
  128000    284.85619   -11544.491    56.040746   -11600.531   -3410.5282 
  128200    286.38309   -11543.773    56.341136   -11600.114    9656.5555 
  128400    256.72373   -11550.333    50.506149   -11600.839    16058.554 
  128600    301.19753    -11547.18    59.255633   -11606.436   -20472.052 
  128800    304.06664   -11552.646    59.820083   -11612.466    10922.816 
  129000      270.861   -11549.156    53.287422   -11602.443     7628.881 
  129200      279.781     -11545.9    55.042286   -11600.942   -15407.487 
  129400    362.76953   -11534.415    71.368905   -11605.784    4169.2012 
  129600    262.53403   -11555.798    51.649229   -11607.447   -11205.325 
  129800    313.03852   -11544.341    61.585152   -11605.926    137.71647 
  130000    352.79008   -11529.111    69.405614   -11598.516    5368.8064 
  130200     328.1376   -11537.972    64.555646   -11602.528    17454.879 
  130400    280.58706   -11548.395    55.200864   -11603.596     1771.331 
  130600     334.0202   -11538.449     65.71295   -11604.162     2553.727 
  130800    315.27812   -11538.375    62.025756     -11600.4    1052.7884 
  131000    309.94799   -11548.734    60.977141   -11609.711   -5966.0994 
  131200    298.66013   -11549.376    58.756442   -11608.133   -10159.253 
  131400    349.40399   -11540.093    68.739456   -11608.833   -2847.9372 
  131600    284.09134   -11541.866    55.890274   -11597.757    741.66629 
  131800    267.90209   -11560.133    52.705306   -11612.838   -8328.8949 
  132000    318.54495   -11546.996    62.668452   -11609.664   -4939.3608 
  132200    313.52934   -11537.206    61.681713   -11598.888    6918.6531 
  132400    302.09933   -11541.094    59.433048   -11600.527    -14358.29 
  132600    270.24191   -11553.936    53.165628   -11607.102   -16387.307 
  132800    363.72587   -11531.554    71.557049   -11603.111    13283.072 
  133000     283.1764   -11540.835    55.710274   -11596.545   -4684.2954 
  133200    273.93935   -11550.007    53.893037     -11603.9   -2617.7819 
  133400    273.74519   -11567.788    53.854839   -11621.643   -5833.6478 
  133600     277.9076   -11544.927    54.673725   -11599.601   -16051.401 
  133800    368.71217   -11534.129    72.538021   -11606.667    -6055.846 
  134000    284.40443   -11553.872    55.951868   -11609.823    1932.4612 
  134200    311.96371   -11548.337    61.373701   -11609.711   -9114.5719 
  134400    335.16322   -11526.558    65.937821   -11592.496   -604.85481 
  134600    320.01989   -11532.353    62.958622   -11595.311   -6492.7037 
  134800    262.29508   -11552.797     51.60222   -11604.399   -8988.5155 
  135000    343.57267   -11542.083    67.592242   -11609.675   -4064.2282 
  135200    286.10735   -11546.895    56.286889   -11603.182   -9683.2712 
  135400    336.54737   -11553.017     66.21013   -11619.228   -3681.2313 
  135600     280.3262   -11543.678    55.149545   -11598.828   -13234.981 
  135800    312.92724   -11538.194    61.563259   -11599.758    -7886.976 
  136000    266.90199   -11551.116    52.508552   -11603.625   -184.10422 
  136200    301.62883   -11554.823    59.340484   -11614.163   -271.92989 
  136400     304.8147   -11534.118    59.967251   -11594.085    3829.3551 
  136600    305.04336   -11549.282    60.012237   -11609.294    1504.7947 
  136800    302.83984   -11553.686    59.578731   -11613.265   -1213.3448 
  137000    286.89263   -11551.034    56.441381   -11607.475   -9121.7002 
  137200    326.90534   -11540.196    64.313221   -11604.509    9724.6967 
  137400    300.45256   -11544.358    59.109072   -11603.467   -188.84415 
  137600    294.32128   -11548.047    57.902844    -11605.95    15264.414 
  137800     378.6135    -11526.87    74.485945   -11601.356    9396.4197 
  138000    289.10438   -11523.118    56.876506   -11579.994    17669.034 
  138200    282.30467   -11546.554    55.538775   -11602.093    2257.4701 
  138400    302.45764   -11541.567    59.503539   -11601.071    8640.6847 
  138600    307.15679    -11545.04    60.428019   -11605.468   -15537.136 
  138800    269.01292   -11557.684    52.923844   -11610.608   -10209.351 
  139000    320.37904   -11542.906    63.029278   -11605.935    6283.8886 
  139200    298.08673   -11563.163    58.643635   -11621.806    5538.2897 
  139400    310.67879   -11557.879    61.120915       -11619    7405.2535 
  139600    265.65456   -11542.398    52.263142   -11594.661   -91.371865 
  139800    327.57131   -11542.124    64.444237   -11606.568   -5995.3045 
  140000    259.40834   -11553.217    51.034301   -11604.252    2687.3122 
  140200     348.6292   -11542.133    68.587029    -11610.72    9238.6268 
  140400    347.14705   -11538.259    68.295441   -11606.555    12639.566 
  140600    266.18499   -11555.091    52.367496   -11607.458    1210.0466 
  140800    295.16496   -11547.111    58.068826    -11605.18   -14707.857 
  141000    243.32234   -11553.668    47.869647   -11601.538   -10524.663 
  141200     244.7465   -11557.363    48.149826   -11605.513    4536.9504 
  141400    309.72704   -11539.673    60.933673   -11600.606    6175.1597 
  141600    279.46882   -11546.981    54.980869   -11601.962    13574.754 
  141800    294.81835   -11545.316    58.000636   -11603.317   -5446.3983 
  142000     344.9711   -11529.399    67.867359   -11597.267   -6023.9961 
  142200    360.59976    -11534.27    70.942039   -11605.212    1144.5895 
  142400    291.34412   -11547.438    57.317138   -11604.755    8702.2144 
  142600    323.33817   -11541.302    63.611437   -11604.913   -2360.2734 
  142800    340.50513   -11548.809    66.988754   -11615.798    -1325.549 
  143000    269.98053   -11556.478    53.114205   -11609.593    1360.8074 
  143200    325.37664   -11544.507    64.012473    -11608.52   -6599.2713 
  143400    297.18483   -11562.626    58.466201   -11621.092    10668.534 
  143600     256.4976   -11556.606    50.461661   -11607.067     -2741.59 
  143800    305.50215   -11539.413    60.102496   -11599.515   -3460.0148 
  144000    303.93241   -11546.164    59.793677   -11605.958    5838.9295 
  144200    304.96322   -11552.095    59.996471   -11612.091    10730.499 
  144400    320.52649   -11538.362    63.058287   -11601.421   -289.52221 
  144600    273.21716   -11553.013    53.750958   -11606.764    11154.022 
  144800    290.28088   -11536.572    57.107964    -11593.68    2109.2239 
  145000    283.13071   -11534.376    55.701285   -11590.077    -11452.64 
  145200    286.97596   -11549.594    56.457774   -11606.052   -11105.396 
  145400    312.15896   -11544.753    61.412113   -11606.166   -5289.3535 
  145600    317.93815   -11535.456    62.549073   -11598.005    15555.288 
  145800    319.62653   -11554.936    62.881234   -11617.817    7533.8804 
  146000    319.97555   -11541.532    62.949899   -11604.482    3155.7722 
  146200    269.72052   -11543.036    53.063052   -11596.099   -7699.5662 
  146400    238.99215   -11558.921    47.017753   -11605.939   -10954.438 
  146600    291.23759   -11543.855     57.29618   -11601.151    1579.1659 
  146800    336.69906   -11537.756    66.239972   -11603.996   -5343.1133 
  147000     325.5908   -11539.466    64.054605   -11603.521    5431.7388 
  147200     312.6248    -11552.92    61.503759   -11614.424    6262.7709 
  147400     331.6312   -11533.265    65.242955   -11598.508   -3355.8215 
  147600    271.29048   -11538.201    53.371916   -11591.573    1008.8472 
  147800    276.72278    -11552.53    54.440631   -11606.971    3987.7978 
  148000    299.90445   -11545.776    59.001241   -11604.777   -402.88304 
  148200    300.56912   -11537.009    59.132004   -11596.141    10270.274 
  148400    308.68909   -11545.166    60.729474   -11605.895     2340.864 
  148600    298.81635   -11550.019    58.787175   -11608.806    7503.9971 
  148800     272.2572       -11556    53.562103   -11609.562   -7165.5847 
  149000    340.84557   -11539.912     67.05573   -11606.968   -747.40876 
  149200    281.84001   -11550.473    55.447361    -11605.92   -1536.7233 
  149400    301.77118   -11549.175     59.36849   -11608.543   -7378.6456 
  149600    305.24578   -11546.876    60.052059   -11606.928   -6323.3001 
  149800    330.19779   -11549.696    64.960955   -11614.657    984.08812 
  150000    318.88264   -11547.135    62.734886    -11609.87    -7898.093 
  150200    300.36353   -11544.155    59.091557   -11603.246     8492.649 
  150400    285.26843   -11553.869    56.121847   -11609.991    5296.5403 
  150600    314.40149   -11547.915    61.853295   -11609.769   -7762.8247 
  150800    317.58188   -11535.517    62.478982   -11597.996   -7715.6905 
  151000    261.13206   -11548.369    51.373415   -11599.743   -2368.3608 
  151200    291.62629    -11543.29    57.372651   -11600.662   -7285.9891 
  151400    286.43662   -11542.828    56.351668   -11599.179   -7460.1037 
  151600    265.93069   -11560.826    52.317465   -11613.143   -5805.4907 
  151800    301.32669   -11538.852    59.281044   -11598.133   -17592.524 
  152000     368.8195   -11534.068    72.559137   -11606.627     6092.288 
  152200    323.74207   -11553.196    63.690899   -11616.887    7895.4344 
  152400    305.43821   -11553.498    60.089916   -11613.588    8058.1891 
  152600    250.35508   -11562.259    49.253223   -11611.512    3882.3347 
  152800    329.39609   -11543.271    64.803234   -11608.074    941.37836 
  153000    236.99813   -11553.669    46.625463   -11600.294   -2934.2229 
  153200    269.54269   -11550.879    53.028067   -11603.907    528.58769 
  153400     281.0842   -11546.549    55.298667   -11601.848   -1709.5033 
  153600    374.76698   -11532.966    73.729205   -11606.695   -18855.506 
  153800    314.01416   -11543.042    61.777093   -11604.819    14631.817 
  154000    283.86782   -11544.445    55.846299   -11600.291     19.93321 
  154200    341.49765   -11528.072    67.184016   -11595.256   -3342.9909 
  154400    256.64108   -11553.212    50.489889   -11603.702   -3668.3758 
  154600    312.34332   -11537.286    61.448384   -11598.734     12370.02 
  154800    283.81665   -11554.907    55.836232   -11610.743    -14694.94 
  155000    254.94461   -11555.976    50.156136   -11606.132    10163.855 
  155200    301.62466   -11545.715    59.339665   -11605.055   -5857.2481 
  155400    375.29628   -11524.428    73.833337   -11598.262   -3592.0587 
  155600    339.85434   -11543.844    66.860721   -11610.705   -11716.626 
  155800    274.13608   -11548.576     53.93174   -11602.508    17189.228 
  156000    316.37456    -11530.49    62.241463   -11592.732    7218.6932 
  156200    357.62411    -11523.98    70.356629   -11594.336    8749.2865 
  156400    282.89564   -11549.679    55.655039   -11605.334    192.46008 
  156600      304.922   -11541.539     59.98836   -11601.527    4290.0871 
  156800    311.42302   -11547.264    61.267329   -11608.531     10712.93 
  157000    313.98929   -11551.054    61.772201   -11612.826    1165.0437 
  157200    363.77717   -11538.448    71.567142   -11610.015   -1349.7322 
  157400      299.964   -11546.957    59.012956    -11605.97   -2121.5572 
  157600    253.19512   -11558.821    49.811953   -11608.633    8547.6614 
  157800     317.5549   -11538.694    62.473676   -11601.167    3943.1088 
  158000    317.98922   -11549.493     62.55912   -11612.052   -8481.4579 
  158200    343.87652   -11526.718    67.652018    -11594.37   -12307.162 
  158400    319.24137   -11540.901     62.80546   -11603.706    2184.5206 
  158600    323.97957   -11542.904    63.737622   -11606.641    -9932.739 
  158800    271.45976   -11559.215    53.405218    -11612.62   -6686.6352 
  159000    284.34419   -11550.058    55.940017   -11605.998   -8489.0365 
  159200    334.79446   -11521.888    65.865273   -11587.753    1333.7568 
  159400    332.67671   -11543.793    65.448641   -11609.242    8457.3665 
  159600    277.45512   -11552.506    54.584707   -11607.091   -7748.3446 
  159800     330.2152   -11536.319    64.964381   -11601.284    6740.6746 
  160000    266.87946   -11553.403     52.50412   -11605.907    846.71674 
  160200    296.41243   -11549.088    58.314245   -11607.402   -8264.1048 
  160400    299.84474   -11547.416    58.989495   -11606.406   -9659.6859 
  160600    279.67955   -11557.578    55.022326     -11612.6   -2139.7149 
  160800     314.0257   -11552.734    61.779364   -11614.513    3151.4402 
  161000    269.49552    -11550.87    53.018787   -11603.889   -12710.459 
  161200    239.88183   -11559.368    47.192783   -11606.561   -8387.4758 
  161400    311.85174     -11550.7    61.351673   -11612.051    4414.7265 
  161600    271.00479   -11547.837    53.315712   -11601.152   -22107.716 
  161800    309.34342   -11529.155    60.858203   -11590.013    3689.2636 
  162000    338.16001   -11535.866    66.527391   -11602.394   -1197.4355 
  162200    290.77941   -11552.467     57.20604   -11609.673    12985.336 
  162400     319.9145    -11541.84    62.937888   -11604.778    128.41359 
  162600    319.44522   -11533.276    62.845564   -11596.122    5799.0059 
  162800    291.11003    -11548.62    57.271085   -11605.891   -11370.959 
  163000    277.25576   -11554.648    54.545486   -11609.194    4148.7949 
  163200    354.74857   -11534.824    69.790914   -11604.615   -10188.757 
  163400    322.84134   -11534.724    63.513695   -11598.237   -15148.011 
  163600    324.58788   -11545.081    63.857297   -11608.938    11330.944 
  163800    270.81706   -11545.355    53.278778   -11598.634   -1110.2824 
  164000    337.84062    -11530.16    66.464554   -11596.625   -11827.675 
  164200    274.28315   -11551.275    53.960675   -11605.236    5805.4434 
  164400    302.78757   -11541.143    59.568447   -11600.712    11541.752 
  164600    286.34075   -11541.677    56.332808    -11598.01    7351.1248 
  164800    263.36048   -11554.636    51.811819   -11606.448   -7147.0328 
  165000    349.49875    -11537.04    68.758099   -11605.798   -19345.571 
  165200    282.89592   -11544.473    55.655094   -11600.128    3379.1757 
  165400    291.36514   -11551.875    57.321274   -11609.197   -2883.4619 
  165600    318.01609   -11532.037    62.564407   -11594.602    2941.7637 
  165800    263.46371   -11541.787    51.832127   -11593.619    2423.3661 
  166000    298.64689    -11543.27    58.753838   -11602.024    10586.877 
  166200    299.79077   -11548.079    58.978876   -11607.058    -18393.88 
  166400    327.58478   -11542.441    64.446889   -11606.888    4586.6554 
  166600      342.346   -11541.852    67.350914   -11609.203    5729.4673 
  166800    279.21463   -11551.546    54.930862   -11606.476    1279.5212 
  167000    359.14002   -11533.813     70.65486   -11604.468    9353.4043 
  167200    279.26273   -11551.609    54.940325   -11606.549    2438.9941 
  167400    311.52686   -11548.796    61.287759   -11610.083    7586.3916 
  167600     324.6826   -11529.749    63.875933   -11593.625     8191.149 
  167800    266.25492   -11543.954    52.381253   -11596.335    12629.873 
  168000    276.52902   -11554.934    54.402511   -11609.336   -5732.2942 
  168200    349.75886   -11533.731    68.809271    -11602.54    25600.262 
  168400    317.54002   -11543.965    62.470748   -11606.436   -8036.6541 
  168600    296.96487   -11549.749    58.422928   -11608.172   -6772.8299 
  168800    291.61485   -11549.149    57.370399    -11606.52    586.85438 
  169000    252.12714   -11566.745    49.601845   -11616.347    4134.0651 
  169200    302.28464   -11551.436    59.469503   -11610.906    9220.1999 
  169400    293.34993   -11546.111    57.711748   -11603.823   -4969.8572 
  169600    255.39732   -11554.736      50.2452   -11604.981   -4259.9658 
  169800    327.89471   -11533.767    64.507862   -11598.275    5938.8199 
  170000    302.44049   -11537.464    59.500166   -11596.964    5821.5677 
  170200    301.70322   -11544.278    59.355118   -11603.633   -6460.2177 
  170400    327.10672   -11523.291    64.352838   -11587.644   -16309.599 
  170600    292.48403   -11546.894    57.541395   -11604.435    10363.137 
  170800    285.78579   -11549.107    56.223628   -11605.331   -11872.522 
  171000    356.27122     -11530.6     70.09047   -11600.691   -10629.766 
  171200    289.37834   -11549.406    56.930402   -11606.337   -3644.1001 
  171400    279.67028   -11552.722    55.020503   -11607.743   -460.76847 
  171600    316.79378   -11535.583    62.323937   -11597.907    12003.335 
  171800    288.37359   -11558.652    56.732735   -11615.385    1509.7894 
  172000     319.1285   -11542.511    62.783255   -11605.295   -12387.694 
  172200    296.80563   -11544.238      58.3916    -11602.63   -622.87094 
  172400    262.87355    -11563.49    51.716023   -11615.206   -3057.9816 
  172600      324.299    -11541.95    63.800466    -11605.75     5884.103 
  172800    310.60525   -11533.556    61.106446   -11594.663   -1734.7256 
  173000    262.17762   -11545.134    51.579112   -11596.713    10916.869 
  173200    276.77581   -11546.636    54.451064   -11601.087   -10539.858 
  173400    343.72266   -11526.953    67.621749   -11594.575    7685.7689 
  173600     335.2989   -11535.887    65.964514   -11601.851    16852.391 
  173800    312.38822   -11548.523    61.457217    -11609.98   -20002.984 
  174000    313.48559   -11550.002    61.673106   -11611.676    10776.559 
  174200     383.6997   -11531.473    75.486571    -11606.96   -182.48496 
  174400    249.70305   -11550.801    49.124946   -11599.926    10686.692 
  174600    290.10444   -11545.926     57.07325   -11602.999   -15877.938 
  174800    281.11506   -11539.707    55.304739   -11595.012   -7417.7339 
  175000    360.48256   -11532.109    70.918983   -11603.028   -17895.786 
  175200    300.32196   -11547.271    59.083379   -11606.354   -10495.485 
  175400    251.39226   -11563.786     49.45727   -11613.243   -4148.6137 
  175600    278.95044   -11550.945    54.878885   -11605.824    11727.313 
  175800    324.76594   -11539.109    63.892328   -11603.002   -1084.1626 
  176000    272.40744   -11551.238    53.591659   -11604.829   -10193.496 
  176200    245.34852   -11557.218    48.268264   -11605.486   -19064.049 
  176400    306.25614   -11544.294    60.250831   -11604.545   -9583.9226 
  176600    311.37132    -11537.51    61.257159   -11598.767   -1147.5307 
  176800    322.54346   -11545.379    63.455092   -11608.834   -1917.0937 
  177000    294.52559   -11556.947     57.94304    -11614.89    -7008.545 
  177200    334.21125   -11537.622    65.750537   -11603.373    2868.5563 
  177400    265.54941   -11550.899    52.242456   -11603.142   -12130.213 
  177600    296.82738   -11554.498    58.395879   -11612.894    13088.629 
  177800    318.33661   -11532.306    62.627464   -11594.934     13972.36 
[...]
  950000    281.07589   -11567.679    55.297033   -11622.976   -7978.3499 
  950200    279.98699    -11546.26     55.08281   -11601.343   -13428.058 
  950400    330.83617    -11550.03    65.086545   -11615.116   -7274.0045 
  950600    218.94563   -11571.254    43.073932   -11614.328   -10832.794 
  950800    309.79523   -11562.423    60.947089    -11623.37   -30540.031 
  951000    309.22389   -11549.344    60.834686   -11610.178   -8414.6058 
  951200    375.27804   -11529.586    73.829748   -11603.415     7540.483 
  951400    300.44208   -11550.806     59.10701   -11609.913    16325.205 
  951600    279.04997   -11562.031    54.898466    -11616.93    2279.8698 
  951800    275.25613   -11568.406    54.152093   -11622.559   -20433.802 
  952000    328.12022   -11549.318    64.552227    -11613.87   -7768.8999 
  952200    355.41148   -11552.002    69.921332   -11621.923   -4462.5634 
  952400    278.87194   -11570.658    54.863442   -11625.522   -833.79594 
  952600    306.03761   -11556.351    60.207839   -11616.559    6161.2158 
  952800    296.53113   -11551.608    58.337595   -11609.945   -4853.2535 
  953000    296.03675   -11558.864    58.240336   -11617.104    7447.8289 
  953200    245.73752   -11571.153    48.344793   -11619.498   -4787.3421 
  953400    268.23327   -11556.662    52.770459   -11609.432   -1251.3725 
  953600    327.05516   -11555.197    64.342695    -11619.54   -5000.2316 
  953800     264.3098   -11571.771    51.998583   -11623.769    11392.241 
  954000    354.34987   -11548.017    69.712478    -11617.73    -27897.21 
  954200    274.54729   -11562.726    54.012639   -11616.738   -22604.234 
  954400    354.32973   -11546.732    69.708515   -11616.441   -8548.4947 
  954600    269.37776   -11552.452    52.995619   -11605.447   -19261.483 
  954800     305.2491    -11557.09    60.052712   -11617.143   -13302.394 
  955000    255.57328   -11570.822    50.279816   -11621.102   -3532.6274 
  955200    289.39604   -11545.905    56.933885   -11602.839   -882.52697 
  955400    314.44122   -11554.427     61.86111   -11616.289      7801.21 
  955600    271.95704   -11558.457     53.50305    -11611.96    5006.3803 
  955800    346.57121    -11544.06    68.182154   -11612.242   -2028.5404 
  956000    278.48722   -11557.284    54.787755   -11612.072   -18369.853 
  956200    273.80356   -11558.446    53.866323   -11612.312    3520.6819 
  956400    291.93519   -11550.818     57.43342   -11608.251   -1922.7113 
  956600    417.69973   -11526.423    82.175515   -11608.598    6682.2478 
  956800    338.26938   -11547.549    66.548906   -11614.098   -9169.5347 
  957000    258.81762   -11561.426    50.918086   -11612.344    445.18037 
  957200    296.28415   -11552.962    58.289006   -11611.251    20739.708 
  957400    364.93446   -11537.515     71.79482    -11609.31    2105.0481 
  957600    257.01965   -11556.443    50.564366   -11607.008   -10607.541 
  957800    305.00957   -11557.937    60.005588   -11617.943    6138.6225 
  958000    292.58495   -11563.296    57.561251   -11620.857   -9822.4629 
  958200    331.60768   -11550.158    65.238328   -11615.396    690.97155 
  958400    324.58944    -11552.61    63.857604   -11616.468    -7297.439 
  958600    305.46119   -11561.901    60.094438   -11621.996   -13124.375 
  958800    309.28597   -11559.432      60.8469   -11620.279   -1711.1746 
  959000    303.84882   -11545.321     59.77723   -11605.098    15351.623 
  959200    269.41876   -11566.356    53.003686    -11619.36    8832.0851 
  959400    262.07106   -11562.082    51.558147    -11613.64    8278.9913 
  959600    346.13557    -11551.78    68.096449   -11619.877    -18788.84 
  959800    263.13735   -11572.139    51.767922   -11623.907    3303.2454 
  960000    299.11891   -11561.592    58.846698   -11620.439   -1326.9331 
  960200    270.75756   -11551.582    53.267072   -11604.849    3196.4576 
  960400    323.33919   -11534.823    63.611639   -11598.434   -9724.2168 
  960600     287.5017   -11549.141    56.561205   -11605.702   -20453.869 
  960800    317.76727   -11553.395    62.515455    -11615.91   -10827.987 
  961000    246.55054   -11569.174    48.504742   -11617.679    10561.962 
  961200    286.48714   -11548.786    56.361608   -11605.147    -2515.435 
  961400    299.94831    -11557.08     59.00987   -11616.089     20958.41 
  961600    299.02342   -11558.152    58.827914    -11616.98   -10545.743 
  961800    366.21067   -11548.803    72.045894   -11620.849   -3920.5127 
  962000    267.71154   -11560.408    52.667818   -11613.075   -1031.2591 
  962200    349.02863   -11540.421    68.665612   -11609.087    11476.535 
  962400    299.01347   -11550.486    58.825956   -11609.312   -9287.0699 
  962600    250.86285   -11561.666    49.353117    -11611.02    12054.224 
  962800    349.19264   -11542.691    68.697877   -11611.389   -11021.366 
  963000    309.46217   -11550.018    60.881564     -11610.9     12457.28 
  963200    263.11803   -11562.677    51.764121   -11614.441   -15484.772 
  963400    286.45226   -11556.288    56.354745   -11612.643   -4056.3515 
  963600    291.30072   -11557.654    57.308599   -11614.963   -1695.2433 
  963800     313.0305   -11552.137    61.583575   -11613.721   -3877.0262 
  964000    280.06381   -11533.981    55.097922   -11589.079    1275.8057 
  964200      283.581   -11550.702    55.789871   -11606.492   -8716.1667 
  964400    309.30061   -11560.498    60.849781   -11621.348   -7506.7613 
  964600    313.41137   -11553.338    61.658504   -11614.996    12052.882 
  964800    355.24289   -11543.136    69.888165   -11613.024   -8714.6786 
  965000    257.18504   -11560.653    50.596903   -11611.249    11590.906 
  965200    320.33912   -11545.333    63.021424   -11608.355    18389.791 
  965400    290.11614    -11549.85    57.075553   -11606.925   -13174.625 
  965600    297.57993   -11553.497    58.543931   -11612.041   -1060.6446 
  965800    288.67192   -11551.879    56.791426   -11608.671   -567.33702 
  966000    294.75704   -11554.318    57.988574   -11612.307    8598.5179 
  966200    281.84832   -11562.522    55.448997   -11617.971    14405.313 
  966400    283.71057   -11545.681    55.815363   -11601.496    1303.4064 
  966600    316.89432   -11553.853    62.343718   -11616.197    6823.6176 
  966800    227.27342   -11571.083    44.712286   -11615.795    -2078.241 
  967000    293.37441   -11556.044    57.716564    -11613.76   -6439.2467 
  967200    316.41938   -11552.339     62.25028   -11614.589    4486.0292 
  967400     349.5387   -11535.953     68.76596   -11604.719    -6794.859 
  967600    299.67718   -11556.059    58.956529   -11615.016    -9637.444 
  967800    316.95698   -11565.003    62.356044   -11627.359   -4584.7494 
  968000    327.13819   -11548.564    64.359029   -11612.923   -1502.5532 
  968200     291.0733    -11548.28    57.263859   -11605.543    198.48488 
  968400    330.53026   -11567.705    65.026363   -11632.731    12313.782 
  968600    265.29974   -11563.017    52.193337   -11615.211    1501.8812 
  968800    270.73519   -11552.996    53.262671   -11606.259    2792.5548 
  969000    336.06673   -11545.576    66.115571   -11611.691   -8824.6278 
  969200    318.42663   -11566.115    62.645174    -11628.76     13808.16 
  969400    291.67209   -11549.873    57.381661   -11607.255    1435.2278 
  969600    299.96147   -11547.166    59.012458   -11606.178    4812.5495 
  969800    266.55858   -11560.869    52.440992    -11613.31    9145.6564 
  970000    256.45914   -11560.901    50.454095   -11611.355    11642.045 
  970200    326.23707   -11547.004    64.181749   -11611.186   -20613.609 
  970400    310.67787   -11557.805    61.120732   -11618.925    7885.2514 
  970600    296.82735   -11567.417    58.395873   -11625.813    3768.4544 
  970800    308.21974   -11542.344    60.637136   -11602.981    7276.1245 
  971000    339.72792   -11556.165     66.83585   -11623.001    7997.5318 
  971200    266.71666   -11561.896    52.472092   -11614.368   -9548.0038 
  971400    301.74133   -11550.744    59.362617   -11610.107    4756.6355 
  971600    292.67442   -11553.124    57.578852   -11610.703    10285.741 
  971800    239.33554    -11572.37    47.085309   -11619.455   -14730.042 
  972000    292.46369   -11558.793    57.537394    -11616.33    14475.164 
  972200    302.99322   -11555.657    59.608905   -11615.265    10023.739 
  972400    297.86718   -11544.499    58.600443   -11603.099    21161.919 
  972600    298.04964   -11549.517    58.636338   -11608.153    3878.7828 
  972800     261.3326   -11562.065    51.412868   -11613.478    16808.339 
  973000    277.20448   -11558.631    54.535398   -11613.166   -15002.502 
  973200    312.69499   -11547.097    61.517569   -11608.614    7824.3595 
  973400    340.62604   -11546.064    67.012541   -11613.076    4643.8572 
  973600    295.87127   -11561.263     58.20778    -11619.47   -13475.727 
  973800    314.62224   -11557.209    61.896723   -11619.106     6034.823 
  974000    275.90368   -11564.663    54.279486   -11618.943    -14689.14 
  974200     310.4716   -11549.096    61.080153   -11610.176   -10837.331 
  974400    287.54383   -11570.273    56.569494   -11626.842   -2424.0117 
  974600     290.9602   -11554.921    57.241609   -11612.162    6283.1907 
  974800    319.76463    -11556.29    62.908403   -11619.199   -12044.062 
  975000    233.32767   -11568.369     45.90336   -11614.272   -1584.7592 
  975200    306.55495   -11553.298    60.309617   -11613.608    -7312.932 
  975400     303.3663   -11542.674    59.682302   -11602.356    -13881.31 
  975600    292.15709   -11542.603    57.477077    -11600.08    9061.5633 
  975800     282.7926   -11557.031    55.634767   -11612.666   -3356.9543 
  976000    293.87376   -11561.213    57.814803   -11619.028    362.22043 
  976200     315.5056    -11564.91    62.070509   -11626.981    425.85962 
  976400    303.14172     -11556.1    59.638121   -11615.738    -4849.461 
  976600    282.55651   -11555.777    55.588321   -11611.366   -646.27088 
  976800    271.05447   -11574.666    53.325484   -11627.992    -7454.486 
  977000    279.89519   -11551.045     55.06475    -11606.11   -24424.177 
  977200    291.99969   -11551.574     57.44611    -11609.02    13141.985 
  977400    308.94957   -11560.357    60.780719   -11621.137    6667.5508 
  977600    331.48679   -11557.003    65.214545   -11622.217   -14348.344 
  977800    318.57503   -11538.619     62.67437   -11601.294    11783.526 
  978000    331.82992    -11558.32    65.282048   -11623.602   -2599.1033 
  978200    323.57254   -11561.769    63.657547   -11625.426    2610.0754 
  978400    232.54098   -11568.053    45.748592   -11613.801    6510.1478 
  978600    299.62583   -11549.126    58.946428   -11608.072    6437.0277 
  978800    290.04771    -11551.48    57.062091   -11608.542   -11951.703 
  979000    317.86528   -11561.096    62.534738   -11623.631    7733.5915 
  979200    320.92752   -11548.642    63.137183   -11611.779    76.481419 
  979400    302.26309   -11544.489    59.465264   -11603.954    2663.5482 
  979600    263.99934   -11554.707    51.937504   -11606.644    5085.2637 
  979800     271.8177   -11568.461    53.475637   -11621.937    -16871.75 
  980000    317.66178   -11555.205    62.494703   -11617.699   -19812.954 
  980200    274.20664   -11560.037    53.945622   -11613.983   -7834.6849 
  980400    297.75123   -11579.567     58.57763   -11638.145    7403.4035 
  980600    285.40062   -11562.018    56.147852   -11618.166   -12623.355 
  980800    251.61933   -11555.533    49.501943   -11605.035   -6701.0486 
  981000    229.45535   -11568.703    45.141546   -11613.845   -1670.4201 
  981200    340.92363   -11551.045    67.071086   -11618.117   -11199.845 
  981400    260.17902   -11554.842    51.185919   -11606.028   -22527.997 
  981600    312.87217   -11540.283    61.552426   -11601.835    151.23957 
  981800    269.57422    -11549.61    53.034269   -11602.645    6705.7609 
  982000    281.12213   -11560.622     55.30613   -11615.928   -11041.343 
  982200    283.24871   -11564.858      55.7245   -11620.583   -6611.2861 
  982400    320.77435   -11552.608    63.107049   -11615.715   -7047.0441 
  982600    268.94993   -11561.552    52.911451   -11614.464    5777.9666 
  982800    252.54144   -11570.639    49.683353   -11620.323   -10919.943 
  983000    312.96144    -11558.04    61.569987    -11619.61    21549.569 
  983200    279.61568   -11562.856    55.009762   -11617.866   -5366.7065 
  983400    307.85416    -11567.41    60.565215   -11627.975      1912.17 
  983600     286.8238   -11548.164    56.427839   -11604.592   -1198.6245 
  983800    250.05968   -11556.791    49.195106   -11605.986    8726.6632 
  984000    286.60742    -11560.54    56.385271   -11616.925   -11735.718 
  984200    367.10709   -11552.778     72.22225       -11625   -4200.9585 
  984400    281.89071   -11563.449    55.457336   -11618.907     3840.885 
  984600    395.75429   -11547.698    77.858111   -11625.556    2939.7674 
  984800    268.87368   -11559.433    52.896449   -11612.329   -6734.6625 
  985000    281.02013   -11566.389    55.286064   -11621.675    6868.2786 
  985200    341.05769   -11545.181    67.097461   -11612.278    318.53683 
  985400    276.44768   -11558.605    54.386509   -11612.991    14868.379 
  985600    269.31229   -11571.226     52.98274   -11624.208   -10886.215 
  985800    300.23758   -11561.443    59.066779    -11620.51   -9428.3082 
  986000    312.04301   -11548.445    61.389302   -11609.834   -17660.217 
  986200    329.01317   -11559.138      64.7279   -11623.866    7080.9292 
  986400    283.36839   -11563.488    55.748045   -11619.236   -9329.0847 
  986600    307.59212    -11547.01    60.513664   -11607.524    786.89262 
  986800    254.84278    -11559.91    50.136104   -11610.046      7912.24 
  987000    312.36785   -11561.135    61.453209   -11622.588   -796.52153 
  987200    334.66507   -11545.445    65.839819   -11611.285    9073.3752 
  987400    379.17906   -11534.811     74.59721   -11609.409    8986.2393 
  987600     316.4195   -11553.345    62.250303   -11615.595   -5880.0273 
  987800    296.43463   -11560.628    58.318612   -11618.947    1003.8294 
  988000    324.37947   -11540.255    63.816296   -11604.071    8703.9774 
  988200    307.90466   -11553.417     60.57515   -11613.992     3742.362 
  988400    306.91654   -11564.837    60.380754   -11625.217   -207.74614 
  988600    328.16866   -11547.351    64.561757   -11611.913    -1424.904 
  988800    381.26089   -11536.439    75.006776   -11611.446   -7942.8221 
  989000    291.72101   -11558.743    57.391285   -11616.135    -3761.656 
  989200    262.16477   -11561.648    51.576583   -11613.224   -13052.671 
  989400    306.15929   -11541.815    60.231777   -11602.047   -5210.4956 
  989600    248.94322   -11558.288    48.975463   -11607.264   -14600.371 
  989800    310.05708   -11556.037    60.998603   -11617.035     5707.457 
  990000    353.12964    -11533.79    69.472417   -11603.263   -4118.4219 
  990200    306.17222   -11552.706     60.23432    -11612.94   -1738.3906 
  990400    287.94013   -11562.536    56.647458   -11619.184   -3931.4265 
  990600    243.63667   -11556.085    47.931486   -11604.017   -9551.2602 
  990800    284.63276   -11548.511    55.996788   -11604.508    4227.1639 
  991000    251.45009   -11568.683    49.468648   -11618.151   -9301.7305 
  991200    261.30967    -11564.96    51.408356   -11616.368    1549.8975 
  991400    270.32475    -11553.02    53.181925   -11606.201    184.88971 
  991600    314.50404   -11541.822    61.873469   -11603.695   -9993.2865 
  991800    284.25437   -11550.524    55.922347   -11606.446    11495.955 
  992000    283.33239   -11561.639    55.740962    -11617.38   -1912.2858 
  992200    309.75141    -11554.57    60.938467   -11615.509    5380.0901 
  992400    362.48228   -11544.257    71.312395   -11615.569   -3748.8855 
  992600    321.34244   -11558.176     63.21881   -11621.395    7784.8969 
  992800    284.10948   -11552.254    55.893841   -11608.148    886.34876 
  993000    270.52722   -11550.037    53.221757   -11603.259    4764.3043 
  993200     278.7178   -11549.801    54.833117   -11604.634   -11514.979 
  993400    244.29865   -11571.764     48.06172   -11619.825   -9929.0904 
  993600    246.05787   -11562.304    48.407817   -11610.712   -11333.567 
  993800    324.18336    -11554.61    63.777715   -11618.387   -17644.615 
  994000    287.26084   -11567.328     56.51382   -11623.842   -7318.4198 
  994200    313.47525   -11565.022    61.671072   -11626.693   -3535.0326 
  994400    324.18453   -11552.994    63.777945   -11616.772   -221.13874 
  994600    355.21789   -11540.425    69.883245   -11610.308    10152.964 
  994800     278.8378   -11558.709    54.856726   -11613.565   -7068.7687 
  995000    318.24794   -11551.073    62.610019   -11613.683   -5818.1261 
  995200     312.7731   -11542.585    61.532936   -11604.118    1470.6724 
  995400    288.04043   -11557.745    56.667192   -11614.413    6193.5074 
  995600    310.36752   -11547.035    61.059677   -11608.095    1066.9742 
  995800    356.33183   -11537.861    70.102394   -11607.963    5729.2614 
  996000    275.65378   -11556.917    54.230322   -11611.147    1641.8002 
  996200    276.85068   -11564.379    54.465794   -11618.845    17199.773 
  996400    276.07218   -11559.787    54.312637   -11614.099    1129.6665 
  996600    319.23042   -11550.213    62.803306   -11613.016    13314.137 
  996800    309.73217   -11565.323    60.934682   -11626.257    18389.361 
  997000    329.68667   -11547.952    64.860401   -11612.813    4347.5441 
  997200    324.97326   -11551.573    63.933116   -11615.506   -258.31578 
  997400    287.52427     -11564.6    56.565645   -11621.165   -10761.736 
  997600    333.69518    -11555.53    65.649009   -11621.179   -402.61436 
  997800    232.64615   -11568.172    45.769282   -11613.941   -1096.7961 
  998000    295.20284    -11557.66    58.076277   -11615.737     9741.316 
  998200    360.51154    -11543.12    70.924684   -11614.044     3986.618 
  998400    298.17894   -11552.394    58.661775   -11611.056   -13549.133 
  998600    280.39965   -11560.788    55.163994   -11615.952    5515.7323 
  998800    325.92248   -11536.221    64.119858   -11600.341   -12487.806 
  999000    303.39291   -11549.253    59.687539   -11608.941   -10802.635 
  999200    265.46926   -11565.659    52.226688   -11617.885   -10216.673 
  999400    278.07844    -11549.34    54.707334   -11604.047    6594.8423 
  999600    325.94494   -11547.213    64.124278   -11611.337   -12503.629 
  999800    315.97851   -11557.176    62.163547    -11619.34   -11941.262 
 1000000    280.13946   -11559.789    55.112806   -11614.902    12791.977 
Loop time of 1577.43 on 8 procs for 1000000 steps with 67 atoms

Performance: 13.693 ns/day, 1.753 hours/ns, 633.943 timesteps/s
99.4% CPU use with 8 MPI tasks x no OpenMP threads

MPI task timing breakdown:
Section |  min time  |  avg time  |  max time  |%varavg| %total
---------------------------------------------------------------
Pair    | 1111.7     | 1152.3     | 1191       |  66.2 | 73.05
Neigh   | 0.42534    | 0.4373     | 0.44752    |   1.1 |  0.03
Comm    | 16.21      | 55.069     | 95.655     | 303.6 |  3.49
Output  | 0.064572   | 0.070618   | 0.1009     |   4.3 |  0.00
Modify  | 367.83     | 368.07     | 368.26     |   0.6 | 23.33
Other   |            | 1.489      |            |       |  0.09

Nlocal:    8.375 ave 13 max 5 min
Histogram: 1 1 2 0 0 1 2 0 0 1
Nghost:    430.25 ave 441 max 419 min
Histogram: 1 0 0 2 0 3 0 1 0 1
Neighs:    686.875 ave 1065 max 415 min
Histogram: 1 1 2 0 1 0 2 0 0 1

Total # of neighbors = 5495
Ave neighs/atom = 82.0149
Neighbor list builds = 906
Dangerous builds = 0

unfix 1
unfix output
undump 1

Please see the log.cite file for references relevant to this simulation

Total wall time: 0:26:22
