ITEM: TIMESTEP
0
ITEM: NUMBER OF ATOMS
161
ITEM: BOX BOUNDS xy xz yz pp pp pp
-6.7755000000000001e+00 1.3552000000000000e+01 -6.7755000000000001e+00
0.0000000000000000e+00 1.1735510246683001e+01 0.0000000000000000e+00
0.0000000000000000e+00 2.2149999999999999e+01 0.0000000000000000e+00
ITEM: ATOMS id type x y z 
8 1 -2.486 5.297 9.849 
87 1 3.001 4.231 10.696 
90 1 2.733 5.481 9.824 
109 1 -2.486 5.297 0.765 
158 1 2.733 5.481 0.79 
161 2 2.733 5.481 8.474 
11 1 4.24 4.139 20.131 
14 1 3.031 4.094 19.728 
18 1 1.299 5.827 18.554 
33 1 2.266 4.151 20.924 
43 1 4.343 3.96 21.647 
47 1 3.32 5.732 17.88 
52 1 4.24 4.139 12.633 
76 1 2.552 4.924 14.209 
85 1 4.343 3.96 11.117 
89 1 3.32 5.732 14.883 
91 1 1.036 5.037 11.84 
102 1 3.031 4.094 13.035 
105 1 1.299 5.827 14.209 
114 1 2.266 4.151 11.84 
150 1 2.552 4.924 18.554 
156 1 3.001 4.231 22.068 
159 1 1.036 5.037 20.924 
5 1 -5.049 10.63 8.653 
9 1 -3.317 8.897 7.479 
19 1 -1.707 7.414 10.572 
21 1 -2.66 8.795 10.993 
23 1 -3.31 7.532 6.805 
25 1 -4.284 10.573 9.849 
32 1 1.503 6.367 0.79 
36 1 -1.869 7.426 9.056 
38 1 -2.209 6.086 8.653 
54 1 0.3 8.576 10.696 
57 1 1.291 8.001 9.824 
60 1 -1.707 7.414 0.042 
65 1 -3.31 7.532 3.808 
78 1 -1.869 7.426 1.558 
80 1 -2.566 8.842 1.961 
84 1 -4.57 9.799 3.135 
99 1 -3.054 9.687 0.765 
100 1 -2.96 6.142 3.135 
107 1 -5.049 10.63 1.961 
110 1 -3.317 8.897 3.135 
111 1 0.642 5.929 10.696 
113 1 1.503 6.367 9.824 
119 1 -4.284 10.573 0.765 
127 1 -2.209 6.086 1.961 
131 1 -2.318 6.148 10.993 
138 1 1.291 8.001 0.79 
142 1 -2.566 8.842 8.653 
145 1 -4.57 9.799 7.479 
151 1 -5.019 10.493 10.993 
154 1 -3.054 9.687 9.849 
155 1 -2.96 6.142 7.479 
12 1 2.53 7.1 17.202 
17 1 0.468 9.427 20.924 
24 1 -3.52 8.357 11.865 
27 1 -0.31 7.31 21.647 
29 1 0.642 5.929 22.068 
31 1 1.292 7.192 17.88 
44 1 -0.148 7.298 20.131 
46 1 0.191 8.638 19.728 
51 1 -0.31 7.31 11.117 
53 1 2.53 7.1 15.561 
56 1 1.292 7.192 14.883 
63 1 -2.318 6.148 21.771 
66 1 -3.309 6.723 20.899 
70 1 -0.148 7.298 12.633 
72 1 0.548 5.882 13.035 
92 1 0.942 8.582 14.209 
95 1 -5.019 10.493 21.771 
98 1 -4.751 9.243 20.899 
104 1 0.468 9.427 11.84 
116 1 -2.66 8.795 21.771 
118 1 -3.52 8.357 20.899 
122 1 0.191 8.638 13.035 
133 1 -3.309 6.723 11.865 
136 1 0.3 8.576 22.068 
147 1 0.548 5.882 19.728 
153 1 -4.751 9.243 11.865 
160 1 0.942 8.582 18.554 
1 1 7.976 4.694 10.572 
4 1 9.274 4.77 10.993 
20 1 8.034 4.861 9.056 
42 1 9.55 5.41 7.479 
67 1 10.043 4.578 0.765 
77 1 7.976 4.694 0.042 
94 1 8.035 4.861 1.558 
96 1 9.278 4.635 1.961 
121 1 4.688 5.417 10.696 
130 1 9.55 5.41 3.135 
134 1 10.043 4.578 9.849 
152 1 9.278 4.635 8.653 
45 1 4.688 5.417 22.068 
55 1 4.788 5.329 13.035 
106 1 9.274 4.77 21.771 
137 1 4.788 5.329 19.728 
2 1 7.294 10.585 9.056 
3 1 9.004 7.624 6.127 
6 1 8.556 6.347 6.805 
16 1 2.314 8.72 0.79 
22 1 7.166 6.156 8.653 
26 1 7.226 8.565 7.479 
35 1 7.191 10.764 10.572 
37 1 6.846 9.307 10.993 
39 1 8.214 8.992 6.805 
41 1 6.677 7.002 9.849 
48 1 3.775 6.213 0.79 
61 1 7.294 10.585 1.558 
62 1 9.004 7.624 4.487 
64 1 6.747 9.395 1.961 
68 1 7.437 6.931 3.135 
71 1 4.29 8.493 10.696 
74 1 3.567 7.818 9.824 
81 1 8.556 6.347 3.808 
83 1 6.47 8.606 0.765 
93 1 7.191 10.764 0.042 
97 1 8.214 8.992 3.808 
101 1 2.261 9.954 10.696 
103 1 2.314 8.72 9.824 
117 1 7.166 6.156 1.961 
120 1 7.226 8.565 3.135 
123 1 3.775 6.213 9.824 
129 1 6.677 7.002 0.765 
132 1 6.747 9.395 8.653 
135 1 7.437 6.931 7.479 
141 1 7.244 6.231 10.993 
144 1 6.47 8.606 9.849 
148 1 3.567 7.818 0.79 
7 1 9.22 6.004 11.865 
10 1 3.558 10.029 21.647 
13 1 2.261 9.954 22.068 
15 1 2.978 8.376 17.88 
28 1 3.5 9.862 20.131 
30 1 4.369 8.568 19.728 
34 1 4.308 6.159 18.554 
40 1 7.76 8.511 11.865 
49 1 4.857 7.722 20.924 
50 1 1.984 9.314 18.554 
58 1 1.491 10.146 11.84 
59 1 4.097 7.793 14.209 
69 1 3.558 10.029 11.117 
73 1 2.978 8.376 14.883 
75 1 5.064 6.118 11.84 
79 1 7.244 6.231 21.771 
82 1 7.967 6.906 20.899 
86 1 3.5 9.862 12.633 
88 1 2.256 10.089 13.035 
108 1 9.22 6.004 20.899 
112 1 4.369 8.568 13.035 
115 1 4.308 6.159 14.209 
124 1 4.857 7.722 11.84 
125 1 1.984 9.314 14.209 
126 1 6.846 9.307 21.771 
128 1 7.76 8.511 20.899 
139 1 1.491 10.146 20.924 
140 1 4.097 7.793 18.554 
143 1 7.967 6.906 11.865 
146 1 4.29 8.493 22.068 
149 1 5.064 6.118 20.924 
157 1 2.256 10.089 19.728 
ITEM: TIMESTEP
10
ITEM: NUMBER OF ATOMS
161
ITEM: BOX BOUNDS xy xz yz pp pp pp
-6.7755000000000001e+00 1.3552000000000000e+01 -6.7755000000000001e+00
0.0000000000000000e+00 1.1735510246683001e+01 0.0000000000000000e+00
0.0000000000000000e+00 2.2149999999999999e+01 0.0000000000000000e+00
ITEM: ATOMS id type x y z 
8 1 -2.41061 5.364 9.84455 
87 1 3.0186 4.23347 10.7148 
90 1 2.61338 5.53692 9.73403 
109 1 -2.41004 5.36721 0.767062 
158 1 2.66702 5.50156 0.818321 
161 2 2.79941 5.46719 8.41525 
11 1 4.29209 4.1868 20.1373 
14 1 2.9119 4.13406 19.698 
18 1 1.33257 5.8541 18.5946 
33 1 2.13277 4.24244 20.9022 
43 1 4.30434 4.14371 21.5946 
47 1 3.24942 5.80203 17.8539 
52 1 4.28631 4.1838 12.6511 
76 1 2.44151 4.93378 14.1862 
85 1 4.32068 4.10507 11.1788 
89 1 3.29489 5.81045 14.9254 
91 1 0.994057 5.09787 11.8346 
102 1 2.91554 4.15077 13.0792 
105 1 1.29029 5.86554 14.1572 
114 1 2.14264 4.22396 11.8677 
150 1 2.43559 4.9052 18.5886 
156 1 2.9598 4.28273 22.1224 
159 1 0.981552 5.09819 20.8967 
5 1 -4.94583 10.5915 8.63132 
9 1 -3.36087 8.86485 7.51264 
19 1 -1.75506 7.50285 10.5732 
21 1 -2.61881 8.74893 10.9535 
23 1 -3.31489 7.52532 6.839 
25 1 -4.16603 10.4905 9.82747 
32 1 1.54256 6.32918 0.761632 
36 1 -1.90602 7.53637 9.04743 
38 1 -2.15857 6.20327 8.64432 
54 1 0.276452 8.51734 10.6853 
57 1 1.27526 7.93317 9.77179 
60 1 -1.76192 7.4999 0.0461113 
65 1 -3.31565 7.52629 3.77266 
78 1 -1.90592 7.5363 1.56012 
80 1 -2.56723 8.78446 1.89869 
84 1 -4.45914 9.82725 3.09885 
99 1 -2.99228 9.63202 0.795327 
100 1 -2.92597 6.25306 3.17615 
107 1 -4.94412 10.5922 1.98467 
110 1 -3.35386 8.86508 3.10121 
111 1 0.65632 5.95611 10.7559 
113 1 1.41133 6.41135 9.89619 
119 1 -4.16013 10.4903 0.793537 
127 1 -2.15835 6.20451 1.9679 
131 1 -2.31966 6.20306 11.0021 
138 1 1.36003 7.97715 0.827718 
142 1 -2.56954 8.78658 8.71109 
145 1 -4.45823 9.83115 7.51793 
151 1 -4.98179 10.4301 11.0459 
154 1 -2.99315 9.63217 9.82 
155 1 -2.92596 6.25233 7.43781 
12 1 2.57049 7.06686 17.1227 
17 1 0.392607 9.35741 20.9223 
24 1 -3.5445 8.39969 11.8404 
27 1 -0.257169 7.22691 21.6417 
29 1 0.604811 5.96864 22.0207 
31 1 1.30284 7.19493 17.9118 
44 1 -0.111759 7.18935 20.134 
46 1 0.140381 8.51922 19.7214 
51 1 -0.283913 7.24523 11.1481 
53 1 2.57835 7.03536 15.6272 
56 1 1.29605 7.16531 14.8308 
63 1 -2.3144 6.21296 21.7641 
66 1 -3.37658 6.74454 20.8589 
70 1 -0.11651 7.19499 12.6119 
72 1 0.550385 5.92811 12.9601 
92 1 0.912526 8.46379 14.2506 
95 1 -4.9817 10.4349 21.7105 
98 1 -4.6788 9.2173 20.8682 
104 1 0.398422 9.36934 11.8525 
116 1 -2.61296 8.74607 21.8121 
118 1 -3.54209 8.3974 20.9223 
122 1 0.144054 8.52455 13.0502 
133 1 -3.38104 6.74621 11.909 
136 1 0.298213 8.50978 22.0775 
147 1 0.556822 5.92685 19.7877 
153 1 -4.68137 9.2232 11.8873 
160 1 0.908383 8.47093 18.5117 
1 1 7.88307 4.94846 10.5299 
4 1 9.18441 4.78062 11.042 
20 1 7.88069 4.9471 9.06977 
42 1 9.45559 5.42631 7.43732 
67 1 9.98219 4.54999 0.760604 
77 1 7.88298 4.94961 0.085647 
94 1 7.88219 4.94738 1.54396 
96 1 9.2016 4.64962 1.99412 
121 1 4.62642 5.4518 10.6849 
130 1 9.45553 5.42547 3.17586 
134 1 9.98173 4.5493 9.85273 
152 1 9.20236 4.64909 8.61927 
45 1 4.6816 5.45375 22.063 
55 1 4.82258 5.48031 13.0582 
106 1 9.18361 4.78207 21.7219 
137 1 4.8123 5.48848 19.6965 
2 1 7.26308 10.5215 9.0704 
3 1 8.96784 7.64849 6.05237 
6 1 8.53425 6.40643 6.84547 
16 1 2.3386 8.69048 0.829042 
22 1 7.15334 6.19234 8.69744 
26 1 7.18219 8.4177 7.55323 
35 1 7.22933 10.5893 10.5128 
37 1 6.85211 9.26524 10.9934 
39 1 8.28511 8.92488 6.78803 
41 1 6.73918 7.01453 9.83769 
48 1 3.76952 6.35417 0.804439 
61 1 7.25868 10.5224 1.54934 
62 1 8.96583 7.65216 4.56035 
64 1 6.72118 9.24542 1.98783 
68 1 7.41759 6.97305 3.05124 
71 1 4.28277 8.54561 10.7856 
74 1 3.6182 7.76185 9.85874 
81 1 8.53512 6.40584 3.76695 
83 1 6.55093 8.44149 0.790255 
93 1 7.21966 10.5944 0.103629 
97 1 8.28032 8.92434 3.82612 
101 1 2.3599 9.92441 10.6203 
103 1 2.43077 8.72406 9.79668 
117 1 7.1554 6.19192 1.91494 
120 1 7.17892 8.41898 3.06131 
123 1 3.81975 6.34569 9.77106 
129 1 6.74023 7.01619 0.775608 
132 1 6.72166 9.24701 8.62341 
135 1 7.41672 6.97433 7.56348 
141 1 7.25933 6.18543 10.9196 
144 1 6.54936 8.44296 9.82511 
148 1 3.63809 7.74906 0.764634 
7 1 9.19461 6.03669 11.9058 
10 1 3.6467 9.77377 21.606 
13 1 2.35074 9.94159 22.1123 
15 1 2.98609 8.31611 17.9124 
28 1 3.65441 9.77998 20.1435 
30 1 4.38163 8.53515 19.7814 
34 1 4.35462 6.29865 18.6327 
40 1 7.7437 8.3774 11.8721 
49 1 4.79636 7.70642 20.9135 
50 1 2.07849 9.29864 18.5129 
58 1 1.54749 10.171 11.8435 
59 1 4.13027 7.77498 14.1162 
69 1 3.66164 9.76639 11.1657 
73 1 2.99441 8.32379 14.8553 
75 1 4.98741 6.28404 11.8734 
79 1 7.25978 6.18666 21.8487 
82 1 7.89072 6.97327 20.9287 
86 1 3.65905 9.78251 12.6162 
88 1 2.32274 10.0746 13.0709 
108 1 9.19746 6.0359 20.8595 
112 1 4.38281 8.52715 12.9842 
115 1 4.35306 6.29223 14.1523 
124 1 4.80061 7.70586 11.8594 
125 1 2.06873 9.29609 14.2478 
126 1 6.85281 9.26488 21.7688 
128 1 7.74186 8.37608 20.8911 
139 1 1.55407 10.173 20.9309 
140 1 4.12589 7.75251 18.6356 
143 1 7.89233 6.9746 11.8356 
146 1 4.27733 8.54512 21.9925 
149 1 4.98609 6.27644 20.9002 
157 1 2.33 10.0751 19.6942 
ITEM: TIMESTEP
20
ITEM: NUMBER OF ATOMS
161
ITEM: BOX BOUNDS xy xz yz pp pp pp
-6.7755000000000001e+00 1.3552000000000000e+01 -6.7755000000000001e+00
0.0000000000000000e+00 1.1735510246683001e+01 0.0000000000000000e+00
0.0000000000000000e+00 2.2149999999999999e+01 0.0000000000000000e+00
ITEM: ATOMS id type x y z 
8 1 -2.41695 5.37654 9.844 
87 1 3.00171 4.24702 10.7178 
90 1 2.60328 5.51713 9.73083 
109 1 -2.41834 5.37974 0.770775 
158 1 2.66036 5.50213 0.820898 
161 2 2.80979 5.46538 8.41028 
11 1 4.28277 4.20382 20.1385 
14 1 2.90541 4.1401 19.6984 
18 1 1.31487 5.85512 18.5851 
33 1 2.112 4.25724 20.9091 
43 1 4.29103 4.16084 21.5847 
47 1 3.25806 5.7958 17.8446 
52 1 4.28266 4.19925 12.6482 
76 1 2.43505 4.95667 14.1915 
85 1 4.30629 4.12966 11.1904 
89 1 3.3005 5.80103 14.9343 
91 1 0.994849 5.09673 11.8392 
102 1 2.90914 4.16006 13.0875 
105 1 1.28703 5.8619 14.1559 
114 1 2.12673 4.23638 11.8567 
150 1 2.44428 4.91481 18.5849 
156 1 2.95762 4.29765 22.1151 
159 1 0.97917 5.10692 20.9045 
5 1 -4.92263 10.589 8.62621 
9 1 -3.33901 8.86582 7.51064 
19 1 -1.75605 7.5039 10.557 
21 1 -2.61431 8.77245 10.9481 
23 1 -3.30605 7.5321 6.83326 
25 1 -4.13061 10.4678 9.83409 
32 1 1.53699 6.35125 0.766326 
36 1 -1.90461 7.54486 9.05841 
38 1 -2.15725 6.22135 8.64055 
54 1 0.285901 8.51533 10.6811 
57 1 1.27446 7.94686 9.77264 
60 1 -1.75749 7.50456 0.0586209 
65 1 -3.30742 7.53277 3.7791 
78 1 -1.90091 7.54465 1.55149 
80 1 -2.55944 8.78998 1.89171 
84 1 -4.46296 9.81121 3.10263 
99 1 -2.99531 9.62048 0.784788 
100 1 -2.93181 6.26189 3.17351 
107 1 -4.92263 10.5869 1.98929 
110 1 -3.33498 8.86744 3.10423 
111 1 0.657966 5.95184 10.7323 
113 1 1.39545 6.40969 9.9012 
119 1 -4.13186 10.4669 0.780001 
127 1 -2.15803 6.21755 1.97124 
131 1 -2.33607 6.21259 11.0083 
138 1 1.36613 7.96123 0.823027 
142 1 -2.56014 8.78764 8.71998 
145 1 -4.46186 9.81434 7.51082 
151 1 -4.97832 10.4217 11.0391 
154 1 -2.99562 9.62012 9.82942 
155 1 -2.93172 6.26163 7.44055 
12 1 2.56218 7.06632 17.1334 
17 1 0.399614 9.3427 20.9182 
24 1 -3.54556 8.37758 11.8464 
27 1 -0.259895 7.22149 21.6306 
29 1 0.59763 5.95213 22.0249 
31 1 1.29183 7.19145 17.9063 
44 1 -0.11503 7.1787 20.1399 
46 1 0.141529 8.50541 19.718 
51 1 -0.297245 7.24374 11.1589 
53 1 2.57636 7.04243 15.613 
56 1 1.28845 7.15555 14.8365 
63 1 -2.32509 6.2157 21.7559 
66 1 -3.38158 6.76044 20.8644 
70 1 -0.124583 7.19089 12.6107 
72 1 0.541233 5.91894 12.9592 
92 1 0.919413 8.4526 14.2487 
95 1 -4.9778 10.4212 21.7248 
98 1 -4.67695 9.21526 20.8693 
104 1 0.404855 9.35549 11.8524 
116 1 -2.60831 8.77 21.8163 
118 1 -3.54396 8.37653 20.9165 
122 1 0.143291 8.51445 13.0525 
133 1 -3.38248 6.76022 11.9002 
136 1 0.308016 8.50714 22.0834 
147 1 0.540696 5.92995 19.7967 
153 1 -4.67701 9.21596 11.8916 
160 1 0.915329 8.46106 18.5153 
1 1 7.87696 4.93853 10.532 
4 1 9.17373 4.79766 11.03 
20 1 7.86556 4.94519 9.06901 
42 1 9.46223 5.43564 7.44053 
67 1 9.97589 4.56076 0.757661 
77 1 7.87819 4.93882 0.0824307 
94 1 7.86708 4.94444 1.54434 
96 1 9.19266 4.65814 1.9936 
121 1 4.63556 5.49031 10.6797 
130 1 9.46263 5.4351 3.17273 
134 1 9.97405 4.55833 9.85514 
152 1 9.19205 4.65801 8.6195 
45 1 4.68062 5.47256 22.0779 
55 1 4.82277 5.49428 13.0573 
106 1 9.1736 4.79998 21.735 
137 1 4.81548 5.49407 19.7031 
2 1 7.25557 10.5137 9.07154 
3 1 8.97517 7.65012 6.06234 
6 1 8.52545 6.39404 6.82727 
16 1 2.35108 8.68114 0.83418 
22 1 7.13205 6.18811 8.71127 
26 1 7.18636 8.42556 7.54725 
35 1 7.23899 10.5657 10.5152 
37 1 6.85105 9.25242 11.0033 
39 1 8.27726 8.93106 6.77431 
41 1 6.73294 7.00776 9.83292 
48 1 3.78312 6.34844 0.804191 
61 1 7.25492 10.516 1.54626 
62 1 8.97381 7.65294 4.55011 
64 1 6.71551 9.22843 1.98572 
68 1 7.40445 6.97155 3.05671 
71 1 4.29843 8.53456 10.784 
74 1 3.61411 7.76453 9.84339 
81 1 8.52602 6.39388 3.78664 
83 1 6.54691 8.42982 0.797642 
93 1 7.23961 10.5667 0.100186 
97 1 8.27451 8.93105 3.83975 
101 1 2.37292 9.90976 10.6325 
103 1 2.43644 8.71015 9.79854 
117 1 7.13268 6.18761 1.90359 
120 1 7.18326 8.42548 3.06755 
123 1 3.82367 6.3452 9.77152 
129 1 6.73354 7.00781 0.780891 
132 1 6.71574 9.22838 8.62808 
135 1 7.40391 6.97089 7.558 
141 1 7.24377 6.19943 10.9285 
144 1 6.54611 8.42979 9.8148 
148 1 3.62076 7.75841 0.776181 
7 1 9.18129 6.04414 11.9086 
10 1 3.65624 9.78333 21.6046 
13 1 2.36005 9.92746 22.105 
15 1 3.00528 8.32586 17.9017 
28 1 3.66826 9.77986 20.1426 
30 1 4.39967 8.53576 19.788 
34 1 4.34648 6.30085 18.6233 
40 1 7.73967 8.38014 11.8752 
49 1 4.80115 7.7156 20.9089 
50 1 2.07166 9.28741 18.5157 
58 1 1.55854 10.1578 11.8368 
59 1 4.13311 7.77496 14.1303 
69 1 3.67625 9.77438 11.1656 
73 1 3.00417 8.32412 14.8593 
75 1 4.9834 6.28637 11.8748 
79 1 7.24545 6.19994 21.8366 
82 1 7.90951 6.9699 20.9159 
86 1 3.67142 9.78521 12.6239 
88 1 2.33477 10.0625 13.0659 
108 1 9.18261 6.04334 20.8567 
112 1 4.39835 8.53544 12.9774 
115 1 4.3514 6.29602 14.151 
124 1 4.81094 7.71223 11.8616 
125 1 2.07157 9.28179 14.249 
126 1 6.84995 9.25202 21.7587 
128 1 7.73992 8.38023 20.8891 
139 1 1.55737 10.164 20.9295 
140 1 4.13165 7.75562 18.6321 
143 1 7.91074 6.96953 11.8484 
146 1 4.29235 8.5268 22.0015 
149 1 4.98871 6.29225 20.892 
157 1 2.34285 10.0648 19.6941 
ITEM: TIMESTEP
30
ITEM: NUMBER OF ATOMS
161
ITEM: BOX BOUNDS xy xz yz pp pp pp
-6.7755000000000001e+00 1.3552000000000000e+01 -6.7755000000000001e+00
0.0000000000000000e+00 1.1735510246683001e+01 0.0000000000000000e+00
0.0000000000000000e+00 2.2149999999999999e+01 0.0000000000000000e+00
ITEM: ATOMS id type x y z 
8 1 -2.4415 5.417 9.83341 
87 1 2.97571 4.28773 10.7071 
90 1 2.57402 5.4764 9.7098 
109 1 -2.43861 5.42224 0.779198 
158 1 2.64912 5.52444 0.838729 
161 2 2.84571 5.46168 8.39542 
11 1 4.25616 4.247 20.1297 
14 1 2.87432 4.1605 19.71 
18 1 1.28992 5.84782 18.5651 
33 1 2.07997 4.27927 20.9063 
43 1 4.2776 4.20935 21.5704 
47 1 3.247 5.79901 17.8193 
52 1 4.2575 4.2419 12.6555 
76 1 2.43338 4.99142 14.2044 
85 1 4.27123 4.21503 11.2017 
89 1 3.30921 5.80446 14.9676 
91 1 0.971409 5.1056 11.8376 
102 1 2.88241 4.19116 13.0898 
105 1 1.25758 5.85992 14.1562 
114 1 2.10072 4.25413 11.8706 
150 1 2.44339 4.93854 18.5796 
156 1 2.94389 4.34702 22.1098 
159 1 0.946966 5.12637 20.9219 
5 1 -4.89001 10.5655 8.63469 
9 1 -3.30844 8.87639 7.4906 
19 1 -1.76299 7.52673 10.556 
21 1 -2.58209 8.79639 10.976 
23 1 -3.29621 7.54318 6.81403 
25 1 -4.10113 10.4461 9.83114 
32 1 1.51062 6.38828 0.782699 
36 1 -1.87617 7.57252 9.05956 
38 1 -2.15662 6.24443 8.63777 
54 1 0.295343 8.50421 10.6763 
57 1 1.268 7.95873 9.76316 
60 1 -1.75275 7.52375 0.0561764 
65 1 -3.29582 7.54342 3.79763 
78 1 -1.87072 7.57393 1.54722 
80 1 -2.53078 8.79758 1.90581 
84 1 -4.46171 9.78691 3.10731 
99 1 -2.96197 9.59907 0.764325 
100 1 -2.93876 6.28465 3.16741 
107 1 -4.89103 10.5647 1.97835 
110 1 -3.30811 8.87736 3.1229 
111 1 0.629244 5.9275 10.6911 
113 1 1.37263 6.42127 9.88526 
119 1 -4.10042 10.4441 0.782353 
127 1 -2.15702 6.24473 1.97462 
131 1 -2.36103 6.22802 11.0128 
138 1 1.37682 7.93186 0.813684 
142 1 -2.53066 8.79666 8.70711 
145 1 -4.46195 9.78674 7.50519 
151 1 -4.96245 10.3791 11.0379 
154 1 -2.96258 9.59998 9.84844 
155 1 -2.93886 6.28463 7.44566 
12 1 2.56027 7.0786 17.1504 
17 1 0.422452 9.30188 20.9094 
24 1 -3.52684 8.33793 11.862 
27 1 -0.261988 7.19847 21.6359 
29 1 0.5559 5.93734 22.0495 
31 1 1.27967 7.17685 17.8876 
44 1 -0.145708 7.148 20.1402 
46 1 0.142085 8.47733 19.7137 
51 1 -0.32555 7.23766 11.1684 
53 1 2.58407 7.03253 15.5951 
56 1 1.282 7.14447 14.8561 
63 1 -2.34476 6.24102 21.7479 
66 1 -3.39228 6.79234 20.8741 
70 1 -0.154399 7.16825 12.6188 
72 1 0.504681 5.8991 12.9631 
92 1 0.928425 8.42424 14.2427 
95 1 -4.961 10.3739 21.7279 
98 1 -4.66679 9.19455 20.8523 
104 1 0.424581 9.32054 11.8604 
116 1 -2.57357 8.78757 21.7872 
118 1 -3.52391 8.3383 20.9042 
122 1 0.140501 8.48903 13.0581 
133 1 -3.39728 6.7907 11.8936 
136 1 0.328032 8.48264 22.0908 
147 1 0.511943 5.92547 19.7854 
153 1 -4.66873 9.19423 11.9131 
160 1 0.922371 8.4377 18.5215 
1 1 7.82489 4.93418 10.5319 
4 1 9.14153 4.8433 11.0137 
20 1 7.8202 4.94586 9.07038 
42 1 9.44683 5.4635 7.44694 
67 1 9.9579 4.5922 0.770847 
77 1 7.82508 4.93182 0.0809475 
94 1 7.82149 4.94701 1.54556 
96 1 9.15548 4.69274 1.99245 
121 1 4.63756 5.55107 10.6619 
130 1 9.44644 5.46342 3.16684 
134 1 9.95442 4.59018 9.84251 
152 1 9.1549 4.69141 8.6205 
45 1 4.67696 5.5175 22.098 
55 1 4.8295 5.52434 13.0639 
106 1 9.14417 4.84422 21.7508 
137 1 4.81962 5.53183 19.701 
2 1 7.27487 10.4791 9.05627 
3 1 8.97155 7.64531 6.08241 
6 1 8.50846 6.39157 6.80398 
16 1 2.37785 8.6637 0.847778 
22 1 7.08951 6.17428 8.69514 
26 1 7.20098 8.40953 7.53287 
35 1 7.25571 10.5121 10.4961 
37 1 6.85072 9.21018 11.0222 
39 1 8.28452 8.92787 6.74614 
41 1 6.70231 6.98325 9.83065 
48 1 3.7983 6.33486 0.82176 
61 1 7.27698 10.4767 1.55677 
62 1 8.97178 7.64418 4.53146 
64 1 6.71451 9.19367 1.987 
68 1 7.38473 6.96013 3.06531 
71 1 4.33065 8.52132 10.7717 
74 1 3.62642 7.76548 9.80853 
81 1 8.50805 6.39167 3.80986 
83 1 6.53493 8.40302 0.80974 
93 1 7.25362 10.514 0.115195 
97 1 8.28483 8.9273 3.86773 
101 1 2.42182 9.87539 10.6561 
103 1 2.45642 8.67956 9.79276 
117 1 7.0906 6.17346 1.91807 
120 1 7.19983 8.40984 3.0812 
123 1 3.81468 6.35002 9.75535 
129 1 6.70335 6.98371 0.783932 
132 1 6.71526 9.19325 8.6279 
135 1 7.38565 6.96037 7.54867 
141 1 7.21198 6.21042 10.947 
144 1 6.53287 8.40239 9.80339 
148 1 3.60368 7.77688 0.813502 
7 1 9.15083 6.06073 11.9222 
10 1 3.70761 9.78825 21.6046 
13 1 2.3896 9.88186 22.0877 
15 1 3.0266 8.32878 17.8764 
28 1 3.71386 9.77807 20.1441 
30 1 4.44285 8.54915 19.7714 
34 1 4.33224 6.31457 18.609 
40 1 7.73734 8.38828 11.8993 
49 1 4.83076 7.7391 20.9056 
50 1 2.08838 9.25697 18.5213 
58 1 1.58722 10.1186 11.8332 
59 1 4.15701 7.78998 14.1458 
69 1 3.74078 9.78733 11.1702 
73 1 3.01902 8.31608 14.8788 
75 1 4.99126 6.31209 11.8854 
79 1 7.21444 6.21157 21.8174 
82 1 7.93063 6.95131 20.8753 
86 1 3.71708 9.78896 12.6335 
88 1 2.37066 10.0236 13.0631 
108 1 9.15544 6.06474 20.8429 
112 1 4.44142 8.55573 12.9955 
115 1 4.34594 6.31395 14.1685 
124 1 4.84785 7.74428 11.8628 
125 1 2.08238 9.25313 14.2402 
126 1 6.85203 9.20941 21.7433 
128 1 7.73626 8.39005 20.8661 
139 1 1.57635 10.131 20.9157 
140 1 4.14792 7.7653 18.6232 
143 1 7.92899 6.94966 11.8885 
146 1 4.31929 8.51245 22.0243 
149 1 4.99859 6.32191 20.8783 
157 1 2.3773 10.0302 19.6956 
ITEM: TIMESTEP
40
ITEM: NUMBER OF ATOMS
161
ITEM: BOX BOUNDS xy xz yz pp pp pp
-6.7755000000000001e+00 1.3552000000000000e+01 -6.7755000000000001e+00
0.0000000000000000e+00 1.1735510246683001e+01 0.0000000000000000e+00
0.0000000000000000e+00 2.2149999999999999e+01 0.0000000000000000e+00
ITEM: ATOMS id type x y z 
8 1 -2.4611 5.4412 9.8292 
87 1 2.94971 4.30431 10.7146 
90 1 2.56203 5.49089 9.67904 
109 1 -2.45626 5.44882 0.778684 
158 1 2.63504 5.55934 0.860916 
161 2 2.89476 5.46646 8.37717 
11 1 4.24372 4.28451 20.1202 
14 1 2.85438 4.18553 19.7126 
18 1 1.27883 5.84939 18.5559 
33 1 2.06379 4.30247 20.9205 
43 1 4.26806 4.24991 21.5724 
47 1 3.23527 5.80577 17.8282 
52 1 4.25382 4.27263 12.6708 
76 1 2.41536 5.00258 14.2135 
85 1 4.24428 4.28691 11.2229 
89 1 3.32056 5.8001 14.9644 
91 1 0.934332 5.11769 11.8265 
102 1 2.86538 4.22386 13.0898 
105 1 1.23653 5.86306 14.167 
114 1 2.08716 4.27512 11.8666 
150 1 2.41097 4.92766 18.5762 
156 1 2.93297 4.38345 22.1023 
159 1 0.910581 5.1316 20.9174 
5 1 -4.87806 10.5406 8.63936 
9 1 -3.30053 8.87305 7.478 
19 1 -1.77412 7.55049 10.5638 
21 1 -2.54795 8.79325 10.9892 
23 1 -3.29773 7.53524 6.8219 
25 1 -4.08115 10.4228 9.84787 
32 1 1.48351 6.37202 0.802734 
36 1 -1.85391 7.59162 9.04593 
38 1 -2.14405 6.27723 8.64097 
54 1 0.291228 8.48339 10.6809 
57 1 1.2739 7.94177 9.75619 
60 1 -1.7519 7.55229 0.0484953 
65 1 -3.29915 7.53389 3.78999 
78 1 -1.84729 7.59482 1.56302 
80 1 -2.5155 8.81311 1.90738 
84 1 -4.42983 9.79932 3.11139 
99 1 -2.92804 9.59227 0.776558 
100 1 -2.93375 6.29169 3.16785 
107 1 -4.87694 10.5392 1.97347 
110 1 -3.29941 8.87179 3.13198 
111 1 0.602034 5.925 10.6791 
113 1 1.34159 6.42619 9.86773 
119 1 -4.07966 10.4201 0.766419 
127 1 -2.14523 6.27899 1.97041 
131 1 -2.36863 6.24841 11.0028 
138 1 1.38471 7.9334 0.830395 
142 1 -2.51358 8.81219 8.70278 
145 1 -4.42889 9.79798 7.50201 
151 1 -4.95478 10.3404 11.0315 
154 1 -2.93244 9.59919 9.83802 
155 1 -2.93528 6.29213 7.44261 
12 1 2.57592 7.05899 17.1297 
17 1 0.438065 9.27391 20.9092 
24 1 -3.50245 8.35255 11.8823 
27 1 -0.267188 7.17362 21.6376 
29 1 0.521492 5.93484 22.0637 
31 1 1.27967 7.1895 17.8932 
44 1 -0.171764 7.13224 20.1304 
46 1 0.128614 8.44356 19.7183 
51 1 -0.319374 7.22569 11.1612 
53 1 2.60167 7.00507 15.6114 
56 1 1.28664 7.14301 14.8451 
63 1 -2.34401 6.26199 21.7598 
66 1 -3.40076 6.79431 20.8582 
70 1 -0.182835 7.14692 12.6234 
72 1 0.472437 5.89201 12.9633 
92 1 0.920313 8.41695 14.244 
95 1 -4.95396 10.3404 21.7369 
98 1 -4.64987 9.16415 20.8282 
104 1 0.446935 9.29761 11.87 
116 1 -2.53434 8.78527 21.7761 
118 1 -3.50008 8.34789 20.8847 
122 1 0.1335 8.46717 13.0553 
133 1 -3.40803 6.78838 11.9078 
136 1 0.328855 8.46322 22.0788 
147 1 0.497081 5.90814 19.7754 
153 1 -4.65278 9.1664 11.9373 
160 1 0.919272 8.42636 18.5178 
1 1 7.767 4.93349 10.5406 
4 1 9.10604 4.87269 11.0069 
20 1 7.77814 4.95186 9.06108 
42 1 9.43455 5.4713 7.4499 
67 1 9.93403 4.63221 0.773944 
77 1 7.76558 4.9296 0.0727958 
94 1 7.7813 4.95163 1.54903 
96 1 9.11719 4.71334 1.98916 
121 1 4.62095 5.55982 10.6721 
130 1 9.43455 5.47101 3.16275 
134 1 9.92674 4.62624 9.83984 
152 1 9.11399 4.71115 8.62319 
45 1 4.67658 5.53544 22.0787 
55 1 4.82372 5.55346 13.0664 
106 1 9.11072 4.88019 21.7571 
137 1 4.80521 5.55394 19.6901 
2 1 7.29032 10.4458 9.04126 
3 1 8.95602 7.66497 6.06227 
6 1 8.50661 6.39228 6.81272 
16 1 2.38516 8.65728 0.849997 
22 1 7.05083 6.15809 8.67859 
26 1 7.20007 8.39546 7.51978 
35 1 7.26963 10.4732 10.4899 
37 1 6.85818 9.18489 11.0096 
39 1 8.29739 8.92242 6.75451 
41 1 6.67397 6.967 9.83183 
48 1 3.78052 6.3685 0.853726 
61 1 7.2921 10.4417 1.56929 
62 1 8.95728 7.66525 4.55211 
64 1 6.729 9.16771 1.9991 
68 1 7.37029 6.94207 3.07736 
71 1 4.3501 8.52253 10.7584 
74 1 3.64869 7.76768 9.80266 
81 1 8.50655 6.39268 3.80002 
83 1 6.52789 8.38134 0.799061 
93 1 7.26694 10.4772 0.116818 
97 1 8.30008 8.92193 3.85746 
101 1 2.46321 9.83843 10.6571 
103 1 2.45877 8.68061 9.78791 
117 1 7.05147 6.15924 1.93644 
120 1 7.19967 8.39526 3.09447 
123 1 3.78157 6.34766 9.71028 
129 1 6.67717 6.96325 0.780531 
132 1 6.72653 9.16568 8.61652 
135 1 7.37032 6.94171 7.53661 
141 1 7.19237 6.21265 10.9549 
144 1 6.52616 8.3816 9.81674 
148 1 3.65397 7.76766 0.837244 
7 1 9.145 6.06501 11.9281 
10 1 3.76368 9.78971 21.616 
13 1 2.42327 9.84876 22.0819 
15 1 3.02682 8.328 17.8819 
28 1 3.75255 9.77313 20.136 
30 1 4.48212 8.56493 19.7525 
34 1 4.33326 6.33027 18.5922 
40 1 7.74625 8.3576 11.9274 
49 1 4.85657 7.76317 20.9083 
50 1 2.1015 9.24891 18.5243 
58 1 1.61487 10.0786 11.8433 
59 1 4.17242 7.79989 14.1603 
69 1 3.80646 9.79608 11.1685 
73 1 3.01718 8.31187 14.8738 
75 1 5.00382 6.34821 11.8806 
79 1 7.19805 6.21441 21.8095 
82 1 7.87673 6.95348 20.855 
86 1 3.7595 9.78686 12.632 
88 1 2.40696 10.0024 13.0586 
108 1 9.15122 6.06802 20.8408 
112 1 4.48822 8.57352 13.0238 
115 1 4.36662 6.33178 14.1897 
124 1 4.87806 7.76069 11.8717 
125 1 2.09751 9.23774 14.238 
126 1 6.85979 9.18371 21.7545 
128 1 7.74661 8.35884 20.8382 
139 1 1.60228 10.0917 20.9143 
140 1 4.1638 7.7811 18.6109 
143 1 7.87383 6.95305 11.911 
146 1 4.33827 8.51271 22.0275 
149 1 5.00679 6.34172 20.891 
157 1 2.41849 10.0089 19.6976 
ITEM: TIMESTEP
50
ITEM: NUMBER OF ATOMS
161
ITEM: BOX BOUNDS xy xz yz pp pp pp
-6.7755000000000001e+00 1.3552000000000000e+01 -6.7755000000000001e+00
0.0000000000000000e+00 1.1735510246683001e+01 0.0000000000000000e+00
0.0000000000000000e+00 2.2149999999999999e+01 0.0000000000000000e+00
ITEM: ATOMS id type x y z 
8 1 -2.4713 5.45857 9.82221 
87 1 2.94266 4.32072 10.7098 
90 1 2.54083 5.48626 9.67198 
109 1 -2.46369 5.46756 0.787226 
158 1 2.63087 5.56735 0.865819 
161 2 2.9314 5.48117 8.37768 
11 1 4.23435 4.29374 20.1212 
14 1 2.84446 4.19262 19.7198 
18 1 1.26794 5.84922 18.552 
33 1 2.05596 4.31171 20.9187 
43 1 4.2514 4.2738 21.5606 
47 1 3.22979 5.80043 17.8307 
52 1 4.24305 4.29134 12.6706 
76 1 2.41379 5.01034 14.2175 
85 1 4.22863 4.30024 11.2344 
89 1 3.32369 5.80031 14.9649 
91 1 0.919983 5.11807 11.827 
102 1 2.85411 4.23374 13.0908 
105 1 1.222 5.85874 14.1645 
114 1 2.07265 4.28801 11.8718 
150 1 2.40467 4.93162 18.5697 
156 1 2.92559 4.39726 22.112 
159 1 0.893908 5.13149 20.9247 
5 1 -4.86938 10.5356 8.64874 
9 1 -3.28974 8.87187 7.4752 
19 1 -1.76938 7.55341 10.5563 
21 1 -2.54304 8.80228 10.9947 
23 1 -3.29646 7.5392 6.81518 
25 1 -4.07535 10.4168 9.84344 
32 1 1.47262 6.38298 0.811191 
36 1 -1.84266 7.60328 9.04885 
38 1 -2.14853 6.27846 8.63712 
54 1 0.304668 8.47993 10.6777 
57 1 1.27454 7.94704 9.757 
60 1 -1.74912 7.55268 0.0573077 
65 1 -3.29852 7.53901 3.79474 
78 1 -1.83552 7.61109 1.56343 
80 1 -2.50559 8.81853 1.90914 
84 1 -4.42302 9.79796 3.11697 
99 1 -2.90871 9.58664 0.774747 
100 1 -2.93417 6.29264 3.16184 
107 1 -4.86594 10.5323 1.96435 
110 1 -3.28788 8.86962 3.13093 
111 1 0.587031 5.92553 10.6693 
113 1 1.33134 6.41705 9.85615 
119 1 -4.0723 10.4109 0.770718 
127 1 -2.15022 6.27997 1.97398 
131 1 -2.38123 6.26057 11.0073 
138 1 1.3848 7.9244 0.831606 
142 1 -2.49981 8.81767 8.69725 
145 1 -4.42251 9.79864 7.49495 
151 1 -4.94978 10.3263 11.0416 
154 1 -2.91252 9.59514 9.84639 
155 1 -2.93553 6.29176 7.44789 
12 1 2.57322 7.06479 17.1382 
17 1 0.445309 9.25572 20.9035 
24 1 -3.49352 8.34036 11.8905 
27 1 -0.268464 7.1681 21.6322 
29 1 0.513459 5.92764 22.0695 
31 1 1.27909 7.185 17.887 
44 1 -0.183693 7.11789 20.1283 
46 1 0.131582 8.44073 19.7139 
51 1 -0.325906 7.21606 11.1639 
53 1 2.60022 7.00764 15.5996 
56 1 1.28576 7.14221 14.8508 
63 1 -2.35524 6.27599 21.7549 
66 1 -3.40063 6.80336 20.8572 
70 1 -0.19593 7.14111 12.6252 
72 1 0.457024 5.8859 12.9658 
92 1 0.922863 8.41234 14.244 
95 1 -4.94805 10.3236 21.7267 
98 1 -4.64618 9.15503 20.8243 
104 1 0.456365 9.28113 11.8703 
116 1 -2.53001 8.7984 21.7696 
118 1 -3.491 8.33841 20.8774 
122 1 0.132585 8.45873 13.0576 
133 1 -3.41082 6.79719 11.9087 
136 1 0.340122 8.45119 22.0833 
147 1 0.480077 5.90573 19.7723 
153 1 -4.65121 9.15747 11.9442 
160 1 0.919568 8.4264 18.5226 
1 1 7.73739 4.90924 10.5415 
4 1 9.08846 4.89077 11.0022 
20 1 7.7625 4.95747 9.06761 
42 1 9.4298 5.48109 7.452 
67 1 9.91768 4.65201 0.77512 
77 1 7.74257 4.91149 0.0692213 
94 1 7.76707 4.95543 1.54547 
96 1 9.10048 4.72455 1.98883 
121 1 4.60856 5.58706 10.6687 
130 1 9.43028 5.47999 3.15815 
134 1 9.91387 4.64395 9.83832 
152 1 9.09631 4.71971 8.62104 
45 1 4.67103 5.55413 22.0957 
55 1 4.83291 5.57332 13.0678 
106 1 9.09169 4.89768 21.7631 
137 1 4.80582 5.57088 19.6903 
2 1 7.30008 10.4339 9.0434 
3 1 8.95723 7.65857 6.07182 
6 1 8.50063 6.39331 6.80431 
16 1 2.40382 8.64668 0.85137 
22 1 7.03096 6.14849 8.67361 
26 1 7.2031 8.3863 7.51432 
35 1 7.28629 10.4491 10.4784 
37 1 6.85941 9.17012 11.0202 
39 1 8.30403 8.92375 6.75611 
41 1 6.65937 6.95902 9.82979 
48 1 3.79026 6.35898 0.854112 
61 1 7.30257 10.4318 1.56956 
62 1 8.95908 7.6587 4.53986 
64 1 6.72778 9.15092 1.9973 
68 1 7.359 6.93746 3.08133 
71 1 4.36674 8.51107 10.7542 
74 1 3.64435 7.76589 9.79902 
81 1 8.49895 6.39499 3.80773 
83 1 6.52238 8.37478 0.810158 
93 1 7.28354 10.454 0.123573 
97 1 8.31078 8.92284 3.85518 
101 1 2.47812 9.82647 10.6677 
103 1 2.46931 8.66643 9.78286 
117 1 7.03321 6.15141 1.94236 
120 1 7.20247 8.38596 3.09951 
123 1 3.78983 6.3551 9.69244 
129 1 6.66444 6.95114 0.782557 
132 1 6.72467 9.1497 8.61921 
135 1 7.3576 6.93918 7.53119 
141 1 7.17429 6.21703 10.9585 
144 1 6.5223 8.37381 9.80525 
148 1 3.64829 7.78731 0.847317 
7 1 9.12481 6.07545 11.9307 
10 1 3.79172 9.81418 21.6172 
13 1 2.44126 9.8285 22.0804 
15 1 3.03386 8.32539 17.8734 
28 1 3.7676 9.76802 20.142 
30 1 4.50126 8.57475 19.7466 
34 1 4.33134 6.33786 18.5886 
40 1 7.74348 8.36269 11.9324 
49 1 4.87023 7.77228 20.9061 
50 1 2.10502 9.23904 18.5262 
58 1 1.63402 10.0601 11.8402 
59 1 4.18613 7.80653 14.1664 
69 1 3.82936 9.81588 11.1632 
73 1 3.02606 8.30706 14.8813 
75 1 5.00218 6.35163 11.8772 
79 1 7.18096 6.21493 21.8083 
82 1 7.884 6.93663 20.8428 
86 1 3.77824 9.7812 12.6383 
88 1 2.42984 9.98935 13.061 