ITEM: TIMESTEP
0
ITEM: NUMBER OF ATOMS
50
ITEM: BOX BOUNDS pp pp pp
0.0000000000000000e+00 1.1000000000000000e+01
0.0000000000000000e+00 1.1002000000000001e+01
0.0000000000000000e+00 1.1000000000000000e+01
ITEM: ATOMS id type x y z 
10 1 4.603 4.603 4.603 
11 1 3.085 3.085 3.085 
12 1 3.796 3.796 3.796 
46 1 0.726 0.725 0.725 
47 1 2.26 2.259 2.26 
48 1 1.551 1.55 1.55 
19 1 4.546 4.545 6.226 
20 1 3.013 3.013 7.764 
21 1 3.721 3.721 7.053 
31 1 0.668 0.667 10.103 
32 1 2.187 2.187 8.589 
33 1 1.476 1.475 9.298 
16 1 4.546 6.225 4.546 
17 1 3.013 7.765 3.013 
18 1 3.721 7.053 3.722 
25 1 0.668 10.103 0.668 
26 1 2.188 8.589 2.188 
27 1 1.476 9.298 1.476 
49 2 0.455 10.491 1.954 
50 3 0.455 10.491 2.93 
4 1 4.608 6.169 6.169 
5 1 3.086 7.684 7.684 
6 1 3.799 6.974 6.974 
37 1 0.729 10.046 10.046 
38 1 2.259 8.509 8.508 
39 1 1.552 9.219 9.219 
13 1 6.225 4.546 4.546 
14 1 7.764 3.013 3.013 
15 1 7.053 3.721 3.722 
28 1 10.102 0.667 0.668 
29 1 8.589 2.187 2.188 
30 1 9.298 1.475 1.476 
1 1 6.168 4.608 6.169 
2 1 7.684 3.086 7.684 
3 1 6.974 3.799 6.974 
40 1 10.045 0.728 10.046 
41 1 8.508 2.259 8.508 
42 1 9.218 1.551 9.218 
7 1 6.169 6.169 4.608 
8 1 7.684 7.684 3.086 
9 1 6.974 6.974 3.799 
43 1 10.046 10.047 0.729 
44 1 8.508 8.509 2.259 
45 1 9.219 9.219 1.552 
22 1 6.229 6.229 6.229 
23 1 7.764 7.765 7.765 
24 1 7.055 7.056 7.055 
34 1 10.108 10.108 10.107 
35 1 8.59 8.59 8.59 
36 1 9.301 9.301 9.3 
ITEM: TIMESTEP
10
ITEM: NUMBER OF ATOMS
50
ITEM: BOX BOUNDS pp pp pp
0.0000000000000000e+00 1.1000000000000000e+01
0.0000000000000000e+00 1.1002000000000001e+01
0.0000000000000000e+00 1.1000000000000000e+01
ITEM: ATOMS id type x y z 
10 1 4.59562 4.58107 4.59425 
11 1 3.08272 3.08298 3.0832 
12 1 3.7933 3.79099 3.79256 
46 1 0.728135 0.830572 0.675688 
47 1 2.27449 2.26669 2.27781 
48 1 1.56311 1.57911 1.55013 
19 1 4.53618 4.53381 6.23807 
20 1 3.00543 3.00579 7.7709 
21 1 3.70679 3.70602 7.06876 
31 1 0.681299 0.690385 10.0914 
32 1 2.19607 2.19393 8.57857 
33 1 1.48403 1.48731 9.2898 
16 1 4.54091 6.23135 4.54056 
17 1 3.015 7.76288 3.0172 
18 1 3.72063 7.05395 3.7218 
25 1 0.670737 10.0887 0.56352 
26 1 2.23019 8.54592 2.22145 
27 1 1.54207 9.21971 1.41452 
49 2 0.424493 10.4918 2.16809 
50 3 0.416604 10.5408 3.02798 
4 1 4.6012 6.17944 6.18601 
5 1 3.08085 7.69338 7.68597 
6 1 3.79516 6.96971 6.98499 
37 1 0.737598 10.035 9.97119 
38 1 2.28209 8.48678 8.49378 
39 1 1.57169 9.19786 9.18175 
13 1 6.23789 4.53448 4.53679 
14 1 7.77321 3.00376 3.00443 
15 1 7.06699 3.70692 3.70755 
28 1 10.1014 0.666609 0.674958 
29 1 8.58694 2.19536 2.19146 
30 1 9.28619 1.47441 1.4843 
1 1 6.1788 4.59851 6.17752 
2 1 7.69131 3.07969 7.6913 
3 1 6.97694 3.794 6.9769 
40 1 10.0245 0.742903 10.0355 
41 1 8.49938 2.26857 8.4968 
42 1 9.19843 1.56893 9.20329 
7 1 6.18555 6.17759 4.60056 
8 1 7.687 7.69461 3.07902 
9 1 6.98738 6.97159 3.79467 
43 1 9.96777 10.0508 0.703407 
44 1 8.50222 8.49648 2.27496 
45 1 9.19519 9.21083 1.5525 
22 1 6.24131 6.23711 6.24031 
23 1 7.77373 7.77235 7.77359 
24 1 7.06614 7.07131 7.06845 
34 1 10.0818 10.094 10.1032 
35 1 8.5855 8.58548 8.57994 
36 1 9.2901 9.29069 9.29855 
ITEM: TIMESTEP
20
ITEM: NUMBER OF ATOMS
50
ITEM: BOX BOUNDS pp pp pp
0.0000000000000000e+00 1.1000000000000000e+01
0.0000000000000000e+00 1.1002000000000001e+01
0.0000000000000000e+00 1.1000000000000000e+01
ITEM: ATOMS id type x y z 
10 1 4.59922 4.58586 4.59713 
11 1 3.08074 3.08537 3.08149 
12 1 3.79457 3.7812 3.79447 
46 1 0.724283 0.792439 0.676969 
47 1 2.27191 2.26037 2.27561 
48 1 1.56112 1.58812 1.54319 
19 1 4.53743 4.53047 6.23749 
20 1 3.00444 3.00327 7.77139 
21 1 3.71018 3.71143 7.0666 
31 1 0.671842 0.710592 10.0943 
32 1 2.19916 2.19115 8.5752 
33 1 1.48248 1.49854 9.28944 
16 1 4.54689 6.22743 4.54251 
17 1 3.01559 7.76402 3.01923 
18 1 3.71845 7.05355 3.72204 
25 1 0.699222 10.0588 0.547639 
26 1 2.19481 8.57941 2.16894 
27 1 1.52547 9.23504 1.38137 
49 2 0.412998 10.4997 2.23289 
50 3 0.402068 10.5618 3.11226 
4 1 4.60503 6.17133 6.18697 
5 1 3.09246 7.67766 7.67602 
6 1 3.80591 6.96719 6.97367 
37 1 0.733828 10.0364 9.98209 
38 1 2.29437 8.47414 8.48605 
39 1 1.57393 9.19587 9.16993 
13 1 6.23806 4.53434 4.53614 
14 1 7.77456 3.0022 3.00124 
15 1 7.06871 3.70672 3.70971 
28 1 10.1046 0.66758 0.674795 
29 1 8.5878 2.19032 2.18866 
30 1 9.29055 1.47661 1.48385 
1 1 6.17974 4.59721 6.17624 
2 1 7.68774 3.08215 7.68552 
3 1 6.97853 3.79455 6.98206 
40 1 10.0197 0.743175 10.0319 
41 1 8.49691 2.27012 8.4944 
42 1 9.2011 1.56776 9.20702 
7 1 6.18914 6.17202 4.60276 
8 1 7.68773 7.68917 3.08192 
9 1 6.98633 6.97882 3.79314 
43 1 10.0055 10.0507 0.70194 
44 1 8.50759 8.49868 2.27219 
45 1 9.1881 9.21335 1.54967 
22 1 6.2433 6.23819 6.24019 
23 1 7.77362 7.77462 7.77362 
24 1 7.06644 7.06664 7.06686 
34 1 10.0617 10.102 10.1078 
35 1 8.5874 8.57969 8.57883 
36 1 9.27868 9.29533 9.29472 
ITEM: TIMESTEP
30
ITEM: NUMBER OF ATOMS
50
ITEM: BOX BOUNDS pp pp pp
0.0000000000000000e+00 1.1000000000000000e+01
0.0000000000000000e+00 1.1002000000000001e+01
0.0000000000000000e+00 1.1000000000000000e+01
ITEM: ATOMS id type x y z 
10 1 4.60388 4.59311 4.59657 
11 1 3.08361 3.0715 3.08705 
12 1 3.78499 3.79697 3.78159 
46 1 0.737284 0.762127 0.690187 
47 1 2.26362 2.2637 2.26669 
48 1 1.56167 1.57436 1.53861 
19 1 4.53961 4.52846 6.23724 
20 1 3.00277 3.00654 7.77455 
21 1 3.71395 3.70332 7.06074 
31 1 0.662434 0.699618 10.0856 
32 1 2.19779 2.19198 8.5786 
33 1 1.47896 1.49487 9.28581 
16 1 4.54644 6.2222 4.53861 
17 1 2.99488 7.777 3.00633 
18 1 3.71245 7.07371 3.70437 
25 1 0.700012 10.0652 0.574863 
26 1 2.2024 8.5688 2.15367 
27 1 1.535 9.22605 1.36593 
49 2 0.405458 10.497 2.26332 
50 3 0.386227 10.583 3.1832 
4 1 4.61253 6.16606 6.16113 
5 1 3.09664 7.67624 7.67807 
6 1 3.80134 6.9669 6.97095 
37 1 0.728212 10.0418 9.98256 
38 1 2.28087 8.48793 8.49038 
39 1 1.56771 9.20092 9.18358 
13 1 6.24033 4.5331 4.53608 
14 1 7.7768 2.99999 2.99998 
15 1 7.06999 3.70531 3.70638 
28 1 10.1002 0.666647 0.677946 
29 1 8.58363 2.18127 2.1883 
30 1 9.30458 1.48718 1.48064 
1 1 6.18149 4.59528 6.17447 
2 1 7.68602 3.0841 7.68679 
3 1 6.98026 3.7932 6.97671 
40 1 10.0207 0.745007 10.0321 
41 1 8.49448 2.27751 8.49617 
42 1 9.19666 1.56183 9.19728 
7 1 6.17853 6.17155 4.59946 
8 1 7.6959 7.68909 3.08577 
9 1 6.97887 6.98212 3.78382 
43 1 10.0337 10.0363 0.714114 
44 1 8.50496 8.50658 2.26382 
45 1 9.20294 9.21318 1.54847 
22 1 6.25074 6.23627 6.23895 
23 1 7.77448 7.77527 7.77451 
24 1 7.06841 7.06574 7.06572 
34 1 10.0719 10.1102 10.0985 
35 1 8.58547 8.58032 8.58058 
36 1 9.28009 9.29663 9.29337 
ITEM: TIMESTEP
40
ITEM: NUMBER OF ATOMS
50
ITEM: BOX BOUNDS pp pp pp
0.0000000000000000e+00 1.1000000000000000e+01
0.0000000000000000e+00 1.1002000000000001e+01
0.0000000000000000e+00 1.1000000000000000e+01
ITEM: ATOMS id type x y z 
10 1 4.60387 4.5931 4.59656 
11 1 3.0836 3.0715 3.08704 
12 1 3.78499 3.79696 3.78159 
46 1 0.737286 0.762127 0.690185 
47 1 2.26363 2.26371 2.26669 
48 1 1.56167 1.57436 1.53862 
19 1 4.53962 4.52845 6.23723 
20 1 3.00277 3.00654 7.77454 
21 1 3.71395 3.70332 7.06075 
31 1 0.662436 0.699653 10.0856 
32 1 2.19778 2.19199 8.57861 
33 1 1.47895 1.49486 9.2858 
16 1 4.54643 6.22223 4.53858 
17 1 2.9949 7.777 3.00635 
18 1 3.71243 7.07371 3.70436 
25 1 0.700014 10.0652 0.574934 
26 1 2.20241 8.56879 2.15366 
27 1 1.535 9.22605 1.36592 
49 2 0.405457 10.497 2.26336 
50 3 0.386216 10.583 3.18322 
4 1 4.61252 6.16606 6.16115 
5 1 3.09662 7.67624 7.67808 
6 1 3.80136 6.96691 6.97094 
37 1 0.728216 10.0418 9.98253 
38 1 2.28088 8.48793 8.49037 
39 1 1.56774 9.20089 9.18354 
13 1 6.24033 4.5331 4.53608 
14 1 7.77681 2.99998 2.99997 
15 1 7.06998 3.70532 3.7064 
28 1 10.1003 0.666651 0.677942 
29 1 8.58364 2.18127 2.1883 
30 1 9.30457 1.48717 1.48064 
1 1 6.18149 4.59529 6.17445 
2 1 7.68602 3.08411 7.68677 
3 1 6.98025 3.7932 6.97673 
40 1 10.0207 0.745007 10.0321 
41 1 8.49446 2.27752 8.49615 
42 1 9.19668 1.56182 9.19731 
7 1 6.17854 6.17155 4.59945 
8 1 7.69589 7.6891 3.08577 
9 1 6.97888 6.98212 3.78383 
43 1 10.0337 10.0363 0.714114 
44 1 8.50496 8.50658 2.26382 
45 1 9.20294 9.21317 1.54847 
22 1 6.25074 6.23627 6.23895 
23 1 7.77446 7.77525 7.77449 
24 1 7.06843 7.06575 7.06573 
34 1 10.0719 10.1102 10.0985 
35 1 8.58547 8.58032 8.58059 
36 1 9.2801 9.29663 9.29335 
ITEM: TIMESTEP
50
ITEM: NUMBER OF ATOMS
50
ITEM: BOX BOUNDS pp pp pp
0.0000000000000000e+00 1.1000000000000000e+01
0.0000000000000000e+00 1.1002000000000001e+01
0.0000000000000000e+00 1.1000000000000000e+01
ITEM: ATOMS id type x y z 
10 1 4.6009 4.59469 4.59069 
11 1 3.07952 3.07554 3.08283 
12 1 3.78875 3.78673 3.78617 
46 1 0.738328 0.759385 0.687024 
47 1 2.26679 2.26762 2.26683 
48 1 1.56368 1.57336 1.5431 
19 1 4.54325 4.52647 6.23224 
20 1 3.0047 3.00406 7.77177 
21 1 3.71195 3.70769 7.06491 
31 1 0.664126 0.700103 10.0826 
32 1 2.19654 2.19452 8.58225 
33 1 1.4774 1.48923 9.28089 
16 1 4.54152 6.23344 4.52666 
17 1 3.00161 7.77536 3.00952 
18 1 3.71074 7.0672 3.70881 
25 1 0.699765 10.0675 0.587869 
26 1 2.20303 8.56606 2.14534 
27 1 1.53631 9.22546 1.35955 
49 2 0.404675 10.493 2.28717 
50 3 0.379443 10.5901 3.19598 
4 1 4.60838 6.16666 6.16642 
5 1 3.09256 7.67307 7.67897 
6 1 3.80856 6.97311 6.96993 
37 1 0.725542 10.0434 9.98341 
38 1 2.28315 8.48565 8.4913 
39 1 1.56773 9.20115 9.1749 
13 1 6.24094 4.53344 4.53609 
14 1 7.77814 2.99746 2.99929 
15 1 7.06807 3.7077 3.70624 
28 1 10.1067 0.668426 0.676461 
29 1 8.58834 2.1863 2.1877 
30 1 9.29723 1.47768 1.48218 
1 1 6.17911 4.59922 6.17247 
2 1 7.68367 3.08555 7.68754 
3 1 6.98264 3.79365 6.97255 
40 1 10.0182 0.742579 10.0319 
41 1 8.49182 2.27661 8.492 
42 1 9.19764 1.56619 9.20235 
7 1 6.17761 6.1722 4.5956 
8 1 7.69248 7.69099 3.08052 
9 1 6.98784 6.98216 3.79015 
43 1 10.0346 10.0376 0.711574 
44 1 8.50207 8.50647 2.26368 
45 1 9.20637 9.2096 1.55152 
22 1 6.24705 6.23426 6.23462 
23 1 7.76988 7.77349 7.77258 
24 1 7.07246 7.06315 7.06383 
34 1 10.0716 10.108 10.0985 
35 1 8.58349 8.58144 8.58459 
36 1 9.28509 9.29832 9.28896 
ITEM: TIMESTEP
60
ITEM: NUMBER OF ATOMS
50
ITEM: BOX BOUNDS pp pp pp
0.0000000000000000e+00 1.1000000000000000e+01
0.0000000000000000e+00 1.1002000000000001e+01
0.0000000000000000e+00 1.1000000000000000e+01
ITEM: ATOMS id type x y z 
10 1 4.60008 4.59527 4.59028 
11 1 3.07972 3.07687 3.08316 
12 1 3.78991 3.78565 3.78724 
46 1 0.73959 0.757795 0.688503 
47 1 2.26534 2.26631 2.26561 
48 1 1.56333 1.57289 1.54033 
19 1 4.54221 4.52925 6.23047 
20 1 3.00562 3.00556 7.77248 
21 1 3.71353 3.7073 7.06089 
31 1 0.662768 0.694299 10.0802 
32 1 2.19576 2.19493 8.58096 
33 1 1.47884 1.48988 9.28189 
16 1 4.54318 6.23169 4.52865 
17 1 3.00005 7.77748 3.008 
18 1 3.70933 7.06687 3.70725 
25 1 0.697551 10.0718 0.593986 
26 1 2.20803 8.56117 2.14364 
27 1 1.53967 9.22206 1.35917 
49 2 0.404913 10.4899 2.29164 
50 3 0.375322 10.5944 3.20589 
4 1 4.61019 6.16779 6.16468 
5 1 3.09551 7.67596 7.67942 
6 1 3.80249 6.96864 6.97064 
37 1 0.724909 10.0443 9.98413 
38 1 2.28117 8.4873 8.49154 
39 1 1.56455 9.20436 9.17839 
13 1 6.23941 4.53453 4.53304 
14 1 7.77723 2.99861 2.99943 
15 1 7.06957 3.70567 3.70603 
28 1 10.1068 0.668076 0.676514 
29 1 8.58908 2.1854 2.18693 
30 1 9.29849 1.47684 1.48197 
1 1 6.1792 4.59791 6.17014 
2 1 7.68456 3.08584 7.68528 
3 1 6.97979 3.79452 6.97507 
40 1 10.0179 0.74313 10.0324 
41 1 8.4928 2.27501 8.49264 
42 1 9.19675 1.56779 9.20313 
7 1 6.1788 6.173 4.59419 
8 1 7.69339 7.69114 3.08165 
9 1 6.98607 6.98206 3.78792 
43 1 10.0355 10.0368 0.712788 
44 1 8.50327 8.50722 2.26232 
45 1 9.20768 9.21101 1.55059 
22 1 6.24711 6.23464 6.2327 
23 1 7.77224 7.77278 7.77293 
24 1 7.06905 7.06448 7.06352 
34 1 10.0767 10.1084 10.0962 
35 1 8.58266 8.58214 8.58324 
36 1 9.28434 9.29621 9.29022 
ITEM: TIMESTEP
70
ITEM: NUMBER OF ATOMS
50
ITEM: BOX BOUNDS pp pp pp
0.0000000000000000e+00 1.1000000000000000e+01
0.0000000000000000e+00 1.1002000000000001e+01
0.0000000000000000e+00 1.1000000000000000e+01
ITEM: ATOMS id type x y z 
10 1 4.60058 4.59265 4.58234 
11 1 3.07703 3.07452 3.08239 
12 1 3.78895 3.78399 3.78365 
46 1 0.747202 0.746687 0.69126 
47 1 2.26396 2.26869 2.25864 
48 1 1.56554 1.56812 1.53692 
19 1 4.53743 4.53438 6.21972 
20 1 3.01089 3.00654 7.77072 
21 1 3.71392 3.71005 7.05657 
31 1 0.661656 0.676924 10.0665 
32 1 2.19551 2.19567 8.57955 
33 1 1.47433 1.4939 9.27914 
16 1 4.54181 6.23157 4.52567 
17 1 2.99889 7.77523 3.00558 
18 1 3.70981 7.06753 3.7078 
25 1 0.693781 10.0882 0.63751 
26 1 2.23019 8.53882 2.11343 
27 1 1.55078 9.21265 1.34986 
49 2 0.406546 10.4706 2.35256 
50 3 0.342671 10.6266 3.27413 
4 1 4.60465 6.17106 6.16201 
5 1 3.09223 7.67704 7.68514 
6 1 3.80101 6.97481 6.97248 
37 1 0.722711 10.0467 9.98963 
38 1 2.27449 8.49261 8.48965 
39 1 1.56068 9.20955 9.17996 
13 1 6.23618 4.53718 4.52085 
14 1 7.78028 2.99484 2.99886 
15 1 7.07053 3.70543 3.69897 
28 1 10.1089 0.66693 0.674033 
29 1 8.5936 2.18125 2.18623 
30 1 9.30212 1.47342 1.47932 
1 1 6.17779 4.59966 6.15971 
2 1 7.68222 3.08899 7.68251 
3 1 6.97782 3.79532 6.97012 
40 1 10.0165 0.745471 10.0399 
41 1 8.49079 2.27471 8.49269 
42 1 9.19586 1.57114 9.20567 
7 1 6.1827 6.17468 4.58616 
8 1 7.6966 7.69712 3.07938 
9 1 6.98897 6.98264 3.77966 
43 1 10.0439 10.0345 0.717328 
44 1 8.5053 8.50912 2.25916 
45 1 9.21388 9.21131 1.54884 
22 1 6.24161 6.23957 6.22209 
23 1 7.77018 7.7687 7.77024 
24 1 7.06749 7.06168 7.05886 
34 1 10.0903 10.1077 10.0835 
35 1 8.57858 8.5842 8.58144 
36 1 9.2826 9.29235 9.29168 
ITEM: TIMESTEP
80
ITEM: NUMBER OF ATOMS
50
ITEM: BOX BOUNDS pp pp pp
0.0000000000000000e+00 1.1000000000000000e+01
0.0000000000000000e+00 1.1002000000000001e+01
0.0000000000000000e+00 1.1000000000000000e+01
ITEM: ATOMS id type x y z 
10 1 4.6003 4.59223 4.58224 
11 1 3.07628 3.07405 3.08154 
12 1 3.78845 3.7835 3.78298 
46 1 0.74742 0.747083 0.691146 
47 1 2.2644 2.26899 2.25829 
48 1 1.56588 1.56813 1.53664 
19 1 4.5383 4.53425 6.21985 
20 1 3.01096 3.0066 7.77062 
21 1 3.71417 3.70998 7.05657 
31 1 0.660641 0.678763 10.0671 
32 1 2.1939 2.1989 8.58062 
33 1 1.47704 1.48849 9.27566 
16 1 4.54187 6.23308 4.52569 
17 1 3.00039 7.77503 3.00562 
18 1 3.70984 7.06548 3.70736 
25 1 0.694767 10.0879 0.640813 
26 1 2.23271 8.53498 2.11005 
27 1 1.55186 9.213 1.35044 
49 2 0.406941 10.4698 2.35799 
50 3 0.33909 10.6289 3.27789 
4 1 4.60493 6.17201 6.16258 
5 1 3.09241 7.67809 7.68515 
6 1 3.79946 6.97401 6.97348 
37 1 0.722204 10.0475 9.99059 
38 1 2.27334 8.49457 8.49018 
39 1 1.5589 9.20975 9.18129 
13 1 6.23741 4.53701 4.52056 
14 1 7.78089 2.99466 2.99811 
15 1 7.07073 3.70437 3.69861 
28 1 10.1087 0.667882 0.673229 
29 1 8.59384 2.18103 2.18681 
30 1 9.30198 1.47375 1.4794 
1 1 6.17688 4.60032 6.15897 
2 1 7.68172 3.08912 7.68186 
3 1 6.97772 3.79607 6.96937 
40 1 10.0175 0.745125 10.0386 
41 1 8.49077 2.27587 8.49289 
42 1 9.19426 1.57047 9.20522 
7 1 6.18293 6.17395 4.58467 
8 1 7.69665 7.69628 3.07743 
9 1 6.98933 6.98498 3.78195 
43 1 10.0433 10.0343 0.716177 
44 1 8.50568 8.50897 2.25923 
45 1 9.2138 9.21141 1.54869 
22 1 6.24202 6.23764 6.22202 
23 1 7.77033 7.76761 7.77048 
24 1 7.06678 7.06335 7.05769 
34 1 10.0907 10.1064 10.0855 
35 1 8.57688 8.5824 8.584 
36 1 9.28471 9.29502 9.28617 
ITEM: TIMESTEP
90
ITEM: NUMBER OF ATOMS
50
ITEM: BOX BOUNDS pp pp pp
0.0000000000000000e+00 1.1000000000000000e+01
0.0000000000000000e+00 1.1002000000000001e+01
0.0000000000000000e+00 1.1000000000000000e+01
ITEM: ATOMS id type x y z 
10 1 4.60031 4.59212 4.58219 
11 1 3.07617 3.07406 3.08142 
12 1 3.78845 3.78345 3.78285 
46 1 0.747317 0.747108 0.691198 
47 1 2.26446 2.26891 2.25811 
48 1 1.56582 1.56817 1.53646 
19 1 4.53844 4.53423 6.21984 
20 1 3.01095 3.00669 7.77061 
21 1 3.71419 3.70996 7.05655 
31 1 0.660843 0.678864 10.0669 
32 1 2.19385 2.19887 8.58056 
33 1 1.47693 1.48844 9.27556 
16 1 4.5419 6.23315 4.52602 
17 1 3.00051 7.77484 3.00564 
18 1 3.71025 7.06504 3.70697 
25 1 0.694753 10.0879 0.64174 
26 1 2.23356 8.53406 2.10912 
27 1 1.55214 9.21295 1.35078 
49 2 0.407035 10.4697 2.35915 
50 3 0.338102 10.6295 3.27884 
4 1 4.60482 6.17206 6.16284 
5 1 3.09219 7.67823 7.68533 
6 1 3.79932 6.97427 6.97357 
37 1 0.722077 10.0475 9.99108 
38 1 2.27314 8.49475 8.49023 
39 1 1.55867 9.21 9.1814 
13 1 6.23753 4.5369 4.52046 
14 1 7.78091 2.99453 2.99804 
15 1 7.0708 3.70448 3.69853 
28 1 10.1087 0.66788 0.672957 
29 1 8.59394 2.18084 2.187 
30 1 9.30205 1.47392 1.4792 
1 1 6.17677 4.60037 6.1589 
2 1 7.68152 3.08929 7.68181 
3 1 6.97779 3.79607 6.96893 
40 1 10.0175 0.744974 10.0383 
41 1 8.49063 2.27599 8.49301 
42 1 9.19423 1.57048 9.20511 
7 1 6.18305 6.17399 4.58455 
8 1 7.69661 7.69629 3.07739 
9 1 6.98933 6.98496 3.78186 
43 1 10.0432 10.0345 0.715941 
44 1 8.50591 8.50912 2.25908 
45 1 9.2139 9.21147 1.54855 
22 1 6.24209 6.23756 6.2219 
23 1 7.77024 7.76758 7.77039 
24 1 7.06673 7.06327 7.05767 
34 1 10.0907 10.1064 10.0853 
35 1 8.57685 8.58249 8.58399 
36 1 9.28481 9.29492 9.2862 
ITEM: TIMESTEP
100
ITEM: NUMBER OF ATOMS
50
ITEM: BOX BOUNDS pp pp pp
0.0000000000000000e+00 1.1000000000000000e+01
0.0000000000000000e+00 1.1002000000000001e+01
0.0000000000000000e+00 1.1000000000000000e+01
ITEM: ATOMS id type x y z 
10 1 4.60103 4.58771 4.58083 
11 1 3.0744 3.07503 3.07705 
12 1 3.78757 3.78198 3.78041 
46 1 0.744218 0.746557 0.692266 
47 1 2.26705 2.26888 2.25175 
48 1 1.56519 1.56804 1.53307 
19 1 4.53985 4.53401 6.21909 
20 1 3.01106 3.00839 7.77034 
21 1 3.71424 3.71086 7.05549 
31 1 0.662244 0.678154 10.0632 
32 1 2.19275 2.19934 8.57623 
33 1 1.47716 1.48766 9.27157 
16 1 4.54523 6.23112 4.53229 
17 1 3.00885 7.76356 2.99782 
18 1 3.71776 7.05685 3.70359 
25 1 0.695309 10.0897 0.668193 
26 1 2.26018 8.50627 2.07592 
27 1 1.55918 9.21252 1.36076 
49 2 0.408563 10.4668 2.39889 
50 3 0.303819 10.649 3.31347 
4 1 4.60214 6.17463 6.17156 
5 1 3.08579 7.68469 7.68915 
6 1 3.79409 6.97875 6.98004 
37 1 0.722504 10.0475 10.0063 
38 1 2.2649 8.50308 8.49014 
39 1 1.55375 9.2146 9.18859 
13 1 6.23962 4.5367 4.51487 
14 1 7.78298 2.99224 2.9956 
15 1 7.07238 3.70249 3.69506 
28 1 10.1076 0.672732 0.661947 
29 1 8.59839 2.17697 2.19026 
30 1 9.30391 1.4738 1.47608 
1 1 6.17627 4.60019 6.15162 
2 1 7.68039 3.09082 7.67713 
3 1 6.97539 3.79764 6.9658 
40 1 10.0193 0.743199 10.0265 
41 1 8.48491 2.28089 8.49554 
42 1 9.19193 1.5721 9.20127 
7 1 6.1866 6.17392 4.58185 
8 1 7.69737 7.6984 3.0735 
9 1 6.99157 6.98605 3.77846 
43 1 10.0421 10.0385 0.713221 
44 1 8.5102 8.5097 2.25719 
45 1 9.21511 9.21386 1.54516 
22 1 6.24261 6.2371 6.21906 
23 1 7.76804 7.76684 7.76976 
24 1 7.06566 7.06263 7.05561 
34 1 10.0918 10.1056 10.0809 
35 1 8.57456 8.58124 8.5827 
36 1 9.28448 9.29368 9.28295 
ITEM: TIMESTEP
110
ITEM: NUMBER OF ATOMS
50
ITEM: BOX BOUNDS pp pp pp
0.0000000000000000e+00 1.1000000000000000e+01
0.0000000000000000e+00 1.1002000000000001e+01
0.0000000000000000e+00 1.1000000000000000e+01
ITEM: ATOMS id type x y z 
10 1 4.60115 4.58759 4.58098 
11 1 3.07437 3.07514 3.07722 
12 1 3.788 3.78206 3.78003 
46 1 0.744175 0.746656 0.692414 
47 1 2.26698 2.2692 2.25157 
48 1 1.56548 1.56779 1.53321 
19 1 4.53935 4.53432 6.21888 
20 1 3.01085 3.00835 7.77011 
21 1 3.71461 3.71096 7.05582 
31 1 0.662088 0.677877 10.0634 
32 1 2.19273 2.19914 8.57617 
33 1 1.47696 1.48776 9.27162 
16 1 4.54521 6.231 4.53207 
17 1 3.00975 7.76274 2.99655 
18 1 3.71728 7.05697 3.70453 
25 1 0.695011 10.0898 0.66899 
26 1 2.26054 8.50608 2.07531 
27 1 1.55914 9.21244 1.36077 
49 2 0.408198 10.4671 2.39896 
50 3 0.303088 10.6493 3.31421 
4 1 4.60215 6.17453 6.17178 
5 1 3.08564 7.68459 7.68905 
6 1 3.79433 6.97894 6.97999 
37 1 0.722693 10.0474 10.0065 
38 1 2.26477 8.50298 8.48991 
39 1 1.55405 9.21474 9.18887 
13 1 6.23926 4.53659 4.51471 
14 1 7.78296 2.992 2.99577 
15 1 7.07238 3.70296 3.69493 
28 1 10.1074 0.672693 0.661739 
29 1 8.59865 2.17682 2.19023 
30 1 9.30388 1.47372 1.47572 
1 1 6.17611 4.6003 6.15221 
2 1 7.67977 3.09113 7.67797 
3 1 6.97639 3.79713 6.96411 
40 1 10.0194 0.743263 10.0264 
41 1 8.48485 2.2808 8.49567 
42 1 9.19205 1.57224 9.20109 
7 1 6.1869 6.17379 4.5818 
8 1 7.69749 7.69848 3.07343 
9 1 6.99164 6.98604 3.77826 
43 1 10.042 10.0386 0.713339 
44 1 8.5099 8.50973 2.25674 
45 1 9.21569 9.21402 1.54572 
22 1 6.24227 6.23736 6.21912 
23 1 7.76804 7.76681 7.76964 
24 1 7.06551 7.0626 7.05571 
34 1 10.0919 10.1055 10.081 
35 1 8.57479 8.58117 8.58259 
36 1 9.28415 9.29386 9.28315 
ITEM: TIMESTEP
119
ITEM: NUMBER OF ATOMS
50
ITEM: BOX BOUNDS pp pp pp
0.0000000000000000e+00 1.1000000000000000e+01
0.0000000000000000e+00 1.1002000000000001e+01
0.0000000000000000e+00 1.1000000000000000e+01
ITEM: ATOMS id type x y z 
10 1 4.60117 4.58759 4.58097 
11 1 3.07438 3.07515 3.07721 
12 1 3.78799 3.78205 3.78005 
46 1 0.744187 0.746657 0.692413 
47 1 2.26698 2.26921 2.25156 
48 1 1.56547 1.5678 1.53323 
19 1 4.53933 4.53432 6.21887 
20 1 3.01084 3.00835 7.7701 
21 1 3.71462 3.71097 7.05585 
31 1 0.662087 0.677867 10.0634 
32 1 2.19272 2.19913 8.57617 
33 1 1.47696 1.48775 9.27163 
16 1 4.5452 6.23101 4.53209 
17 1 3.00977 7.76273 2.99653 
18 1 3.71729 7.05695 3.70452 
25 1 0.695008 10.0898 0.669007 
26 1 2.26056 8.50607 2.07529 
27 1 1.55914 9.21244 1.36077 
49 2 0.408185 10.4671 2.39897 
50 3 0.303063 10.6493 3.31423 
4 1 4.60215 6.17454 6.17178 
5 1 3.08564 7.6846 7.68904 
6 1 3.79433 6.97893 6.98 
37 1 0.722694 10.0474 10.0065 
38 1 2.26476 8.50298 8.48991 
39 1 1.55406 9.21475 9.18888 
13 1 6.23925 4.53658 4.5147 
14 1 7.78294 2.992 2.99578 
15 1 7.07239 3.70297 3.69493 
28 1 10.1073 0.672697 0.661725 
29 1 8.59866 2.17681 2.19022 
30 1 9.30389 1.47371 1.47573 
1 1 6.17614 4.60029 6.15218 
2 1 7.67978 3.09113 7.67794 
3 1 6.97635 3.79715 6.96415 
40 1 10.0195 0.74326 10.0264 
41 1 8.48485 2.2808 8.49567 
42 1 9.19206 1.57224 9.20109 
7 1 6.18691 6.17379 4.58179 
8 1 7.69749 7.69848 3.07343 
9 1 6.99164 6.98604 3.77825 
43 1 10.042 10.0386 0.713343 
44 1 8.50989 8.50972 2.25673 
45 1 9.21569 9.21403 1.54574 
22 1 6.24226 6.23736 6.21912 
23 1 7.76804 7.76681 7.76964 
24 1 7.06551 7.06259 7.05572 
34 1 10.0919 10.1055 10.081 
35 1 8.57481 8.58117 8.58259 
36 1 9.28414 9.29387 9.28316 
ITEM: TIMESTEP
120
ITEM: NUMBER OF ATOMS
50
ITEM: BOX BOUNDS pp pp pp
0.0000000000000000e+00 1.1000000000000000e+01
0.0000000000000000e+00 1.1002000000000001e+01
0.0000000000000000e+00 1.1000000000000000e+01
ITEM: ATOMS id type x y z 
10 1 4.60117 4.58759 4.58097 
11 1 3.07438 3.07515 3.07721 
12 1 3.78799 3.78205 3.78005 
46 1 0.744187 0.746657 0.692413 
47 1 2.26698 2.26921 2.25156 
48 1 1.56547 1.5678 1.53323 
19 1 4.53933 4.53432 6.21887 
20 1 3.01084 3.00835 7.7701 
21 1 3.71462 3.71097 7.05585 
31 1 0.662087 0.677866 10.0634 
32 1 2.19272 2.19913 8.57617 
33 1 1.47696 1.48775 9.27163 
16 1 4.5452 6.23101 4.53209 
17 1 3.00977 7.76273 2.99653 
18 1 3.71729 7.05695 3.70452 
25 1 0.695008 10.0898 0.669007 
26 1 2.26056 8.50607 2.07529 
27 1 1.55914 9.21244 1.36077 
49 2 0.408185 10.4671 2.39897 
50 3 0.303063 10.6493 3.31423 
4 1 4.60215 6.17454 6.17178 
5 1 3.08564 7.6846 7.68904 
6 1 3.79433 6.97893 6.98 
37 1 0.722694 10.0474 10.0065 
38 1 2.26476 8.50298 8.48991 
39 1 1.55406 9.21475 9.18888 
13 1 6.23925 4.53658 4.5147 
14 1 7.78294 2.992 2.99578 
15 1 7.07239 3.70297 3.69493 
28 1 10.1073 0.672697 0.661725 
29 1 8.59866 2.17681 2.19022 
30 1 9.30389 1.47371 1.47572 
1 1 6.17614 4.60029 6.15218 
2 1 7.67978 3.09113 7.67794 
3 1 6.97635 3.79715 6.96415 
40 1 10.0195 0.74326 10.0264 
41 1 8.48485 2.2808 8.49567 
42 1 9.19206 1.57224 9.20109 
7 1 6.18691 6.17379 4.58179 
8 1 7.69749 7.69848 3.07343 
9 1 6.99164 6.98604 3.77825 
43 1 10.042 10.0386 0.713343 
44 1 8.50989 8.50972 2.25673 
45 1 9.21569 9.21403 1.54574 
22 1 6.24226 6.23736 6.21912 
23 1 7.76804 7.76681 7.76964 
24 1 7.06551 7.06259 7.05572 
34 1 10.0919 10.1055 10.081 
35 1 8.57481 8.58117 8.58259 
36 1 9.28414 9.29387 9.28316 
ITEM: TIMESTEP
130
ITEM: NUMBER OF ATOMS
50
ITEM: BOX BOUNDS pp pp pp
-4.3641646692658166e-03 1.1004364164669269e+01
-4.5838051494683603e-03 1.1006583805149468e+01
-4.0363325054646546e-03 1.1004036332505466e+01
ITEM: ATOMS id type x y z 
10 1 4.60085 4.58721 4.58066 
11 1 3.07257 3.07324 3.07552 
12 1 3.78651 3.78051 3.77868 
46 1 0.740125 0.742421 0.688621 
47 1 2.26429 2.2664 2.249 
48 1 1.56212 1.5643 1.53015 
19 1 4.53886 4.53385 6.2191 
20 1 3.009 3.0064 7.77162 
21 1 3.71343 3.70972 7.05676 
31 1 0.657894 0.673468 10.0671 
32 1 2.18997 2.19625 8.57853 
33 1 1.47388 1.48453 9.27429 
16 1 4.54472 6.23133 4.53172 
17 1 3.00799 7.76442 2.99478 
18 1 3.71612 7.05798 3.70341 
25 1 0.690855 10.094 0.665135 
26 1 2.25791 8.50867 2.07262 
27 1 1.55612 9.21542 1.35786 
49 2 0.404102 10.4713 2.39672 
50 3 0.298875 10.6536 3.31268 
4 1 4.60181 6.17473 6.17189 
5 1 3.08383 7.68631 7.69053 
6 1 3.79286 6.98029 6.98119 
37 1 0.718629 10.0514 10.0102 
38 1 2.26205 8.50562 8.49225 
39 1 1.55072 9.21806 9.19177 
13 1 6.23953 4.53608 4.51427 
14 1 7.78461 2.99006 2.9941 
15 1 7.07342 3.70168 3.69381 
28 1 10.1113 0.668337 0.657771 
29 1 8.60124 2.17393 2.18768 
30 1 9.30678 1.47047 1.47287 
1 1 6.17633 4.5999 6.15228 
2 1 7.68139 3.08924 7.67942 
3 1 6.97763 3.79561 6.96533 
40 1 10.0234 0.739004 10.03 
41 1 8.48735 2.27798 8.498 
42 1 9.19521 1.56874 9.20403 
7 1 6.18709 6.17398 4.58149 
8 1 7.69913 7.70021 3.07175 
9 1 6.99294 6.98739 3.77686 
43 1 10.0459 10.0427 0.70957 
44 1 8.51241 8.51236 2.25421 
45 1 9.21884 9.21734 1.54263 
22 1 6.24252 6.23769 6.21935 
23 1 7.7697 7.76856 7.77115 
24 1 7.06652 7.06366 7.05664 
34 1 10.0959 10.1097 10.0847 
35 1 8.57736 8.58386 8.58497 
36 1 9.28704 9.2969 9.28581 
ITEM: TIMESTEP
140
ITEM: NUMBER OF ATOMS
50
ITEM: BOX BOUNDS pp pp pp
-8.3720146235777958e-03 1.1008372014623582e+01
-9.2973021144971621e-03 1.1011297302114496e+01
-5.2788203465005210e-03 1.1005278820346501e+01
ITEM: ATOMS id type x y z 
10 1 4.60155 4.58771 4.5818 
11 1 3.07116 3.07155 3.0753 
12 1 3.78494 3.77863 3.77783 
46 1 0.735534 0.737274 0.686589 
47 1 2.26102 2.26272 2.24722 
48 1 1.55888 1.56058 1.52893 
19 1 4.53921 4.53426 6.21816 
20 1 3.00816 3.00525 7.77113 
21 1 3.71244 3.70852 7.05675 
31 1 0.653093 0.667988 10.0696 
32 1 2.18713 2.19305 8.57955 
33 1 1.47143 1.48142 9.27476 
16 1 4.54503 6.23089 4.53277 
17 1 3.00738 7.76513 2.99489 
18 1 3.71525 7.05885 3.70323 
25 1 0.686124 10.0991 0.663067 
26 1 2.25533 8.51152 2.07137 
27 1 1.55366 9.21816 1.35738 
49 2 0.400224 10.4757 2.39599 
50 3 0.294819 10.6581 3.31239 
4 1 4.60251 6.17406 6.17072 
5 1 3.08241 7.68793 7.69059 
6 1 3.79117 6.98184 6.98203 
37 1 0.714069 10.0565 10.0123 
38 1 2.25869 8.50918 8.49385 
39 1 1.54753 9.22159 9.19302 
13 1 6.23888 4.53636 4.51508 
14 1 7.78527 2.9889 2.99452 
15 1 7.07428 3.70046 3.69375 
28 1 10.1159 0.662925 0.655249 
29 1 8.60384 2.17068 2.1866 
30 1 9.30919 1.46753 1.47229 
1 1 6.1756 4.60036 6.15105 
2 1 7.6826 3.0875 7.6795 
3 1 6.97909 3.79385 6.96613 
40 1 10.0279 0.733802 10.0321 
41 1 8.49048 2.27424 8.49966 
42 1 9.19825 1.56505 9.20517 
7 1 6.18633 6.17324 4.58252 
8 1 7.70036 7.70176 3.07148 
9 1 6.99454 6.98904 3.77611 
43 1 10.0502 10.0477 0.707495 
44 1 8.51551 8.51589 2.25249 
45 1 9.22191 9.22086 1.54142 
22 1 6.24182 6.23725 6.21843 
23 1 7.77038 7.7695 7.77065 
24 1 7.06729 7.06468 7.05666 
34 1 10.1007 10.1149 10.087 
35 1 8.58004 8.58687 8.58595 
36 1 9.28928 9.29974 9.28638 
ITEM: TIMESTEP
150
ITEM: NUMBER OF ATOMS
50
ITEM: BOX BOUNDS pp pp pp
-1.1808153523858075e-02 1.1011808153523862e+01
-1.3076640506497619e-02 1.1015076640506496e+01
-6.2303833783983117e-03 1.1006230383378398e+01
ITEM: ATOMS id type x y z 
10 1 4.6018 4.58788 4.5825 
11 1 3.06983 3.07015 3.0751 
12 1 3.78376 3.77714 3.77717 
46 1 0.731776 0.73318 0.685158 
47 1 2.25832 2.25974 2.24592 
48 1 1.5562 1.55786 1.52799 
19 1 4.53935 4.53444 6.21752 
20 1 3.00732 3.00422 7.77076 
21 1 3.71145 3.70751 7.0569 
31 1 0.649349 0.663734 10.0713 
32 1 2.18485 2.19049 8.58029 
33 1 1.46909 1.47897 9.27512 
16 1 4.54512 6.23066 4.53347 
17 1 3.00674 7.76575 2.99488 
18 1 3.71437 7.05965 3.70299 
25 1 0.682345 10.103 0.661797 
26 1 2.25319 8.51375 2.0705 
27 1 1.55147 9.22042 1.35698 
49 2 0.396915 10.4793 2.39534 
50 3 0.29135 10.6617 3.31215 
4 1 4.60275 6.17362 6.17013 
5 1 3.08107 7.68914 7.69078 
6 1 3.78987 6.9833 6.98244 
37 1 0.710356 10.0604 10.014 
38 1 2.25595 8.51201 8.49514 
39 1 1.5448 9.22434 9.19377 
13 1 6.23856 4.53649 4.51566 
14 1 7.78602 2.98792 2.99485 
15 1 7.07503 3.69934 3.69351 
28 1 10.1196 0.658926 0.653494 
29 1 8.60613 2.16829 2.18581 
30 1 9.31106 1.46482 1.47181 
1 1 6.17534 4.60062 6.15035 
2 1 7.68381 3.08619 7.67967 
3 1 6.98009 3.79222 6.96658 
40 1 10.0315 0.729724 10.0336 
41 1 8.49305 2.27131 8.50089 
42 1 9.20072 1.56222 9.20594 
7 1 6.18613 6.17288 4.58325 
8 1 7.70164 7.70305 3.07138 
9 1 6.99554 6.99029 3.77529 
43 1 10.0538 10.0516 0.705987 
44 1 8.51811 8.51868 2.25119 
45 1 9.22439 9.22361 1.54055 
22 1 6.24142 6.237 6.21782 
23 1 7.7711 7.77033 7.7703 
24 1 7.06808 7.06563 7.05679 
34 1 10.1044 10.1189 10.0887 
35 1 8.5821 8.58924 8.58677 
36 1 9.29157 9.30204 9.28663 
ITEM: TIMESTEP
160
ITEM: NUMBER OF ATOMS
50
ITEM: BOX BOUNDS pp pp pp
-1.5029555796904317e-02 1.1015029555796907e+01
-1.6550565851868870e-02 1.1018550565851868e+01
-7.3438560359006585e-03 1.1007343856035899e+01
ITEM: ATOMS id type x y z 
10 1 4.60217 4.58793 4.5829 
11 1 3.06881 3.0688 3.07464 
12 1 3.78223 3.77592 3.77678 
46 1 0.728222 0.729494 0.68356 
47 1 2.25579 2.25714 2.24448 
48 1 1.55374 1.55514 1.52714 
19 1 4.53948 4.53467 6.21701 
20 1 3.00651 3.00331 7.77056 
21 1 3.7105 3.70649 7.05702 
31 1 0.645789 0.659896 10.0729 
32 1 2.18258 2.18821 8.58103 
33 1 1.46717 1.47657 9.27574 
16 1 4.5452 6.23043 4.53408 
17 1 3.00615 7.76628 2.99466 
18 1 3.71357 7.06036 3.70271 
25 1 0.678887 10.1065 0.660573 
26 1 2.2512 8.5158 2.06957 
27 1 1.54941 9.2225 1.35644 
49 2 0.393799 10.4826 2.39457 
50 3 0.288063 10.665 3.31183 
4 1 4.60296 6.17348 6.16955 
5 1 3.07987 7.6905 7.69091 
6 1 3.78851 6.98422 6.98318 
37 1 0.706769 10.064 10.0157 
38 1 2.25328 8.51462 8.49638 