LAMMPS (3 Mar 2020)
Reading data file ...
  orthogonal box = (0 0 0) to (11 11.002 11)
  2 by 2 by 2 MPI processor grid
  reading atoms ...
  50 atoms
  read_data CPU = 0.00310294 secs
WARNING: Changed valency_val to valency_boc for X (../reaxc_ffield.cpp:315)
WARNING: Using 'neigh_modify every 1 delay 0 check yes' setting during minimization (../min.cpp:190)
Neighbor list info ...
  update every 1 steps, delay 0 steps, check yes
  max neighbors/atom: 2000, page size: 100000
  master list distance cutoff = 12
  ghost atom cutoff = 12
  binsize = 6, bins = 2 2 2
  2 neighbor lists, perpetual/occasional/extra = 2 0 0
  (1) pair reax/c, perpetual
      attributes: half, newton off, ghost
      pair build: half/bin/newtoff/ghost
      stencil: half/ghost/bin/3d/newtoff
      bin: standard
  (2) fix qeq/reax, perpetual, copy from (1)
      attributes: half, newton off, ghost
      pair build: copy
      stencil: none
      bin: none
Setting up cg style minimization ...
  Unit style    : real
  Current step  : 0
Per MPI rank memory allocation (min/avg/max) = 25.13 | 25.28 | 25.44 Mbytes
Step Temp E_pair E_mol TotEng Press 
       0            0   -8594.6301            0   -8594.6301    114189.56 
     119            0   -8833.4254            0   -8833.4254     39358.95 
Loop time of 5.58358 on 8 procs for 119 steps with 50 atoms

99.0% CPU use with 8 MPI tasks x no OpenMP threads

Minimization stats:
  Stopping criterion = energy tolerance
  Energy initial, next-to-last, final = 
        -8594.63014344     -8833.42532974     -8833.42535475
  Force two-norm initial, final = 1158.37 56.1261
  Force max component initial, final = 280.955 12.5119
  Final line search alpha, max atom move = 5.39032e-08 6.7443e-07
  Iterations, force evaluations = 119 981

MPI task timing breakdown:
Section |  min time  |  avg time  |  max time  |%varavg| %total
---------------------------------------------------------------
Pair    | 4.2227     | 4.3658     | 4.8974     |   9.8 | 78.19
Neigh   | 0          | 0          | 0          |   0.0 |  0.00
Comm    | 0.047518   | 0.57981    | 0.72316    |  27.0 | 10.38
Output  | 0.0002967  | 0.00038409 | 0.00063959 |   0.0 |  0.01
Modify  | 0.62765    | 0.62816    | 0.62907    |   0.1 | 11.25
Other   |            | 0.00941    |            |       |  0.17

Nlocal:    6.25 ave 8 max 6 min
Histogram: 7 0 0 0 0 0 0 0 0 1
Nghost:    970.75 ave 980 max 962 min
Histogram: 4 0 0 0 0 0 0 0 1 3
Neighs:    1766.12 ave 2253 max 1687 min
Histogram: 7 0 0 0 0 0 0 0 0 1

Total # of neighbors = 14129
Ave neighs/atom = 282.58
Neighbor list builds = 0
Dangerous builds = 0
WARNING: Using 'neigh_modify every 1 delay 0 check yes' setting during minimization (../min.cpp:190)
Setting up cg style minimization ...
  Unit style    : real
  Current step  : 119
Per MPI rank memory allocation (min/avg/max) = 25.13 | 25.28 | 25.44 Mbytes
Step Temp E_pair E_mol TotEng Press 
     119            0   -8833.4254            0   -8833.4254    39358.964 
     120            0   -8833.4254            0   -8833.4254    39358.891 
Loop time of 0.107765 on 8 procs for 1 steps with 50 atoms

99.2% CPU use with 8 MPI tasks x no OpenMP threads

Minimization stats:
  Stopping criterion = energy tolerance
  Energy initial, next-to-last, final = 
        -8833.42535164     -8833.42535164     -8833.42539837
  Force two-norm initial, final = 56.1261 58.1678
  Force max component initial, final = 12.5119 13.9786
  Final line search alpha, max atom move = 1.21954e-07 1.70475e-06
  Iterations, force evaluations = 1 19

MPI task timing breakdown:
Section |  min time  |  avg time  |  max time  |%varavg| %total
---------------------------------------------------------------
Pair    | 0.085369   | 0.087852   | 0.097121   |   1.2 | 81.52
Neigh   | 0          | 0          | 0          |   0.0 |  0.00
Comm    | 0.00097129 | 0.010255   | 0.012758   |   3.6 |  9.52
Output  | 0          | 0          | 0          |   0.0 |  0.00
Modify  | 0.0094043  | 0.0094237  | 0.0094473  |   0.0 |  8.74
Other   |            | 0.0002342  |            |       |  0.22

Nlocal:    6.25 ave 8 max 6 min
Histogram: 7 0 0 0 0 0 0 0 0 1
Nghost:    970.75 ave 980 max 962 min
Histogram: 4 0 0 0 0 0 0 0 1 3
Neighs:    1764.62 ave 2244 max 1684 min
Histogram: 7 0 0 0 0 0 0 0 0 1

Total # of neighbors = 14117
Ave neighs/atom = 282.34
Neighbor list builds = 0
Dangerous builds = 0
WARNING: Using 'neigh_modify every 1 delay 0 check yes' setting during minimization (../min.cpp:190)
Setting up cg style minimization ...
  Unit style    : real
  Current step  : 120
WARNING: Energy due to 3 extra global DOFs will be included in minimizer energies
Per MPI rank memory allocation (min/avg/max) = 25.13 | 25.28 | 25.44 Mbytes
Step Temp E_pair E_mol TotEng Press Volume 
     120            0   -8833.4254            0   -8833.4254    39358.893     1331.242 
     221            0   -8838.0942            0   -8838.0942   -1706.6751    1347.1319 
Loop time of 1.0976 on 8 procs for 101 steps with 50 atoms

99.1% CPU use with 8 MPI tasks x no OpenMP threads

Minimization stats:
  Stopping criterion = energy tolerance
  Energy initial, next-to-last, final = 
        -8833.42539809      -8838.0941649     -8838.09419375
  Force two-norm initial, final = 1324.82 74.7616
  Force max component initial, final = 765.332 33.5009
  Final line search alpha, max atom move = 2.1941e-07 7.35042e-06
  Iterations, force evaluations = 101 204

MPI task timing breakdown:
Section |  min time  |  avg time  |  max time  |%varavg| %total
---------------------------------------------------------------
Pair    | 0.87735    | 0.90334    | 1.0035     |   4.1 | 82.30
Neigh   | 0          | 0          | 0          |   0.0 |  0.00
Comm    | 0.0093234  | 0.10963    | 0.13574    |  11.7 |  9.99
Output  | 0.00021544 | 0.00031424 | 0.00054071 |   0.0 |  0.03
Modify  | 0.07869    | 0.078826   | 0.079054   |   0.0 |  7.18
Other   |            | 0.005485   |            |       |  0.50

Nlocal:    6.25 ave 8 max 6 min
Histogram: 7 0 0 0 0 0 0 0 0 1
Nghost:    970.75 ave 980 max 962 min
Histogram: 4 0 0 0 0 0 0 0 1 3
Neighs:    1764.62 ave 2244 max 1684 min
Histogram: 7 0 0 0 0 0 0 0 0 1

Total # of neighbors = 14117
Ave neighs/atom = 282.34
Neighbor list builds = 0
Dangerous builds = 0
WARNING: Using 'neigh_modify every 1 delay 0 check yes' setting during minimization (../min.cpp:190)
Setting up cg style minimization ...
  Unit style    : real
  Current step  : 221
Per MPI rank memory allocation (min/avg/max) = 25.13 | 25.28 | 25.44 Mbytes
Step Temp E_pair E_mol TotEng Press 
     221            0   -8838.0942            0   -8838.0942   -1706.6938 
     254            0   -8838.2901            0   -8838.2901    993.39958 
Loop time of 2.3217 on 8 procs for 33 steps with 50 atoms

99.1% CPU use with 8 MPI tasks x no OpenMP threads

Minimization stats:
  Stopping criterion = energy tolerance
  Energy initial, next-to-last, final = 
        -8838.09419826     -8838.29010752     -8838.29012015
  Force two-norm initial, final = 47.3605 43.763
  Force max component initial, final = 10.9763 10.1491
  Final line search alpha, max atom move = 2.94889e-07 2.99285e-06
  Iterations, force evaluations = 33 465

MPI task timing breakdown:
Section |  min time  |  avg time  |  max time  |%varavg| %total
---------------------------------------------------------------
Pair    | 1.8196     | 1.8622     | 2.0513     |   5.3 | 80.21
Neigh   | 0          | 0          | 0          |   0.0 |  0.00
Comm    | 0.021536   | 0.21078    | 0.25288    |  15.7 |  9.08
Output  | 6.8688e-05 | 8.7935e-05 | 0.00014451 |   0.0 |  0.00
Modify  | 0.24462    | 0.24495    | 0.24532    |   0.0 | 10.55
Other   |            | 0.003645   |            |       |  0.16

Nlocal:    6.25 ave 8 max 6 min
Histogram: 7 0 0 0 0 0 0 0 0 1
Nghost:    925 ave 935 max 917 min
Histogram: 1 2 0 1 0 1 2 0 0 1
Neighs:    1755.12 ave 2223 max 1677 min
Histogram: 7 0 0 0 0 0 0 0 0 1

Total # of neighbors = 14041
Ave neighs/atom = 280.82
Neighbor list builds = 0
Dangerous builds = 0
WARNING: Using 'neigh_modify every 1 delay 0 check yes' setting during minimization (../min.cpp:190)
Setting up cg style minimization ...
  Unit style    : real
  Current step  : 254
WARNING: Energy due to 3 extra global DOFs will be included in minimizer energies
Per MPI rank memory allocation (min/avg/max) = 25.13 | 25.28 | 25.44 Mbytes
Step Temp E_pair E_mol TotEng Press Volume 
     254            0   -8838.2901            0   -8838.2901    993.39372    1347.1319 
     257            0   -8838.2906            0   -8838.2906    289.58209    1347.1711 
Loop time of 0.106647 on 8 procs for 3 steps with 50 atoms

99.1% CPU use with 8 MPI tasks x no OpenMP threads

Minimization stats:
  Stopping criterion = energy tolerance
  Energy initial, next-to-last, final = 
        -8838.29012189     -8838.29055911     -8838.29062927
  Force two-norm initial, final = 55.3279 46.9434
  Force max component initial, final = 20.9107 11.3084
  Final line search alpha, max atom move = 1.00007e-07 1.13092e-06
  Iterations, force evaluations = 3 21

MPI task timing breakdown:
Section |  min time  |  avg time  |  max time  |%varavg| %total
---------------------------------------------------------------
Pair    | 0.086341   | 0.088629   | 0.097316   |   1.1 | 83.11
Neigh   | 0          | 0          | 0          |   0.0 |  0.00
Comm    | 0.0010291  | 0.0097315  | 0.011999   |   3.4 |  9.12
Output  | 0          | 0          | 0          |   0.0 |  0.00
Modify  | 0.0077444  | 0.0077595  | 0.0077792  |   0.0 |  7.28
Other   |            | 0.0005264  |            |       |  0.49

Nlocal:    6.25 ave 8 max 6 min
Histogram: 7 0 0 0 0 0 0 0 0 1
Nghost:    925 ave 935 max 917 min
Histogram: 1 2 0 1 0 1 2 0 0 1
Neighs:    1755.62 ave 2225 max 1677 min
Histogram: 7 0 0 0 0 0 0 0 0 1

Total # of neighbors = 14045
Ave neighs/atom = 280.9
Neighbor list builds = 0
Dangerous builds = 0
WARNING: Using 'neigh_modify every 1 delay 0 check yes' setting during minimization (../min.cpp:190)
Setting up cg style minimization ...
  Unit style    : real
  Current step  : 257
Per MPI rank memory allocation (min/avg/max) = 25.13 | 25.28 | 25.44 Mbytes
Step Temp E_pair E_mol TotEng Press 
     257            0   -8838.2906            0   -8838.2906    289.57547 
     259            0   -8838.2908            0   -8838.2908    292.33449 
Loop time of 0.196893 on 8 procs for 2 steps with 50 atoms

99.1% CPU use with 8 MPI tasks x no OpenMP threads

Minimization stats:
  Stopping criterion = energy tolerance
  Energy initial, next-to-last, final = 
        -8838.29063101     -8838.29079068     -8838.29080883
  Force two-norm initial, final = 45.8642 42.942
  Force max component initial, final = 11.3084 10.1144
  Final line search alpha, max atom move = 3.70167e-08 3.74402e-07
  Iterations, force evaluations = 2 39

MPI task timing breakdown:
Section |  min time  |  avg time  |  max time  |%varavg| %total
---------------------------------------------------------------
Pair    | 0.15553    | 0.15968    | 0.17583    |   1.5 | 81.10
Neigh   | 0          | 0          | 0          |   0.0 |  0.00
Comm    | 0.0018454  | 0.018017   | 0.02211    |   4.6 |  9.15
Output  | 0          | 0          | 0          |   0.0 |  0.00
Modify  | 0.018801   | 0.018822   | 0.018857   |   0.0 |  9.56
Other   |            | 0.0003773  |            |       |  0.19

Nlocal:    6.25 ave 8 max 6 min
Histogram: 7 0 0 0 0 0 0 0 0 1
Nghost:    925 ave 935 max 917 min
Histogram: 1 2 0 1 0 1 2 0 0 1
Neighs:    1755.62 ave 2225 max 1677 min
Histogram: 7 0 0 0 0 0 0 0 0 1

Total # of neighbors = 14045
Ave neighs/atom = 280.9
Neighbor list builds = 0
Dangerous builds = 0
Setting up Verlet run ...
  Unit style    : real
  Current step  : 0
  Time step     : 0.25
Per MPI rank memory allocation (min/avg/max) = 24 | 24.16 | 24.31 Mbytes
Step Temp TotEng KinEng PotEng Press 
       0          300   -8794.4729    43.817908   -8838.2908    1779.1655 
     200    203.22757   -8776.6427    29.683356    -8806.326    5195.3336 
     400    358.60663   -8747.1365    52.377974   -8799.5145   -20109.511 
     600    341.79002   -8758.9334    49.921746   -8808.8551    10850.978 
     800    292.12377   -8766.3611    42.667508   -8809.0286   -21778.645 
    1000    330.60542   -8750.6609    48.288126   -8798.9491   -31500.316 
    1200    327.81898   -8761.7863    47.881139   -8809.6674    34325.344 
    1400    236.15333   -8769.0694    34.492482   -8803.5618   -35654.367 
    1600    299.80778   -8758.5982    43.789832    -8802.388   -12750.232 
    1800    273.91563   -8756.7526    40.008032   -8796.7606    33529.875 
    2000    338.41524   -8753.5876    49.428826   -8803.0164   -21141.649 
    2200    245.64054   -8767.2675    35.878182   -8803.1457   -15493.379 
    2400    323.38659   -8751.9392    47.233747   -8799.1729   -36243.709 
    2600    282.46934   -8760.6139    41.257385   -8801.8713    9319.1486 
    2800    266.93432   -8763.6666    38.988345   -8802.6549    16995.948 
    3000    316.20458   -8746.6083    46.184744   -8792.7931   -13996.978 
    3200    311.50717    -8760.508    45.498642   -8806.0066    15483.534 
    3400    297.10699   -8763.8271    43.395356   -8807.2225    17218.827 
    3600    306.07688   -8747.7348    44.705494   -8792.4403    22939.766 
    3800    321.25452   -8752.0382    46.922336   -8798.9606   -20828.659 
    4000    300.78598   -8757.2426    43.932708   -8801.1753    -35130.07 
    4200    228.51127   -8774.1177    33.376287    -8807.494    53801.496 
    4400     281.6346     -8758.46    41.135463   -8799.5954    18262.104 
    4600    302.26951   -8754.0227    44.149392   -8798.1721   -5772.7074 
    4800    276.27987   -8761.0591    40.353353   -8801.4125   -69156.749 
    5000    247.74132   -8763.0856     36.18502   -8799.2706    20622.879 
    5200    362.76175   -8747.5661     52.98487    -8800.551    49937.794 
    5400    278.19693   -8758.4405    40.633358   -8799.0739   -17525.739 
    5600    310.69746   -8754.9717    45.380376   -8800.3521    53027.462 
    5800    274.47402   -8749.6235    40.089591   -8789.7131   -9137.3434 
    6000     280.1371   -8764.2754    40.916739   -8805.1922   -30390.518 
    6200    261.98393   -8759.1585    38.265292   -8797.4238    2987.1211 
    6400    356.38015   -8746.5592    52.052775    -8798.612    38615.797 
    6600    259.43015   -8762.9311    37.892288   -8800.8234   -35297.895 
    6800    322.99797   -8758.9567    47.176984   -8806.1337   -10784.156 
    7000    325.22987   -8753.7958    47.502975   -8801.2987    36629.182 
    7200    293.78827   -8762.8648    42.910624   -8805.7755    17803.116 
    7400    260.13126   -8753.9226    37.994691   -8791.9173   -15679.274 
    7600    361.22049   -8749.4089    52.759754   -8802.1686    33156.562 
    7800    283.71514   -8766.5193    41.439345   -8807.9587    12840.984 
    8000    299.63223    -8754.299    43.764192   -8798.0632   -29118.875 
    8200    359.81041   -8749.9662    52.553797     -8802.52    13606.323 
    8400    248.78246   -8767.3789     36.33709    -8803.716   -9172.8698 
    8600     293.5141   -8752.8298    42.870579   -8795.7004   -1661.9836 
    8800    279.40749   -8754.6189    40.810172   -8795.4291    6666.4461 
    9000    264.52798   -8769.6665    38.636875   -8808.3033   -13165.631 
    9200    290.33762   -8762.0036    42.406623   -8804.4103   -19650.259 
    9400     290.0245   -8753.5536     42.36089   -8795.9145    84282.115 
    9600    278.55295   -8756.3296    40.685359    -8797.015   -12826.754 
    9800    243.01405   -8769.1649    35.494557   -8804.6594    52092.271 
   10000    316.25811   -8749.9716    46.192562   -8796.1642    -38918.69 
   10200    227.81343   -8756.2418     33.27436   -8789.5161   -15484.687 
   10400    297.56548   -8751.0527    43.462322    -8794.515   -52067.538 
   10600    311.84278   -8742.6898     45.54766   -8788.2374    35872.291 
   10800    273.55461   -8757.2966    39.955302   -8797.2519    24054.013 
   11000    329.19096   -8748.1974    48.081531    -8796.279    32623.851 
   11200    283.39254   -8764.1326    41.392227   -8805.5249   -3232.8545 
   11400    347.54239   -8754.2054    50.761935   -8804.9674    30564.737 
   11600    278.60944   -8749.5014     40.69361    -8790.195   -5537.7352 
   11800    249.20897   -8764.7477    36.399385    -8801.147   -17954.692 
   12000    250.91926   -8757.7132    36.649189   -8794.3624    2392.4414 
   12200    272.14174   -8743.8814    39.748939   -8783.6303   -16067.601 
   12400    330.20606   -8745.1596    48.229795   -8793.3894   -12130.922 
   12600    308.23259   -8762.6735    45.020357   -8807.6938    -28195.39 
   12800    291.65343    -8753.806     42.59881   -8796.4048    58822.438 
   13000    334.35361   -8751.1469    48.835586   -8799.9824    11860.674 
   13200     268.2538   -8760.6334    39.181068   -8799.8145    28441.617 
   13400    367.62567   -8742.1798    53.695292   -8795.8751    19408.295 
   13600    291.07074   -8750.0263    42.513703     -8792.54     21816.52 
   13800    333.47263    -8756.431     48.70691   -8805.1379   -25560.803 
   14000    228.21447   -8769.1755    33.332936   -8802.5084    42095.545 
   14200    294.28384   -8748.2678    42.983007   -8791.2508   -445.47275 
   14400    303.36637   -8751.7848    44.309598   -8796.0944    29755.704 
   14600    238.52173    -8767.855    34.838411   -8802.6934   -4037.4585 
   14800    263.15568   -8758.8788    38.436438   -8797.3153    8098.9181 
   15000     291.9073   -8756.9864     42.63589   -8799.6223    22841.711 
   15200    243.01601   -8761.7965    35.494844   -8797.2913   -33251.991 
   15400    331.01867   -8759.1887    48.348486   -8807.5372    39658.002 
   15600    305.25513   -8746.9163     44.58547   -8791.5017   -31363.539 
   15800    319.35693   -8759.4494    46.645175   -8806.0946    1683.1727 
   16000    280.72964   -8757.1672    41.003286   -8798.1705    20395.972 
   16200    326.42306   -8750.3643    47.677252   -8798.0416    294.70291 
   16400     296.6914   -8754.7136    43.334655   -8798.0482    19074.909 
   16600    261.73761   -8765.4297    38.229314    -8803.659   -22402.829 
   16800    343.70895    -8745.287    50.202024    -8795.489    1087.9713 
   17000    333.57358   -8750.8258    48.721654   -8799.5474    24706.215 
   17200    277.50726   -8761.1894    40.532625    -8801.722    26054.735 
   17400    259.24957   -8766.6983    37.865913   -8804.5642    5188.3019 
   17600    341.33987    -8749.591    49.855996    -8799.447    9117.6277 
   17800    269.58814   -8754.9184    39.375961   -8794.2944   -11979.666 
   18000    302.33075   -8763.9763    44.158336   -8808.1347    2181.2321 
   18200    298.90761   -8759.6853    43.658354   -8803.3437   -25840.928 
   18400    342.71972   -8746.5639    50.057537   -8796.6214    9505.1804 
   18600     287.3579   -8747.9918    41.971407   -8789.9632   -27176.399 
   18800    276.72886   -8758.3078    40.418932   -8798.7267    28308.795 
   19000     342.2773   -8750.2824    49.992917   -8800.2754    12307.303 
   19200    336.26541   -8748.5162    49.114822   -8797.6311    5793.8298 
   19400    266.54135   -8758.3847    38.930947   -8797.3157   -23570.905 
   19600    310.19197    -8757.913    45.306544   -8803.2195   -10808.859 
   19800    273.72358   -8768.2447    39.979983   -8808.2247    15373.863 
   20000    350.07844   -8751.2121    51.132349   -8802.3445    23284.305 
   20200    328.74713   -8756.9835    48.016705   -8805.0002   -20698.979 
   20400     308.3522   -8766.8007    45.037828   -8811.8385    18139.106 
   20600    333.38527   -8753.9471     48.69415   -8802.6412    12696.401 
   20800    299.15721   -8749.9014    43.694811   -8793.5962   -25652.499 
   21000    347.84108   -8751.5481    50.805562   -8802.3536   -20283.406 
   21200    272.19204   -8767.7896    39.756286   -8807.5458   -19783.187 
   21400    300.24495   -8753.1524    43.853686   -8797.0061    5274.7472 
   21600    278.62372   -8758.2008    40.695695   -8798.8965    18037.224 
   21800    266.87265   -8764.4465    38.979337   -8803.4258    51243.781 
   22000    322.99011   -8749.2676    47.175836   -8796.4434    37079.587 
   22200    298.79299   -8757.3157    43.641612   -8800.9573   -9294.8398 
   22400    279.84477   -8763.9242     40.87404   -8804.7982    24024.109 
   22600    365.61983   -8748.4511    53.402321   -8801.8534    85701.927 
   22800    255.49772   -8759.1974    37.317919   -8796.5154   -14873.906 
   23000    389.62692   -8740.7602    56.908789    -8797.669    2569.0516 
   23200    255.80553   -8762.1359    37.362877   -8799.4988   -16435.075 
   23400    347.23507    -8752.332    50.717047   -8803.0491    62875.631 
   23600    255.99292   -8758.3951    37.390247   -8795.7854   -20933.686 
   23800    261.66489    -8761.306    38.218693   -8799.5247   -44819.992 
   24000    309.20603    -8752.088    45.162538   -8797.2505   -12086.123 
   24200    211.14023    -8765.773    30.839078   -8796.6121   -16345.349 
   24400    371.47995   -8747.4902    54.258248   -8801.7484    36748.946 
   24600    282.73298   -8763.5567    41.295892   -8804.8526   -6009.4163 
   24800    317.28994   -8755.8584    46.343272   -8802.2017   -49501.479 
   25000    295.76643   -8758.1873    43.199554   -8801.3868   -29345.671 
   25200    240.31527    -8761.379    35.100374   -8796.4794   -53778.515 
   25400    302.70286   -8743.6006    44.212687   -8787.8132   -17306.879 
   25600    294.06902   -8760.1362    42.951631   -8803.0879    26021.756 
   25800    304.69416   -8749.5946    44.503535   -8794.0982    23114.881 
   26000     354.0612   -8736.0921     51.71407   -8787.8061    43576.795 
   26200    281.73766   -8761.1701    41.150516   -8802.3206   -28656.799 
   26400    292.22047   -8763.0915    42.681632   -8805.7732    38830.839 
   26600     357.7901   -8749.4056    52.258712   -8801.6643   -27413.721 
   26800    316.00425    -8748.684    46.155483   -8794.8395     2510.365 
   27000     283.6466   -8764.7189    41.429335   -8806.1483   -5499.4825 
   27200    309.77439   -8751.3492    45.245553   -8796.5948    -13014.16 
   27400      321.234   -8748.8263    46.919339   -8795.7456    -24045.18 
   27600    284.29695   -8758.1596    41.524325   -8799.6839    -2855.738 
   27800    264.74503   -8757.1197    38.668577   -8795.7882    27334.369 
   28000    277.97597   -8757.5927    40.601085   -8798.1938   -54908.668 
   28200    245.56808   -8771.1133    35.867598   -8806.9809    18772.859 
   28400    288.46628   -8755.3158    42.133297   -8797.4491    39243.301 
   28600    244.66118   -8754.4645    35.735137   -8790.1996   -30498.376 
   28800    275.97185   -8765.0568    40.308364   -8805.3651   -8969.6843 
   29000    361.95297   -8749.9727    52.866739   -8802.8395   -8555.5164 
   29200    274.48473   -8756.3911    40.091155   -8796.4822   -38376.895 
   29400    389.28487   -8739.4594    56.858828   -8796.3183   -14849.812 
   29600    261.41345   -8761.0651    38.181969   -8799.2471    49058.367 
   29800    233.53469    -8758.084    34.110005    -8792.194    10793.332 
   30000    400.67615   -8744.4753    58.522635   -8802.9979    9965.2609 
   30200    281.06358   -8762.7036     41.05206   -8803.7557    19978.482 
   30400    301.35225   -8753.3641    44.015417   -8797.3795    -5418.268 
   30600    315.88507   -8745.8318    46.138076   -8791.9699    73327.987 
   30800     277.1373   -8763.6268    40.478589   -8804.1054    -49.16077 
   31000    344.72884   -8757.0084    50.350988   -8807.3594   -17538.257 
   31200    337.02229    -8741.003    49.225372   -8790.2284   -36640.277 
   31400    325.05583   -8754.2101    47.477554   -8801.6876    3349.5775 
   31600    253.57653   -8763.7057     37.03731    -8800.743    8631.4243 
   31800    340.91937   -8747.7987    49.794578   -8797.5933   -19568.346 
   32000    268.05829   -8753.3604    39.152512   -8792.5129    -16517.03 
   32200    310.83703   -8759.2939    45.400761   -8804.6947    -34945.16 
   32400    305.35053   -8754.1664    44.599405   -8798.7658    16539.973 
   32600    305.12722   -8756.6995    44.566788   -8801.2663    37115.823 
   32800    322.13059    -8760.359    47.050295   -8807.4093   -8915.3108 
   33000    318.78339   -8750.3064    46.561404   -8796.8678   -15221.917 
   33200    256.90254   -8762.3561    37.523105   -8799.8792   -28827.152 
   33400    312.13456   -8750.4078    45.590278   -8795.9981    28696.647 
   33600    255.46281   -8751.6667    37.312819   -8788.9795    11794.433 
   33800     311.9052   -8752.9318    45.556778   -8798.4886    31883.655 
   34000    312.47536    -8755.772    45.640056    -8801.412    16959.433 
   34200    216.82377   -8773.5636    31.669213   -8805.2329   -38224.901 
   34400    279.48741   -8761.8516    40.821845   -8802.6734   -16155.502 
   34600    292.16851   -8756.2179    42.674042   -8798.8919   -5941.3214 
   34800    290.30799   -8752.2865    42.402296   -8794.6887    41920.079 
   35000    269.55464   -8754.7401    39.371068   -8794.1111   -32173.735 
   35200    277.24553   -8760.6398    40.494397   -8801.1342   -22013.867 
   35400    313.74226   -8747.8163    45.825097   -8793.6414    12314.126 
   35600    242.78101   -8755.5383    35.460519   -8790.9988    9601.4411 
   35800     301.8253    -8751.311    44.084511   -8795.3955   -330.52249 
   36000    312.88771   -8758.1193    45.700283   -8803.8196    15571.008 
   36200    286.69222   -8761.2534    41.874178   -8803.1276   -37765.181 
   36400    358.29471   -8747.4563    52.332415   -8799.7887   -14602.218 
   36600    279.49884   -8755.0685    40.823514    -8795.892   -8687.1615 
   36800    395.79105   -8748.3479    57.809119   -8806.1571    10405.697 
   37000    344.79432   -8742.5291    50.360552   -8792.8897    23036.272 
   37200    269.00863   -8757.4189    39.291317   -8796.7102     3290.601 
   37400    279.27952   -8755.8643    40.791481   -8796.6558    -52742.69 
   37600    244.86381   -8767.6901    35.764733   -8803.4549    26702.347 
   37800    365.47236   -8751.8495    53.380781   -8805.2303    16571.266 
   38000    301.16033     -8758.42    43.987385   -8802.4074   -37788.678 
   38200    369.67353   -8739.1646    53.994402    -8793.159    9816.0942 
   38400    306.48232   -8749.5893    44.764714    -8794.354    30488.224 
   38600    288.39217     -8755.06    42.122471   -8797.1825    21066.366 
   38800     349.1672   -8736.7784    50.999254   -8787.7776    19509.284 
   39000    358.79748   -8754.1151    52.405849   -8806.5209   -26286.457 
   39200    291.41353   -8760.1962    42.563771     -8802.76    18408.503 
   39400    250.60733   -8773.0982    36.603629   -8809.7018    12272.687 
   39600    323.53124   -8752.9528    47.254873   -8800.2077    15916.296 
   39800    308.59037   -8757.3443    45.072615   -8802.4169    26196.048 
   40000    277.30358   -8761.5377    40.502875   -8802.0405    16038.458 
   40200    359.99363    -8743.154    52.580559   -8795.7345    4192.4168 
   40400    338.06274   -8755.8099     49.37734   -8805.1872    27159.581 
   40600    314.81703   -8761.4495    45.982079   -8807.4315   -5361.2582 
   40800    325.29833   -8750.0178    47.512974   -8797.5307     15993.06 
   41000    350.43604   -8751.6326    51.184581   -8802.8171   -37458.302 
   41200    287.42534   -8762.0638    41.981257    -8804.045    10572.454 
   41400    345.07453   -8746.3461     50.40148   -8796.7476    43571.926 
   41600    313.62182   -8747.1193    45.807506   -8792.9268    26405.154 
   41800    302.47309   -8754.4151    44.179127   -8798.5942   -9125.2975 
   42000    288.40651   -8758.0602    42.124566   -8800.1848   -10705.613 
   42200     351.8668   -8750.9804    51.393556    -8802.374   -11255.524 
   42400    313.43181   -8761.4704    45.779754   -8807.2502    4504.9925 
   42600    288.81124   -8764.6923    42.183681   -8806.8759    19571.996 
   42800    337.64744   -8747.2594    49.316681   -8796.5761   -5906.3114 
   43000     309.2569   -8760.3749    45.169967   -8805.5449    -11994.19 
   43200    323.06393   -8752.1167    47.186618   -8799.3033   -31967.116 
   43400    336.87036   -8750.1343    49.203181   -8799.3375   -35313.571 
   43600    336.76503   -8756.8046    49.187797   -8805.9924    32005.431 
   43800    359.92951   -8755.1896    52.571194   -8807.7608   -11688.957 
   44000    297.40211   -8765.6413    43.438461   -8809.0798   -12808.506 
   44200    321.46975   -8750.0877    46.953773   -8797.0415   -20926.634 
   44400    322.91305   -8756.5434    47.164581    -8803.708    3834.6888 
   44600    314.27904   -8748.1322      45.9035   -8794.0357   -2175.5227 
   44800    301.33168   -8743.2417    44.012412   -8787.2542     40930.34 
   45000    291.63363   -8758.8067    42.595918   -8801.4026   -54409.831 
   45200     292.2566   -8758.9934     42.68691   -8801.6804   -31396.348 
   45400    372.81698   -8746.6778    54.453533   -8801.1313     51747.93 
   45600    279.48056   -8762.6173    40.820845   -8803.4382    16889.589 
   45800     320.8944   -8758.4014    46.869738   -8805.2712    30297.352 
   46000    331.09819   -8741.6093    48.360099   -8789.9694    21427.729 
   46200    348.26659    -8745.814    50.867711   -8796.6817    -219.8948 
   46400    300.82326   -8758.8389    43.938153   -8802.7771    2542.1198 
   46600    311.14816    -8755.179    45.446204   -8800.6252    -2103.057 
   46800    302.42064   -8749.2067    44.171466   -8793.3782   -30202.195 
   47000    286.55445   -8764.1227    41.854055   -8805.9768   -39255.604 
   47200    339.87166   -8754.4926    49.641551   -8804.1341    -23664.17 
   47400    319.87608   -8748.2233    46.721001   -8794.9443    1077.0583 
   47600    248.38195   -8761.6457    36.278592   -8797.9243   -27082.579 
   47800    299.88851   -8754.9656    43.801623   -8798.7672    20691.896 
   48000    337.07568   -8743.8789    49.233171   -8793.1121    39121.535 
   48200    321.11992   -8758.9674    46.902676   -8805.8701    -9208.462 
   48400     325.6332   -8759.7585    47.561885   -8807.3204   -594.96881 
   48600    340.31098   -8752.1885    49.705717   -8801.8942   -21856.623 
   48800    353.70641   -8748.4802     51.66225   -8800.1425    -53740.23 
   49000    330.63861   -8762.0371    48.292974     -8810.33    32875.771 
   49200    377.10984   -8748.8522    55.080548   -8803.9327   -20876.524 
   49400    306.03932   -8751.1372     44.70001   -8795.8373    1813.6255 
   49600    321.25266    -8751.222    46.922064   -8798.1441    36459.379 
   49800    281.18065   -8759.9711     41.06916   -8801.0402   -2109.8225 
   50000    322.23744   -8749.0521    47.065902    -8796.118   -18606.547 
   50200    317.97223   -8755.9349    46.442926   -8802.3779   -38703.674 
   50400    264.31977    -8764.466    38.606464   -8803.0725   -3978.1235 
   50600    309.43423     -8750.67    45.195868   -8795.8658    13786.668 
   50800    297.70368   -8753.4911    43.482509   -8796.9736    17256.539 
   51000    341.17626   -8753.4568    49.832099   -8803.2889   -9290.9862 
   51200     312.3273   -8762.6246    45.618429    -8808.243   -6940.6583 
   51400    321.32047   -8750.0192    46.931969   -8796.9512   -30293.082 
   51600    302.85347   -8755.2317    44.234685   -8799.4664   -9622.5159 
   51800    282.39442   -8762.7318    41.246442   -8803.9782   -5085.5648 
   52000    339.38407   -8751.9189    49.570333   -8801.4892    19853.492 
   52200    276.82922   -8758.2705    40.433591   -8798.7041   -17622.439 
   52400    294.38349   -8760.1683    42.997563   -8803.1659   -13046.397 
   52600    316.94488   -8749.1043    46.292872   -8795.3971    32726.791 
   52800    352.57492   -8744.4885    51.496985   -8795.9855    -54561.26 
   53000    299.96234   -8749.6482    43.812407   -8793.4606    9810.3685 
   53200    295.70906   -8761.9819    43.191175   -8805.1731    -25170.48 
   53400    315.19639   -8756.9797    46.037488   -8803.0172    21290.954 
   53600    366.62798   -8752.1604    53.549571     -8805.71   -27087.054 
   53800    276.13173    -8760.432    40.331716   -8800.7638   -3700.0169 
   54000    329.64956    -8751.414    48.148514   -8799.5625    4320.7656 
   54200    275.52863   -8754.8424    40.243627   -8795.0861    27876.721 
   54400    283.95546   -8750.0575    41.474448    -8791.532   -24966.499 
   54600    252.93737   -8764.3994    36.943955   -8801.3434   -20571.077 
   54800    351.66384   -8754.4081    51.363912    -8805.772    -9348.093 
   55000    280.01643   -8759.1367    40.899114   -8800.0358    1803.3961 
   55200    288.51039    -8765.069    42.139738   -8807.2088   -20534.748 
   55400    298.67988    -8751.569    43.625092   -8795.1941    29581.967 
   55600    344.32863   -8747.6483    50.292534   -8797.9409    -15116.49 
   55800    252.12812   -8760.0615    36.825755   -8796.8873   -8247.3291 
   56000    322.79525   -8750.9274    47.147375   -8798.0748   -10728.679 
   56200    340.00922   -8740.2682    49.661642   -8789.9298   -39006.016 
   56400    300.98849    -8761.549    43.962286   -8805.5113   -12931.075 
   56600    327.01437   -8760.5008    47.763619   -8808.2644    1901.1432 
   56800      368.722   -8746.7163    53.855422   -8800.5717    30351.392 
   57000    269.59399   -8756.4183    39.376815   -8795.7951   -22705.906 
   57200    306.69369   -8756.3123    44.795587   -8801.1079    6274.2021 
   57400    204.32701   -8765.6366     29.84394   -8795.4805   -10546.096 
   57600    274.36381   -8750.5842    40.073493   -8790.6577   -17477.938 
   57800    301.70187   -8748.2378    44.066483   -8792.3042    42871.729 
   58000    260.07993   -8768.7352    37.987194   -8806.7224    112.14739 
   58200    274.67233   -8760.7757    40.118555   -8800.8942   -4693.5486 
   58400    302.66686   -8754.2321    44.207429   -8798.4395   -46745.542 
   58600    240.78318   -8768.9256    35.168718   -8804.0944   -7307.6654 
   58800    271.08926   -8773.3604    39.595214   -8812.9556     435.7356 
   59000    293.99448   -8752.3924    42.940743   -8795.3331    27406.483 
   59200    328.30395   -8747.3239    47.951974   -8795.2759    37277.623 
   59400     309.6374   -8761.9391    45.225543   -8807.1647    2902.8259 
   59600    351.37226   -8750.6413    51.321324   -8801.9627   -17852.476 
   59800    334.18618   -8750.6285    48.811131   -8799.4396   -19256.115 
   60000     286.8679   -8761.4869    41.899837   -8803.3867   -10746.185 
   60200    273.76292   -8761.7588    39.985728   -8801.7445   -5316.3091 
   60400    325.41763    -8755.143    47.530399   -8802.6734    18194.628 
   60600    257.61112   -8763.2919    37.626601   -8800.9185    5082.1821 
   60800    351.69035   -8744.4225    51.367784   -8795.7903    21630.003 
   61000    331.68976   -8749.5415    48.446505    -8797.988   -6604.7987 
   61200     282.8041   -8759.8492     41.30628   -8801.1554   -12447.811 
   61400    311.85538   -8756.4424      45.5495   -8801.9919    28725.844 
   61600    299.23016   -8758.0044    43.705465   -8801.7098    4192.1283 
   61800    289.04828   -8763.4022    42.218302   -8805.6205    16238.277 
   62000    346.29281   -8752.5371    50.579421   -8803.1165   -6319.6588 
   62200    335.27791   -8750.9708    48.970588   -8799.9414   -8510.2693 
   62400     282.7318   -8764.8271    41.295719   -8806.1228    234.18027 
   62600    301.33426   -8750.2921     44.01279   -8794.3049   -26813.407 
   62800    308.51904   -8754.1371    45.062197   -8799.1993    21316.379 
   63000    321.40326   -8758.2282    46.944062   -8805.1722    19069.091 
   63200    258.92814   -8763.9529    37.818965   -8801.7718    21832.229 
   63400    316.85055   -8749.1479    46.279094    -8795.427     4327.668 
   63600    277.92785   -8764.4886    40.594056   -8805.0827   -27021.195 
   63800    294.94727   -8760.2223    43.079907   -8803.3022   -37109.907 
   64000    297.77203   -8748.7058    43.492492   -8792.1983   -34732.604 
   64200    354.36271   -8735.2692    51.758109   -8787.0274   -3885.1558 
   64400    306.81036   -8752.9963    44.812627   -8797.8089   -18816.293 
   64600    289.40451   -8758.6627    42.270333   -8800.9331    8524.2748 
   64800    269.71979   -8761.9306     39.39519   -8801.3257   -10703.681 
   65000    329.25128   -8748.1857     48.09034   -8796.2761    6374.2519 
   65200    274.52392   -8765.0997     40.09688   -8805.1966   -16601.808 
   65400    313.12807   -8763.8607    45.735389   -8809.5961    -36382.69 
   65600    301.11099   -8757.8007    43.980178   -8801.7809   -9494.4431 
   65800    333.13477   -8742.8398    48.657561   -8791.4974    29132.972 
   66000     399.6903    -8745.825    58.378643   -8804.2036   -10117.539 
   66200     294.1566   -8758.3976    42.964422   -8801.3621    16125.545 
   66400    349.05016   -8745.5911    50.982159   -8796.5733   -2138.8135 
   66600    233.26086   -8763.0474    34.070009   -8797.1174    26420.697 
   66800    299.28319   -8755.9317     43.71321   -8799.6449   -39802.879 
   67000    227.65771   -8768.6839    33.251615   -8801.9355    10239.335 
   67200    363.08405   -8753.8876    53.031945   -8806.9196   -9500.4488 
   67400    290.54068   -8761.3645    42.436282   -8803.8008   -21931.114 
   67600    345.49628   -8746.3103    50.463081   -8796.7734    80668.359 
   67800    267.49731   -8754.2519    39.070575   -8793.3225    19313.251 
   68000    283.32267   -8755.9608    41.382022   -8797.3428    4743.2363 
   68200    331.74719   -8740.1386    48.454893   -8788.5935   -7781.9238 
   68400     365.6059   -8758.3662    53.400285   -8811.7665   -16370.041 
   68600    290.46627   -8762.9484    42.425413   -8805.3738    44180.286 
   68800    363.19614   -8747.5871    53.048316   -8800.6354    30522.377 
   69000     330.3032   -8753.7486    48.243984   -8801.9926   -22372.787 
   69200    288.31635   -8756.1559    42.111398   -8798.2673   -27670.914 
   69400    281.40346   -8757.1174    41.101703   -8798.2191    4742.5745 
   69600    357.35735   -8739.3927    52.195504   -8791.5882    27092.194 
   69800    253.70495   -8756.8892    37.056067   -8793.9453   -18839.932 
   70000    313.03388   -8760.2593    45.721633    -8805.981   -6294.5171 
   70200    311.16578   -8755.7459    45.448778   -8801.1947    5037.1205 
   70400    317.81964   -8764.3645    46.420638   -8810.7851   -1937.8947 
   70600    304.66942    -8762.186    44.499922   -8806.6859    22716.194 
   70800    303.52705   -8751.7043    44.333068   -8796.0374   -7891.7207 
   71000    281.09765   -8756.6975    41.057037   -8797.7545    1848.6153 
   71200    251.54687   -8760.7193    36.740858   -8797.4601   -28065.417 
   71400    290.82229   -8746.1187    42.477414   -8788.5962    36846.716 
   71600    283.44418   -8755.9366     41.39977   -8797.3363   -23539.794 
   71800    303.11921   -8761.7712    44.273498   -8806.0447   -12255.473 
   72000    298.49239   -8759.1093    43.597706    -8802.707    64510.055 
   72200    391.08929   -8751.2122    57.122382   -8808.3346    44983.133 
   72400     260.2502   -8767.1541    38.012064   -8805.1661   -3305.1035 
   72600    305.56768   -8755.6696    44.631121   -8800.3007    4757.3207 
   72800    249.66883   -8755.9979    36.466553   -8792.4644    15110.678 
   73000    367.29803   -8738.2417    53.647438   -8791.8891   -19550.784 
   73200    284.47887   -8756.4572    41.550896   -8798.0081    26736.469 
   73400    289.68578   -8761.8515    42.311416   -8804.1629   -26946.314 
   73600    256.91564   -8763.6875    37.525019   -8801.2125     44614.57 
   73800     318.1811   -8752.6645    46.473434   -8799.1379   -6024.7467 
   74000    262.39938   -8762.9755    38.325973   -8801.3015    31475.469 
   74200    284.05722   -8756.1081     41.48931   -8797.5974   -41249.624 
   74400    265.36284   -8743.0698    38.758814   -8781.8286    192.74838 
   74600    347.98476   -8743.0937    50.826547   -8793.9202    33203.582 
   74800    284.78164   -8757.7241    41.595119   -8799.3192    19272.314 
   75000    338.85237   -8751.0121    49.492672   -8800.5047   -18537.352 
   75200     287.3581   -8768.4317    41.971435   -8810.4031    18848.596 
   75400    325.07927   -8757.3059    47.480978   -8804.7868    17402.613 
   75600    340.51042   -8753.9866    49.734848   -8803.7215   -741.54192 
   75800    259.31636   -8759.0282    37.875668   -8796.9038   -30932.553 
   76000    285.78376   -8764.7037    41.741488   -8806.4452   -18045.659 
   76200    329.91219   -8746.6066    48.186872   -8794.7935    29080.889 
   76400    305.71321   -8756.0037    44.652377   -8800.6561    23405.104 
   76600    229.83822   -8773.5814      33.5701   -8807.1515   -3501.2521 
   76800    264.99321   -8761.5328    38.704827   -8800.2376    40697.335 
   77000     292.9024    -8759.922    42.781234   -8802.7033   -17432.522 
   77200    233.04113   -8771.4808    34.037916   -8805.5187    -984.5908 
   77400    294.89522   -8751.1696    43.072305   -8794.2419   -17221.068 
   77600    287.79314   -8753.3856    42.034978   -8795.4206   -15555.749 
   77800     249.4671   -8764.5629    36.437088        -8801    42782.242 
   78000    323.30905   -8750.1491     47.22242   -8797.3715   -32096.507 
   78200    310.05532   -8750.2539    45.286584   -8795.5405    13213.529 
   78400    288.32595   -8760.1759    42.112799   -8802.2887    10158.132 
   78600    232.84093   -8772.5404    34.008674    -8806.549   -8656.8483 
   78800    300.90283   -8762.4412    43.949774    -8806.391    16618.188 
   79000    285.41175   -8753.9412    41.687153   -8795.6284   -46332.779 
   79200    278.18014   -8755.6702    40.630906   -8796.3011   -17839.467 
   79400    292.34835   -8762.2054     42.70031   -8804.9057    30251.915 
   79600    335.33568   -8749.2358    48.979026   -8798.2148    -3980.348 
   79800    319.63264    -8748.092    46.685444   -8794.7774   -20614.075 
   80000    276.75974   -8766.0596    40.423443    -8806.483   -865.89962 
   80200    298.52422    -8752.399    43.602355   -8796.0014   -23436.894 
   80400     330.5639   -8749.7778    48.282062   -8798.0599    13170.839 
   80600    343.08583   -8757.1515    50.111011   -8807.2625    2556.8044 
   80800    320.87452   -8759.7239    46.866834   -8806.5907   -13414.179 
   81000    362.31432   -8741.4342    52.919518   -8794.3538   -54367.808 
   81200    289.04537   -8756.7435    42.217877   -8798.9614   -19572.942 
   81400    303.16315    -8755.107    44.279916   -8799.3869    12784.066 
   81600    348.03297   -8743.1754    50.833588    -8794.009   -9924.0117 
   81800    303.65322   -8758.6221    44.351497   -8802.9736   -4536.6391 
   82000    302.95994    -8760.916    44.250236   -8805.1663    2778.6763 
   82200    217.73163    -8773.757    31.801814   -8805.5589   -12017.446 
   82400    250.89803   -8757.4186    36.646089   -8794.0646   -19930.455 
   82600    272.57495   -8754.9139    39.812213   -8794.7261    15313.086 
   82800     346.7147   -8748.5676    50.641043   -8799.2086    2847.2236 
   83000    256.19959   -8754.7833    37.420433   -8792.2037   -13559.666 
   83200    291.26677    -8760.999    42.542335   -8803.5413    7545.4133 
   83400    389.61387   -8737.9912    56.906882    -8794.898    -24643.27 
   83600    300.53667   -8753.9673    43.896294   -8797.8636   -27413.253 
   83800    275.59704    -8757.342    40.253619   -8797.5956   -22876.342 
   84000    262.72384   -8762.5151    38.373363   -8800.8885   -9867.4037 
   84200    310.54479   -8749.7464    45.358077   -8795.1045    3609.9154 
   84400    365.39114   -8745.5237    53.368917   -8798.8926    3378.8968 
   84600    327.89789   -8757.3644    47.892666   -8805.2571    2324.5094 
   84800    365.62538   -8749.6748    53.403131    -8803.078   -54431.578 
   85000    265.91829   -8763.4243    38.839943   -8802.2642   -26971.022 
   85200     323.1487   -8759.0234       47.199   -8806.2224   -22498.665 
   85400    286.12169   -8762.9157    41.790846   -8804.7066    50681.332 
   85600    261.56871   -8770.4441    38.204645   -8808.6488   -26030.616 
   85800    287.62172   -8758.8995     42.00994   -8800.9094    19750.271 
   86000    332.72103   -8748.7055    48.597131   -8797.3026    5849.5465 
   86200     329.8992   -8742.8292    48.184976   -8791.0142   -40390.425 
   86400    306.73761   -8760.2402    44.802001   -8805.0422    10323.104 
   86600     287.3969   -8765.5984    41.977102   -8807.5755    14215.401 
   86800    372.79077   -8747.9834    54.449705   -8802.4331   -6683.7343 
   87000    264.72683   -8762.7264    38.665919   -8801.3923    -14697.49 
   87200    396.83407   -8747.5649    57.961462   -8805.5263   -41801.079 
   87400    262.24523   -8762.7212    38.303458   -8801.0246   -37035.742 
   87600    374.90604   -8749.0675     54.75866   -8803.8262    16737.419 
   87800    279.59364   -8759.0938     40.83736   -8799.9311   -20742.809 
   88000    282.31679   -8755.0121    41.235103   -8796.2472   -34272.795 
   88200     260.7915   -8754.6526    38.091127   -8792.7437    14555.682 
   88400    296.75447   -8750.9555    43.343867   -8794.2994    8551.4818 
   88600    240.09694   -8765.7781    35.068485   -8800.8465   -2797.3312 
   88800     331.9548   -8753.7589    48.485216   -8802.2441    26893.908 
   89000    273.97441   -8759.0508    40.016618   -8799.0675   -9623.9885 
   89200    320.32571   -8754.4138    46.786675   -8801.2004    6673.5221 
   89400    254.76339   -8757.3517    37.210662   -8794.5624    34294.258 
   89600    386.11264   -8740.2308    56.395493   -8796.6263    29133.818 
   89800    262.00309   -8758.5473     38.26809   -8796.8154    -4487.779 
   90000    339.18357   -8751.7143    49.541048   -8801.2553   -16610.914 
   90200    377.22348   -8743.2399    55.097146    -8798.337    10333.731 
   90400    339.00668    -8762.436    49.515211   -8811.9512     5285.224 
   90600    326.00019   -8761.3744    47.615487   -8808.9898      47608.5 
   90800    320.52479   -8752.9463    46.815752    -8799.762    38605.509 
   91000    275.75974   -8759.8573    40.277383   -8800.1347   -6295.4224 
   91200    359.37013   -8745.6573     52.48949   -8798.1468    26927.001 
   91400     280.2145   -8762.8655    40.928043   -8803.7936     9425.623 
   91600    278.72345    -8754.474    40.710261   -8795.1842   -8423.6518 
   91800    309.66387     -8755.28     45.22941   -8800.5094   -5912.1794 
   92000    320.41855   -8754.4307    46.800235    -8801.231   -9181.4186 
   92200    257.58339   -8766.8643    37.622551   -8804.4869    12367.346 
   92400    309.30942   -8753.0281    45.177639   -8798.2057   -22050.992 
   92600    311.04128   -8755.0518    45.430593   -8800.4824    17938.942 
   92800    400.37098   -8741.9147    58.478062   -8800.3928    29690.921 
   93000    275.65963   -8759.6109     40.26276   -8799.8737    24731.648 
   93200    334.62266   -8749.5556    48.874883   -8798.4305    12265.947 
   93400    261.05591   -8762.0882    38.129746   -8800.2179   -6009.6908 
   93600    263.55271    -8758.301    38.494427   -8796.7954   -22755.148 
   93800    293.27658   -8751.5191    42.835887   -8794.3549    2857.9957 
   94000    341.25311   -8751.3265    49.843324   -8801.1698      1416.09 
   94200     248.4023   -8757.2797    36.281564   -8793.5613    2431.5008 
   94400    385.88041   -8749.2448    56.361574   -8805.6064    25886.574 
   94600    255.65333   -8761.5074    37.340646    -8798.848     -40445.6 
   94800    365.79735   -8755.1597    53.428249    -8808.588    1019.7808 
   95000    318.39316   -8754.8119    46.504406   -8801.3163   -23068.767 
   95200     300.0495   -8757.3336    43.825138   -8801.1588    13360.585 
   95400    264.53029   -8767.8913    38.637213   -8806.5285    27079.139 
   95600     249.1555   -8755.4057    36.391576   -8791.7973    65925.489 
   95800    317.47323    -8748.625    46.370043    -8794.995   -8002.3399 
   96000    224.61091   -8767.2452      32.8066   -8800.0518   -16719.303 
   96200    282.21689   -8752.0785    41.220512    -8793.299    13245.326 
   96400    273.23236   -8760.7773    39.908235   -8800.6855   -19153.977 
   96600    353.27463   -8750.8806    51.599184   -8802.4798    15796.583 
   96800     262.3777   -8753.1627    38.322807   -8791.4855   -20403.052 
   97000    304.05767   -8760.3374     44.41057    -8804.748   -18035.859 
   97200     236.4975   -8774.4185    34.542752   -8808.9612   -17552.427 
   97400    328.16286   -8757.2141    47.931367   -8805.1454   -31661.228 
   97600    339.88334   -8749.1533    49.643256   -8798.7965    21610.843 
   97800    368.34191   -8745.7241    53.799906    -8799.524    1773.8443 
   98000    289.25451   -8762.2575    42.248425   -8804.5059   -35523.927 
   98200    328.70976   -8748.4095    48.011247   -8796.4207    75532.804 
   98400    295.93788   -8762.3954    43.224595     -8805.62   -14387.752 
   98600    311.30765   -8756.9876    45.469499   -8802.4571    -7117.745 
   98800    289.92565   -8754.1907    42.346451   -8796.5372     9525.193 
   99000    361.82256   -8743.3396    52.847692   -8796.1873   -3359.8759 
   99200    273.69682   -8760.5142    39.976073   -8800.4903    9670.7949 
   99400    322.34578   -8755.1844    47.081726   -8802.2661    4693.2005 
   99600    369.03183   -8736.5157    53.900676   -8790.4164   -20214.385 
   99800    306.33216   -8752.1666    44.742781   -8796.9094    26587.195 
  100000    291.63376   -8758.0349    42.595937   -8800.6308    799.57781 
  100200    249.51274   -8766.7502    36.443754   -8803.1939   -53300.932 
  100400    292.25451    -8754.855    42.686604   -8797.5416   -6400.3497 
  100600    293.47055   -8754.7861    42.864219   -8797.6503   -15618.741 
  100800    312.70977   -8761.9536    45.674293   -8807.6279    1902.8644 
  101000    353.63524   -8740.6821    51.651855    -8792.334   -21454.756 
  101200    272.19248   -8756.7284     39.75635   -8796.4848    4431.2033 
  101400    307.76993   -8760.1219    44.952781   -8805.0747    28381.374 
  101600      342.279   -8742.9089    49.993166   -8792.9021     -26935.2 
  101800    338.79884   -8758.0437    49.484855   -8807.5285   -26371.347 
  102000    308.45962   -8758.9996    45.053517   -8804.0531   -19322.713 
  102200    239.94026   -8770.1095    35.045601   -8805.1551    36010.267 
  102400    346.56499   -8752.0609    50.619176     -8802.68   -1364.2152 
  102600    304.99735   -8757.7914     44.54782   -8802.3392     21997.64 
  102800    239.03214   -8770.2738    34.912961   -8805.1867   -7274.6229 
  103000    341.49185   -8755.7917    49.878194   -8805.6699   -19092.855 
  103200    343.12213   -8753.7601    50.116313   -8803.8764     11478.88 
  103400    264.57392   -8768.0403    38.643585   -8806.6839    12395.026 
  103600    280.55927   -8768.0675    40.978401   -8809.0459    8033.3066 
  103800    346.16586   -8748.8788    50.560879   -8799.4397   -18077.556 
  104000    313.38293   -8753.8531    45.772615   -8799.6257   -14696.548 
  104200    254.56124   -8765.5816    37.181137   -8802.7627   -14268.077 
  104400    304.14247   -8755.0469    44.422956   -8799.4699    6638.6495 
  104600    371.66644   -8754.0443    54.285486   -8808.3298   -16225.141 
  104800    254.17275   -8758.0391    37.124394   -8795.1635    6279.6067 
  105000    263.72961   -8754.3302    38.520266   -8792.8505    9228.0363 
  105200    250.31357   -8768.5839    36.560723   -8805.1447   -21392.329 
  105400    272.42889   -8759.7403     39.79088   -8799.5311   -3389.2103 
  105600    309.61275   -8754.7706    45.221943   -8799.9925    39086.786 
  105800    294.31933   -8765.8291     42.98819   -8808.8173   -13613.666 
  106000    253.18519   -8763.3089    36.980151    -8800.289   -5337.2247 
  106200    368.74437   -8753.2363    53.858689    -8807.095    18095.244 
  106400    259.76101   -8762.4794    37.940613     -8800.42    64304.832 
  106600    289.29317   -8763.6042    42.254072   -8805.8583   -47878.269 
  106800    307.30558   -8748.7393    44.884958   -8793.6243    14863.286 
  107000    244.45571   -8759.4222    35.705126   -8795.1273   -32617.014 
  107200    270.91343   -8765.6694    39.569532   -8805.2389    32390.184 
  107400    296.45365   -8753.1769    43.299929   -8796.4768    12763.233 
  107600    309.04238   -8753.8213    45.138635   -8798.9599   -47845.069 
  107800    232.28726   -8768.5822    33.927805     -8802.51    50307.589 
  108000    255.96669    -8762.061    37.386417   -8799.4474    16347.488 
  108200    328.72809   -8753.8801    48.013923   -8801.8941    3961.7696 
  108400    246.48529    -8758.568    36.001566   -8794.5695   -7443.4172 
  108600    295.70687   -8764.1102    43.190855   -8807.3011   -31918.773 
  108800    295.88215   -8750.0232    43.216456   -8793.2397    3800.8717 
  109000    292.64365   -8749.9383    42.743442   -8792.6818    72973.833 
  109200     266.2054   -8766.4875     38.88188   -8805.3694    15895.881 
  109400    278.39701   -8754.7025    40.662582   -8795.3651   -31265.695 
  109600    291.69057   -8748.5287    42.604235   -8791.1329   -2157.9726 
  109800    288.65301   -8761.0472    42.160569   -8803.2078    45985.012 
  110000    246.69813   -8771.2937    36.032654   -8807.3264    7127.3639 
  110200    279.41844   -8761.0064    40.811771   -8801.8181    51720.012 
  110400    290.89755   -8753.9993    42.488406   -8796.4877    24184.667 
  110600    308.94904   -8760.5288    45.125001   -8805.6538   -32472.984 
  110800    253.24898   -8769.4644    36.989469   -8806.4538   -27647.284 
  111000    285.28721   -8749.6593    41.668963   -8791.3282   -10893.042 
  111200    266.87701   -8759.2193    38.979973   -8798.1992    42671.907 
  111400    260.13481    -8767.907     37.99521   -8805.9022    19919.059 
  111600    345.51683   -8745.6767    50.466082   -8796.1428   -26375.225 
  111800    312.03815   -8758.0669    45.576197   -8803.6431    35561.575 
  112000    272.97623   -8764.3219    39.870824   -8804.1927    2136.0668 
  112200    318.31367   -8756.4694    46.492796   -8802.9622   -41512.685 
  112400    316.13644   -8754.0458    46.174791   -8800.2206    -20666.37 
  112600    283.96106   -8768.0994    41.475265   -8809.5747    8093.7651 
  112800    289.04896   -8754.7967    42.218402   -8797.0151   -9806.5549 
  113000    357.98277   -8756.6033    52.286853   -8808.8902    23382.873 
  113200    258.03503   -8772.2768    37.688518   -8809.9653    5078.4958 
  113400    360.22708   -8754.8223    52.614657   -8807.4369    20563.288 
  113600    276.57972   -8758.9047    40.397149   -8799.3018    -8225.391 
  113800    297.55941   -8761.3174    43.461436   -8804.7788    -3724.206 
  114000    339.58328   -8747.2691     49.59943   -8796.8685   -8906.1463 
  114200    348.63278   -8771.7919    50.921196   -8822.7131   -26508.988 
  114400    302.37263   -8789.9669    44.164454   -8834.1314    10373.213 
  114600    237.17494    -8795.697    34.641699   -8830.3387    2915.8665 
  114800    290.70982   -8779.3778    42.460986   -8821.8388    11740.925 
  115000    285.54343   -8787.2605    41.706386   -8828.9669   -12985.828 
  115200    261.37534   -8801.7741    38.176402   -8839.9505   -17193.223 
  115400    241.82999   -8789.9124    35.321614    -8825.234    5944.6914 
  115600    278.94439   -8785.2388    40.742532   -8825.9813   -11858.784 
  115800    230.25413   -8799.3276    33.630847   -8832.9584    45065.846 
  116000    311.56611   -8787.0389     45.50725   -8832.5462    16798.831 
  116200    290.00295    -8784.403    42.357742   -8826.7608    17859.453 
  116400    376.03751   -8772.6375    54.923922   -8827.5614    19809.484 
  116600    294.98731   -8788.0327    43.085755   -8831.1185   -11079.741 
  116800    320.91856   -8789.8353    46.873267   -8836.7086   -21316.193 
  117000    282.49051   -8770.9789    41.260476   -8812.2394   -1727.2832 
  117200     332.6388   -8782.3986    48.585121   -8830.9837    1872.2663 
  117400     295.8747   -8788.3323    43.215368   -8831.5476   -21331.802 
  117600    292.79809    -8776.078    42.765999    -8818.844    42872.987 
  117800    246.47503   -8790.7261    36.000067   -8826.7261   -8134.0547 
  118000    290.22248   -8790.4437    42.389806   -8832.8335    5743.0492 
  118200    239.06917   -8788.6736     34.91837    -8823.592     48025.38 
  118400    280.59281   -8778.4462      40.9833   -8819.4295   -5349.3475 
  118600    301.95668   -8791.0149      44.1037   -8835.1186   -11837.888 
  118800    349.36365   -8787.1319    51.027947   -8838.1599   -51737.225 
  119000    288.87913   -8777.6885    42.193597   -8819.8821   -42767.785 
  119200    281.65249   -8789.1372    41.138076   -8830.2752    20389.016 
  119400    283.07972   -8790.5047    41.346537   -8831.8513    18721.213 
  119600    249.93087   -8784.3352    36.504826     -8820.84   -50564.107 
  119800    387.89012   -8770.3894    56.655111   -8827.0445   -15256.961 
  120000    237.99867    -8790.086    34.762012    -8824.848    7715.5633 
  120200    318.73709     -8782.98    46.554642   -8829.5347   -19253.712 
  120400    384.71692   -8770.2426    56.191635   -8826.4342    777.93838 
  120600    266.59069   -8791.4495    38.938154   -8830.3877   -15887.518 
  120800    302.09997   -8782.3941    44.124628   -8826.5188   -24882.141 
  121000    292.72596   -8782.4957    42.755463   -8825.2512    47415.392 
  121200    231.78492   -8794.5723    33.854434   -8828.4267   -8388.6678 
  121400    347.19784   -8780.3265     50.71161   -8831.0381   -25114.245 
  121600    345.19947   -8781.0414    50.419728   -8831.4611    8782.0464 
  121800    285.75194   -8795.0645     41.73684   -8836.8013   -35674.235 
  122000    320.53591   -8787.3403    46.817376   -8834.1577    17129.399 
  122200    401.62695   -8758.6649    58.661509   -8817.3264    74300.446 
  122400    357.95813   -8779.7395    52.283254   -8832.0228    16491.129 
  122600    275.94779    -8793.548    40.304849   -8833.8528   -13467.098 
  122800    265.86126   -8780.5527    38.831614   -8819.3843    36488.714 
  123000    275.28529   -8779.5295    40.208085   -8819.7376    -26768.93 
  123200    354.41054   -8785.6773    51.765095   -8837.4424     43632.33 
  123400    268.21587   -8795.1749    39.175528   -8834.3505    40881.171 
  123600    290.66109   -8792.4431    42.453869    -8834.897    5576.8411 
  123800    333.78949   -8778.8286    48.753191   -8827.5818      20026.3 
  124000    268.06262   -8791.9198    39.153144   -8831.0729    35804.269 
  124200     255.7482   -8799.1156    37.354503   -8836.4701   -42495.402 
  124400    324.76063   -8784.2319    47.434438   -8831.6664   -13335.945 
  124600    317.00616    -8778.588    46.301822   -8824.8898   -485.07821 
  124800    267.08755   -8796.6361    39.010725   -8835.6468    2071.9285 
  125000    276.62393   -8783.8712    40.403606   -8824.2748   -30233.837 
  125200    318.97435   -8780.7137    46.589296    -8827.303    7078.1978 
  125400    248.21501   -8798.1516    36.254208   -8834.4058    85143.306 
  125600    245.95492   -8790.2253      35.9241   -8826.1494   -34019.936 
  125800    269.27358    -8786.309    39.330016    -8825.639   -3841.6804 
  126000    247.81459   -8789.5534    36.195723   -8825.7491    12611.605 
  126200    343.14524   -8787.8986    50.119689   -8838.0183    35586.417 
  126400    281.75054   -8783.7448    41.152398   -8824.8972   -5616.0685 
  126600    297.96997   -8775.1524    43.521402   -8818.6738   -16542.474 
  126800    283.17307   -8793.8688    41.360171    -8835.229    19138.605 
  127000    301.62398   -8790.2225    44.055105   -8834.2776   -24300.318 
  127200      323.792   -8772.5043     47.29296   -8819.7973    33441.194 
  127400    300.93808   -8786.4198    43.954923   -8830.3747   -5092.6705 
  127600    311.86407   -8786.9342     45.55077    -8832.485   -15859.517 
  127800    377.82921   -8769.2553    55.185619    -8824.441    9770.9052 
  128000    256.41124   -8777.4985    37.451347   -8814.9498   -10920.339 
  128200    297.11539   -8787.3262    43.396582   -8830.7228    9394.2865 
  128400    267.83581   -8796.5002    39.120016   -8835.6203   -33344.974 
  128600    268.76771   -8784.3263     39.25613   -8823.5825   -26510.895 
  128800    313.25076   -8779.0471    45.753309   -8824.8004   -9756.8311 
  129000    273.93563   -8794.9305    40.010954   -8834.9414    6745.9727 
  129200    268.21038   -8786.4038    39.174725   -8825.5785    40572.482 
  129400    297.92964   -8780.8373    43.515511   -8824.3528    14493.421 
  129600    248.79767   -8787.7776    36.339311   -8824.1169    66454.591 
  129800    288.82835   -8799.4817     42.18618   -8841.6679    10926.379 
  130000    263.63527   -8786.0181    38.506487   -8824.5246    4900.5298 
  130200    288.25592   -8784.4793    42.102572   -8826.5819   -4946.0439 
  130400    272.47908   -8801.2587    39.798211   -8841.0569   -13227.836 
  130600    284.30721    -8788.734    41.525823   -8830.2598   -18450.794 
  130800    340.62593   -8781.8307    49.751719   -8831.5824    9983.1018 
  131000    326.87677   -8777.9731     47.74352   -8825.7167    38138.939 
  131200    293.81823   -8793.9445    42.915001   -8836.8595   -30889.286 
  131400    330.15697   -8780.3534    48.222626    -8828.576   -40702.171 
  131600    286.54427   -8777.7675    41.852568     -8819.62    2719.1334 
  131800    302.39777   -8789.2648    44.168126   -8833.4329   -61052.462 
  132000    281.22482   -8789.2839    41.075611   -8830.3595   -17187.626 
  132200    351.36099   -8771.6368    51.319679   -8822.9565    80471.513 
  132400    275.26847   -8785.1776    40.205628   -8825.3832    22675.805 
  132600    283.26443    -8788.251    41.373515   -8829.6245    14907.423 
  132800    349.68522   -8770.0693    51.074915   -8821.1443   -37772.689 
  133000    319.27091   -8780.5288    46.632611   -8827.1614   -16804.953 
  133200    254.11612   -8793.8962    37.116122   -8831.0123   -15206.411 
  133400    279.18587   -8783.0147    40.777802   -8823.7925   -8176.5108 
  133600     321.6098   -8776.4465    46.974228   -8823.4207   -6674.1617 
  133800    296.95994    -8789.504    43.373878   -8832.8779    29022.788 
  134000    351.28951    -8780.738    51.309238   -8832.0472   -33617.278 
  134200    281.05406   -8779.1843     41.05067   -8820.2349   -1759.0642 
  134400    318.69667    -8784.718    46.548738   -8831.2668    61416.054 
  134600    286.09638   -8793.8767    41.787149   -8835.6639   -15339.962 
  134800    317.82687   -8791.3685    46.421695   -8837.7902   -62074.964 
  135000    314.09468   -8780.1302    45.876572   -8826.0068   -22992.411 
  135200    246.90921   -8796.0228    36.063483   -8832.0863   -33921.084 
  135400     247.0364   -8799.2689    36.082061    -8835.351   -33764.286 
  135600    303.09926   -8788.7584    44.270585    -8833.029   -6863.8365 
  135800    334.31562   -8778.9084    48.830036   -8827.7385    33339.704 
  136000    260.76103   -8797.0212    38.086676   -8835.1079    23424.987 
  136200    272.38577   -8787.9202    39.784582   -8827.7048        26440 
  136400    323.00314   -8781.7326    47.177739   -8828.9104   -43427.546 
  136600    320.98012    -8783.596    46.882257   -8830.4783   -22102.707 
  136800    283.93077   -8793.6751    41.470841   -8835.1459    2665.1746 
  137000    323.94268   -8781.6257    47.314968   -8828.9407   -39776.855 
  137200    287.95227   -8777.5421     42.05822   -8819.6004    27137.313 
  137400    274.87435   -8798.2118    40.148062   -8838.3599   -6346.4287 
  137600    315.13804   -8783.6604    46.028965   -8829.6893    27219.052 
  137800    292.59309   -8782.9862    42.736057   -8825.7222   -25715.829 
  138000    273.13343   -8802.1137    39.893785   -8842.0075    14329.604 
  138200    286.15498   -8794.4765    41.795708   -8836.2722   -25897.567 
  138400    312.52458   -8780.3176    45.647243   -8825.9649   -6163.5618 
  138600    313.33106   -8784.3005    45.765038   -8830.0655    -17071.63 
  138800    277.73882   -8796.0987    40.566446   -8836.6652   -38968.326 
  139000    333.59025   -8776.6173    48.724089   -8825.3414    34618.683 
  139200    276.89558   -8785.5839    40.443283   -8826.0272    81362.476 
  139400     277.5768   -8787.6423    40.542782   -8828.1851   -15253.728 
  139600     241.9188   -8794.5138    35.334586   -8829.8484   -35561.528 
  139800    282.94548   -8781.6973    41.326929   -8823.0242   -33862.029 
  140000    285.01403   -8784.7347    41.629062   -8826.3637   -6183.0312 
  140200    260.83091     -8789.24    38.096883   -8827.3368   -2756.1327 
  140400    321.49315   -8777.9516    46.957191   -8824.9088   -26917.008 
  140600    276.90698   -8789.3521    40.444949    -8829.797     16278.08 
  140800    381.39106   -8772.7701    55.705861   -8828.4759    19064.043 
  141000    277.75924   -8791.8419    40.569429   -8832.4113    18359.955 
  141200    277.54899   -8787.9603     40.53872    -8828.499   -40550.817 
  141400     299.5152   -8781.4096    43.747098   -8825.1567    -7553.826 
  141600    305.59922   -8791.8969    44.635729   -8836.5327   -15851.655 
  141800    283.92956   -8783.5174    41.470664   -8824.9881      37137.1 
  142000    339.64165   -8792.2357    49.607955   -8841.8436   -31746.413 
  142200    256.36597   -8797.0797    37.444735   -8834.5244    9000.8009 
  142400    285.61626   -8786.4355    41.717023   -8828.1525   -11592.744 
  142600    297.35361    -8782.928    43.431378   -8826.3594   -21618.046 
  142800    245.59947   -8799.1407    35.872182   -8835.0129   -52120.499 
  143000    320.68055   -8786.6136    46.838503   -8833.4521    28289.589 
  143200    329.21257   -8781.2697    48.084687   -8829.3544   -62218.332 
  143400    362.60556   -8769.1888    52.962057   -8822.1509     11079.19 
  143600    263.54839   -8788.4942    38.493797    -8826.988    4911.2772 
  143800    352.97651   -8785.2527    51.555641   -8836.8083    49866.241 
  144000    263.94105   -8794.7613    38.551149   -8833.3125    21569.283 
  144200    286.96134   -8780.1692    41.913485   -8822.0827   -18458.546 
  144400    289.11036   -8781.1662     42.22737   -8823.3936   -21453.619 
  144600    288.13523   -8784.9206    42.084942   -8827.0055   -13951.228 
  144800    355.78845    -8786.831    51.966352   -8838.7974   -2277.1307 
  145000    367.56385   -8770.8413    53.686263   -8824.5275   -22178.146 
  145200    284.94091   -8786.1172    41.618381   -8827.7356    7132.5889 
  145400    327.42891   -8792.2615    47.824166   -8840.0857    32641.977 
  145600    241.31787   -8801.4615    35.246813   -8836.7083   -36414.092 
  145800    338.17141   -8782.2413    49.393212   -8831.6345   -46504.865 
  146000    305.89258   -8782.1967    44.678576   -8826.8752    11253.078 
  146200    369.11781   -8775.8068    53.913233     -8829.72    1285.6068 
  146400    263.53012   -8791.4315    38.491129   -8829.9226   -6986.0492 
  146600    349.64918   -8780.8296    51.069652   -8831.8993   -9711.2666 
  146800    320.79698    -8774.922    46.855508   -8821.7775    16129.202 
  147000    308.10753   -8789.9524    45.002091   -8834.9545     3249.322 
  147200    294.28112   -8786.9079     42.98261   -8829.8905   -1730.0526 
  147400    389.24704   -8771.5254    56.853303   -8828.3787    8007.3002 
  147600    297.52894   -8790.8223    43.456986   -8834.2793   -18128.511 
  147800     324.2266     -8788.92    47.356438   -8836.2764   -26852.246 
  148000    333.56053   -8771.9781    48.719749   -8820.6978   -29462.451 
  148200     255.5689   -8791.0134    37.328315   -8828.3418   -22931.944 
  148400    326.09105   -8786.0263    47.628758   -8833.6551   -8299.8652 
  148600    236.09453   -8793.3644    34.483895   -8827.8483    21814.753 
  148800    299.24423    -8787.706     43.70752   -8831.4135    10388.405 
  149000    294.97894   -8778.7385    43.084533    -8821.823    13319.179 
  149200    305.66049   -8793.1157    44.644677   -8837.7604    9153.4396 
  149400    304.62284   -8790.0986    44.493118   -8834.5917   -14125.923 
  149600    348.16173   -8781.6947    50.852395   -8832.5471   -275.05497 
  149800    259.57318   -8799.1798    37.913178   -8837.0929   -18991.277 
  150000    315.23538   -8787.5125    46.043182   -8833.5557   -4306.7502 
  150200    331.21104   -8773.9179    48.376582   -8822.2945   -15443.601 
  150400    316.58057   -8777.0233     46.23966   -8823.2629    21569.341 
  150600    279.91642   -8791.3416    40.884507   -8832.2261    5021.2499 
  150800    289.51247   -8782.8567    42.286103   -8825.1428   -9808.0772 
  151000    331.13801   -8782.2557    48.365916   -8830.6216    17366.623 
  151200    306.48151   -8789.4203    44.764595   -8834.1849    5297.7848 
  151400    333.23575   -8780.5747    48.672311    -8829.247    47999.911 
  151600    287.26501   -8778.3044    41.957839   -8820.2623   -20153.959 
  151800    267.40017   -8792.5498    39.056387   -8831.6062   -11833.111 
  152000     333.5173   -8777.4505    48.713434   -8826.1639     17269.47 
  152200     309.6065   -8784.1937    45.221031   -8829.4147    -8862.554 
  152400     291.1482   -8787.6506    42.525017   -8830.1756    12381.513 
  152600    241.05469   -8798.4937    35.208374   -8833.7021    16785.698 
  152800    253.02277   -8790.6904    36.956428   -8827.6469    29122.813 
  153000    249.60845   -8784.0643    36.457733    -8820.522    16739.676 
  153200    345.96875   -8785.5502    50.532089   -8836.0823   -2517.5383 
  153400    250.14547   -8793.0924     36.53617   -8829.6285    13448.415 
  153600    322.14568   -8777.0234    47.052498   -8824.0759   -12230.601 
  153800    320.68502   -8787.1835    46.839156   -8834.0227    31628.207 
  154000     295.9555   -8791.0376    43.227169   -8834.2648    2774.0658 
  154200    282.11774   -8787.1371     41.20603   -8828.3431    28842.908 
  154400     294.4877   -8789.7352    43.012782    -8832.748    3922.0519 
  154600    310.80624   -8776.2195    45.396264   -8821.6158   -18365.463 
  154800    316.18024    -8779.553    46.181189   -8825.7342   -34436.239 
  155000    312.76788   -8785.5823     45.68278   -8831.2651    3443.5249 
  155200    269.89144   -8792.4134    39.420261   -8831.8336   -23328.278 
  155400    265.56079   -8798.8294    38.787728   -8837.6172   -10007.596 
  155600    316.55404   -8786.2533    46.235785   -8832.4891   -8333.1464 
  155800    315.81344   -8783.8918    46.127614   -8830.0195   -14045.533 
  156000    262.00179   -8798.9918    38.267901   -8837.2597    14033.421 
  156200    302.25523   -8788.6495    44.147306   -8832.7968    31423.776 
  156400    301.08788   -8782.7932    43.976803     -8826.77   -21806.318 
  156600    280.16167   -8789.4895    40.920327   -8830.4098    -12531.75 
  156800    284.51272   -8796.7009     41.55584   -8838.2568   -3774.9022 
  157000    362.41033   -8778.8432    52.933541   -8831.7768   -11521.345 
  157200    301.29214   -8785.3411    44.006637   -8829.3478    3188.7087 
  157400    246.79005   -8802.7542    36.046078   -8838.8002   -26780.492 
  157600    304.08547     -8789.85    44.414631   -8834.2646    168.58429 
  157800     279.9171   -8783.3957    40.884605   -8824.2803    13165.708 
  158000    253.47869   -8795.0993     37.02302   -8832.1223   -16251.475 
  158200    254.52654   -8798.0537    37.176069   -8835.2297    5006.7179 
  158400    314.39256   -8786.3219     45.92008    -8832.242    1779.8535 
  158600    279.43951   -8783.1245    40.814849   -8823.9394    19384.212 
  158800    318.52345   -8781.6487    46.523437   -8828.1722   -14394.919 
  159000    241.38479   -8796.2709    35.256588   -8831.5275    13681.695 
  159200    273.10976   -8789.5711    39.890328   -8829.4614   -15373.232 
  159400    305.46534   -8781.5926    44.616173   -8826.2088    10678.706 
  159600    309.00698   -8796.1171    45.133465   -8841.2506    -10242.75 
  159800    243.43476   -8791.8398    35.556007   -8827.3958   -16333.142 
  160000    287.43846    -8784.561    41.983173   -8826.5442   -15271.781 
  160200    263.80974   -8791.2111     38.53197   -8829.7431   -2588.9333 
  160400    297.40245   -8782.7608    43.438511   -8826.1993    28694.944 
  160600    312.22378   -8777.6884     45.60331   -8823.2917     58882.73 
  160800    285.43148   -8796.6375    41.690033   -8838.3276    -2290.909 
  161000    252.79712   -8797.0838    36.923469   -8834.0073   -21014.933 
  161200    311.70027   -8783.3974    45.526846   -8828.9242    9321.9532 
  161400     267.6255   -8785.3907    39.089298     -8824.48   -29040.015 
  161600    238.75392   -8800.1697    34.872324    -8835.042   -7355.2024 
  161800    336.73487   -8779.2827    49.183391   -8828.4661    22877.204 
  162000    329.74803   -8776.4372    48.162896   -8824.6001   -17426.894 
  162200    295.22377   -8787.8028    43.120293   -8830.9231   -7308.1653 
  162400    277.48661   -8791.0325    40.529609   -8831.5621    8622.0607 
  162600    369.74339   -8778.2188    54.004606   -8832.2234   -20755.839 
  162800    336.95492   -8776.0284    49.215531   -8825.2439    25094.122 
  163000    296.32892   -8790.6392    43.281711   -8833.9209    19889.175 
  163200     300.0649   -8786.4478    43.827388   -8830.2751   -37988.123 
  163400    292.69612   -8775.8305    42.751106   -8818.5816    19838.887 
  163600    328.62344   -8787.0898    47.998639   -8835.0884   -4202.0238 
  163800    255.29101   -8806.8932    37.287726    -8844.181    5407.9825 
  164000    256.77833   -8796.9537    37.504964   -8834.4587    27891.934 
  164200    318.95338   -8785.0548    46.586232    -8831.641   -16874.252 
  164400    301.87103   -8782.9389     44.09119   -8827.0301    -21171.21 
  164600    274.91061   -8795.8604    40.153359   -8836.0138    9745.5363 
  164800    321.11709   -8778.6846    46.902263   -8825.5869    13344.774 
  165000    309.63217   -8772.7407     45.22478   -8817.9655    28388.179 
  165200    316.05549   -8788.6364    46.162967   -8834.7994    -8460.442 
  165400    260.47694   -8787.7893    38.045182   -8825.8345   -11846.395 
  165600    307.73559   -8781.2807    44.947765   -8826.2284    -17503.37 
  165800    295.88503   -8792.8375    43.216877   -8836.0544    7462.4502 
  166000    305.76701   -8799.8469    44.660235   -8844.5072    6834.6215 
  166200     297.6581   -8781.1149     43.47585   -8824.5908   -6023.8222 
  166400    270.59909   -8783.6727     39.52362   -8823.1963   -11032.844 
  166600    280.85975   -8790.7579    41.022289   -8831.7802    34757.202 
  166800    292.55094   -8788.2531      42.7299    -8830.983    9965.5846 
  167000    345.65002   -8775.6955    50.485536   -8826.1811   -48610.617 
  167200    336.79886   -8788.7094    49.192738   -8837.9021   -29777.746 
  167400    312.13848   -8793.6017     45.59085   -8839.1926   -1389.6148 
  167600     333.9211   -8775.7926    48.772413   -8824.5651    20659.588 
  167800    296.65416   -8786.5945    43.329215   -8829.9237   -2801.0096 
  168000    318.68668   -8777.6461    46.547278   -8824.1934    24508.742 
  168200    280.42484   -8782.4965    40.958765   -8823.4552   -29006.901 
  168400    257.52121   -8790.2242    37.613469   -8827.8377   -26156.877 
  168600    284.93386   -8776.0777    41.617352   -8817.6951   -11489.307 
  168800    322.98357   -8788.9961    47.174881    -8836.171   -5714.2918 
  169000    307.65366   -8788.4736    44.935798   -8833.4094    36425.808 
  169200    381.58185   -8773.8442    55.733728   -8829.5779     28130.23 
  169400    343.61951   -8782.1969     50.18896   -8832.3859    51686.305 
  169600    290.20104    -8790.996    42.386674   -8833.3826    12280.805 
  169800    323.49067   -8785.0456    47.248947   -8832.2945   -31305.251 
  170000    336.49308   -8768.3827    49.148076   -8817.5308   -39703.532 
  170200    308.14353   -8787.5048    45.007349   -8832.5121   -15818.886 
  170400    272.51948   -8794.0574    39.804111   -8833.8615   -18573.813 
  170600      379.506   -8774.0737     55.43053   -8829.5043    18024.132 
  170800    291.16291   -8780.6028    42.527165   -8823.1299   -1371.2921 
  171000    346.82501   -8784.7763    50.657154   -8835.4334   -22545.703 
  171200    324.84378   -8780.2018    47.446582   -8827.6484   -41065.653 
  171400    362.09114   -8768.2754    52.886921   -8821.1623   -8480.7502 
  171600    294.14397   -8787.4378    42.962578   -8830.4004    3359.7571 
  171800    266.10949   -8787.9547     38.86787   -8826.8225     12300.79 
  172000    248.42192   -8802.0307     36.28443   -8838.3151    6803.3678 
  172200    259.00466   -8786.8524    37.830141   -8824.6825    11259.419 
  172400    331.31119   -8781.9201     48.39121   -8830.3113    35739.454 
  172600    245.20435   -8800.7082    35.814472   -8836.5227    -6747.267 
  172800     289.3262   -8788.4323    42.258896   -8830.6912    3199.7858 
  173000    344.84661   -8781.4681     50.36819   -8831.8363    8175.9593 
  173200    283.13976   -8796.9625    41.355307   -8838.3178   -45495.837 
  173400     301.3205   -8794.1722    44.010779   -8838.1829   -25274.706 
  173600     288.6784   -8785.8102    42.164278   -8827.9745    12508.762 
  173800    313.01067   -8780.9215    45.718242   -8826.6398    9068.6631 
  174000     283.1405   -8794.0071    41.355415   -8835.3625    12708.868 
  174200     247.8206   -8786.0493    36.196601   -8822.2459   -4970.0286 
  174400    274.45088   -8781.9945     40.08621   -8822.0807   -23777.688 
  174600    321.91155    -8790.488    47.018302   -8837.5063    9192.5669 
  174800    274.45224   -8801.4287    40.086409   -8841.5151   -4652.6445 
  175000    288.59372   -8787.9293     42.15191   -8830.0812   -17077.211 
  175200     337.4616   -8782.3117    49.289537   -8831.6013   -22689.562 
  175400    296.93677   -8796.0912    43.370494   -8839.4617   -420.42786 
  175600    307.16066   -8777.7761    44.863791   -8822.6399    23195.638 
  175800    294.38684   -8784.4488    42.998051   -8827.4469    41373.556 
  176000    251.58843   -8791.9517    36.746929   -8828.6986    3558.4561 
  176200    305.42167   -8786.3556    44.609795   -8830.9654    10468.971 
  176400    292.46897   -8789.3415    42.717927   -8832.0594    13467.306 
  176600    347.18286   -8776.3939    50.709421   -8827.1033   -3263.9457 
  176800    317.72835   -8789.4954    46.407304   -8835.9027   -6004.8469 
  177000    302.18241   -8786.8067     44.13667   -8830.9433    27729.668 
  177200    371.28048    -8780.093    54.229112   -8834.3221    976.14015 
  177400    288.74319   -8787.6083    42.173741   -8829.7821    26478.859 
  177600    332.11397   -8779.6823    48.508464   -8828.1908   -7394.1576 
  177800    313.84289   -8779.1227    45.839796   -8824.9625    27806.809 
  178000     287.2172   -8788.5889    41.950856   -8830.5398    46984.263 
  178200    323.62144    -8778.481    47.268048    -8825.749   -23046.457 
  178400     315.2407   -8788.1106     46.04396   -8834.1546    9397.9387 
  178600    278.52966   -8788.0727    40.681957   -8828.7546   -14012.548 
  178800    364.89653   -8778.2653    53.296675    -8831.562   -3668.8292 
  179000    261.29675   -8794.6208    38.164922   -8832.7857    28850.112 
  179200    281.77189   -8782.9051    41.155516   -8824.0606   -22523.523 
  179400    362.52035    -8772.122    52.949611   -8825.0716   -18298.826 
  179600    280.61902   -8788.7672    40.987127   -8829.7543    38541.014 
  179800    295.76067    -8786.955    43.198712   -8830.1537    14722.649 
  180000    350.12178   -8765.5517     51.13868   -8816.6904   -21054.922 
  180200    340.18012   -8780.8991    49.686604   -8830.5857    32898.316 
  180400    258.56063   -8790.0571    37.765286   -8827.8224    7355.6753 
  180600    359.72842   -8781.8084    52.541822   -8834.3502   -16264.518 
  180800    357.94347   -8776.0678    52.281114   -8828.3489   -44929.545 
  181000    323.76503   -8787.8104    47.289021   -8835.0994   -19791.134 
  181200    243.06968   -8791.0895    35.502683   -8826.5922    3051.4077 
  181400    330.76129   -8772.4647    48.310893   -8820.7756   -13938.172 
[...]
  950000    259.19473   -8790.0848    37.857902   -8827.9427   -24674.298 
  950200    341.91432   -8783.2333      49.9399   -8833.1732   -10697.007 
  950400    291.19589   -8784.6486    42.531982   -8827.1806   -712.66503 
  950600    296.80049    -8785.367    43.350589   -8828.7176   -308.82712 
  950800    299.08828    -8795.767    43.684742   -8839.4517    17178.979 
  951000    339.23687   -8778.8615    49.548833   -8828.4104   -530.52645 
  951200    305.82276   -8785.0922    44.668379   -8829.7606   -8815.4907 
  951400     280.3781   -8793.2355    40.951939   -8834.1874   -34408.472 
  951600    307.64164   -8798.0981    44.934043   -8843.0322    17615.756 
  951800    290.36301   -8786.4408    42.410332   -8828.8512   -4744.0547 
  952000    310.93347   -8779.9412    45.414846   -8825.3561    28161.286 
  952200    287.82932   -8792.0856    42.040262   -8834.1259    10113.352 
  952400    271.60019   -8788.6944    39.669841   -8828.3643   -18565.522 
  952600    242.45418   -8779.1938    35.412783   -8814.6065    16215.318 
  952800    305.08317   -8785.6708    44.560355   -8830.2311    13382.016 
  953000    287.10984   -8791.0418    41.935175    -8832.977   -18499.586 
  953200    247.42764   -8801.6794    36.139204   -8837.8186   -22913.299 
  953400    302.15507    -8783.783    44.132677   -8827.9157    5271.9552 
  953600    325.65631   -8781.6273    47.565261   -8829.1925    40275.747 
  953800    293.92324   -8798.3961    42.930338   -8841.3265   -25896.844 
  954000    292.20413   -8791.6189    42.679245   -8834.2982    34187.382 
  954200    337.34532   -8778.1715    49.272554    -8827.444   -40009.717 
  954400    297.48015   -8783.1073     43.44986   -8826.5572   -31376.333 
  954600    267.47346   -8796.0301    39.067091   -8835.0972    8196.8178 
  954800    323.24743   -8780.5782     47.21342   -8827.7916    25240.159 
  955000    309.18704    -8783.401    45.159764   -8828.5607    17116.535 
  955200    309.05806   -8798.6285    45.140926   -8843.7694   -20127.574 
  955400    300.68587   -8797.8633    43.918086   -8841.7814     11222.75 
  955600    353.59472   -8785.7449    51.645936   -8837.3908    2126.8217 
  955800    315.44323   -8776.0912    46.073541   -8822.1648   -55831.378 
  956000     309.5285   -8781.5733    45.209638   -8826.7829    16406.075 
  956200    260.03564   -8791.6949    37.980726   -8829.6756    947.16097 
  956400     286.3623   -8777.0654     41.82599   -8818.8914   -21686.989 
  956600    367.59299   -8765.0591    53.690519   -8818.7497   -25813.705 
  956800    277.36359   -8786.5788     40.51164   -8827.0904     25902.07 
  957000    292.10275   -8788.9201    42.664439   -8831.5845    5324.1585 
  957200    355.82908   -8771.8521    51.972285   -8823.8244   -18454.877 
  957400    252.52481   -8789.1259    36.883696   -8826.0096    26010.419 
  957600    306.70484   -8791.7139    44.797215   -8836.5111    3013.5378 
  957800     218.0256   -8800.2825    31.844752   -8832.1272    3669.6708 
  958000    342.72885   -8784.3737    50.058871   -8834.4325    31057.605 
  958200     263.2661    -8791.432    38.452565   -8829.8845     24756.63 
  958400    277.38694   -8800.4112    40.515052   -8840.9262    69561.299 
  958600    290.35601   -8783.9022    42.409309   -8826.3115   -9844.2226 
  958800    273.06773   -8778.4733    39.884189   -8818.3575    23431.091 
  959000    291.72806   -8798.4858     42.60971   -8841.0955    28402.905 
  959200     292.8461   -8794.8245    42.773012   -8837.5975   -5335.5501 
  959400    283.21498   -8780.4984    41.366293   -8821.8647   -13494.263 
  959600    345.15284   -8783.9703    50.412918   -8834.3832   -20415.398 
  959800    270.16081   -8790.5248    39.459605   -8829.9844   -45339.742 
  960000    316.27656   -8779.9871    46.195257   -8826.1824   -32057.824 
  960200    277.07026   -8793.9598    40.468797   -8834.4286    18747.012 
  960400    277.01456   -8788.5101    40.460661   -8828.9707    8408.9922 
  960600    350.61038   -8777.5954    51.210044   -8828.8054   -38692.022 
  960800    320.64719    -8785.105     46.83363   -8831.9386    12192.015 
  961000    281.41869   -8797.6441    41.103927   -8838.7481   -51993.362 
  961200    320.47512    -8780.797    46.808497   -8827.6055   -6223.1644 
  961400    310.12417   -8781.5018    45.296641   -8826.7984    44861.481 
  961600    249.65972   -8797.8696    36.465222   -8834.3349    759.05204 
  961800    310.49358   -8784.4688    45.350597   -8829.8194    20059.374 
  962000    319.14883   -8781.5011     46.61478   -8828.1158    14924.315 
  962200    284.70601   -8796.4113    41.584072   -8837.9954   -15554.401 
  962400    317.75802   -8782.0362    46.411639   -8828.4478    8968.9948 
  962600     280.5099   -8788.5927     40.97119   -8829.5638   -30306.925 
  962800    306.42574   -8782.3109    44.756449   -8827.0674   -23280.956 
  963000    326.61376   -8782.7613    47.705106   -8830.4664    26088.151 
  963200     318.7407   -8787.8192    46.555168   -8834.3743   -24094.373 
  963400    342.84886   -8783.7471    50.076399   -8833.8235    5223.8605 
  963600    341.32744   -8773.7108     49.85418   -8823.5649    34777.688 
  963800    308.27838   -8792.9245    45.027046   -8837.9515    31304.218 
  964000    328.98091   -8782.2716     48.05085   -8830.3225   -2548.2744 
  964200    300.58406   -8782.7516    43.903216   -8826.6548    23870.116 
  964400    290.61915   -8787.4759    42.447743   -8829.9237    1261.9018 
  964600    297.99697   -8787.4923    43.525345   -8831.0177    -4610.136 
  964800    266.84575   -8795.9157    38.975408   -8834.8911   -7776.5313 
  965000    324.98513   -8783.0974    47.467228   -8830.5646    11383.002 
  965200    300.18952   -8790.2811    43.845588   -8834.1267   -20319.553 
  965400    241.47347   -8796.9757    35.269541   -8832.2452   -25014.432 
  965600    300.04687   -8781.3013    43.824754   -8825.1261   -35552.554 
  965800    307.03748   -8788.9488      44.8458   -8833.7946   -30861.093 
  966000    249.03556   -8803.4404    36.374058   -8839.8145   -10974.968 
  966200    325.20985   -8786.1364    47.500051   -8833.6364   -24804.225 
  966400    300.42038   -8783.9644    43.879308   -8827.8437    25709.216 
  966600    294.19749   -8794.0363    42.970394   -8837.0067    13542.748 
  966800    314.68592   -8783.6806    45.962928   -8829.6435   -3062.0399 
  967000    312.50784   -8784.9979    45.644799   -8830.6427    10811.418 
  967200    209.55855   -8803.6605    30.608057   -8834.2685   -18485.671 
  967400    282.03848   -8792.2703    41.194454   -8833.4648    18085.306 
  967600     317.4564     -8784.78    46.367584   -8831.1476   -2212.9661 
  967800     285.3988   -8784.3548    41.685261   -8826.0401   -23520.721 
  968000    257.15685   -8792.2936    37.560251   -8829.8538    46460.123 
  968200    272.75206   -8793.1889    39.838082   -8833.0269    17873.156 
  968400    309.10161   -8778.2907    45.147285    -8823.438   -16889.461 
  968600     363.2295     -8777.68    53.053189   -8830.7331    -17484.91 
  968800    261.77633   -8793.7367     38.23497   -8831.9717    6542.3062 
  969000    294.15957   -8780.7049    42.964856   -8823.6697   -6165.5312 
  969200    279.14684   -8776.0142    40.772102   -8816.7863    -33867.18 
  969400     322.9477   -8782.0948    47.169642   -8829.2645   -27861.134 
  969600    250.60488    -8795.881    36.603272   -8832.4843   -19991.236 
  969800    299.09554   -8791.4719    43.685803   -8835.1577    14486.966 
  970000    297.51413   -8782.4311    43.454822    -8825.886   -8396.8519 
  970200    319.83148   -8786.0528    46.714487   -8832.7673   -12882.443 
  970400    324.40014   -8789.7529    47.381785   -8837.1346    19495.229 
  970600    324.04773   -8779.7989    47.330312   -8827.1293   -19280.552 
  970800    274.67651    -8781.559    40.119167   -8821.6782   -13810.509 
  971000    308.97176   -8792.3697    45.128321    -8837.498   -5395.1595 
  971200    297.74277   -8781.4156    43.488217   -8824.9038   -21885.876 
  971400     328.8177   -8765.3751    48.027011   -8813.4021   -7397.3803 
  971600    311.59178   -8785.7562       45.511   -8831.2672   -1457.3608 
  971800    299.18661   -8787.7846    43.699104   -8831.4837   -31877.098 
  972000    303.33971   -8773.9126    44.305705   -8818.2183    3822.9572 
  972200    315.76749   -8788.1351    46.120903    -8834.256    11161.444 
  972400    255.92895   -8795.1605    37.380904   -8832.5414   -19544.478 
  972600    337.11225   -8777.2545    49.238512    -8826.493   -39606.897 
  972800    305.19856   -8782.8252    44.577207   -8827.4024   -3842.0885 
  973000    258.89948   -8789.2194    37.814778   -8827.0342    -9510.893 
  973200    290.52141   -8786.3634    42.433467   -8828.7969    15740.805 
  973400     318.1828   -8775.5568    46.473681   -8822.0305    11276.442 
  973600    241.08744   -8794.5992    35.213158   -8829.8123    7926.7343 
  973800    319.31936   -8786.4305    46.639688   -8833.0702    6191.3493 
  974000    308.81789   -8778.6074    45.105845   -8823.7132   -25829.578 
  974200     299.9533    -8790.058    43.811087   -8833.8691   -5954.4595 
  974400    298.65442   -8792.0677    43.621373   -8835.6891   -10774.778 
  974600    337.09167   -8773.6324    49.235506   -8822.8679    38053.351 
  974800    323.04912   -8784.5497    47.184455   -8831.7341   -13913.301 
  975000    275.60387   -8789.8013    40.254617   -8830.0559    15152.431 
  975200     283.2669   -8784.8348    41.373876   -8826.2087    -38894.36 
  975400    344.30841   -8778.9985     50.28958   -8829.2881   -51371.338 
  975600    301.27502   -8787.6405    44.004137   -8831.6446   -4542.6967 
  975800    264.86387   -8793.9601    38.685935    -8832.646   -64053.277 
  976000    327.23749   -8778.1036    47.796208   -8825.8998     33122.27 
  976200    295.26961   -8787.6904    43.126988   -8830.8174   -9709.1232 
  976400    260.69093   -8792.5432    38.076436   -8830.6196   -15436.048 
  976600     291.0991   -8785.3527    42.517845   -8827.8706   -2026.6772 
  976800    312.40385   -8775.9235    45.629611   -8821.5531    14248.656 
  977000    283.37342   -8795.6132    41.389434   -8837.0027    24403.247 
  977200    325.30437   -8789.6301    47.513857    -8837.144    23352.106 
  977400    338.29863   -8779.3768    49.411794   -8828.7886    24060.815 
  977600    294.87578   -8783.4525    43.069465   -8826.5219    1331.6054 
  977800    239.16051   -8801.3662     34.93171   -8836.2979   -26666.391 
  978000    257.68989   -8788.2955    37.638106   -8825.9336    74235.133 
  978200    324.03046   -8780.9656     47.32779   -8828.2934    33450.231 
  978400    247.33493   -8794.2362    36.125664   -8830.3619   -37352.248 
  978600    267.87484   -8795.1233    39.125717   -8834.2491   -6407.3406 
  978800    296.26852   -8781.5495    43.272889   -8824.8224    12637.609 
  979000    292.45792   -8786.3295    42.716313   -8829.0459    3452.6973 
  979200     268.0164    -8798.528    39.146393   -8837.6744   -17115.705 
  979400    308.86764   -8783.7171    45.113112   -8828.8302    18062.791 
  979600    329.81882   -8782.5485    48.173235   -8830.7218    39126.498 
  979800    255.11433   -8796.4994    37.261921   -8833.7614   -9320.5676 
  980000     249.1917   -8789.4623    36.396863   -8825.8591    11484.639 
  980200     288.6424   -8784.6209     42.15902   -8826.7799    13535.454 
  980400      292.287   -8783.4429    42.691349   -8826.1343   -13787.686 
  980600    237.60032   -8795.8808     34.70383   -8830.5847   -38327.044 
  980800    301.87033   -8779.8021    44.091087   -8823.8932   -32098.558 
  981000     319.6252   -8782.5226    46.684359    -8829.207   -12818.139 
  981200    274.73196   -8793.4876    40.127265   -8833.6149   -19811.554 
  981400    300.47927   -8790.5753     43.88791   -8834.4633    12710.607 
  981600    292.63229   -8782.4657    42.741783   -8825.2075   -507.41084 
  981800    239.57341   -8801.6124    34.992018   -8836.6045    11196.492 
  982000    266.34701    -8792.583    38.902562   -8831.4855     -30487.2 
  982200    256.73677   -8783.8288    37.498893   -8821.3277   -38998.161 
  982400    338.58552   -8775.0245    49.453696   -8824.4782   -33473.608 
  982600    264.29092   -8792.3439     38.60225   -8830.9461   -6669.1605 
  982800    261.06714   -8785.1062    38.131386   -8823.2376   -13406.766 
  983000    299.16792   -8777.6942    43.696375   -8821.3906    10758.561 
  983200     252.9065    -8798.123    36.939445   -8835.0624   -21668.286 
  983400    294.68281   -8782.3103     43.04128   -8825.3516   -5525.9453 
  983600    361.33623   -8780.6068    52.776658   -8833.3835    21334.676 
  983800    247.97704   -8797.2769     36.21945   -8833.4963   -14720.782 
  984000    343.49418   -8785.0892    50.170655   -8835.2598   -6564.4967 
  984200    283.87321   -8787.1738    41.462434   -8828.6363    8962.9379 
  984400    266.91474   -8791.5561    38.985485   -8830.5416   -28344.424 
  984600    324.88193    -8777.612    47.452155   -8825.0642    21333.263 
  984800    315.74728   -8780.6015    46.117951   -8826.7194    29804.102 
  985000    266.05994   -8793.4278    38.860633   -8832.2884    5026.5368 
  985200    334.44434   -8781.3897    48.848838   -8830.2385    10881.803 
  985400    248.58147   -8796.9572    36.307734   -8833.2649   -19888.067 
  985600    283.25334   -8788.5093    41.371895   -8829.8812   -20093.973 
  985800    277.40069   -8786.0931    40.517059   -8826.6101   -31708.871 
  986000    313.88746   -8782.7299    45.846306   -8828.5763    -6371.808 
  986200    253.85482   -8793.4011    37.077957   -8830.4791   -41969.552 
  986400    246.88605   -8796.8551    36.060101   -8832.9152    45188.547 
  986600    320.84296   -8784.8471    46.862224   -8831.7093    46220.508 
  986800    346.32441   -8789.2255    50.584037   -8839.8095    13782.273 
  987000    260.44533   -8788.0267    38.040564   -8826.0672   -16539.825 
  987200    326.28449   -8776.3823    47.657012   -8824.0394     821.5664 
  987400    268.66034   -8791.0232    39.240447   -8830.2637      3532.85 
  987600    324.41016   -8781.3965    47.383248   -8828.7797    13180.692 
  987800    240.40391    -8796.227    35.113321   -8831.3403   -29508.672 
  988000     278.2321    -8792.064    40.638494   -8832.7025   -53973.499 
  988200    329.73298   -8785.2634    48.160698   -8833.4241      -4682.7 
  988400    390.62249   -8768.8785    57.054201   -8825.9327   -38279.825 
  988600    294.09906   -8785.9158    42.956018   -8828.8719    -22076.73 
  988800     294.2414   -8783.3589    42.976809   -8826.3357    26173.986 
  989000    318.94249    -8771.184    46.584642   -8817.7687     37358.14 
  989200    282.25868   -8789.1754    41.226616    -8830.402   -14003.844 
  989400    284.72859    -8791.222     41.58737   -8832.8094   -28667.933 
  989600    365.12093   -8779.0766    53.329451    -8832.406    14612.363 
  989800    302.21765    -8791.082    44.141817   -8835.2238   -43348.631 
  990000    264.21718   -8791.7492     38.59148   -8830.3407   -24480.022 
  990200    372.77221   -8782.7637    54.446994   -8837.2107   -35329.246 
  990400    305.72528   -8780.7344     44.65414   -8825.3886    7862.7416 
  990600    267.47432   -8792.8214    39.067217   -8831.8886   -7390.7169 
  990800    324.55811   -8779.3994    47.404858   -8826.8043    4352.1515 
  991000    298.22053    -8782.643    43.557998    -8826.201      10306.2 
  991200    274.63756   -8793.3893    40.113477   -8833.5028   -1599.7634 
  991400    273.08169   -8783.9489    39.886228   -8823.8351    8973.8626 
  991600    293.90091   -8788.0865    42.927076   -8831.0135   -27672.496 
  991800    302.66392   -8786.6392    44.206999   -8830.8462   -2513.2681 
  992000    312.37667   -8780.6653    45.625641    -8826.291     33918.35 
  992200    260.41808   -8793.5666    38.036585   -8831.6032    25332.955 
  992400    291.20278    -8789.381    42.532989    -8831.914   -5489.3811 
  992600    295.67288   -8783.3812     43.18589   -8826.5671   -18346.826 
  992800    334.43429    -8776.111     48.84737   -8824.9583   -2242.7866 
  993000    282.77536   -8789.2265    41.302082   -8830.5286    4382.4291 
  993200    303.12054   -8790.5301    44.273692   -8834.8038    26949.298 
  993400    338.28153   -8770.5091    49.409296   -8819.9184    1248.6789 
  993600    303.11312   -8789.9808    44.272609   -8834.2534   -22695.444 
  993800    321.96373   -8786.4058    47.025923   -8833.4317    12383.706 
  994000    313.38952   -8778.8389    45.773577   -8824.6124    5199.1995 
  994200    269.20355   -8786.6093    39.319788   -8825.9291   -36997.709 
  994400    233.57777   -8801.9873    34.116297   -8836.1036   -4888.8545 
  994600    286.74749   -8795.7133    41.882251   -8837.5956   -25523.809 
  994800    361.81738   -8784.7745    52.846935   -8837.6215    4645.6888 
  995000    293.44409   -8788.1617    42.860354    -8831.022    5865.0514 
  995200    219.59049   -8799.7679     32.07332   -8831.8412    9365.0171 
  995400    284.25377   -8785.1272    41.518019   -8826.6452    3566.5428 
  995600    335.63594    -8780.676    49.022881   -8829.6989   -19582.916 
  995800     236.3428   -8791.7245    34.520157   -8826.2447   -43822.178 
  996000     269.9973   -8794.3165    39.435722   -8833.7523    35459.824 
  996200    284.86125   -8781.5796    41.606746   -8823.1863    30520.119 
  996400    317.84069    -8787.337    46.423713   -8833.7607    10472.637 
  996600    255.73664   -8798.6316    37.352814   -8835.9845   -9458.1357 
  996800    297.54738   -8782.3003    43.459679     -8825.76     34676.19 
  997000    339.05104   -8783.5433     49.52169    -8833.065   -3825.2636 
  997200    273.09241   -8794.0928    39.887794   -8833.9806    23448.822 
  997400    352.17588   -8773.5104    51.438701   -8824.9491   -21472.537 
  997600    297.65721   -8787.4522    43.475721   -8830.9279    1108.4313 
  997800    258.89624   -8791.2972    37.814306   -8829.1115     -21556.7 
  998000    337.79705   -8771.2024    49.338533   -8820.5409   -689.59034 
  998200    298.33965   -8783.8006    43.575398    -8827.376    21919.961 
  998400    297.36674   -8788.9612    43.433294   -8832.3945    33486.708 
  998600    310.91763   -8783.3098    45.412534   -8828.7223    10142.454 
  998800    350.89326   -8771.5845    51.251362   -8822.8358    62104.557 
  999000    300.08029   -8789.3885    43.829635   -8833.2182   -9729.0679 
  999200    282.79456   -8782.8279    41.304887   -8824.1328    61424.342 
  999400    367.37418   -8764.3595     53.65856   -8818.0181   -37998.352 
  999600    332.75324   -8781.0971    48.601835   -8829.6989   -26341.692 
  999800    255.38615   -8793.1137    37.301622   -8830.4153    43433.106 
 1000000    280.93721   -8782.9714    41.033602    -8824.005   -5021.8253 
Loop time of 4383.17 on 8 procs for 1000000 steps with 50 atoms

Performance: 4.928 ns/day, 4.870 hours/ns, 228.145 timesteps/s
99.1% CPU use with 8 MPI tasks x no OpenMP threads

MPI task timing breakdown:
Section |  min time  |  avg time  |  max time  |%varavg| %total
---------------------------------------------------------------
Pair    | 3778.6     | 3869.8     | 3944.5     |  87.8 | 88.29
Neigh   | 3.3372     | 3.4286     | 3.524      |   3.1 |  0.08
Comm    | 71.772     | 145.9      | 237.38     | 451.3 |  3.33
Output  | 0.093837   | 0.10335    | 0.16571    |   7.3 |  0.00
Modify  | 359.77     | 360.54     | 361.76     |   3.0 |  8.23
Other   |            | 3.412      |            |       |  0.08

Nlocal:    6.25 ave 8 max 5 min
Histogram: 1 0 0 5 0 0 1 0 0 1
Nghost:    917.25 ave 935 max 907 min
Histogram: 2 1 2 1 0 0 0 0 0 2
Neighs:    1760.5 ave 2206 max 1412 min
Histogram: 1 0 0 5 0 0 0 1 0 1

Total # of neighbors = 14084
Ave neighs/atom = 281.68
Neighbor list builds = 1495
Dangerous builds = 0

Please see the log.cite file for references relevant to this simulation

Total wall time: 1:13:12
