ITEM: TIMESTEP
0
ITEM: NUMBER OF ATOMS
57
ITEM: BOX BOUNDS pp pp pp
0.0000000000000000e+00 3.2808000000000000e+01
0.0000000000000000e+00 1.7780000000000001e+01
0.0000000000000000e+00 2.4729999999999999e+00
ITEM: ATOMS id type x y z 
13 1 7.043 0.849 2.464 
29 1 7.397 1.432 1.228 
37 1 8.035 2.733 1.228 
57 2 5.4 0.972 1.228 
1 1 6.173 17.398 2.464 
5 1 5.371 17.398 1.228 
9 1 3.973 17.398 1.228 
16 1 7.043 16.167 2.464 
32 1 7.397 15.584 1.228 
40 1 8.035 14.283 1.228 
45 1 3.236 17.398 2.464 
49 1 1.81 17.398 2.464 
53 1 1.083 17.398 1.228 
4 1 10.968 8.508 2.464 
8 1 11.771 8.508 1.228 
12 1 13.168 8.508 1.228 
18 1 10.098 7.277 2.464 
21 1 8.308 3.392 2.464 
26 1 8.833 4.734 2.464 
34 1 9.745 6.694 1.228 
42 1 9.106 5.393 1.228 
48 1 13.906 8.508 2.464 
52 1 15.331 8.508 2.464 
56 1 16.058 8.508 1.228 
19 1 10.098 9.739 2.464 
24 1 8.308 13.624 2.464 
27 1 8.833 12.282 2.464 
35 1 9.745 10.322 1.228 
43 1 9.106 11.623 1.228 
3 1 22.577 8.508 2.464 
7 1 21.775 8.508 1.228 
11 1 20.377 8.508 1.228 
20 1 23.447 7.277 2.464 
36 1 23.801 6.694 1.228 
44 1 24.439 5.393 1.228 
47 1 19.64 8.508 2.464 
51 1 18.214 8.508 2.464 
55 1 17.487 8.508 1.228 
17 1 23.447 9.739 2.464 
33 1 23.801 10.322 1.228 
41 1 24.439 11.623 1.228 
15 1 26.502 0.849 2.464 
23 1 25.237 3.392 2.464 
28 1 24.712 4.734 2.464 
31 1 26.149 1.432 1.228 
39 1 25.511 2.733 1.228 
2 1 27.373 17.398 2.464 
6 1 28.175 17.398 1.228 
10 1 29.572 17.398 1.228 
14 1 26.502 16.167 2.464 
22 1 25.237 13.624 2.464 
25 1 24.712 12.282 2.464 
30 1 26.149 15.584 1.228 
38 1 25.511 14.283 1.228 
46 1 30.31 17.398 2.464 
50 1 31.735 17.398 2.464 
54 1 32.462 17.398 1.228 
ITEM: TIMESTEP
10
ITEM: NUMBER OF ATOMS
57
ITEM: BOX BOUNDS pp pp pp
0.0000000000000000e+00 3.2808000000000000e+01
0.0000000000000000e+00 1.7780000000000001e+01
0.0000000000000000e+00 2.4729999999999999e+00
ITEM: ATOMS id type x y z 
13 1 7.13445 0.792924 2.46434 
29 1 7.51954 1.29439 1.22782 
37 1 8.03781 2.68924 1.22769 
57 2 5.13141 1.04038 1.22773 
1 1 6.21714 17.4998 2.46429 
5 1 5.44409 17.474 1.22773 
9 1 3.99309 17.3696 1.22773 
16 1 7.04357 16.2392 2.46434 
32 1 7.41002 15.6064 1.22771 
40 1 8.05157 14.2891 1.22769 
45 1 3.26516 17.3689 2.46431 
49 1 1.78736 17.3864 2.4643 
53 1 1.05471 17.3979 1.2277 
4 1 10.9714 8.50432 2.46427 
8 1 11.7998 8.5071 1.22764 
12 1 13.1983 8.50811 1.2277 
18 1 10.0636 7.28648 2.46432 
21 1 8.29663 3.36033 2.46432 
26 1 8.82112 4.72483 2.4643 
34 1 9.70596 6.66752 1.22773 
42 1 9.0937 5.41465 1.22768 
48 1 13.904 8.50803 2.46432 
52 1 15.3207 8.508 2.46431 
56 1 16.0522 8.508 1.22769 
19 1 10.0641 9.72611 2.46432 
24 1 8.3042 13.6522 2.46431 
27 1 8.82515 12.2824 2.4643 
35 1 9.70975 10.3396 1.22773 
43 1 9.09688 11.5899 1.22769 
3 1 22.573 8.508 2.46427 
7 1 21.7436 8.508 1.22764 
11 1 20.344 8.508 1.2277 
20 1 23.4819 7.28772 2.46432 
36 1 23.8385 6.67267 1.22773 
44 1 24.4465 5.42895 1.22769 
47 1 19.6427 8.508 2.46432 
51 1 18.2259 8.508 2.46431 
55 1 17.4894 8.508 1.22769 
17 1 23.4819 9.72828 2.46432 
33 1 23.8385 10.3433 1.22773 
41 1 24.4465 11.5871 1.22769 
15 1 26.4658 0.838981 2.46432 
23 1 25.2372 3.37115 2.4643 
28 1 24.7115 4.75509 2.4643 
31 1 26.1104 1.45538 1.22773 
39 1 25.5033 2.6976 1.22769 
2 1 27.3704 17.398 2.46427 
6 1 28.2055 17.398 1.22765 
10 1 29.5994 17.398 1.2277 
14 1 26.4658 16.177 2.46432 
22 1 25.2372 13.6449 2.4643 
25 1 24.7115 12.2609 2.4643 
30 1 26.1104 15.5606 1.22773 
38 1 25.5033 14.3184 1.22769 
46 1 30.2928 17.398 2.46432 
50 1 31.7678 17.398 2.4643 
54 1 32.5087 17.3984 1.22768 
ITEM: TIMESTEP
20
ITEM: NUMBER OF ATOMS
57
ITEM: BOX BOUNDS pp pp pp
0.0000000000000000e+00 3.2808000000000000e+01
0.0000000000000000e+00 1.7780000000000001e+01
0.0000000000000000e+00 2.4729999999999999e+00
ITEM: ATOMS id type x y z 
13 1 7.16834 0.726087 2.4643 
29 1 7.65389 1.28199 1.22782 
37 1 8.07896 2.68906 1.22783 
57 2 4.91503 1.05007 1.22774 
1 1 6.27221 17.434 2.46426 
5 1 5.45181 17.4957 1.22781 
9 1 3.99163 17.5356 1.22779 
16 1 7.04608 16.2545 2.46421 
32 1 7.42663 15.6349 1.22782 
40 1 8.06542 14.3036 1.22781 
45 1 3.24789 17.2854 2.46423 
49 1 1.82915 17.3656 2.46421 
53 1 1.08178 17.3988 1.2278 
4 1 10.966 8.5046 2.46418 
8 1 11.7719 8.5046 1.2278 
12 1 13.1947 8.50845 1.22781 
18 1 10.0393 7.2861 2.46421 
21 1 8.29429 3.37188 2.4642 
26 1 8.80972 4.74189 2.4642 
34 1 9.68119 6.67456 1.2278 
42 1 9.07849 5.43472 1.2278 
48 1 13.9123 8.50829 2.46419 
52 1 15.3238 8.50803 2.4642 
56 1 16.045 8.50799 1.2278 
19 1 10.0405 9.72279 2.46421 
24 1 8.31991 13.6415 2.4642 
27 1 8.82322 12.2587 2.46419 
35 1 9.68309 10.3333 1.2278 
43 1 9.08157 11.5697 1.2278 
3 1 22.5758 8.508 2.46419 
7 1 21.7685 8.508 1.2278 
11 1 20.3444 8.508 1.22781 
20 1 23.5039 7.29093 2.46421 
36 1 23.8641 6.6831 1.2278 
44 1 24.4663 5.43892 1.2278 
47 1 19.6389 8.508 2.46419 
51 1 18.2479 8.508 2.4642 
55 1 17.4707 8.508 1.2278 
17 1 23.5039 9.72507 2.46421 
33 1 23.8641 10.3329 1.2278 
41 1 24.4663 11.5771 1.2278 
15 1 26.4386 0.837367 2.46421 
23 1 25.2266 3.36814 2.4642 
28 1 24.7209 4.7612 2.4642 
31 1 26.0826 1.44823 1.2278 
39 1 25.4823 2.69039 1.2278 
2 1 27.3593 17.398 2.46419 
6 1 28.184 17.398 1.2278 
10 1 29.5831 17.398 1.22781 
14 1 26.4386 16.1786 2.46421 
22 1 25.2266 13.6479 2.4642 
25 1 24.7209 12.2548 2.4642 
30 1 26.0826 15.5678 1.2278 
38 1 25.4823 14.3256 1.2278 
46 1 30.3233 17.3979 2.4642 
50 1 31.7839 17.3982 2.46419 
54 1 32.5267 17.4015 1.2278 
ITEM: TIMESTEP
30
ITEM: NUMBER OF ATOMS
57
ITEM: BOX BOUNDS pp pp pp
0.0000000000000000e+00 3.2808000000000000e+01
0.0000000000000000e+00 1.7780000000000001e+01
0.0000000000000000e+00 2.4729999999999999e+00
ITEM: ATOMS id type x y z 
13 1 7.22069 0.702994 2.46429 
29 1 7.69402 1.26472 1.22781 
37 1 8.10415 2.67651 1.2278 
57 2 4.90548 1.07673 1.22775 
1 1 6.25073 17.4186 2.46428 
5 1 5.448 17.5327 1.22779 
9 1 3.9399 17.6336 1.2278 
16 1 7.0437 16.249 2.46423 
32 1 7.44721 15.6483 1.22779 
40 1 8.08236 14.3124 1.22779 
45 1 3.28175 17.2041 2.46423 
49 1 1.85632 17.3313 2.46423 
53 1 1.08332 17.4034 1.22778 
4 1 10.9579 8.50318 2.46421 
8 1 11.7562 8.50278 1.22777 
12 1 13.1858 8.50879 1.22777 
18 1 10.0243 7.28648 2.46422 
21 1 8.28708 3.3694 2.46423 
26 1 8.78924 4.74533 2.46422 
34 1 9.6591 6.68012 1.22778 
42 1 9.0584 5.43813 1.22778 
48 1 13.9241 8.5088 2.46422 
52 1 15.2984 8.50812 2.46423 
56 1 16.0553 8.50795 1.22778 
19 1 10.0274 9.71668 2.46422 
24 1 8.32646 13.6472 2.46423 
27 1 8.81152 12.2615 2.46422 
35 1 9.6616 10.3221 1.22778 
43 1 9.06051 11.5645 1.22778 
3 1 22.5797 8.508 2.46421 
7 1 21.7794 8.508 1.22778 
11 1 20.3493 8.508 1.22777 
20 1 23.5138 7.29592 2.46422 
36 1 23.886 6.69254 1.22778 
44 1 24.4854 5.44678 1.22778 
47 1 19.6296 8.508 2.46422 
51 1 18.2565 8.508 2.46422 
55 1 17.5037 8.50798 1.22778 
17 1 23.5138 9.72008 2.46422 
33 1 23.886 10.3235 1.22778 
41 1 24.4854 11.5692 1.22778 
15 1 26.429 0.830642 2.46422 
23 1 25.2169 3.36481 2.46422 
28 1 24.7306 4.76485 2.46422 
31 1 26.06 1.44001 1.22778 
39 1 25.4636 2.68294 1.22778 
2 1 27.3568 17.398 2.46422 
6 1 28.1865 17.398 1.22778 
10 1 29.5847 17.3979 1.22778 
14 1 26.429 16.1854 2.46422 
22 1 25.2169 13.6512 2.46422 
25 1 24.7306 12.2512 2.46422 
30 1 26.06 15.576 1.22778 
38 1 25.4636 14.3331 1.22778 
46 1 30.3191 17.3975 2.46422 
50 1 31.7897 17.3989 2.46421 
54 1 32.5246 17.4083 1.22778 
ITEM: TIMESTEP
40
ITEM: NUMBER OF ATOMS
57
ITEM: BOX BOUNDS pp pp pp
0.0000000000000000e+00 3.2808000000000000e+01
0.0000000000000000e+00 1.7780000000000001e+01
0.0000000000000000e+00 2.4729999999999999e+00
ITEM: ATOMS id type x y z 
13 1 7.2481 0.696039 2.4643 
29 1 7.7168 1.25357 1.22779 
37 1 8.11868 2.67016 1.22775 
57 2 4.89216 1.09998 1.22775 
1 1 6.24511 17.4148 2.46428 
5 1 5.43742 17.5456 1.22778 
9 1 3.91049 17.6621 1.22775 
16 1 7.03419 16.2418 2.46428 
32 1 7.46099 15.6553 1.22776 
40 1 8.09498 14.3175 1.22775 
45 1 3.31039 17.1969 2.46427 
49 1 1.86528 17.3005 2.46426 
53 1 1.10613 17.4055 1.22775 
4 1 10.9521 8.49855 2.46425 
8 1 11.7498 8.50102 1.22773 
12 1 13.1748 8.50909 1.22774 
18 1 10.0189 7.28916 2.46426 
21 1 8.28309 3.36418 2.46428 
26 1 8.7769 4.75195 2.46426 
34 1 9.64826 6.6865 1.22774 
42 1 9.04205 5.43399 1.22774 
48 1 13.9441 8.50915 2.46425 
52 1 15.3109 8.50821 2.46426 
56 1 16.0414 8.5079 1.22775 
19 1 10.0203 9.71322 2.46426 
24 1 8.33161 13.6496 2.46427 
27 1 8.80476 12.2602 2.46426 
35 1 9.64858 10.315 1.22774 
43 1 9.04681 11.5613 1.22774 
3 1 22.5845 8.508 2.46425 
7 1 21.779 8.508 1.22773 
11 1 20.36 8.508 1.22774 
20 1 23.5197 7.29753 2.46426 
36 1 23.8978 6.70086 1.22774 
44 1 24.4988 5.4504 1.22774 
47 1 19.6204 8.508 2.46425 
51 1 18.2476 8.508 2.46426 
55 1 17.5152 8.50796 1.22774 
17 1 23.5197 9.71847 2.46426 
33 1 23.8978 10.3151 1.22774 
41 1 24.4988 11.5656 1.22774 
15 1 26.4267 0.826607 2.46426 
23 1 25.2103 3.36272 2.46426 
28 1 24.7378 4.76534 2.46426 
31 1 26.0514 1.42654 1.22774 
39 1 25.4511 2.67864 1.22774 
2 1 27.3589 17.398 2.46426 
6 1 28.1869 17.398 1.22774 
10 1 29.5788 17.3978 1.22774 
14 1 26.4267 16.1894 2.46426 
22 1 25.2103 13.6533 2.46426 
25 1 24.7378 12.2507 2.46426 
30 1 26.0514 15.5895 1.22774 
38 1 25.4511 14.3374 1.22774 
46 1 30.3181 17.397 2.46426 
50 1 31.7804 17.3999 2.46426 
54 1 32.519 17.4143 1.22774 
ITEM: TIMESTEP
50
ITEM: NUMBER OF ATOMS
57
ITEM: BOX BOUNDS pp pp pp
0.0000000000000000e+00 3.2808000000000000e+01
0.0000000000000000e+00 1.7780000000000001e+01
0.0000000000000000e+00 2.4729999999999999e+00
ITEM: ATOMS id type x y z 
13 1 7.27931 0.682369 2.46429 
29 1 7.75046 1.24137 1.22779 
37 1 8.13762 2.65857 1.22777 
57 2 4.87104 1.12431 1.22775 
1 1 6.24464 17.4125 2.46428 
5 1 5.43062 17.5732 1.22778 
9 1 3.89602 17.7078 1.22776 
16 1 7.01915 16.2262 2.46426 
32 1 7.47967 15.6619 1.22777 
40 1 8.11307 14.3285 1.22776 
45 1 3.30735 17.1857 2.46426 
49 1 1.88682 17.2559 2.46425 
53 1 1.14507 17.4044 1.22775 
4 1 10.9503 8.49782 2.46424 
8 1 11.7454 8.49926 1.22775 
12 1 13.1717 8.50959 1.22775 
18 1 10.011 7.28969 2.46425 
21 1 8.2806 3.36203 2.46426 
26 1 8.75423 4.75161 2.46425 
34 1 9.63291 6.69405 1.22775 
42 1 9.0213 5.43657 1.22775 
48 1 13.9401 8.50975 2.46425 
52 1 15.304 8.50837 2.46425 
56 1 16.0397 8.50781 1.22776 
19 1 10.0131 9.70871 2.46425 
24 1 8.33997 13.6528 2.46425 
27 1 8.79429 12.2582 2.46425 
35 1 9.63253 10.3023 1.22775 
43 1 9.0268 11.5567 1.22775 
3 1 22.5893 8.508 2.46424 
7 1 21.8034 8.508 1.22775 
11 1 20.3666 8.508 1.22775 
20 1 23.5289 7.29797 2.46425 
36 1 23.9177 6.70722 1.22775 
44 1 24.5188 5.45619 1.22775 
47 1 19.5986 8.50801 2.46424 
51 1 18.2481 8.508 2.46425 
55 1 17.51 8.50792 1.22775 
17 1 23.5289 9.71803 2.46425 
33 1 23.9177 10.3088 1.22775 
41 1 24.5188 11.5598 1.22775 
15 1 26.4219 0.824237 2.46425 
23 1 25.2006 3.3586 2.46425 
28 1 24.7485 4.7671 2.46425 
31 1 26.0342 1.41646 1.22775 
39 1 25.4324 2.67116 1.22775 
2 1 27.3594 17.398 2.46425 
6 1 28.1844 17.3981 1.22775 
10 1 29.5791 17.3974 1.22775 
14 1 26.4219 16.1918 2.46425 
22 1 25.2006 13.6574 2.46425 
25 1 24.7485 12.2489 2.46425 
30 1 26.0343 15.5996 1.22775 
38 1 25.4324 14.3448 1.22775 
46 1 30.3203 17.3959 2.46425 
50 1 31.7769 17.4022 2.46424 
54 1 32.5097 17.4246 1.22775 
ITEM: TIMESTEP
60
ITEM: NUMBER OF ATOMS
57
ITEM: BOX BOUNDS pp pp pp
0.0000000000000000e+00 3.2808000000000000e+01
0.0000000000000000e+00 1.7780000000000001e+01
0.0000000000000000e+00 2.4729999999999999e+00
ITEM: ATOMS id type x y z 
13 1 7.41607 0.641488 2.46428 
29 1 7.86575 1.20471 1.22778 
37 1 8.20628 2.62322 1.22777 
57 2 4.7706 1.23908 1.22775 
1 1 6.29948 17.4006 2.46427 
5 1 5.42457 17.6826 1.22778 
9 1 3.78992 17.8331 1.22775 
16 1 6.96404 16.1452 2.46427 
32 1 7.53753 15.673 1.22777 
40 1 8.19131 14.3609 1.22776 
45 1 3.28029 17.1841 2.46427 
49 1 1.90878 17.1245 2.46425 
53 1 1.14234 17.3625 1.22776 
4 1 10.9272 8.49039 2.46425 
8 1 11.7292 8.4918 1.22775 
12 1 13.147 8.51175 1.22775 
18 1 9.98642 7.28877 2.46425 
21 1 8.28099 3.34861 2.46427 
26 1 8.66018 4.73751 2.46426 
34 1 9.58018 6.71994 1.22775 
42 1 8.9294 5.43681 1.22776 
48 1 13.9135 8.51277 2.46425 
52 1 15.2888 8.50922 2.46425 
56 1 16.0185 8.50727 1.22775 
19 1 9.98761 9.69517 2.46425 
24 1 8.37893 13.6625 2.46426 
27 1 8.7443 12.2686 2.46425 
35 1 9.57297 10.259 1.22775 
43 1 8.94309 11.5494 1.22775 
3 1 22.6311 8.50801 2.46425 
7 1 21.804 8.508 1.22775 
11 1 20.3903 8.50801 1.22775 
20 1 23.5604 7.30542 2.46425 
36 1 23.9932 6.73354 1.22775 
44 1 24.6041 5.47615 1.22775 
47 1 19.6269 8.50807 2.46425 
51 1 18.2221 8.50801 2.46425 
55 1 17.4948 8.5076 1.22775 
17 1 23.5604 9.71059 2.46425 
33 1 23.9932 10.2825 1.22775 
41 1 24.6041 11.5399 1.22775 
15 1 26.4144 0.808123 2.46425 
23 1 25.1585 3.34056 2.46425 
28 1 24.7966 4.76677 2.46425 
31 1 25.9868 1.3594 1.22775 
39 1 25.3551 2.64169 1.22775 
2 1 27.3855 17.3981 2.46425 
6 1 28.1977 17.3981 1.22774 
10 1 29.6048 17.3941 1.22775 
14 1 26.4146 16.2079 2.46425 
22 1 25.1585 13.6755 2.46425 
25 1 24.7967 12.2493 2.46425 
30 1 25.9869 15.6567 1.22775 
38 1 25.3551 14.3743 1.22775 
46 1 30.339 17.3919 2.46425 
50 1 31.8044 17.4222 2.46425 
54 1 32.5468 17.4551 1.22775 
ITEM: TIMESTEP
70
ITEM: NUMBER OF ATOMS
57
ITEM: BOX BOUNDS pp pp pp
0.0000000000000000e+00 3.2808000000000000e+01
0.0000000000000000e+00 1.7780000000000001e+01
0.0000000000000000e+00 2.4729999999999999e+00
ITEM: ATOMS id type x y z 
13 1 7.44398 0.60116 2.46428 
29 1 7.89539 1.17992 1.22778 
37 1 8.22758 2.59851 1.22777 
57 2 4.76849 1.25485 1.22775 
1 1 6.29403 17.4044 2.46427 
5 1 5.43984 17.7469 1.22777 
9 1 3.75266 17.8714 1.22776 
16 1 6.93621 16.1326 2.46427 
32 1 7.53903 15.6789 1.22777 
40 1 8.21959 14.3958 1.22776 
45 1 3.3012 17.1744 2.46426 
49 1 1.88516 17.0881 2.46426 
53 1 1.1754 17.3351 1.22775 
4 1 10.9301 8.49121 2.46425 
8 1 11.7216 8.4899 1.22775 
12 1 13.1552 8.51326 1.22775 
18 1 9.98167 7.28967 2.46425 
21 1 8.27611 3.33868 2.46427 
26 1 8.6279 4.74033 2.46426 
34 1 9.5636 6.72699 1.22775 
42 1 8.88695 5.43838 1.22776 
48 1 13.921 8.51438 2.46425 
52 1 15.2791 8.50969 2.46425 
56 1 16.0216 8.50691 1.22775 
19 1 9.98133 9.69072 2.46425 
24 1 8.39453 13.6731 2.46426 
27 1 8.72753 12.2685 2.46425 
35 1 9.55366 10.2474 1.22775 
43 1 8.90226 11.5446 1.22775 
3 1 22.6332 8.50801 2.46425 
7 1 21.8056 8.508 1.22775 
11 1 20.4133 8.50802 1.22775 
20 1 23.5735 7.30081 2.46425 
36 1 24.0063 6.74453 1.22775 
44 1 24.6312 5.47966 1.22775 
47 1 19.66 8.50813 2.46425 
51 1 18.2153 8.508 2.46425 
55 1 17.4858 8.50736 1.22775 
17 1 23.5735 9.71521 2.46425 
33 1 24.0063 10.2715 1.22775 
41 1 24.6312 11.5364 1.22775 
15 1 26.422 0.804558 2.46425 
23 1 25.1427 3.33714 2.46425 
28 1 24.814 4.76594 2.46425 
31 1 25.9708 1.35618 1.22775 
39 1 25.3302 2.62845 1.22775 
2 1 27.3782 17.3982 2.46425 
6 1 28.2061 17.3976 1.22775 
10 1 29.5962 17.3918 1.22775 
14 1 26.4222 16.2115 2.46425 
22 1 25.1427 13.6789 2.46425 
25 1 24.814 12.2501 2.46425 
30 1 25.9711 15.66 1.22775 
38 1 25.3302 14.3876 1.22775 
46 1 30.3554 17.3924 2.46425 
50 1 31.8022 17.4344 2.46425 
54 1 32.5353 17.4639 1.22775 
ITEM: TIMESTEP
80
ITEM: NUMBER OF ATOMS
57
ITEM: BOX BOUNDS pp pp pp
0.0000000000000000e+00 3.2808000000000000e+01
0.0000000000000000e+00 1.7780000000000001e+01
0.0000000000000000e+00 2.4729999999999999e+00
ITEM: ATOMS id type x y z 
13 1 7.4843 0.579448 2.46428 
29 1 7.91676 1.17667 1.22778 
37 1 8.24187 2.58897 1.22777 
57 2 4.74042 1.30182 1.22776 
1 1 6.29722 17.4375 2.46427 
5 1 5.45322 17.799 1.22777 
9 1 3.78496 17.8751 1.22776 
16 1 6.91782 16.1054 2.46427 
32 1 7.52246 15.6569 1.22777 
40 1 8.2503 14.4061 1.22776 
45 1 3.29525 17.2035 2.46426 
49 1 1.89714 17.0444 2.46425 
53 1 1.16902 17.2889 1.22775 
4 1 10.8922 8.48013 2.46425 
8 1 11.7071 8.48718 1.22775 
12 1 13.109 8.51433 1.22775 
18 1 9.96432 7.27331 2.46425 
21 1 8.29191 3.32959 2.46427 
26 1 8.59804 4.74261 2.46426 
34 1 9.54483 6.71387 1.22775 
42 1 8.8487 5.44422 1.22776 
48 1 13.8867 8.51706 2.46425 
52 1 15.298 8.51039 2.46425 
56 1 16.0327 8.50631 1.22775 
19 1 9.96312 9.69327 2.46425 
24 1 8.42185 13.6855 2.46426 
27 1 8.70339 12.2705 2.46425 
35 1 9.53405 10.2482 1.22775 
43 1 8.87134 11.5408 1.22775 
3 1 22.641 8.50798 2.46425 
7 1 21.8102 8.50798 1.22775 
11 1 20.4217 8.50806 1.22775 
20 1 23.5805 7.31059 2.46425 
36 1 24.0254 6.76045 1.22775 
44 1 24.6753 5.48937 1.22775 
47 1 19.6688 8.50824 2.46425 
51 1 18.2212 8.50797 2.46425 
55 1 17.4965 8.50692 1.22775 
17 1 23.5804 9.70539 2.46425 
33 1 24.0254 10.2555 1.22775 
41 1 24.6753 11.5267 1.22775 
15 1 26.4265 0.80512 2.46425 
23 1 25.1159 3.33878 2.46425 
28 1 24.8427 4.75692 2.46425 
31 1 25.9628 1.32816 1.22775 
39 1 25.2837 2.61561 1.22775 
2 1 27.3971 17.3984 2.46425 
6 1 28.2099 17.3964 1.22775 
10 1 29.612 17.3884 1.22775 
14 1 26.4265 16.211 2.46425 
22 1 25.116 13.6773 2.46425 
25 1 24.8427 12.2593 2.46425 
30 1 25.9631 15.688 1.22775 
38 1 25.2838 14.4004 1.22775 
46 1 30.3651 17.3953 2.46425 
50 1 31.8107 17.4527 2.46425 
54 1 32.5529 17.4722 1.22775 
ITEM: TIMESTEP
90
ITEM: NUMBER OF ATOMS
57
ITEM: BOX BOUNDS pp pp pp
0.0000000000000000e+00 3.2808000000000000e+01
0.0000000000000000e+00 1.7780000000000001e+01
0.0000000000000000e+00 2.4729999999999999e+00
ITEM: ATOMS id type x y z 
13 1 7.51399 0.562821 2.46428 
29 1 7.93712 1.16173 1.22778 
37 1 8.25562 2.57458 1.22777 
57 2 4.7401 1.3191 1.22776 
1 1 6.30116 17.441 2.46427 
5 1 5.48 17.8478 1.22777 
9 1 3.79121 17.8851 1.22776 
16 1 6.90042 16.1017 2.46427 
32 1 7.49151 15.6395 1.22777 
40 1 8.26767 14.4162 1.22776 
45 1 3.30044 17.2187 2.46426 
49 1 1.90363 17.0089 2.46425 
53 1 1.17348 17.2493 1.22775 
4 1 10.8742 8.48883 2.46425 
8 1 11.7051 8.48809 1.22775 
12 1 13.096 8.51427 1.22775 
18 1 9.95235 7.27273 2.46425 
21 1 8.29947 3.32493 2.46427 
26 1 8.56952 4.735 2.46426 
34 1 9.53074 6.71428 1.22775 
42 1 8.80975 5.44098 1.22776 
48 1 13.8446 8.51994 2.46425 
52 1 15.2966 8.51107 2.46425 
56 1 16.0412 8.50586 1.22775 
19 1 9.94368 9.69453 2.46425 
24 1 8.44334 13.6974 2.46426 
27 1 8.68839 12.2691 2.46425 
35 1 9.51708 10.2548 1.22775 
43 1 8.84914 11.5426 1.22775 
3 1 22.6501 8.50798 2.46425 
7 1 21.8218 8.50797 1.22775 
11 1 20.4249 8.50811 1.22775 
20 1 23.5911 7.30944 2.46425 
36 1 24.0411 6.77021 1.22775 
44 1 24.7192 5.48199 1.22775 
47 1 19.6747 8.50838 2.46425 
51 1 18.2286 8.50791 2.46425 
55 1 17.483 8.50635 1.22775 
17 1 23.5911 9.7066 2.46425 
33 1 24.0411 10.2459 1.22775 
41 1 24.7193 11.5342 1.22775 
15 1 26.4268 0.803514 2.46425 
23 1 25.0967 3.32731 2.46425 
28 1 24.8646 4.75386 2.46425 
31 1 25.9552 1.32327 1.22775 
39 1 25.2545 2.59475 1.22775 
2 1 27.3903 17.3984 2.46425 
6 1 28.2185 17.3945 1.22775 
10 1 29.619 17.3864 1.22775 
14 1 26.4261 16.2127 2.46425 
22 1 25.0967 13.6886 2.46425 
25 1 24.8646 12.2623 2.46425 
30 1 25.9553 15.6928 1.22775 
38 1 25.2545 14.4211 1.22775 
46 1 30.3694 17.4001 2.46425 
50 1 31.8131 17.4691 2.46425 
54 1 32.5623 17.4753 1.22775 
ITEM: TIMESTEP
100
ITEM: NUMBER OF ATOMS
57
ITEM: BOX BOUNDS pp pp pp
0.0000000000000000e+00 3.2808000000000000e+01
0.0000000000000000e+00 1.7780000000000001e+01
0.0000000000000000e+00 2.4729999999999999e+00
ITEM: ATOMS id type x y z 
13 1 7.53887 0.549812 2.46427 
29 1 7.95707 1.15753 1.22777 
37 1 8.2667 2.57879 1.22777 
57 2 4.74168 1.33785 1.22776 
1 1 6.31147 17.4549 2.46427 
5 1 5.50006 17.8807 1.22777 
9 1 3.80475 17.8898 1.22776 
16 1 6.88824 16.1002 2.46427 
32 1 7.46126 15.6181 1.22777 
40 1 8.27414 14.4212 1.22776 
45 1 3.29482 17.2371 2.46426 
49 1 1.90006 16.9837 2.46425 
53 1 1.1629 17.2086 1.22775 
4 1 10.8706 8.48367 2.46425 
8 1 11.6875 8.48946 1.22775 
12 1 13.0935 8.51358 1.22775 
18 1 9.94083 7.27024 2.46425 
21 1 8.30982 3.31773 2.46427 
26 1 8.55534 4.74646 2.46426 
34 1 9.52244 6.71121 1.22775 
42 1 8.793 5.44837 1.22776 
48 1 13.8547 8.52092 2.46425 
52 1 15.2921 8.5119 2.46425 
56 1 16.0407 8.50632 1.22775 
19 1 9.93019 9.68903 2.46425 
24 1 8.46349 13.6981 2.46426 
27 1 8.67873 12.2698 2.46425 
35 1 9.51194 10.2509 1.22775 
43 1 8.83941 11.5427 1.22775 
3 1 22.65 8.50792 2.46425 
7 1 21.8313 8.50797 1.22775 
11 1 20.4288 8.50822 1.22775 
20 1 23.6038 7.31267 2.46425 
36 1 24.045 6.76828 1.22775 
44 1 24.7314 5.48078 1.22775 
47 1 19.6701 8.50845 2.46425 
51 1 18.2301 8.5076 2.46425 
55 1 17.4833 8.50592 1.22775 
17 1 23.6037 9.70328 2.46425 
33 1 24.045 10.2476 1.22775 
41 1 24.7314 11.535 1.22775 
15 1 26.4254 0.798199 2.46425 
23 1 25.0808 3.32049 2.46425 
28 1 24.8808 4.75506 2.46425 
31 1 25.9564 1.3258 1.22775 
39 1 25.2389 2.59802 1.22775 
2 1 27.394 17.3983 2.46425 
6 1 28.2114 17.3922 1.22775 
10 1 29.6145 17.3865 1.22775 
14 1 26.424 16.2183 2.46425 
22 1 25.0807 13.6954 2.46425 
25 1 24.8808 12.2607 2.46425 
30 1 25.9559 15.6902 1.22775 
38 1 25.2386 14.4178 1.22775 
46 1 30.3758 17.4084 2.46425 
50 1 31.809 17.4822 2.46425 
54 1 32.564 17.4699 1.22775 
ITEM: TIMESTEP
110
ITEM: NUMBER OF ATOMS
57
ITEM: BOX BOUNDS pp pp pp
0.0000000000000000e+00 3.2808000000000000e+01
0.0000000000000000e+00 1.7780000000000001e+01
0.0000000000000000e+00 2.4729999999999999e+00
ITEM: ATOMS id type x y z 
13 1 7.56553 0.545468 2.46427 
29 1 7.97436 1.15523 1.22777 
37 1 8.27672 2.58146 1.22777 
57 2 4.7473 1.34871 1.22776 
1 1 6.32484 17.4681 2.46427 
5 1 5.51699 17.9064 1.22777 
9 1 3.81736 17.8929 1.22776 
16 1 6.87989 16.1016 2.46427 
32 1 7.43127 15.5974 1.22777 
40 1 8.26999 14.4184 1.22776 
45 1 3.28397 17.2611 2.46426 
49 1 1.89653 16.9647 2.46425 
53 1 1.15302 17.1672 1.22775 
4 1 10.8712 8.48374 2.46425 
8 1 11.6874 8.49089 1.22775 
12 1 13.0936 8.51347 1.22775 
18 1 9.93776 7.27265 2.46425 
21 1 8.31973 3.31887 2.46427 
26 1 8.5451 4.75136 2.46426 
34 1 9.51523 6.71163 1.22775 
42 1 8.78111 5.45501 1.22776 
48 1 13.8561 8.52006 2.46425 
52 1 15.2901 8.51272 2.46425 
56 1 16.0407 8.50729 1.22775 
19 1 9.92419 9.68255 2.46425 
24 1 8.47688 13.7005 2.46426 
27 1 8.67781 12.2675 2.46425 
35 1 9.50889 10.2461 1.22775 
43 1 8.83902 11.539 1.22775 
3 1 22.6496 8.50762 2.46425 
7 1 21.834 8.50791 1.22775 
11 1 20.43 8.50834 1.22775 
20 1 23.609 7.31701 2.46425 
36 1 24.045 6.76921 1.22775 
44 1 24.7345 5.47984 1.22775 
47 1 19.6686 8.50841 2.46425 
51 1 18.2298 8.50712 2.46425 
55 1 17.4824 8.50573 1.22775 
17 1 23.6089 9.69871 2.46425 
33 1 24.045 10.2466 1.22775 
41 1 24.7346 11.5355 1.22775 
15 1 26.422 0.797823 2.46425 
23 1 25.0715 3.31569 2.46425 
28 1 24.8887 4.75954 2.46425 
31 1 25.9594 1.32905 1.22775 
39 1 25.2335 2.59883 1.22775 
2 1 27.3928 17.398 2.46425 
6 1 28.2068 17.39 1.22775 
10 1 29.6105 17.3897 1.22775 
14 1 26.4195 16.2189 2.46425 
22 1 25.0711 13.6997 2.46425 
25 1 24.8888 12.2561 2.46425 
30 1 25.9576 15.687 1.22775 
38 1 25.2324 14.4166 1.22775 
46 1 30.3746 17.4191 2.46425 
50 1 31.8055 17.4914 2.46425 
54 1 32.5624 17.4587 1.22775 
ITEM: TIMESTEP
120
ITEM: NUMBER OF ATOMS
57
ITEM: BOX BOUNDS pp pp pp
0.0000000000000000e+00 3.2808000000000000e+01
0.0000000000000000e+00 1.7780000000000001e+01
0.0000000000000000e+00 2.4729999999999999e+00
ITEM: ATOMS id type x y z 
13 1 7.62474 0.530854 2.46427 
29 1 8.02387 1.15625 1.22777 
37 1 8.30369 2.58283 1.22777 
57 2 4.76939 1.36943 1.22776 
1 1 6.35988 17.4996 2.46427 
5 1 5.56979 17.9583 1.22777 
9 1 3.84394 17.8978 1.22776 
16 1 6.86659 16.1109 2.46427 
32 1 7.35022 15.5476 1.22777 
40 1 8.24069 14.4044 1.22776 
45 1 3.25189 17.3319 2.46426 
49 1 1.89184 16.924 2.46425 
53 1 1.13326 17.0586 1.22775 
4 1 10.8665 8.4807 2.46425 
8 1 11.6879 8.49304 1.22775 
12 1 13.0892 8.51309 1.22775 
18 1 9.92822 7.27269 2.46425 
21 1 8.34334 3.32233 2.46427 
26 1 8.52173 4.7621 2.46426 
34 1 9.49919 6.7195 1.22775 
42 1 8.7486 5.46774 1.22776 
48 1 13.8485 8.51823 2.46425 
52 1 15.2907 8.51461 2.46425 
56 1 16.0382 8.50988 1.22775 
19 1 9.9086 9.67175 2.46425 
24 1 8.4991 13.7049 2.46426 
27 1 8.68532 12.2684 2.46425 
35 1 9.49606 10.2399 1.22775 
43 1 8.83979 11.543 1.22775 
3 1 22.6514 8.50718 2.46425 
7 1 21.8328 8.50771 1.22775 
11 1 20.4302 8.50858 1.22775 
20 1 23.619 7.32133 2.46425 
36 1 24.0526 6.76746 1.22775 
44 1 24.7429 5.48198 1.22775 
47 1 19.6713 8.50819 2.46425 
51 1 18.23 8.5059 2.46425 
55 1 17.4816 8.50544 1.22775 
17 1 23.6186 9.69356 2.46425 
33 1 24.0523 10.2472 1.22775 
41 1 24.7436 11.532 1.22775 
15 1 26.4154 0.801702 2.46425 
23 1 25.0507 3.31625 2.46425 
28 1 24.9037 4.75814 2.46425 
31 1 25.9627 1.33708 1.22775 
39 1 25.2226 2.59428 1.22775 
2 1 27.3872 17.3961 2.46425 
6 1 28.2041 17.3852 1.22775 
10 1 29.6083 17.4037 1.22775 
14 1 26.409 16.2155 2.46425 
22 1 25.0494 13.698 2.46425 
25 1 24.9041 12.256 2.46425 
30 1 25.9567 15.679 1.22775 
38 1 25.2192 14.4204 1.22775 
46 1 30.3701 17.4503 2.46425 
50 1 31.8042 17.5077 2.46425 
54 1 32.5563 17.4198 1.22775 
ITEM: TIMESTEP
130
ITEM: NUMBER OF ATOMS
57
ITEM: BOX BOUNDS pp pp pp
0.0000000000000000e+00 3.2808000000000000e+01
0.0000000000000000e+00 1.7780000000000001e+01
0.0000000000000000e+00 2.4729999999999999e+00
ITEM: ATOMS id type x y z 
13 1 7.63445 0.533401 2.46427 
29 1 8.0381 1.15617 1.22777 
37 1 8.31255 2.5831 1.22777 
57 2 4.77702 1.36827 1.22776 
1 1 6.36835 17.5086 2.46427 
5 1 5.57287 17.9537 1.22777 
9 1 3.84329 17.9063 1.22776 
16 1 6.85809 16.1136 2.46426 
32 1 7.33941 15.549 1.22777 
40 1 8.2198 14.3992 1.22776 
45 1 3.24599 17.3521 2.46426 
49 1 1.89377 16.9256 2.46425 
53 1 1.13318 17.0396 1.22775 
4 1 10.8667 8.4788 2.46425 
8 1 11.6895 8.49182 1.22775 
12 1 13.0893 8.51264 1.22775 
18 1 9.92702 7.27212 2.46425 
21 1 8.34598 3.32371 2.46427 
26 1 8.52046 4.76317 2.46426 
34 1 9.49521 6.72131 1.22775 
42 1 8.74379 5.47017 1.22776 
48 1 13.8471 8.51804 2.46425 
52 1 15.2912 8.5148 2.46425 
56 1 16.037 8.51051 1.22775 
19 1 9.90882 9.67012 2.46425 
24 1 8.48779 13.7028 2.46426 
27 1 8.69713 12.2703 2.46425 
35 1 9.49495 10.2369 1.22775 
43 1 8.84643 11.5441 1.22775 
3 1 22.6522 8.50682 2.46425 
7 1 21.8314 8.50749 1.22775 
11 1 20.4306 8.50844 1.22775 
20 1 23.6171 7.31967 2.46425 
36 1 24.0533 6.76799 1.22775 
44 1 24.7404 5.48354 1.22775 
47 1 19.6716 8.50794 2.46425 
51 1 18.2292 8.50579 2.46425 
55 1 17.4829 8.50576 1.22775 
17 1 23.6167 9.69464 2.46425 
33 1 24.053 10.246 1.22775 
41 1 24.7414 11.5297 1.22775 
15 1 26.4181 0.802566 2.46425 
23 1 25.0544 3.3177 2.46425 
28 1 24.8976 4.75604 2.46425 
31 1 25.9641 1.33684 1.22775 
39 1 25.2267 2.59311 1.22775 
2 1 27.3869 17.3949 2.46425 
6 1 28.2057 17.3864 1.22775 
10 1 29.6069 17.4155 1.22775 
14 1 26.4099 16.2142 2.46425 
22 1 25.0522 13.6959 2.46425 
25 1 24.8983 12.2573 2.46425 
30 1 25.9557 15.6792 1.22775 
38 1 25.2218 14.4212 1.22775 
46 1 30.3689 17.4612 2.46425 
50 1 31.8053 17.4973 2.46425 
54 1 32.5537 17.397 1.22775 
ITEM: TIMESTEP
136
ITEM: NUMBER OF ATOMS
57
ITEM: BOX BOUNDS pp pp pp
0.0000000000000000e+00 3.2808000000000000e+01
0.0000000000000000e+00 1.7780000000000001e+01
0.0000000000000000e+00 2.4729999999999999e+00
ITEM: ATOMS id type x y z 
13 1 7.63712 0.534471 2.46427 
29 1 8.04035 1.15537 1.22777 
37 1 8.31427 2.58362 1.22777 
57 2 4.77925 1.36886 1.22776 
1 1 6.36922 17.5102 2.46427 
5 1 5.57269 17.955 1.22777 
9 1 3.84312 17.9084 1.22776 
16 1 6.85665 16.1137 2.46427 
32 1 7.33677 15.5494 1.22776 
40 1 8.21668 14.3986 1.22776 
45 1 3.24431 17.3549 2.46426 
49 1 1.89409 16.9254 2.46425 
53 1 1.13177 17.0366 1.22775 
4 1 10.8687 8.47804 2.46425 
8 1 11.6869 8.49146 1.22775 
12 1 13.0904 8.51254 1.22775 
18 1 9.9272 7.27268 2.46425 
21 1 8.34659 3.32299 2.46427 
26 1 8.51985 4.76351 2.46426 
34 1 9.4947 6.72183 1.22775 
42 1 8.74294 5.47107 1.22776 
48 1 13.8522 8.518 2.46425 
52 1 15.2895 8.51485 2.46425 
56 1 16.0373 8.51062 1.22775 
19 1 9.90932 9.66886 2.46425 
24 1 8.48606 13.7027 2.46426 
27 1 8.69879 12.2702 2.46425 
35 1 9.49519 10.2359 1.22775 
43 1 8.84777 11.5436 1.22775 
3 1 22.6508 8.50675 2.46425 
7 1 21.8334 8.50745 1.22775 
11 1 20.4298 8.5084 1.22775 
20 1 23.6167 7.32005 2.46425 
36 1 24.0521 6.76932 1.22775 
44 1 24.7405 5.48108 1.22775 
47 1 19.6695 8.50789 2.46425 
51 1 18.2298 8.50579 2.46425 
55 1 17.4818 8.50583 1.22775 
17 1 23.6162 9.69414 2.46425 
33 1 24.0518 10.2446 1.22775 
41 1 24.7417 11.532 1.22775 
15 1 26.4192 0.801261 2.46425 
23 1 25.0553 3.31591 2.46425 
28 1 24.8963 4.75814 2.46425 
31 1 25.9654 1.33588 1.22775 
39 1 25.2265 2.59548 1.22775 
2 1 27.3884 17.3947 2.46425 
6 1 28.2039 17.3868 1.22775 
10 1 29.6074 17.4178 1.22775 
14 1 26.4108 16.2154 2.46425 
22 1 25.0529 13.6975 2.46425 
25 1 24.8972 12.2552 2.46425 
30 1 25.9566 15.6802 1.22775 
38 1 25.2213 14.4187 1.22775 
46 1 30.3693 17.4631 2.46425 
50 1 31.8031 17.4949 2.46425 
54 1 32.5536 17.3926 1.22775 
ITEM: TIMESTEP
140
ITEM: NUMBER OF ATOMS
57
ITEM: BOX BOUNDS pp pp pp
0.0000000000000000e+00 3.2808000000000000e+01
0.0000000000000000e+00 1.7780000000000001e+01
0.0000000000000000e+00 2.4729999999999999e+00
ITEM: ATOMS id type x y z 
13 1 7.64136 0.535042 2.46427 
29 1 8.04908 1.15493 1.22777 
57 2 4.78602 1.37244 1.22776 
5 1 5.57716 0.176608 1.22777 
9 1 3.84252 0.134893 1.22776 
1 1 6.37418 17.5162 2.46427 
49 1 1.89759 16.9233 2.46425 
45 1 3.24238 17.368 2.46426 
16 1 6.8526 16.1175 2.46426 
32 1 7.32844 15.5481 1.22776 
53 1 1.13486 17.0225 1.22775 
4 1 10.8666 8.47744 2.46425 
8 1 11.6898 8.49027 1.22775 
12 1 13.0891 8.51223 1.22775 
18 1 9.92543 7.27137 2.46425 
21 1 8.34945 3.3235 2.46427 
26 1 8.5177 4.76399 2.46426 
34 1 9.49086 6.72163 1.22775 
42 1 8.73852 5.47143 1.22776 
48 1 13.8433 8.51798 2.46425 
52 1 15.2907 8.51514 2.46425 
56 1 16.0371 8.51097 1.22775 
37 1 8.32005 2.58173 1.22777 
19 1 9.90853 9.66769 2.46425 
24 1 8.47779 13.7017 2.46426 
27 1 8.70475 12.2718 2.46425 
35 1 9.49491 10.2344 1.22775 
43 1 8.85284 11.5459 1.22775 
40 1 8.2037 14.3941 1.22776 
3 1 22.6533 8.5065 2.46425 
7 1 21.8301 8.50726 1.22775 
11 1 20.4309 8.50826 1.22775 
20 1 23.6164 7.31909 2.46425 
36 1 24.053 6.76921 1.22775 
55 1 17.4812 8.50599 1.22775 
47 1 19.6736 8.50773 2.46425 
51 1 18.2301 8.50577 2.46425 
17 1 23.616 9.69473 2.46425 
33 1 24.0529 10.2444 1.22775 
15 1 26.4198 0.802824 2.46425 
23 1 25.0551 3.32015 2.46425 
28 1 24.8948 4.75506 2.46425 
31 1 25.9651 1.33649 1.22775 