ITEM: TIMESTEP
0
ITEM: NUMBER OF ATOMS
201
ITEM: BOX BOUNDS pp pp pp
0.0000000000000000e+00 1.6114000000000001e+01
0.0000000000000000e+00 1.6113000000000000e+01
0.0000000000000000e+00 1.6111999999999998e+01
ITEM: ATOMS id type x y z 
5 1 5.384 5.384 5.384 
65 1 5.66 6.662 2.461 
66 1 5.336 7.323 3.711 
68 1 4.865 6.606 4.866 
79 1 5.364 7.322 1.219 
89 1 6.662 2.461 5.66 
90 1 7.323 3.711 5.336 
92 1 6.606 4.866 4.866 
101 1 7.322 1.219 5.364 
109 1 2.461 5.66 6.662 
110 1 3.71 5.336 7.323 
112 1 4.865 4.866 6.606 
121 1 1.218 5.364 7.322 
129 1 6.662 5.66 2.461 
130 1 7.323 5.336 3.711 
137 1 7.322 5.364 1.219 
141 1 2.461 6.662 5.66 
142 1 3.71 7.323 5.336 
149 1 1.218 7.322 5.364 
153 1 5.66 2.461 6.662 
154 1 5.336 3.711 7.323 
161 1 5.364 1.219 7.322 
7 1 6.662 5.66 13.616 
8 1 7.323 5.336 12.366 
10 1 6.606 4.866 11.211 
21 1 7.322 5.364 14.858 
32 1 1.218 7.322 10.713 
40 1 2.461 6.662 10.417 
41 1 3.71 7.323 10.741 
43 1 4.865 6.606 11.211 
47 1 5.364 1.219 8.755 
55 1 5.66 2.461 9.415 
56 1 5.336 3.711 8.754 
58 1 4.865 4.866 9.471 
64 1 5.629 6.643 16.094 
75 1 5.384 5.384 10.693 
118 1 6.643 5.629 16.094 
168 1 5.66 6.662 13.616 
169 1 5.336 7.323 12.366 
176 1 5.364 7.322 14.858 
182 1 7.322 1.219 10.713 
186 1 6.662 2.461 10.417 
187 1 7.323 3.711 10.741 
191 1 1.218 5.364 8.755 
195 1 2.461 5.66 9.415 
196 1 3.71 5.336 8.754 
9 1 7.322 10.713 1.219 
19 1 6.662 10.417 2.461 
20 1 7.323 10.741 3.711 
22 1 6.606 11.211 4.866 
27 1 1.218 8.755 5.364 
35 1 2.461 9.415 5.66 
36 1 3.71 8.754 5.336 
38 1 4.865 9.471 4.866 
44 1 6.643 16.095 5.63 
50 1 5.66 13.616 6.662 
51 1 5.336 12.366 7.323 
53 1 4.865 11.211 6.606 
62 1 5.364 14.858 7.322 
76 1 5.629 16.095 6.643 
81 1 5.384 10.693 5.384 
167 1 5.364 8.755 1.219 
171 1 5.66 9.415 2.461 
172 1 5.336 8.754 3.711 
180 1 6.662 13.616 5.66 
181 1 7.323 12.366 5.336 
188 1 7.322 14.858 5.364 
194 1 1.218 10.713 7.322 
198 1 2.461 10.417 6.662 
199 1 3.71 10.741 7.323 
17 1 5.384 10.693 10.693 
39 1 6.643 16.095 10.448 
49 1 5.629 9.434 16.095 
73 1 5.364 8.755 14.858 
82 1 5.629 16.095 9.434 
83 1 5.66 9.415 13.616 
84 1 5.336 8.754 12.366 
86 1 4.865 9.471 11.211 
91 1 7.322 14.858 10.713 
99 1 6.662 13.616 10.417 
100 1 7.323 12.366 10.741 
102 1 6.606 11.211 11.211 
113 1 6.643 10.448 16.094 
114 1 2.461 10.417 9.415 
115 1 3.71 10.741 8.754 
117 1 4.865 11.211 9.471 
126 1 1.218 10.713 8.755 
131 1 7.322 10.713 14.858 
135 1 6.662 10.417 13.616 
136 1 7.323 10.741 12.366 
144 1 2.461 9.415 10.417 
145 1 3.71 8.754 10.741 
152 1 1.218 8.755 10.713 
158 1 5.364 14.858 8.755 
162 1 5.66 13.616 9.415 
163 1 5.336 12.366 8.754 
3 1 8.755 5.364 1.219 
13 1 9.415 5.66 2.461 
14 1 8.754 5.336 3.711 
16 1 9.471 4.866 4.866 
24 1 16.095 5.629 6.643 
30 1 13.616 6.662 5.66 
31 1 12.367 7.323 5.336 
33 1 11.212 6.606 4.866 
42 1 14.859 7.322 5.364 
52 1 10.713 1.219 7.322 
60 1 10.417 2.461 6.662 
61 1 10.741 3.711 7.323 
63 1 11.212 4.866 6.606 
87 1 10.693 5.384 5.384 
98 1 16.095 6.643 5.63 
170 1 10.713 7.322 1.219 
174 1 10.417 6.662 2.461 
175 1 10.741 7.323 3.711 
179 1 8.755 1.219 5.364 
183 1 9.415 2.461 5.66 
184 1 8.754 3.711 5.336 
192 1 13.616 5.66 6.662 
193 1 12.367 5.336 7.323 
200 1 14.859 5.364 7.322 
201 2 8.755 4.014 1.219 
6 1 16.096 5.629 9.434 
23 1 10.693 5.384 10.693 
59 1 10.448 6.643 16.095 
67 1 10.713 7.322 14.858 
77 1 10.417 6.662 13.616 
78 1 10.741 7.323 12.366 
80 1 11.212 6.606 11.211 
93 1 16.096 6.643 10.448 
94 1 9.415 2.461 10.417 
95 1 8.754 3.711 10.741 
97 1 9.471 4.866 11.211 
106 1 8.755 1.219 10.713 
116 1 14.859 5.364 8.755 
123 1 9.434 5.629 16.094 
124 1 13.616 5.66 9.415 
125 1 12.367 5.336 8.754 
127 1 11.212 4.866 9.471 
134 1 8.755 5.364 14.858 
138 1 9.415 5.66 13.616 
139 1 8.754 5.336 12.366 
143 1 14.859 7.322 10.713 
147 1 13.616 6.662 10.417 
148 1 12.367 7.323 10.741 
156 1 10.417 2.461 9.415 
157 1 10.741 3.711 8.754 
164 1 10.713 1.219 8.755 
11 1 10.693 10.693 5.384 
18 1 16.096 10.448 6.643 
29 1 9.434 16.095 5.63 
70 1 10.448 16.095 6.643 
71 1 10.417 9.415 2.461 
72 1 10.741 8.754 3.711 
74 1 11.212 9.471 4.866 
85 1 10.713 8.755 1.219 
96 1 8.755 14.858 5.364 
103 1 16.095 9.434 5.63 
104 1 9.415 13.616 5.66 
105 1 8.754 12.366 5.336 
107 1 9.471 11.211 4.866 
111 1 14.859 10.713 7.322 
119 1 13.616 10.417 6.662 
120 1 12.367 10.741 7.323 
122 1 11.212 11.211 6.606 
132 1 9.415 10.417 2.461 
133 1 8.754 10.741 3.711 
140 1 8.755 10.713 1.219 
146 1 14.859 8.755 5.364 
150 1 13.616 9.415 5.66 
151 1 12.367 8.754 5.336 
155 1 10.713 14.858 7.322 
159 1 10.417 13.616 6.662 
160 1 10.741 12.366 7.323 
1 1 9.415 10.417 13.616 
2 1 8.754 10.741 12.366 
4 1 9.471 11.211 11.211 
12 1 16.096 10.448 9.434 
15 1 8.755 10.713 14.858 
25 1 13.616 9.415 10.417 
26 1 12.367 8.754 10.741 
28 1 11.212 9.471 11.211 
34 1 9.434 16.095 10.448 
37 1 14.859 8.755 10.713 
45 1 10.417 13.616 9.415 
46 1 10.741 12.366 8.754 
48 1 11.212 11.211 9.471 
54 1 10.448 9.434 16.094 
57 1 10.713 14.858 8.755 
69 1 10.693 10.693 10.693 
88 1 10.448 16.095 9.434 
108 1 16.096 9.434 10.448 
128 1 9.434 10.448 16.094 
165 1 10.417 9.415 13.616 
166 1 10.741 8.754 12.366 
173 1 10.713 8.755 14.858 
177 1 9.415 13.616 10.417 
178 1 8.754 12.366 10.741 
185 1 8.755 14.858 10.713 
189 1 13.616 10.417 9.415 
190 1 12.367 10.741 8.754 
197 1 14.859 10.713 8.755 
ITEM: TIMESTEP
10
ITEM: NUMBER OF ATOMS
201
ITEM: BOX BOUNDS pp pp pp
0.0000000000000000e+00 1.6114000000000001e+01
0.0000000000000000e+00 1.6113000000000000e+01
0.0000000000000000e+00 1.6111999999999998e+01
ITEM: ATOMS id type x y z 
5 1 5.38037 5.38395 5.38556 
65 1 5.64586 6.66977 2.4639 
66 1 5.33511 7.32557 3.7142 
68 1 4.86398 6.60581 4.86891 
79 1 5.35747 7.32444 1.21826 
89 1 6.66113 2.45996 5.65955 
90 1 7.32375 3.70828 5.33754 
92 1 6.60625 4.86598 4.86689 
101 1 7.32198 1.21826 5.3633 
109 1 2.45986 5.65911 6.66186 
110 1 3.70953 5.33655 7.32387 
112 1 4.86466 4.86534 6.60758 
121 1 1.2181 5.36305 7.32232 
129 1 6.6539 5.6615 2.46641 
130 1 7.32163 5.33338 3.71963 
137 1 7.26348 5.37709 1.2196 
141 1 2.45941 6.66125 5.65954 
142 1 3.70891 7.32356 5.33771 
149 1 1.21795 7.32232 5.36315 
153 1 5.65912 2.46057 6.66211 
154 1 5.33656 3.71023 7.32385 
161 1 5.36317 1.21869 7.32236 
7 1 6.66015 5.65681 13.6165 
8 1 7.3227 5.33624 12.3625 
10 1 6.60584 4.86547 11.2094 
21 1 7.31963 5.35956 14.8487 
32 1 1.21829 7.32223 10.7138 
40 1 2.46011 6.66171 10.4176 
41 1 3.70993 7.32313 10.7402 
43 1 4.86494 6.60649 11.2104 
47 1 5.3634 1.21869 8.75498 
55 1 5.65942 2.46066 9.41519 
56 1 5.33651 3.71063 8.75386 
58 1 4.86516 4.8655 9.47002 
64 1 5.6149 6.65049 16.091 
75 1 5.38299 5.38375 10.6927 
118 1 6.63389 5.63003 16.0879 
168 1 5.65752 6.66222 13.6136 
169 1 5.3364 7.32299 12.3652 
176 1 5.35774 7.32441 14.8545 
182 1 7.32203 1.21864 10.7136 
186 1 6.66147 2.46012 10.4174 
187 1 7.32302 3.71025 10.7398 
191 1 1.2183 5.36326 8.75496 
195 1 2.46004 5.65944 9.41547 
196 1 3.7101 5.33647 8.75419 
9 1 7.32213 10.7146 1.21902 
19 1 6.66185 10.4186 2.4609 
20 1 7.32312 10.7406 3.71175 
22 1 6.60676 11.2114 4.86627 
27 1 1.2181 8.75496 5.36336 
35 1 2.45973 9.41579 5.65942 
36 1 3.70979 8.75445 5.33701 
38 1 4.86459 9.47175 4.86753 
44 1 6.64255 16.0946 5.62928 
50 1 5.65946 13.6162 6.66197 
51 1 5.33649 12.3664 7.32337 
53 1 4.86519 11.2116 6.60718 
62 1 5.36331 14.8581 7.3223 
76 1 5.62866 16.0949 6.64291 
81 1 5.38352 10.6941 5.38446 
167 1 5.36142 8.75857 1.21919 
171 1 5.65934 9.41747 2.46106 
172 1 5.33674 8.7575 3.71184 
180 1 6.66149 13.6163 5.65964 
181 1 7.32286 12.3663 5.3368 
188 1 7.322 14.8581 5.36349 
194 1 1.2184 10.7139 7.32226 
198 1 2.46023 10.4179 6.662 
199 1 3.71013 10.7406 7.32326 
17 1 5.3835 10.6933 10.6929 
39 1 6.64266 16.0949 10.4482 
49 1 5.6281 9.43669 16.094 
73 1 5.36172 8.75908 14.8571 
82 1 5.62885 16.0949 9.43428 
83 1 5.65909 9.41685 13.6149 
84 1 5.33637 8.75438 12.3652 
86 1 4.86508 9.47086 11.2105 
91 1 7.32206 14.8581 10.7135 
99 1 6.66177 13.6163 10.4174 
100 1 7.32293 12.3663 10.7403 
102 1 6.60638 11.2113 11.2105 
113 1 6.64264 10.4497 16.0944 
114 1 2.46034 10.4176 9.41526 
115 1 3.71024 10.7406 8.75406 
117 1 4.86532 11.2114 9.47028 
126 1 1.2184 10.7137 8.75498 
131 1 7.322 10.7146 14.8574 
135 1 6.66182 10.4184 13.6157 
136 1 7.32294 10.7406 12.3652 
144 1 2.46018 9.41534 10.4175 
145 1 3.71018 8.75405 10.7404 
152 1 1.21836 8.7549 10.7137 
158 1 5.36349 14.8582 8.75496 
162 1 5.65956 13.6161 9.41514 
163 1 5.33643 12.3662 8.754 
3 1 8.77729 5.30792 1.21974 
13 1 9.43352 5.68928 2.49908 
14 1 8.75462 5.33877 3.71596 
16 1 9.47227 4.86277 4.87479 
24 1 16.0955 5.62837 6.6427 
30 1 13.6185 6.66072 5.65965 
31 1 12.3687 7.32373 5.33878 
33 1 11.213 6.6062 4.8704 
42 1 14.8593 7.32224 5.36293 
52 1 10.7141 1.21848 7.32235 
60 1 10.4184 2.46025 6.66225 
61 1 10.7405 3.71019 7.32385 
63 1 11.2125 4.86489 6.60812 
87 1 10.694 5.38192 5.38528 
98 1 16.0956 6.64236 5.62903 
170 1 10.7241 7.33381 1.21895 
174 1 10.4257 6.66705 2.46241 
175 1 10.7454 7.3322 3.72375 
179 1 8.75479 1.2179 5.36311 
183 1 9.41649 2.45845 5.65974 
184 1 8.75429 3.70912 5.33976 
192 1 13.6173 5.65882 6.66197 
193 1 12.3673 5.33656 7.32374 
200 1 14.8589 5.36283 7.32245 
201 2 8.75943 3.89826 1.22237 
6 1 16.0957 5.62864 9.4346 
23 1 10.6947 5.38371 10.6924 
59 1 10.4585 6.64742 16.0913 
67 1 10.7229 7.33093 14.8454 
77 1 10.4201 6.66108 13.6132 
78 1 10.7407 7.32489 12.3621 
80 1 11.2125 6.60606 11.2091 
93 1 16.0957 6.64257 10.4484 
94 1 9.41546 2.46025 10.4175 
95 1 8.75375 3.70974 10.7394 
97 1 9.47118 4.86478 11.2081 
106 1 8.75469 1.21834 10.7137 
116 1 14.859 5.36324 8.75516 
123 1 9.45432 5.65619 16.0557 
124 1 13.6173 5.65932 9.41558 
125 1 12.3671 5.33659 8.75405 
127 1 11.212 4.86543 9.46986 
134 1 8.75578 5.35807 14.8546 
138 1 9.41782 5.65926 13.6069 
139 1 8.75375 5.33709 12.3625 
143 1 14.8591 7.32222 10.7137 
147 1 13.6175 6.6615 10.4175 
148 1 12.3674 7.32327 10.7398 
156 1 10.4177 2.46044 9.41533 
157 1 10.7404 3.71045 8.75396 
164 1 10.7138 1.21869 8.75519 
11 1 10.693 10.6955 5.38479 
18 1 16.0957 10.4486 6.64283 
29 1 9.43438 16.0946 5.62913 
70 1 10.4485 16.0948 6.64285 
71 1 10.4168 9.41911 2.46232 
72 1 10.7399 8.75907 3.71307 
74 1 11.2131 9.4729 4.86899 
85 1 10.7178 8.75817 1.21895 
96 1 8.75477 14.8579 5.36336 
103 1 16.0956 9.43452 5.62897 
104 1 9.41534 13.6164 5.6595 
105 1 8.75369 12.3665 5.33685 
107 1 9.46987 11.2116 4.86626 
111 1 14.8591 10.714 7.32237 
119 1 13.6171 10.4182 6.66206 
120 1 12.3672 10.7404 7.32355 
122 1 11.2118 11.2117 6.60734 
132 1 9.41495 10.419 2.46134 
133 1 8.7535 10.7405 3.71139 
140 1 8.75455 10.7147 1.21898 
146 1 14.8592 8.75498 5.36313 
150 1 13.6176 9.41607 5.65924 
151 1 12.3681 8.75472 5.33774 
155 1 10.7138 14.8582 7.32227 
159 1 10.4175 13.6164 6.6617 
160 1 10.7403 12.3667 7.32362 
1 1 9.41443 10.4194 13.6152 
2 1 8.75371 10.7406 12.3655 
4 1 9.47042 11.2114 11.2105 
12 1 16.0957 10.4484 9.43448 
15 1 8.75462 10.7148 14.8575 
25 1 13.6171 9.41537 10.4177 
26 1 12.3675 8.75406 10.7401 
28 1 11.212 9.47089 11.2103 
34 1 9.43433 16.0949 10.4482 
37 1 14.8591 8.75489 10.7136 
45 1 10.4174 13.6163 9.41542 
46 1 10.7404 12.3664 8.75403 
48 1 11.2116 11.2114 9.47037 
54 1 10.4481 9.43849 16.093 
57 1 10.7136 14.8582 8.75496 
69 1 10.6932 10.6941 10.6927 
88 1 10.4482 16.0949 9.43453 
108 1 16.0957 9.43443 10.4484 
128 1 9.43451 10.4498 16.0941 
165 1 10.4177 9.4185 13.6125 
166 1 10.7405 8.75508 12.3644 
173 1 10.7171 8.7596 14.856 
177 1 9.41514 13.6162 10.4175 
178 1 8.75379 12.3664 10.7402 
185 1 8.75476 14.8582 10.7136 
189 1 13.617 10.4177 9.41531 
190 1 12.367 10.7405 8.75403 
197 1 14.859 10.7137 8.75503 
ITEM: TIMESTEP
20
ITEM: NUMBER OF ATOMS
201
ITEM: BOX BOUNDS pp pp pp
0.0000000000000000e+00 1.6114000000000001e+01
0.0000000000000000e+00 1.6113000000000000e+01
0.0000000000000000e+00 1.6111999999999998e+01
ITEM: ATOMS id type x y z 
5 1 5.38505 5.38395 5.38463 
65 1 5.64048 6.67251 2.46319 
66 1 5.33236 7.32675 3.71557 
68 1 4.86474 6.60512 4.87169 
79 1 5.35056 7.32723 1.21836 
89 1 6.66271 2.46213 5.65973 
90 1 7.32419 3.71075 5.33443 
92 1 6.60895 4.86755 4.86167 
101 1 7.32194 1.21946 5.36404 
109 1 2.46047 5.65891 6.66276 
110 1 3.71039 5.33567 7.3233 
112 1 4.86556 4.86574 6.60597 
121 1 1.21834 5.36288 7.32256 
129 1 6.65431 5.668 2.45916 
130 1 7.32568 5.33126 3.71113 
137 1 7.2787 5.41169 1.21902 
141 1 2.45959 6.66157 5.66024 
142 1 3.70973 7.32272 5.33893 
149 1 1.21802 7.32239 5.36329 
153 1 5.66044 2.46146 6.66195 
154 1 5.33578 3.71085 7.32303 
161 1 5.36349 1.2194 7.32224 
7 1 6.6643 5.65584 13.6216 
8 1 7.32187 5.3359 12.3658 
10 1 6.60579 4.86607 11.2102 
21 1 7.32467 5.36817 14.8566 
32 1 1.2185 7.32217 10.7138 
40 1 2.46058 6.66198 10.4173 
41 1 3.71054 7.32266 10.7403 
43 1 4.86553 6.60624 11.2103 
47 1 5.36341 1.2191 8.75461 
55 1 5.65974 2.46106 9.41492 
56 1 5.33617 3.71076 8.75328 
58 1 4.86541 4.86553 9.47007 
64 1 5.60966 6.65364 16.0902 
75 1 5.3835 5.38434 10.6921 
118 1 6.63594 5.63843 16.0951 
168 1 5.66181 6.661 13.6143 
169 1 5.33718 7.32177 12.3658 
176 1 5.35366 7.32597 14.852 
182 1 7.32204 1.21891 10.7135 
186 1 6.66179 2.46106 10.4171 
187 1 7.32299 3.7105 10.7402 
191 1 1.21858 5.36325 8.755 
195 1 2.46035 5.65957 9.41517 
196 1 3.71029 5.33612 8.75366 
9 1 7.32267 10.7151 1.21905 
19 1 6.66249 10.4191 2.46097 
20 1 7.32332 10.7405 3.71168 
22 1 6.60686 11.2114 4.86639 
27 1 1.21848 8.75465 5.36341 
35 1 2.45996 9.41554 5.65948 
36 1 3.70957 8.75347 5.33729 
38 1 4.86437 9.47232 4.86778 
44 1 6.64283 16.0954 5.62913 
50 1 5.65928 13.6166 6.66208 
51 1 5.33658 12.3668 7.32374 
53 1 4.86531 11.2118 6.60774 
62 1 5.36307 14.8586 7.32232 
76 1 5.62892 16.0954 6.64298 
81 1 5.38372 10.6948 5.38511 
167 1 5.36079 8.76081 1.21873 
171 1 5.65882 9.41865 2.46188 
172 1 5.33588 8.75898 3.71211 
180 1 6.66147 13.6166 5.65957 
181 1 7.3229 12.3666 5.33716 
188 1 7.3221 14.8586 5.3635 
194 1 1.21831 10.7141 7.32239 
198 1 2.46012 10.4177 6.66196 
199 1 3.70975 10.7404 7.32347 
17 1 5.38321 10.6926 10.6927 
39 1 6.64266 16.0951 10.448 
49 1 5.62784 9.4379 16.0931 
73 1 5.36072 8.76074 14.856 
82 1 5.62898 16.0954 9.43431 
83 1 5.65836 9.41768 13.6137 
84 1 5.33623 8.75341 12.3654 
86 1 4.86564 9.46996 11.2108 
91 1 7.32213 14.8586 10.7137 
99 1 6.66165 13.6163 10.4175 
100 1 7.32284 12.3665 10.7397 
102 1 6.60597 11.2111 11.2099 
113 1 6.64303 10.4499 16.0943 
114 1 2.46023 10.4174 9.41544 
115 1 3.71013 10.7404 8.75403 
117 1 4.86544 11.2111 9.47025 
126 1 1.21828 10.7138 8.75486 
131 1 7.32224 10.7153 14.8575 
135 1 6.66193 10.419 13.6154 
136 1 7.32248 10.7405 12.3649 
144 1 2.46043 9.41491 10.4176 
145 1 3.71037 8.75352 10.7405 
152 1 1.21873 8.75475 10.7138 
158 1 5.36315 14.8585 8.75479 
162 1 5.65936 13.6163 9.41525 
163 1 5.33657 12.3664 8.75417 
3 1 8.78008 5.22936 1.22113 
13 1 9.41409 5.69735 2.48475 
14 1 8.75901 5.3477 3.7129 
16 1 9.47096 4.86563 4.87329 
24 1 16.0957 5.62849 6.64299 
30 1 13.6184 6.66127 5.66032 
31 1 12.3686 7.32407 5.34088 
33 1 11.2115 6.60814 4.87187 
42 1 14.8594 7.32232 5.36306 
52 1 10.7144 1.2182 7.32233 
60 1 10.418 2.46021 6.66217 
61 1 10.741 3.70963 7.32374 
63 1 11.2121 4.86479 6.60737 
87 1 10.6926 5.3838 5.38656 
98 1 16.0961 6.64242 5.6289 
170 1 10.7177 7.33008 1.21756 
174 1 10.4101 6.67024 2.46357 
175 1 10.7456 7.33267 3.72327 
179 1 8.75448 1.21847 5.36345 
183 1 9.41523 2.45944 5.66057 
184 1 8.75405 3.71028 5.33978 
192 1 13.6173 5.65861 6.6623 
193 1 12.3672 5.33603 7.32358 
200 1 14.8593 5.36249 7.32267 
201 2 8.79143 3.82416 1.22774 
6 1 16.0958 5.62873 9.43459 
23 1 10.6941 5.38346 10.6914 
59 1 10.4453 6.65196 16.0898 
67 1 10.7226 7.33219 14.8461 
77 1 10.4204 6.66332 13.6123 
78 1 10.7401 7.32503 12.3596 
80 1 11.2121 6.60585 11.207 
93 1 16.0961 6.64275 10.4483 
94 1 9.41517 2.45987 10.4171 
95 1 8.75333 3.70979 10.7384 
97 1 9.47066 4.86517 11.2065 
106 1 8.75455 1.2183 10.7138 
116 1 14.8591 5.36295 8.75504 
123 1 9.43791 5.6637 16.0724 
124 1 13.6174 5.65925 9.41543 
125 1 12.3673 5.33638 8.75352 
127 1 11.2122 4.865 9.46943 
134 1 8.75928 5.36978 14.8584 
138 1 9.41519 5.66481 13.6082 
139 1 8.75372 5.33843 12.3623 
143 1 14.8593 7.32236 10.714 
147 1 13.6178 6.66152 10.4173 
148 1 12.3677 7.32316 10.7389 
156 1 10.4178 2.4602 9.41511 
157 1 10.7407 3.71 8.75369 
164 1 10.714 1.21855 8.75521 
11 1 10.693 10.6965 5.38576 
18 1 16.0959 10.4484 6.64296 
29 1 9.43418 16.0948 5.62908 
70 1 10.4482 16.0949 6.64287 
71 1 10.4164 9.41754 2.4614 
72 1 10.7406 8.76022 3.71482 
74 1 11.2145 9.47506 4.87096 
85 1 10.7188 8.75508 1.21911 
96 1 8.7546 14.8581 5.36328 
103 1 16.0957 9.43452 5.62884 
104 1 9.41519 13.6164 5.65965 
105 1 8.75343 12.3666 5.33705 
107 1 9.46943 11.2118 4.8665 
111 1 14.8592 10.7144 7.3224 
119 1 13.6175 10.4185 6.66235 
120 1 12.3677 10.7405 7.32369 
122 1 11.212 11.2125 6.60846 
132 1 9.41558 10.4183 2.46159 
133 1 8.7535 10.7404 3.71146 
140 1 8.75492 10.7143 1.21911 
146 1 14.8597 8.75472 5.36323 
150 1 13.6184 9.41635 5.65939 
151 1 12.3683 8.75474 5.3391 
155 1 10.714 14.8584 7.32227 
159 1 10.4175 13.6166 6.66186 
160 1 10.7402 12.3675 7.32411 
1 1 9.41438 10.4208 13.6147 
2 1 8.75294 10.7408 12.3645 
4 1 9.47 11.2115 11.2097 
12 1 16.0958 10.4484 9.43435 
15 1 8.75441 10.7151 14.8576 
25 1 13.6177 9.41549 10.4177 
26 1 12.3677 8.754 10.7393 
28 1 11.2124 9.47124 11.2085 
34 1 9.4341 16.0949 10.4483 
37 1 14.8594 8.7548 10.7138 
45 1 10.4177 13.6166 9.41545 
46 1 10.7403 12.3668 8.75433 
48 1 11.2118 11.2118 9.46951 
54 1 10.4483 9.43664 16.0931 
57 1 10.7138 14.8584 8.75508 
69 1 10.6932 10.6944 10.6921 
88 1 10.4483 16.0948 9.43437 
108 1 16.0956 9.43427 10.4484 
128 1 9.43501 10.4494 16.0941 
165 1 10.4181 9.42054 13.6119 
166 1 10.7398 8.75633 12.3631 
173 1 10.7197 8.76083 14.8541 
177 1 9.41504 13.6166 10.4176 
178 1 8.75363 12.3666 10.7396 
185 1 8.75471 14.8583 10.7139 
189 1 13.6174 10.418 9.41516 
190 1 12.3674 10.7403 8.75419 
197 1 14.8591 10.714 8.75516 
ITEM: TIMESTEP
30
ITEM: NUMBER OF ATOMS
201
ITEM: BOX BOUNDS pp pp pp
0.0000000000000000e+00 1.6114000000000001e+01
0.0000000000000000e+00 1.6113000000000000e+01
0.0000000000000000e+00 1.6111999999999998e+01
ITEM: ATOMS id type x y z 
5 1 5.38604 5.3859 5.38428 
65 1 5.63433 6.67498 2.46212 
66 1 5.33013 7.32744 3.71314 
68 1 4.86619 6.6059 4.87252 
79 1 5.34157 7.32961 1.21873 
89 1 6.66414 2.46374 5.65931 
90 1 7.32669 3.71048 5.33273 
92 1 6.60986 4.86703 4.85788 
101 1 7.32245 1.22019 5.36431 
109 1 2.46075 5.65866 6.66296 
110 1 3.71151 5.33553 7.32234 
112 1 4.86717 4.86682 6.60439 
121 1 1.21859 5.36299 7.32289 
129 1 6.66252 5.67985 2.45089 
130 1 7.32269 5.33397 3.70925 
137 1 7.28442 5.43284 1.21864 
141 1 2.45968 6.66129 5.66135 
142 1 3.71078 7.32243 5.34098 
149 1 1.21834 7.32211 5.36382 
153 1 5.66171 2.46199 6.66148 
154 1 5.33622 3.7114 7.32218 
161 1 5.36454 1.21997 7.32173 
7 1 6.66502 5.65697 13.623 
8 1 7.32378 5.33382 12.367 
10 1 6.60651 4.86644 11.2129 
21 1 7.32267 5.37519 14.8587 
32 1 1.21919 7.32213 10.7134 
40 1 2.46116 6.6618 10.4167 
41 1 3.71128 7.32235 10.7408 
43 1 4.86611 6.60558 11.2104 
47 1 5.36392 1.21946 8.75462 
55 1 5.66053 2.46139 9.4149 
56 1 5.33583 3.71138 8.75353 
58 1 4.86571 4.86617 9.47024 
64 1 5.60288 6.65708 16.0916 
75 1 5.38418 5.38464 10.692 
118 1 6.64543 5.65318 16.1026 
168 1 5.66186 6.66304 13.6147 
169 1 5.3388 7.32135 12.3659 
176 1 5.35085 7.32701 14.8532 
182 1 7.32169 1.21969 10.713 
186 1 6.6621 2.46136 10.4168 
187 1 7.32304 3.71042 10.7405 
191 1 1.21897 5.36349 8.75525 
195 1 2.46108 5.65996 9.41441 
196 1 3.711 5.33577 8.7532 
9 1 7.32386 10.7147 1.21866 
19 1 6.66346 10.4201 2.46121 
20 1 7.32402 10.7407 3.71211 
22 1 6.60667 11.2117 4.867 
27 1 1.21871 8.75433 5.36344 
35 1 2.46026 9.41515 5.65983 
36 1 3.71001 8.75339 5.33803 
38 1 4.86438 9.47271 4.86798 
44 1 6.64309 16.096 5.62959 
50 1 5.65952 13.6168 6.66247 
51 1 5.33639 12.3672 7.32432 
53 1 4.86539 11.2124 6.60834 
62 1 5.36337 14.8589 7.3223 
76 1 5.62934 16.0958 6.64301 
81 1 5.38396 10.6952 5.38581 
167 1 5.35867 8.76562 1.21853 
171 1 5.65813 9.41958 2.46146 
172 1 5.33433 8.7601 3.71277 
180 1 6.66138 13.6173 5.66015 
181 1 7.32267 12.3671 5.33726 
188 1 7.3219 14.859 5.36388 
194 1 1.2187 10.7139 7.3225 
198 1 2.46046 10.4175 6.66219 
199 1 3.71017 10.7408 7.32374 
17 1 5.38357 10.692 10.6922 
39 1 6.64279 16.0955 10.4477 
49 1 5.62761 9.43863 16.0926 
73 1 5.35936 8.76238 14.8553 
82 1 5.62924 16.0955 9.43383 
83 1 5.65819 9.41816 13.6137 
84 1 5.33645 8.75252 12.3647 
86 1 4.86609 9.46891 11.2106 
91 1 7.32173 14.8588 10.7135 
99 1 6.66154 13.6168 10.4172 
100 1 7.32236 12.3663 10.7393 
102 1 6.60537 11.2112 11.2089 
113 1 6.6441 10.4508 16.094 
114 1 2.46042 10.4172 9.41519 
115 1 3.71041 10.7405 8.75411 
117 1 4.86546 11.211 9.4701 
126 1 1.21872 10.7136 8.755 
131 1 7.32289 10.7154 14.8569 
135 1 6.66219 10.4195 13.6153 
136 1 7.3223 10.7407 12.3646 
144 1 2.46073 9.41448 10.4175 
145 1 3.71071 8.75283 10.7405 
152 1 1.21891 8.75445 10.7137 
158 1 5.36338 14.8586 8.75498 
162 1 5.65931 13.6166 9.415 
163 1 5.33629 12.3664 8.75433 
3 1 8.78756 5.15236 1.22261 
13 1 9.41156 5.69081 2.48873 
14 1 8.75673 5.35279 3.70838 
16 1 9.47227 4.86822 4.87213 
24 1 16.0959 5.62872 6.64343 
30 1 13.617 6.66236 5.66114 
31 1 12.3676 7.32511 5.3412 
33 1 11.2098 6.61171 4.86885 
42 1 14.8589 7.32208 5.36379 
52 1 10.714 1.21841 7.3222 
60 1 10.417 2.46003 6.6616 
61 1 10.7415 3.71031 7.32257 
63 1 11.2119 4.86528 6.60728 
87 1 10.6903 5.38535 5.38699 
98 1 16.0958 6.64236 5.62931 
170 1 10.7119 7.33253 1.21956 
174 1 10.3875 6.67058 2.46095 
175 1 10.7418 7.33185 3.72312 
179 1 8.75475 1.21967 5.36427 
183 1 9.41425 2.46137 5.66103 
184 1 8.75624 3.71336 5.33699 
192 1 13.6175 5.65897 6.66212 
193 1 12.3669 5.33547 7.32274 
200 1 14.8596 5.36268 7.32269 
201 2 8.82806 3.77331 1.23348 
6 1 16.096 5.62888 9.43422 
23 1 10.6925 5.38339 10.6905 
59 1 10.4241 6.6505 16.0947 
67 1 10.7153 7.33231 14.8487 
77 1 10.4216 6.66654 13.6126 
78 1 10.7405 7.32727 12.3566 
80 1 11.211 6.60708 11.206 
93 1 16.0963 6.64289 10.4482 
94 1 9.41431 2.46056 10.4165 
95 1 8.75367 3.71055 10.7384 
97 1 9.47005 4.86636 11.2071 
106 1 8.7547 1.2191 10.7134 
116 1 14.8595 5.36296 8.7549 
123 1 9.43789 5.65691 16.0688 
124 1 13.6176 5.65917 9.41478 
125 1 12.3672 5.33587 8.75345 
127 1 11.2123 4.86499 9.46941 
134 1 8.75892 5.37678 14.8658 
138 1 9.41458 5.67168 13.6078 
139 1 8.75451 5.33974 12.3644 
143 1 14.8595 7.32225 10.7138 
147 1 13.618 6.66159 10.4168 
148 1 12.3679 7.32332 10.7378 
156 1 10.4171 2.45993 9.41559 
157 1 10.7412 3.70996 8.7537 
164 1 10.714 1.21848 8.75488 
11 1 10.6936 10.6956 5.38578 
18 1 16.0962 10.4484 6.64302 
29 1 9.43341 16.0956 5.6293 
70 1 10.4478 16.0952 6.64251 
71 1 10.4165 9.41715 2.46314 
72 1 10.742 8.75824 3.7154 
74 1 11.2151 9.47523 4.87125 
85 1 10.7191 8.75659 1.2197 
96 1 8.75435 14.8588 5.36352 
103 1 16.0961 9.43427 5.62891 
104 1 9.41473 13.6169 5.65986 
105 1 8.7532 12.3668 5.33711 
107 1 9.46969 11.2118 4.8667 
111 1 14.8597 10.7147 7.32258 
119 1 13.6178 10.4188 6.66235 
120 1 12.3677 10.7409 7.32369 
122 1 11.2122 11.2128 6.60873 
132 1 9.41567 10.417 2.46138 
133 1 8.7541 10.7405 3.71243 
140 1 8.755 10.7133 1.21965 
146 1 14.8598 8.75436 5.36336 
150 1 13.619 9.41623 5.65999 
151 1 12.3673 8.75554 5.34031 
155 1 10.7139 14.8586 7.32219 
159 1 10.4171 13.6171 6.66184 
160 1 10.7403 12.3679 7.32413 
1 1 9.41521 10.4204 13.6147 
2 1 8.75332 10.7412 12.364 
4 1 9.46951 11.2114 11.2092 
12 1 16.0961 10.4484 9.43427 
15 1 8.75471 10.7147 14.8563 
25 1 13.6179 9.41528 10.4177 
26 1 12.3675 8.75402 10.7388 
28 1 11.213 9.4721 11.2065 
34 1 9.43372 16.0952 10.4481 
37 1 14.8596 8.75456 10.7139 
45 1 10.4177 13.6172 9.41589 
46 1 10.7404 12.3674 8.75434 
48 1 11.212 11.2119 9.46936 
54 1 10.4495 9.43655 16.092 
57 1 10.7139 14.8586 8.75506 
69 1 10.693 10.6943 10.6916 
88 1 10.448 16.095 9.43465 
108 1 16.0961 9.43386 10.4485 
128 1 9.43487 10.4483 16.0939 
165 1 10.4183 9.42136 13.6109 
166 1 10.7392 8.75743 12.362 
173 1 10.7211 8.75943 14.8528 
177 1 9.41467 13.6168 10.4177 
178 1 8.75291 12.3665 10.7391 
185 1 8.7544 14.8588 10.714 
189 1 13.6178 10.418 9.41529 
190 1 12.3677 10.7404 8.75407 
197 1 14.8593 10.7143 8.75529 
ITEM: TIMESTEP
40
ITEM: NUMBER OF ATOMS
201
ITEM: BOX BOUNDS pp pp pp
0.0000000000000000e+00 1.6114000000000001e+01
0.0000000000000000e+00 1.6113000000000000e+01
0.0000000000000000e+00 1.6111999999999998e+01
ITEM: ATOMS id type x y z 
5 1 5.38706 5.38569 5.38373 
65 1 5.63573 6.6747 2.4601 
66 1 5.32892 7.3275 3.71247 
68 1 4.8665 6.6066 4.87172 
79 1 5.3377 7.33123 1.21869 
89 1 6.66446 2.46433 5.65924 
90 1 7.32592 3.71212 5.33105 
92 1 6.60965 4.86755 4.85579 
101 1 7.3221 1.22039 5.36424 
109 1 2.46109 5.65855 6.66275 
110 1 3.71201 5.33544 7.32225 
112 1 4.86751 4.86697 6.60458 
121 1 1.21874 5.3629 7.32267 
129 1 6.66505 5.68504 2.45141 
130 1 7.32287 5.33578 3.70632 
137 1 7.2999 5.42755 1.21948 
141 1 2.45998 6.66151 5.66153 
142 1 3.71098 7.32264 5.34145 
149 1 1.21848 7.32178 5.36406 
153 1 5.6622 2.46241 6.66156 
154 1 5.33652 3.7118 7.32207 
161 1 5.36497 1.22056 7.32168 
7 1 6.66441 5.65842 13.6224 
8 1 7.32327 5.33374 12.3687 
10 1 6.60706 4.86632 11.2138 
21 1 7.32347 5.37809 14.8607 
32 1 1.21936 7.32189 10.7133 
40 1 2.4613 6.66173 10.4167 
41 1 3.71141 7.32209 10.7409 
43 1 4.86663 6.60559 11.2108 
47 1 5.36415 1.21973 8.75421 
55 1 5.66026 2.46182 9.41434 
56 1 5.33604 3.71138 8.75314 
58 1 4.86625 4.86616 9.47022 
64 1 5.60406 6.65814 16.0928 
75 1 5.38509 5.38425 10.6924 
118 1 6.6469 5.65937 16.1044 
168 1 5.66214 6.66344 13.616 
169 1 5.33913 7.32146 12.3665 
176 1 5.35022 7.32716 14.8534 
182 1 7.3218 1.21955 10.7131 
186 1 6.66208 2.46185 10.4168 
187 1 7.32297 3.71148 10.7411 
191 1 1.21901 5.36336 8.75527 
195 1 2.46163 5.65999 9.41427 
196 1 3.71133 5.33595 8.75296 
9 1 7.32392 10.7146 1.21889 
19 1 6.66355 10.4197 2.46133 
20 1 7.32379 10.7408 3.71206 
22 1 6.60673 11.2118 4.86701 
27 1 1.21867 8.75445 5.36359 
35 1 2.46061 9.41489 5.65996 
36 1 3.71023 8.75349 5.33842 
38 1 4.86443 9.47272 4.86806 
44 1 6.64319 16.0964 5.62952 
50 1 5.65958 13.6171 6.66242 
51 1 5.33645 12.3673 7.32415 
53 1 4.86548 11.2122 6.60805 
62 1 5.36337 14.8592 7.32226 
76 1 5.62935 16.0962 6.64311 
81 1 5.38424 10.6951 5.3857 
167 1 5.35753 8.76605 1.21875 
171 1 5.65831 9.42075 2.46182 
172 1 5.33402 8.75999 3.71178 
180 1 6.6615 13.6172 5.66015 
181 1 7.32255 12.3671 5.33721 
188 1 7.3217 14.8592 5.36387 
194 1 1.2188 10.7138 7.32238 
198 1 2.46056 10.4174 6.66218 
199 1 3.71008 10.7407 7.3236 
17 1 5.38367 10.6919 10.6921 
39 1 6.64269 16.0956 10.4476 
49 1 5.62761 9.43969 16.0925 
73 1 5.3593 8.76182 14.8555 
82 1 5.62919 16.0958 9.43367 
83 1 5.65843 9.41817 13.6136 
84 1 5.33692 8.75253 12.3651 
86 1 4.86631 9.4687 11.2106 
91 1 7.32177 14.8588 10.7135 
99 1 6.66147 13.6168 10.4173 
100 1 7.32218 12.3663 10.7392 
102 1 6.6058 11.211 11.2092 
113 1 6.64425 10.4505 16.0938 
114 1 2.46051 10.4169 9.41549 
115 1 3.71026 10.7403 8.75412 
117 1 4.86559 11.2109 9.47029 
126 1 1.21874 10.7136 8.75513 
131 1 7.32311 10.7154 14.8567 
135 1 6.66224 10.4192 13.6149 
136 1 7.32242 10.7408 12.3647 
144 1 2.46104 9.41442 10.4173 
145 1 3.71068 8.75271 10.7405 
152 1 1.21897 8.75452 10.7137 
158 1 5.36327 14.8589 8.75486 
162 1 5.65921 13.6168 9.41522 
163 1 5.3363 12.3666 8.75465 
3 1 8.78925 5.15704 1.22224 
13 1 9.40812 5.68058 2.47763 
14 1 8.75532 5.35162 3.7116 
16 1 9.47103 4.86919 4.87134 
24 1 16.0961 5.62879 6.64327 
30 1 13.6164 6.66273 5.66108 
31 1 12.3667 7.32503 5.34011 
33 1 11.2095 6.61217 4.86756 
42 1 14.8589 7.32185 5.36411 
52 1 10.7139 1.21848 7.32228 
60 1 10.4173 2.46038 6.66173 
61 1 10.7414 3.71038 7.32288 
63 1 11.2116 4.86573 6.60684 
87 1 10.6907 5.38651 5.38653 
98 1 16.0955 6.64257 5.62939 
170 1 10.7039 7.33089 1.22052 
174 1 10.383 6.67256 2.46341 
175 1 10.738 7.33126 3.72037 
179 1 8.75475 1.21986 5.36402 
183 1 9.41477 2.46165 5.66064 
184 1 8.75619 3.71357 5.3364 
192 1 13.6174 5.65923 6.66206 
193 1 12.3673 5.33573 7.32281 
200 1 14.8592 5.36279 7.32223 
201 2 8.83603 3.76081 1.23519 
6 1 16.0961 5.629 9.43438 
23 1 10.692 5.3839 10.6907 
59 1 10.4207 6.65219 16.0943 
67 1 10.7105 7.33201 14.8507 
77 1 10.4215 6.66778 13.6125 
78 1 10.7406 7.3276 12.3578 
80 1 11.2109 6.60777 11.2057 
93 1 16.0963 6.6428 10.4481 
94 1 9.41444 2.46095 10.4165 
95 1 8.75366 3.71159 10.739 
97 1 9.46965 4.86676 11.2082 
106 1 8.75446 1.21917 10.7134 
116 1 14.8595 5.36287 8.75499 
123 1 9.4338 5.64534 16.081 
124 1 13.6173 5.65912 9.41474 
125 1 12.3675 5.33588 8.75348 
127 1 11.2122 4.86502 9.46935 
134 1 8.75895 5.37524 14.8616 
138 1 9.41365 5.67329 13.6086 
139 1 8.75402 5.33982 12.3644 
143 1 14.8595 7.32201 10.7136 
147 1 13.6179 6.66168 10.4166 
148 1 12.3676 7.32328 10.7375 
156 1 10.4173 2.46035 9.41523 
157 1 10.7413 3.70978 8.75348 
164 1 10.714 1.21847 8.75488 
11 1 10.6935 10.6957 5.38585 
18 1 16.0962 10.4482 6.64292 
29 1 9.43353 16.0955 5.62933 
70 1 10.4479 16.0952 6.64256 
71 1 10.4171 9.41638 2.46263 
72 1 10.7415 8.75736 3.71471 
74 1 11.2144 9.47456 4.8705 
85 1 10.7187 8.75697 1.21895 
96 1 8.75443 14.8589 5.36353 
103 1 16.0964 9.43424 5.62916 
104 1 9.41456 13.6169 5.65986 
105 1 8.75343 12.3669 5.33712 
107 1 9.46975 11.2119 4.86678 
111 1 14.8599 10.7147 7.32257 
119 1 13.618 10.4188 6.6623 
120 1 12.3678 10.7411 7.32378 
122 1 11.2123 11.2128 6.60869 
132 1 9.41578 10.4166 2.46168 
133 1 8.75419 10.7405 3.71242 
140 1 8.75589 10.7124 1.21898 
146 1 14.8598 8.75454 5.36349 
150 1 13.6191 9.4164 5.66054 
151 1 12.3679 8.75555 5.34094 
155 1 10.7138 14.8587 7.32231 
159 1 10.4169 13.6172 6.66172 
160 1 10.7403 12.3678 7.32388 
1 1 9.41545 10.4201 13.6145 
2 1 8.75315 10.7412 12.3641 
4 1 9.46932 11.2115 11.2091 
12 1 16.0961 10.448 9.43463 
15 1 8.75537 10.7141 14.8569 
25 1 13.618 9.41545 10.4173 
26 1 12.3679 8.75412 10.7382 
28 1 11.2126 9.47213 11.2066 
34 1 9.43379 16.0953 10.4481 
37 1 14.8596 8.75466 10.7139 