ITEM: TIMESTEP
0
ITEM: NUMBER OF ATOMS
33
ITEM: BOX BOUNDS pp pp pp
0.0000000000000000e+00 7.0970000000000004e+00
0.0000000000000000e+00 7.0970000000000004e+00
0.0000000000000000e+00 2.4588000000000001e+01
ITEM: ATOMS id type x y z 
2 1 3.339 1.632 13.319 
5 1 4.651 1.581 18.133 
7 1 3.391 1.602 15.981 
8 1 2.166 1.581 18.134 
18 1 3.408 1.581 17.416 
21 1 3.338 2.875 12.602 
23 1 3.367 1.619 14.753 
24 1 3.338 0.39 12.601 
17 1 7.023 2.875 24.28 
19 1 6.997 1.619 22.129 
20 1 7.023 0.39 24.281 
22 1 6.957 1.581 19.466 
25 1 5.714 1.581 18.748 
27 1 6.974 1.602 20.9 
28 1 1.102 1.581 18.748 
30 1 7.024 1.631 23.563 
10 1 6.954 5.232 5.122 
13 1 7.023 3.938 0.307 
15 1 6.994 5.194 2.459 
16 1 7.023 6.423 0.307 
26 1 7.022 5.181 1.025 
29 1 5.711 5.232 5.839 
31 1 6.97 5.211 3.688 
32 1 1.098 5.232 5.84 
1 1 4.647 5.232 6.454 
3 1 3.388 5.211 8.606 
4 1 2.163 5.232 6.454 
6 1 3.338 5.182 11.269 
9 1 3.338 3.939 11.986 
11 1 3.365 5.194 9.834 
12 1 3.338 6.423 11.987 
14 1 3.404 5.232 7.171 
33 2 4.438 3.939 11.986 
ITEM: TIMESTEP
10
ITEM: NUMBER OF ATOMS
33
ITEM: BOX BOUNDS pp pp pp
0.0000000000000000e+00 7.0970000000000004e+00
0.0000000000000000e+00 7.0970000000000004e+00
0.0000000000000000e+00 2.4588000000000001e+01
ITEM: ATOMS id type x y z 
2 1 3.31731 1.63935 13.3049 
5 1 4.65196 1.581 18.1355 
7 1 3.3945 1.60177 15.9943 
8 1 2.16596 1.58057 18.1373 
18 1 3.40806 1.58081 17.4326 
21 1 3.26784 2.83159 12.6317 
23 1 3.36171 1.62102 14.7706 
24 1 3.33592 0.381206 12.5936 
17 1 7.02232 2.87633 24.2777 
19 1 6.99576 1.61914 22.1295 
20 1 7.0223 0.391401 24.2835 
22 1 6.95757 1.5812 19.4661 
25 1 5.71627 1.5815 18.7502 
27 1 6.97428 1.60188 20.9013 
28 1 1.09917 1.58143 18.7482 
30 1 7.02396 1.63128 23.5635 
10 1 6.95423 5.23208 5.12103 
13 1 7.02379 3.93663 0.309943 
15 1 6.99425 5.19361 2.45931 
16 1 7.02416 6.42118 0.304519 
26 1 7.02009 5.18143 1.02511 
29 1 5.71019 5.23055 5.83829 
31 1 6.96988 5.21109 3.68787 
32 1 1.09826 5.23201 5.84001 
1 1 4.64859 5.233 6.45399 
3 1 3.39026 5.2114 8.59948 
4 1 2.16118 5.23167 6.45403 
6 1 3.30661 5.24069 11.2207 
9 1 3.40812 3.85921 12.0181 
11 1 3.35931 5.20145 9.83892 
12 1 3.33454 6.40924 11.97 
14 1 3.40431 5.23039 7.18254 
33 2 4.50336 4.01089 11.9435 
ITEM: TIMESTEP
20
ITEM: NUMBER OF ATOMS
33
ITEM: BOX BOUNDS pp pp pp
0.0000000000000000e+00 7.0970000000000004e+00
0.0000000000000000e+00 7.0970000000000004e+00
0.0000000000000000e+00 2.4588000000000001e+01
ITEM: ATOMS id type x y z 
2 1 3.25308 1.60787 13.3152 
5 1 4.65314 1.58046 18.1509 
7 1 3.39822 1.60708 15.9971 
8 1 2.16774 1.58054 18.1509 
18 1 3.41204 1.57909 17.4431 
21 1 3.29816 2.80965 12.612 
23 1 3.33912 1.6202 14.7717 
24 1 3.30539 0.368691 12.5877 
17 1 7.02177 2.87202 24.2876 
19 1 6.99669 1.6192 22.1373 
20 1 7.02147 0.386191 24.2778 
22 1 6.95794 1.58325 19.475 
25 1 5.71973 1.58174 18.7619 
27 1 6.97337 1.6023 20.9095 
28 1 1.09668 1.58104 18.7528 
30 1 7.0239 1.6342 23.5701 
10 1 6.9531 5.23397 5.11351 
13 1 7.02003 3.94281 0.303266 
15 1 6.99411 5.19344 2.45621 
16 1 7.02034 6.42474 0.313332 
26 1 7.02207 5.17841 1.02594 
29 1 5.71203 5.22934 5.83428 
31 1 6.96994 5.21152 3.68558 
32 1 1.09843 5.2323 5.83979 
1 1 4.65466 5.22593 6.45807 
3 1 3.39454 5.23074 8.59688 
4 1 2.15685 5.22636 6.46042 
6 1 3.23376 5.23413 11.2122 
9 1 3.53491 3.87473 12.0101 
11 1 3.31276 5.24671 9.83463 
12 1 3.27899 6.43355 11.9118 
14 1 3.40927 5.22156 7.18102 
33 2 4.62175 3.99425 11.9503 
ITEM: TIMESTEP
26
ITEM: NUMBER OF ATOMS
33
ITEM: BOX BOUNDS pp pp pp
0.0000000000000000e+00 7.0970000000000004e+00
0.0000000000000000e+00 7.0970000000000004e+00
0.0000000000000000e+00 2.4588000000000001e+01
ITEM: ATOMS id type x y z 
2 1 3.25304 1.60828 13.3148 
5 1 4.65293 1.58048 18.1508 
7 1 3.39811 1.60699 15.9969 
8 1 2.16794 1.58037 18.1508 
18 1 3.41203 1.57925 17.4428 
21 1 3.29813 2.80793 12.6132 
23 1 3.339 1.62009 14.772 
24 1 3.30471 0.369846 12.588 
17 1 7.02171 2.87216 24.2875 
19 1 6.99662 1.61922 22.1373 
20 1 7.02144 0.386284 24.278 
22 1 6.95799 1.58323 19.475 
25 1 5.71953 1.5817 18.7619 
27 1 6.97343 1.60235 20.9095 
28 1 1.09692 1.58115 18.7528 
30 1 7.02388 1.63396 23.5701 
10 1 6.9532 5.23402 5.11378 
13 1 7.02017 3.94264 0.303407 
15 1 6.99408 5.19336 2.45629 
16 1 7.02045 6.42466 0.31315 
26 1 7.02193 5.17866 1.0259 
29 1 5.71203 5.2294 5.83432 
31 1 6.96995 5.21159 3.68552 
32 1 1.09847 5.23194 5.83979 
1 1 4.65467 5.22587 6.458 
3 1 3.39398 5.23094 8.59691 
4 1 2.15687 5.22665 6.46035 
6 1 3.23341 5.23403 11.2122 
9 1 3.53527 3.87579 12.0094 
11 1 3.31313 5.24635 9.83421 
12 1 3.27888 6.43293 11.9121 
14 1 3.40927 5.22148 7.18109 
33 2 4.62281 3.9944 11.9503 
ITEM: TIMESTEP
27
ITEM: NUMBER OF ATOMS
33
ITEM: BOX BOUNDS pp pp pp
0.0000000000000000e+00 7.0970000000000004e+00
0.0000000000000000e+00 7.0970000000000004e+00
0.0000000000000000e+00 2.4588000000000001e+01
ITEM: ATOMS id type x y z 
2 1 3.25304 1.60828 13.3148 
5 1 4.65293 1.58048 18.1508 
7 1 3.39811 1.60699 15.9969 
8 1 2.16794 1.58037 18.1508 
18 1 3.41203 1.57925 17.4428 
21 1 3.29813 2.80793 12.6132 
23 1 3.339 1.62009 14.772 
24 1 3.30471 0.369846 12.588 
17 1 7.02171 2.87216 24.2875 
19 1 6.99662 1.61922 22.1373 
20 1 7.02144 0.386284 24.278 
22 1 6.95799 1.58323 19.475 
25 1 5.71953 1.5817 18.7619 
27 1 6.97343 1.60235 20.9095 
28 1 1.09692 1.58115 18.7528 
30 1 7.02388 1.63396 23.5701 
10 1 6.9532 5.23402 5.11378 
13 1 7.02017 3.94264 0.303407 
15 1 6.99408 5.19336 2.45629 
16 1 7.02045 6.42466 0.31315 
26 1 7.02193 5.17866 1.0259 
29 1 5.71203 5.2294 5.83432 
31 1 6.96995 5.21159 3.68552 
32 1 1.09847 5.23194 5.83979 
1 1 4.65467 5.22587 6.458 
3 1 3.39398 5.23094 8.59691 
4 1 2.15687 5.22665 6.46035 
6 1 3.23341 5.23403 11.2122 
9 1 3.53527 3.87579 12.0094 
11 1 3.31313 5.24635 9.83421 
12 1 3.27888 6.43293 11.9121 
14 1 3.40927 5.22148 7.18109 
33 2 4.62281 3.9944 11.9503 
ITEM: TIMESTEP
30
ITEM: NUMBER OF ATOMS
33
ITEM: BOX BOUNDS pp pp pp
-8.3997046667095773e-04 7.0978399704666710e+00
-1.0645500000000000e-03 7.0980645500000001e+00
-1.9575128249476755e-03 2.4589957512824949e+01
ITEM: ATOMS id type x y z 
2 1 3.25296 1.60772 13.3149 
5 1 4.65318 1.5799 18.1517 
7 1 3.39806 1.6064 15.9974 
8 1 2.16764 1.57978 18.1517 
18 1 3.412 1.57866 17.4435 
21 1 3.29809 2.80769 12.6133 
23 1 3.33894 1.6195 14.7725 
24 1 3.30461 0.369019 12.5881 
17 1 7.02253 2.87198 24.2894 
19 1 6.99743 1.61864 22.1389 
20 1 7.02227 0.385326 24.2799 
22 1 6.9588 1.58264 19.4762 
25 1 5.72004 1.58111 18.7629 
27 1 6.97424 1.60177 20.9109 
28 1 1.09635 1.58057 18.7539 
30 1 7.0247 1.63337 23.5719 
10 1 6.95401 5.23453 5.11265 
13 1 7.021 3.94274 0.301501 
15 1 6.99489 5.19385 2.45474 
16 1 7.02127 6.42553 0.31122 
26 1 7.02275 5.17917 1.0241 
29 1 5.71254 5.22991 5.83329 
31 1 6.97077 5.2121 3.68413 
32 1 1.09791 5.23243 5.83877 
1 1 4.65493 5.22637 6.45706 
3 1 3.3939 5.23145 8.59636 
4 1 2.15653 5.22717 6.45941 
6 1 3.23331 5.23451 11.212 
9 1 3.53527 3.8759 12.0093 
11 1 3.3131 5.24683 9.83375 
12 1 3.27881 6.4337 11.9121 
14 1 3.40923 5.22197 7.18028 
33 2 4.62314 3.99455 11.9502 
ITEM: TIMESTEP
40
ITEM: NUMBER OF ATOMS
33
ITEM: BOX BOUNDS pp pp pp
-3.4612595281552985e-03 7.1004612595281555e+00
-3.7436602308812926e-03 7.1007436602308811e+00
-4.9680566259179887e-03 2.4592968056625914e+01
ITEM: ATOMS id type x y z 
2 1 3.25239 1.60675 13.3148 
5 1 4.65399 1.57847 18.1532 
7 1 3.39768 1.60476 15.9973 
8 1 2.16662 1.57823 18.153 
18 1 3.41188 1.57734 17.4442 
21 1 3.29884 2.8073 12.6138 
23 1 3.3386 1.61781 14.7748 
24 1 3.30315 0.367579 12.5879 
17 1 7.02506 2.8722 24.2924 
19 1 6.99996 1.61722 22.1412 
20 1 7.02484 0.382618 24.2836 
22 1 6.96141 1.58112 19.4779 
25 1 5.72101 1.5796 18.7642 
27 1 6.97682 1.60039 20.9131 
28 1 1.09524 1.57913 18.7554 
30 1 7.02713 1.63151 23.5748 
10 1 6.9567 5.23593 5.11143 
13 1 7.02377 3.94226 0.298577 
15 1 6.99734 5.19498 2.45266 
16 1 7.02399 6.42805 0.307639 
26 1 7.0251 5.18082 1.02116 
29 1 5.71376 5.23124 5.83204 
31 1 6.97335 5.21344 3.68179 
32 1 1.09667 5.2331 5.83745 
1 1 4.65612 5.22759 6.45526 
3 1 3.39279 5.23308 8.59554 
4 1 2.15514 5.22878 6.4576 
6 1 3.23256 5.23547 11.212 
9 1 3.53529 3.87567 12.0092 
11 1 3.31349 5.2474 9.83206 
12 1 3.27829 6.4354 11.913 
14 1 3.40908 5.22319 7.17894 
33 2 4.62592 3.99518 11.95 
ITEM: TIMESTEP
50
ITEM: NUMBER OF ATOMS
33
ITEM: BOX BOUNDS pp pp pp
-4.5233477597768582e-03 7.1015233477597777e+00
-4.3807208064518127e-03 7.1013807208064526e+00
-7.2394061561050077e-03 2.4595239406156100e+01
ITEM: ATOMS id type x y z 
2 1 3.24999 1.60943 13.3131 
5 1 4.653 1.57854 18.1537 
7 1 3.39632 1.60318 15.9989 
8 1 2.16738 1.57792 18.1527 
18 1 3.41166 1.57777 17.4434 
21 1 3.30478 2.80749 12.6165 
23 1 3.33671 1.61605 14.7767 
24 1 3.29467 0.370951 12.5851 
17 1 7.02617 2.87335 24.2931 
19 1 7.00077 1.61711 22.1429 
20 1 7.0261 0.383509 24.2883 
22 1 6.96298 1.58048 19.4789 
25 1 5.71971 1.57933 18.765 
27 1 6.9782 1.60047 20.9148 
28 1 1.09725 1.57878 18.7572 
30 1 7.02718 1.629 23.577 
10 1 6.9589 5.23644 5.11251 
13 1 7.02576 3.94082 0.29829 
15 1 6.99782 5.19479 2.45157 
16 1 7.02573 6.42723 0.303434 
26 1 7.02492 5.18333 1.01827 
29 1 5.71462 5.23183 5.83147 
31 1 6.97469 5.21407 3.68036 
32 1 1.09613 5.23174 5.83679 
1 1 4.65625 5.22777 6.45329 
3 1 3.38724 5.23534 8.59228 
4 1 2.15571 5.22932 6.45549 
6 1 3.23044 5.2349 11.2128 
9 1 3.53701 3.87433 12.0082 
11 1 3.31528 5.24313 9.82919 
12 1 3.27532 6.43352 11.9202 
14 1 3.40856 5.22379 7.17689 
33 2 4.63839 3.99716 11.9492 
ITEM: TIMESTEP
60
ITEM: NUMBER OF ATOMS
33
ITEM: BOX BOUNDS pp pp pp
-4.2458596628860640e-03 7.1012458596628862e+00
-4.4197236285673852e-03 7.1014197236285677e+00
-4.2696160748442753e-03 2.4592269616074841e+01
ITEM: ATOMS id type x y z 
2 1 3.24934 1.60985 13.3131 
5 1 4.65294 1.57864 18.1524 
7 1 3.39602 1.60282 15.9979 
8 1 2.16748 1.57807 18.1512 
18 1 3.41165 1.57782 17.4422 
21 1 3.3063 2.80796 12.6167 
23 1 3.3361 1.61572 14.7756 
24 1 3.29271 0.371445 12.5844 
17 1 7.02605 2.87345 24.2899 
19 1 7.00041 1.61714 22.1405 
20 1 7.02598 0.383813 24.2859 
22 1 6.96282 1.5804 19.4769 
25 1 5.71953 1.57941 18.7636 
27 1 6.97803 1.60043 20.9124 
28 1 1.09766 1.57869 18.756 
30 1 7.02671 1.62888 23.5743 
10 1 6.95879 5.2362 5.1145 
13 1 7.02544 3.94065 0.301593 
15 1 6.99747 5.19491 2.45402 
16 1 7.02537 6.42698 0.305995 
26 1 7.02457 5.18343 1.02094 
29 1 5.71463 5.23174 5.83317 
31 1 6.97449 5.21396 3.68271 
32 1 1.0963 5.23227 5.83843 
1 1 4.65613 5.22797 6.4545 
3 1 3.38668 5.23539 8.59313 
4 1 2.1561 5.22884 6.45664 
6 1 3.23095 5.23466 11.2132 
9 1 3.53871 3.8745 12.0078 
11 1 3.31423 5.24236 9.82988 
12 1 3.27391 6.43279 11.9216 
14 1 3.40839 5.22404 7.17754 
33 2 4.6407 3.9976 11.9492 
ITEM: TIMESTEP
70
ITEM: NUMBER OF ATOMS
33
ITEM: BOX BOUNDS pp pp pp
-4.7158609503549411e-03 7.1017158609503550e+00
-4.3412579424320624e-03 7.1013412579424315e+00
-3.3540607585561943e-03 2.4591354060758555e+01
ITEM: ATOMS id type x y z 
2 1 3.2485 1.61042 13.3132 
5 1 4.65311 1.57878 18.152 
7 1 3.39562 1.60247 15.9974 
8 1 2.1673 1.57822 18.1506 
18 1 3.41161 1.57801 17.4418 
21 1 3.30803 2.80856 12.617 
23 1 3.33533 1.61541 14.7752 
24 1 3.29038 0.372019 12.5838 
17 1 7.02653 2.87363 24.2887 
19 1 7.0008 1.61722 22.1397 
20 1 7.02648 0.384176 24.2855 
22 1 6.96339 1.58041 19.4762 
25 1 5.71975 1.57952 18.7632 
27 1 6.97858 1.60046 20.9116 
28 1 1.09763 1.57873 18.7559 
30 1 7.02704 1.62886 23.5735 
10 1 6.95945 5.2361 5.11531 
13 1 7.02593 3.9404 0.302882 
15 1 6.99787 5.19495 2.45487 
16 1 7.02582 6.42668 0.306497 
26 1 7.02492 5.18345 1.02174 
29 1 5.71509 5.23168 5.83383 
31 1 6.97501 5.21383 3.68357 
32 1 1.0959 5.23212 5.83914 
1 1 4.65625 5.22806 6.45468 
3 1 3.38579 5.23533 8.59332 
4 1 2.15623 5.22872 6.45665 
6 1 3.23126 5.23429 11.2135 
9 1 3.54087 3.87463 12.0074 
11 1 3.31332 5.24143 9.83006 
12 1 3.27217 6.432 11.9229 
14 1 3.40821 5.22425 7.17738 
33 2 4.64359 3.99808 11.949 
ITEM: TIMESTEP
80
ITEM: NUMBER OF ATOMS
33
ITEM: BOX BOUNDS pp pp pp
-4.9275543429527380e-03 7.1019275543429519e+00
-4.4655772701569863e-03 7.1014655772701563e+00
-2.1470094493959433e-03 2.4590147009449396e+01
ITEM: ATOMS id type x y z 
2 1 3.24759 1.61093 13.3131 
5 1 4.6532 1.57885 18.1515 
7 1 3.39519 1.602 15.9969 
8 1 2.16725 1.57826 18.15 
18 1 3.41158 1.57812 17.4413 
21 1 3.30992 2.80914 12.6172 
23 1 3.33449 1.61496 14.7747 
24 1 3.28786 0.372412 12.5832 
17 1 7.02671 2.87375 24.2873 
19 1 7.00098 1.61718 22.1386 
20 1 7.02668 0.384363 24.2848 
22 1 6.96372 1.58035 19.4752 
25 1 5.71976 1.5794 18.7627 
27 1 6.97886 1.60039 20.9105 
28 1 1.09781 1.57869 18.7555 
30 1 7.02717 1.62876 23.5724 
10 1 6.95983 5.23601 5.11636 
13 1 7.02614 3.94019 0.304454 
15 1 6.99803 5.19508 2.45596 
16 1 7.026 6.42654 0.307307 
26 1 7.02505 5.18353 1.02282 
29 1 5.71538 5.23174 5.83467 
31 1 6.97527 5.21383 3.68462 
32 1 1.09572 5.2321 5.83994 
1 1 4.6563 5.22825 6.45498 
3 1 3.38471 5.2353 8.59357 
4 1 2.15644 5.22873 6.45679 
6 1 3.23148 5.23396 11.214 
9 1 3.54341 3.8748 12.007 
11 1 3.31259 5.24059 9.83028 
12 1 3.27024 6.43138 11.9243 
14 1 3.40806 5.22457 7.17737 
33 2 4.64661 3.99864 11.9488 
ITEM: TIMESTEP
90
ITEM: NUMBER OF ATOMS
33
ITEM: BOX BOUNDS pp pp pp
-5.3430081144375478e-03 7.1023430081144365e+00
-4.4170594852392673e-03 7.1014170594852386e+00
-1.3909267544300126e-03 2.4589390926754430e+01
ITEM: ATOMS id type x y z 
2 1 3.24661 1.61155 13.3129 
5 1 4.65332 1.57894 18.1512 
7 1 3.39474 1.60161 15.9966 
8 1 2.16716 1.5784 18.1495 
18 1 3.41156 1.5783 17.4409 
21 1 3.31187 2.80976 12.6174 
23 1 3.33359 1.61461 14.7743 
24 1 3.28522 0.372901 12.5828 
17 1 7.02707 2.87387 24.2863 
19 1 7.00138 1.61722 22.1379 
20 1 7.02705 0.384678 24.2845 
22 1 6.96423 1.5803 19.4745 
25 1 5.71994 1.57954 18.7623 
27 1 6.97933 1.60041 20.9098 
28 1 1.09784 1.57876 18.7554 
30 1 7.02755 1.62879 23.5717 
10 1 6.96039 5.2358 5.11716 
13 1 7.02652 3.93999 0.305555 
15 1 6.99842 5.19512 2.45668 
16 1 7.02634 6.4263 0.307717 
26 1 7.02543 5.1835 1.02349 
29 1 5.71579 5.23171 5.83529 
31 1 6.97573 5.21376 3.68535 
32 1 1.09543 5.232 5.84045 
1 1 4.65638 5.22836 6.45509 
3 1 3.38354 5.2351 8.59367 
4 1 2.15657 5.22871 6.45673 
6 1 3.23161 5.2335 11.2144 
9 1 3.54622 3.87496 12.0065 
11 1 3.31192 5.23971 9.83041 
12 1 3.26818 6.43067 11.9256 
14 1 3.40792 5.22481 7.17722 
33 2 4.64978 3.99918 11.9486 
ITEM: TIMESTEP
100
ITEM: NUMBER OF ATOMS
33
ITEM: BOX BOUNDS pp pp pp
-5.6692037192442851e-03 7.1026692037192420e+00
-4.3937913982592071e-03 7.1013937913982588e+00
-5.4254152568978999e-04 2.4588542541525690e+01
ITEM: ATOMS id type x y z 
2 1 3.24566 1.61211 13.3127 
5 1 4.65337 1.57904 18.1509 
7 1 3.39431 1.60125 15.9963 
8 1 2.16711 1.57852 18.1491 
18 1 3.41155 1.57844 17.4405 
21 1 3.31371 2.81033 12.6175 
23 1 3.33272 1.61427 14.774 
24 1 3.28274 0.373282 12.5824 
17 1 7.02733 2.87396 24.2853 
19 1 7.00171 1.61725 22.1371 
20 1 7.02729 0.384924 24.2841 
22 1 6.96463 1.58027 19.4738 
25 1 5.72012 1.5796 18.7618 
27 1 6.9797 1.60042 20.909 
28 1 1.0979 1.57883 18.7552 
30 1 7.02787 1.62883 23.5709 
10 1 6.96084 5.2356 5.11799 
13 1 7.02679 3.93983 0.306689 
15 1 6.99874 5.19518 2.45748 
16 1 7.02659 6.42611 0.308285 
26 1 7.02575 5.18346 1.02426 
29 1 5.71611 5.23169 5.83594 
31 1 6.97608 5.2137 3.68614 
32 1 1.09521 5.23193 5.84099 
1 1 4.65644 5.22847 6.45528 
3 1 3.38244 5.23488 8.59383 
4 1 2.1567 5.22874 6.45674 
6 1 3.2317 5.23306 11.2149 
9 1 3.549 3.87514 12.0061 
11 1 3.31132 5.23895 9.83058 
12 1 3.2662 6.43007 11.9267 
14 1 3.40779 5.22504 7.17719 
33 2 4.65276 3.9997 11.9483 
ITEM: TIMESTEP
110
ITEM: NUMBER OF ATOMS
33
ITEM: BOX BOUNDS pp pp pp
-6.1132337430151867e-03 7.1031132337430121e+00
-4.5355569353562417e-03 7.1015355569353549e+00
-7.0521241426916193e-04 2.4588705212414268e+01
ITEM: ATOMS id type x y z 
2 1 3.24456 1.61264 13.3125 
5 1 4.65346 1.57906 18.1511 
7 1 3.39381 1.60076 15.9962 
8 1 2.16704 1.57855 18.1492 
18 1 3.41154 1.5785 17.4405 
21 1 3.3158 2.81092 12.6176 
23 1 3.33172 1.61381 14.7738 
24 1 3.2799 0.373513 12.582 
17 1 7.0277 2.874 24.2853 
19 1 7.00217 1.61718 22.1371 
20 1 7.02762 0.38502 24.2846 
22 1 6.96515 1.58015 19.4737 
25 1 5.72037 1.57955 18.7618 
27 1 6.98018 1.60033 20.9089 
28 1 1.09789 1.57882 18.7555 
30 1 7.02829 1.6288 23.5711 
10 1 6.9614 5.23544 5.11827 
13 1 7.02715 3.9397 0.306846 
15 1 6.99919 5.19532 2.45747 
16 1 7.02702 6.42607 0.30792 
26 1 7.02615 5.18348 1.0241 
29 1 5.71651 5.23175 5.8361 
31 1 6.97655 5.21371 3.68626 
32 1 1.09492 5.23193 5.84098 
1 1 4.65652 5.22868 6.45499 
3 1 3.38121 5.23466 8.59368 
4 1 2.15681 5.22888 6.45623 
6 1 3.23174 5.23263 11.2153 
9 1 3.55228 3.87537 12.0057 
11 1 3.31064 5.23823 9.83059 
12 1 3.26393 6.42955 11.9279 
14 1 3.40765 5.22537 7.17672 
33 2 4.65618 4.0003 11.9481 
ITEM: TIMESTEP
120
ITEM: NUMBER OF ATOMS
33
ITEM: BOX BOUNDS pp pp pp
-6.3894656396346382e-03 7.1033894656396317e+00
-4.5629698262979320e-03 7.1015629698262970e+00
5.8012151031349986e-04 2.4587419878489687e+01
ITEM: ATOMS id type x y z 
2 1 3.24345 1.6132 13.3122 
5 1 4.65347 1.57916 18.1507 
7 1 3.39332 1.60036 15.9958 
8 1 2.16705 1.57865 18.1486 
18 1 3.41156 1.57861 17.4399 
21 1 3.31789 2.81151 12.6175 
23 1 3.33072 1.61344 14.7734 
24 1 3.27707 0.373783 12.5817 
17 1 7.02794 2.8741 24.2838 
19 1 7.00246 1.61717 22.136 
20 1 7.02786 0.385174 24.2836 
22 1 6.96552 1.58013 19.4726 
25 1 5.72052 1.57953 18.761 
27 1 6.9805 1.6003 20.9077 
28 1 1.09799 1.57888 18.755 
30 1 7.02851 1.6288 23.5699 
10 1 6.96177 5.23523 5.11939 
13 1 7.02729 3.93954 0.308426 
15 1 6.99948 5.1954 2.45863 
16 1 7.02725 6.426 0.309065 
26 1 7.02641 5.18343 1.02527 
29 1 5.71678 5.23175 5.83703 
31 1 6.97686 5.21366 3.68739 
32 1 1.09476 5.23189 5.84173 
1 1 4.65654 5.22882 6.45542 
3 1 3.38003 5.23436 8.59401 
4 1 2.15698 5.22899 6.45642 
6 1 3.23175 5.23215 11.2158 
9 1 3.55564 3.8756 12.0054 
11 1 3.30999 5.2375 9.8309 
12 1 3.26167 6.42899 11.929 
14 1 3.40752 5.22565 7.1769 
33 2 4.65956 4.00089 11.9478 
ITEM: TIMESTEP
130
ITEM: NUMBER OF ATOMS
33
ITEM: BOX BOUNDS pp pp pp
-6.9511842117115146e-03 7.1039511842117076e+00
-4.2100500559592927e-03 7.1012100500559576e+00
1.2504548297444249e-03 2.4586749545170260e+01
ITEM: ATOMS id type x y z 
2 1 3.24243 1.61389 13.3119 
5 1 4.65362 1.57932 18.1504 
7 1 3.39287 1.60023 15.9955 
8 1 2.16696 1.57894 18.1483 
18 1 3.41153 1.57895 17.4396 
21 1 3.3197 2.81211 12.6175 
23 1 3.32981 1.61333 14.7731 
24 1 3.27455 0.374298 12.5815 
17 1 7.0284 2.87416 24.2831 
19 1 7.00302 1.61736 22.1353 
20 1 7.02836 0.385614 24.2832 
22 1 6.96616 1.58028 19.472 
25 1 5.72081 1.57983 18.7606 
27 1 6.98109 1.60049 20.9071 
28 1 1.09783 1.57914 18.7547 
30 1 7.02905 1.62906 23.5692 
10 1 6.96239 5.23487 5.12009 
13 1 7.0278 3.93942 0.309247 
15 1 7.00004 5.1953 2.45927 
16 1 7.02778 6.42566 0.309644 
26 1 7.02691 5.18322 1.02589 
29 1 5.71721 5.23156 5.8376 
31 1 6.97745 5.21344 3.68807 
32 1 1.0944 5.23168 5.84212 
1 1 4.65665 5.22877 6.45561 
3 1 3.379 5.23391 8.59417 
4 1 2.15699 5.22891 6.45638 
6 1 3.23169 5.23154 11.2163 
9 1 3.55865 3.87576 12.0051 
11 1 3.30939 5.23672 9.8311 
12 1 3.25968 6.42824 11.9298 
14 1 3.40739 5.22571 7.1769 
33 2 4.66264 4.00136 11.9476 
ITEM: TIMESTEP
140
ITEM: NUMBER OF ATOMS
33
ITEM: BOX BOUNDS pp pp pp
-7.0007641851122047e-03 7.1040007641851082e+00
-4.5036456794873914e-03 7.1015036456794851e+00
2.2745751172752451e-03 2.4585725424882732e+01
ITEM: ATOMS id type x y z 
2 1 3.24144 1.61421 13.3116 
5 1 4.65365 1.57927 18.15 
7 1 3.39244 1.59976 15.9951 
8 1 2.16705 1.57887 18.1479 
18 1 3.41152 1.57887 17.4393 
21 1 3.32155 2.81252 12.6174 
23 1 3.32892 1.61289 14.7727 
24 1 3.27204 0.374246 12.5813 
17 1 7.0284 2.87405 24.2821 
19 1 7.00308 1.6172 22.1344 
20 1 7.0284 0.38551 24.2824 
22 1 6.96628 1.58012 19.4711 
25 1 5.7208 1.57964 18.76 
27 1 6.98119 1.60031 20.9061 
28 1 1.09802 1.57905 18.7543 
30 1 7.02903 1.62896 23.5682 
10 1 6.96251 5.23481 5.12101 
13 1 7.02779 3.9394 0.310401 
15 1 7.0001 5.19549 2.46022 
16 1 7.02777 6.42583 0.310583 
26 1 7.02692 5.18331 1.02686 
29 1 5.7173 5.23168 5.83837 
31 1 6.97754 5.21353 3.68899 
32 1 1.09441 5.23178 5.84269 
1 1 4.65661 5.22902 6.45597 
3 1 3.37801 5.23375 8.59447 
4 1 2.15719 5.22914 6.45651 
6 1 3.23163 5.23123 11.2167 
9 1 3.56174 3.87603 12.0048 
11 1 3.30882 5.23627 9.83139 
12 1 3.25773 6.42799 11.9307 
14 1 3.40728 5.22608 7.17707 
33 2 4.66562 4.00191 11.9474 
ITEM: TIMESTEP
150
ITEM: NUMBER OF ATOMS
33
ITEM: BOX BOUNDS pp pp pp
-7.5295004058849825e-03 7.1045295004058806e+00
-4.1428603513356246e-03 7.1011428603513327e+00
3.1697182466953974e-03 2.4584830281753312e+01
ITEM: ATOMS id type x y z 
2 1 3.24033 1.6149 13.3113 
5 1 4.65383 1.57953 18.1495 
7 1 3.39195 1.59965 15.9947 
8 1 2.16698 1.57916 18.1475 
18 1 3.41149 1.57917 17.4389 
21 1 3.32349 2.81312 12.6173 
23 1 3.32794 1.6128 14.7724 
24 1 3.26933 0.374727 12.5811 
17 1 7.02885 2.87409 24.2813 
19 1 7.0036 1.61739 22.1335 
20 1 7.02887 0.385905 24.2817 
22 1 6.96686 1.58031 19.4704 
25 1 5.7211 1.57987 18.7595 
27 1 6.98176 1.6005 20.9053 
28 1 1.09786 1.57932 18.7539 
30 1 7.02951 1.62922 23.5674 
10 1 6.96308 5.23444 5.12187 
13 1 7.02824 3.9393 0.311421 
15 1 7.00062 5.19538 2.46107 
16 1 7.02828 6.42553 0.311456 
26 1 7.02739 5.1831 1.02771 
29 1 5.71768 5.23148 5.83909 
31 1 6.97809 5.2133 3.68985 
32 1 1.09409 5.23157 5.84319 
1 1 4.6567 5.22895 6.45631 
3 1 3.37697 5.23327 8.59474 
4 1 2.15722 5.22907 6.45658 
6 1 3.23149 5.23058 11.2172 
9 1 3.56504 3.87623 12.0045 
11 1 3.30819 5.2355 9.83168 
12 1 3.25565 6.42722 11.9315 
14 1 3.40715 5.22615 7.1772 
33 2 4.66896 4.00241 11.9471 
ITEM: TIMESTEP
160
ITEM: NUMBER OF ATOMS
33
ITEM: BOX BOUNDS pp pp pp
-7.6593353005198934e-03 7.1046593353005143e+00
-4.2847223727521698e-03 7.1012847223727489e+00
4.2940583223171677e-03 2.4583705941677692e+01
ITEM: ATOMS id type x y z 
2 1 3.23923 1.61531 13.3109 
5 1 4.6539 1.57951 18.1489 
7 1 3.39147 1.59927 15.9943 
8 1 2.16706 1.57916 18.147 
18 1 3.41149 1.57918 17.4385 
21 1 3.32544 2.81357 12.6171 
23 1 3.32698 1.61246 14.772 
24 1 3.26665 0.374763 12.5809 
17 1 7.02893 2.87402 24.2802 
19 1 7.00373 1.61732 22.1325 
20 1 7.02896 0.38585 24.2806 
22 1 6.96706 1.58022 19.4694 
25 1 5.72115 1.57982 18.7588 
27 1 6.98193 1.60041 20.9042 
28 1 1.09798 1.57931 18.7534 
30 1 7.02959 1.6292 23.5663 
10 1 6.96326 5.2343 5.12287 
13 1 7.02831 3.93928 0.31267 
15 1 7.00075 5.1955 2.46211 
16 1 7.02837 6.42564 0.312584 
26 1 7.02747 5.18314 1.0288 
29 1 5.71779 5.23151 5.83993 
31 1 6.97826 5.21331 3.69088 
32 1 1.09405 5.23162 5.8438 
1 1 4.65668 5.22912 6.45676 
3 1 3.37598 5.23303 8.5951 
4 1 2.15739 5.22921 6.45675 
6 1 3.23135 5.23016 11.2178 
9 1 3.56839 3.87651 12.0043 
11 1 3.30758 5.23498 9.83203 
12 1 3.25364 6.42685 11.9323 
14 1 3.40702 5.22647 7.17746 
33 2 4.67219 4.00298 11.9469 
ITEM: TIMESTEP
170
ITEM: NUMBER OF ATOMS
33
ITEM: BOX BOUNDS pp pp pp
-8.2399762127237583e-03 7.1052399762127187e+00
-3.8915282617921951e-03 7.1008915282617906e+00
5.0364005982668318e-03 2.4582963599401744e+01
ITEM: ATOMS id type x y z 
2 1 3.23796 1.61604 13.3105 
5 1 4.6541 1.57979 18.1485 
7 1 3.39091 1.59918 15.994 
8 1 2.167 1.57946 18.1468 
18 1 3.41147 1.57949 17.4382 
21 1 3.32758 2.8142 12.6169 
23 1 3.32588 1.6124 14.7717 
24 1 3.26363 0.375241 12.5808 
17 1 7.02944 2.87406 24.2795 
19 1 7.00431 1.61753 22.1318 
20 1 7.02949 0.386261 24.2799 
22 1 6.96769 1.58044 19.4687 
25 1 5.7215 1.58007 18.7583 
27 1 6.98255 1.60062 20.9034 
28 1 1.09778 1.57961 18.7531 
30 1 7.0301 1.62946 23.5656 
10 1 6.96386 5.23391 5.12368 
13 1 7.02881 3.93919 0.313549 
15 1 7.00133 5.19537 2.46287 
16 1 7.0289 6.42532 0.313337 
26 1 7.02798 5.18294 1.02956 
29 1 5.71818 5.23129 5.8406 
31 1 6.97886 5.21306 3.69168 
32 1 1.09374 5.23138 5.84415 
1 1 4.65677 5.22905 6.45706 
3 1 3.37489 5.23251 8.59537 
4 1 2.15735 5.22914 6.45684 
6 1 3.23111 5.22942 11.2183 
9 1 3.57213 3.87675 12.004 
11 1 3.30688 5.23417 9.83234 
12 1 3.25141 6.42603 11.9331 
14 1 3.40689 5.22654 7.17752 
33 2 4.67595 4.00353 11.9466 
ITEM: TIMESTEP
180
ITEM: NUMBER OF ATOMS
33
ITEM: BOX BOUNDS pp pp pp
-8.5836952232293314e-03 7.1055836952232241e+00
-3.7865286353291209e-03 7.1007865286353287e+00
5.8714423023559208e-03 2.4582128557697654e+01
ITEM: ATOMS id type x y z 
2 1 3.23667 1.61662 13.3101 
5 1 4.65422 1.5799 18.1481 
7 1 3.39034 1.59894 15.9936 
8 1 2.16703 1.5796 18.1465 
18 1 3.41147 1.57963 17.4379 
21 1 3.32977 2.81475 12.6167 
23 1 3.32476 1.6122 14.7713 
24 1 3.26055 0.375459 12.5806 
17 1 7.02971 2.87404 24.2787 
19 1 7.00465 1.61759 22.1309 
20 1 7.02978 0.386424 24.2792 
22 1 6.96809 1.58051 19.4679 
25 1 5.7217 1.58016 18.7577 
27 1 6.98293 1.60068 20.9026 
28 1 1.09774 1.57974 18.7527 
30 1 7.03039 1.62955 23.5647 
10 1 6.96422 5.23366 5.12456 
13 1 7.02908 3.93915 0.314523 
15 1 7.00166 5.19536 2.46373 
16 1 7.02919 6.42522 0.314194 
26 1 7.02827 5.18288 1.03042 
29 1 5.71842 5.23121 5.84133 
31 1 6.97923 5.21294 3.69256 
32 1 1.0936 5.23128 5.84453 
1 1 4.65679 5.22911 6.45743 
3 1 3.37382 5.23213 8.59568 
4 1 2.15738 5.22919 6.45699 
6 1 3.23084 5.22879 11.2189 
9 1 3.57599 3.87705 12.0038 
11 1 3.30617 5.23349 9.83267 
12 1 3.24919 6.42543 11.9339 
14 1 3.40675 5.22676 7.17766 
33 2 4.67975 4.00413 11.9463 
ITEM: TIMESTEP
190
ITEM: NUMBER OF ATOMS
33
ITEM: BOX BOUNDS pp pp pp
-8.4735472258921328e-03 7.1054735472258859e+00
-3.8161319936979984e-03 7.1008161319936978e+00
8.2376906209225987e-03 2.4579762309379088e+01
ITEM: ATOMS id type x y z 
2 1 3.23566 1.617 13.3096 
5 1 4.65421 1.57993 18.1469 
7 1 3.3899 1.5987 15.9928 
8 1 2.1672 1.57964 18.1455 
18 1 3.41148 1.57968 17.4369 
21 1 3.33153 2.81514 12.6164 
23 1 3.32389 1.612 14.7707 
24 1 3.25814 0.375525 12.5805 
17 1 7.02956 2.874 24.2764 
19 1 7.00454 1.61757 22.1289 
20 1 7.02964 0.386456 24.2769 
22 1 6.96804 1.5805 19.4662 
25 1 5.72161 1.58017 18.7563 
27 1 6.98287 1.60066 20.9007 
28 1 1.09798 1.57977 18.7514 
30 1 7.03024 1.62955 23.5625 
10 1 6.96414 5.23351 5.12625 
13 1 7.02893 3.93914 0.316957 
15 1 7.00156 5.19541 2.46579 
16 1 7.02905 6.42524 0.316543 
26 1 7.02812 5.18289 1.03268 
29 1 5.71835 5.2312 5.84282 
31 1 6.97915 5.2129 3.69444 
32 1 1.09377 5.23126 5.84575 
1 1 4.65669 5.22921 6.45854 
3 1 3.37302 5.23189 8.59647 
4 1 2.15754 5.22928 6.45792 
6 1 3.23063 5.22834 11.2195 
9 1 3.57907 3.87732 12.0037 
11 1 3.30564 5.23303 9.83328 
12 1 3.24749 6.42504 11.9346 
14 1 3.40665 5.22697 7.17852 
33 2 4.68267 4.00462 11.9461 
ITEM: TIMESTEP
200
ITEM: NUMBER OF ATOMS
33
ITEM: BOX BOUNDS pp pp pp
-8.9481453394305438e-03 7.1059481453394238e+00
-3.4222337692672109e-03 7.1004222337692680e+00
8.9780949052662186e-03 2.4579021905094745e+01
ITEM: ATOMS id type x y z 
2 1 3.23439 1.61768 13.3092 
5 1 4.65435 1.5802 18.1465 
7 1 3.38935 1.59867 15.9924 
8 1 2.16719 1.57992 18.1452 
18 1 3.41147 1.57997 17.4366 
21 1 3.33358 2.81571 12.6162 
23 1 3.32283 1.61201 14.7703 
24 1 3.25526 0.37595 12.5804 
17 1 7.02997 2.87404 24.2757 
19 1 7.00501 1.61778 22.1281 
20 1 7.03006 0.386859 24.2762 
22 1 6.96855 1.58074 19.4654 
25 1 5.72191 1.58042 18.7557 
27 1 6.98337 1.60088 20.8999 
28 1 1.09782 1.58005 18.7511 
30 1 7.03065 1.62979 23.5617 
10 1 6.96461 5.23314 5.12705 
13 1 7.02933 3.93907 0.317819 
15 1 7.00202 5.19526 2.46658 
16 1 7.02947 6.42492 0.317311 
26 1 7.02854 5.18271 1.03347 
29 1 5.71865 5.23098 5.8435 
31 1 6.97964 5.21265 3.69525 
32 1 1.09352 5.23103 5.84611 
1 1 4.65675 5.22912 6.4589 
3 1 3.37207 5.23142 8.59679 
4 1 2.15752 5.22917 6.45804 
6 1 3.2303 5.22759 11.22 
9 1 3.58272 3.87758 12.0035 
11 1 3.30497 5.23228 9.83362 
12 1 3.24547 6.42426 11.9353 
14 1 3.4065 5.22702 7.17871 
33 2 4.68633 4.00515 11.9458 
ITEM: TIMESTEP
210
ITEM: NUMBER OF ATOMS
33
ITEM: BOX BOUNDS pp pp pp
-9.0858366155871680e-03 7.1060858366155797e+00
-3.2881570655820839e-03 7.1002881570655818e+00
1.0447230290620429e-02 2.4577552769709392e+01
ITEM: ATOMS id type x y z 
2 1 3.23315 1.61821 13.3087 
5 1 4.6544 1.58031 18.1457 
7 1 3.38881 1.59851 15.9919 
8 1 2.1673 1.58004 18.1446 
18 1 3.41147 1.5801 17.4359 
21 1 3.33562 2.81619 12.6159 
23 1 3.32178 1.61191 14.7698 
24 1 3.25242 0.376147 12.5802 
17 1 7.03005 2.87402 24.2743 
19 1 7.00515 1.61786 22.1267 
20 1 7.03016 0.387038 24.2748 
22 1 6.96874 1.58083 19.4642 
25 1 5.722 1.58053 18.7548 
27 1 6.98355 1.60096 20.8986 
28 1 1.0979 1.58018 18.7503 
30 1 7.03074 1.62988 23.5602 
10 1 6.96476 5.23289 5.12827 
13 1 7.02941 3.93904 0.319395 
15 1 7.00215 5.19523 2.46796 
16 1 7.02956 6.4248 0.318802 
26 1 7.02862 5.18265 1.03496 
29 1 5.71871 5.23088 5.84457 
31 1 6.97979 5.21252 3.69657 
32 1 1.09351 5.23093 5.84686 
1 1 4.6567 5.22915 6.45963 
3 1 3.37116 5.23108 8.59735 
4 1 2.15762 5.22919 6.45851 
6 1 3.22997 5.22694 11.2206 
9 1 3.58637 3.87789 12.0033 
11 1 3.30433 5.23167 9.83411 
12 1 3.24351 6.42367 11.936 
14 1 3.40635 5.22719 7.17923 
33 2 4.68989 4.0057 11.9455 
ITEM: TIMESTEP
220
ITEM: NUMBER OF ATOMS
33
ITEM: BOX BOUNDS pp pp pp
-9.4176767175114164e-03 7.1064176767175029e+00
-3.0319912114456387e-03 7.1000319912114440e+00
1.1241151256743898e-02 2.4576758848743268e+01
ITEM: ATOMS id type x y z 
2 1 3.23176 1.61883 13.3082 
5 1 4.65451 1.5805 18.1453 
7 1 3.38821 1.59842 15.9914 
8 1 2.16737 1.58024 18.1443 
18 1 3.41147 1.5803 17.4356 
21 1 3.33782 2.81674 12.6156 
23 1 3.32063 1.61187 14.7695 
24 1 3.24935 0.376446 12.5801 
17 1 7.03031 2.87403 24.2736 
19 1 7.00547 1.61799 22.1259 
20 1 7.03043 0.387323 24.274 
22 1 6.96912 1.58101 19.4634 
25 1 5.72221 1.58071 18.7541 
27 1 6.98392 1.60111 20.8977 
28 1 1.09784 1.58038 18.7498 
30 1 7.03101 1.63004 23.5594 
10 1 6.96508 5.23258 5.12914 
13 1 7.02968 3.93899 0.320321 
15 1 7.00247 5.19514 2.46883 
16 1 7.02984 6.42458 0.319644 
26 1 7.0289 5.18254 1.03584 
29 1 5.7189 5.23073 5.84531 
31 1 6.98014 5.21233 3.69746 
32 1 1.09336 5.23077 5.84726 
1 1 4.6567 5.22912 6.46007 
3 1 3.37019 5.23067 8.59774 
4 1 2.15767 5.22915 6.45866 
6 1 3.22957 5.22618 11.2212 
9 1 3.59033 3.87821 12.0031 
11 1 3.30363 5.23097 9.83451 