ITEM: TIMESTEP
0
ITEM: NUMBER OF ATOMS
131
ITEM: BOX BOUNDS xy xz yz pp pp pp
0.0000000000000000e+00 2.3654499999999999e+01 7.8845000000000001e+00
0.0000000000000000e+00 1.3658086643083999e+01 0.0000000000000000e+00
0.0000000000000000e+00 2.5747000000000000e+01 0.0000000000000000e+00
ITEM: ATOMS id type x y z 
18 1 10.522 6.683 2.644 
28 1 5.247 4.273 12.803 
31 1 9.65 6.514 0.446 
62 1 9.171 5.15 12.405 
91 1 9.65 6.514 11.889 
92 1 10.81 6.18 11.007 
106 1 10.522 6.683 9.691 
127 1 10.81 6.18 1.328 
4 1 4.402 5.735 13.319 
5 1 3.307 5.568 14.201 
43 1 4.549 6.796 15.517 
52 1 9.172 5.15 25.677 
66 1 4.402 5.735 24.762 
67 1 5.003 6.76 23.881 
88 1 5.247 4.273 25.278 
107 1 3.307 5.568 23.881 
116 1 4.549 6.796 22.565 
117 1 5.003 6.76 14.201 
11 1 11.272 7.494 3.321 
12 1 10.477 8.871 4.018 
14 1 9.018 11.397 0.446 
15 1 10.114 11.565 1.328 
16 1 8.412 9.024 0.654 
19 1 10.477 8.871 5.569 
29 1 10.927 10.156 3.321 
32 1 8.77 7.648 1.328 
35 1 12.036 9.594 2.644 
45 1 9.231 8.963 3.321 
47 1 12.762 8.702 0.446 
49 1 11.224 11 0.654 
51 1 8.872 10.337 2.644 
53 1 11.272 7.494 9.014 
54 1 10.477 8.871 8.317 
56 1 9.018 11.397 11.889 
57 1 8.418 10.372 11.007 
58 1 11.224 11 11.681 
60 1 12.255 7.901 9.691 
61 1 10.477 8.871 6.766 
73 1 9.231 8.963 9.014 
75 1 12.762 8.702 11.889 
76 1 12.202 10.061 11.007 
79 1 9.224 7.617 9.691 
80 1 8.174 12.859 12.405 
89 1 10.927 10.156 9.014 
93 1 8.412 9.024 11.681 
95 1 9.951 11.095 9.691 
105 1 10.114 11.565 11.007 
109 1 8.77 7.648 11.007 
110 1 12.036 9.594 9.691 
114 1 8.872 10.337 9.691 
119 1 8.418 10.372 1.328 
120 1 12.255 7.901 2.644 
123 1 12.202 10.061 1.328 
124 1 9.224 7.617 2.644 
128 1 9.951 11.095 2.644 
129 2 7.874 7.617 9.691 
130 2 6.904 8.26 8.748 
131 3 7.645 8.692 8.262 
6 1 5.009 8.108 13.527 
13 1 9.663 10.28 25.128 
17 1 9.204 8.965 25.162 
30 1 10.016 7.556 25.128 
34 1 11.289 7.464 25.162 
36 1 8.174 12.859 25.677 
46 1 11.752 8.777 25.128 
50 1 10.937 10.184 25.162 
55 1 9.663 10.28 12.954 
59 1 10.937 10.184 12.919 
74 1 11.752 8.777 12.954 
78 1 11.289 7.464 12.919 
90 1 10.016 7.556 12.954 
94 1 9.204 8.965 12.919 
101 1 5.009 8.108 24.555 
33 1 11.795 6.589 0.654 
77 1 11.795 6.589 11.681 
41 1 17.967 6.132 13.527 
68 1 17.967 6.132 24.554 
103 1 19.24 6.037 22.565 
126 1 19.24 6.037 15.517 
3 1 19.528 6.852 12.254 
7 1 19.987 8.167 12.289 
10 1 15.106 8.528 12.804 
22 1 19.175 9.576 12.254 
26 1 17.902 9.668 12.289 
38 1 17.439 8.356 12.254 
42 1 18.254 6.949 12.289 
44 1 20.019 11.982 12.804 
48 1 12.546 7.4 1.328 
65 1 19.528 6.852 0.081 
69 1 18.254 6.949 0.046 
82 1 17.439 8.356 0.081 
86 1 17.902 9.668 0.046 
96 1 14.084 8.604 12.405 
98 1 19.175 9.576 0.081 
102 1 19.987 8.167 0.046 
113 1 12.546 7.4 11.007 
1 1 17.919 9.638 16.194 
2 1 18.714 8.261 16.892 
8 1 18.669 10.449 15.517 
9 1 18.714 8.261 18.442 
20 1 14.084 8.604 25.677 
21 1 18.264 6.977 16.194 
23 1 19.541 10.618 13.32 
24 1 20.421 9.484 14.201 
25 1 17.396 10.544 13.527 
27 1 17.155 7.538 15.517 
37 1 19.96 8.169 16.194 
39 1 16.429 8.43 13.319 
40 1 16.644 9.732 14.201 
63 1 17.919 9.638 21.888 
64 1 18.714 8.261 21.19 
70 1 16.936 9.231 22.565 
71 1 18.714 8.261 19.64 
72 1 20.019 11.982 25.278 
81 1 19.96 8.169 21.888 
83 1 16.429 8.43 24.762 
84 1 16.989 7.071 23.881 
85 1 17.396 10.544 24.555 
87 1 19.967 9.515 22.565 
97 1 18.263 6.977 21.888 
99 1 19.541 10.618 24.762 
100 1 18.38 10.953 23.881 
104 1 15.106 8.528 25.278 
108 1 18.669 10.449 22.565 
111 1 20.421 9.484 23.881 
112 1 17.155 7.538 22.565 
115 1 16.644 9.732 23.881 
118 1 16.936 9.231 15.517 
121 1 16.989 7.071 14.201 
122 1 19.967 9.515 15.517 
125 1 18.38 10.953 14.201 
ITEM: TIMESTEP
10
ITEM: NUMBER OF ATOMS
131
ITEM: BOX BOUNDS xy xz yz pp pp pp
0.0000000000000000e+00 2.3654499999999999e+01 7.8845000000000001e+00
0.0000000000000000e+00 1.3658086643083999e+01 0.0000000000000000e+00
0.0000000000000000e+00 2.5747000000000000e+01 0.0000000000000000e+00
ITEM: ATOMS id type x y z 
18 1 10.3882 6.73755 2.64327 
28 1 5.10589 4.57166 12.8871 
31 1 9.37519 6.54489 0.420102 
62 1 9.11595 5.21904 12.4009 
91 1 9.3774 6.50882 11.9715 
92 1 10.8569 6.1978 10.9389 
106 1 10.3812 6.79717 9.74215 
127 1 10.7012 6.17879 1.41891 
4 1 4.45688 5.79342 13.213 
5 1 3.1907 5.57553 14.2519 
43 1 4.59685 6.95891 15.488 
52 1 9.13393 5.23238 25.7049 
66 1 4.46678 5.78035 24.858 
67 1 5.12172 6.9467 23.8885 
88 1 5.11643 4.55222 25.1955 
107 1 3.17421 5.59879 23.8468 
116 1 4.60493 6.95009 22.5777 
117 1 5.14791 6.94421 14.2036 
11 1 11.2497 7.55869 3.41551 
12 1 10.5156 8.8132 4.13179 
14 1 8.9578 11.3195 0.315511 
15 1 10.2532 11.5663 1.38335 
16 1 8.40976 8.9299 0.698757 
19 1 10.4752 8.8635 5.54852 
29 1 10.962 10.1227 3.33896 
32 1 8.7055 7.63964 1.29258 
35 1 11.9955 9.62428 2.56237 
45 1 9.24796 8.94411 3.26867 
47 1 12.7373 8.72797 0.539621 
49 1 11.311 11.0518 0.691154 
51 1 8.81824 10.1631 2.60497 
53 1 11.3157 7.56779 8.99256 
54 1 10.4877 8.83641 8.17891 
56 1 8.99219 11.3397 11.9467 
57 1 8.30002 10.2439 11.0145 
58 1 11.3405 10.97 11.6898 
60 1 12.271 8.05877 9.60668 
61 1 10.4848 8.86859 6.78553 
73 1 9.07727 9.03878 8.89787 
75 1 12.7485 8.77921 11.7478 
76 1 12.3069 10.0583 10.9978 
79 1 9.06909 7.51404 9.70002 
80 1 8.33703 12.5282 12.3036 
89 1 10.8816 10.0559 8.98876 
93 1 8.41685 8.95429 11.6542 
95 1 10.0462 11.0575 9.72572 
105 1 10.2602 11.5257 11.0191 
109 1 8.64725 7.63288 11.101 
110 1 12.0208 9.59893 9.70208 
114 1 8.82763 10.2703 9.79205 
119 1 8.28399 10.1871 1.33302 
120 1 12.326 8.10106 2.68393 
123 1 12.2535 10.0295 1.22512 
124 1 9.19596 7.69201 2.53709 
128 1 10.0562 11.0324 2.63752 
129 2 7.96382 7.46715 9.6367 
130 2 6.95206 8.30983 8.70451 
131 3 7.79054 8.74313 8.27197 
6 1 5.01541 8.21736 13.5774 
13 1 9.63144 10.2734 25.1759 
17 1 9.16776 8.97022 25.1203 
30 1 9.94461 7.76173 25.0705 
34 1 11.2923 7.46832 25.1661 
36 1 8.31406 12.561 25.7575 
46 1 11.6844 8.7854 25.0613 
50 1 11.0386 10.1009 25.2408 
55 1 9.62103 10.2754 13.0303 
59 1 10.9456 10.1411 12.9095 
74 1 11.7073 8.83109 13.0567 
78 1 11.278 7.50797 12.9187 
90 1 9.94811 7.71588 13.0876 
94 1 9.18973 8.97558 12.9396 
101 1 5.0269 8.2247 24.5188 
33 1 11.8114 6.67496 0.644559 
77 1 11.7174 6.62481 11.669 
41 1 17.8699 6.04872 13.6064 
68 1 17.8704 6.1338 24.5258 
103 1 19.1285 6.08613 22.5742 
126 1 19.1345 6.09642 15.4982 
3 1 19.6211 6.83984 12.2592 
7 1 20.061 8.14528 12.2484 
10 1 15.1183 8.44769 12.8422 
22 1 19.1479 9.41407 12.2018 
26 1 17.9835 9.64469 12.295 
38 1 17.4873 8.41889 12.1565 
42 1 18.0825 7.00378 12.3914 
44 1 20.076 11.8709 12.8251 
48 1 12.5967 7.562 1.34648 
65 1 19.5773 6.79752 0.0962015 
69 1 18.2555 7.09328 -0.033104 
82 1 17.5365 8.37029 0.164685 
86 1 17.9645 9.67864 0.0415055 
96 1 14.0358 8.69199 12.3504 
98 1 19.1236 9.39999 0.0980257 
102 1 19.9596 8.10054 0.0875485 
113 1 12.5799 7.56775 10.9575 
1 1 17.9355 9.58012 16.285 
2 1 18.6724 8.3207 17.0158 
8 1 18.7909 10.3841 15.4909 
9 1 18.7193 8.26661 18.4109 
20 1 14.0369 8.67707 25.735 
21 1 18.2249 6.99475 16.2172 
23 1 19.8211 10.6397 13.2803 
24 1 20.4778 9.48011 14.1488 
25 1 17.4409 10.4975 13.5421 
27 1 17.1927 7.53407 15.4331 
37 1 19.9545 8.18847 16.1359 
39 1 16.4492 8.38881 13.4137 
40 1 16.5767 9.58871 14.25 
63 1 17.844 9.53876 21.845 
64 1 18.6695 8.31621 21.0562 
70 1 16.9424 9.07738 22.4587 
71 1 18.719 8.26702 19.6583 
72 1 20.0446 11.8386 25.2277 
81 1 19.9539 8.1916 21.9542 
83 1 16.4563 8.3642 24.6602 
84 1 16.9417 7.09004 23.9527 
85 1 17.3904 10.4429 24.5635 
87 1 19.9865 9.45212 22.6601 
97 1 18.2383 7.00062 21.8617 
99 1 19.8235 10.643 24.8202 
100 1 18.4925 10.9672 23.7865 
104 1 15.1328 8.45055 25.2282 
108 1 18.8084 10.3892 22.5769 
111 1 20.4708 9.47865 23.9502 
112 1 17.1863 7.50987 22.6601 
115 1 16.589 9.60253 23.8582 
118 1 16.8729 9.01453 15.5692 
121 1 16.9696 7.0837 14.0673 
122 1 19.9899 9.45241 15.4129 
125 1 18.4328 10.9226 14.2979 
ITEM: TIMESTEP
20
ITEM: NUMBER OF ATOMS
131
ITEM: BOX BOUNDS xy xz yz pp pp pp
0.0000000000000000e+00 2.3654499999999999e+01 7.8845000000000001e+00
0.0000000000000000e+00 1.3658086643083999e+01 0.0000000000000000e+00
0.0000000000000000e+00 2.5747000000000000e+01 0.0000000000000000e+00
ITEM: ATOMS id type x y z 
18 1 10.3851 6.76429 2.65145 
28 1 5.08118 4.63939 12.896 
31 1 9.42207 6.57712 0.432888 
62 1 9.08346 5.26478 12.3912 
91 1 9.37803 6.54614 11.9898 
92 1 10.8053 6.22336 10.9518 
106 1 10.3886 6.81639 9.73329 
127 1 10.6397 6.24349 1.37297 
4 1 4.44678 5.83907 13.2828 
5 1 3.18794 5.60941 14.2247 
43 1 4.59279 6.97361 15.4655 
52 1 9.11555 5.26491 25.72 
66 1 4.45162 5.81382 24.8055 
67 1 5.09544 6.98716 23.8929 
88 1 5.09545 4.61336 25.1839 
107 1 3.16086 5.64067 23.8667 
116 1 4.58829 6.94639 22.6075 
117 1 5.10612 6.98172 14.1913 
11 1 11.2443 7.56858 3.41344 
12 1 10.5374 8.79929 4.08883 
14 1 8.98318 11.2799 0.390647 
15 1 10.2492 11.5158 1.35554 
16 1 8.37595 8.91214 0.675365 
19 1 10.4846 8.86184 5.54464 
29 1 10.9497 10.1124 3.3273 
32 1 8.65576 7.63268 1.27112 
35 1 12.034 9.60843 2.56375 
45 1 9.22403 8.93317 3.25955 
47 1 12.7084 8.77524 0.48531 
49 1 11.3447 11.0322 0.686854 
51 1 8.83047 10.1554 2.59571 
53 1 11.3056 7.59327 8.98642 
54 1 10.4537 8.80907 8.21926 
56 1 9.01257 11.2902 11.9478 
57 1 8.31016 10.1777 11.0436 
58 1 11.3847 10.9317 11.6636 
60 1 12.2727 8.05501 9.59226 
61 1 10.4779 8.86255 6.76877 
73 1 9.04922 9.02532 8.92104 
75 1 12.7181 8.82692 11.7717 
76 1 12.2847 10.0993 10.9796 
79 1 9.03628 7.52808 9.71876 
80 1 8.34589 12.4959 12.2974 
89 1 10.8932 10.0599 9.0019 
93 1 8.39535 8.91923 11.6462 
95 1 10.038 11.0433 9.72577 
105 1 10.3027 11.484 11.0344 
109 1 8.62952 7.6387 11.1259 
110 1 12.033 9.63009 9.7148 
114 1 8.82772 10.2493 9.77555 
119 1 8.31621 10.1526 1.31178 
120 1 12.2931 8.12535 2.66599 
123 1 12.2471 10.089 1.2368 
124 1 9.18442 7.68612 2.55276 
128 1 10.0421 11.0226 2.6437 
129 2 7.94784 7.40516 9.60754 
130 2 6.98629 8.33412 8.69206 
131 3 7.80659 8.76353 8.23988 
6 1 5.04086 8.22236 13.5416 
13 1 9.65399 10.2484 25.1536 
17 1 9.13258 8.94303 25.1367 
30 1 9.92745 7.73836 25.0732 
34 1 11.2595 7.48307 25.1924 
36 1 8.34062 12.4891 25.7629 
46 1 11.7001 8.7869 25.0803 
50 1 11.0669 10.144 25.2521 
55 1 9.6034 10.2969 13.0415 
59 1 10.9618 10.1034 12.9279 
74 1 11.6949 8.84483 13.0199 
78 1 11.2577 7.53882 12.941 
90 1 9.92143 7.7124 13.0869 
94 1 9.19923 8.97604 12.9714 
101 1 5.04245 8.21749 24.5467 
33 1 11.7459 6.69858 0.659619 
77 1 11.7212 6.64224 11.6389 
41 1 17.8501 6.09365 13.563 
68 1 17.8406 6.17054 24.5277 
103 1 19.162 6.10611 22.5701 
126 1 19.151 6.11573 15.5179 
3 1 19.5455 6.87026 12.249 
7 1 20.0607 8.13782 12.2819 
10 1 15.1319 8.43856 12.8538 
22 1 19.1783 9.39022 12.1607 
26 1 17.9826 9.66128 12.3015 
38 1 17.4819 8.34783 12.1985 
42 1 18.143 7.00273 12.391 
44 1 20.1197 11.8655 12.8201 
48 1 12.5944 7.56128 1.40334 
65 1 19.5925 6.80134 0.12468 
69 1 18.2263 7.05404 -0.00115055 
82 1 17.5006 8.34436 0.139737 
86 1 17.9637 9.67219 0.0395407 
96 1 14.0514 8.70448 12.3562 
98 1 19.1687 9.38856 0.125359 
102 1 20.0133 8.1437 0.0750334 
113 1 12.553 7.57974 10.9251 
1 1 17.9382 9.55657 16.2966 
2 1 18.6621 8.33491 16.9653 
8 1 18.8018 10.3596 15.5335 
9 1 18.7207 8.27026 18.4197 
20 1 14.0525 8.6842 25.7243 
21 1 18.2352 7.01363 16.1982 
23 1 19.7913 10.6123 13.3199 
24 1 20.5168 9.48828 14.1414 
25 1 17.4307 10.4579 13.5784 
27 1 17.1638 7.52882 15.4291 
37 1 19.9612 8.19723 16.1268 
39 1 16.49 8.36632 13.3504 
40 1 16.6002 9.56924 14.265 
63 1 17.8467 9.53612 21.8333 
64 1 18.6663 8.30976 21.0924 
70 1 16.9293 9.08241 22.4838 
71 1 18.7196 8.26899 19.6406 
72 1 20.0665 11.8528 25.2262 
81 1 19.9493 8.19425 21.9409 
83 1 16.4804 8.34134 24.7027 
84 1 16.9203 7.04701 23.9154 
85 1 17.4312 10.4401 24.5204 
87 1 20.0043 9.46124 22.6656 
97 1 18.2488 7.01464 21.8738 
99 1 19.7977 10.6029 24.7921 
100 1 18.5383 10.9184 23.8267 
104 1 15.1345 8.4415 25.2323 
108 1 18.8094 10.3705 22.5693 
111 1 20.5274 9.48017 23.955 
112 1 17.1655 7.5019 22.6453 
115 1 16.6182 9.57512 23.8191 
118 1 16.886 9.00394 15.5577 
121 1 16.9459 7.0444 14.1062 
122 1 20.018 9.44384 15.4107 
125 1 18.5067 10.8943 14.2676 
ITEM: TIMESTEP
30
ITEM: NUMBER OF ATOMS
131
ITEM: BOX BOUNDS xy xz yz pp pp pp
0.0000000000000000e+00 2.3654499999999999e+01 7.8845000000000001e+00
0.0000000000000000e+00 1.3658086643083999e+01 0.0000000000000000e+00
0.0000000000000000e+00 2.5747000000000000e+01 0.0000000000000000e+00
ITEM: ATOMS id type x y z 
18 1 10.3564 6.76912 2.67159 
28 1 5.0929 4.63244 12.8895 
31 1 9.42365 6.57795 0.424586 
62 1 9.06481 5.29308 12.3856 
91 1 9.38814 6.56227 11.997 
92 1 10.78 6.23977 10.9716 
106 1 10.3834 6.81888 9.72334 
127 1 10.6232 6.26688 1.37036 
4 1 4.42421 5.87864 13.2987 
5 1 3.18522 5.62708 14.2253 
43 1 4.58585 6.97931 15.4715 
52 1 9.09129 5.27117 25.7122 
66 1 4.43394 5.84314 24.7768 
67 1 5.08186 6.99053 23.895 
88 1 5.10207 4.61389 25.1844 
107 1 3.16198 5.66671 23.8741 
116 1 4.57804 6.97848 22.6069 
117 1 5.1002 6.98654 14.1822 
11 1 11.2441 7.57657 3.41426 
12 1 10.5334 8.78812 4.07079 
14 1 9.00939 11.2449 0.413914 
15 1 10.2385 11.5024 1.3505 
16 1 8.35082 8.88925 0.665621 
19 1 10.49 8.85937 5.55144 
29 1 10.951 10.11 3.31275 
32 1 8.63518 7.64788 1.28058 
35 1 12.051 9.6138 2.57355 
45 1 9.21369 8.93182 3.25582 
47 1 12.6923 8.79474 0.483843 
49 1 11.3591 11.0331 0.673391 
51 1 8.83873 10.1513 2.5994 
53 1 11.3007 7.60288 8.98044 
54 1 10.4473 8.80574 8.22923 
56 1 9.02273 11.2686 11.946 
57 1 8.32494 10.1591 11.0493 
58 1 11.388 10.918 11.6819 
60 1 12.2659 8.06417 9.58907 
61 1 10.473 8.85839 6.76711 
73 1 9.0452 9.01963 8.92689 
75 1 12.7029 8.84432 11.7765 
76 1 12.2958 10.1021 10.9797 
79 1 9.04255 7.52139 9.70341 
80 1 8.33494 12.5067 12.303 
89 1 10.8812 10.0573 9.00372 
93 1 8.38677 8.90492 11.6732 
95 1 10.034 11.0395 9.71881 
105 1 10.302 11.4652 11.0316 
109 1 8.60448 7.63024 11.1329 
110 1 12.0494 9.62666 9.70653 
114 1 8.82196 10.2511 9.77524 
119 1 8.32378 10.1395 1.30683 
120 1 12.2993 8.12822 2.67273 
123 1 12.2628 10.0959 1.23526 
124 1 9.16897 7.6748 2.55126 
128 1 10.0328 11.024 2.65775 
129 2 7.94008 7.36391 9.63066 
130 2 7.00175 8.35262 8.6799 
131 3 7.80366 8.77878 8.21211 
6 1 5.05999 8.24292 13.5284 
13 1 9.65594 10.2277 25.1441 
17 1 9.1306 8.93628 25.1364 
30 1 9.91625 7.72243 25.0763 
34 1 11.2458 7.48919 25.197 
36 1 8.33233 12.4909 25.7567 
46 1 11.7086 8.79347 25.0875 
50 1 11.0789 10.1655 25.2507 
55 1 9.59373 10.3135 13.0459 
59 1 10.964 10.1012 12.9308 
74 1 11.6952 8.83528 12.9899 
78 1 11.2594 7.52745 12.9516 
90 1 9.92011 7.70466 13.0771 
94 1 9.20049 8.97302 12.9782 
101 1 5.05205 8.23647 24.5531 
33 1 11.7493 6.70258 0.661572 
77 1 11.7132 6.65637 11.6342 
41 1 17.8388 6.10742 13.5447 
68 1 17.8314 6.19192 24.5447 
103 1 19.1612 6.10536 22.5602 
126 1 19.1566 6.10685 15.5299 
3 1 19.5489 6.89017 12.2589 
7 1 20.0691 8.16301 12.2807 
10 1 15.1324 8.44168 12.8485 
22 1 19.1864 9.38695 12.147 
26 1 17.9857 9.66274 12.3093 
38 1 17.4799 8.34143 12.2026 
42 1 18.1197 6.96737 12.3834 
44 1 20.1456 11.8539 12.8198 
48 1 12.5888 7.58161 1.38642 
65 1 19.6039 6.81639 0.144768 
69 1 18.2331 7.03783 0.0125748 
82 1 17.4996 8.33197 0.129855 
86 1 17.9621 9.67023 0.0391065 
96 1 14.0521 8.69867 12.3625 
98 1 19.1647 9.40534 0.148217 
102 1 20.0161 8.12757 0.0670672 
113 1 12.5485 7.60025 10.9287 
1 1 17.9423 9.54798 16.2956 
2 1 18.6595 8.33787 16.9428 
8 1 18.8305 10.3535 15.5557 
9 1 18.7198 8.27351 18.4357 
20 1 14.0591 8.68386 25.7123 
21 1 18.2431 7.0218 16.1876 
23 1 19.7804 10.6166 13.3426 
24 1 20.5288 9.49564 14.1337 
25 1 17.4357 10.4309 13.5677 
27 1 17.142 7.52621 15.4431 
37 1 19.9769 8.20238 16.1222 
39 1 16.5062 8.33371 13.3455 
40 1 16.6052 9.55812 14.2647 
63 1 17.8538 9.5374 21.8341 
64 1 18.6875 8.29338 21.1217 
70 1 16.9264 9.07609 22.4797 
71 1 18.7211 8.26928 19.648 
72 1 20.0977 11.856 25.2372 
81 1 19.9659 8.21058 21.9437 
83 1 16.5001 8.31719 24.7034 
84 1 16.9041 7.044 23.9039 
85 1 17.4383 10.4367 24.5214 
87 1 20.0072 9.46408 22.6705 
97 1 18.2393 7.01008 21.8706 
99 1 19.7946 10.5927 24.7593 
100 1 18.5618 10.8876 23.8347 
104 1 15.1387 8.4412 25.2381 
108 1 18.8359 10.3471 22.5489 
111 1 20.5331 9.48695 23.9558 
112 1 17.1368 7.50027 22.6268 
115 1 16.6246 9.55581 23.825 
118 1 16.8808 9.0025 15.5519 
121 1 16.9274 7.03823 14.1085 
122 1 20.0214 9.45467 15.4125 
125 1 18.5494 10.877 14.258 
ITEM: TIMESTEP
40
ITEM: NUMBER OF ATOMS
131
ITEM: BOX BOUNDS xy xz yz pp pp pp
0.0000000000000000e+00 2.3654499999999999e+01 7.8845000000000001e+00
0.0000000000000000e+00 1.3658086643083999e+01 0.0000000000000000e+00
0.0000000000000000e+00 2.5747000000000000e+01 0.0000000000000000e+00
ITEM: ATOMS id type x y z 
18 1 10.3417 6.77779 2.68086 
28 1 5.09205 4.65996 12.8903 
31 1 9.40287 6.58719 0.425875 
62 1 9.02918 5.30193 12.3921 
91 1 9.38802 6.57679 11.9964 
92 1 10.7491 6.27021 10.9831 
106 1 10.3649 6.82862 9.72016 
127 1 10.6053 6.2936 1.37765 
4 1 4.41487 5.90207 13.3001 
5 1 3.18058 5.63613 14.23 
43 1 4.58288 6.98243 15.4668 
52 1 9.05198 5.28121 25.699 
66 1 4.42771 5.86636 24.7802 
67 1 5.08449 7.01235 23.9025 
88 1 5.10251 4.63467 25.1765 
107 1 3.14667 5.69043 23.8752 
116 1 4.57354 6.98152 22.6123 
117 1 5.09932 7.0125 14.1774 
11 1 11.2405 7.57738 3.40813 
12 1 10.5286 8.77949 4.06962 
14 1 9.01784 11.2164 0.413386 
15 1 10.245 11.4954 1.35549 
16 1 8.31547 8.87491 0.650465 
19 1 10.4937 8.85313 5.55058 
29 1 10.9501 10.0983 3.29883 
32 1 8.61347 7.63637 1.27713 
35 1 12.0664 9.62046 2.57241 
45 1 9.20915 8.92519 3.25784 
47 1 12.6909 8.81704 0.47521 
49 1 11.3702 11.0494 0.675912 
51 1 8.83913 10.1491 2.59655 
53 1 11.2903 7.61339 8.97773 
54 1 10.4389 8.79471 8.22804 
56 1 9.02447 11.266 11.9498 
57 1 8.33281 10.1396 11.0594 
58 1 11.3906 10.8989 11.6893 
60 1 12.2586 8.07789 9.58291 
61 1 10.4704 8.85243 6.76513 
73 1 9.04002 9.00702 8.93418 
75 1 12.6953 8.86375 11.783 
76 1 12.3187 10.1039 10.9752 
79 1 9.02809 7.52203 9.7148 
80 1 8.33134 12.4978 12.3036 
89 1 10.8743 10.0449 9.00842 
93 1 8.38115 8.89611 11.7046 
95 1 10.0232 11.0294 9.71929 
105 1 10.3022 11.4437 11.034 
109 1 8.58402 7.62309 11.1302 
110 1 12.0554 9.63654 9.69709 
114 1 8.81241 10.2464 9.77985 
119 1 8.3238 10.12 1.30404 
120 1 12.3018 8.13858 2.6725 
123 1 12.2761 10.1106 1.23226 
124 1 9.13449 7.67139 2.55811 
128 1 10.0304 11.0225 2.66114 
129 2 7.92593 7.30306 9.61488 
130 2 7.02639 8.37706 8.66231 
131 3 7.81446 8.79934 8.18388 
6 1 5.08704 8.26091 13.5165 
13 1 9.66763 10.2112 25.1467 
17 1 9.12419 8.92358 25.1381 
30 1 9.9097 7.71999 25.0713 
34 1 11.2478 7.4866 25.2025 
36 1 8.33413 12.4631 25.7559 
46 1 11.6929 8.79721 25.0842 
50 1 11.0902 10.1739 25.2502 
55 1 9.59099 10.3204 13.0612 
59 1 10.9572 10.1074 12.9364 
74 1 11.6931 8.82556 12.9596 
78 1 11.2699 7.50269 12.9674 
90 1 9.93432 7.70691 13.0828 
94 1 9.19553 8.97844 12.9899 
101 1 5.06513 8.24936 24.5628 
33 1 11.7397 6.71517 0.670985 
77 1 11.7021 6.67743 11.6308 
41 1 17.8253 6.08893 13.5493 
68 1 17.8263 6.22028 24.5517 
103 1 19.16 6.10949 22.5598 
126 1 19.1617 6.11126 15.5363 
3 1 19.5326 6.91167 12.2704 
7 1 20.0725 8.18322 12.2768 
10 1 15.13 8.44297 12.8391 
22 1 19.1888 9.38261 12.1283 
26 1 17.9893 9.65631 12.3052 
38 1 17.4888 8.32942 12.1917 
42 1 18.1042 6.95831 12.3789 
44 1 20.188 11.8388 12.8142 
48 1 12.583 7.60353 1.38528 
65 1 19.6146 6.81154 0.154006 
69 1 18.246 7.02373 0.036988 
82 1 17.5032 8.31923 0.122635 
86 1 17.9629 9.66943 0.0476222 
96 1 14.0435 8.69705 12.3674 
98 1 19.1677 9.40769 0.17108 
102 1 20.0096 8.14472 0.0659806 
113 1 12.5379 7.62825 10.9309 
1 1 17.9447 9.54399 16.2916 
2 1 18.671 8.34368 16.9483 
8 1 18.848 10.3441 15.571 
9 1 18.7178 8.27973 18.4343 
20 1 14.0634 8.68655 25.6983 
21 1 18.2406 7.03562 16.1737 
23 1 19.7979 10.6166 13.3548 
24 1 20.5518 9.51155 14.129 
25 1 17.4599 10.408 13.5753 
27 1 17.1225 7.51528 15.4463 
37 1 19.9815 8.20747 16.1264 
39 1 16.5092 8.31564 13.3415 
40 1 16.6111 9.5325 14.256 
63 1 17.8548 9.53071 21.8322 
64 1 18.6925 8.29797 21.1225 
70 1 16.9254 9.05951 22.4718 
71 1 18.7244 8.26916 19.6458 
72 1 20.1486 11.8519 25.2529 
81 1 19.9684 8.21103 21.9412 
83 1 16.5205 8.29066 24.7033 
84 1 16.8772 7.04204 23.8876 
85 1 17.4518 10.4142 24.5156 
87 1 20.0368 9.46921 22.6675 
97 1 18.2382 7.01847 21.8742 
99 1 19.8084 10.5945 24.7548 
100 1 18.5766 10.8617 23.8187 
104 1 15.148 8.43478 25.2431 
108 1 18.8482 10.338 22.5398 
111 1 20.5552 9.49687 23.9589 
112 1 17.1103 7.49231 22.6043 
115 1 16.6342 9.53186 23.8319 
118 1 16.886 8.98933 15.5533 
121 1 16.9137 7.02855 14.1033 
122 1 20.0471 9.45971 15.4178 
125 1 18.5699 10.8609 14.2669 
ITEM: TIMESTEP
50
ITEM: NUMBER OF ATOMS
131
ITEM: BOX BOUNDS xy xz yz pp pp pp
0.0000000000000000e+00 2.3654499999999999e+01 7.8845000000000001e+00
0.0000000000000000e+00 1.3658086643083999e+01 0.0000000000000000e+00
0.0000000000000000e+00 2.5747000000000000e+01 0.0000000000000000e+00
ITEM: ATOMS id type x y z 
18 1 10.3113 6.80168 2.68639 
28 1 5.09485 4.70384 12.8874 
31 1 9.37286 6.59155 0.42374 
62 1 8.96304 5.31345 12.4079 
91 1 9.34247 6.58168 12.0038 
92 1 10.7166 6.30779 10.9874 
106 1 10.3431 6.84688 9.72239 
127 1 10.575 6.32209 1.37704 
4 1 4.40629 5.9356 13.3058 
5 1 3.16978 5.64354 14.2357 
43 1 4.59179 6.99589 15.4587 
52 1 8.98401 5.30213 25.6799 
66 1 4.42697 5.89573 24.7842 
67 1 5.08956 7.04019 23.9136 
88 1 5.10791 4.66372 25.1637 
107 1 3.13808 5.72102 23.8815 
116 1 4.57761 6.98542 22.6227 
117 1 5.10526 7.04748 14.1696 
11 1 11.2373 7.58483 3.40121 
12 1 10.525 8.77029 4.06624 
14 1 9.02603 11.1872 0.419716 
15 1 10.2521 11.4864 1.3583 
16 1 8.27279 8.84944 0.638255 
19 1 10.4948 8.84138 5.54962 
29 1 10.949 10.084 3.28792 
32 1 8.56669 7.6283 1.2819 
35 1 12.0788 9.63284 2.56496 
45 1 9.19623 8.91895 3.25626 
47 1 12.6948 8.84359 0.459979 
49 1 11.3851 11.0634 0.675742 
51 1 8.83307 10.1369 2.58897 
53 1 11.2695 7.62046 8.97531 
54 1 10.4302 8.78614 8.22699 
56 1 9.0275 11.2498 11.9688 
57 1 8.33432 10.1195 11.0839 
58 1 11.3973 10.8868 11.6861 
60 1 12.2429 8.09823 9.57572 
61 1 10.4696 8.84067 6.76303 
73 1 9.02995 9.00009 8.9388 
75 1 12.6988 8.88541 11.7723 
76 1 12.3411 10.123 10.9607 
79 1 8.98957 7.52015 9.71763 
80 1 8.32241 12.486 12.3046 
89 1 10.8638 10.0354 9.01007 
93 1 8.36627 8.87957 11.7247 
95 1 10.0091 11.0094 9.72537 
105 1 10.3006 11.4187 11.0389 
109 1 8.54692 7.62061 11.1531 
110 1 12.0664 9.65099 9.68402 
114 1 8.79439 10.2312 9.79464 
119 1 8.31697 10.09 1.29877 
120 1 12.2994 8.15635 2.67425 
123 1 12.2999 10.1315 1.22705 
124 1 9.08854 7.66348 2.56211 
128 1 10.0278 11.0116 2.6572 
129 2 7.91805 7.19823 9.6026 
130 2 7.05437 8.41754 8.62511 
131 3 7.83105 8.83269 8.13528 
6 1 5.11938 8.29305 13.5013 
13 1 9.67509 10.1874 25.1476 
17 1 9.11826 8.91102 25.1427 
30 1 9.90817 7.71464 25.0674 
34 1 11.2405 7.48657 25.2024 
36 1 8.33247 12.4201 25.7497 
46 1 11.6862 8.79895 25.0829 
50 1 11.0974 10.1834 25.2561 
55 1 9.59003 10.307 13.0776 
59 1 10.9615 10.1063 12.9443 
74 1 11.6944 8.82959 12.9701 
78 1 11.2676 7.50816 12.9747 
90 1 9.92957 7.70397 13.0993 
94 1 9.20079 8.96603 13.0151 
101 1 5.07875 8.27547 24.5732 
33 1 11.7218 6.73765 0.688859 
77 1 11.687 6.71469 11.6349 
41 1 17.8084 6.07349 13.5491 
68 1 17.8151 6.24495 24.5546 
103 1 19.1542 6.12483 22.5668 
126 1 19.1637 6.12068 15.5321 
3 1 19.5209 6.93552 12.276 
7 1 20.0773 8.1979 12.2748 
10 1 15.1294 8.43625 12.8285 
22 1 19.1919 9.37339 12.0931 
26 1 17.9896 9.64419 12.2945 
38 1 17.4847 8.32051 12.1842 
42 1 18.0935 6.94587 12.3856 
44 1 20.2638 11.8233 12.8022 
48 1 12.576 7.63253 1.37814 
65 1 19.6262 6.8274 0.173841 
69 1 18.2525 7.02073 0.0576427 
82 1 17.5166 8.30412 0.134262 
86 1 17.9681 9.66076 0.0628982 
96 1 14.0417 8.70716 12.372 
98 1 19.1723 9.41698 0.201275 
102 1 20.0149 8.15357 0.0734339 
113 1 12.5256 7.65011 10.9185 
1 1 17.95 9.53642 16.2871 
2 1 18.673 8.35454 16.948 
8 1 18.8735 10.3323 15.5833 
9 1 18.7195 8.28649 18.4362 
20 1 14.0591 8.69291 25.687 
21 1 18.2454 7.05077 16.1653 
23 1 19.8316 10.6258 13.3669 
24 1 20.5991 9.52114 14.1405 
25 1 17.4927 10.3786 13.589 
27 1 17.1084 7.50006 15.4421 
37 1 19.9951 8.21105 16.1236 
39 1 16.513 8.28981 13.3227 
40 1 16.6353 9.50431 14.2509 
63 1 17.8586 9.52086 21.8289 
64 1 18.6971 8.31066 21.1216 
70 1 16.9247 9.03546 22.4577 
71 1 18.7274 8.27341 19.6454 
72 1 20.233 11.8326 25.2703 
81 1 19.9755 8.2108 21.9466 
83 1 16.5278 8.25997 24.7067 
84 1 16.8502 7.02778 23.8685 
85 1 17.478 10.384 24.5041 
87 1 20.0733 9.4746 22.6607 
97 1 18.2357 7.02927 21.8737 
99 1 19.8329 10.601 24.7535 
100 1 18.6046 10.8339 23.8177 
104 1 15.1612 8.41997 25.2425 
108 1 18.8704 10.3132 22.5288 
111 1 20.5909 9.51225 23.9572 
112 1 17.0798 7.4759 22.579 
115 1 16.6573 9.50264 23.8258 
118 1 16.8876 8.97024 15.5539 
121 1 16.8905 7.00574 14.1016 
122 1 20.0872 9.46572 15.4231 
125 1 18.5975 10.838 14.2797 
ITEM: TIMESTEP
60
ITEM: NUMBER OF ATOMS
131
ITEM: BOX BOUNDS xy xz yz pp pp pp
0.0000000000000000e+00 2.3654499999999999e+01 7.8845000000000001e+00
0.0000000000000000e+00 1.3658086643083999e+01 0.0000000000000000e+00
0.0000000000000000e+00 2.5747000000000000e+01 0.0000000000000000e+00
ITEM: ATOMS id type x y z 
18 1 10.3095 6.80216 2.68422 
28 1 5.09623 4.70904 12.8862 
31 1 9.36863 6.59303 0.424618 
62 1 8.95322 5.31577 12.4098 
91 1 9.34319 6.58845 12.0049 
92 1 10.7118 6.31398 10.9924 
106 1 10.3403 6.84823 9.72465 
127 1 10.5708 6.32626 1.37752 
4 1 4.40552 5.93843 13.3071 
5 1 3.17008 5.64531 14.2347 
43 1 4.5926 6.99591 15.4569 
52 1 8.97409 5.30482 25.6774 
66 1 4.4282 5.89943 24.7867 
67 1 5.09013 7.04036 23.9125 
88 1 5.10946 4.66714 25.1621 
107 1 3.13709 5.72252 23.884 
116 1 4.57886 6.9871 22.625 
117 1 5.10673 7.04994 14.1686 
11 1 11.2373 7.58579 3.39905 
12 1 10.5237 8.76956 4.06644 
14 1 9.02585 11.1838 0.419804 
15 1 10.2525 11.4858 1.35829 
16 1 8.2691 8.84819 0.63604 
19 1 10.4948 8.83946 5.54924 
29 1 10.9461 10.0819 3.28708 
32 1 8.56149 7.62509 1.28028 
35 1 12.08 9.63374 2.56382 
45 1 9.19725 8.92061 3.25666 
47 1 12.6955 8.84475 0.459998 
49 1 11.3859 11.0656 0.67518 
51 1 8.83158 10.1362 2.588 
53 1 11.2673 7.62159 8.97622 
54 1 10.4294 8.78576 8.22715 
56 1 9.02753 11.2497 11.9711 
57 1 8.33145 10.1183 11.0854 
58 1 11.398 10.8845 11.6868 
60 1 12.2409 8.09994 9.5744 
61 1 10.4691 8.83896 6.76328 
73 1 9.02765 8.9996 8.93845 
75 1 12.6967 8.88771 11.7738 
76 1 12.3413 10.1229 10.9595 
79 1 8.98252 7.5193 9.7209 
80 1 8.32243 12.4818 12.3046 
89 1 10.8642 10.035 9.0107 
93 1 8.36586 8.87432 11.7298 
95 1 10.0069 11.0074 9.72669 
105 1 10.2988 11.4167 11.0413 
109 1 8.53991 7.61662 11.144 
110 1 12.0652 9.65367 9.68262 
114 1 8.79258 10.2294 9.79768 
119 1 8.31478 10.0874 1.29754 
120 1 12.2986 8.15775 2.67287 
123 1 12.3013 10.133 1.22524 
124 1 9.08253 7.66319 2.56353 
128 1 10.0255 11.0103 2.65612 
129 2 7.92243 7.18671 9.61431 
130 2 7.05602 8.42343 8.61793 
131 3 7.83358 8.83714 8.12919 
6 1 5.12285 8.29488 13.5003 
13 1 9.67534 10.1857 25.1497 
17 1 9.11648 8.90946 25.1442 
30 1 9.90673 7.71277 25.068 
34 1 11.2402 7.48792 25.204 
36 1 8.33059 12.4162 25.7477 
46 1 11.6874 8.79866 25.0824 
50 1 11.0975 10.1824 25.2566 
55 1 9.59204 10.3099 13.0807 
59 1 10.9583 10.1017 12.9442 
74 1 11.6919 8.82859 12.9666 
78 1 11.2681 7.50772 12.9766 
90 1 9.93162 7.70286 13.0975 
94 1 9.20078 8.96603 13.0163 
101 1 5.08136 8.27767 24.5758 
33 1 11.7182 6.74031 0.6873 
77 1 11.6816 6.71643 11.6307 
41 1 17.807 6.07111 13.5507 
68 1 17.8143 6.24753 24.5556 
103 1 19.1558 6.12731 22.5666 
126 1 19.166 6.12323 15.5312 
3 1 19.5218 6.93653 12.2777 
7 1 20.0792 8.2001 12.2739 
10 1 15.1284 8.43584 12.828 
22 1 19.189 9.37338 12.0877 
26 1 17.9947 9.64381 12.2931 
38 1 17.4813 8.31697 12.1807 
42 1 18.0926 6.94496 12.3851 
44 1 20.2755 11.822 12.8007 
48 1 12.5742 7.63559 1.37908 
65 1 19.6284 6.82729 0.174248 
69 1 18.2547 7.0218 0.0579807 
82 1 17.5159 8.30662 0.134322 
86 1 17.9674 9.66027 0.0631882 
96 1 14.0409 8.708 12.3705 
98 1 19.1727 9.41555 0.205003 
102 1 20.0138 8.15586 0.0761142 
113 1 12.5228 7.65438 10.9198 
1 1 17.9498 9.53607 16.2862 
2 1 18.6752 8.35392 16.9473 
8 1 18.8762 10.3308 15.5835 
9 1 18.7198 8.28732 18.4356 
20 1 14.0643 8.69207 25.6839 
21 1 18.2463 7.05135 16.1636 
23 1 19.8381 10.6287 13.3702 
24 1 20.604 9.52423 14.1406 
25 1 17.4976 10.3763 13.5877 
27 1 17.1081 7.49867 15.4412 
37 1 19.9952 8.21179 16.1247 
39 1 16.5098 8.28703 13.3237 
40 1 16.6368 9.50151 14.251 
63 1 17.8592 9.51969 21.8298 
64 1 18.6979 8.31036 21.1212 
70 1 16.9255 9.03297 22.4579 
71 1 18.7279 8.27465 19.6467 
72 1 20.2452 11.8311 25.2725 
81 1 19.9756 8.20967 21.9469 
83 1 16.5279 8.25857 24.7067 
84 1 16.85 7.02725 23.8678 
85 1 17.4816 10.3798 24.5037 
87 1 20.0769 9.47465 22.6609 
97 1 18.2353 7.03261 21.874 
99 1 19.837 10.6003 24.7537 
100 1 18.6077 10.8303 23.8164 
104 1 15.1601 8.41996 25.2422 
108 1 18.8726 10.3115 22.5306 
111 1 20.5943 9.51514 23.9546 
112 1 17.0792 7.47475 22.5784 
115 1 16.6612 9.49633 23.8256 
118 1 16.8895 8.96825 15.5542 
121 1 16.8899 7.00331 14.1011 
122 1 20.0916 9.46679 15.4244 
125 1 18.6021 10.8355 14.2804 
ITEM: TIMESTEP
70
ITEM: NUMBER OF ATOMS
131
ITEM: BOX BOUNDS xy xz yz pp pp pp
0.0000000000000000e+00 2.3654499999999999e+01 7.8845000000000001e+00
0.0000000000000000e+00 1.3658086643083999e+01 0.0000000000000000e+00
0.0000000000000000e+00 2.5747000000000000e+01 0.0000000000000000e+00
ITEM: ATOMS id type x y z 
18 1 10.2969 6.81159 2.68144 
28 1 5.10414 4.72783 12.8798 
31 1 9.35036 6.59654 0.424221 
62 1 8.9143 5.33163 12.4177 
91 1 9.33427 6.60108 12.0114 
92 1 10.6861 6.33164 11.0045 
106 1 10.3262 6.85728 9.73062 
127 1 10.5554 6.33798 1.37404 
4 1 4.406 5.94998 13.3095 
5 1 3.17071 5.6492 14.2332 
43 1 4.59968 7.00095 15.4524 
52 1 8.93203 5.31677 25.6675 
66 1 4.43242 5.9112 24.7919 
67 1 5.09489 7.04842 23.9165 
88 1 5.11778 4.67887 25.1565 
107 1 3.13761 5.73193 23.8903 
116 1 4.584 6.99065 22.6309 
117 1 5.11425 7.0616 14.1647 
11 1 11.2332 7.589 3.39255 