ITEM: TIMESTEP
0
ITEM: NUMBER OF ATOMS
72
ITEM: BOX BOUNDS pp pp pp
0.0000000000000000e+00 1.3344799999999999e+01
0.0000000000000000e+00 1.3344799999999999e+01
0.0000000000000000e+00 1.3344799999999999e+01
ITEM: ATOMS id type x y z 
4 1 0 5.66794 7.67686 
5 1 0 4.67762 8.66718 
6 1 0 3.81007 9.53473 
10 1 0 1.00446 12.3403 
11 1 0 1.99478 11.35 
12 1 0 2.86233 10.4825 
52 1 5.66794 0 7.67686 
53 1 4.67762 0 8.66718 
54 1 3.81007 0 9.53473 
58 1 1.00446 0 12.3403 
59 1 1.99478 0 11.35 
60 1 2.86233 0 10.4825 
28 1 5.66794 7.67686 0 
29 1 4.67762 8.66718 0 
30 1 3.81007 9.53473 0 
34 1 1.00446 12.3403 0 
35 1 1.99478 11.35 0 
36 1 2.86233 10.4825 0 
40 1 0 7.67686 5.66794 
41 1 0 8.66718 4.67762 
42 1 0 9.53473 3.81007 
46 1 0 12.3403 1.00446 
47 1 0 11.35 1.99478 
48 1 0 10.4825 2.86233 
25 1 1.00446 7.67686 6.6724 
26 1 1.99478 8.66718 6.6724 
27 1 2.86233 9.53473 6.6724 
31 1 5.66794 12.3403 6.6724 
32 1 4.67762 11.35 6.6724 
33 1 3.81007 10.4825 6.6724 
49 1 5.66794 6.6724 12.3403 
50 1 4.67762 6.6724 11.35 
51 1 3.81007 6.6724 10.4825 
55 1 1.00446 6.6724 7.67686 
56 1 1.99478 6.6724 8.66718 
57 1 2.86233 6.6724 9.53473 
16 1 7.67686 0 5.66794 
17 1 8.66718 0 4.67762 
18 1 9.53473 0 3.81007 
22 1 12.3403 0 1.00446 
23 1 11.35 0 1.99478 
24 1 10.4825 0 2.86233 
64 1 7.67686 5.66794 0 
65 1 8.66718 4.67762 0 
66 1 9.53473 3.81007 0 
70 1 12.3403 1.00446 0 
71 1 11.35 1.99478 0 
72 1 10.4825 2.86233 0 
1 1 6.6724 1.00446 7.67686 
2 1 6.6724 1.99478 8.66718 
3 1 6.6724 2.86233 9.53473 
7 1 6.6724 5.66794 12.3403 
8 1 6.6724 4.67762 11.35 
9 1 6.6724 3.81007 10.4825 
61 1 12.3403 5.66794 6.6724 
62 1 11.35 4.67762 6.6724 
63 1 10.4825 3.81007 6.6724 
67 1 7.67686 1.00446 6.6724 
68 1 8.66718 1.99478 6.6724 
69 1 9.53473 2.86233 6.6724 
13 1 7.67686 6.6724 1.00446 
14 1 8.66718 6.6724 1.99478 
15 1 9.53473 6.6724 2.86233 
19 1 12.3403 6.6724 5.66794 
20 1 11.35 6.6724 4.67762 
21 1 10.4825 6.6724 3.81007 
37 1 6.6724 12.3403 5.66794 
38 1 6.6724 11.35 4.67762 
39 1 6.6724 10.4825 3.81007 
43 1 6.6724 7.67686 1.00446 
44 1 6.6724 8.66718 1.99478 
45 1 6.6724 9.53473 2.86233 
ITEM: TIMESTEP
10
ITEM: NUMBER OF ATOMS
72
ITEM: BOX BOUNDS pp pp pp
0.0000000000000000e+00 1.3344799999999999e+01
0.0000000000000000e+00 1.3344799999999999e+01
0.0000000000000000e+00 1.3344799999999999e+01
ITEM: ATOMS id type x y z 
4 1 0.000313208 5.64716 7.69787 
5 1 -0.00108777 4.66712 8.67669 
6 1 0.000356064 3.81451 9.5309 
10 1 8.24902e-05 1.02539 12.3192 
11 1 0.00106831 2.00426 11.3396 
12 1 -0.000335015 2.85851 10.4869 
52 1 5.64716 0.000313208 7.69787 
53 1 4.66712 -0.00108777 8.67669 
54 1 3.81451 0.000356064 9.5309 
58 1 1.02539 8.24902e-05 12.3192 
59 1 2.00426 0.00106831 11.3396 
60 1 2.85851 -0.000335015 10.4869 
28 1 5.64716 7.69787 0.000313208 
29 1 4.66712 8.67669 -0.00108777 
30 1 3.81451 9.5309 0.000356064 
34 1 1.02539 12.3192 8.249e-05 
35 1 2.00426 11.3396 0.00106831 
36 1 2.85851 10.4869 -0.000335015 
40 1 0.000313207 7.69787 5.64716 
41 1 -0.00108778 8.67669 4.66712 
42 1 0.000356066 9.5309 3.81451 
46 1 8.249e-05 12.3192 1.02539 
47 1 0.00106831 11.3396 2.00426 
48 1 -0.000335014 10.4869 2.85851 
25 1 1.02603 7.69814 6.67262 
26 1 2.00443 8.67782 6.6715 
27 1 2.85772 9.5298 6.67294 
31 1 5.64744 12.3199 6.67233 
32 1 4.6684 11.3401 6.67175 
33 1 3.81363 10.4862 6.67284 
49 1 5.64744 6.67233 12.3199 
50 1 4.6684 6.67175 11.3401 
51 1 3.81363 6.67284 10.4862 
55 1 1.02603 6.67262 7.69814 
56 1 2.00443 6.6715 8.67782 
57 1 2.85772 6.67294 9.5298 
16 1 7.69787 0.000313207 5.64716 
17 1 8.67669 -0.00108778 4.66712 
18 1 9.5309 0.000356066 3.81451 
22 1 12.3192 8.249e-05 1.02539 
23 1 11.3396 0.00106831 2.00426 
24 1 10.4869 -0.000335014 2.85851 
64 1 7.69787 5.64716 0.000313208 
65 1 8.67669 4.66712 -0.00108777 
66 1 9.5309 3.81451 0.000356064 
70 1 12.3192 1.02539 8.249e-05 
71 1 11.3396 2.00426 0.00106831 
72 1 10.4869 2.85851 -0.000335015 
1 1 6.67262 1.02603 7.69814 
2 1 6.6715 2.00443 8.67782 
3 1 6.67294 2.85772 9.5298 
7 1 6.67233 5.64744 12.3199 
8 1 6.67175 4.6684 11.3401 
9 1 6.67284 3.81363 10.4862 
61 1 12.3199 5.64744 6.67233 
62 1 11.3401 4.6684 6.67175 
63 1 10.4862 3.81363 6.67284 
67 1 7.69814 1.02603 6.67262 
68 1 8.67782 2.00443 6.6715 
69 1 9.5298 2.85772 6.67294 
13 1 7.69814 6.67262 1.02603 
14 1 8.67782 6.6715 2.00443 
15 1 9.5298 6.67294 2.85772 
19 1 12.3199 6.67233 5.64744 
20 1 11.3401 6.67175 4.6684 
21 1 10.4862 6.67284 3.81363 
37 1 6.67233 12.3199 5.64744 
38 1 6.67175 11.3401 4.6684 
39 1 6.67284 10.4862 3.81363 
43 1 6.67262 7.69814 1.02603 
44 1 6.6715 8.67782 2.00443 
45 1 6.67294 9.5298 2.85772 
ITEM: TIMESTEP
20
ITEM: NUMBER OF ATOMS
72
ITEM: BOX BOUNDS pp pp pp
0.0000000000000000e+00 1.3344799999999999e+01
0.0000000000000000e+00 1.3344799999999999e+01
0.0000000000000000e+00 1.3344799999999999e+01
ITEM: ATOMS id type x y z 
4 1 0.000451709 5.64702 7.6981 
5 1 -0.000124359 4.66765 8.67718 
6 1 -0.000367907 3.81436 9.53053 
10 1 -8.26954e-05 1.02549 12.3193 
11 1 0.000149386 2.00466 11.3401 
12 1 0.00029327 2.85823 10.4868 
52 1 5.64702 0.000451709 7.6981 
53 1 4.66765 -0.000124359 8.67718 
54 1 3.81436 -0.000367907 9.53053 
58 1 1.02549 -8.26954e-05 12.3193 
59 1 2.00466 0.000149386 11.3401 
60 1 2.85823 0.00029327 10.4868 
28 1 5.64702 7.6981 0.000451708 
29 1 4.66765 8.67718 -0.00012436 
30 1 3.81436 9.53053 -0.000367907 
34 1 1.02549 12.3193 -8.26957e-05 
35 1 2.00466 11.3401 0.000149385 
36 1 2.85823 10.4868 0.00029327 
40 1 0.000451708 7.6981 5.64702 
41 1 -0.000124361 8.67718 4.66765 
42 1 -0.000367906 9.53053 3.81436 
46 1 -8.2697e-05 12.3193 1.02549 
47 1 0.000149388 11.3401 2.00466 
48 1 0.000293269 10.4868 2.85823 
25 1 1.0267 7.69878 6.67262 
26 1 2.00522 8.67767 6.67247 
27 1 2.85577 9.52847 6.67244 
31 1 5.64776 12.3206 6.67252 
32 1 4.66875 11.3408 6.67247 
33 1 3.81231 10.4845 6.67251 
49 1 5.64776 6.67252 12.3206 
50 1 4.66875 6.67247 11.3408 
51 1 3.81231 6.67251 10.4845 
55 1 1.0267 6.67262 7.69878 
56 1 2.00522 6.67247 8.67767 
57 1 2.85577 6.67244 9.52847 
16 1 7.6981 0.000451708 5.64702 
17 1 8.67718 -0.000124361 4.66765 
18 1 9.53053 -0.000367906 3.81436 
22 1 12.3193 -8.2697e-05 1.02549 
23 1 11.3401 0.000149388 2.00466 
24 1 10.4868 0.000293269 2.85823 
64 1 7.6981 5.64702 0.000451708 
65 1 8.67718 4.66765 -0.00012436 
66 1 9.53053 3.81436 -0.000367907 
70 1 12.3193 1.02549 -8.26956e-05 
71 1 11.3401 2.00466 0.000149385 
72 1 10.4868 2.85823 0.00029327 
1 1 6.67262 1.0267 7.69878 
2 1 6.67247 2.00522 8.67767 
3 1 6.67244 2.85577 9.52847 
7 1 6.67252 5.64776 12.3206 
8 1 6.67247 4.66875 11.3408 
9 1 6.67251 3.81231 10.4845 
61 1 12.3206 5.64776 6.67252 
62 1 11.3408 4.66875 6.67247 
63 1 10.4845 3.81231 6.67251 
67 1 7.69878 1.0267 6.67262 
68 1 8.67767 2.00522 6.67247 
69 1 9.52847 2.85577 6.67244 
13 1 7.69878 6.67262 1.0267 
14 1 8.67767 6.67247 2.00522 
15 1 9.52847 6.67244 2.85577 
19 1 12.3206 6.67252 5.64776 
20 1 11.3408 6.67247 4.66875 
21 1 10.4845 6.67251 3.81231 
37 1 6.67252 12.3206 5.64776 
38 1 6.67247 11.3408 4.66875 
39 1 6.67251 10.4845 3.81231 
43 1 6.67262 7.69878 1.0267 
44 1 6.67247 8.67767 2.00522 
45 1 6.67244 9.52847 2.85577 
ITEM: TIMESTEP
26
ITEM: NUMBER OF ATOMS
72
ITEM: BOX BOUNDS pp pp pp
0.0000000000000000e+00 1.3344799999999999e+01
0.0000000000000000e+00 1.3344799999999999e+01
0.0000000000000000e+00 1.3344799999999999e+01
ITEM: ATOMS id type x y z 
4 1 0.000808841 5.64708 7.69839 
5 1 -9.70353e-05 4.66776 8.67714 
6 1 -0.000390011 3.81406 9.53078 
10 1 5.98103e-06 1.02558 12.3192 
11 1 4.7991e-05 2.0045 11.3401 
12 1 0.000334061 2.85856 10.4865 
52 1 5.64708 0.000808841 7.69839 
53 1 4.66776 -9.70353e-05 8.67714 
54 1 3.81406 -0.000390011 9.53078 
58 1 1.02558 5.98107e-06 12.3192 
59 1 2.0045 4.79909e-05 11.3401 
60 1 2.85856 0.000334061 10.4865 
28 1 5.64708 7.69839 0.000808841 
29 1 4.66776 8.67714 -9.70356e-05 
30 1 3.81406 9.53078 -0.000390011 
34 1 1.02558 12.3192 5.9792e-06 
35 1 2.0045 11.3401 4.7994e-05 
36 1 2.85856 10.4865 0.00033406 
40 1 0.00080884 7.69839 5.64708 
41 1 -9.70369e-05 8.67714 4.66776 
42 1 -0.000390011 9.53078 3.81406 
46 1 5.98264e-06 12.3192 1.02558 
47 1 4.79847e-05 11.3401 2.0045 
48 1 0.000334065 10.4865 2.85856 
25 1 1.02703 7.69893 6.67275 
26 1 2.00497 8.67744 6.67256 
27 1 2.85571 9.52839 6.67239 
31 1 5.6479 12.3207 6.6727 
32 1 4.66894 11.3412 6.67239 
33 1 3.81147 10.4835 6.67253 
49 1 5.6479 6.6727 12.3207 
50 1 4.66894 6.67239 11.3412 
51 1 3.81147 6.67253 10.4835 
55 1 1.02703 6.67275 7.69893 
56 1 2.00497 6.67256 8.67744 
57 1 2.85571 6.67239 9.52839 
16 1 7.69839 0.00080884 5.64708 
17 1 8.67714 -9.70369e-05 4.66776 
18 1 9.53078 -0.000390011 3.81406 
22 1 12.3192 5.98264e-06 1.02558 
23 1 11.3401 4.79847e-05 2.0045 
24 1 10.4865 0.000334065 2.85856 
64 1 7.69839 5.64708 0.000808841 
65 1 8.67714 4.66776 -9.70356e-05 
66 1 9.53078 3.81406 -0.000390011 
70 1 12.3192 1.02558 5.97919e-06 
71 1 11.3401 2.0045 4.7994e-05 
72 1 10.4865 2.85856 0.00033406 
1 1 6.67275 1.02703 7.69893 
2 1 6.67256 2.00497 8.67744 
3 1 6.67239 2.85571 9.52839 
7 1 6.6727 5.6479 12.3207 
8 1 6.67239 4.66894 11.3412 
9 1 6.67253 3.81147 10.4835 
61 1 12.3207 5.6479 6.6727 
62 1 11.3412 4.66894 6.67239 
63 1 10.4835 3.81147 6.67253 
67 1 7.69893 1.02703 6.67275 
68 1 8.67744 2.00497 6.67256 
69 1 9.52839 2.85571 6.67239 
13 1 7.69893 6.67275 1.02703 
14 1 8.67744 6.67256 2.00497 
15 1 9.52839 6.67239 2.85571 
19 1 12.3207 6.6727 5.6479 
20 1 11.3412 6.67239 4.66894 
21 1 10.4835 6.67253 3.81147 
37 1 6.6727 12.3207 5.6479 
38 1 6.67239 11.3412 4.66894 
39 1 6.67253 10.4835 3.81147 
43 1 6.67275 7.69893 1.02703 
44 1 6.67256 8.67744 2.00497 
45 1 6.67239 9.52839 2.85571 
ITEM: TIMESTEP
30
ITEM: NUMBER OF ATOMS
72
ITEM: BOX BOUNDS pp pp pp
0.0000000000000000e+00 1.3344799999999999e+01
0.0000000000000000e+00 1.3344799999999999e+01
0.0000000000000000e+00 1.3344799999999999e+01
ITEM: ATOMS id type x y z 
4 1 0.000677225 5.647 7.69834 
60 1 2.85851 0.000259882 10.4865 
59 1 2.00457 0.000182134 11.3402 
10 1 -5.569e-05 1.02554 12.3192 
11 1 0.000182134 2.00457 11.3402 
12 1 0.000259882 2.85851 10.4865 
52 1 5.647 0.000677225 7.69834 
8 1 6.6724 4.66904 11.3413 
3 1 6.67246 2.8556 9.52825 
58 1 1.02554 -5.56898e-05 12.3192 
50 1 4.66904 6.6724 11.3413 
57 1 2.8556 6.67246 9.52825 
28 1 5.647 7.69834 0.000677224 
45 1 6.67246 9.52825 2.8556 
38 1 6.6724 11.3413 4.66904 
34 1 1.02554 12.3192 -5.56957e-05 
35 1 2.00457 11.3402 0.000182145 
36 1 2.85851 10.4865 0.000259876 
40 1 0.000677223 7.69834 5.647 
48 1 0.000259894 10.4865 2.85851 
47 1 0.000182112 11.3402 2.00457 
46 1 -5.56811e-05 12.3192 1.02554 
27 1 2.8556 9.52825 6.67246 
32 1 4.66904 11.3413 6.6724 
25 1 1.0271 7.69903 6.67274 
26 1 2.00504 8.67759 6.67242 
54 1 3.81409 13.3444 9.53076 
31 1 5.64801 12.3208 6.67264 
53 1 4.66773 13.3447 8.67716 
33 1 3.81142 10.4835 6.67252 
49 1 5.64801 6.67264 12.3208 
56 1 2.00504 6.67242 8.67759 
51 1 3.81142 6.67252 10.4835 
55 1 1.0271 6.67274 7.69903 
29 1 4.66773 8.67716 13.3447 
30 1 3.81409 9.53076 13.3444 
16 1 7.69834 0.000677223 5.647 
72 1 10.4865 2.85851 0.000259876 
71 1 11.3402 2.00457 0.000182146 
22 1 12.3192 -5.56811e-05 1.02554 
23 1 11.3402 0.000182112 2.00457 
24 1 10.4865 0.000259894 2.85851 
64 1 7.69834 5.647 0.000677224 
20 1 11.3413 6.6724 4.66904 
15 1 9.52825 6.67246 2.8556 
70 1 12.3192 1.02554 -5.56958e-05 
69 1 9.52825 2.8556 6.67246 
62 1 11.3413 4.66904 6.6724 
1 1 6.67274 1.0271 7.69903 
2 1 6.67242 2.00504 8.67759 
6 1 13.3444 3.81409 9.53076 
7 1 6.67264 5.64801 12.3208 
68 1 8.67759 2.00504 6.67242 
9 1 6.67252 3.81142 10.4835 
61 1 12.3208 5.64801 6.67264 
5 1 13.3447 4.66773 8.67716 
63 1 10.4835 3.81142 6.67252 
67 1 7.69903 1.0271 6.67274 
65 1 8.67716 4.66773 13.3447 
66 1 9.53076 3.81409 13.3444 
13 1 7.69903 6.67274 1.0271 
14 1 8.67759 6.67242 2.00504 
42 1 13.3444 9.53076 3.81409 
19 1 12.3208 6.67264 5.64801 
41 1 13.3447 8.67716 4.66773 
21 1 10.4835 6.67252 3.81142 
37 1 6.67264 12.3208 5.64801 
44 1 6.67242 8.67759 2.00504 
39 1 6.67252 10.4835 3.81142 
43 1 6.67274 7.69903 1.0271 
17 1 8.67716 13.3447 4.66773 
18 1 9.53076 13.3444 3.81409 
ITEM: TIMESTEP
40
ITEM: NUMBER OF ATOMS
72
ITEM: BOX BOUNDS pp pp pp
0.0000000000000000e+00 1.3344799999999999e+01
0.0000000000000000e+00 1.3344799999999999e+01
0.0000000000000000e+00 1.3344799999999999e+01
ITEM: ATOMS id type x y z 
4 1 0.00160855 5.64652 7.69975 
60 1 2.85928 -0.000239398 10.4861 
59 1 2.00405 0.000932391 11.34 
10 1 6.43332e-07 1.02556 12.3192 
11 1 0.000932364 2.00405 11.34 
12 1 -0.000239384 2.85928 10.4861 
52 1 5.64652 0.00160855 7.69975 
8 1 6.67142 4.67538 11.3457 
3 1 6.6732 2.84869 9.52078 
58 1 1.02556 6.41552e-07 12.3192 
50 1 4.67538 6.67142 11.3457 
57 1 2.84869 6.6732 9.52078 
28 1 5.64652 7.69975 0.00160851 
45 1 6.6732 9.52078 2.84869 
38 1 6.67142 11.3457 4.67538 
34 1 1.02556 12.3192 9.68653e-07 
35 1 2.00405 11.34 0.000931492 
36 1 2.85928 10.4861 -0.000238942 
40 1 0.00160837 7.69975 5.64652 
48 1 -0.000240231 10.4861 2.85928 
47 1 0.000934041 11.3399 2.00405 
46 1 8.05556e-07 12.3192 1.02556 
27 1 2.84869 9.52078 6.6732 
32 1 4.67538 11.3457 6.67142 
25 1 1.03066 7.70233 6.67325 
26 1 2.00299 8.6766 6.67086 
54 1 3.81399 13.3443 9.53076 
31 1 5.64949 12.3234 6.67331 
53 1 4.66686 13.3443 8.67767 
33 1 3.80868 10.4815 6.6728 
49 1 5.64949 6.67331 12.3234 
56 1 2.00299 6.67086 8.6766 
51 1 3.80868 6.6728 10.4815 
55 1 1.03067 6.67325 7.70233 
29 1 4.66686 8.67767 13.3443 
30 1 3.81399 9.53076 13.3443 
16 1 7.69975 0.00160838 5.64652 
72 1 10.4861 2.85928 -0.000238934 
71 1 11.34 2.00405 0.000931476 
22 1 12.3192 8.01971e-07 1.02556 
23 1 11.3399 0.000934053 2.00405 
24 1 10.4861 -0.000240237 2.85928 
64 1 7.69975 5.64652 0.00160852 
20 1 11.3457 6.67142 4.67538 
15 1 9.52078 6.6732 2.84869 
70 1 12.3192 1.02556 9.67271e-07 
69 1 9.52078 2.84869 6.6732 
62 1 11.3457 4.67538 6.67142 
1 1 6.67325 1.03067 7.70233 
2 1 6.67086 2.00299 8.6766 
6 1 13.3443 3.81399 9.53076 
7 1 6.67331 5.64949 12.3234 
68 1 8.6766 2.00299 6.67086 
9 1 6.6728 3.80868 10.4815 
61 1 12.3234 5.64949 6.67331 
5 1 13.3443 4.66686 8.67767 
63 1 10.4815 3.80868 6.6728 
67 1 7.70233 1.03066 6.67325 
65 1 8.67767 4.66686 13.3443 
66 1 9.53076 3.81399 13.3443 
13 1 7.70233 6.67325 1.03066 
14 1 8.6766 6.67086 2.00299 
42 1 13.3443 9.53076 3.81399 
19 1 12.3234 6.67331 5.64949 
41 1 13.3443 8.67767 4.66686 
21 1 10.4815 6.6728 3.80868 
37 1 6.67331 12.3234 5.64949 
44 1 6.67086 8.6766 2.00299 
39 1 6.6728 10.4815 3.80868 
43 1 6.67325 7.70233 1.03066 
17 1 8.67767 13.3443 4.66686 
18 1 9.53076 13.3443 3.81399 
ITEM: TIMESTEP
50
ITEM: NUMBER OF ATOMS
72
ITEM: BOX BOUNDS pp pp pp
0.0000000000000000e+00 1.3344799999999999e+01
0.0000000000000000e+00 1.3344799999999999e+01
0.0000000000000000e+00 1.3344799999999999e+01
ITEM: ATOMS id type x y z 
4 1 0.00195025 5.64417 7.70242 
60 1 2.86049 2.74914e-05 10.4845 
59 1 2.00416 0.00034096 11.3404 
10 1 3.38218e-05 1.02529 12.3194 
11 1 0.000341024 2.00416 11.3404 
12 1 2.7456e-05 2.86049 10.4845 
52 1 5.64417 0.00195025 7.70242 
8 1 6.67109 4.67549 11.3463 
3 1 6.67274 2.84797 9.52046 
58 1 1.02529 3.38513e-05 12.3194 
50 1 4.67549 6.67109 11.3463 
57 1 2.84797 6.67274 9.52046 
28 1 5.64417 7.70242 0.00195018 
45 1 6.67274 9.52046 2.84797 
38 1 6.67109 11.3463 4.67549 
34 1 1.02529 12.3194 3.28823e-05 
35 1 2.00415 11.3404 0.000343528 
36 1 2.86049 10.4845 2.60885e-05 
40 1 0.00195035 7.70242 5.64417 
48 1 2.93864e-05 10.4845 2.86049 
47 1 0.000337555 11.3404 2.00416 
46 1 3.5678e-05 12.3194 1.02529 
27 1 2.84797 9.52046 6.67274 
32 1 4.67548 11.3463 6.67109 
25 1 1.02947 7.70136 6.67279 
26 1 2.00261 8.67581 6.67178 
54 1 3.81441 13.344 9.5301 
31 1 5.65113 12.3249 6.67357 
53 1 4.66457 13.3439 8.67956 
33 1 3.80995 10.4819 6.67254 
49 1 5.65113 6.67357 12.3249 
56 1 2.00261 6.67178 8.67581 
51 1 3.80995 6.67254 10.4819 
55 1 1.02947 6.67279 7.70136 
29 1 4.66457 8.67956 13.3439 
30 1 3.81441 9.5301 13.344 
16 1 7.70242 0.00195034 5.64417 
72 1 10.4845 2.86049 2.60671e-05 
71 1 11.3404 2.00415 0.000343567 
22 1 12.3194 3.56893e-05 1.02529 
23 1 11.3404 0.000337527 2.00416 
24 1 10.4845 2.94016e-05 2.86049 
64 1 7.70242 5.64417 0.00195018 
20 1 11.3463 6.67109 4.67549 
15 1 9.52046 6.67274 2.84797 
70 1 12.3194 1.02529 3.28627e-05 
69 1 9.52046 2.84797 6.67274 
62 1 11.3463 4.67548 6.67109 
1 1 6.67279 1.02947 7.70136 
2 1 6.67178 2.00261 8.67581 
6 1 13.344 3.81441 9.5301 
7 1 6.67357 5.65113 12.3249 
68 1 8.67581 2.00261 6.67178 
9 1 6.67254 3.80995 10.4819 
61 1 12.3249 5.65113 6.67357 
5 1 13.3439 4.66457 8.67956 
63 1 10.4819 3.80995 6.67254 
67 1 7.70136 1.02947 6.67279 
65 1 8.67956 4.66457 13.3439 
66 1 9.5301 3.81441 13.344 
13 1 7.70136 6.67279 1.02947 
14 1 8.67581 6.67178 2.00261 
42 1 13.344 9.5301 3.81441 
19 1 12.3249 6.67357 5.65113 
41 1 13.3439 8.67956 4.66457 
21 1 10.4819 6.67254 3.80995 
37 1 6.67357 12.3249 5.65113 
44 1 6.67178 8.67581 2.00261 
39 1 6.67254 10.4819 3.80995 
43 1 6.67279 7.70136 1.02947 
17 1 8.67956 13.3439 4.66457 
18 1 9.5301 13.344 3.81441 
ITEM: TIMESTEP
60
ITEM: NUMBER OF ATOMS
72
ITEM: BOX BOUNDS pp pp pp
0.0000000000000000e+00 1.3344799999999999e+01
0.0000000000000000e+00 1.3344799999999999e+01
0.0000000000000000e+00 1.3344799999999999e+01
ITEM: ATOMS id type x y z 
4 1 0.00195052 5.6435 7.7031 
60 1 2.861 7.06608e-05 10.484 
59 1 2.0042 0.000203854 11.3405 
10 1 1.97884e-05 1.0251 12.3197 
11 1 0.000204934 2.0042 11.3405 
12 1 7.00894e-05 2.861 10.484 
52 1 5.6435 0.00195052 7.7031 
8 1 6.67096 4.67566 11.3464 
3 1 6.67262 2.84787 9.5205 
58 1 1.0251 2.00207e-05 12.3197 
50 1 4.67566 6.67096 11.3464 
57 1 2.84787 6.67262 9.5205 
28 1 5.6435 7.7031 0.00195064 
45 1 6.67262 9.5205 2.84787 
38 1 6.67096 11.3464 4.67566 
34 1 1.0251 12.3197 1.02763e-05 
35 1 2.00418 11.3405 0.000250291 
36 1 2.86102 10.484 4.61477e-05 
40 1 0.00195061 7.7031 5.6435 
48 1 9.06553e-05 10.4839 2.86099 
47 1 0.000166091 11.3405 2.00422 
46 1 2.52252e-05 12.3197 1.02509 
27 1 2.84787 9.5205 6.67262 
32 1 4.67566 11.3464 6.67096 
25 1 1.02896 7.70097 6.67268 
26 1 2.00287 8.67573 6.67213 
54 1 3.81507 13.3438 9.52928 
31 1 5.65162 12.3255 6.67371 
53 1 4.66397 13.3438 8.68001 
33 1 3.81011 10.4818 6.67233 
49 1 5.65162 6.67371 12.3255 
56 1 2.00287 6.67213 8.67573 
51 1 3.81011 6.67234 10.4818 
55 1 1.02896 6.67268 7.70097 
29 1 4.66397 8.68001 13.3438 
30 1 3.81507 9.52928 13.3438 
16 1 7.7031 0.00195061 5.6435 
72 1 10.484 2.86102 4.57479e-05 
71 1 11.3405 2.00418 0.000251045 
22 1 12.3197 2.52008e-05 1.02509 
23 1 11.3405 0.000165957 2.00422 
24 1 10.4839 9.07245e-05 2.86099 
64 1 7.7031 5.6435 0.00195064 
20 1 11.3464 6.67096 4.67566 
15 1 9.5205 6.67262 2.84787 
70 1 12.3197 1.0251 1.0109e-05 
69 1 9.5205 2.84787 6.67262 
62 1 11.3464 4.67566 6.67096 
1 1 6.67268 1.02896 7.70097 
2 1 6.67213 2.00287 8.67573 
6 1 13.3438 3.81507 9.52928 
7 1 6.67371 5.65162 12.3255 
68 1 8.67573 2.00287 6.67213 
9 1 6.67234 3.81011 10.4818 
61 1 12.3255 5.65162 6.67371 
5 1 13.3438 4.66397 8.68001 
63 1 10.4818 3.81011 6.67233 
67 1 7.70097 1.02896 6.67268 
65 1 8.68001 4.66397 13.3438 
66 1 9.52928 3.81507 13.3438 
13 1 7.70097 6.67268 1.02896 
14 1 8.67573 6.67213 2.00287 
42 1 13.3438 9.52928 3.81507 
19 1 12.3255 6.67371 5.65162 
41 1 13.3438 8.68001 4.66397 
21 1 10.4818 6.67234 3.81011 
37 1 6.67371 12.3255 5.65162 
44 1 6.67213 8.67573 2.00287 
39 1 6.67234 10.4818 3.81011 
43 1 6.67268 7.70097 1.02896 
17 1 8.68001 13.3438 4.66397 
18 1 9.52928 13.3438 3.81507 
ITEM: TIMESTEP
64
ITEM: NUMBER OF ATOMS
72
ITEM: BOX BOUNDS pp pp pp
0.0000000000000000e+00 1.3344799999999999e+01
0.0000000000000000e+00 1.3344799999999999e+01
0.0000000000000000e+00 1.3344799999999999e+01
ITEM: ATOMS id type x y z 
4 1 0.00201534 5.64342 7.70325 
60 1 2.86139 8.9848e-05 10.4835 
59 1 2.00414 0.000149582 11.3406 
10 1 3.3599e-05 1.02512 12.3196 
11 1 0.000150604 2.00414 11.3406 
12 1 8.93147e-05 2.86139 10.4835 
52 1 5.64342 0.00201533 7.70325 
8 1 6.67094 4.67586 11.3465 
3 1 6.6726 2.84785 9.52051 
58 1 1.02512 3.36326e-05 12.3196 
50 1 4.67586 6.67094 11.3465 
57 1 2.84785 6.6726 9.52051 
28 1 5.64342 7.70325 0.00201554 
45 1 6.6726 9.52051 2.84785 
38 1 6.67094 11.3465 4.67586 
34 1 1.02511 12.3196 3.18458e-05 
35 1 2.00412 11.3406 0.000193827 
36 1 2.8614 10.4836 6.68639e-05 
40 1 0.00201527 7.70325 5.64342 
48 1 6.8831e-05 10.4836 2.86141 
47 1 0.000188098 11.3406 2.00409 
46 1 -2.10012e-06 12.3197 1.02514 
27 1 2.84785 9.52051 6.6726 
32 1 4.67585 11.3465 6.67094 
25 1 1.02908 7.7009 6.67286 
26 1 2.00274 8.67549 6.67224 
54 1 3.81501 13.3438 9.52929 
31 1 5.6516 12.3254 6.67359 
53 1 4.66394 13.3437 8.68 
33 1 3.81021 10.4819 6.67225 
49 1 5.6516 6.67359 12.3254 
56 1 2.00274 6.67224 8.67549 
51 1 3.81021 6.67225 10.4819 
55 1 1.02908 6.67286 7.7009 
29 1 4.66394 8.68 13.3437 
30 1 3.81501 9.52929 13.3438 
16 1 7.70325 0.00201527 5.64342 
72 1 10.4836 2.8614 6.6392e-05 
71 1 11.3406 2.00412 0.000194728 
22 1 12.3197 -1.5556e-06 1.02514 
23 1 11.3406 0.000186956 2.00409 
24 1 10.4836 6.94367e-05 2.86141 
64 1 7.70325 5.64342 0.00201554 
20 1 11.3465 6.67094 4.67586 
15 1 9.52051 6.6726 2.84785 
70 1 12.3196 1.02511 3.18779e-05 
69 1 9.52051 2.84785 6.6726 
62 1 11.3465 4.67585 6.67094 
1 1 6.67286 1.02908 7.7009 
2 1 6.67224 2.00274 8.67549 
6 1 13.3438 3.81501 9.52929 
7 1 6.67359 5.6516 12.3254 
68 1 8.67549 2.00274 6.67224 
9 1 6.67225 3.81021 10.4819 
61 1 12.3254 5.6516 6.67359 
5 1 13.3437 4.66394 8.68 
63 1 10.4819 3.81021 6.67225 
67 1 7.7009 1.02908 6.67286 
65 1 8.68 4.66394 13.3437 
66 1 9.52929 3.81501 13.3438 
13 1 7.7009 6.67286 1.02908 
14 1 8.67549 6.67224 2.00274 
42 1 13.3438 9.52929 3.81501 
19 1 12.3254 6.67359 5.6516 
41 1 13.3437 8.68 4.66394 
21 1 10.4819 6.67225 3.81021 
37 1 6.67359 12.3254 5.6516 
44 1 6.67224 8.67549 2.00274 
39 1 6.67225 10.4819 3.81021 
43 1 6.67286 7.7009 1.02908 
17 1 8.68 13.3437 4.66394 
18 1 9.52929 13.3438 3.81501 
ITEM: TIMESTEP
70
ITEM: NUMBER OF ATOMS
72
ITEM: BOX BOUNDS pp pp pp
-4.0033005711606322e-03 1.3348803300571159e+01
-4.0033002120900413e-03 1.3348803300212088e+01
-4.0034399999999996e-03 1.3348803440000001e+01
ITEM: ATOMS id type x y z 
4 1 -0.00198634 5.6428 7.70387 
60 1 2.8591 -0.00391338 10.4858 
59 1 2.00134 -0.00385369 11.3434 
10 1 -0.00396968 1.02173 12.323 
11 1 -0.00385267 2.00134 11.3434 
12 1 -0.00391391 2.8591 10.4858 
52 1 5.6428 -0.00198635 7.70387 
8 1 6.67094 4.67466 11.3493 
9 1 6.67225 3.8085 10.4842 
58 1 1.02173 -0.00396965 12.323 
50 1 4.67466 6.67094 11.3493 
2 1 6.67224 1.99994 8.67669 
56 1 1.99994 6.67224 8.67669 
51 1 3.8085 6.67225 10.4842 
28 1 5.6428 7.70387 -0.00198628 
32 1 4.67466 11.3493 6.67094 
38 1 6.67094 11.3493 4.67466 
34 1 1.02172 12.323 -0.00397163 
35 1 2.00132 11.3434 -0.00380957 
36 1 2.85911 10.4858 -0.00393651 
40 1 -0.00198641 7.70387 5.6428 
48 1 -0.00393479 10.4859 2.85912 
47 1 -0.00381442 11.3434 2.00128 
39 1 6.67225 10.4842 3.8085 
44 1 6.67224 8.67669 1.99994 
26 1 1.99994 8.67669 6.67224 
33 1 3.8085 10.4842 6.67225 
25 1 1.02569 7.70152 6.67286 
57 1 2.84555 6.6726 9.52222 
54 1 3.8133 13.3478 9.531 
31 1 5.65099 12.3288 6.67359 
53 1 4.66273 13.3477 8.68121 
55 1 1.02569 6.67286 7.70152 
49 1 5.65099 6.67359 12.3288 
30 1 3.8133 9.531 13.3478 
29 1 4.66273 8.68121 13.3477 
27 1 2.84555 9.52222 6.6726 
16 1 7.70387 -0.00198641 5.6428 
72 1 10.4858 2.85911 -0.00393698 
71 1 11.3434 2.00132 -0.00380867 
62 1 11.3493 4.67466 6.67094 
23 1 11.3434 -0.0038155 2.00128 
24 1 10.4859 -0.00393422 2.85912 
64 1 7.70387 5.6428 -0.00198628 
20 1 11.3493 6.67094 4.67466 
21 1 10.4842 6.67225 3.8085 
70 1 12.323 1.02172 -0.00397159 
14 1 8.67669 6.67224 1.99994 
68 1 8.67669 1.99994 6.67224 
63 1 10.4842 3.8085 6.67225 
1 1 6.67286 1.02569 7.70152 
66 1 9.531 3.8133 13.3478 
6 1 13.3478 3.8133 9.531 
7 1 6.67359 5.65099 12.3288 
3 1 6.6726 2.84555 9.52222 
65 1 8.68121 4.66273 13.3477 
61 1 12.3288 5.65099 6.67359 
5 1 13.3477 4.66273 8.68121 
67 1 7.70152 1.02569 6.67286 
69 1 9.52222 2.84555 6.6726 
13 1 7.70152 6.67286 1.02569 
46 1 13.3488 12.3231 1.02175 
42 1 13.3478 9.531 3.8133 
19 1 12.3288 6.67359 5.65099 
41 1 13.3477 8.68121 4.66273 
45 1 6.6726 9.52222 2.84555 
37 1 6.67359 12.3288 5.65099 
18 1 9.531 13.3478 3.8133 
17 1 8.68121 13.3477 4.66273 
43 1 6.67286 7.70152 1.02569 
22 1 12.3231 13.3488 1.02175 
15 1 9.52222 6.6726 2.84555 
ITEM: TIMESTEP
80
ITEM: NUMBER OF ATOMS
72
ITEM: BOX BOUNDS pp pp pp
-1.0675332738867940e-02 1.3355475332738866e+01
-1.0675331265991189e-02 1.3355475331265991e+01
-1.0675839999999995e-02 1.3355475840000004e+01
ITEM: ATOMS id type x y z 
4 1 -0.00864727 5.6418 7.70488 
60 1 2.85528 -0.0105853 10.4896 
59 1 1.99665 -0.0105258 11.3481 
10 1 -0.0106417 1.01605 12.3287 
11 1 -0.0105248 1.99665 11.3481 
12 1 -0.0105858 2.85528 10.4896 
52 1 5.6418 -0.00864728 7.70488 
8 1 6.67094 4.67266 11.354 
9 1 6.67225 3.80565 10.488 
58 1 1.01605 -0.0106417 12.3287 
50 1 4.67266 6.67094 11.354 
2 1 6.67224 1.99524 8.67867 
56 1 1.99524 6.67224 8.67867 
51 1 3.80565 6.67225 10.488 
28 1 5.6418 7.70488 -0.00864758 
32 1 4.67266 11.354 6.67094 
38 1 6.67094 11.354 4.67266 
34 1 1.01605 12.3287 -0.0106442 
35 1 1.99662 11.3481 -0.010482 
36 1 2.85529 10.4897 -0.0106087 
40 1 -0.00864734 7.70488 5.6418 
48 1 -0.0106079 10.4897 2.8553 
47 1 -0.0104841 11.3481 1.9966 
39 1 6.67225 10.488 3.80565 
44 1 6.67224 8.67867 1.99524 
26 1 1.99524 8.67867 6.67224 
33 1 3.80566 10.488 6.67225 
25 1 1.02002 7.70252 6.67285 
57 1 2.84173 6.6726 9.52507 
54 1 3.81045 13.3544 9.53385 
31 1 5.64998 12.3345 6.67361 
53 1 4.66075 13.3544 8.68319 
55 1 1.02002 6.67285 7.70252 
49 1 5.64998 6.6736 12.3345 
30 1 3.81045 9.53385 13.3544 
29 1 4.66075 8.68319 13.3544 
27 1 2.84173 9.52507 6.6726 
16 1 7.70488 -0.00864734 5.6418 
72 1 10.4897 2.85529 -0.0106092 
71 1 11.3481 1.99662 -0.0104812 
62 1 11.354 4.67266 6.67094 
23 1 11.3481 -0.010485 1.99659 
24 1 10.4897 -0.0106075 2.8553 
64 1 7.70488 5.6418 -0.00864758 
20 1 11.354 6.67094 4.67266 
21 1 10.488 6.67225 3.80565 
70 1 12.3287 1.01605 -0.0106441 
14 1 8.67867 6.67224 1.99524 
68 1 8.67867 1.99524 6.67224 
63 1 10.488 3.80566 6.67225 
1 1 6.67285 1.02002 7.70252 
66 1 9.53385 3.81045 13.3544 
6 1 13.3544 3.81045 9.53385 
7 1 6.6736 5.64998 12.3345 
3 1 6.6726 2.84173 9.52507 
65 1 8.68319 4.66075 13.3544 
61 1 12.3345 5.64998 6.67361 
5 1 13.3544 4.66075 8.68319 
67 1 7.70252 1.02002 6.67285 
69 1 9.52507 2.84173 6.6726 
13 1 7.70252 6.67285 1.02002 
46 1 13.3555 12.3287 1.01607 
42 1 13.3544 9.53385 3.81045 
19 1 12.3345 6.67361 5.64998 
41 1 13.3544 8.68319 4.66075 
45 1 6.6726 9.52507 2.84173 
37 1 6.67361 12.3345 5.64998 
18 1 9.53385 13.3544 3.81045 
17 1 8.68319 13.3544 4.66075 
43 1 6.67285 7.70252 1.02002 
22 1 12.3287 13.3555 1.01607 
15 1 9.52507 6.6726 2.84173 
ITEM: TIMESTEP
90
ITEM: NUMBER OF ATOMS
72
ITEM: BOX BOUNDS pp pp pp
-1.7346421926370561e-02 1.3362146421926367e+01
-1.7346415841378818e-02 1.3362146415841378e+01
-1.7348212930453813e-02 1.3362148212930460e+01
ITEM: ATOMS id type x y z 
4 1 -0.0150774 5.64153 7.70539 
60 1 2.85123 -0.017255 10.4937 
59 1 1.99131 -0.0172004 11.3535 
10 1 -0.0173139 1.00961 12.3351 
11 1 -0.0171995 1.99131 11.3535 
12 1 -0.0172555 2.85123 10.4937 
52 1 5.64153 -0.0150774 7.70539 
8 1 6.67095 4.67087 11.3589 
9 1 6.67224 3.80308 10.4921 
58 1 1.00961 -0.0173139 12.3351 
50 1 4.67087 6.67095 11.3589 
2 1 6.67224 1.98994 8.68004 
56 1 1.98994 6.67224 8.68004 
51 1 3.80308 6.67224 10.4921 
28 1 5.64153 7.70539 -0.015079 
32 1 4.67086 11.3589 6.67094 
38 1 6.67095 11.3589 4.67086 
34 1 1.00961 12.3352 -0.0173182 
35 1 1.99128 11.3534 -0.0171584 
36 1 2.85124 10.4937 -0.0172796 
40 1 -0.0150775 7.70539 5.64153 
48 1 -0.0172857 10.4937 2.85124 
47 1 -0.0171436 11.3534 1.99127 
39 1 6.67224 10.4921 3.80308 
44 1 6.67224 8.68004 1.98994 
26 1 1.98994 8.68004 6.67224 
33 1 3.80308 10.4921 6.67225 
25 1 1.01347 7.70278 6.67272 
57 1 2.83779 6.67259 9.52781 
54 1 3.8078 13.3611 9.5365 
31 1 5.64949 12.341 6.67399 
53 1 4.65947 13.3611 8.68447 
55 1 1.01347 6.67272 7.70278 
49 1 5.64949 6.67399 12.341 
30 1 3.8078 9.5365 13.3611 
29 1 4.65947 8.68447 13.3611 
27 1 2.83779 9.5278 6.67259 
16 1 7.70539 -0.0150775 5.64153 
72 1 10.4937 2.85124 -0.01728 
71 1 11.3534 1.99128 -0.0171575 
62 1 11.3589 4.67086 6.67094 
23 1 11.3534 -0.017143 1.99127 
24 1 10.4937 -0.017286 2.85124 
64 1 7.70539 5.64153 -0.015079 
20 1 11.3589 6.67095 4.67086 
21 1 10.4921 6.67224 3.80308 
70 1 12.3352 1.00961 -0.0173181 
14 1 8.68004 6.67224 1.98994 
68 1 8.68004 1.98994 6.67224 
63 1 10.4921 3.80308 6.67225 
1 1 6.67272 1.01347 7.70278 
66 1 9.5365 3.8078 13.3611 
6 1 13.3611 3.8078 9.5365 
7 1 6.67399 5.64949 12.341 
3 1 6.67259 2.83779 9.52781 
65 1 8.68447 4.65947 13.3611 
61 1 12.341 5.64949 6.67399 
5 1 13.3611 4.65947 8.68447 
67 1 7.70278 1.01347 6.67272 
69 1 9.5278 2.83779 6.67259 
13 1 7.70278 6.67272 1.01347 
46 1 13.3621 12.3352 1.00962 
42 1 13.3611 9.53649 3.8078 
19 1 12.341 6.67399 5.64949 
41 1 13.3611 8.68447 4.65947 
45 1 6.67259 9.5278 2.83779 
37 1 6.67399 12.341 5.64949 
18 1 9.53649 13.3611 3.8078 
17 1 8.68447 13.3611 4.65947 
43 1 6.67272 7.70278 1.01347 
22 1 12.3352 13.3621 1.00962 
15 1 9.5278 6.67259 2.83779 
ITEM: TIMESTEP
100
ITEM: NUMBER OF ATOMS
72
ITEM: BOX BOUNDS pp pp pp
-2.4018804864455803e-02 1.3368818804864448e+01
-2.4018815841378813e-02 1.3368818815841381e+01
-2.4009323871740255e-02 1.3368809323871746e+01
ITEM: ATOMS id type x y z 
4 1 -0.0213887 5.64176 7.70553 
60 1 2.84708 -0.0239254 10.4978 
59 1 1.98537 -0.0238786 11.3594 
10 1 -0.0239869 1.00261 12.3421 
11 1 -0.0238777 1.98537 11.3594 
12 1 -0.0239259 2.84708 10.4978 
52 1 5.64176 -0.0213887 7.70553 
8 1 6.67096 4.6696 11.3643 
9 1 6.67224 3.80034 10.496 
58 1 1.00261 -0.0239868 12.3421 
50 1 4.6696 6.67096 11.3643 
2 1 6.67224 1.98424 8.68101 
56 1 1.98424 6.67224 8.68101 
51 1 3.80034 6.67224 10.496 
28 1 5.64176 7.70553 -0.021379 
32 1 4.6696 11.3643 6.67096 
38 1 6.67096 11.3643 4.6696 
34 1 1.00261 12.3421 -0.0239806 