LAMMPS (3 Mar 2020)
Reading data file ...
  orthogonal box = (0 0 0) to (11 11.002 11)
  2 by 2 by 2 MPI processor grid
  reading atoms ...
  50 atoms
  read_data CPU = 0.0200404 secs
WARNING: Using 'neigh_modify every 1 delay 0 check yes' setting during minimization (../min.cpp:190)
WARNING: Total cutoff < 2*bond cutoff. May need to use an increased neighbor list skin. (../pair_reaxc.cpp:413)
Neighbor list info ...
  update every 1 steps, delay 0 steps, check yes
  max neighbors/atom: 2000, page size: 100000
  master list distance cutoff = 9.5
  ghost atom cutoff = 9.5
  binsize = 4.75, bins = 3 3 3
  2 neighbor lists, perpetual/occasional/extra = 2 0 0
  (1) pair reax/c, perpetual
      attributes: half, newton off, ghost
      pair build: half/bin/newtoff/ghost
      stencil: half/ghost/bin/3d/newtoff
      bin: standard
  (2) fix qeq/reax, perpetual, copy from (1)
      attributes: half, newton off, ghost
      pair build: copy
      stencil: none
      bin: none
Setting up cg style minimization ...
  Unit style    : real
  Current step  : 0
Per MPI rank memory allocation (min/avg/max) = 18.89 | 19.07 | 19.24 Mbytes
Step Temp E_pair E_mol TotEng Press 
       0            0   -8699.3432            0   -8699.3432    31682.824 
     437            0   -8817.3793            0   -8817.3793    41352.312 
Loop time of 10.2622 on 8 procs for 437 steps with 50 atoms

99.5% CPU use with 8 MPI tasks x no OpenMP threads

Minimization stats:
  Stopping criterion = energy tolerance
  Energy initial, next-to-last, final = 
        -8699.34316838     -8817.37925638     -8817.37926644
  Force two-norm initial, final = 592.969 67.8742
  Force max component initial, final = 276.026 15.224
  Final line search alpha, max atom move = 9.34468e-06 0.000142263
  Iterations, force evaluations = 437 3355

MPI task timing breakdown:
Section |  min time  |  avg time  |  max time  |%varavg| %total
---------------------------------------------------------------
Pair    | 6.6241     | 6.7237     | 6.856      |   2.8 | 65.52
Neigh   | 0          | 0          | 0          |   0.0 |  0.00
Comm    | 0.10368    | 0.23498    | 0.3384     |  15.3 |  2.29
Output  | 0.000736   | 0.0009811  | 0.001506   |   0.0 |  0.01
Modify  | 3.2781     | 3.2803     | 3.2824     |   0.1 | 31.97
Other   |            | 0.02225    |            |       |  0.22

Nlocal:    6.25 ave 8 max 6 min
Histogram: 7 0 0 0 0 0 0 0 0 1
Nghost:    613 ave 623 max 603 min
Histogram: 2 0 0 0 2 0 2 0 0 2
Neighs:    804.625 ave 1015 max 766 min
Histogram: 7 0 0 0 0 0 0 0 0 1

Total # of neighbors = 6437
Ave neighs/atom = 128.74
Neighbor list builds = 0
Dangerous builds = 0
WARNING: Using 'neigh_modify every 1 delay 0 check yes' setting during minimization (../min.cpp:190)
WARNING: Total cutoff < 2*bond cutoff. May need to use an increased neighbor list skin. (../pair_reaxc.cpp:413)
Setting up cg style minimization ...
  Unit style    : real
  Current step  : 437
Per MPI rank memory allocation (min/avg/max) = 18.89 | 19.07 | 19.24 Mbytes
Step Temp E_pair E_mol TotEng Press 
     437            0   -8817.3793            0   -8817.3793    41352.312 
     468            0   -8817.8179            0   -8817.8179    30966.416 
Loop time of 0.859321 on 8 procs for 31 steps with 50 atoms

99.6% CPU use with 8 MPI tasks x no OpenMP threads

Minimization stats:
  Stopping criterion = energy tolerance
  Energy initial, next-to-last, final = 
        -8817.37926644     -8817.81791538     -8817.81792205
  Force two-norm initial, final = 67.8742 177.3
  Force max component initial, final = 15.224 55.3633
  Final line search alpha, max atom move = 0.000135153 0.00748251
  Iterations, force evaluations = 31 284

MPI task timing breakdown:
Section |  min time  |  avg time  |  max time  |%varavg| %total
---------------------------------------------------------------
Pair    | 0.57761    | 0.585      | 0.59693    |   0.9 | 68.08
Neigh   | 0          | 0          | 0          |   0.0 |  0.00
Comm    | 0.0089174  | 0.020806   | 0.028572   |   4.9 |  2.42
Output  | 5.1858e-05 | 6.6303e-05 | 0.00010171 |   0.0 |  0.01
Modify  | 0.25137    | 0.25158    | 0.25177    |   0.0 | 29.28
Other   |            | 0.001873   |            |       |  0.22

Nlocal:    6.25 ave 8 max 6 min
Histogram: 7 0 0 0 0 0 0 0 0 1
Nghost:    607.375 ave 625 max 594 min
Histogram: 1 2 1 0 1 1 0 1 0 1
Neighs:    823.375 ave 1034 max 774 min
Histogram: 3 4 0 0 0 0 0 0 0 1

Total # of neighbors = 6587
Ave neighs/atom = 131.74
Neighbor list builds = 0
Dangerous builds = 0
WARNING: Using 'neigh_modify every 1 delay 0 check yes' setting during minimization (../min.cpp:190)
WARNING: Total cutoff < 2*bond cutoff. May need to use an increased neighbor list skin. (../pair_reaxc.cpp:413)
Setting up cg style minimization ...
  Unit style    : real
  Current step  : 468
WARNING: Energy due to 3 extra global DOFs will be included in minimizer energies
Per MPI rank memory allocation (min/avg/max) = 18.89 | 19.07 | 19.24 Mbytes
Step Temp E_pair E_mol TotEng Press Volume 
     468            0   -8817.8179            0   -8817.8179    30966.416     1331.242 
    1217            0   -8826.9808            0   -8826.9808   -269.43762    1351.3094 
Loop time of 3.11028 on 8 procs for 749 steps with 50 atoms

99.5% CPU use with 8 MPI tasks x no OpenMP threads

Minimization stats:
  Stopping criterion = energy tolerance
  Energy initial, next-to-last, final = 
        -8817.81792205     -8826.98075472     -8826.98075519
  Force two-norm initial, final = 1058.56 16.2233
  Force max component initial, final = 654.833 7.53765
  Final line search alpha, max atom move = 1.15084e-05 8.67464e-05
  Iterations, force evaluations = 749 1159

MPI task timing breakdown:
Section |  min time  |  avg time  |  max time  |%varavg| %total
---------------------------------------------------------------
Pair    | 2.3425     | 2.3719     | 2.4238     |   1.9 | 76.26
Neigh   | 0          | 0          | 0          |   0.0 |  0.00
Comm    | 0.03681    | 0.088387   | 0.11761    |   9.7 |  2.84
Output  | 0.0011633  | 0.0015     | 0.0022069  |   0.8 |  0.05
Modify  | 0.62244    | 0.62306    | 0.62362    |   0.1 | 20.03
Other   |            | 0.02542    |            |       |  0.82

Nlocal:    6.25 ave 8 max 6 min
Histogram: 7 0 0 0 0 0 0 0 0 1
Nghost:    613 ave 629 max 600 min
Histogram: 1 1 1 1 0 2 0 0 1 1
Neighs:    822.125 ave 1033 max 773 min
Histogram: 4 3 0 0 0 0 0 0 0 1

Total # of neighbors = 6577
Ave neighs/atom = 131.54
Neighbor list builds = 0
Dangerous builds = 0
WARNING: Using 'neigh_modify every 1 delay 0 check yes' setting during minimization (../min.cpp:190)
WARNING: Total cutoff < 2*bond cutoff. May need to use an increased neighbor list skin. (../pair_reaxc.cpp:413)
Setting up cg style minimization ...
  Unit style    : real
  Current step  : 1217
Per MPI rank memory allocation (min/avg/max) = 18.89 | 19.07 | 19.24 Mbytes
Step Temp E_pair E_mol TotEng Press 
    1217            0   -8826.9808            0   -8826.9808   -269.43762 
    1226            0   -8826.9913            0   -8826.9913     128.1141 
Loop time of 0.345043 on 8 procs for 9 steps with 50 atoms

99.6% CPU use with 8 MPI tasks x no OpenMP threads

Minimization stats:
  Stopping criterion = energy tolerance
  Energy initial, next-to-last, final = 
        -8826.98075519     -8826.99126449     -8826.99130153
  Force two-norm initial, final = 13.0673 14.0525
  Force max component initial, final = 5.52547 8.37576
  Final line search alpha, max atom move = 5.42276e-07 4.54197e-06
  Iterations, force evaluations = 9 119

MPI task timing breakdown:
Section |  min time  |  avg time  |  max time  |%varavg| %total
---------------------------------------------------------------
Pair    | 0.23556    | 0.23948    | 0.24563    |   0.6 | 69.41
Neigh   | 0          | 0          | 0          |   0.0 |  0.00
Comm    | 0.0034461  | 0.0095425  | 0.013571   |   3.3 |  2.77
Output  | 1.8845e-05 | 2.3498e-05 | 3.3082e-05 |   0.0 |  0.01
Modify  | 0.095147   | 0.095197   | 0.095256   |   0.0 | 27.59
Other   |            | 0.0008018  |            |       |  0.23

Nlocal:    6.25 ave 8 max 6 min
Histogram: 7 0 0 0 0 0 0 0 0 1
Nghost:    595.5 ave 610 max 584 min
Histogram: 2 0 2 0 0 2 0 0 0 2
Neighs:    807.875 ave 1010 max 764 min
Histogram: 6 1 0 0 0 0 0 0 0 1

Total # of neighbors = 6463
Ave neighs/atom = 129.26
Neighbor list builds = 0
Dangerous builds = 0
WARNING: Using 'neigh_modify every 1 delay 0 check yes' setting during minimization (../min.cpp:190)
WARNING: Total cutoff < 2*bond cutoff. May need to use an increased neighbor list skin. (../pair_reaxc.cpp:413)
Setting up cg style minimization ...
  Unit style    : real
  Current step  : 1226
WARNING: Energy due to 3 extra global DOFs will be included in minimizer energies
Per MPI rank memory allocation (min/avg/max) = 18.89 | 19.07 | 19.24 Mbytes
Step Temp E_pair E_mol TotEng Press Volume 
    1226            0   -8826.9913            0   -8826.9913     128.1141    1351.3094 
    1227            0   -8826.9913            0   -8826.9913     35.71923    1351.3147 
Loop time of 0.0130276 on 8 procs for 1 steps with 50 atoms

99.5% CPU use with 8 MPI tasks x no OpenMP threads

Minimization stats:
  Stopping criterion = energy tolerance
  Energy initial, next-to-last, final = 
        -8826.99130154     -8826.99130154     -8826.99134031
  Force two-norm initial, final = 15.2407 12.4175
  Force max component initial, final = 8.37576 5.44266
  Final line search alpha, max atom move = 9.20012e-06 5.00731e-05
  Iterations, force evaluations = 1 4

MPI task timing breakdown:
Section |  min time  |  avg time  |  max time  |%varavg| %total
---------------------------------------------------------------
Pair    | 0.0098773  | 0.010022   | 0.010255   |   0.1 | 76.93
Neigh   | 0          | 0          | 0          |   0.0 |  0.00
Comm    | 0.00014671 | 0.00037894 | 0.00052239 |   0.0 |  2.91
Output  | 0          | 0          | 0          |   0.0 |  0.00
Modify  | 0.0024988  | 0.002503   | 0.0025069  |   0.0 | 19.21
Other   |            | 0.0001239  |            |       |  0.95

Nlocal:    6.25 ave 8 max 6 min
Histogram: 7 0 0 0 0 0 0 0 0 1
Nghost:    595.5 ave 610 max 584 min
Histogram: 2 0 2 0 0 2 0 0 0 2
Neighs:    807.625 ave 1010 max 764 min
Histogram: 6 1 0 0 0 0 0 0 0 1

Total # of neighbors = 6461
Ave neighs/atom = 129.22
Neighbor list builds = 0
Dangerous builds = 0
WARNING: Using 'neigh_modify every 1 delay 0 check yes' setting during minimization (../min.cpp:190)
WARNING: Total cutoff < 2*bond cutoff. May need to use an increased neighbor list skin. (../pair_reaxc.cpp:413)
Setting up cg style minimization ...
  Unit style    : real
  Current step  : 1227
Per MPI rank memory allocation (min/avg/max) = 18.89 | 19.07 | 19.24 Mbytes
Step Temp E_pair E_mol TotEng Press 
    1227            0   -8826.9913            0   -8826.9913     35.71923 
    1228            0   -8826.9914            0   -8826.9914     33.49387 
Loop time of 0.0490638 on 8 procs for 1 steps with 50 atoms

99.5% CPU use with 8 MPI tasks x no OpenMP threads

Minimization stats:
  Stopping criterion = energy tolerance
  Energy initial, next-to-last, final = 
        -8826.99134031     -8826.99134031     -8826.99139229
  Force two-norm initial, final = 11.78 13.2974
  Force max component initial, final = 5.44266 7.96753
  Final line search alpha, max atom move = 5.60711e-07 4.46748e-06
  Iterations, force evaluations = 1 17

MPI task timing breakdown:
Section |  min time  |  avg time  |  max time  |%varavg| %total
---------------------------------------------------------------
Pair    | 0.035426   | 0.035965   | 0.036946   |   0.3 | 73.30
Neigh   | 0          | 0          | 0          |   0.0 |  0.00
Comm    | 0.00051984 | 0.0014943  | 0.0020543  |   1.2 |  3.05
Output  | 0          | 0          | 0          |   0.0 |  0.00
Modify  | 0.011434   | 0.011443   | 0.011453   |   0.0 | 23.32
Other   |            | 0.0001618  |            |       |  0.33

Nlocal:    6.25 ave 8 max 6 min
Histogram: 7 0 0 0 0 0 0 0 0 1
Nghost:    595.5 ave 610 max 584 min
Histogram: 2 0 2 0 0 2 0 0 0 2
Neighs:    807.625 ave 1010 max 764 min
Histogram: 6 1 0 0 0 0 0 0 0 1

Total # of neighbors = 6461
Ave neighs/atom = 129.22
Neighbor list builds = 0
Dangerous builds = 0
WARNING: Total cutoff < 2*bond cutoff. May need to use an increased neighbor list skin. (../pair_reaxc.cpp:413)
Setting up Verlet run ...
  Unit style    : real
  Current step  : 0
  Time step     : 0.25
Per MPI rank memory allocation (min/avg/max) = 17.77 | 17.94 | 18.11 Mbytes
Step Temp TotEng KinEng PotEng Press 
       0          300   -8783.1735    43.817908   -8826.9914    1515.7661 
     200    213.13768   -8765.0258    31.130824   -8796.1566    14933.086 
     400    336.60513   -8737.7695    49.164442   -8786.9339    14472.412 
     600    325.05559   -8730.0888     47.47752   -8777.5664    109.98067 
     800    274.02917   -8744.1348    40.024616   -8784.1594    4565.2029 
    1000    340.64746   -8737.9599    49.754863   -8787.7148     4229.142 
    1200    311.54369   -8734.0413    45.503976   -8779.5452   -3495.2274 
    1400    273.96949   -8746.7311      40.0159    -8786.747    22574.551 
    1600    285.86043   -8735.2644    41.752686   -8777.0171   -2396.9732 
    1800    344.64506   -8727.0304    50.338751   -8777.3692    8334.8475 
    2000    307.56968   -8746.6521    44.923533   -8791.5756   -7180.9531 
    2200    334.91737   -8743.7496    48.917928   -8792.6675   -33829.616 
    2400    343.96182   -8730.7177    50.238958   -8780.9567    14389.582 
    2600    278.33732   -8745.2204    40.653863   -8785.8743   -23246.887 
    2800    256.46489   -8741.6903    37.459183   -8779.1495   -15284.242 
    3000    323.48806   -8726.5997    47.248566   -8773.8482   -16817.646 
    3200    310.09422   -8743.2986    45.292266   -8788.5909     10223.27 
    3400    306.30639   -8738.5472    44.739018   -8783.2862    43890.482 
    3600    264.59934   -8740.8815    38.647298   -8779.5288    11171.626 
    3800    281.76743     -8749.27    41.154864   -8790.4249    6753.5887 
    4000    354.11883   -8734.8692    51.722488   -8786.5917    1485.7658 
    4200    258.51314   -8738.6251    37.758349   -8776.3835   -20951.507 
    4400    290.14619   -8746.7521    42.378663   -8789.1307   -31042.557 
    4600    289.60379   -8738.1347     42.29944   -8780.4341   -15096.187 
    4800    356.28819   -8727.2046    52.039344    -8779.244   -561.82934 
    5000    283.16839   -8738.4453    41.359487   -8779.8048   -31591.033 
    5200    253.82483   -8748.2451    37.073577   -8785.3187   -11524.635 
    5400    331.95867   -8729.1986    48.485781   -8777.6844    4096.1626 
    5600    321.91075   -8737.8811    47.018185   -8784.8993     9307.318 
    5800    287.16687   -8743.2692    41.943504   -8785.2127   -23780.652 
    6000    291.66896   -8746.6189    42.601078   -8789.2199   -13998.905 
    6200    268.61343   -8733.1365    39.233595   -8772.3701   -14290.321 
    6400    275.50017   -8735.3572     40.23947   -8775.5967    25697.194 
    6600    256.89485     -8749.72    37.521982    -8787.242    2483.7514 
    6800    312.66886   -8736.3143    45.668318   -8781.9826    21578.111 
    7000     283.8453   -8739.7798    41.458358   -8781.2381   -20106.955 
    7200    291.94476   -8749.0915    42.641362   -8791.7329   -28605.603 
    7400    219.09927   -8753.5118    32.001571   -8785.5133    -31757.68 
    7600    324.89842   -8739.7547    47.454564   -8787.2093   -96.568724 
    7800    290.39468   -8739.0392    42.414958   -8781.4542    12659.809 
    8000    270.23798   -8749.7407    39.470876   -8789.2116   -9822.3125 
    8200    302.20349   -8736.8114    44.139749   -8780.9511    35716.951 
    8400    279.28302   -8735.4367    40.791992   -8776.2287   -27417.938 
    8600    281.74201   -8741.9331    41.151151   -8783.0843    16069.199 
    8800    232.34677    -8749.789    33.936497   -8783.7255    36158.537 
    9000    307.29079   -8738.4117    44.882798   -8783.2945    44236.614 
    9200    279.03893   -8744.0504     40.75634   -8784.8068   -953.09392 
    9400     247.7183   -8754.4016    36.181658   -8790.5832   -38263.819 
    9600      243.249   -8737.5582    35.528874   -8773.0871     37842.71 
    9800     301.9045   -8744.2697    44.096078   -8788.3658    16476.924 
   10000     275.2721   -8749.5754    40.206158   -8789.7816   -20735.074 
   10200    291.31702   -8733.6765    42.549675   -8776.2261    29165.527 
   10400    279.22193   -8738.3631     40.78307   -8779.1462   -32321.042 
   10600    251.93839   -8747.8359    36.798044   -8784.6339    5308.0528 
   10800    282.15296   -8736.8937    41.211174   -8778.1049    7978.7324 
   11000    335.04352   -8715.0555    48.936353   -8763.9919    37774.174 
   11200    329.21658   -8733.9126    48.085273   -8781.9978    400.57741 
   11400      303.804   -8748.1875    44.373518    -8792.561    294.83779 
   11600    372.53884   -8734.2473    54.412909   -8788.6602   -32097.863 
   11800    282.73502    -8735.949    41.296191   -8777.2451    22290.594 
   12000    324.83647   -8739.3948    47.445515   -8786.8403    23136.578 
   12200    339.23278   -8733.8151    49.548236   -8783.3634    -30366.75 
   12400    341.86462    -8728.365    49.932641   -8778.2976   -39890.921 
   12600    311.98765   -8743.6057     45.56882   -8789.1745    4728.0276 
   12800    285.89893   -8741.4273     41.75831   -8783.1857    9748.6475 
   13000    249.50484    -8745.019      36.4426   -8781.4616   -26147.726 
   13200    356.69957   -8732.9166     52.09943    -8785.016    4739.3754 
   13400    312.22525   -8734.6044    45.603523    -8780.208    6032.4736 
   13600    251.10279   -8748.5192    36.675996   -8785.1952   -6968.1541 
   13800    323.68342   -8734.4753    47.277101   -8781.7524    4167.9748 
   14000    250.01226   -8749.4429    36.516714   -8785.9596   -5758.8542 
   14200    376.89141   -8737.6053    55.048644    -8792.654   -3439.1951 
   14400    261.91289   -8736.0379    38.254916   -8774.2928   -4991.6545 
   14600    274.39208   -8748.3829    40.077622   -8788.4606   -465.28877 
   14800     426.8922   -8727.2905    62.351744   -8789.6422    22194.827 
   15000    254.03292   -8741.1869    37.103971   -8778.2909   -15889.912 
   15200    265.35877   -8746.0136     38.75822   -8784.7718    5711.0479 
   15400    334.69156   -8729.2859    48.884947   -8778.1708   -12024.951 
   15600    298.21287   -8741.1716     43.55688   -8784.7285   -4254.3518 
   15800    299.28454   -8741.7713    43.713408   -8785.4847   -41476.953 
   16000    324.91739   -8728.7769    47.457333   -8776.2342    11387.122 
   16200    329.74379   -8737.4094    48.162276   -8785.5716    34385.668 
   16400    302.58528   -8747.5537    44.195512   -8791.7492   -23316.079 
   16600    260.17283   -8745.6207    38.000764   -8783.6214   -15331.077 
   16800    345.71551   -8735.1665      50.4951   -8785.6616   -16718.018 
   17000     283.0156   -8750.8943    41.337171   -8792.2315   -17073.253 
   17200    267.82425   -8757.5199    39.118327   -8796.6382     9058.532 
   17400    299.75337   -8735.2413    43.781886   -8779.0231    6767.9036 
   17600     364.6612   -8734.6734    53.262303   -8787.9357    -7066.271 
   17800    305.92783   -8749.0345    44.683725   -8793.7182     15606.29 
   18000    313.69514    -8741.276    45.818216   -8787.0943   -14369.099 
   18200    328.76921   -8734.8037     48.01993   -8782.8236   -244.93592 
   18400    329.38787   -8745.3497     48.11029   -8793.4599   -21156.338 
   18600    312.69118   -8737.5405    45.671578    -8783.212    28605.562 
   18800    295.40452   -8744.6277    43.146693   -8787.7744    19779.234 
   19000     270.8004   -8747.2812    39.553023   -8786.8342    42065.354 
   19200     345.6867   -8737.8991    50.490894   -8788.3899    17838.923 
   19400    316.73364    -8746.403    46.262018    -8792.665   -24691.696 
   19600    308.22164   -8747.9603    45.018758   -8792.9791   -28769.326 
   19800    361.59131   -8737.4642    52.813916   -8790.2781     36516.35 
   20000     274.1141   -8746.7089    40.037022    -8786.746    23082.034 
   20200    343.75605   -8742.7595    50.208903   -8792.9684    1783.5839 
   20400    295.40728   -8756.3003    43.147097   -8799.4474    -14385.28 
   20600    284.97058   -8739.2909    41.622715   -8780.9136   -9147.3375 
   20800     317.6453   -8740.7466    46.395175   -8787.1418    20341.417 
   21000    293.41875   -8746.6993    42.856652    -8789.556   -7005.4516 
   21200     308.2968   -8743.3836    45.029736   -8788.4134    30802.253 
   21400     302.3572   -8749.4002      44.1622   -8793.5624    43740.083 
   21600    256.31012   -8748.0163    37.436577   -8785.4529   -19476.364 
   21800     241.7176   -8740.1016    35.305198   -8775.4068    -3536.787 
   22000    279.20919   -8758.1165    40.781208   -8798.8977   -9048.4666 
   22200     278.3126    -8746.828    40.650253   -8787.4783   -46508.842 
   22400    301.27533   -8739.7735    44.004182   -8783.7777   -50125.489 
   22600    265.81099   -8752.1384    38.824272   -8790.9627   -45372.368 
   22800     326.9696   -8740.5892    47.757079   -8788.3463   -4856.8874 
   23000    290.13555   -8737.9497    42.377109   -8780.3268    37778.162 
   23200    288.54818   -8751.6647    42.145259   -8793.8099   -16793.446 
   23400    314.54104   -8738.6635    45.941767   -8784.6053    24166.533 
   23600    349.91118   -8732.4831    51.107919    -8783.591    22924.919 
   23800    274.13108    -8745.564    40.039501   -8785.6035   -30987.701 
   24000    285.05986    -8750.921    41.635755   -8792.5567    1365.1556 
   24200    331.86559   -8732.6577    48.472186   -8781.1299   -18171.302 
   24400    309.74064   -8743.3705    45.240623   -8788.6112   -15600.757 
   24600    255.97292    -8758.565    37.387326   -8795.9523    14517.142 
   24800    297.61945   -8748.2344    43.470205   -8791.7046   -28731.338 
   25000    320.03184   -8737.5468    46.743753   -8784.2905   -40769.652 
   25200     284.3997   -8751.9489    41.539332   -8793.4882    14428.989 
   25400    253.58714    -8749.733    37.038859   -8786.7719    20089.746 
   25600    309.75465   -8735.4945     45.24267   -8780.7372    35614.685 
   25800    296.92082   -8744.1792    43.368163   -8787.5473   -7117.7177 
   26000    253.91836   -8747.7411    37.087238   -8784.8283    15341.997 
   26200    334.77115   -8739.4251    48.896572   -8788.3217     26584.69 
   26400    263.44182   -8755.0816     38.47823   -8793.5599    33824.543 
   26600     264.6334   -8749.1121    38.652272   -8787.7644   -38180.033 
   26800     264.1397   -8743.0886    38.580163   -8781.6687   -6695.7664 
   27000    335.42398   -8742.9291    48.991923    -8791.921    39731.045 
   27200    296.18375   -8753.7945    43.260507    -8797.055   -133.27191 
   27400    295.90499   -8747.3979    43.219791   -8790.6177   -9863.1038 
   27600    315.81628    -8741.451    46.128028    -8787.579    6459.5534 
   27800    261.69139   -8745.6018    38.222565   -8783.8244   -16354.064 
   28000    250.69667   -8752.9585    36.616678   -8789.5751   -13729.515 
   28200    349.10184   -8738.3485    50.989708   -8789.3382    31487.927 
   28400    286.79783   -8744.7046    41.889603   -8786.5942   -1603.4687 
   28600    256.58272   -8755.0695    37.476393   -8792.5459   -16573.058 
   28800    265.50556   -8741.3029     38.77966   -8780.0825    35115.038 
   29000    355.43022   -8742.4248    51.914029   -8794.3389    37518.115 
   29200    279.02939   -8746.2223    40.754947   -8786.9773    37655.935 
   29400    288.52388   -8758.5057    42.141709   -8800.6475   -893.57975 
   29600    308.94306   -8743.7829    45.124128    -8788.907   -221.67797 
   29800     292.9871   -8744.7209    42.793605   -8787.5145    4857.5493 
   30000    275.71975   -8750.1135    40.271541    -8790.385   -19782.811 
   30200    382.03216   -8740.5511      55.7995   -8796.3506    25908.203 
   30400    241.36538     -8750.98    35.253753   -8786.2337   -2166.0661 
   30600    260.52884   -8749.4971    38.052762   -8787.5499   -15201.989 
   30800    324.92959   -8743.6962    47.459116   -8791.1553   -3518.1238 
   31000    283.46882   -8742.1461    41.403369   -8783.5494    -31025.72 
   31200    328.27814   -8736.3518    47.948204      -8784.3   -25872.738 
   31400    324.46932   -8749.4348    47.391889   -8796.8267    3066.1123 
   31600    361.10837   -8736.0933    52.743377   -8788.8367   -17580.735 
   31800     330.1819   -8735.5052    48.226267   -8783.7315   -12266.877 
   32000    228.51873   -8753.3752    33.377375   -8786.7525    11097.939 
   32200    290.40604    -8738.766    42.416616   -8781.1826   -389.19497 
   32400    290.13808   -8746.5352    42.377479   -8788.9127   -7934.8051 
   32600    238.08619   -8754.8621    34.774796   -8789.6369    8365.2556 
   32800    350.06865   -8741.4751    51.130919    -8792.606    22212.176 
   33000    355.30111   -8739.2973    51.895171   -8791.1925   -31125.441 
   33200    263.06501   -8752.4619    38.423194   -8790.8851    3319.9362 
   33400    341.13209   -8740.3492    49.825648   -8790.1748    42983.195 
   33600     315.3308   -8737.8679     46.05712    -8783.925   -23823.106 
   33800    293.88965   -8751.4156    42.925431    -8794.341   -15491.281 
   34000    310.14771   -8738.8162    45.300079   -8784.1163    24863.279 
   34200    319.56361   -8740.7937    46.675363    -8787.469    6886.5055 
   34400    277.07043   -8750.3707    40.468822   -8790.8395    7916.9364 
   34600    368.53702   -8735.9841    53.828404   -8789.8125   -5649.2943 
   34800    321.36336   -8729.9965    46.938234   -8776.9348   -33106.482 
   35000     294.4403   -8749.8898     43.00586   -8792.8957   -31245.684 
   35200    333.77217   -8744.4327    48.750661   -8793.1833    377.18356 
   35400    349.52167   -8729.8609    51.051028   -8780.9119   -9608.3874 
   35600     307.0262   -8747.8911    44.844152   -8792.7352   -17875.302 
   35800    270.07264   -8753.9692    39.446727    -8793.416   -3125.6247 
   36000    328.08185   -8734.6072    47.919535   -8782.5268   -15070.003 
   36200    278.35836   -8746.9002    40.656937   -8787.5571    10381.096 
   36400    285.25934   -8747.2106    41.664891   -8788.8755   -1930.7386 
   36600    323.76541   -8741.6828    47.289076   -8788.9719   -4619.3448 
   36800    368.29207   -8746.6982    53.792626   -8800.4908    4663.9851 
   37000    279.11648   -8752.0512    40.767668   -8792.8189    11620.361 
   37200    318.11331   -8741.1794    46.463533   -8787.6429   -23289.193 
   37400    269.49464    -8752.408    39.362304   -8791.7703   -25014.488 
   37600    324.94297   -8743.2859     47.46107    -8790.747   -23050.542 
   37800    302.78105   -8739.0724    44.224107   -8783.2965   -9945.3434 
   38000    286.86415   -8753.8391     41.89929   -8795.7384    3700.4498 
   38200    221.68824   -8766.2843    32.379716    -8798.664   -33614.331 
   38400    265.64953    -8747.553    38.800689   -8786.3537    3867.1997 
   38600    332.37637   -8738.2398     48.54679   -8786.7866    12885.131 
   38800    266.75615   -8751.5766    38.962321   -8790.5389    53089.369 
   39000    315.40315   -8745.3308    46.067688   -8791.3985   -1056.5716 
   39200    341.66831   -8735.2905    49.903969   -8785.1945   -7278.7406 
   39400     316.0671   -8742.7419    46.164663   -8788.9065   -19570.749 
   39600     294.5344   -8749.9692    43.019604   -8792.9888    25227.456 
   39800    347.61294   -8734.8515    50.772239   -8785.6238   -7613.4778 
   40000    276.97892   -8744.1927    40.455456   -8784.6481    7494.5333 
   40200    217.98547   -8759.7932     31.83889   -8791.6321    11600.531 
   40400    238.75725   -8754.2506     34.87281   -8789.1234   -2190.5701 
   40600    301.10917   -8742.7497    43.979913   -8786.7296   -441.77854 
   40800    303.56213   -8744.2685    44.338191   -8788.6067   -24184.667 
   41000     278.2274   -8749.4748    40.637809   -8790.1126   -16578.592 
   41200    336.05744   -8738.9052    49.084446   -8787.9897    8126.5615 
   41400    251.94699   -8758.2352      36.7993   -8795.0345   -6309.1557 
   41600      277.686   -8748.2005    40.558731   -8788.7592   -20246.791 
   41800    312.29088    -8741.358     45.61311   -8786.9711    729.75464 
   42000    267.59325   -8743.1669    39.084588   -8782.2515   -18464.366 
   42200    326.24379   -8747.1839    47.651067    -8794.835   -7351.1979 
   42400    288.18808   -8757.4871    42.092663   -8799.5798    15906.654 
   42600    318.01971   -8737.5487    46.449862   -8783.9986   -14247.431 
   42800    292.40397   -8739.5556    42.708435   -8782.2641   -8995.9604 
   43000    295.34203   -8754.2574    43.137567   -8797.3949    -34115.19 
   43200    265.07745   -8748.9545    38.717131   -8787.6716    15783.905 
   43400    289.18334   -8728.9937     42.23803   -8771.2318    8129.2974 
   43600    297.64121   -8740.8671    43.473383   -8784.3405   -4530.8537 
   43800    311.62729   -8749.4924    45.516186   -8795.0086    11596.464 
   44000    294.51241   -8746.7544    43.016392   -8789.7708   -11619.557 
   44200    348.51296   -8735.1428    50.903696   -8786.0465   -1531.5215 
   44400    244.20981   -8754.0757    35.669209   -8789.7449    -26096.34 
   44600    287.94399   -8745.6348    42.057011   -8787.6918    5162.6471 
   44800    348.51969   -8741.8341    50.904679   -8792.7388    6270.4462 
   45000    247.11753    -8752.999     36.09391   -8789.0929    40796.817 
   45200    292.82942   -8745.2683    42.770575   -8788.0389   -26497.328 
   45400    321.38888   -8740.7016    46.941962   -8787.6436   -19202.926 
   45600    228.69221   -8759.0641    33.402714   -8792.4668   -20685.738 
   45800    285.72273   -8743.7301    41.732574   -8785.4626    26178.547 
   46000     333.4483   -8741.2773    48.703355   -8789.9806    31435.455 
   46200    257.52021   -8748.6244    37.613322   -8786.2377   -1114.7568 
   46400    343.17719   -8743.1145    50.124355   -8793.2389   -1334.4813 
   46600    334.98611   -8734.2136    48.927968   -8783.1416   -7488.8972 
   46800    282.10144   -8753.7208     41.20365   -8794.9245   -13803.927 
   47000    321.75848   -8744.8594    46.995945   -8791.8553   -27699.875 
   47200    339.72925   -8738.9577    49.620749   -8788.5785   -3831.6472 
   47400    255.32734   -8749.8525    37.293033   -8787.1456    8299.4299 
   47600    358.31421   -8734.9089    52.335263   -8787.2442   -8052.5187 
   47800    271.17278   -8736.3881    39.607412   -8775.9955     65325.46 
   48000    328.25335   -8742.7239    47.944583   -8790.6685    4219.7826 
   48200    314.34706   -8752.6335    45.913435   -8798.5469   -5657.9104 
   48400    256.81492   -8761.0841    37.510309   -8798.5944    20248.009 
   48600    254.32049   -8743.8494    37.145973   -8780.9954    24804.029 
   48800    264.79595   -8750.6327    38.676015   -8789.3087   -7987.4557 
   49000    287.07116   -8753.1179    41.929525   -8795.0475    22892.453 
   49200    273.45791   -8742.4624    39.941179   -8782.4036   -968.30729 
   49400    298.46554   -8744.3138    43.593784   -8787.9075    9612.3403 
   49600    355.50631   -8730.3673    51.925142   -8782.2924   -14203.733 
   49800     264.0511   -8744.5425    38.567223   -8783.1098    15776.343 
   50000    259.97773   -8751.3595    37.972267   -8789.3318   -4805.7235 
   50200    312.43778   -8741.1638    45.634566   -8786.7984    22978.256 
   50400    325.13208   -8741.2887    47.488691   -8788.7774   -38851.328 
   50600    309.69678   -8745.7724    45.234216   -8791.0066    14404.149 
   50800     264.0216   -8755.8706    38.562914   -8794.4335    31877.034 
   51000    322.40319   -8751.2208    47.090111   -8798.3109   -30410.215 
   51200    351.02625   -8736.7444    51.270786   -8788.0152     58613.72 
   51400    316.38515   -8742.3459    46.211117   -8788.5571   -31142.894 
   51600    284.89006   -8744.3025    41.610955   -8785.9135    29944.755 
   51800    383.46226   -8732.1364     56.00838   -8788.1448    8234.8965 
   52000     266.5562   -8747.6516    38.933116   -8786.5847   -1431.1119 
   52200    263.82403   -8749.4142    38.534056   -8787.9482   -3602.5023 
   52400    342.08857   -8736.4152    49.965351   -8786.3806   -27804.421 
   52600    292.37498   -8752.2107    42.704199   -8794.9149    9572.7845 
   52800    298.73719   -8742.7251    43.633463   -8786.3585    -14095.78 
   53000    296.18154   -8734.8913    43.260185   -8778.1514   -17618.929 
   53200    297.62826   -8748.2329    43.471492   -8791.7044     25033.35 
   53400    264.69891   -8756.8566    38.661841   -8795.5184   -10556.456 
   53600    368.55118   -8738.6748    53.830472   -8792.5053       4337.3 
   53800    291.71419   -8749.0635    42.607684   -8791.6712    12053.844 
   54000    237.97281   -8765.3946    34.758235   -8800.1528   -11811.396 
   54200    313.10135   -8751.8633    45.731487   -8797.5947     18965.54 
   54400    263.32265   -8745.4507    38.460825   -8783.9116   -11364.862 
   54600    307.51406   -8735.5116    44.915409   -8780.4271    17960.558 
   54800    256.95879   -8747.6253    37.531322   -8785.1566   -16061.891 
   55000    301.68853   -8744.2239    44.064534   -8788.2884    9446.1977 
   55200    281.27631   -8739.0767    41.083131   -8780.1598    8814.3145 
   55400    245.34753   -8757.5033    35.835385   -8793.3387   -15203.326 
   55600    334.07439   -8744.7768    48.794803   -8793.5716    11163.246 
   55800    301.51732   -8750.1013    44.039526   -8794.1408    32007.846 
   56000    222.49237   -8754.0437    32.497167   -8786.5408   -848.56949 
   56200     271.8937   -8736.5974     39.71271   -8776.3101    8775.4508 
   56400    296.53988   -8743.8097    43.312524   -8787.1222   -12372.777 
   56600    265.96442   -8753.5548    38.846681   -8792.4015    9048.3381 
   56800    361.69753   -8737.2679     52.82943   -8790.0973   -37433.486 
   57000    258.75367   -8749.8539    37.793481   -8787.6474   -23406.248 
   57200     240.0434   -8756.4828    35.060666   -8791.5434    9109.4112 
   57400     273.2293   -8739.6676    39.907787   -8779.5754   -28346.431 
   57600     296.4425   -8749.4912    43.298301   -8792.7895    12370.013 
   57800    298.13544   -8752.6871    43.545571   -8796.2327   -17375.315 
   58000    379.78381   -8737.8283    55.471107   -8793.2994   -408.10727 
   58200    322.38021   -8747.7451    47.086754   -8794.8319     12947.06 
   58400     225.3016   -8754.9663    32.907483   -8787.8738   -12838.784 
   58600    275.25727    -8745.757    40.203993    -8785.961   -4184.7911 
   58800    325.35277   -8741.0768    47.520925   -8788.5978     21732.89 
   59000    267.95767   -8749.0129    39.137815   -8788.1507    24000.737 
   59200    294.92658   -8751.2766    43.076886   -8794.3535    30333.203 
   59400    309.78846   -8734.7433    45.247607   -8779.9909    12512.429 
   59600    332.41184   -8723.9774    48.551972   -8772.5294   -3031.9384 
   59800    321.98388   -8742.9986    47.028866   -8790.0275   -5792.4101 
   60000     298.0461   -8749.8113    43.532522   -8793.3438    15960.342 
   60200    348.65123   -8734.0566    50.923892   -8784.9805   -12401.489 
   60400    280.96186   -8753.0625    41.037203   -8794.0997    10809.077 
   60600    284.94469   -8749.2085    41.618934   -8790.8275    10899.904 
   60800    393.15876   -8735.9008    57.424647   -8793.3254   -9314.0812 
   61000    306.07292   -8744.7061    44.704917    -8789.411    5675.5831 
   61200    343.73836   -8748.4094    50.206319   -8798.6157   -13783.385 
   61400    289.65498   -8754.5884    42.306918   -8796.8953    14661.454 
   61600    299.15619   -8740.3499    43.694662   -8784.0446    49579.717 
   61800    345.29958   -8732.4923     50.43435   -8782.9267    34181.058 
   62000    274.60901   -8752.9688    40.109307   -8793.0781    14786.659 
   62200    330.97239   -8741.1891    48.341725   -8789.5308    18842.986 
   62400    336.97657   -8738.5236    49.218695   -8787.7423   -9477.7215 
   62600    286.08514   -8753.1878    41.785507   -8794.9733   -2801.0455 
   62800    291.02332   -8741.9776    42.506777   -8784.4844    11089.214 
   63000    318.59282   -8735.4432    46.533569   -8781.9768    6745.6258 
   63200    236.54785   -8747.4744    34.550107   -8782.0245    -19147.85 
   63400    336.68073   -8737.9832    49.175484   -8787.1587    789.06294 
   63600    307.34124   -8733.3081    44.890167   -8778.1982   -31262.677 
   63800    303.15545    -8753.028    44.278792   -8797.3068   -20050.786 
   64000    290.69454   -8743.2472    42.458755    -8785.706    62415.416 
   64200    321.45825   -8741.1441    46.952093   -8788.0962   -25396.888 
   64400    291.09273   -8748.6858    42.516914   -8791.2027   -5210.7052 
   64600     284.5402   -8748.8309    41.559854   -8790.3907   -18265.618 
   64800    308.85392   -8743.0145    45.111109   -8788.1256    328.47159 
   65000    267.81627   -8748.5896    39.117161   -8787.7068    14911.839 
   65200    319.29368   -8747.4301    46.635936    -8794.066    -11145.33 
   65400    315.40852   -8735.0604    46.068472   -8781.1289   -16669.658 
   65600    356.78936   -8733.0176    52.112545   -8785.1302     30440.27 
   65800    273.83899   -8749.7857    39.996839   -8789.7825    12014.016 
   66000    306.90666   -8744.5548    44.826692   -8789.3815   -35919.936 
   66200    334.84363   -8740.4284    48.907158   -8789.3355   -12368.919 
   66400     307.9316   -8749.9809    44.976395   -8794.9573   -13493.573 
   66600    263.24929   -8751.1729     38.45011    -8789.623   -26852.979 
   66800    253.91515   -8739.5801    37.086769   -8776.6668   -27062.056 
   67000    321.97317   -8740.6703    47.027303   -8787.6976    28422.019 
   67200    291.12059   -8755.9193    42.520984   -8798.4403   -3062.0165 
   67400    306.24301   -8741.5919    44.729759   -8786.3216   -6306.4259 
   67600    259.59669   -8747.8887    37.916612   -8785.8053   -34185.353 
   67800    261.68593   -8759.8522    38.221767    -8798.074    4709.0304 
   68000    306.12148   -8747.9224    44.712009   -8792.6344    41981.951 
   68200    333.46158    -8745.331    48.705296   -8794.0363   -12803.348 
   68400    273.80238    -8754.177    39.991491   -8794.1685   -13265.371 
   68600    365.38901   -8736.2666    53.368606   -8789.6352    -4892.245 
   68800    291.19379   -8747.3199    42.531675   -8789.8515    8901.6958 
   69000    235.10608   -8756.5871    34.339522   -8790.9267   -8574.9957 
   69200    309.19493   -8745.2604    45.160917   -8790.4213    3556.5663 
   69400    285.32428   -8743.4706    41.674376    -8785.145    14953.692 
   69600    270.39224    -8760.377    39.493407   -8799.8704    9304.1206 
   69800    263.25256   -8749.4929    38.450588   -8787.9434     9120.813 
   70000    323.18549   -8747.2929    47.204374   -8794.4973    9709.7032 
   70200    373.99905   -8731.8818    54.626186    -8786.508   -30196.962 
   70400    297.72241   -8750.3717    43.485244    -8793.857   -8541.8967 
   70600    334.79344   -8740.8554    48.899828   -8789.7553   -7059.8639 
   70800    290.28095   -8739.7321    42.398346   -8782.1304   -9094.7125 
   71000    254.75079   -8756.4991    37.208821    -8793.708    15652.073 
   71200    343.49717   -8740.7829    50.171092    -8790.954    24226.837 
   71400    343.69384   -8742.2188    50.199816   -8792.4186    3850.7629 
   71600    268.49649   -8753.3658    39.216515   -8792.5823     16891.08 
   71800    339.56725   -8745.2904    49.597088   -8794.8874   -704.21864 
   72000    303.23765   -8742.4601    44.290797   -8786.7509   -21716.416 
   72200    275.17598   -8749.9661    40.192118   -8790.1582    3054.1114 
   72400    252.20806   -8754.4375    36.837432    -8791.275   -20116.602 
   72600    335.11895   -8737.7083    48.947371   -8786.6557   -25395.807 
   72800    293.16313   -8750.5702    42.819317   -8793.3895   -24589.445 
   73000    255.40356   -8754.1855    37.304166   -8791.4896    29976.119 
   73200    281.77869   -8745.0074    41.156509   -8786.1639   -6145.1361 
   73400    305.78845   -8751.2467    44.663367     -8795.91    23942.405 
   73600    334.10387   -8739.5538    48.799108   -8788.3529   -2677.5857 
   73800    359.70381   -8726.9189    52.538228   -8779.4572   -24261.925 
   74000    248.33419   -8742.2094    36.271615    -8778.481   -24918.434 
   74200    308.99076   -8745.4284    45.131095   -8790.5595    2464.6963 
   74400    325.99646   -8748.2021    47.614942    -8795.817   -12325.567 
   74600    269.71859   -8739.9449    39.395014   -8779.3399     35807.62 
   74800    373.85019   -8736.9693    54.604444   -8791.5738   -26248.487 
   75000    264.04801   -8744.7225    38.566771   -8783.2892   -6594.3436 
   75200    312.84625   -8745.8104    45.694227   -8791.5046    27968.688 
   75400    245.96673   -8758.7497    35.925825   -8794.6756   -27887.335 
   75600    326.10032   -8744.3752    47.630112   -8792.0053    7227.2896 
   75800    319.90068   -8741.0572    46.724595   -8787.7818     2459.102 
   76000    295.78365   -8753.4452    43.202068   -8796.6472    13059.054 
   76200     332.3335   -8746.7329    48.540529   -8795.2735    29819.922 
   76400    301.50402   -8737.3989    44.037585   -8781.4365   -17983.482 
   76600     262.5233   -8752.8776    38.344073   -8791.2217    18125.281 
   76800    253.60698   -8753.2477    37.041758   -8790.2895   -20764.419 
   77000    297.62148   -8744.4926    43.470501   -8787.9631   -19764.437 
   77200    317.14649   -8744.3056    46.322319   -8790.6279    17614.753 
   77400    335.68319   -8740.6415    49.029784   -8789.6713    28015.613 
   77600    259.79773   -8752.8326    37.945976   -8790.7786    17009.698 
   77800    320.17164   -8746.0213    46.764171   -8792.7855   -11995.895 
   78000    334.17037    -8741.218    48.808821   -8790.0268    12892.793 
   78200    346.83215   -8734.7963    50.658197   -8785.4545   -20257.138 
   78400    301.07084   -8748.2312    43.974315   -8792.2055    6773.2946 
   78600    300.36471   -8753.6386    43.871177   -8797.5098    16782.097 
   78800    287.61074   -8748.3791    42.008337   -8790.3874   -10143.778 
   79000    358.14846   -8743.4357    52.311053   -8795.7467     -17839.5 
   79200    344.65571    -8747.523    50.340307   -8797.8633    913.12001 
   79400    276.97935   -8736.0261    40.455519   -8776.4816   -2844.4883 
   79600    291.06232   -8745.0526    42.512473   -8787.5651   -1602.8806 
   79800    302.04239   -8752.3433    44.116219   -8796.4595   -26552.673 
   80000    289.48922   -8741.2379    42.282706   -8783.5207    22793.181 
   80200    253.50607   -8754.9714    37.027019   -8791.9984    55848.466 
   80400     281.5838   -8748.9689    41.128043    -8790.097    445.23326 
   80600     299.4019   -8741.6255    43.730549   -8785.3561    7631.3814 
   80800    284.26984   -8741.3162    41.520366   -8782.8365   -18279.446 
   81000    280.77115   -8753.0716    41.009348    -8794.081   -3484.3769 
   81200    316.91677   -8739.9662    46.288766   -8786.2549   -6523.9649 
   81400    299.21131   -8739.5378    43.702712   -8783.2405    10712.528 
   81600    320.09182    -8745.055    46.752513   -8791.8075    14367.001 
   81800    277.37261   -8749.5189    40.512959   -8790.0319    39391.564 
   82000    395.30307   -8739.8042    57.737844   -8797.5421    9274.0754 
   82200    335.55512   -8743.0986    49.011077   -8792.1097   -14044.718 
   82400    332.61019   -8743.8094    48.580942   -8792.3903   -5854.8551 
   82600    386.40774   -8729.5994    56.438595    -8786.038   -4494.5824 
   82800    288.09541   -8744.1793    42.079127   -8786.2585    21413.313 
   83000     303.9704   -8744.2313    44.397823   -8788.6291    28299.489 
   83200    401.25815   -8735.4646    58.607642   -8794.0723     3114.123 
   83400    249.58616   -8751.8157    36.454478   -8788.2702   -31399.525 
   83600    267.72561   -8742.9341     39.10392    -8782.038    8078.1732 
   83800    311.81137   -8733.3004    45.543072   -8778.8434   -39279.242 
   84000    256.48202     -8749.03    37.461685   -8786.4917    10338.215 
   84200    321.64222   -8743.0811    46.978964     -8790.06   -14632.553 
   84400    315.09255   -8725.2704    46.022321   -8771.2927   -14297.051 
   84600    308.41887   -8744.9388    45.047566   -8789.9863    -25169.18 
   84800    287.04066   -8751.8351    41.925071   -8793.7602    12684.578 
   85000    324.22956   -8737.4936     47.35687   -8784.8505   -3313.6935 
   85200    283.40503   -8741.3534    41.394052   -8782.7474    7966.3376 
   85400    295.00634   -8750.7238    43.088535   -8793.8123    -10452.93 
   85600    293.91263   -8740.1936    42.928788   -8783.1224    57711.058 
   85800    338.51479   -8737.0678    49.443366   -8786.5112   -33470.884 
   86000    268.77124   -8750.9678    39.256645   -8790.2244    2103.0842 
   86200    306.69766     -8737.14    44.796166   -8781.9361   -5002.4601 
   86400    314.03743    -8746.779     45.86821   -8792.6472    16079.413 
   86600    254.15239   -8747.6072    37.121419   -8784.7287   -21975.083 
   86800    337.75752   -8737.2643     49.33276   -8786.5971    18110.065 
   87000    261.82974   -8746.0684    38.242771   -8784.3111   -13045.612 
   87200    282.91851   -8747.0366     41.32299   -8788.3596    41182.345 
   87400    333.24134   -8741.1691    48.673127   -8789.8423   -16551.217 
   87600    288.89985   -8744.0093    42.196623   -8786.2059   -7742.1702 
   87800    291.91229   -8746.6811    42.636619   -8789.3178    12793.625 
   88000    363.53228   -8733.5861    53.097413   -8786.6835   -8413.8442 
   88200    303.92392   -8748.2147    44.391034   -8792.6057   -45154.255 
   88400    304.27444   -8749.7273    44.442232   -8794.1695    1364.0358 
   88600     317.4811   -8741.6649    46.371192   -8788.0361      12699.7 
   88800    388.24882   -8732.7743    56.707503   -8789.4818    -2709.751 
   89000     297.7456   -8748.6677    43.488631   -8792.1564   -3973.6607 
   89200    291.54205   -8743.8381    42.582543   -8786.4207   -3800.3303 
   89400    345.95543   -8733.4193    50.530144   -8783.9494    35499.751 
   89600    244.09419   -8743.4353    35.652322   -8779.0877   -31296.333 
   89800    291.63247   -8745.7396    42.595749   -8788.3354   -413.05711 
   90000    307.71984   -8734.1317    44.945465   -8779.0771   -38758.618 
   90200    294.45383   -8745.3954    43.007836   -8788.4032    -24502.14 
   90400    263.64213   -8750.8009    38.507488   -8789.3084   -27520.348 
   90600    319.96687    -8731.627    46.734262   -8778.3613    37030.151 
   90800    289.16953    -8740.313    42.236013    -8782.549    17229.966 
   91000    326.82239   -8741.9322    47.735578   -8789.6678   -28143.916 
   91200    277.24901   -8756.9641    40.494905    -8797.459    5877.5742 
   91400    268.18712   -8742.4335    39.171329   -8781.6048   -20063.192 
   91600    303.16782   -8740.5453    44.280599   -8784.8259    29372.846 
   91800    276.35925   -8754.4654    40.364948   -8794.8303    16592.539 
   92000    291.87043   -8747.6375    42.630506    -8790.268   -1256.4426 
   92200    323.26601   -8746.5227    47.216135   -8793.7389    26299.314 
   92400     390.9921   -8729.0649    57.108185   -8786.1731    2733.9649 
   92600    306.32989   -8743.0562    44.742449   -8787.7986   -15320.751 
   92800    270.17013    -8745.752    39.460966   -8785.2129    -30321.48 
   93000    312.37192    -8730.422    45.624947    -8776.047   -27536.007 
   93200    356.48218   -8738.0827    52.067677   -8790.1504    15979.498 
   93400    261.08362   -8749.1485    38.133793   -8787.2822    -6267.419 
   93600    337.03707   -8737.0338    49.227531   -8786.2614   -33795.917 
   93800    329.31159   -8745.3937     48.09915   -8793.4928    19439.406 
   94000    269.49323   -8749.0747    39.362099   -8788.4368    11736.231 
   94200      343.933   -8737.1478    50.234749   -8787.3825    -5046.093 
   94400     342.2287   -8730.6334    49.985819   -8780.6192    9973.7403 
   94600    296.89325   -8751.5947    43.364136   -8794.9588   -8014.6754 
   94800    261.48236   -8741.0817    38.192033   -8779.2737    14794.659 
   95000    388.45705    -8739.863    56.737917   -8796.6009    4200.9674 
   95200    278.71265   -8746.4522    40.708684   -8787.1609   -18130.647 
   95400    250.01986    -8763.445    36.517824   -8799.9628    -8093.761 
   95600    286.16608   -8751.5079     41.79733   -8793.3052    3703.2626 
   95800    330.85519   -8742.2776    48.324608   -8790.6022    17030.925 
   96000    305.43459   -8748.4853    44.611682   -8793.0969   -15640.951 
   96200    252.96773   -8752.4131    36.948389   -8789.3615   -31147.242 
   96400    311.67315   -8735.9982    45.522884   -8781.5211    18415.319 
   96600    318.54433   -8749.2912    46.526487   -8795.8177   -6007.9682 
   96800    289.24051    -8749.464     42.24638   -8791.7104   -43309.719 
   97000    324.12164   -8740.3749    47.341107    -8787.716    314.19764 
   97200    267.42983   -8758.2723    39.060718    -8797.333   -24384.267 
   97400    300.12236   -8749.7214    43.835779   -8793.5572   -3684.4787 
   97600      321.095   -8739.9741    46.899036   -8786.8732   -3977.8881 
   97800    278.34954   -8747.6074    40.655648   -8788.2631    269.87914 
   98000     260.8765   -8755.7516    38.103541   -8793.8551   -14466.661 
   98200    292.95814   -8746.1333    42.789376   -8788.9227   -33631.845 
   98400    297.50416   -8735.2186    43.453366    -8778.672    5264.0474 
   98600    321.97613   -8740.1583    47.027734    -8787.186   -7799.8142 
   98800     310.8799   -8748.2475    45.407023   -8793.6546   -41909.633 
   99000     256.2148   -8763.2199    37.422655   -8800.6425   -9901.4786 
   99200    314.52225   -8749.9231    45.939023   -8795.8621    68168.337 
   99400    325.57898   -8738.2202    47.553965   -8785.7742   -10.565339 
   99600     264.7155   -8755.0579    38.664264   -8793.7222    42340.296 
   99800    273.19474   -8749.9112    39.902739    -8789.814    1126.0164 
  100000    304.50609   -8740.6247    44.476066   -8785.1008   -1407.2126 
  100200    321.29113   -8742.9297    46.927684   -8789.8574    26510.403 
  100400    247.00661   -8761.8543     36.07771    -8797.932    28343.841 
  100600    316.33878    -8746.552    46.204345   -8792.7563    8630.4287 
  100800    298.64358   -8739.5524     43.61979   -8783.1722    27778.755 
  101000    279.92287    -8752.569    40.885448   -8793.4544   -10228.382 
  101200    284.12877   -8750.7606    41.499761   -8792.2604   -35829.942 
  101400    303.66575   -8740.8501    44.353326   -8785.2034   -11865.187 
  101600    274.05411   -8750.9987     40.02826    -8791.027   -6141.3057 
  101800    266.68393   -8757.6415    38.951773   -8796.5933    1096.8875 
  102000    257.62173   -8743.1003    37.628151   -8780.7285    -6285.589 
  102200    276.36498   -8747.9879    40.365784   -8788.3537    6303.0758 
  102400     319.1047   -8750.5337    46.608335    -8797.142   -5755.8019 
  102600    305.27171   -8739.3817    44.587893   -8783.9696   -17997.917 
  102800    302.09774   -8745.2911    44.124303   -8789.4154   -10038.136 
  103000    260.04218   -8752.5308    37.981681   -8790.5125   -11397.063 
  103200    268.04473   -8739.7584     39.15053   -8778.9089    21179.807 
  103400    321.91893   -8740.1939    47.019381   -8787.2133    -40636.13 
  103600     305.7419   -8746.9589    44.656568   -8791.6155     22471.82 
  103800    279.04186   -8757.0961    40.756768   -8797.8528    7822.0866 
  104000    299.81902   -8746.2608    43.791474   -8790.0523   -14338.652 
  104200    314.87926   -8743.3239    45.991168   -8789.3151   -13651.866 
  104400    303.95423   -8753.9939    44.395462   -8798.3893   -20204.379 
  104600    268.44421    -8755.129    39.208878   -8794.3379   -11791.222 
  104800     283.6848   -8740.8626    41.434915   -8782.2975   -27273.215 
  105000    339.02304   -8740.1967      49.5176   -8789.7143   -18891.711 
  105200    257.95995   -8754.4946     37.67755   -8792.1722   -36968.229 
  105400    269.26489   -8745.3174    39.328747   -8784.6461     1260.459 
  105600     252.7471   -8744.3093    36.916163   -8781.2254   -16283.335 
  105800    223.47861   -8755.5798    32.641217   -8788.2211   -9207.5899 
  106000    369.65811   -8740.8844     53.99215   -8794.8765   -32881.969 
  106200    251.02681   -8743.4317    36.664898   -8780.0966   -11006.118 
  106400    208.86057   -8753.4314    30.506111   -8783.9375    -32226.88 
  106600     337.9605   -8736.5224    49.362407   -8785.8848    8428.8863 
  106800    332.19738   -8740.5194    48.520648   -8789.0401   -8183.5665 
  107000    261.02528   -8749.4321    38.125272   -8787.5574   -1786.1505 
  107200    288.43218   -8740.4395    42.128316   -8782.5678    1881.6601 
  107400    408.40838   -8730.6809    59.652002   -8790.3329   -23850.407 
  107600    282.00563   -8744.3393    41.189655   -8785.5289    3028.3746 
  107800    270.35797   -8755.1036    39.488401    -8794.592   -2659.0602 
  108000    324.70862    -8741.611    47.426841   -8789.0379    13160.323 
  108200    300.87569   -8740.0621    43.945811   -8784.0079   -36889.889 
  108400    257.42155   -8756.2206    37.598913   -8793.8195     5312.359 
  108600    254.02413   -8749.4655    37.102686   -8786.5682   -13686.108 
  108800    306.17045   -8740.4035    44.719162   -8785.1227   -850.74376 
  109000    304.16759   -8752.0388    44.426624   -8796.4654   -5245.3351 
  109200    290.91897   -8749.1473    42.491535   -8791.6389   -17781.255 
  109400    284.86373   -8746.3726    41.607109   -8787.9797   -15364.606 
  109600    297.66131   -8742.0876    43.476319   -8785.5639   -10874.375 
  109800    229.32938   -8760.7137    33.495779   -8794.2095    6197.7968 
  110000    312.34284   -8752.1885    45.620699   -8797.8092    11369.992 
  110200     314.6974   -8740.9572    45.964605   -8786.9218   -327.79152 
  110400     344.8337   -8738.7444    50.366304   -8789.1107     23966.42 
  110600     256.9629   -8756.7134    37.531923   -8794.2454   -10493.906 
  110800    307.71364   -8744.1343     44.94456   -8789.0789   -16742.628 
  111000    290.80342    -8739.546    42.474659   -8782.0207   -45494.696 
  111200    300.96521   -8748.9496    43.958886   -8792.9085   -12277.422 
  111400    256.38152   -8750.4464    37.447006   -8787.8934   -10333.146 
  111600    306.95903   -8741.6096    44.834342   -8786.4439    21570.474 
  111800    296.34437   -8742.1366    43.283968   -8785.4206   -37148.327 
  112000    311.87615   -8746.8664    45.552535   -8792.4189   -9329.4907 
  112200    292.60812   -8736.0932    42.738251   -8778.8315   -23257.696 
  112400    324.40456   -8747.5529     47.38243   -8794.9353    17532.618 
  112600     290.7252   -8746.1319    42.463233   -8788.5952   -4978.0037 
  112800    299.01201   -8746.4292    43.673602   -8790.1028   -37750.925 
  113000     324.2526   -8743.5569    47.360234   -8790.9172    26834.649 
  113200     272.2281   -8740.2988    39.761552   -8780.0603    3621.1208 
  113400    283.66651   -8755.0342    41.432243   -8796.4664    -2950.072 
  113600    290.06979   -8741.1155    42.367505    -8783.483   -15805.346 
  113800    315.16678   -8738.4657    46.033163   -8784.4988    -25412.69 
  114000    296.24363   -8752.6667    43.269253    -8795.936   -19742.728 
  114200    350.07582   -8735.8149    51.131967   -8786.9468     14416.33 
  114400    267.14688   -8742.7892    39.019391   -8781.8086    11498.124 
  114600    239.14739   -8759.0443    34.929795   -8793.9741   -26864.437 
  114800    283.23383   -8752.3502    41.369046   -8793.7192    11067.906 
  115000     252.4917   -8742.2991     36.87886   -8779.1779   -3500.4158 
  115200    357.00281   -8733.2408     52.14372   -8785.3845   -17213.244 
  115400    280.09349   -8750.3843    40.910369   -8791.2947     16792.38 
  115600    315.95838   -8743.5881    46.148784   -8789.7369   -23170.284 
  115800    382.60657   -8726.9069    55.883397   -8782.7903    6426.5198 
  116000    299.54711   -8741.7357    43.751759   -8785.4874    55063.135 
  116200    288.98886     -8753.39    42.209624   -8795.5996   -4451.0073 
  116400    331.76168   -8733.5378    48.457009   -8781.9949   -4093.5363 
  116600    279.46014   -8742.2598    40.817863   -8783.0777   -11173.079 
  116800    266.76873   -8750.2026    38.964158   -8789.1667    2833.5247 
  117000    230.00838   -8762.1477    33.594954   -8795.7427    7747.5088 
  117200    281.08139   -8744.6548    41.054662   -8785.7094   -19668.055 
  117400    310.47079   -8741.6483    45.347268   -8786.9955   -12590.451 
  117600    270.64514    -8756.663    39.530346   -8796.1933    22800.482 
  117800    381.12646   -8737.8558    55.667214    -8793.523   -8538.4371 
  118000    299.74627   -8749.7789    43.780849   -8793.5597    10873.767 
  118200    320.09875   -8747.3758    46.753525   -8794.1293   -28930.709 
  118400    315.24274    -8733.771    46.044258   -8779.8153   -45127.134 
  118600     263.9031   -8756.0451    38.545606   -8794.5907    16333.452 
  118800    301.17371   -8750.0281    43.989339   -8794.0175   -2959.1734 
  119000    274.11419   -8741.5244    40.037034   -8781.5615    8981.2303 
  119200     415.1368   -8725.4195    60.634753   -8786.0542   -15347.959 
  119400    287.67356   -8744.3912    42.017511   -8786.4087   -24763.202 
  119600    294.25708   -8751.8277    42.979099   -8794.8068   -22574.472 
  119800     292.3207   -8755.6523    42.696272   -8798.3486    33515.754 
  120000    293.85506   -8742.0015     42.92038   -8784.9218    -4401.621 
  120200      213.521   -8750.5256    31.186811   -8781.7124    34386.681 
  120400     370.7081    -8737.572    54.145511   -8791.7175   -20024.035 
  120600    296.96811   -8743.7604    43.375071   -8787.1355   -24164.473 
  120800    270.61642   -8762.6117    39.526152   -8802.1378   -5068.7262 
  121000    289.71404   -8742.9862    42.315544   -8785.3018     -34029.9 
  121200    357.51144   -8739.4076    52.218011   -8791.6256    15196.991 
  121400    239.86159   -8753.0918    35.034109   -8788.1259     10828.94 
  121600    325.88158    -8737.445    47.598164   -8785.0431    38335.162 
  121800    384.17389   -8735.4548     56.11232   -8791.5671   -7003.7047 
  122000    321.45317   -8752.5176    46.951351    -8799.469   -351.78797 
  122200    316.90015    -8742.294    46.286338   -8788.5804   -11857.972 
  122400    325.87383   -8741.2161    47.597031   -8788.8132   -2292.8946 
  122600    291.75576   -8748.0108    42.613756   -8790.6246   -23170.954 
  122800    294.61747   -8742.9477    43.031737   -8785.9794    10477.286 
  123000    340.68498   -8737.1073    49.760344   -8786.8676   -21439.691 
  123200    265.08861   -8749.6293    38.718761   -8788.3481   -34560.305 
  123400    288.84268   -8752.1866    42.188272   -8794.3749    40283.977 
  123600    353.29694   -8736.8846    51.602443    -8788.487    6757.4887 
  123800    289.61375    -8751.567    42.300896   -8793.8679   -31973.348 
  124000    285.31196   -8744.8542    41.672577   -8786.5268   -34303.062 
  124200    294.78892   -8736.6227    43.056779   -8779.6795   -866.01868 
  124400    265.89384   -8751.1979    38.836373   -8790.0343    -6337.769 
  124600     292.4908   -8739.1825    42.721117   -8781.9036   -33379.773 
  124800    278.89415   -8738.4478    40.735194    -8779.183    7943.8127 
  125000    269.21008   -8748.4797    39.320742   -8787.8005   -20112.031 
  125200    282.76155    -8746.578    41.300064    -8787.878    6926.1925 
  125400    300.01666   -8732.7458    43.820341   -8776.5662   -24645.692 
  125600    261.74488   -8746.8972    38.230377   -8785.1276   -5542.7139 
  125800    341.07141   -8744.0599    49.816786   -8793.8767    12822.432 
  126000    367.77733   -8726.8486    53.717444    -8780.566   -6665.3087 
  126200    299.82001   -8743.4031    43.791618   -8787.1947    29584.618 
  126400    289.57682    -8747.361    42.295502   -8789.6565    -17229.61 
  126600    362.18258   -8730.3423    52.900276   -8783.2426     2525.435 
  126800    304.50274   -8736.6359    44.475576   -8781.1115    8297.2864 
  127000    282.36154   -8745.8806     41.24164   -8787.1222   -16168.635 
  127200    234.31748   -8755.0958    34.224339   -8789.3201    105.32592 
  127400    328.60016   -8737.5637    47.995239   -8785.5589   -35859.987 
  127600    291.65015   -8748.4132    42.598331   -8791.0116   -37795.606 
  127800    255.90164   -8747.9194    37.376914   -8785.2964    22950.561 
  128000    320.10728   -8732.8182    46.754771   -8779.5729   -40033.157 
  128200    286.68691   -8746.9096    41.873402    -8788.783    -8007.381 
  128400    298.40143   -8742.4266    43.584421    -8786.011   -16506.016 
  128600     357.9825   -8725.1433    52.286814   -8777.4301    32187.308 
  128800    335.97402   -8743.2636    49.072261   -8792.3358    4409.1526 
  129000    278.90682   -8750.1546    40.737044   -8790.8917    1595.6039 
  129200    388.67783   -8729.1069    56.770165   -8785.8771   -2808.8496 
  129400     329.3596   -8745.4417    48.106162   -8793.5479     4436.508 
  129600    274.93258   -8753.3796    40.156568   -8793.5362   -20414.004 
  129800    308.09908    -8733.134    45.000858   -8778.1348    470.44411 
  130000    235.78793   -8747.1924    34.439112   -8781.6315     32870.92 
  130200    306.88687   -8746.7723    44.823802   -8791.5961    9452.0735 
  130400    308.80417    -8724.617    45.103842   -8769.7209    3095.2789 
  130600    353.17567   -8735.5505    51.584729   -8787.1352   -5410.4791 
  130800    264.01888   -8746.1169    38.562517   -8784.6794     -27926.6 
  131000    348.23119   -8734.7164    50.862541    -8785.579    12507.231 
  131200    252.11264   -8752.6963    36.823495   -8789.5198    33124.451 
  131400    252.51647   -8743.2941    36.882478   -8780.1766   -11757.107 
  131600     297.4297   -8743.2065    43.442491    -8786.649    26072.396 
  131800    292.40538   -8757.1412     42.70864   -8799.8498   -19626.245 
  132000    350.14691   -8740.5192     51.14235   -8791.6616   -3673.4396 
  132200     367.9535   -8741.2025    53.743175   -8794.9457   -35773.149 
  132400    253.80421   -8757.2275    37.070565   -8794.2981    7031.0178 
  132600    266.93968   -8752.9139    38.989127   -8791.9031     3002.693 
  132800    293.73521   -8740.8143    42.902874   -8783.7172    6643.3521 
  133000    256.12775   -8748.7306     37.40994   -8786.1406    39598.361 
  133200    306.36449   -8739.7317    44.747503   -8784.4792   -27212.924 
  133400    329.44815   -8740.4597    48.119095   -8788.5788    17075.801 
  133600    270.63654   -8752.3411     39.52909   -8791.8702   -11424.222 
  133800    233.26468    -8765.492    34.070567   -8799.5626     11618.94 
  134000    294.24738   -8748.9625    42.977682   -8791.9402   -3705.7937 
  134200     323.2185   -8736.5625    47.209194   -8783.7716    14718.486 
  134400    305.24312   -8748.6294    44.583716   -8793.2131   -22240.708 
  134600    294.11811   -8744.6664      42.9588   -8787.6252    237.80028 
  134800     347.3755   -8737.0906    50.737558   -8787.8281   -38304.344 
  135000    287.01087   -8755.6851    41.920719   -8797.6058   -14430.882 
  135200    280.00797   -8747.5829    40.897878   -8788.4808    18100.687 
  135400    281.02442   -8740.4689    41.046341   -8781.5152    19743.391 
  135600    298.94685    -8745.904    43.664085   -8789.5681   -4281.1437 
  135800    354.96702     -8738.18    51.846373   -8790.0264     4344.513 
  136000    286.20158   -8751.4746    41.802515   -8793.2771    3465.8942 
  136200    325.96341   -8738.9063    47.610115   -8786.5164    4639.5817 
  136400    232.36896   -8748.0189    33.939739   -8781.9587    42316.606 
  136600    340.11104   -8749.5561    49.676514   -8799.2327    6446.6889 
  136800    304.11835   -8735.8156    44.419432   -8780.2351   -6489.8115 
  137000    288.16566   -8746.9189    42.089387   -8789.0083    29388.146 
  137200    297.76123   -8752.7676    43.490913   -8796.2585    33885.187 
  137400     282.2569   -8743.1342    41.226356   -8784.3605    20935.694 
  137600    350.45305   -8738.9873    51.187064   -8790.1743   -10917.904 
  137800    265.51803   -8746.2314    38.781482   -8785.0129    16994.541 
  138000    386.75137   -8730.6933    56.488786    -8787.182    27304.181 
  138200    274.19501   -8752.0573    40.048839   -8792.1061    393.75724 
  138400    302.47504   -8745.5601    44.179411   -8789.7395    23510.031 
  138600    304.52786   -8731.5823    44.479246   -8776.0616    7052.1503 
  138800    260.99295   -8746.8912     38.12055   -8785.0117    6121.4299 
  139000    321.64794   -8744.8155      46.9798   -8791.7953    32364.202 
  139200    288.90823   -8747.1195    42.197848   -8789.3174   -2522.0777 
  139400    274.55823    -8740.499    40.101891   -8780.6009   -37638.911 
  139600    255.31702   -8740.4198    37.291526   -8777.7113    3519.6622 
  139800     297.7047   -8755.6148    43.482657   -8799.0974    14589.752 
  140000    294.25694   -8746.1524    42.979078   -8789.1314    -6035.641 
  140200    280.18272   -8743.9655    40.923402   -8784.8889   -11087.037 
  140400    367.77396   -8733.1241    53.716952    -8786.841   -493.24579 
  140600    248.40395   -8747.8445    36.281805   -8784.1263    11366.518 
  140800    290.50882    -8745.609     42.43163   -8788.0406   -6408.0212 
  141000    300.84726   -8739.8655    43.941658   -8783.8072   -11397.107 
  141200    334.13356   -8734.5184    48.803445   -8783.3219    7504.0815 
  141400    291.95692   -8749.5584    42.643138   -8792.2015    43723.777 
  141600    293.54347   -8744.4124    42.874869   -8787.2873   -6103.5032 
  141800    334.78295   -8729.5851    48.898295   -8778.4834   -22684.588 
  142000    269.98186   -8747.6665    39.433468   -8787.0999    20936.669 
  142200    343.38934    -8737.657    50.155342   -8787.8124    4178.7613 
  142400    244.24926   -8754.5373    35.674972   -8790.2123   -51280.469 
  142600    314.54241   -8745.3245    45.941968   -8791.2665    23624.169 
  142800    294.60318   -8747.2885     43.02965   -8790.3182   -19421.677 
  143000    318.99393   -8732.1398    46.592155   -8778.7319   -8191.3473 
  143200    228.15803   -8749.8671    33.324692   -8783.1918   -19903.087 
  143400    295.55795   -8738.9339    43.169103    -8782.103    25321.358 
  143600    258.24512   -8756.6961    37.719202   -8794.4153    4553.9571 
  143800    295.58766   -8745.4892    43.173443   -8788.6627    46450.123 
  144000    316.36927    -8744.927    46.208798   -8791.1358    1688.8087 
  144200    251.18491   -8759.3024    36.687991   -8795.9904    933.86988 
  144400    281.62118   -8741.8127    41.133503   -8782.9462   -23937.444 
  144600    285.30348   -8739.2264    41.671338   -8780.8978    15144.704 
  144800    286.47719   -8755.5544     41.84277   -8797.3972   -35494.011 
  145000     255.3907   -8751.9066    37.302288   -8789.2089    28707.001 
  145200    309.34879   -8743.3675    45.183389   -8788.5509   -2878.9815 
  145400     327.7865   -8745.6554    47.876395   -8793.5318   -29790.303 
  145600    263.89687   -8755.4876    38.544695   -8794.0323    20770.899 
  145800    305.21934   -8735.6274    44.580244   -8780.2076    3858.5218 
  146000     284.1233   -8747.8386    41.498962   -8789.3375    -24728.06 
  146200    292.82477   -8742.1118    42.769897   -8784.8817    1464.0617 
  146400    337.75876   -8738.5722     49.33294   -8787.9052    11294.847 
  146600    284.91568   -8750.0861    41.614697   -8791.7008    47486.053 
  146800    269.83185   -8747.3078    39.411556   -8786.7193   -22709.763 
  147000    323.47257   -8739.5902    47.246305   -8786.8365   -10490.509 
  147200    230.87066   -8753.2079    33.720898   -8786.9288    42567.653 
  147400    305.50679   -8748.3826    44.622227   -8793.0048    7515.9322 
  147600    276.48457   -8745.0994    40.383251   -8785.4826   -15146.041 
  147800     328.5963   -8742.6211    47.994675   -8790.6158   -3937.2062 
  148000    320.12999   -8742.0185    46.758088   -8788.7765    9591.8684 
  148200    342.77399   -8740.8274    50.065464   -8790.8928   -10021.863 
  148400    262.30629   -8749.0843    38.312376   -8787.3967   -8214.2972 
  148600        279.1   -8749.5067     40.76526   -8790.2719    48912.346 
  148800    344.99746    -8731.347    50.390222   -8781.7372    2191.1731 
  149000    284.97719   -8745.2739    41.623681   -8786.8976   -32312.029 
  149200    348.33549   -8743.1899    50.877775   -8794.0677   -117.37415 
  149400    312.23039   -8727.9162    45.604274   -8773.5204    23928.238 
  149600    328.89744   -8745.8791    48.038659   -8793.9178   -12683.196 
  149800    279.96815   -8749.9442    40.892061   -8790.8362   -4651.7746 
  150000    355.65301   -8733.9801    51.946569   -8785.9267   -32771.882 
  150200    309.64212   -8744.0943    45.226232   -8789.3206    45800.565 
  150400    289.07477    -8750.169    42.222172   -8792.3912    26461.775 
  150600     352.3946   -8733.8163    51.470647    -8785.287    37776.171 
  150800     304.7962   -8740.1886    44.518439   -8784.7071    -5643.528 
  151000    310.04342   -8745.7261    45.284846   -8791.0109   -24826.579 
  151200    253.95382   -8751.6444    37.092416   -8788.7368   -3012.2359 
  151400    364.80597   -8734.3877    53.283448   -8787.6712   -14661.326 
  151600     263.1128   -8746.1587    38.430175   -8784.5889    8662.9367 
  151800     256.7913   -8761.1784    37.506858   -8798.6852    9490.6193 
  152000    244.54717   -8749.3544    35.718484   -8785.0728   -7193.7942 
  152200    283.32927   -8744.4934    41.382987   -8785.8764   -26144.386 
  152400    271.16508   -8750.4789    39.606288   -8790.0852    29677.663 
  152600    313.57507   -8735.5845    45.800679   -8781.3852   -24990.823 
  152800    272.19578   -8752.9511    39.756833   -8792.7079   -8907.5456 
  153000    226.89681   -8749.1371    33.140478   -8782.2776   -16849.096 
  153200    322.80975    -8740.565    47.149494   -8787.7145    18691.692 
  153400    290.96938   -8746.5177    42.498899   -8789.0166   -11089.112 
  153600    323.89789   -8751.7007    47.308426   -8799.0091   -16595.541 
  153800    334.34976   -8732.5514    48.835024   -8781.3864   -5126.9179 
  154000    334.14563   -8736.0491    48.805209   -8784.8543   -21878.773 
  154200     299.2802   -8744.5763    43.712774   -8788.2891    37037.793 
  154400    310.49573   -8740.2142    45.350911   -8785.5651   -6786.7789 
  154600      400.055   -8725.7997     58.43191   -8784.2316    8444.8363 
  154800    305.45626   -8749.3434    44.614847   -8793.9583    28294.076 
  155000    310.07054   -8751.5633    45.288808   -8796.8521   -4924.6836 
  155200    314.63191   -8738.2177     45.95504   -8784.1727    8936.5437 
  155400    267.97493   -8751.9135    39.140336   -8791.0538    10465.635 
  155600     263.8989   -8740.4292    38.544992   -8778.9742    -6544.449 
  155800     338.6619   -8737.5939    49.464853   -8787.0588    21726.169 
  156000    293.60255   -8754.8994    42.883498   -8797.7829   -6885.2503 
  156200    345.67859   -8739.2836    50.489708   -8789.7733    30100.497 
  156400    307.85827   -8738.8308    44.965685   -8783.7965   -19591.914 
  156600    231.06245   -8746.0812     33.74891   -8779.8301   -20379.916 
  156800    302.42723   -8737.8829    44.172428   -8782.0553   -28837.177 
  157000    218.15229    -8755.251    31.863257   -8787.1142     10887.07 
  157200     305.6046   -8743.5185    44.636514    -8788.155    3822.1319 
  157400    278.06285   -8747.5557    40.613774   -8788.1694     28574.77 
  157600    241.04493   -8761.0036    35.206949   -8796.2106    1009.8692 
  157800    246.37638   -8744.6215    35.985659   -8780.6072   -14219.382 
  158000    313.73339   -8740.6951    45.823803   -8786.5189   -28639.228 
  158200    313.56652    -8748.697    45.799429   -8794.4965   -27346.736 
  158400    294.64953   -8740.5674     43.03642   -8783.6038   -27355.126 
  158600    286.85874   -8739.0555    41.898499    -8780.954     22750.26 
  158800    273.03786   -8752.9462    39.879826    -8792.826    2428.2636 
  159000    266.40466   -8748.9506    38.910983   -8787.8615     22070.69 
  159200    311.44975   -8737.3922    45.490254   -8782.8824   -1615.4502 
  159400    288.43727   -8750.5636    42.129059   -8792.6927    1956.2333 
  159600    249.02305   -8758.6712    36.372231   -8795.0434    3744.4853 
  159800    325.17433   -8738.3729    47.494863   -8785.8677    10302.387 
  160000    303.70334   -8747.5641    44.358816    -8791.923    1936.3489 
  160200    268.66499   -8750.7205    39.241127   -8789.9617   -2116.6209 
  160400    323.33419   -8732.3031    47.226092   -8779.5292    -20554.56 
  160600    299.98882   -8747.3529    43.816275   -8791.1691    12816.298 
  160800    291.53137   -8744.2969    42.580982   -8786.8779   -51566.435 
  161000    351.13418    -8730.247     51.28655   -8781.5336   -2556.0928 
  161200    232.35893   -8748.9791    33.938274   -8782.9174    11860.945 
  161400    284.54292   -8740.5927    41.560252    -8782.153   -2626.1119 
  161600    285.76424   -8737.8807    41.738637   -8779.6194   -40901.605 
  161800    309.80139   -8743.0961    45.249496   -8788.3456    12890.707 
  162000    316.08689   -8748.2576    46.167553   -8794.4252   -3222.4484 
  162200    370.76536   -8734.0964    54.153874   -8788.2503    788.91843 
  162400    282.23168   -8749.7553    41.222673    -8790.978    26564.814 
  162600    312.77264   -8746.6481    45.683475   -8792.3316    8815.1488 
  162800    346.89202   -8739.4418    50.666942   -8790.1088   -16333.562 
  163000    246.13949   -8751.4311    35.951058   -8787.3822   -1519.9052 
  163200    286.28272   -8750.0623    41.814366   -8791.8767    24603.581 
  163400    290.45144   -8739.1624    42.423248   -8781.5856   -10976.919 
  163600    311.27066   -8743.8142    45.464096   -8789.2783   -938.46357 
  163800    323.69651   -8746.1886    47.279012   -8793.4676    -12869.96 
  164000    319.00425   -8748.7185    46.593662   -8795.3122    76972.284 
  164200     334.7894   -8730.8575    48.899237   -8779.7568   -20020.838 
  164400    343.16744   -8745.4717    50.122931   -8795.5946    17152.133 
  164600    292.96214   -8743.1862     42.78996   -8785.9761   -9887.8694 
  164800    329.86765   -8737.5632    48.180368   -8785.7436    32805.363 
  165000    287.65695   -8744.6167    42.015086   -8786.6318    1686.9898 
  165200    335.10016   -8753.0919    48.944626   -8802.0366    -20107.72 
  165400    353.76412   -8733.8335    51.670678   -8785.5042   -27095.187 
  165600    293.83146   -8746.9525    42.916933   -8789.8694   -5362.3952 
  165800    289.84976   -8746.0209    42.335366   -8788.3562    39483.795 
  166000    372.52186   -8723.3028    54.410428   -8777.7132    3204.7813 
  166200    287.74256   -8733.2213     42.02759   -8775.2489    40503.457 
  166400    308.25785   -8749.6195    45.024046   -8794.6435   -33835.893 
  166600     303.3912   -8750.0641    44.313226   -8794.3773     2085.837 
  166800    325.44206   -8734.5296    47.533967   -8782.0635    15011.782 
  167000    268.11826   -8750.0918     39.16127    -8789.253    6569.1811 
  167200    366.02053   -8736.5468    53.460846   -8790.0076    1114.4071 
  167400    310.07511   -8735.1986    45.289475   -8780.4881    33929.955 
  167600    296.49798   -8748.1676    43.306404    -8791.474   -21117.158 
  167800    293.86934   -8749.4102    42.922465   -8792.3327    31431.366 
  168000    330.86456   -8736.3549    48.325976   -8784.6809   -11374.399 
  168200    275.22709    -8749.681    40.199585   -8789.8805   -1501.2827 
  168400    315.67051    -8738.091    46.106738   -8784.1978   -31217.518 
  168600    320.20163   -8730.7464    46.768552    -8777.515    41868.794 
  168800     329.5357   -8745.7806    48.131883   -8793.9125    41666.958 
  169000    305.08237   -8747.6976    44.560237   -8792.2578    8692.3225 
  169200    302.66305   -8748.7457    44.206872   -8792.9525    32513.459 
  169400    318.69991   -8746.9712    46.549211   -8793.5204    27547.468 
  169600    315.26264   -8732.6391    46.047164   -8778.6863    20611.301 
  169800    285.56533    -8736.185    41.709584   -8777.8946   -26946.608 
  170000    298.33694   -8745.8091    43.575001   -8789.3841    5035.9109 
  170200    351.24133   -8733.2939    51.302201   -8784.5961   -28608.729 
  170400    290.70037   -8740.5624    42.459606    -8783.022    -20963.63 
  170600    282.01975   -8753.0495    41.191718   -8794.2412   -34412.448 
  170800    343.55109   -8738.1101    50.178967    -8788.289   -14857.892 
  171000    300.23442   -8741.9953    43.852148   -8785.8474    47616.787 
  171200    320.34966   -8744.7991    46.790173   -8791.5892    9307.4001 
  171400    268.92321   -8759.4352    39.278842    -8798.714    10608.885 
  171600    338.29058   -8745.0573    49.410619   -8794.4679   -31227.179 
  171800     311.5904    -8743.911    45.510798   -8789.4218    5860.4767 
  172000    278.72727   -8756.9932    40.710819    -8797.704   -28564.778 
  172200    320.64055   -8747.4097     46.83266   -8794.2423    -28566.89 
  172400    299.95432   -8739.3591    43.811236   -8783.1703   -25776.574 
  172600    241.05994   -8753.2417     35.20914   -8788.4509     15721.54 
  172800    303.52019   -8748.6816    44.332065   -8793.0137     26201.28 
  173000    258.77743   -8747.1385    37.796952   -8784.9354   -27500.491 
  173200    315.07468   -8737.6624    46.019712   -8783.6822   -35027.825 
  173400    268.77307   -8747.4073    39.256913   -8786.6642    15153.383 
  173600    220.98268    -8755.036    32.276663   -8787.3126   -1353.4464 
  173800    305.95521   -8736.2047    44.687725   -8780.8924    54596.994 
  174000    295.51103   -8749.2987     43.16225   -8792.4609    6721.4135 
  174200    285.55882   -8750.8526    41.708633   -8792.5613    6613.4578 
  174400    304.18041   -8745.9326    44.428497   -8790.3611    19416.141 
  174600    317.74854   -8743.8457    46.410255    -8790.256    14507.084 
  174800      245.108   -8757.3675    35.800399   -8793.1679    28076.918 
  175000    304.57334   -8745.5461    44.485888   -8790.0319   -18539.968 
  175200    305.57967   -8742.3632    44.632872   -8786.9961    10613.551 
  175400    275.35412   -8755.6301    40.218138   -8795.8483    13375.878 
  175600    292.28468   -8751.4016     42.69101   -8794.0926    20297.576 
  175800    310.32047    -8742.749    45.325312   -8788.0743   -22957.069 
  176000    340.46173   -8740.7113    49.727735   -8790.4391    16216.505 
  176200    255.47927   -8752.3393    37.315224   -8789.6545   -13741.681 
  176400    331.89368   -8740.2885    48.476289   -8788.7648       -10087 
  176600    311.37562   -8736.3636    45.479427    -8781.843   -5571.7752 
  176800    311.26901   -8748.8033    45.463855   -8794.2671    5277.6117 
  177000     354.4032   -8744.1436    51.764022   -8795.9076    17662.703 
  177200    355.32362     -8734.98    51.898458   -8786.8784   -1081.0671 
  177400    253.02212    -8748.097    36.956333   -8785.0533    -33277.52 
  177600    269.95973   -8749.8306    39.430235   -8789.2608   -27094.659 
  177800    321.75496   -8738.2729     46.99543   -8785.2683    2656.2685 
  178000    299.56927   -8742.7332    43.754995   -8786.4882   -15929.963 
  178200    289.97281   -8752.0859     42.35334   -8794.4393    16084.327 
  178400    269.56552   -8754.5675    39.372656   -8793.9401    1899.8594 
  178600    319.31613   -8738.3962    46.639215   -8785.0355    2264.9988 
  178800    277.25395   -8751.1037    40.495627   -8791.5993   -8195.5517 
  179000    220.94671   -8751.2859    32.271409   -8783.5573    1403.5995 
  179200    311.93073   -8739.0425    45.560507    -8784.603    10076.341 
  179400    308.98169   -8750.3854    45.129771   -8795.5152    18135.502 
[...]
  950000    270.77841   -8752.7829    39.549811   -8792.3327   -1443.6156 
  950200    303.40226   -8746.7946     44.31484   -8791.1094    13221.578 
  950400    334.66944   -8739.7652    48.881716   -8788.6469      2282.96 
  950600    266.50032   -8743.7116    38.924954   -8782.6366   -4287.4527 
  950800    265.62698   -8748.6577    38.797396   -8787.4551   -21724.946 
  951000    385.56878   -8726.8188    56.316057   -8783.1349    11778.395 
  951200     308.2151    -8742.535    45.017803   -8787.5528   -17388.914 
  951400    342.08145   -8744.5439    49.964312   -8794.5082   -979.59761 
  951600    279.59387   -8751.5518    40.837394   -8792.3892   -46331.982 
  951800    313.79327   -8738.2675    45.832549   -8784.1001    12015.495 
  952000    305.67959   -8741.0249    44.647467   -8785.6724     741.9998 
  952200    288.64869   -8752.8098    42.159938   -8794.9698    22105.792 
  952400    334.48565   -8734.9041    48.854872    -8783.759    4648.6579 
  952600    310.35201   -8737.2164    45.329919   -8782.5463    10291.833 
  952800    250.16951   -8753.3209    36.539682   -8789.8605    7351.2675 
  953000    290.91994   -8742.4681    42.491677   -8784.9598   -7301.9886 
  953200    295.60745   -8742.5933    43.176334   -8785.7697    7562.0978 
  953400     249.8211    -8760.352    36.488793   -8796.8408    14407.009 
  953600    293.59685   -8743.5593    42.882665    -8786.442    17925.731 
  953800    307.23095   -8736.9872    44.874058   -8781.8613   -30742.513 
  954000    242.44476   -8748.1882    35.411407   -8783.5996    27329.295 
  954200    285.65545   -8754.0083    41.722747    -8795.731    25067.393 
  954400    341.74068   -8737.4647    49.914539   -8787.3793   -36134.253 
  954600    281.57031   -8741.0919    41.126073    -8782.218   -29410.976 
  954800    251.06301   -8761.6432    36.670186   -8798.3134    28751.587 
  955000    250.57341   -8756.1229    36.598675   -8792.7216    13620.311 
  955200    303.44588   -8740.9908    44.321211    -8785.312   -5789.0991 
  955400    321.99801    -8747.693     47.03093   -8794.7239    5777.0185 
  955600    246.06882    -8758.096    35.940736   -8794.0367   -18412.303 
  955800    305.19075   -8739.6066    44.576068   -8784.1827    3541.7825 
  956000    327.26634   -8738.3731    47.800421   -8786.1735   -22722.367 
  956200    279.83333   -8752.0923    40.872371   -8792.9647   -27311.478 
  956400    322.20333   -8741.9434     47.06092   -8789.0044   -43353.029 
  956600    317.87413   -8737.3072    46.428597   -8783.7358   -42680.962 
  956800    310.28167   -8746.6245    45.319645   -8791.9442   -34026.928 
  957000    291.62763    -8744.604    42.595041   -8787.1991   -29454.906 
  957200    351.46927   -8719.8558    51.335493   -8771.1913      13514.1 
  957400    295.10339   -8733.8353     43.10271    -8776.938    1519.4624 
  957600     314.5346   -8750.3973    45.940827   -8796.3381   -13972.422 
  957800     312.1508   -8743.3894    45.592651   -8788.9821   -2404.9287 
  958000    355.20681   -8736.5634    51.881397   -8788.4448    8279.1206 
  958200    316.70305   -8745.6784     46.25755   -8791.9359   -14126.624 
  958400    345.76577   -8733.6684    50.502441   -8784.1709   -8494.0079 
  958600    320.01227   -8733.6865    46.740894   -8780.4274   -9175.9323 
  958800    322.58071   -8743.1137     47.11604   -8790.2297    12192.251 
  959000    278.00214   -8750.6924    40.604908   -8791.2973   -9639.0441 
  959200    235.48515   -8755.2284    34.394889   -8789.6233    31250.185 
  959400    304.51989   -8738.0799    44.478082    -8782.558    1302.2105 
  959600    297.26078   -8748.0119    43.417819   -8791.4297    50979.679 
  959800    337.39954   -8750.0973    49.280472   -8799.3778   -20231.368 
  960000    306.26157   -8743.3032     44.73247   -8788.0356    22989.063 
  960200    309.36262   -8741.4975    45.185409   -8786.6829    11447.191 
  960400    245.73345   -8756.3687    35.891752   -8792.2604    4687.6478 
  960600    296.74699   -8745.2922    43.342774    -8788.635     22930.23 
  960800    299.45117   -8742.9965    43.737746   -8786.7343   -9510.9194 
  961000    391.95672   -8728.9465    57.249079   -8786.1956    4935.8748 
  961200    294.47436   -8741.4738    43.010835   -8784.4847   -19133.161 
  961400    309.32349   -8744.9149    45.179694   -8790.0946    3746.1873 
  961600    287.45247   -8749.2138    41.985219    -8791.199    550.62192 
  961800    281.38708    -8755.448    41.099311   -8796.5473   -16594.518 
  962000    327.09672   -8734.8589    47.775646   -8782.6346   -18027.242 
  962200    332.71703   -8742.7781    48.596548   -8791.3747    13385.621 
  962400    284.57238   -8751.2088    41.564554   -8792.7734   -12774.627 
  962600    287.77438   -8747.5307    42.032238   -8789.5629    -11655.26 
  962800    325.27816   -8735.5998    47.510029   -8783.1098    17468.797 
  963000    249.07432   -8754.9868    36.379718   -8791.3665    14606.657 
  963200    300.83366   -8741.5138    43.939672   -8785.4534    9899.7858 
  963400    209.80788   -8742.2425    30.644475   -8772.8869   -19649.428 
  963600    250.95786   -8758.9212    36.654828    -8795.576   -16353.998 
  963800    316.41308   -8747.7112    46.215197   -8793.9264   -14201.331 
  964000    337.46549   -8739.1196    49.290106   -8788.4097    9743.3579 
  964200    291.34345   -8746.3193    42.553535   -8788.8728    54798.952 
  964400    308.59822   -8749.4786    45.073761   -8794.5524   -30663.909 
  964600    289.39391    -8730.765    42.268785   -8773.0338    -18647.08 
  964800    345.06729   -8736.7023    50.400422   -8787.1028   -8144.7599 
  965000    293.70442   -8745.4944    42.898377   -8788.3928    15304.652 
  965200    298.94848   -8743.9732    43.664323   -8787.6375    9905.3186 
  965400    370.94153   -8727.1405    54.179606   -8781.3201    26046.363 
  965600     270.0768   -8744.6042    39.447334   -8784.0515    15566.384 
  965800    280.28987   -8745.1126    40.939052   -8786.0517    30388.594 
  966000    333.77736   -8727.9982    48.751419   -8776.7496    8999.4799 
  966200    279.10786   -8741.7873    40.766408   -8782.5537    21769.411 
  966400    297.81501   -8745.3398    43.498769   -8788.8385    -21570.57 
  966600    226.96328   -8759.5301    33.150187   -8792.6803   -27055.486 
  966800    287.52061   -8743.7267    41.995172   -8785.7219    28719.502 
  967000    300.09963   -8742.0055     43.83246    -8785.838    500.19619 
  967200    267.92212   -8754.9791    39.132623   -8794.1117   -39748.451 
  967400    320.02788   -8745.4214    46.743173   -8792.1645    -4604.963 
  967600    289.27291   -8743.2855    42.251112   -8785.5366    12281.429 
  967800    316.59255   -8738.5039     46.24141   -8784.7453    11154.449 
  968000    260.01782   -8754.5826    37.978123   -8792.5608    15365.751 
  968200       320.28   -8741.8857    46.779999   -8788.6657    6743.4888 
  968400    302.24611   -8741.4173    44.145974   -8785.5633   -22841.618 
  968600     309.9004   -8746.5677    45.263958   -8791.8316    13002.519 
  968800    313.70062   -8739.2836    45.819016   -8785.1027   -9428.0162 
  969000    251.04715   -8747.4491     36.66787   -8784.1169    9092.2765 
  969200    267.40196   -8756.7155    39.056647   -8795.7721   -1828.8932 
  969400     332.7768   -8742.1185    48.605276   -8790.7238   -1578.5416 
  969600    317.29006   -8737.4035    46.343289   -8783.7467    1167.9257 
  969800     264.4354   -8755.4808    38.623353   -8794.1042   -2342.9576 
  970000    279.31749   -8751.7719    40.797027    -8792.569    32335.267 
  970200    350.68803   -8741.1843    51.221385   -8792.4057    2706.4728 
  970400    246.89326   -8751.9247    36.061154   -8787.9858    10600.498 
  970600    302.94051   -8751.7362    44.247397   -8795.9836   -15273.173 
  970800    297.07344   -8738.9841    43.390455   -8782.3745    25701.082 
  971000    261.49903   -8746.9038    38.194467   -8785.0983    2732.0065 
  971200    228.30277   -8751.5294    33.345832   -8784.8753    17350.276 
  971400    361.51471    -8736.378    52.802727   -8789.1807   -24298.425 
  971600    307.14665    -8749.688    44.861745   -8794.5497   -26395.497 
  971800    294.91841   -8742.5628    43.075693   -8785.6384    23455.924 
  972000    343.34669   -8729.9152    50.149112   -8780.0644   -30595.724 
  972200    298.48703   -8746.1921    43.596923    -8789.789   -7515.4318 
  972400    325.41936   -8745.9324    47.530651    -8793.463   -23334.848 
  972600    340.38541   -8735.1284    49.716588   -8784.8449    24969.769 
  972800    291.95056   -8737.3081    42.642209   -8779.9503   -15121.235 
  973000    304.71976   -8749.7599    44.507275   -8794.2672    33149.126 
  973200    324.92657   -8737.2801    47.458676   -8784.7387    3274.2189 
  973400    320.72032   -8744.9084    46.844311   -8791.7527   -17878.159 
  973600    277.02793   -8749.5293    40.462614   -8789.9919    40350.512 
  973800    344.07513   -8734.7755    50.255508    -8785.031     11736.51 
  974000    304.45033   -8746.1931    44.467922    -8790.661    -9918.028 
  974200    232.04723   -8769.9771    33.892747   -8803.8699    16700.728 
  974400    245.86922   -8757.8077    35.911583   -8793.7193    10576.729 
  974600    343.71639   -8739.8463     50.20311   -8790.0495    6619.3424 
  974800    294.99192    -8739.377    43.086428   -8782.4634    3379.8455 
  975000    269.21366   -8756.5181    39.321264   -8795.8394    4841.6747 
  975200     298.5229   -8745.0238    43.602163    -8788.626   -6927.5293 
  975400    342.09954   -8742.2936    49.966954   -8792.2606     6032.483 
  975600    284.22654   -8754.0513    41.514041   -8795.5654   -27859.947 
  975800    364.26013   -8734.5127    53.203723   -8787.7165    9830.4837 
  976000    238.72879   -8745.4663    34.868654   -8780.3349   -14037.526 
  976200    328.48258   -8746.6127    47.978064   -8794.5907   -12807.748 
  976400    302.74743   -8744.3921    44.219197   -8788.6113   -46223.371 
  976600     313.6094   -8743.4739    45.805693   -8789.2796   -1343.4435 
  976800    269.88049   -8752.7278    39.418662   -8792.1464    30460.974 
  977000    299.84062   -8748.4661    43.794629   -8792.2608    12217.711 
  977200    345.06628   -8736.2027    50.400275    -8786.603   -6645.7721 
  977400    260.93668   -8752.8474    38.112332   -8790.9597   -14797.664 
  977600    315.29932   -8751.3874    46.052522   -8797.4399   -20039.386 
  977800    390.19258   -8734.0158    56.991409   -8791.0073    4446.7338 
  978000    278.96827   -8750.0419     40.74602   -8790.7879     11303.41 
  978200    304.97903   -8750.2522    44.545143   -8794.7974    1958.8832 
  978400    342.30833    -8731.053    49.997449   -8781.0504     42502.01 
  978600    325.18591   -8740.4753    47.496554   -8787.9718    -22356.28 
  978800    257.45192   -8751.0097    37.603348    -8788.613    927.24313 
  979000    300.00537   -8741.1882    43.818692   -8785.0069   -16776.643 
  979200    319.32549   -8728.0165    46.640583   -8774.6571    10823.631 
  979400    324.53014   -8742.3159    47.400772   -8789.7167    36820.181 
  979600    277.25426   -8747.2172    40.495672   -8787.7129   -16683.133 
  979800    365.30082   -8736.0786    53.355726   -8789.4343    24430.389 
  980000     275.7554   -8754.5627     40.27675   -8794.8395    3186.7072 
  980200    252.46371   -8748.8488    36.874772   -8785.7236   -14715.756 
  980400    323.09061   -8741.5451    47.190516   -8788.7356    1387.1599 
  980600    279.57289   -8752.3516     40.83433    -8793.186    25902.038 
  980800    342.02786   -8733.8761    49.956484   -8783.8326    38965.126 
  981000    264.63953    -8742.233    38.653168   -8780.8862    9686.9638 
  981200    266.47428   -8754.8966    38.921151   -8793.8178   -9069.5352 
  981400    231.33267   -8756.7884    33.788379   -8790.5767   -4195.8203 
  981600    262.63881   -8745.1737    38.360944   -8783.5347   -2257.0454 
  981800    290.39968   -8745.7888    42.415688   -8788.2045   -23292.544 
  982000    322.49975   -8737.2433    47.104215   -8784.3476   -5141.3104 
  982200    263.71417   -8752.1266    38.518011   -8790.6446    3060.2523 
  982400    359.82839   -8736.8364    52.556424   -8789.3928    8791.6245 
  982600    342.24686   -8738.1264    49.988471   -8788.1148     30163.66 
  982800    253.65808   -8752.3987    37.049221   -8789.4479   -21112.928 
  983000    319.14993   -8745.9155    46.614941   -8792.5304   -16920.895 
  983200    266.06224   -8743.5645    38.860968   -8782.4255   -10412.583 
  983400    320.35897   -8741.9955    46.791532    -8788.787    1824.1315 
  983600    328.73579   -8732.1134    48.015049   -8780.1284    1502.9301 
  983800    286.29627   -8746.7713    41.816345   -8788.5877   -45300.566 
  984000    298.02548   -8748.7771     43.52951   -8792.3066    8529.9749 
  984200    237.55546   -8761.7903    34.697278   -8796.4876    407.68341 
  984400    271.34442    -8745.526    39.632482   -8785.1585   -5476.4313 
  984600    311.72132   -8740.4566     45.52992   -8785.9865    23756.462 
  984800    303.40467    -8747.064    44.315192   -8791.3792   -18853.307 
  985000     283.3002   -8751.5168     41.37874   -8792.8956   -4003.8449 
  985200    339.06708   -8734.7054    49.524033   -8784.2294    4745.6799 
  985400    348.78563   -8743.0081    50.943521   -8793.9516    30081.362 
  985600    271.55207   -8748.2532    39.662812   -8787.9161    18708.686 
  985800    375.86117    -8733.613    54.898167   -8788.5112    7543.6759 
  986000    287.72656   -8744.3964    42.025254   -8786.4217    1459.0667 
  986200    352.48046    -8747.767    51.483187   -8799.2502    18742.718 
  986400    280.10624   -8747.5189    40.912231   -8788.4312   -20992.882 
  986600    340.40022   -8737.6083    49.718752   -8787.3271     17991.18 
  986800    274.22016   -8750.5621    40.052512   -8790.6147    14462.263 
  987000    269.03979   -8746.2713    39.295868   -8785.5672   -2888.1618 
  987200    347.48336   -8734.4495    50.753313   -8785.2028   -13922.141 
  987400    291.05273   -8744.2691    42.511072   -8786.7801   -32588.326 
  987600    326.87507      -8744.1    47.743272   -8791.8433   -17909.797 
  987800     330.2238   -8735.0931    48.232387   -8783.3255    9647.5726 
  988000    260.27578   -8747.0346    38.015801   -8785.0504   -64408.929 
  988200    268.89918   -8748.8182    39.275332   -8788.0935   -22485.295 
  988400    355.64762   -8732.6403    51.945781   -8784.5861   -42712.547 
  988600    312.03234   -8744.0639    45.575347   -8789.6392   -1223.7759 
  988800    284.21015   -8750.8174    41.511648    -8792.329    18231.012 
  989000    268.60267   -8752.2636    39.232024   -8791.4957    12001.608 
  989200    249.43921   -8738.6031    36.433015   -8775.0361    23743.749 
  989400    336.73365   -8743.6557    49.183213   -8792.8389    29069.387 
  989600    323.26545   -8748.1133    47.216052   -8795.3294   -24689.182 
  989800    359.66175   -8742.2028    52.532085   -8794.7349   -5066.0174 
  990000    323.35508   -8737.4472    47.229143   -8784.6763    3528.4348 
  990200    258.99972   -8746.5638     37.82942   -8784.3932    21119.844 
  990400    299.72252    -8751.244    43.777379   -8795.0213   -16747.806 
  990600    330.91885   -8730.6889    48.333905   -8779.0228   -9824.5101 
  990800    282.11327   -8744.2467    41.205377   -8785.4521   -16698.298 
  991000    248.69417   -8750.0444    36.324195   -8786.3686   -22570.906 
  991200    322.37523   -8736.7859    47.086026   -8783.8719   -21540.939 
  991400    329.92519   -8737.6659    48.188771   -8785.8547   -23376.955 
  991600      249.326   -8755.7168    36.416479   -8792.1333    2599.7874 
  991800    290.91814   -8740.2834    42.491413   -8782.7748    18113.504 
  992000    291.09331   -8742.1796       42.517   -8784.6966    1272.8232 
  992200    317.92611   -8745.5324     46.43619   -8791.9686   -22549.522 
  992400     283.4222   -8751.8805     41.39656   -8793.2771   -10246.335 
  992600    296.79643   -8736.6906    43.349995   -8780.0406   -26816.876 
  992800    322.94108   -8748.4232    47.168675   -8795.5919   -27854.842 
  993000    246.61043   -8747.4382    36.019843    -8783.458    32105.331 
  993200    368.22134    -8739.114    53.782296   -8792.8963   -27165.871 
  993400    294.43199   -8743.0928    43.004646   -8786.0975   -28847.301 
  993600    344.67421   -8739.4358    50.343009   -8789.7788   -30557.235 
  993800    310.33718   -8746.9962    45.327753    -8792.324   -32346.656 
  994000    316.01524   -8746.6922    46.157088   -8792.8493   -13475.375 
  994200    353.22017   -8737.2304    51.591229   -8788.8216   -9190.9336 
  994400    336.97153   -8744.6776    49.217958   -8793.8956    13165.271 
  994600    267.73365   -8750.7187    39.105094   -8789.8238    18153.031 
  994800    321.81027   -8741.3611    47.003509   -8788.3646   -9604.1419 
  995000    285.61994   -8742.6757    41.717561   -8784.3933   -5570.6333 
  995200    274.28748     -8756.56    40.062345   -8796.6224   -34043.096 
  995400    303.12936   -8743.0886    44.274982   -8787.3636    16333.327 
  995600    340.45131   -8740.7727    49.726213   -8790.4989       -23940 
  995800    252.93087   -8758.9541    36.943006   -8795.8971   -51966.426 
  996000    253.58521   -8760.7326    37.038578   -8797.7712    16724.678 
  996200    265.86825   -8756.5076    38.832635   -8795.3402    10045.858 
  996400    286.57847     -8748.37    41.857563   -8790.2276    14253.133 
  996600    322.32062    -8765.411    47.078051    -8812.489   -8408.8476 
  996800    331.43335   -8756.2711    48.409053   -8804.6802    23067.459 
  997000    324.86539   -8753.0806    47.449739   -8800.5304   -17651.501 
  997200    273.42504   -8760.0156    39.936377    -8799.952   -7390.5793 
  997400    347.15995   -8756.3336    50.706076   -8807.0397   -22894.451 
  997600    341.32294   -8757.6201    49.853524   -8807.4736    -2285.209 
  997800    305.16597   -8753.1675    44.572448   -8797.7399    22700.689 
  998000    325.02632   -8746.2364    47.473245   -8793.7096    45412.628 
  998200    280.82478   -8761.0461    41.017181   -8802.0633     41863.52 
  998400    304.84355    -8754.978    44.525355   -8799.5033   -7128.4943 
  998600    348.12348   -8742.2428    50.846808   -8793.0896   -22755.761 
  998800    294.16231   -8764.0576    42.965257   -8807.0228    2794.9993 
  999000    316.04521   -8754.1211    46.161466   -8800.2825     33648.11 
  999200    361.07816   -8754.3859    52.738965   -8807.1249   -8910.6793 
  999400    286.35425   -8764.0246    41.824814   -8805.8494    7251.3435 
  999600    322.72898   -8751.3638    47.137696   -8798.5015    15425.392 
  999800    259.17649   -8769.4514    37.855239   -8807.3067    7180.9959 
 1000000    274.29697   -8762.1173    40.063731   -8802.1811   -24991.489 
Loop time of 2515.31 on 8 procs for 1000000 steps with 50 atoms

Performance: 8.587 ns/day, 2.795 hours/ns, 397.565 timesteps/s
99.5% CPU use with 8 MPI tasks x no OpenMP threads

MPI task timing breakdown:
Section |  min time  |  avg time  |  max time  |%varavg| %total
---------------------------------------------------------------
Pair    | 1942.9     | 1964.1     | 2001.9     |  43.7 | 78.09
Neigh   | 0.46411    | 0.47077    | 0.47788    |   0.7 |  0.02
Comm    | 30.673     | 67.736     | 89.48      | 234.8 |  2.69
Output  | 0.072588   | 0.080205   | 0.11941    |   5.3 |  0.00
Modify  | 480.28     | 480.93     | 481.63     |   2.8 | 19.12
Other   |            | 2.012      |            |       |  0.08

Nlocal:    6.25 ave 8 max 6 min
Histogram: 7 0 0 0 0 0 0 0 0 1
Nghost:    580.375 ave 588 max 572 min
Histogram: 1 1 0 1 0 1 2 0 1 1
Neighs:    812.125 ave 1020 max 773 min
Histogram: 7 0 0 0 0 0 0 0 0 1

Total # of neighbors = 6497
Ave neighs/atom = 129.94
Neighbor list builds = 717
Dangerous builds = 0

Please see the log.cite file for references relevant to this simulation

Total wall time: 0:42:10
