LAMMPS (3 Mar 2020)
Reading data file ...
  orthogonal box = (0 0 0) to (32.808 17.78 2.473)
  4 by 2 by 1 MPI processor grid
  reading atoms ...
  57 atoms
  read_data CPU = 0.0211047 secs
WARNING: Using 'neigh_modify every 1 delay 0 check yes' setting during minimization (../min.cpp:190)
WARNING: Total cutoff < 2*bond cutoff. May need to use an increased neighbor list skin. (../pair_reaxc.cpp:413)
Neighbor list info ...
  update every 1 steps, delay 0 steps, check yes
  max neighbors/atom: 2000, page size: 100000
  master list distance cutoff = 9.5
  ghost atom cutoff = 9.5
  binsize = 4.75, bins = 7 4 1
  2 neighbor lists, perpetual/occasional/extra = 2 0 0
  (1) pair reax/c, perpetual
      attributes: half, newton off, ghost
      pair build: half/bin/newtoff/ghost
      stencil: half/ghost/bin/3d/newtoff
      bin: standard
  (2) fix qeq/reax, perpetual, copy from (1)
      attributes: half, newton off, ghost
      pair build: copy
      stencil: none
      bin: none
Setting up cg style minimization ...
  Unit style    : real
  Current step  : 0
Per MPI rank memory allocation (min/avg/max) = 20.57 | 20.94 | 21.31 Mbytes
Step Temp E_pair E_mol TotEng Press 
       0            0   -11120.864            0   -11120.864    35400.773 
     158            0   -11174.601            0   -11174.601     75914.53 
Loop time of 18.8096 on 8 procs for 158 steps with 57 atoms

98.9% CPU use with 8 MPI tasks x no OpenMP threads

Minimization stats:
  Stopping criterion = energy tolerance
  Energy initial, next-to-last, final = 
        -11120.8639592     -11174.6006498     -11174.6006863
  Force two-norm initial, final = 216.072 7.34922
  Force max component initial, final = 100.783 2.56012
  Final line search alpha, max atom move = 0.00240999 0.00616987
  Iterations, force evaluations = 158 957

MPI task timing breakdown:
Section |  min time  |  avg time  |  max time  |%varavg| %total
---------------------------------------------------------------
Pair    | 15.022     | 15.768     | 16.271     |  11.0 | 83.83
Neigh   | 0          | 0          | 0          |   0.0 |  0.00
Comm    | 0.1906     | 0.69359    | 1.4391     |  52.4 |  3.69
Output  | 0.0012305  | 0.001864   | 0.0027649  |   1.1 |  0.01
Modify  | 2.3098     | 2.3104     | 2.3108     |   0.0 | 12.28
Other   |            | 0.03585    |            |       |  0.19

Nlocal:    7.125 ave 11 max 3 min
Histogram: 1 1 2 0 0 0 0 2 0 2
Nghost:    719.375 ave 745 max 694 min
Histogram: 1 2 1 0 0 0 0 1 2 1
Neighs:    1114.12 ave 1713 max 472 min
Histogram: 1 1 2 0 0 0 0 2 0 2

Total # of neighbors = 8913
Ave neighs/atom = 156.368
Neighbor list builds = 0
Dangerous builds = 0
WARNING: Using 'neigh_modify every 1 delay 0 check yes' setting during minimization (../min.cpp:190)
WARNING: Total cutoff < 2*bond cutoff. May need to use an increased neighbor list skin. (../pair_reaxc.cpp:413)
Setting up cg style minimization ...
  Unit style    : real
  Current step  : 158
Per MPI rank memory allocation (min/avg/max) = 20.57 | 20.94 | 21.31 Mbytes
Step Temp E_pair E_mol TotEng Press 
     158            0   -11174.601            0   -11174.601     75914.53 
     230            0   -11176.719            0   -11176.719    64643.885 
Loop time of 9.13778 on 8 procs for 72 steps with 57 atoms

98.8% CPU use with 8 MPI tasks x no OpenMP threads

Minimization stats:
  Stopping criterion = energy tolerance
  Energy initial, next-to-last, final = 
        -11174.6006863     -11176.7187548     -11176.7188217
  Force two-norm initial, final = 7.34922 18.9675
  Force max component initial, final = 2.56012 8.21107
  Final line search alpha, max atom move = 4.76447e-05 0.000391214
  Iterations, force evaluations = 72 461

MPI task timing breakdown:
Section |  min time  |  avg time  |  max time  |%varavg| %total
---------------------------------------------------------------
Pair    | 7.3259     | 7.64       | 7.8926     |   7.4 | 83.61
Neigh   | 0          | 0          | 0          |   0.0 |  0.00
Comm    | 0.079148   | 0.33105    | 0.64517    |  35.6 |  3.62
Output  | 0.00054742 | 0.00082133 | 0.0012463  |   0.0 |  0.01
Modify  | 1.1492     | 1.1494     | 1.1496     |   0.0 | 12.58
Other   |            | 0.01647    |            |       |  0.18

Nlocal:    7.125 ave 11 max 3 min
Histogram: 1 1 2 0 0 0 0 2 0 2
Nghost:    725.375 ave 747 max 704 min
Histogram: 2 2 0 0 0 0 0 0 2 2
Neighs:    1115.62 ave 1709 max 476 min
Histogram: 1 1 2 0 0 0 0 2 0 2

Total # of neighbors = 8925
Ave neighs/atom = 156.579
Neighbor list builds = 0
Dangerous builds = 0
WARNING: Using 'neigh_modify every 1 delay 0 check yes' setting during minimization (../min.cpp:190)
WARNING: Total cutoff < 2*bond cutoff. May need to use an increased neighbor list skin. (../pair_reaxc.cpp:413)
Setting up cg style minimization ...
  Unit style    : real
  Current step  : 230
WARNING: Energy due to 3 extra global DOFs will be included in minimizer energies
Per MPI rank memory allocation (min/avg/max) = 20.57 | 20.94 | 21.31 Mbytes
Step Temp E_pair E_mol TotEng Press Volume 
     230            0   -11176.719            0   -11176.719    64643.885    1442.5658 
     613            0   -11179.836            0   -11179.836   -424.67241       1445.7 
Loop time of 11.4025 on 8 procs for 383 steps with 57 atoms

98.1% CPU use with 8 MPI tasks x no OpenMP threads

Minimization stats:
  Stopping criterion = energy tolerance
  Energy initial, next-to-last, final = 
        -11176.7188217     -11179.8356641     -11179.8357548
  Force two-norm initial, final = 2512.33 20.4504
  Force max component initial, final = 2072.57 12.3057
  Final line search alpha, max atom move = 8.00704e-06 9.85319e-05
  Iterations, force evaluations = 383 632

MPI task timing breakdown:
Section |  min time  |  avg time  |  max time  |%varavg| %total
---------------------------------------------------------------
Pair    | 9.6049     | 9.9325     | 10.268     |   6.7 | 87.11
Neigh   | 0          | 0          | 0          |   0.0 |  0.00
Comm    | 0.093062   | 0.42753    | 0.75448    |  32.3 |  3.75
Output  | 0.0027725  | 0.0039221  | 0.0057707  |   1.4 |  0.03
Modify  | 0.97922    | 0.97943    | 0.97965    |   0.0 |  8.59
Other   |            | 0.05911    |            |       |  0.52

Nlocal:    7.125 ave 12 max 3 min
Histogram: 2 0 2 0 0 0 2 0 1 1
Nghost:    722.375 ave 747 max 703 min
Histogram: 2 2 0 0 0 1 0 0 2 1
Neighs:    1115 ave 1862 max 476 min
Histogram: 2 0 2 0 0 0 2 0 1 1

Total # of neighbors = 8920
Ave neighs/atom = 156.491
Neighbor list builds = 0
Dangerous builds = 0
WARNING: Using 'neigh_modify every 1 delay 0 check yes' setting during minimization (../min.cpp:190)
WARNING: Total cutoff < 2*bond cutoff. May need to use an increased neighbor list skin. (../pair_reaxc.cpp:413)
Setting up cg style minimization ...
  Unit style    : real
  Current step  : 613
Per MPI rank memory allocation (min/avg/max) = 20.57 | 20.94 | 21.31 Mbytes
Step Temp E_pair E_mol TotEng Press 
     613            0   -11179.836            0   -11179.836   -424.67241 
     677            0   -11180.283            0   -11180.283    34325.056 
Loop time of 8.46314 on 8 procs for 64 steps with 57 atoms

98.9% CPU use with 8 MPI tasks x no OpenMP threads

Minimization stats:
  Stopping criterion = energy tolerance
  Energy initial, next-to-last, final = 
        -11179.8357548     -11180.2831967     -11180.2832209
  Force two-norm initial, final = 11.9349 9.17675
  Force max component initial, final = 4.24603 4.62001
  Final line search alpha, max atom move = 0.0115125 0.0531879
  Iterations, force evaluations = 64 429

MPI task timing breakdown:
Section |  min time  |  avg time  |  max time  |%varavg| %total
---------------------------------------------------------------
Pair    | 6.8212     | 7.1068     | 7.3467     |   6.2 | 83.97
Neigh   | 0          | 0          | 0          |   0.0 |  0.00
Comm    | 0.06167    | 0.30099    | 0.58631    |  29.9 |  3.56
Output  | 0.00043462 | 0.00058571 | 0.00085519 |   0.0 |  0.01
Modify  | 1.0399     | 1.0401     | 1.0403     |   0.0 | 12.29
Other   |            | 0.01468    |            |       |  0.17

Nlocal:    7.125 ave 12 max 3 min
Histogram: 2 0 2 0 0 0 2 0 1 1
Nghost:    722.375 ave 747 max 703 min
Histogram: 2 2 0 0 0 1 0 0 2 1
Neighs:    1112 ave 1859 max 472 min
Histogram: 2 0 2 0 0 0 2 0 1 1

Total # of neighbors = 8896
Ave neighs/atom = 156.07
Neighbor list builds = 0
Dangerous builds = 0
WARNING: Using 'neigh_modify every 1 delay 0 check yes' setting during minimization (../min.cpp:190)
WARNING: Total cutoff < 2*bond cutoff. May need to use an increased neighbor list skin. (../pair_reaxc.cpp:413)
Setting up cg style minimization ...
  Unit style    : real
  Current step  : 677
WARNING: Energy due to 3 extra global DOFs will be included in minimizer energies
Per MPI rank memory allocation (min/avg/max) = 20.57 | 20.94 | 21.31 Mbytes
Step Temp E_pair E_mol TotEng Press Volume 
     677            0   -11180.283            0   -11180.283    34325.056       1445.7 
     774            0   -11180.717            0   -11180.717     587.5867    1447.2396 
Loop time of 3.36555 on 8 procs for 97 steps with 57 atoms

98.9% CPU use with 8 MPI tasks x no OpenMP threads

Minimization stats:
  Stopping criterion = energy tolerance
  Energy initial, next-to-last, final = 
        -11180.2832209     -11180.7173523     -11180.7174322
  Force two-norm initial, final = 1316.34 23.857
  Force max component initial, final = 1050.04 15.4649
  Final line search alpha, max atom move = 1.53971e-05 0.000238115
  Iterations, force evaluations = 97 178

MPI task timing breakdown:
Section |  min time  |  avg time  |  max time  |%varavg| %total
---------------------------------------------------------------
Pair    | 2.8433     | 2.9481     | 3.0485     |   3.7 | 87.60
Neigh   | 0          | 0          | 0          |   0.0 |  0.00
Comm    | 0.018765   | 0.11883    | 0.2235     |  18.4 |  3.53
Output  | 0.0007602  | 0.00099323 | 0.0014175  |   0.0 |  0.03
Modify  | 0.28044    | 0.28052    | 0.28058    |   0.0 |  8.33
Other   |            | 0.01709    |            |       |  0.51

Nlocal:    7.125 ave 12 max 3 min
Histogram: 2 0 2 0 0 0 2 0 1 1
Nghost:    722.375 ave 747 max 703 min
Histogram: 2 2 0 0 0 1 0 0 2 1
Neighs:    1112.25 ave 1860 max 472 min
Histogram: 2 0 2 0 0 0 2 0 1 1

Total # of neighbors = 8898
Ave neighs/atom = 156.105
Neighbor list builds = 0
Dangerous builds = 0
WARNING: Using 'neigh_modify every 1 delay 0 check yes' setting during minimization (../min.cpp:190)
WARNING: Total cutoff < 2*bond cutoff. May need to use an increased neighbor list skin. (../pair_reaxc.cpp:413)
Setting up cg style minimization ...
  Unit style    : real
  Current step  : 774
Per MPI rank memory allocation (min/avg/max) = 20.57 | 20.94 | 21.31 Mbytes
Step Temp E_pair E_mol TotEng Press 
     774            0   -11180.717            0   -11180.717     587.5867 
     787            0   -11180.919            0   -11180.919     32706.67 
Loop time of 1.72929 on 8 procs for 13 steps with 57 atoms

98.9% CPU use with 8 MPI tasks x no OpenMP threads

Minimization stats:
  Stopping criterion = energy tolerance
  Energy initial, next-to-last, final = 
        -11180.7174322     -11180.9193681     -11180.9193845
  Force two-norm initial, final = 8.94666 12.0925
  Force max component initial, final = 3.58177 5.76303
  Final line search alpha, max atom move = 0.000269567 0.00155352
  Iterations, force evaluations = 13 87

MPI task timing breakdown:
Section |  min time  |  avg time  |  max time  |%varavg| %total
---------------------------------------------------------------
Pair    | 1.3858     | 1.4544     | 1.514      |   3.0 | 84.10
Neigh   | 0          | 0          | 0          |   0.0 |  0.00
Comm    | 0.0072492  | 0.066677   | 0.13515    |  14.2 |  3.86
Output  | 7.2519e-05 | 0.00010441 | 0.00016038 |   0.0 |  0.01
Modify  | 0.20492    | 0.20498    | 0.20503    |   0.0 | 11.85
Other   |            | 0.003177   |            |       |  0.18

Nlocal:    7.125 ave 12 max 3 min
Histogram: 2 0 2 0 0 0 2 0 1 1
Nghost:    717.875 ave 741 max 694 min
Histogram: 1 1 1 1 1 0 0 0 0 3
Neighs:    1111.25 ave 1858 max 470 min
Histogram: 2 0 2 0 0 0 2 0 1 1

Total # of neighbors = 8890
Ave neighs/atom = 155.965
Neighbor list builds = 0
Dangerous builds = 0
WARNING: Total cutoff < 2*bond cutoff. May need to use an increased neighbor list skin. (../pair_reaxc.cpp:413)
Setting up Verlet run ...
  Unit style    : real
  Current step  : 0
  Time step     : 0.25
Per MPI rank memory allocation (min/avg/max) = 19.44 | 19.81 | 20.18 Mbytes
Step Temp TotEng KinEng PotEng Press 
       0          300   -11130.842    50.077609   -11180.919    34288.413 
     200    218.54479   -11110.195    36.480668   -11146.676    55894.026 
     400    276.39163   -11081.549    46.136773   -11127.686     75243.76 
     600    354.62767   -11068.936    59.196353   -11128.132   -18587.771 
     800    319.62709   -11082.879    53.353869   -11136.233   -5539.7005 
    1000    272.97148   -11079.415    45.565863   -11124.981    -57846.85 
    1200    371.94694    -11063.04    62.087378   -11125.128   -57073.889 
    1400    324.94785   -11080.975    54.242039   -11135.217    39154.242 
    1600    279.66609   -11088.513    46.683364   -11135.196    14722.679 
    1800    266.80239   -11093.414    44.536085    -11137.95   -60797.327 
    2000    273.71416   -11076.496    45.689836   -11122.186   -2089.1176 
    2200    324.99337   -11073.648    54.249636   -11127.898     -75873.6 
    2400    273.98468   -11084.139    45.734992   -11129.874    1481.6175 
    2600    272.11417   -11078.321    45.422757   -11123.744    21954.386 
    2800    283.35892   -11084.201     47.29979   -11131.501    31638.476 
    3000    336.29315   -11080.596    56.135856   -11136.731   -14072.694 
    3200    260.92326   -11087.846     43.55471   -11131.401    -30799.49 
    3400    271.32468   -11096.174    45.290971   -11141.465   -20465.885 
    3600    300.87316    -11083.47    50.223362   -11133.693    5792.0462 
    3800    308.79438    -11075.44    51.545613   -11126.986    15572.126 
    4000    335.43584   -11069.463    55.992749   -11125.456   -33957.318 
    4200    301.31252    -11082.18    50.296702   -11132.477   -13906.292 
    4400    278.92794    -11086.27    46.560147   -11132.831    43755.355 
    4600    268.09784   -11092.779     44.75233   -11137.531   -45247.475 
    4800    340.87424   -11074.291    56.900557   -11131.191   -7908.6928 
    5000    241.29945   -11087.427    40.278999   -11127.706    18852.905 
    5200    299.57754   -11082.724    50.007089   -11132.731   -9860.1946 
    5400    257.96939   -11079.273    43.061634   -11122.335     21089.65 
    5600    249.00894   -11078.159    41.565907   -11119.725     -6891.73 
    5800    304.79662   -11087.609    50.878286   -11138.488   -19149.735 
    6000    246.35432   -11094.505    41.122784   -11135.628   -2155.6458 
    6200    273.18026   -11083.592    45.600714   -11129.193   -68429.422 
    6400    402.01233   -11065.378    67.106054   -11132.484   -9195.6116 
    6600    290.95676   -11079.122    48.568063    -11127.69    -10159.57 
    6800    285.57292   -11081.553    47.669364   -11129.223   -36706.126 
    7000    390.39154   -11065.636     65.16625   -11130.802   -7058.2437 
    7200    301.03935   -11077.842    50.251102   -11128.094   -9749.9319 
    7400    281.73871   -11093.798    47.029337   -11140.828    75367.645 
    7600    302.87225   -11086.634     50.55706   -11137.191    39497.074 
    7800    298.07109   -11082.573    49.755625   -11132.329    1366.9304 
    8000    340.75974   -11058.911    56.881443   -11115.792    26146.826 
    8200    289.74188   -11083.526    48.365269   -11131.891   -54092.786 
    8400    292.87887    -11080.83    48.888912   -11129.719   -11409.374 
    8600    337.90729   -11077.068    56.405297   -11133.474    31914.142 
    8800    284.81829   -11087.449    47.543397   -11134.992   -33069.431 
    9000    250.96678   -11090.192    41.892721   -11132.085    83788.302 
    9200    319.34419    -11075.96    53.306645   -11129.267    -34618.94 
    9400    277.63336   -11081.866    46.344049    -11128.21   -14391.503 
    9600    295.10198   -11075.926    49.260006   -11125.186    9805.5543 
    9800    302.36265   -11075.053    50.471994   -11125.525     -44670.2 
   10000    339.37401   -11084.751     56.65013   -11141.401    71458.167 
   10200    252.95451   -11099.435    42.224524   -11141.659   -36210.333 
   10400    330.41875    -11084.23     55.15527   -11139.386   -39527.876 
   10600    334.53529   -11085.597    55.842424   -11141.439   -69877.657 
   10800    253.01085   -11092.427    42.233929   -11134.661    2924.6761 
   11000    323.87259   -11076.603    54.062549   -11130.666   -29665.182 
   11200    329.77742   -11072.523    55.048215   -11127.571    40428.766 
   11400    276.29674   -11080.715    46.120933   -11126.836    38713.686 
   11600    294.45188   -11089.514    49.151486   -11138.665    62414.735 
   11800    302.02579   -11090.211    50.415765   -11140.627   -21769.278 
   12000    293.35521   -11081.617    48.968425   -11130.585   -29356.764 
   12200    284.10943   -11088.156    47.425069   -11135.582    3317.6977 
   12400    278.14922   -11089.957    46.430159   -11136.387    -7672.874 
   12600    286.28793   -11079.117    47.788716   -11126.906   -27394.947 
   12800    359.53891   -11073.919    60.016163   -11133.935   -1255.5222 
   13000    313.70011   -11092.879    52.364504   -11145.243   -11878.152 
   13200    299.62261   -11082.573    50.014613   -11132.588    37050.093 
   13400    333.75637   -11075.421    55.712403   -11131.133     18796.94 
   13600    258.25558    -11087.94    43.109407   -11131.049   -24295.402 
   13800    276.75732   -11085.457    46.197816   -11131.655   -5532.6432 
   14000    372.71354   -11072.748    62.215343   -11134.964   -7432.8308 
   14200    345.84893   -11076.858    57.730958   -11134.589    25736.955 
   14400    285.80054   -11080.112    47.707359    -11127.82    17300.983 
   14600     250.1839   -11097.107    41.762038   -11138.869    59482.289 
   14800    251.43834   -11085.537    41.971436   -11127.508   -94543.456 
   15000    289.49551   -11083.945    48.324143   -11132.269   -21681.817 
   15200    331.17803   -11083.071    55.282013   -11138.353    9616.8972 
   15400    295.22481   -11079.974    49.280509   -11129.255    11175.693 
   15600    269.72842   -11077.998    45.024514   -11123.023   -8999.3441 
   15800    348.25505   -11065.554      58.1326   -11123.687    69050.404 
   16000    286.44121   -11083.319    47.814303   -11131.133   -84789.768 
   16200    290.21746   -11082.373    48.444655   -11130.818    33341.059 
   16400    350.04981   -11069.054    58.432191   -11127.486    9699.3535 
   16600    303.52311     -11086.1    50.665705   -11136.766   -38485.743 
   16800    264.27451   -11089.856    44.114119    -11133.97   -959.86171 
   17000    338.11518   -11070.048    56.439998   -11126.488   -31792.326 
   17200    305.20387   -11079.393    50.946267    -11130.34    7134.0668 
   17400    273.70397   -11082.158    45.688135   -11127.846    1622.2197 
   17600    345.22629   -11071.131    57.627023   -11128.758    10830.576 
   17800    286.67971   -11081.924    47.854115   -11129.778    -31548.87 
   18000    269.64862   -11094.831    45.011194   -11139.842    8120.1074 
   18200    337.85824    -11085.21    56.397109   -11141.607    -23166.42 
   18400    300.36619   -11083.465    50.138735   -11133.603    39187.799 
   18600    339.42925   -11073.904     56.65935   -11130.563   -31851.994 
   18800    313.38639    -11074.84    52.312137   -11127.152    16472.045 
   19000    271.44834   -11089.207    45.311612   -11134.519    24172.253 
   19200    265.88821   -11075.951    44.383486   -11120.335   -3644.1835 
   19400    360.67319   -11077.653    60.205503   -11137.859   -4458.6216 
   19600    281.32402   -11089.518    46.960114   -11136.478    40116.799 
   19800    317.38602   -11077.119    52.979776   -11130.099    60752.894 
   20000    321.65929   -11080.013    53.693094   -11133.706    8013.6261 
   20200    235.48412   -11091.761    39.308272   -11131.069    18669.512 
   20400    239.69087   -11079.488    40.010486   -11119.498   -12586.378 
   20600    307.60537   -11073.374    51.347138   -11124.721    29273.958 
   20800    304.08711     -11075.6    50.759851    -11126.36   -79364.084 
   21000    289.74301   -11091.026    48.365457   -11139.392   -7260.8161 
   21200     340.9869   -11075.479    56.919363   -11132.398    98916.019 
   21400    289.08323   -11080.102    48.255323   -11128.357    66523.259 
   21600    299.60486   -11083.069     50.01165   -11133.081     8098.806 
   21800    262.73964   -11094.791    43.857909   -11138.648    14847.171 
   22000    321.51648    -11074.56    53.669255   -11128.229    79600.089 
   22200    274.27028   -11086.109    45.782665   -11131.891   -58794.961 
   22400    295.55137   -11083.764    49.335019   -11133.099    80990.225 
   22600     294.2952   -11085.238    49.125333   -11134.363    14582.431 
   22800    233.34328   -11100.378    38.950912   -11139.328    12374.669 
   23000     260.1932   -11084.106    43.432845   -11127.539   -50640.138 
   23200    284.77896   -11076.031    47.536832   -11123.568   -35096.729 
   23400    382.75074   -11067.304    63.890805   -11131.194   -39131.455 
   23600    306.89579   -11082.103    51.228691   -11133.332    969.59416 
   23800    243.35551   -11089.017    40.622206    -11129.64   -341.53035 
   24000    322.56603   -11076.196    53.844452    -11130.04    68889.462 
   24200     290.5386   -11075.216    48.498261   -11123.714    3592.5082 
   24400    235.99901   -11090.795     39.39422   -11130.189   -79697.293 
   24600    307.96326   -11075.429    51.406879   -11126.836     -12042.6 
   24800    325.16173   -11074.392    54.277739    -11128.67   -3501.9902 
   25000     282.5144    -11092.32    47.158819   -11139.479    46117.029 
   25200    342.42262   -11084.433     57.15902   -11141.592   -58334.671 
   25400    339.78255   -11073.493    56.718326   -11130.212   -51585.918 
   25600    331.42756   -11073.956    55.323666    -11129.28   -19249.105 
   25800    309.85761   -11083.159    51.723094   -11134.882   -11465.007 
   26000    316.66374   -11069.578    52.859209   -11122.437   -7553.1944 
   26200    290.82177   -11075.623    48.545529   -11124.169    49992.945 
   26400    319.93852   -11080.664    53.405854   -11134.069    8410.7185 
   26600    244.15609   -11097.227    40.755844   -11137.982    6233.1675 
   26800    263.39592   -11088.426    43.967459   -11132.393    14466.334 
   27000    327.31007    -11080.55    54.636352   -11135.187    -21114.22 
   27200    269.32778   -11088.736    44.957637   -11133.693   -43780.515 
   27400     352.9656   -11070.635     58.91891   -11129.554   -26885.399 
   27600    265.65993   -11084.574    44.345381   -11128.919    -46833.86 
   27800    280.60762   -11088.048    46.840529   -11134.889    49084.269 
   28000    345.61965   -11079.099    57.692686   -11136.792    35962.487 
   28200    294.42552   -11091.479    49.147088   -11140.626   -31158.559 
   28400     244.2095   -11095.257     40.76476   -11136.022    13047.449 
   28600    312.03037   -11079.481    52.085783   -11131.567   -30768.028 
   28800    284.17103   -11078.535    47.435352   -11125.971    106307.56 
   29000    258.93087   -11077.682     43.22213   -11120.904     5257.826 
   29200    278.43492   -11086.447     46.47785   -11132.925   -38564.348 
   29400     325.0162    -11083.66    54.253447   -11137.914    18133.727 
   29600    312.69051   -11073.828    52.195977   -11126.024   -50863.071 
   29800    269.01065   -11096.146    44.904701    -11141.05   -70408.072 
   30000    276.43553   -11087.751    46.144102   -11133.895    40728.491 
   30200    323.57083   -11076.597    54.012179   -11130.609   -59568.126 
   30400    347.01001   -11061.727    57.924772   -11119.652    84857.034 
   30600    332.99527   -11077.253    55.585356   -11132.838   -21913.693 
   30800    280.61826   -11083.308    46.842305    -11130.15   -13480.674 
   31000    345.32879   -11071.463    57.644134   -11129.107   -19029.823 
   31200    247.15036   -11086.631    41.255664   -11127.887    59343.938 
   31400    346.48723   -11071.555    57.837507   -11129.392   -43213.972 
   31600    323.75225   -11071.331    54.042462   -11125.373    48658.008 
   31800    304.30658   -11082.332    50.796486   -11133.128   -26638.891 
   32000    271.15901   -11090.956    45.263317   -11136.219    107716.12 
   32200    310.04579   -11079.574    51.754506   -11131.329   -69748.554 
   32400    326.51694   -11075.022    54.503959   -11129.526    9700.2536 
   32600     262.1355   -11093.454    43.757063   -11137.211    65918.204 
   32800    359.35769   -11081.652    59.985913   -11141.638    5734.5875 
   33000    306.70242   -11083.127    51.196413   -11134.323   -4098.9042 
   33200    248.54594   -11092.783    41.488621   -11134.272    33959.224 
   33400    356.61394   -11075.042    59.527911    -11134.57   -30016.376 
   33600    279.79695   -11080.409    46.705207   -11127.114    580.09968 
   33800    235.68737   -11092.947      39.3422   -11132.289   -25697.194 
   34000    367.77807   -11077.479    61.391487   -11138.871     31549.76 
   34200    295.11999   -11084.688    49.263012   -11133.951   -7938.6508 
   34400    340.89514   -11083.902    56.904045   -11140.806   -52073.256 
   34600    347.52104   -11067.308    58.010075   -11125.318   -50254.382 
   34800    283.21455   -11082.348    47.275692   -11129.624    6787.6121 
   35000    320.76473   -11083.329    53.543769   -11136.873   -56757.556 
   35200    252.61521   -11083.713    42.167885   -11125.881   -6891.9133 
   35400    290.23531   -11074.554    48.447635   -11123.001   -3987.3055 
   35600     251.6316   -11093.329    42.003696   -11135.333   -37388.993 
   35800    294.02348   -11083.989    49.079975   -11133.069    30163.952 
   36000    286.82943   -11087.048    47.879107   -11134.927   -61933.305 
   36200    251.93678   -11095.892    42.054638   -11137.947    6551.0924 
   36400    318.17889   -11082.882    53.112127   -11135.994    23801.038 
   36600     295.2744   -11082.032    49.288787   -11131.321    -29356.61 
   36800    319.50557   -11072.421    53.333582   -11125.755    30939.949 
   37000     291.8965   -11072.617     48.72493   -11121.342    29890.367 
   37200    308.49474   -11085.326    51.495597   -11136.822   -17180.407 
   37400    334.49897   -11080.211    55.836361   -11136.048    4649.5401 
   37600    247.82209    -11099.26    41.367793   -11140.628   -35782.551 
   37800    275.93316    -11083.88    46.060243    -11129.94    6361.5776 
   38000    318.84213    -11075.42    53.222839   -11128.643   -80643.695 
   38200    286.04942   -11092.404    47.748903   -11140.153     9816.893 
   38400    308.61602   -11083.995     51.51584   -11135.511    34305.206 
   38600    287.91096   -11079.736    48.059642   -11127.795    40622.623 
   38800    269.12512   -11098.912    44.923808   -11143.836   -16028.883 
   39000    322.77972   -11084.182    53.880121   -11138.063    12730.351 
   39200    299.53244   -11084.123    49.999561   -11134.122   -38292.244 
   39400    339.45989   -11072.972    56.664466   -11129.637   -41218.271 
   39600    286.35261   -11090.436    47.799513   -11138.236    27387.564 
   39800    304.79756    -11075.67    50.878443   -11126.548   -33703.637 
   40000    306.10832   -11086.205    51.097243   -11137.302    2439.9122 
   40200    309.55627   -11078.692    51.672793   -11130.364   -21465.237 
   40400    341.58382   -11076.566    57.019002   -11133.585   -35103.142 
   40600    305.65911   -11088.471    51.022258   -11139.493    16852.814 
   40800    314.69791   -11078.105    52.531063   -11130.636    27257.711 
   41000     333.9188   -11074.447    55.739517   -11130.187    59921.162 
   41200    237.01418   -11092.844    39.563679   -11132.408    18881.968 
   41400    318.38039   -11078.107    53.145763   -11131.253   -6871.1986 
   41600    292.65454   -11085.901    48.851464   -11134.752   -16766.237 
   41800    267.59731   -11084.052    44.668779   -11128.721   -20263.386 
   42000    306.87764   -11073.878    51.225662   -11125.103    31586.283 
   42200    325.32945   -11071.064    54.305737   -11125.369   -52425.162 
   42400     290.6386   -11089.757    48.514954   -11138.272   -37784.377 
   42600    300.02908   -11078.507    50.082462   -11128.589   -2462.9881 
   42800    308.50697   -11074.044    51.497638   -11125.542    13308.811 
   43000    298.71833   -11084.743    49.863665   -11134.606   -16284.881 
   43200    242.22655   -11099.038    40.433755   -11139.472    46528.741 
   43400    266.13503    -11094.56    44.424687   -11138.985    -58849.48 
   43600    273.49695   -11082.578    45.653578   -11128.232   -20174.892 
   43800    345.22564   -11068.249    57.626915   -11125.876   -1262.8462 
   44000    265.54428   -11086.272    44.326075   -11130.598   -33620.753 
   44200    315.30697   -11076.584    52.632731   -11129.217   -25903.209 
   44400     352.4824    -11061.84    58.838253   -11120.678    76818.837 
   44600    325.90367   -11075.336    54.401588   -11129.737   -2894.3198 
   44800    294.36703   -11091.762    49.137324   -11140.899   -12449.004 
   45000    261.25199   -11083.549    43.609583   -11127.159    62218.395 
   45200    308.21794   -11075.323    51.449391   -11126.773    59573.497 
   45400    292.63581   -11086.445    48.848339   -11135.293    10000.029 
   45600    276.28585   -11091.717    46.119115   -11137.837    11952.854 
   45800    291.95791   -11084.157    48.735181   -11132.892   -32572.548 
   46000    300.89228   -11076.392    50.226553   -11126.619    17351.702 
   46200    294.12141   -11074.027    49.096324   -11123.123   -58330.705 
   46400    267.93888   -11087.814    44.725794   -11132.539     -29677.3 
   46600    301.87596   -11085.575    50.390754   -11135.966   -54076.719 
   46800    286.60894   -11067.356    47.842301   -11115.199   -41414.494 
   47000    277.08119   -11087.292    46.251879   -11133.544   -28475.386 
   47200    292.62971   -11078.787     48.84732   -11127.634    2519.5622 
   47400    331.13945   -11075.562    55.275573   -11130.837    47926.475 
   47600    271.97289   -11081.672    45.399173   -11127.071   -6384.0124 
   47800    324.35775   -11078.162    54.143535   -11132.305    70837.579 
   48000    266.89569   -11095.422     44.55166   -11139.974   -49264.126 
   48200    297.16252   -11082.518    49.603961   -11132.122   -55525.142 
   48400     259.3368   -11077.834    43.289889   -11121.124    35657.844 
   48600    315.48776   -11070.436    52.662909   -11123.099    13082.245 
   48800    285.28643   -11073.599     47.62154   -11121.221   -29131.768 
   49000    259.56677   -11083.688    43.328278   -11127.016    50725.583 
   49200    314.95866   -11073.371    52.574588   -11125.946    255.28324 
   49400    339.14342   -11075.433    56.611638   -11132.044    16049.125 
   49600    301.93037    -11081.24    50.399837    -11131.64    23156.203 
   49800     353.8417   -11070.499    59.065154   -11129.564    1739.5409 
   50000     313.5717   -11076.234     52.34307   -11128.577   -42579.629 
   50200    304.09566   -11082.925    50.761279   -11133.686    67520.906 
   50400    341.62629   -11068.735    57.026092   -11125.761   -43523.153 
   50600     276.7045   -11086.148    46.188999   -11132.337   -12687.571 
   50800    311.16589   -11082.013    51.941478   -11133.954   -726.50586 
   51000    385.09155   -11073.109    64.281547    -11137.39     22515.22 
   51200    283.25448    -11093.76    47.282357   -11141.042    6666.7186 
   51400    306.43231   -11081.687    51.151325   -11132.838   -15666.868 
   51600    336.76192   -11078.728    56.214106   -11134.942    15080.204 
   51800    349.81537    -11062.26    58.393057   -11120.653    20537.322 
   52000    343.00697   -11065.997    57.256563   -11123.254    45043.391 
   52200     285.1578   -11081.689    47.600069   -11129.289    34662.248 
   52400    267.62256   -11090.588    44.672992   -11135.261     24776.09 
   52600    250.48032   -11091.556    41.811518   -11133.368    1012.1109 
   52800    291.41886   -11075.059    48.645199   -11123.705     10897.58 
   53000    299.72876   -11086.201    50.032333   -11136.234    41881.204 
   53200    252.78451   -11091.457    42.196146   -11133.653    -805.0294 
   53400    343.34784   -11078.765    57.313463   -11136.078    47896.979 
   53600    316.81867   -11068.354    52.885071   -11121.239   -57057.766 
   53800    317.30773   -11085.005    52.966707   -11137.972    -30320.84 
   54000    282.82158   -11083.641    47.210094   -11130.851     79131.87 
   54200    351.37355   -11064.114    58.653157   -11122.767    10546.195 
   54400    302.00721   -11076.861    50.412663   -11127.274   -18056.138 
   54600    279.91839   -11086.532    46.725479   -11133.257    5347.0326 
   54800    307.15782   -11088.244    51.272431   -11139.516   -63657.592 
   55000    319.89482   -11071.534    53.398558   -11124.933    22577.684 
   55200    265.69612   -11086.542    44.351422   -11130.893    -13492.61 
   55400    319.17613   -11083.216    53.278592   -11136.495   -4044.4541 
   55600      288.059   -11075.859    48.084353   -11123.944   -4314.4093 
   55800     306.1894   -11080.452    51.110776   -11131.563     11495.21 
   56000    283.29156   -11079.993    47.288546   -11127.281    39836.916 
   56200    380.17262   -11065.164    63.460452   -11128.624    75911.702 
   56400    281.45261   -11085.173    46.981579   -11132.154    59894.154 
   56600    292.49162   -11084.899    48.824269   -11133.723     14247.16 
   56800    343.19692    -11068.11     57.28827   -11125.398    18825.856 
   57000    285.50423   -11091.405    47.657897   -11139.063   -42522.794 
   57200    291.99697   -11077.891      48.7417   -11126.632   -15714.459 
   57400    336.38694   -11074.925    56.151512   -11131.077    16569.189 
   57600    270.41826   -11095.996    45.139666   -11141.136    43456.405 
   57800    276.71188    -11084.63    46.190231    -11130.82   -49976.076 
   58000    347.44799   -11075.972    57.997882    -11133.97    34123.112 
   58200    315.98142   -11069.066    52.745313   -11121.811    6604.0307 
   58400    311.20506    -11086.96    51.948018   -11138.908    17030.039 
   58600    313.99928   -11081.774    52.414443   -11134.189   -43401.754 
   58800     307.7341   -11071.286    51.368626   -11122.655    16314.273 
   59000    264.17779   -11083.832    44.097973    -11127.93   -9094.6206 
   59200    324.00724   -11078.781    54.085026   -11132.866    59731.078 
   59400    392.53431   -11062.163    65.523933   -11127.687   -84783.809 
   59600    312.61405   -11075.625    52.183214   -11127.808   -35152.871 
   59800    277.10425   -11088.122    46.255728   -11134.377     49520.51 
   60000    336.23607    -11073.16    56.126329   -11129.286    11699.673 
   60200    311.09306   -11076.238    51.929321   -11128.167    7739.8161 
   60400    280.29246   -11084.663    46.787921   -11131.451   -60675.748 
   60600    328.34084   -11079.837    54.808414   -11134.645    14617.451 
   60800    332.03598   -11081.283    55.425227   -11136.708    63823.582 
   61000    274.17909   -11093.227    45.767444   -11138.995   -15544.004 
   61200    270.17691   -11087.913    45.099378   -11133.012    10147.147 
   61400    314.32656   -11079.411    52.469075    -11131.88    118937.82 
   61600    330.62516   -11083.441    55.189725    -11138.63   -46481.312 
   61800     278.4993   -11086.008    46.488597   -11132.496    -46245.95 
   62000    300.16041   -11072.193    50.104385   -11122.298     73054.51 
   62200    290.20011   -11078.798    48.441759    -11127.24   -9693.3498 
   62400     281.6205   -11088.799    47.009603   -11135.809    9663.3248 
   62600    348.07434   -11076.401    58.102436   -11134.504   -29168.747 
   62800    326.88019   -11080.007    54.564594   -11134.572    25482.385 
   63000    258.05842   -11085.248    43.076496   -11128.325    10513.422 
   63200    296.92245   -11080.617    49.563887   -11130.181   -22274.195 
   63400    314.23235    -11079.02    52.453348   -11131.474   -60692.905 
   63600    279.42035   -11090.904    46.642344   -11137.546    4151.7833 
   63800    291.49312   -11074.456    48.657595   -11123.114    51269.604 
   64000    299.20066   -11078.421    49.944179   -11128.365    52876.314 
   64200    242.73803   -11092.979    40.519134   -11133.498    6232.1091 
   64400    280.15464   -11088.255    46.764914    -11135.02    28332.748 
   64600    265.71051   -11074.204    44.353823   -11118.558    29670.814 
   64800    308.37949   -11080.033    51.476358   -11131.509   -33652.802 
   65000    313.72647   -11088.345    52.368905   -11140.714    3338.4826 
   65200    317.87036   -11076.745    53.060625   -11129.805    11767.946 
   65400    370.40498   -11051.795    61.829985   -11113.625    33395.869 
   65600    330.82612   -11075.565    55.223269   -11130.788    76750.305 
   65800    307.87306   -11085.973    51.391823   -11137.365   -7143.7909 
   66000    311.93198   -11076.446    52.069359   -11128.515    37876.637 
   66200    265.89928   -11079.078    44.385333   -11123.464    12648.018 
   66400    253.82637   -11086.879    42.370058   -11129.249   -59169.087 
   66600    297.08676   -11080.246    49.591315   -11129.837    40064.339 
   66800    292.02294   -11080.828    48.746035   -11129.574    50121.736 
   67000    295.72817   -11093.453    49.364532   -11142.818    3138.9963 
   67200     317.6602   -11080.033    53.025545   -11133.059   -15890.974 
   67400    349.39842   -11076.757    58.323458   -11135.081   -2012.8241 
   67600    265.12479   -11093.383    44.256052   -11137.639    55095.636 
   67800    247.36047   -11088.363    41.290737   -11129.654    -16116.91 
   68000    326.87723   -11074.211    54.564101   -11128.775    15866.151 
   68200     280.6667   -11086.803     46.85039   -11133.653    71147.831 
   68400    292.54104   -11088.218     48.83252   -11137.051    51022.475 
   68600    343.99308   -11067.899     57.42117    -11125.32   -62589.177 
   68800    267.79336   -11088.412    44.701505   -11133.114   -24077.098 
   69000    297.03964   -11080.444     49.58345   -11130.028    13851.238 
   69200    372.21339   -11073.494    62.131855   -11135.626   -13412.732 
   69400    238.07876   -11091.228    39.741384    -11130.97   -7891.1127 
   69600    305.78491   -11078.742    51.043256   -11129.785    6908.5272 
   69800    342.57348   -11079.849    57.184202   -11137.033    229.60092 
   70000    315.26124   -11083.884    52.625097   -11136.509   -73143.737 
   70200    323.40789   -11078.505    53.984979    -11132.49    26460.074 
   70400    231.97764   -11092.141    38.722952   -11130.864   -27047.364 
   70600    260.83572   -11094.251    43.540097   -11137.792    -8310.229 
   70800    286.38298   -11078.897    47.804582   -11126.702   -46123.195 
   71000     280.0698   -11087.188    46.750754   -11133.939   -10944.434 
   71200    222.32626   -11096.781    37.111892   -11133.893   -132.73025 
   71400     337.5062   -11072.435    56.338345   -11128.773    34922.838 
   71600    269.21326   -11085.528    44.938522   -11130.466   -29950.244 
   71800    280.88846   -11085.061    46.887408   -11131.949    14596.879 
   72000    339.85572   -11067.739    56.730539   -11124.469    3064.6126 
   72200    291.87181   -11085.754    48.720807   -11134.475    9591.0934 
   72400    282.97441   -11085.312    47.235606   -11132.548   -14770.908 
   72600    363.49747   -11065.006    60.676947   -11125.683    7529.9317 
   72800    291.29818   -11086.111    48.625055   -11134.736   -14503.545 
   73000    318.00914   -11081.304    53.083791   -11134.388    11926.912 
   73200    324.61622   -11075.172    54.186681   -11129.358   -63567.255 
   73400    263.64183   -11093.823    44.008508   -11137.831    26368.229 
   73600     283.1967   -11082.612    47.272712   -11129.885      17932.3 
   73800    308.58969   -11080.188    51.511446     -11131.7    61742.382 
   74000    354.76388   -11081.197     59.21909   -11140.416    11156.764 
   74200    291.72691   -11083.279    48.696621   -11131.976   -40776.969 
   74400    351.50359   -11067.332    58.674864   -11126.007   -12362.531 
   74600    271.78848   -11086.615     45.36839   -11131.983   -20255.362 
   74800    288.61857   -11088.753    48.177759   -11136.931   -16676.469 
   75000    364.47538   -11070.572    60.840185   -11131.412   -34043.272 
   75200    270.58669   -11083.508    45.167781   -11128.676   -4759.0156 
   75400     250.8749   -11087.758    41.877384   -11129.635   -17544.693 
   75600    304.24331   -11076.222    50.785925   -11127.008    2499.3344 
   75800    309.97115    -11076.71    51.742047   -11128.452   -55707.715 
   76000    299.16255   -11086.453    49.937817    -11136.39    13222.346 
   76200    303.39014   -11083.263    50.643509   -11133.907   -17786.181 
   76400    307.34226   -11075.059    51.303218   -11126.363     25128.99 
   76600    336.87839   -11080.767    56.233547       -11137    51949.722 
   76800    326.26559   -11083.243    54.462003   -11137.705    19396.338 
   77000    328.84036    -11073.43    54.891796   -11128.322   -49683.346 
   77200    264.08194   -11085.068    44.081974    -11129.15   -13467.312 
   77400    251.13456   -11084.827    41.920728   -11126.748    68852.633 
   77600     304.2324   -11081.474    50.784103   -11132.258   -62125.203 
   77800    354.39363   -11077.567    59.157286   -11136.725    48651.678 
   78000    370.86533    -11071.53     61.90683   -11133.437    48995.702 
   78200     245.3139   -11090.595    40.949111   -11131.544    69694.642 
   78400    272.82961   -11074.577    45.542182   -11120.119   -23170.211 
   78600    310.21937   -11075.498     51.78348   -11127.281    49724.324 
   78800    289.84367   -11085.141    48.382261   -11133.524    5243.3063 
   79000    217.90277   -11103.935    36.373499   -11140.309   -60742.991 
   79200     319.5332   -11082.664    53.338196   -11136.002    49142.374 
   79400    297.66761   -11075.691    49.688273   -11125.379    62772.846 
   79600    274.03108   -11091.288    45.742737   -11137.031   -9742.0316 
   79800    316.55863   -11074.453    52.841664   -11127.294    53232.629 
   80000     317.4882   -11076.772    52.996832   -11129.769   -9814.6365 
   80200    250.21975   -11088.102    41.768023    -11129.87   -6430.5419 
   80400    328.40321   -11065.627    54.818825   -11120.446   -31270.097 
   80600    310.09359   -11075.539    51.762485   -11127.302    -24409.39 
   80800    298.61153   -11082.669    49.845839   -11132.515   -26933.384 
   81000    338.92575   -11079.034    56.575304    -11135.61    57495.413 
   81200    230.58043   -11097.456    38.489722   -11135.946    -7424.135 
   81400    284.70566   -11080.801    47.524596   -11128.326    -27582.21 
   81600    306.68672   -11073.659    51.193793   -11124.853   -83281.532 
   81800    272.50428   -11089.395    45.487877   -11134.882    13963.295 
   82000    341.58454   -11082.303    57.019123   -11139.322   -36682.956 
   82200    327.65923   -11072.169    54.694636   -11126.863   -8292.7323 
   82400    300.93563   -11093.477    50.233789   -11143.711   -52903.367 
   82600    332.92455   -11076.674    55.573552   -11132.248   -11149.338 
   82800    251.56689   -11080.035    41.992894   -11122.028    53018.114 
   83000    258.51427   -11092.399    43.152588   -11135.552   -41300.991 
   83200    354.74816    -11071.89    59.216465   -11131.106   -4707.6806 
   83400    295.26912   -11083.563    49.287906   -11132.851   -29358.052 
   83600    253.24162   -11088.481     42.27245   -11130.753   -59777.083 
   83800    285.37855   -11077.943    47.636919    -11125.58   -23280.808 
   84000    335.65962   -11081.793    56.030103   -11137.823   -52414.553 
   84200    276.61897   -11089.529    46.174721   -11135.704     108750.7 
   84400    304.76517   -11075.409    50.873037   -11126.282   -21912.609 
   84600    323.81328   -11078.476     54.05265   -11132.528    13412.959 
   84800    288.52628   -11090.952    48.162355   -11139.114   -37954.346 
   85000    264.31064   -11093.643    44.120149   -11137.763   -24842.137 
   85200    307.93202   -11078.687    51.401665   -11130.089    51230.186 
   85400    306.30014    -11085.35    51.129262   -11136.479    6817.9337 
   85600    273.68887   -11094.484    45.685615    -11140.17   -23363.854 
   85800    305.91515   -11076.725    51.064998    -11127.79   -76434.806 
   86000    302.37744   -11084.587    50.474464   -11135.062     32892.75 
   86200    283.97864   -11093.664    47.403237   -11141.067     30116.45 
   86400    373.89468   -11074.473    62.412505   -11136.886   -1360.4257 
   86600    304.02413   -11083.892    50.749338   -11134.642    71706.533 
   86800    258.21121   -11091.106       43.102   -11134.208   -11000.952 
   87000    289.65891   -11084.672    48.351418   -11133.023    56740.026 
   87200    363.04572    -11075.71    60.601539   -11136.311   -81351.232 
   87400    287.98231   -11082.648    48.071552    -11130.72     33757.64 
   87600    280.57486   -11091.955    46.835061    -11138.79    5310.5117 
   87800    306.11691   -11070.242    51.098676    -11121.34    64776.788 
   88000    278.29644   -11083.737    46.454734   -11130.192   -44426.499 
   88200    317.62598   -11082.993    53.019832   -11136.012     5373.309 
   88400     371.6446   -11071.381    62.036909   -11133.418    16248.595 
   88600    309.83504   -11087.749    51.719327   -11139.468   -2954.9444 
   88800    304.04734   -11083.135    50.753213   -11133.888    6937.7158 
   89000    331.23724    -11061.11    55.291896   -11116.402    68992.416 
   89200    293.38566   -11082.442    48.973507   -11131.415   -34210.098 
   89400    321.40949   -11082.094    53.651395   -11135.746   -6894.1454 
   89600    334.47117   -11069.856    55.831721   -11125.687   -28295.951 
   89800    274.67759   -11082.997    45.850656   -11128.848   -19633.997 
   90000    287.95665   -11083.973    48.067268    -11132.04   -46099.849 
   90200    312.06992   -11074.935    52.092384   -11127.028    3560.4979 
   90400    304.01529   -11092.644    50.747863   -11143.392    21745.028 
   90600    329.02503   -11079.634    54.922623   -11134.556   -20593.066 
   90800    304.63081   -11081.028    50.850608   -11131.879   -1664.0549 
   91000    321.44439   -11080.768    53.657221   -11134.425   -54543.539 
   91200    280.23663   -11081.852    46.778601   -11128.631    -83611.57 
   91400    298.64298   -11080.499    49.851087    -11130.35    4896.0803 
   91600    255.97536   -11088.195     42.72878   -11130.924    35085.411 
   91800    375.83636   -11068.632    62.736621   -11131.368   -26219.091 
   92000    304.84815   -11083.611    50.886889   -11134.498    52882.874 
   92200    323.81643   -11086.068    54.053175   -11140.122   -1156.8653 
   92400    315.78171   -11072.479    52.711977   -11125.191   -42935.025 
   92600    375.17781   -11079.254    62.626692   -11141.881   -30111.633 
   92800    253.20264   -11091.036    42.265942   -11133.302    27611.611 
   93000    327.19029   -11074.898    54.616358   -11129.515   -52380.997 
   93200    310.54535   -11076.635    51.837896   -11128.472    16716.513 
   93400    271.07957   -11085.617    45.250056   -11130.868    11957.824 
   93600    312.26511   -11076.911    52.124966   -11129.036   -10583.036 
   93800    255.67618   -11094.227    42.678839   -11136.906   -29178.432 
   94000     295.9525   -11089.304    49.401978   -11138.706    19295.842 
   94200    287.36239   -11081.631     47.96807   -11129.599    96084.673 
   94400    282.10473   -11081.095    47.090434   -11128.185   -46278.133 
   94600    350.27625   -11075.593     58.46999   -11134.063    74762.201 
   94800    299.94379   -11089.058    50.068226   -11139.126   -6156.7349 
   95000    293.80031   -11081.509    49.042724   -11130.552    40828.509 
   95200    301.73628    -11076.85    50.367438   -11127.217    7599.5585 
   95400    346.43333   -11077.897    57.828509   -11135.726    14746.174 
   95600    296.91487   -11090.563    49.562622   -11140.126   -26814.915 
   95800    323.84367   -11078.054    54.057723   -11132.112   -15523.103 
   96000    311.32954   -11078.129    51.968796   -11130.098   -3520.6528 
   96200    308.78428   -11084.874    51.543928   -11136.418   -84282.555 
   96400     323.5788   -11076.205    54.013509   -11130.219   -5897.1341 
   96600    276.48054     -11070.9    46.151615   -11117.052   -30591.486 
   96800    288.65875   -11077.031    48.184466   -11125.215   -23335.828 
   97000    285.35461   -11086.375    47.632922   -11134.008   -38713.583 
   97200    266.73478   -11085.505      44.5248    -11130.03   -10631.573 
   97400     341.2963   -11071.901    56.971009   -11128.872    11311.026 
   97600    291.73262   -11089.275    48.697574   -11137.973    -39337.88 
   97800    286.35497   -11085.099    47.799908   -11132.899    45159.649 
   98000    275.06214   -11077.317    45.914848   -11123.232   -24833.318 
   98200    256.84167   -11091.633    42.873389   -11134.506   -27382.134 
   98400    315.01711    -11076.65    52.584346   -11129.234   -35842.649 
   98600    314.00883   -11071.087    52.416038   -11123.503    136671.02 
   98800    316.07443   -11083.249     52.76084    -11136.01    29137.302 
   99000    257.43012   -11084.933    42.971616   -11127.904    10994.088 
   99200    314.30499   -11070.255    52.465475    -11122.72   -24190.296 
   99400    300.70874   -11081.827    50.195915   -11132.023   -53834.424 
   99600    289.51258   -11082.881    48.326993   -11131.208    17907.364 
   99800    302.62969   -11070.685    50.516571   -11121.201   -67037.682 
  100000    281.18178   -11085.585    46.936371   -11132.521    84216.089 
  100200    300.31972   -11077.291    50.130979   -11127.422   -11829.609 
  100400    285.03153   -11076.793    47.578992   -11124.372    38700.416 
  100600    247.97681   -11090.136     41.39362   -11131.529    102411.43 
  100800    361.66149   -11073.559    60.370476   -11133.929    41578.842 
  101000    297.82066   -11078.607    49.713822   -11128.321    35039.346 
  101200    278.58735   -11098.543    46.503295   -11145.047    16026.873 
  101400    267.57831   -11085.658    44.665606   -11130.323    30479.458 
  101600    319.89066   -11082.154    53.397865   -11135.552     50070.55 
  101800    298.99116   -11087.481    49.909208    -11137.39   -15540.308 
  102000    338.68384   -11072.278    56.534923   -11128.813    39077.396 
  102200    280.17421   -11086.377    46.768182   -11133.145   -5194.7541 
  102400    296.59933   -11083.658    49.509951   -11133.168   -31530.114 
  102600    317.36933   -11077.135     52.97699   -11130.112    4268.1157 
  102800    390.35556   -11061.778    65.160243   -11126.938    165821.38 
  103000    305.89696   -11081.517     51.06196   -11132.579    -14696.86 
  103200    284.75424   -11083.556    47.532704   -11131.089    74087.392 
  103400    317.08094   -11068.427     52.92885   -11121.356   -37745.979 
  103600    270.19308   -11084.587    45.102078   -11129.689   -1889.3252 
  103800    288.49524   -11083.918    48.157172   -11132.075    61084.062 
  104000    289.62398   -11072.028    48.345588   -11120.374   -16448.792 
  104200    278.21923   -11081.155    46.441846   -11127.597    47213.983 
  104400    274.45267   -11088.204    45.813112   -11134.017    50270.665 
  104600    337.16949   -11073.779    56.282139   -11130.061   -1772.2114 
  104800    372.88517   -11058.271    62.243993   -11120.515    48579.952 
  105000    318.36056    -11081.12    53.142451   -11134.263    14928.631 
  105200    281.80081   -11090.577    47.039703   -11137.617   -25893.018 
  105400    300.53466   -11076.226    50.166857   -11126.393   -53559.151 
  105600    330.27624   -11069.789    55.131481    -11124.92    28345.526 
  105800    255.56258   -11086.633    42.659877   -11129.293     42226.27 
  106000    301.42166   -11076.144     50.31492   -11126.459    73016.498 
  106200    244.16932   -11092.941    40.758053   -11133.699    42538.967 
  106400    285.97786   -11084.702    47.736958   -11132.439   -18390.038 
  106600    278.07422   -11083.567     46.41764   -11129.985    35299.888 
  106800    297.53219   -11093.032    49.665668   -11142.697    22653.818 
  107000    364.96019   -11077.515    60.921112   -11138.436   -17518.973 
  107200    379.36484   -11063.737    63.325614   -11127.062    92836.139 
  107400    272.93577   -11085.099    45.559903   -11130.659   -45394.379 
  107600    296.23371   -11080.044    49.448919   -11129.493    74448.057 
  107800    324.25395   -11069.257    54.126209   -11123.384   -31670.956 
  108000    274.83612   -11089.541    45.877119   -11135.418    60255.841 
  108200    302.02678   -11081.003    50.415931   -11131.419    19775.316 
  108400    351.99246   -11065.151    58.756469   -11123.908    14495.615 
  108600    260.01039   -11085.135    43.402329   -11128.537    37308.804 
  108800    302.57765   -11083.259    50.507885   -11133.767   -49662.805 
  109000    336.20079    -11081.51    56.120438    -11137.63    18372.286 
  109200    311.17834   -11089.694    51.943558   -11141.638   -5238.2808 
  109400     315.1446   -11074.442    52.605627   -11127.047   -19117.345 
  109600    259.33795   -11082.707    43.290081   -11125.997    22297.412 
  109800    275.94374   -11084.108    46.062009    -11130.17    -28693.24 
  110000    327.43192   -11070.772    54.656691   -11125.429   -27952.543 
  110200    307.43637   -11087.762    51.318927   -11139.081    -1742.141 
  110400     299.7202   -11082.855    50.030904   -11132.886   -46224.481 
  110600    384.05504   -11068.556    64.108527   -11132.664   -50930.123 
  110800     301.5904   -11087.912    50.343087   -11138.256    21993.289 
  111000    333.51556   -11075.818    55.672206   -11131.491   -1342.3195 
  111200     337.0312   -11067.428    56.259055   -11123.687    16842.462 
  111400    337.94911   -11078.581    56.412278   -11134.994   -23377.614 
  111600    278.42398    -11085.25    46.476024   -11131.726   -25974.282 
  111800     290.3841    -11070.24    48.472472   -11118.713   -4039.0787 
  112000    230.47437    -11091.56    38.472018   -11130.032   -12647.421 
  112200    284.73036    -11084.32    47.528719   -11131.849    8679.7812 
  112400    283.54717   -11078.658    47.331214   -11125.989   -14775.931 
  112600    248.17088   -11091.321    41.426014   -11132.747    62806.585 
  112800    324.66978   -11074.485     54.19562   -11128.681   -18714.746 
  113000    289.54931   -11084.612    48.333124   -11132.945    16051.652 
  113200    229.74316   -11096.679     38.34996   -11135.029   -49038.747 
  113400    312.93568   -11076.782    52.236901   -11129.019   -43329.556 
  113600    261.24731    -11082.44    43.608803   -11126.049    65613.121 
  113800    250.20405    -11088.39    41.765402   -11130.156    -11407.78 
  114000    327.89062   -11067.721     54.73326   -11122.454    670.88608 
  114200    296.09458   -11081.686    49.425696   -11131.112   -66484.352 
  114400    343.46528   -11075.475    57.333066   -11132.808    4299.3237 
  114600    297.51076   -11063.869    49.662092   -11113.531    6535.8841 
  114800     275.1333    -11082.86    45.926726   -11128.786   -59004.717 
  115000    272.85999   -11077.848    45.547252   -11123.395    -21389.11 
  115200    352.68364   -11064.537    58.871845   -11123.409   -19844.965 
  115400    303.16653   -11087.362    50.606182   -11137.968   -25574.193 
  115600    329.05972   -11081.679    54.928413   -11136.608   -7380.2994 
  115800    342.22949   -11066.115    57.126781   -11123.241    913.33019 
  116000    266.19327   -11081.148    44.434408   -11125.582   -60391.702 
  116200    268.41005   -11083.712    44.804445   -11128.516    27263.922 
  116400    322.35334   -11063.437    53.808949   -11117.246    -35498.61 
  116600    314.22457   -11076.982    52.452051   -11129.434   -18105.647 
  116800     321.2211   -11074.357    53.619949   -11127.977    -31647.97 
  117000    325.91204    -11080.36    54.402986   -11134.763   -8775.0346 
  117200    308.63432   -11087.757    51.518896   -11139.276    16750.034 
  117400    301.44277    -11069.51    50.318443   -11119.828   -71510.258 
  117600    313.37553    -11066.38    52.310324    -11118.69   -30966.611 
  117800    293.44425   -11082.936    48.983288   -11131.919   -14740.311 
  118000    243.95573   -11091.298    40.722398    -11132.02   -20370.721 
  118200    336.69518    -11070.61    56.202966   -11126.813   -25548.496 
  118400    353.32701   -11076.805     58.97924   -11135.784     12572.74 
  118600    310.72991   -11088.433    51.868703   -11140.302    45018.316 
  118800    309.96328   -11078.271    51.740732   -11130.012    -1879.396 
  119000    316.31287   -11071.815    52.800641   -11124.616   -15545.991 
  119200    303.18526   -11087.491    50.609309     -11138.1   -49293.353 
  119400    338.58327   -11082.693    56.518135   -11139.212     60911.45 
  119600    344.21171   -11068.953    57.457664   -11126.411    19098.802 
  119800    259.92836   -11085.914    43.388636   -11129.302    13367.084 
  120000    317.69961   -11085.567    53.032122     -11138.6   -49898.869 
  120200    321.44633   -11063.641    53.657544   -11117.299   -47309.877 
  120400    271.21698   -11082.725    45.272992   -11127.998    9979.2436 
  120600    334.30105   -11080.096    55.803324     -11135.9   -33351.392 
  120800    260.78065   -11088.585    43.530904   -11132.116    42369.842 
  121000    270.89622   -11086.127    45.219451   -11131.346   -10702.595 
  121200    307.53764   -11080.684    51.335832    -11132.02   -18463.234 
  121400    275.42479   -11090.857    45.975382   -11136.833   -27391.321 
  121600     272.8346     -11083.1    45.543015   -11128.643    10747.907 
  121800    343.05053   -11071.658    57.263834   -11128.922   -5532.9596 
  122000    255.95384    -11090.74    42.725188   -11133.465    8661.3305 
  122200    255.30528   -11090.677    42.616927   -11133.294    71977.474 
  122400    331.83177   -11077.641    55.391139   -11133.032   -11596.347 
  122600    330.12408   -11074.164    55.106083    -11129.27   -35054.238 
  122800    264.41212   -11090.028    44.137088   -11134.165   -43558.057 
  123000    249.41863   -11089.528    41.634296   -11131.162     48860.45 
  123200    333.81495   -11076.349    55.722182   -11132.071   -37022.628 
  123400    338.73925   -11084.412    56.544172   -11140.957   -2831.7628 
  123600    247.12362   -11097.171      41.2512   -11138.422    6597.3798 
  123800    266.04366   -11078.702    44.409435   -11123.112     14381.18 
  124000    309.17276    -11082.78    51.608775   -11134.389    18201.443 
  124200     323.8228   -11083.958    54.054239   -11138.013   -15879.759 
  124400     314.6789   -11082.562    52.527889    -11135.09     -18850.4 
  124600    211.86333   -11094.248    35.365364   -11129.613    23596.248 
  124800    315.75875   -11074.808    52.708143   -11127.516    19940.598 
  125000    265.72154   -11087.968    44.355665   -11132.324    37666.418 
  125200    343.38317   -11068.133     57.31936   -11125.452   -27386.532 
  125400    323.18909   -11075.693    53.948455   -11129.641    26181.459 
  125600    273.05687   -11087.128    45.580118   -11132.709    15110.897 
  125800    395.40975   -11066.187    66.003916   -11132.191   -46830.849 
  126000    271.90655   -11077.988    45.388099   -11123.376    33524.886 
  126200    299.32174   -11082.994    49.964391   -11132.958    19353.035 
  126400    316.74019   -11086.763    52.871972   -11139.635   -45929.028 
  126600     269.7382   -11094.097    45.026146   -11139.123    6654.5721 
  126800    303.27124   -11080.502    50.623661   -11131.125   -11074.895 
  127000    253.37858   -11087.743    42.295311   -11130.038    45958.603 
  127200    269.64393   -11096.894     45.01041   -11141.905   -39030.853 
  127400    295.75605   -11082.578    49.369185   -11131.948   -4925.1035 
  127600    355.05771   -11071.546    59.268136   -11130.814   -37399.491 
  127800     258.8817   -11082.775    43.213922   -11125.988    94344.163 
  128000    314.06912   -11085.728    52.426102   -11138.154    -63530.29 
  128200    382.83856   -11069.777    63.905466   -11133.683    60151.605 
  128400    257.68802    -11094.17    43.014667   -11137.184    82043.356 
  128600    290.27819   -11080.963    48.454792   -11129.418   -48159.709 
  128800    317.26572   -11074.729    52.959695   -11127.689    10538.728 
  129000     271.4266    -11090.79    45.307984   -11136.098   -40067.988 
  129200    268.70303   -11079.326    44.853351    -11124.18   -32091.193 
  129400    302.24909    -11072.77    50.453039   -11123.223    54373.364 
  129600    247.66234   -11079.548    41.341127   -11120.889   -21550.478 
  129800    220.51426   -11095.925    36.809423   -11132.734   -81119.629 
  130000     308.0348   -11073.585     51.41882   -11125.003    17623.627 
  130200    319.18907    -11082.76    53.280752    -11136.04    73703.851 
  130400    302.75286   -11091.258     50.53713   -11141.795    1024.5528 
  130600    333.19772   -11069.491     55.61915    -11125.11   -1850.7418 
  130800    296.56751   -11079.335    49.504639    -11128.84   -24550.478 
  131000    233.40588   -11088.216    38.961361   -11127.177    21989.684 
  131200    272.51636   -11079.188    45.489892   -11124.678    69776.891 
  131400    298.79179   -11080.312    49.875927   -11130.188   -20819.652 
  131600    276.17699   -11096.908    46.100944   -11143.009   -5850.1777 
  131800    276.54262   -11080.558    46.161978    -11126.72    39521.894 
  132000    267.83878   -11087.764    44.709086   -11132.473     -50475.2 
  132200    243.72792   -11094.727    40.684371   -11135.411    2870.2099 
  132400    293.44815    -11076.99    48.983939   -11125.974   -38540.314 
  132600    260.85838   -11080.965     43.54388   -11124.509   -72457.446 
  132800    218.30514   -11097.103    36.440665   -11133.544    10477.612 
  133000    315.39732   -11085.993    52.647812   -11138.641     17672.67 
  133200    292.92826   -11077.694    48.897157   -11126.591    -7715.665 
  133400    341.66865   -11073.576    57.033164    -11130.61    37895.793 
  133600    253.70265   -11089.956    42.349407   -11132.305   -13176.358 
  133800    329.77713   -11073.069    55.048168   -11128.117    62754.688 
  134000    373.09414   -11069.114    62.278875   -11131.393   -37207.183 
  134200    255.90138   -11084.811    42.716431   -11127.527    7508.9995 
  134400    320.63666   -11073.094     53.52239   -11126.617   -19913.617 
  134600    373.74697   -11060.395    62.387848   -11122.783   -3324.5154 
  134800    263.81319   -11084.293    44.037112    -11128.33   -20621.457 
  135000    343.28703   -11078.192    57.303312   -11135.495   -14263.444 
  135200    360.19798   -11061.573    60.126178   -11121.699     7509.235 
  135400    268.32702   -11085.299    44.790585   -11130.089   -51841.153 
  135600    315.95711    -11075.68    52.741255   -11128.421    36940.999 
  135800    293.95444   -11081.121    49.068452   -11130.189   -13054.357 
  136000    268.85605   -11093.698    44.878893   -11138.576   -2267.9849 
  136200    291.83427   -11077.138    48.714542   -11125.853    64610.914 
  136400    286.60873   -11076.917    47.842266    -11124.76    35364.856 
  136600    313.01073   -11089.772     52.24943   -11142.021   -34500.111 
  136800    307.58849   -11088.866    51.344321    -11140.21    15941.543 
  137000    341.30828   -11076.168    56.973008   -11133.141    29999.818 
  137200    257.75114   -11081.217    43.025203   -11124.242   -8319.3768 
  137400    244.50773   -11096.112    40.814541   -11136.926   -39637.341 
  137600    319.03386   -11079.952    53.254843   -11133.207    35010.574 
  137800    302.49066   -11080.768    50.493363   -11131.261   -106839.84 
  138000    248.78116   -11085.728    41.527886   -11127.256    40569.981 
  138200    292.64787   -11091.035    48.850351   -11139.885    50247.944 
  138400    283.16868   -11075.563    47.268035   -11122.831    27744.363 
  138600    311.72879   -11078.203    52.035441   -11130.239   -24162.772 
  138800    292.63612   -11091.465     48.84839   -11140.313    48552.188 
  139000    276.94929   -11076.642     46.22986   -11122.872   -23177.841 
  139200    307.25333   -11085.469    51.288373   -11136.758    17513.185 
  139400    226.05032   -11095.719    37.733532   -11133.452   -2794.8055 
  139600    294.67712    -11086.13    49.189085   -11135.319    4686.3101 
  139800     334.4175   -11074.768    55.822763   -11130.591    34133.635 
  140000    299.40931   -11089.676    49.979008   -11139.655   -17255.186 
  140200    321.68907   -11088.158    53.698064   -11141.856     58509.95 
  140400    301.24811   -11081.688    50.285949   -11131.974    9678.0839 
  140600    321.04387   -11077.631    53.590365   -11131.221    11911.244 
  140800    290.13162   -11076.489    48.430327    -11124.92    13919.682 
  141000     271.8055   -11090.579    45.371232    -11135.95   -11660.676 
  141200    296.54455   -11077.817    49.500806   -11127.318   -41522.593 
  141400    308.76437   -11078.216    51.540604   -11129.756    -39367.39 
  141600    261.96035   -11090.538    43.727827   -11134.266   -16154.749 
  141800    341.77658   -11081.727     57.05118   -11138.778    -67985.24 
  142000    274.50541   -11075.373    45.821916   -11121.195    -73707.49 
  142200    312.11077   -11089.347    52.099204   -11141.446   -4464.7397 
  142400    269.01428   -11102.429    44.905306   -11147.335   -48556.922 
  142600    287.44397   -11085.192     47.98169   -11133.174   -4848.3689 
  142800    364.63349    -11074.76    60.866578   -11135.627    14923.248 
  143000    283.59172   -11091.196    47.338651   -11138.535   -18513.254 
  143200    369.88183    -11074.67    61.742659   -11136.412   -25694.252 
  143400    288.74517   -11073.562    48.198893    -11121.76   -33209.434 
  143600    279.71587    -11085.51    46.691674   -11132.201   -80620.224 
  143800    308.51125   -11079.655    51.498352   -11131.153     18211.07 
  144000    300.53095   -11076.685    50.166237   -11126.851   -29744.305 
  144200    273.13228   -11085.644    45.592706   -11131.237    7457.3394 
  144400    363.67857   -11063.913    60.707178    -11124.62   -42210.544 
  144600    309.71888   -11077.537    51.699937   -11129.237   -1784.2854 
  144800    281.19669   -11079.918    46.938859   -11126.857   -16995.501 
  145000    313.02192   -11076.703    52.251298   -11128.954     81662.56 
  145200    267.20725   -11091.354    44.603667   -11135.957    -20724.11 
  145400    268.40611   -11084.143    44.803788   -11128.947   -33418.568 
  145600    326.04757   -11073.108     54.42561   -11127.534   -25293.538 
  145800     334.0235    -11085.46    55.756994   -11141.217   -32077.147 
  146000    299.49691   -11093.341     49.99363   -11143.335   -67997.206 
  146200    347.07197   -11071.407    57.935115   -11129.342   -12195.526 
  146400    300.40244   -11084.519    50.144787   -11134.664     24773.56 
  146600    255.67103   -11097.588    42.677979   -11140.266    40470.646 
  146800     268.2527   -11091.852    44.778179    -11136.63   -11740.138 
  147000    328.62106   -11079.521     54.85519   -11134.376    59934.876 
  147200    292.32666   -11077.447    48.796734   -11126.244   -14244.226 
  147400    357.72086   -11070.137    59.712685    -11129.85   -12330.422 
  147600    296.06414   -11088.305    49.420615   -11137.726   -6549.1064 
  147800      294.668   -11080.576    49.187563   -11129.764    31064.895 
  148000    301.94366   -11079.447    50.402056   -11129.849     -3047.88 
  148200    295.71221   -11078.751    49.361868   -11128.113    52178.645 
  148400    283.31592   -11073.935    47.292614   -11121.227    25634.983 
  148600    273.87917   -11088.576     45.71738   -11134.293    33370.386 
  148800    317.81838   -11083.264    53.051948   -11136.316    8090.1503 
  149000    329.60968   -11065.422    55.020215   -11120.442     83659.13 
  149200    283.90126   -11083.877     47.39032   -11131.267    4897.3833 
  149400    334.43999   -11079.087    55.826517   -11134.914   -8772.7272 
  149600    279.92051   -11091.833    46.725832   -11138.558    42017.501 
  149800    280.65767   -11088.351    46.848884     -11135.2    5796.9352 
  150000    294.54706   -11077.038    49.167375   -11126.205   -17010.265 
  150200     250.6861   -11090.851    41.845869   -11132.697   -50022.602 
  150400    333.35833   -11082.475    55.645959   -11138.121   -32684.514 
  150600    336.64341   -11075.934    56.194323   -11132.128   -41359.698 
  150800    297.95622   -11080.675     49.73645   -11130.411    39023.492 
  151000    289.72277   -11093.623    48.362078   -11141.986   -52816.287 
  151200    331.92487   -11075.274    55.406679   -11130.681   -28052.705 
  151400    234.87288   -11081.784    39.206241   -11120.991   -83440.724 
  151600    289.76357   -11091.441    48.368889   -11139.809    20403.292 
  151800    302.83556   -11092.443    50.550935   -11142.994    29075.777 
  152000    327.90337    -11075.71    54.735389   -11130.446    22210.886 
  152200    295.94484   -11082.797      49.4007   -11132.198    9488.5714 
  152400    252.18724    -11092.22    42.096447   -11134.316    31794.028 
  152600     299.7641   -11080.417    50.038231   -11130.455   -9104.7043 
  152800    291.15184   -11082.156    48.600627   -11130.757   -67576.614 
  153000    338.27246   -11066.928    56.466253   -11123.394    68708.255 
  153200    300.71969   -11084.537    50.197744   -11134.735    15134.947 
  153400    305.21777   -11082.618    50.948586   -11133.567    84430.757 
  153600    417.92588   -11062.622    69.762428   -11132.384    40808.502 
  153800    324.04259   -11078.681    54.090926   -11132.772   -74479.771 
  154000    289.60196   -11085.944    48.341913   -11134.286   -56482.996 
  154200    355.95423   -11076.721    59.417789   -11136.139    84504.649 
  154400    303.42962   -11077.747      50.6501   -11128.397    1388.8889 
  154600    263.42403   -11087.805    43.972152   -11131.777     21235.65 
  154800    279.75863   -11078.108     46.69881   -11124.806    49118.277 
  155000     331.0609     -11058.2     55.26246   -11113.462   -48260.586 
  155200    302.72933   -11078.229    50.533203   -11128.762   -32722.999 
  155400    274.15988   -11084.844    45.764238   -11130.609    12357.796 
  155600    295.57007   -11082.442    49.338141    -11131.78    1910.9231 
  155800    323.45496    -11073.26    53.992836   -11127.253    26396.447 
  156000     292.0137   -11089.645    48.744493   -11138.389   -97448.399 
  156200    356.53421   -11075.559    59.514603   -11135.074    28719.264 
  156400    308.50209    -11077.03    51.496824   -11128.527    19431.014 
  156600    282.04902   -11085.259    47.081135    -11132.34    23020.246 
  156800    374.11313   -11066.547     62.44897   -11128.996    43869.828 
  157000    365.54695   -11080.373    61.019058   -11141.392    11445.006 
  157200    257.59591   -11085.418     42.99929   -11128.417   -19738.414 
  157400     340.3034   -11070.659    56.805269   -11127.464    7467.9573 
  157600    280.90347   -11089.524    46.889913   -11136.414    1865.1019 
  157800     322.3964   -11083.969    53.816136   -11137.785    6774.6245 
  158000    349.66919   -11067.374    58.368656   -11125.743    17914.765 
  158200    312.08099   -11075.744    52.094232   -11127.838    22080.496 
  158400    287.40642    -11085.38    47.975421   -11133.355    25577.635 
  158600    394.08048   -11072.013    65.782027   -11137.795    55952.215 
  158800    315.57829   -11075.984     52.67802   -11128.662    45639.377 
  159000    281.39284   -11087.485    46.971601   -11134.456    228.07887 
  159200    334.80346    -11072.38    55.887189   -11128.268    35821.197 
  159400    277.50384   -11083.691    46.322429   -11130.014    38569.068 
  159600     286.0538    -11089.96    47.749634   -11137.709    -24980.19 
  159800    365.64621     -11070.3    61.035626   -11131.336   -37686.239 
  160000    266.13991   -11079.623    44.425501   -11124.049    1191.7771 
  160200    268.45438   -11085.398    44.811844    -11130.21    34425.488 
  160400    257.20824   -11095.207     42.93458   -11138.141    30002.852 
  160600    285.11697   -11077.193    47.593254   -11124.786   -47646.339 
  160800    272.50019   -11082.031    45.487192   -11127.518    55245.487 
  161000    266.43829   -11097.582    44.475308   -11142.057   -58074.757 
  161200    284.60542   -11078.692    47.507863     -11126.2    22869.159 
  161400    274.23043   -11082.601    45.776014   -11128.377   -31115.281 
  161600    300.31684    -11070.08    50.130497   -11120.211    8512.8059 
  161800    281.67779   -11077.557    47.019168   -11124.576    31706.832 
  162000    290.98046   -11086.374     48.57202   -11134.946    20730.192 
  162200    325.11422   -11072.095    54.269809   -11126.364     74407.21 
  162400    279.03797   -11075.647    46.578515   -11122.225   -41772.551 
  162600    318.87776   -11080.172    53.228785     -11133.4    7503.5093 
  162800    300.84795   -11083.376    50.219153   -11133.595    13786.404 
  163000    291.83925   -11074.607    48.715373   -11123.322   -78115.556 
  163200    284.34948   -11084.318    47.465139   -11131.783    57377.173 
  163400    267.71868   -11084.661    44.689037    -11129.35   -20587.648 
  163600    279.38393   -11075.539    46.636264   -11122.175    26969.123 
  163800    256.94448    -11088.02     42.89055   -11130.911    23119.301 
  164000    311.75983   -11071.794    52.040622   -11123.834   -77849.516 
  164200    296.79173   -11075.879    49.542067   -11125.421   -25921.456 
  164400    283.10937   -11083.825    47.258134   -11131.083    97701.078 
  164600    314.99858   -11075.671    52.581253   -11128.253    13785.028 
  164800    308.25424   -11074.192    51.455451   -11125.647   -58862.746 
  165000    300.07803   -11083.729    50.090634    -11133.82   -18373.645 
  165200    309.01852   -11081.324    51.583028   -11132.907   -16944.424 
  165400     296.1217   -11073.725    49.430222   -11123.156   -21217.839 
  165600    270.24194   -11088.235    45.110234   -11133.346    36121.487 
  165800    294.24362   -11083.854    49.116722   -11132.971   -44575.223 
  166000    295.67612    -11069.52    49.355844   -11118.876    3856.1629 
  166200    280.42466    -11087.62    46.809989    -11134.43    13612.112 
  166400    290.28996   -11085.381    48.456757   -11133.838   -24106.931 
  166600    265.98658   -11074.962    44.399906   -11119.362    63407.863 
  166800    295.20522   -11080.874    49.277239   -11130.151    3354.4982 
  167000    281.90336   -11083.823     47.05682    -11130.88   -84880.763 
  167200    327.54859   -11071.432    54.676167   -11126.108    20842.911 
  167400    292.17262   -11089.489     48.77102    -11138.26   -35354.061 
  167600    295.11093   -11086.374      49.2615   -11135.636   -40210.822 
  167800    293.99943   -11073.255    49.075962   -11122.331    1244.6835 
  168000    264.62604   -11086.093    44.172798   -11130.266    -27103.26 
  168200     292.2817   -11089.459    48.789229   -11138.249   -2974.5355 
  168400    274.35212   -11073.451    45.796328   -11119.248     5878.056 
  168600    361.35879   -11080.243    60.319948   -11140.563   -32075.856 
  168800    296.94133   -11081.387    49.567039   -11130.955    39969.972 
  169000     311.3894   -11074.958    51.978788   -11126.936    11046.847 
  169200    276.90025   -11083.125    46.221674   -11129.347    8863.9867 
  169400    253.18029   -11088.308    42.262211    -11130.57     50314.19 
  169600    362.81061   -11069.355    60.562293   -11129.918     515.1103 
  169800    284.97352   -11082.353    47.569309   -11129.923   -479.91239 
  170000    289.29264    -11089.27    48.290278    -11137.56    61771.824 
  170200    256.98313   -11092.558    42.897002   -11135.455   -78487.948 
  170400    271.53776   -11082.589     45.32654   -11127.916   -30726.998 
  170600    255.53474   -11082.111    42.655229   -11124.766    12130.203 
  170800    254.16421   -11093.022    42.426454   -11135.449    26742.042 
  171000    345.19391   -11077.145    57.621618   -11134.767    6949.7749 
  171200    326.10851   -11073.845    54.435781   -11128.281    57489.855 
  171400    270.19763   -11092.387    45.102837   -11137.489    54869.336 
  171600    315.85334    -11078.71    52.723933   -11131.434   -7423.8137 
  171800     318.8468   -11079.666    53.223617    -11132.89   -25964.532 
  172000    277.28479   -11083.103    46.285865   -11129.389   -63682.366 
  172200    289.86646   -11083.797    48.386064   -11132.183   -2055.7014 
  172400    267.48646   -11092.272    44.650275   -11136.923    35613.402 
  172600    326.90802    -11074.47     54.56924   -11129.039   -21192.944 
  172800    279.08781   -11081.193    46.586834    -11127.78   -43213.098 
  173000    261.76179   -11097.954    43.694682   -11141.649   -26245.365 
  173200    335.68995   -11080.393    56.035167   -11136.428   -48340.867 
  173400    288.18203       -11075     48.10489   -11123.105    6867.7378 
  173600    251.71411   -11090.956    42.017468   -11132.974    35431.283 
  173800    295.32313   -11080.129     49.29692   -11129.426   -24646.966 
  174000    338.45967   -11077.762    56.497504    -11134.26   -47608.778 
  174200    302.00087   -11086.825    50.411605   -11137.237     34105.09 
  174400    333.14503   -11081.043    55.610355   -11136.653   -25489.617 
  174600    328.09689   -11071.716    54.767692   -11126.484   -8633.5716 
  174800    242.92959   -11092.549     40.55111     -11133.1   -28703.373 
  175000    271.37705    -11083.28    45.299713    -11128.58   -3654.0548 
  175200    316.69383   -11077.888    52.864232   -11130.752   -7065.6067 
  175400    278.13101   -11087.818     46.42712   -11134.245   -30636.777 
  175600    334.68838   -11066.838    55.867979   -11122.706    22644.606 
  175800     309.5545   -11077.434    51.672497   -11129.106   -37676.674 
  176000    325.33947   -11081.699    54.307409   -11136.006    15365.888 
  176200    265.53655   -11086.676    44.324785   -11131.001   -9532.2073 
  176400    280.98693   -11090.285    46.903846   -11137.189    15383.765 
  176600    323.77514   -11075.405    54.046283   -11129.451   -16507.554 
  176800    305.73115   -11085.368    51.034283   -11136.403    35857.867 
  177000    235.47135   -11102.115    39.306141   -11141.421    55612.461 
  177200    273.08746   -11086.245    45.585223    -11131.83   -43284.565 
  177400    348.15046   -11072.178    58.115142   -11130.293    36807.976 
  177600    301.70808    -11083.58    50.362732   -11133.942    20389.027 
  177800    272.00179    -11088.07    45.403998   -11133.474   -65071.157 
  178000    344.88989   -11074.743     57.57087   -11132.314   -7494.0678 
  178200    312.99757   -11078.967    52.247234   -11131.214    20062.758 
  178400     233.3706   -11096.998    38.955471   -11135.954   -596.38834 
  178600    299.13934       -11082    49.933943   -11131.934    23087.985 
  178800    304.08355   -11079.734    50.759256   -11130.493    -22188.32 
  179000    237.18757   -11095.945    39.592621   -11135.537    16598.119 
  179200    295.68581   -11080.492    49.357461    -11129.85   -38573.699 
  179400    327.40334   -11075.442    54.651921   -11130.094     79789.14 
[...]
  950000    290.52585   -11077.547    48.496133   -11126.043    20594.371 
  950200    294.84226   -11084.102    49.216651   -11133.319    44769.926 
  950400    252.07436   -11101.236    42.077604   -11143.313    28198.132 
  950600    302.95669   -11082.549    50.571156    -11133.12    20845.084 
  950800    335.41315   -11078.624    55.988962   -11134.613   -55674.709 
  951000    341.42807   -11065.669    56.993004   -11122.662   -20130.542 
  951200    256.40386   -11083.477    42.800307   -11126.277    41910.155 
  951400    289.20785   -11083.416    48.276125   -11131.693    133593.88 
  951600    345.56267    -11067.49    57.683174   -11125.173   -6992.0351 
  951800    336.58984   -11069.744    56.185381   -11125.929    18223.108 
  952000    312.03809   -11080.225    52.087071   -11132.312   -27914.599 
  952200    245.81004   -11086.043     41.03193   -11127.075   -14942.348 
  952400    280.05305   -11085.971    46.747958   -11132.719    40610.254 
  952600    333.65633   -11074.159    55.695704   -11129.854    20145.309 
  952800    261.87004   -11093.759    43.712752   -11137.472    5865.9451 
  953000    309.16429   -11083.403    51.607361   -11135.011   -45095.454 
  953200    330.09019   -11076.812    55.100425   -11131.913   -679.57451 
  953400    309.49179     -11089.9    51.662029   -11141.562    12247.472 
  953600    253.79053   -11093.248    42.364076   -11135.612   -21853.817 
  953800    291.62854   -11080.861      48.6802   -11129.542   -30407.227 
  954000    318.24887   -11074.264    53.123808   -11127.388    13650.446 
  954200    329.30332   -11073.655    54.969077   -11128.624    51716.869 
  954400    249.20616   -11088.968    41.598829   -11130.567   -20847.135 
  954600    361.39935   -11075.285    60.326717   -11135.612    62905.521 
  954800    331.30488   -11065.415    55.303188   -11120.718   -29486.918 
  955000    320.95803    -11083.76    53.576035   -11137.336     44372.74 
  955200    332.91232   -11077.295    55.571509   -11132.866   -32301.407 
  955400    355.16368   -11066.733    59.285826   -11126.018   -57024.781 
  955600    256.03601   -11087.561    42.738904     -11130.3   -50466.268 
  955800    250.87344   -11082.414    41.877139   -11124.291   -40393.409 
  956000    343.78997   -11069.484    57.387266   -11126.871   -16004.042 
  956200    270.72181   -11088.694    45.190336   -11133.884   -58439.295 
  956400    229.62274   -11101.522    38.329859   -11139.852    -6621.302 
  956600    289.70901   -11085.214    48.359782   -11133.574   -80062.311 
  956800    299.68078   -11077.548    50.024323   -11127.573   -28717.914 
  957000    263.59117   -11096.011    44.000051   -11140.011    11536.406 
  957200    267.48007   -11083.032    44.649208   -11127.681    18247.213 
  957400     298.2311   -11078.419    49.782335   -11128.201   -8598.0809 
  957600    251.61579   -11089.015    42.001056   -11131.016    3978.9557 
  957800    293.44221   -11092.216    48.982948   -11141.199    7372.9365 
  958000    303.01028   -11077.728    50.580101   -11128.308   -15605.272 
  958200    251.29136   -11079.361    41.946902   -11121.308    19417.867 
  958400    321.64349   -11071.858    53.690456   -11125.548   -8020.7691 
  958600    323.51996   -11082.165    54.003687   -11136.168   -39766.758 
  958800    250.63433   -11088.014    41.837226   -11129.851    11544.804 
  959000    357.15345   -11069.266     59.61797   -11128.883   -80015.443 
  959200    285.54201   -11080.613    47.664203   -11128.277   -60869.604 
  959400    289.78017   -11078.348     48.37166    -11126.72   -42997.995 
  959600    329.42538   -11071.737    54.989451   -11126.727    58584.306 
  959800    231.63583   -11091.688    38.665895   -11130.354   -22320.899 
  960000    261.57181   -11085.238     43.66297   -11128.901   -16779.912 
  960200    316.09942   -11070.145     52.76501    -11122.91    41416.444 
  960400    329.78311   -11061.767    55.049166   -11116.816    52298.934 
  960600    294.10792   -11078.612    49.094072   -11127.706   -39732.096 
  960800    307.32513   -11086.782    51.300359   -11138.083   -24687.823 
  961000    271.50257   -11097.673    45.320664   -11142.994   -21079.232 
  961200    286.02776   -11077.781    47.745287   -11125.526   -14908.103 
  961400    320.96795   -11079.092    53.577691    -11132.67   -9148.5007 
  961600    252.57913   -11095.636    42.161862   -11137.798    16434.891 
  961800     320.0657   -11078.678    53.427082   -11132.105     3849.569 
  962000    338.82386   -11081.356    56.558296   -11137.915   -4778.9269 
  962200    304.17772   -11091.455    50.774976    -11142.23   -32446.068 
  962400    310.52767   -11082.875    51.834944    -11134.71    82195.225 
  962600    320.77664   -11068.538    53.545757   -11122.084   -757.09075 
  962800    275.44782   -11085.156    45.979228   -11131.135   -16368.901 
  963000    291.67163   -11084.455    48.687393   -11133.143    7755.2006 
  963200    274.03878   -11081.862    45.744022   -11127.606   -50771.443 
  963400    272.05081   -11097.218     45.41218    -11142.63    9312.3161 
  963600    323.19245   -11078.921    53.949017   -11132.871   -21336.039 
  963800    302.10634   -11076.009    50.429211   -11126.438    77424.806 
  964000    301.49612   -11089.342    50.327349    -11139.67    45961.857 
  964200    276.53985    -11092.24    46.161514   -11138.402   -29716.974 
  964400    299.58489   -11075.431    50.008316   -11125.439    29150.776 
  964600    292.93624   -11084.338    48.898489   -11133.237    1635.7604 
  964800    242.21117   -11096.895    40.431187   -11137.327   -33686.779 
  965000     301.4965   -11078.734    50.327413   -11129.062    5244.1818 
  965200    310.73762   -11079.705    51.869989   -11131.575    17280.291 
  965400     279.0826   -11092.764    46.585964    -11139.35     15032.46 
  965600    312.63352   -11080.984    52.186463    -11133.17   -27031.597 
  965800    310.76496   -11075.979    51.874554   -11127.854     41276.66 
  966000    254.09247   -11095.415    42.414477    -11137.83   -46411.256 
  966200    249.90474   -11094.663     41.71544   -11136.378    45709.463 
  966400    276.00605    -11085.05     46.07241   -11131.123    67839.451 
  966600    321.82243   -11078.299    53.720327   -11132.019   -51894.166 
  966800    313.18376   -11068.062    52.278313   -11120.341   -28955.723 
  967000    265.01632    -11070.25    44.237945   -11114.488    71829.678 
  967200    281.98642   -11085.045    47.070685   -11132.116    39320.291 
  967400    325.36668   -11074.505     54.31195   -11128.817   -32322.167 
  967600    348.65182   -11074.875    58.198831   -11133.073    9559.9132 
  967800    256.82264   -11085.033    42.870212   -11127.903    86303.505 
  968000     295.6108     -11076.5     49.34494   -11125.845   -5654.9598 
  968200    329.75831   -11075.907    55.045026   -11130.952   -23409.488 
  968400    318.45598   -11084.219    53.158379   -11137.377    68135.695 
  968600    300.20975   -11071.315    50.112622   -11121.427   -50895.631 
  968800    265.34821   -11073.428    44.293347   -11117.721   -45.561147 
  969000    295.70532   -11081.501    49.360717   -11130.862    21017.499 
  969200    307.75556   -11083.488    51.372209    -11134.86   -88282.308 
  969400    275.62592    -11086.87    46.008957   -11132.879    84726.934 
  969600    253.36641    -11084.05    42.293281   -11126.343    2252.8586 
  969800    336.01496   -11074.046     56.08942   -11130.135    31822.518 
  970000    328.96192   -11086.909    54.912088   -11141.821    9428.4168 
  970200    313.36956   -11081.502    52.309327   -11133.811    13076.277 
  970400    280.76377   -11083.916    46.866594   -11130.783   -10738.363 
  970600    271.70682   -11098.163    45.354759   -11143.518    18606.847 
  970800    300.76148   -11083.499    50.204718   -11133.703    50224.438 
  971000    305.75107   -11076.003    51.037608    -11127.04    3641.8175 
  971200    325.47211   -11071.965     54.32955   -11126.295    85847.478 
  971400    272.53455   -11086.739    45.492929   -11132.232    8899.5248 
  971600    288.94642   -11070.055    48.232486   -11118.287     15680.75 
  971800     273.1634   -11074.889    45.597899   -11120.487     -34357.2 
  972000    241.27301   -11083.779    40.274584   -11124.054    36273.594 
  972200    325.25935   -11077.691    54.294035   -11131.985    46869.247 
  972400    321.46095   -11070.957    53.659986   -11124.617    43929.563 
  972600    294.40456   -11084.045    49.143588   -11133.188    31265.163 
  972800    294.68505   -11086.282    49.190409   -11135.473    9308.8546 
  973000    342.41639   -11071.996    57.157979   -11129.154   -35350.026 
  973200    301.78295   -11080.401    50.375228   -11130.776    7999.0722 
  973400    259.17711   -11086.452    43.263234   -11129.715    10100.927 
  973600    301.45744   -11083.705    50.320893   -11134.025    31678.428 
  973800    325.44202   -11066.358    54.324527   -11120.683    3485.9415 
  974000    329.08102   -11078.878    54.931969    -11133.81   -14556.447 
  974200    279.77052    -11081.15    46.700796   -11127.851    25543.913 
  974400    348.31257    -11064.17    58.142203   -11122.312   -33640.034 
  974600    260.85404   -11086.626    43.543155   -11130.169   -29670.302 
  974800    310.74678    -11083.41    51.871519   -11135.281    85787.532 
  975000    353.74247   -11068.872     59.04859   -11127.921    20147.584 
  975200    245.28044   -11092.745    40.943526   -11133.689    18604.027 
  975400    289.06173   -11079.019    48.251734    -11127.27    33734.386 
  975600    294.63432   -11075.788    49.181941    -11124.97   -11179.359 
  975800    255.11924   -11093.593    42.585873   -11136.179   -18762.891 
  976000    241.64239    -11109.77    40.336244   -11150.106   -33625.199 
  976200    232.91033   -11089.889    38.878641   -11128.768   -37461.678 
  976400    333.87227   -11071.145    55.731751   -11126.877   -13653.048 
  976600    314.19479   -11086.246    52.447079   -11138.693   -35326.849 
  976800    264.91485   -11086.032    44.221007   -11130.253   -1075.2788 
  977000    310.74499    -11080.58    51.871219   -11132.452    42656.607 
  977200    280.80102   -11083.207    46.872813    -11130.08   -14663.262 
  977400    357.77026   -11073.774     59.72093   -11133.495   -34789.233 
  977600    376.23448   -11065.848    62.803077   -11128.652   -45919.947 
  977800    295.68692   -11084.402    49.357647   -11133.759   -49623.414 
  978000    289.16713   -11079.391    48.269328    -11127.66    24374.997 
  978200    392.30001   -11061.926    65.484821   -11127.411   -92640.419 
  978400    284.57324   -11081.559    47.502491   -11129.061   -26899.216 
  978600    246.45147   -11082.303       41.139   -11123.442    70604.138 
  978800    326.81409    -11067.74     54.55356   -11122.294    16039.004 
  979000    260.52632   -11083.004    43.488451   -11126.492    19921.815 
  979200    299.86377   -11083.805    50.054868    -11133.86   -16491.337 
  979400    342.95372   -11069.622    57.247673    -11126.87   -81447.648 
  979600    333.49318   -11081.898     55.66847   -11137.567    4531.9517 
  979800    313.71312   -11083.647    52.366676   -11136.013    -84744.76 
  980000    331.14663   -11067.504    55.276772   -11122.781    67087.769 
  980200    312.25048   -11078.041    52.122525   -11130.163   -36226.725 
  980400    283.62182   -11083.173    47.343675   -11130.517    25286.356 
  980600    324.54151   -11066.739    54.174209   -11120.914    9254.0385 
  980800    282.36215   -11076.368    47.133404   -11123.502    13772.767 
  981000    319.16963   -11085.645    53.277506   -11138.922   -19268.931 
  981200    317.44176   -11083.694    52.989081   -11136.683    37620.376 
  981400    271.00698   -11091.106    45.237938   -11136.344    33532.785 
  981600    351.60027   -11078.211    58.691002   -11136.902     7877.088 
  981800     329.7922   -11072.681    55.050683   -11127.732   -749.56599 
  982000    224.24686   -11094.784    37.432488   -11132.216     18460.59 
  982200     290.7641   -11080.555    48.535903   -11129.091    53625.704 
  982400    300.87926    -11076.74     50.22438   -11126.964   -29121.363 
  982600     258.5048   -11094.172    43.151007   -11137.323   -59181.789 
  982800    321.20697   -11090.109    53.617589   -11143.727    9286.7952 
  983000     332.1952   -11078.214    55.451804   -11133.666    -41992.02 
  983200    237.56886    -11091.99    39.656268   -11131.646   -61290.751 
  983400    281.16277   -11091.547    46.933197    -11138.48   -23013.019 
  983600    317.85816   -11077.353    53.058588   -11130.412   -11006.741 
  983800    326.10913   -11084.252    54.435884   -11138.688   -28390.913 
  984000     285.5253   -11093.566    47.661415   -11141.228    9479.0996 
  984200    324.19482   -11082.063    54.116337   -11136.179   -31072.354 
  984400    308.79971   -11085.603    51.546504    -11137.15   -35329.068 
  984600    285.11438   -11090.636    47.592821   -11138.229   -25064.237 
  984800     333.0273   -11074.916    55.590703   -11130.507   -19716.536 
  985000    317.77308   -11077.162    53.044386   -11130.207    48347.862 
  985200     262.2536   -11090.629    43.776777   -11134.406    8748.4831 
  985400    343.34349   -11074.187    57.312737     -11131.5    29146.311 
  985600    321.24505   -11084.001    53.623947   -11137.625   -17796.733 
  985800    259.26556   -11085.015    43.277998   -11128.293    24365.798 
  986000     308.6479    -11074.91    51.521163   -11126.431   -38858.021 
  986200    275.34673   -11089.147    45.962353   -11135.109   -329.69774 
  986400    242.65639   -11084.783    40.505506   -11125.288   -61616.799 
  986600    283.12162   -11074.829     47.26018   -11122.089    39631.733 
  986800    280.63025   -11082.973    46.844307   -11129.818   -34988.461 
  987000    260.76539   -11096.987    43.528358   -11140.516    65153.916 
  987200    258.69693   -11080.172    43.183079   -11123.355   -61719.209 
  987400    314.79946   -11084.781    52.548014   -11137.329    48975.034 
  987600    277.08718   -11092.741    46.252878   -11138.993   -3398.0115 
  987800    247.65616   -11073.452    41.340094   -11114.792   -15044.137 
  988000     239.8814   -11084.523    40.042289   -11124.566    62962.666 
  988200    264.42938   -11080.419     44.13997   -11124.559   -29291.394 
  988400    329.71309   -11070.111    55.037478   -11125.148     -15485.2 
  988600    281.58371    -11087.84    47.003463   -11134.843   -2351.4702 
  988800    280.98914   -11080.773    46.904213   -11127.677    49015.679 
  989000    326.02872   -11069.033    54.422462   -11123.455   -36588.083 
  989200    276.36345   -11081.213     46.13207   -11127.345    16378.979 
  989400    325.71717   -11078.878    54.370457   -11133.249   -18892.406 
  989600    309.71638   -11089.035    51.699518   -11140.735   -32236.755 
  989800    277.31022    -11089.91     46.29011     -11136.2    1790.0705 
  990000     347.4264   -11076.583    57.994278   -11134.578   -9480.6384 
  990200    269.99035   -11090.649    45.068237   -11135.717    2672.6263 
  990400     246.6504   -11093.754    41.172208   -11134.926    70232.958 
  990600    318.46427   -11082.927    53.159764   -11136.087    14253.122 
  990800    344.36359   -11083.866    57.483017    -11141.35    9681.1117 
  991000    261.07344   -11096.618    43.579778   -11140.198   -2307.4961 
  991200    285.88327   -11079.433    47.721169   -11127.154   -18756.983 
  991400    311.84029   -11075.344    52.054053   -11127.398     43761.84 
  991600    309.43208   -11068.673    51.652063   -11120.325   -11522.881 
  991800    290.87184   -11086.227    48.553888   -11134.781    18177.813 
  992000    288.92467     -11086.2    48.228855   -11134.429   -6875.9792 
  992200    419.39196   -11062.225    70.007154   -11132.232   -29468.304 
  992400    276.02824   -11075.286    46.076114   -11121.362   -2905.6171 
  992600    239.34524   -11083.962    39.952792   -11123.915    42522.814 
  992800    259.45357   -11098.445    43.309382   -11141.755   -6873.3143 
  993000    297.57558    -11087.24    49.672911   -11136.913   -14360.141 
  993200    278.87237   -11080.544    46.550872   -11127.095   -14591.302 
  993400    282.69489   -11084.317    47.188947   -11131.505    16269.685 
  993600    370.61978   -11073.847    61.865842   -11135.712   -36535.121 
  993800    300.88592   -11077.276    50.225491   -11127.501    -6503.519 
  994000    324.77831   -11088.593    54.213737   -11142.807   -25473.561 
  994200    332.89242   -11073.561    55.568188    -11129.13   -18703.576 
  994400    316.53036   -11061.258    52.836945   -11114.095   -50696.414 
  994600     326.4799   -11083.493    54.497777   -11137.991    8985.2486 
  994800    288.74567   -11086.136    48.198976   -11134.335   -22050.405 
  995000     358.3445   -11068.721    59.816786   -11128.538   -21470.609 
  995200    354.13842   -11085.283    59.114684   -11144.398   -63114.993 
  995400    310.80679   -11083.839    51.881537   -11135.721    44768.041 
  995600    347.35672   -11067.765    57.982647   -11125.748   -18698.313 
  995800    289.64522   -11076.822    48.349133   -11125.171   -37767.149 
  996000    319.06729   -11080.455    53.260424   -11133.715   -17245.913 
  996200    338.88112    -11089.95    56.567854   -11146.518   -22338.247 
  996400    261.68721   -11091.918    43.682233     -11135.6   -44748.375 
  996600    321.69049   -11078.917    53.698302   -11132.615    24392.067 
  996800    290.88593   -11084.035    48.556239   -11132.591   -11496.321 
  997000     287.4608   -11094.491    47.984498   -11142.476   -5771.3151 
  997200    331.82887   -11074.242    55.390654   -11129.633   -3212.7114 
  997400    271.31247   -11085.802    45.288933   -11131.091   -35326.783 
  997600    190.52676   -11100.243    31.803749   -11132.047   -42511.262 
  997800     299.9431    -11080.86    50.068111   -11130.928    26078.497 
  998000    345.71976   -11076.779    57.709397   -11134.488    29449.427 
  998200    296.56897   -11090.656    49.504884   -11140.161   -44485.913 
  998400     337.8495   -11081.946    56.395651   -11138.341    21663.336 
  998600    307.69905   -11074.474    51.362775   -11125.837    -31864.15 
  998800    259.94613   -11087.508    43.391603     -11130.9    40021.528 
  999000    308.42957   -11080.515    51.484719       -11132   -87462.431 
  999200     348.7038   -11076.224    58.207508   -11134.431   -50235.228 
  999400    234.21912   -11091.058    39.097112   -11130.155    16617.101 
  999600     294.2359   -11084.134    49.115434    -11133.25   -28922.408 
  999800    339.61663   -11072.824    56.690629   -11129.515   -17145.707 
 1000000    276.92999   -11065.075    46.226639   -11111.302   -28344.589 
Loop time of 18670.8 on 8 procs for 1000000 steps with 57 atoms

Performance: 1.157 ns/day, 20.745 hours/ns, 53.560 timesteps/s
98.9% CPU use with 8 MPI tasks x no OpenMP threads

MPI task timing breakdown:
Section |  min time  |  avg time  |  max time  |%varavg| %total
---------------------------------------------------------------
Pair    | 14841      | 15935      | 17092      | 547.5 | 85.35
Neigh   | 0.86821    | 0.91274    | 0.95173    |   3.4 |  0.00
Comm    | 92.265     | 1247.7     | 2344.5     |1958.1 |  6.68
Output  | 0.26567    | 0.29629    | 0.43485    |   9.7 |  0.00
Modify  | 1472.4     | 1475.7     | 1478.7     |   6.2 |  7.90
Other   |            | 11.37      |            |       |  0.06

Nlocal:    7.125 ave 11 max 3 min
Histogram: 1 1 2 0 0 1 0 0 0 3
Nghost:    693.5 ave 752 max 669 min
Histogram: 3 1 1 1 0 0 1 0 0 1
Neighs:    1106.88 ave 1703 max 507 min
Histogram: 1 1 2 0 1 0 0 0 0 3

Total # of neighbors = 8855
Ave neighs/atom = 155.351
Neighbor list builds = 217
Dangerous builds = 0

Please see the log.cite file for references relevant to this simulation

Total wall time: 5:12:03
