ITEM: TIMESTEP
0
ITEM: NUMBER OF ATOMS
163
ITEM: BOX BOUNDS xy xz yz pp pp pp
-6.7755000000000001e+00 1.3552000000000000e+01 -6.7755000000000001e+00
0.0000000000000000e+00 1.1735510246683001e+01 0.0000000000000000e+00
0.0000000000000000e+00 2.2149999999999999e+01 0.0000000000000000e+00
ITEM: ATOMS id type x y z 
8 1 -2.486 5.297 9.849 
87 1 3.001 4.231 10.696 
90 1 2.733 5.481 9.824 
109 1 -2.486 5.297 0.765 
158 1 2.733 5.481 0.79 
11 1 4.24 4.139 20.131 
14 1 3.031 4.094 19.728 
18 1 1.299 5.827 18.554 
33 1 2.266 4.151 20.924 
43 1 4.343 3.96 21.647 
47 1 3.32 5.732 17.88 
52 1 4.24 4.139 12.633 
76 1 2.552 4.924 14.209 
85 1 4.343 3.96 11.117 
89 1 3.32 5.732 14.883 
91 1 1.036 5.037 11.84 
102 1 3.031 4.094 13.035 
105 1 1.299 5.827 14.209 
114 1 2.266 4.151 11.84 
150 1 2.552 4.924 18.554 
156 1 3.001 4.231 22.068 
159 1 1.036 5.037 20.924 
161 2 0.418 3.834 11.88 
162 2 -0.452 2.631 11.567 
163 3 0.214 1.937 11.522 
5 1 -5.049 10.63 8.653 
9 1 -3.317 8.897 7.479 
19 1 -1.707 7.414 10.572 
21 1 -2.66 8.795 10.993 
23 1 -3.31 7.532 6.805 
25 1 -4.284 10.573 9.849 
32 1 1.503 6.367 0.79 
36 1 -1.869 7.426 9.056 
38 1 -2.209 6.086 8.653 
54 1 0.3 8.576 10.696 
57 1 1.291 8.001 9.824 
60 1 -1.707 7.414 0.042 
65 1 -3.31 7.532 3.808 
78 1 -1.869 7.426 1.558 
80 1 -2.566 8.842 1.961 
84 1 -4.57 9.799 3.135 
99 1 -3.054 9.687 0.765 
100 1 -2.96 6.142 3.135 
107 1 -5.049 10.63 1.961 
110 1 -3.317 8.897 3.135 
111 1 0.642 5.929 10.696 
113 1 1.503 6.367 9.824 
119 1 -4.284 10.573 0.765 
127 1 -2.209 6.086 1.961 
131 1 -2.318 6.148 10.993 
138 1 1.291 8.001 0.79 
142 1 -2.566 8.842 8.653 
145 1 -4.57 9.799 7.479 
151 1 -5.019 10.493 10.993 
154 1 -3.054 9.687 9.849 
155 1 -2.96 6.142 7.479 
12 1 2.53 7.1 17.202 
17 1 0.468 9.427 20.924 
24 1 -3.52 8.357 11.865 
27 1 -0.31 7.31 21.647 
29 1 0.642 5.929 22.068 
31 1 1.292 7.192 17.88 
44 1 -0.148 7.298 20.131 
46 1 0.191 8.638 19.728 
51 1 -0.31 7.31 11.117 
53 1 2.53 7.1 15.561 
56 1 1.292 7.192 14.883 
63 1 -2.318 6.148 21.771 
66 1 -3.309 6.723 20.899 
70 1 -0.148 7.298 12.633 
72 1 0.548 5.882 13.035 
92 1 0.942 8.582 14.209 
95 1 -5.019 10.493 21.771 
98 1 -4.751 9.243 20.899 
104 1 0.468 9.427 11.84 
116 1 -2.66 8.795 21.771 
118 1 -3.52 8.357 20.899 
122 1 0.191 8.638 13.035 
133 1 -3.309 6.723 11.865 
136 1 0.3 8.576 22.068 
147 1 0.548 5.882 19.728 
153 1 -4.751 9.243 11.865 
160 1 0.942 8.582 18.554 
1 1 7.976 4.694 10.572 
4 1 9.274 4.77 10.993 
20 1 8.034 4.861 9.056 
42 1 9.55 5.41 7.479 
67 1 10.043 4.578 0.765 
77 1 7.976 4.694 0.042 
94 1 8.035 4.861 1.558 
96 1 9.278 4.635 1.961 
121 1 4.688 5.417 10.696 
130 1 9.55 5.41 3.135 
134 1 10.043 4.578 9.849 
152 1 9.278 4.635 8.653 
45 1 4.688 5.417 22.068 
55 1 4.788 5.329 13.035 
106 1 9.274 4.77 21.771 
137 1 4.788 5.329 19.728 
2 1 7.294 10.585 9.056 
3 1 9.004 7.624 6.127 
6 1 8.556 6.347 6.805 
16 1 2.314 8.72 0.79 
22 1 7.166 6.156 8.653 
26 1 7.226 8.565 7.479 
35 1 7.191 10.764 10.572 
37 1 6.846 9.307 10.993 
39 1 8.214 8.992 6.805 
41 1 6.677 7.002 9.849 
48 1 3.775 6.213 0.79 
61 1 7.294 10.585 1.558 
62 1 9.004 7.624 4.487 
64 1 6.747 9.395 1.961 
68 1 7.437 6.931 3.135 
71 1 4.29 8.493 10.696 
74 1 3.567 7.818 9.824 
81 1 8.556 6.347 3.808 
83 1 6.47 8.606 0.765 
93 1 7.191 10.764 0.042 
97 1 8.214 8.992 3.808 
101 1 2.261 9.954 10.696 
103 1 2.314 8.72 9.824 
117 1 7.166 6.156 1.961 
120 1 7.226 8.565 3.135 
123 1 3.775 6.213 9.824 
129 1 6.677 7.002 0.765 
132 1 6.747 9.395 8.653 
135 1 7.437 6.931 7.479 
141 1 7.244 6.231 10.993 
144 1 6.47 8.606 9.849 
148 1 3.567 7.818 0.79 
7 1 9.22 6.004 11.865 
10 1 3.558 10.029 21.647 
13 1 2.261 9.954 22.068 
15 1 2.978 8.376 17.88 
28 1 3.5 9.862 20.131 
30 1 4.369 8.568 19.728 
34 1 4.308 6.159 18.554 
40 1 7.76 8.511 11.865 
49 1 4.857 7.722 20.924 
50 1 1.984 9.314 18.554 
58 1 1.491 10.146 11.84 
59 1 4.097 7.793 14.209 
69 1 3.558 10.029 11.117 
73 1 2.978 8.376 14.883 
75 1 5.064 6.118 11.84 
79 1 7.244 6.231 21.771 
82 1 7.967 6.906 20.899 
86 1 3.5 9.862 12.633 
88 1 2.256 10.089 13.035 
108 1 9.22 6.004 20.899 
112 1 4.369 8.568 13.035 
115 1 4.308 6.159 14.209 
124 1 4.857 7.722 11.84 
125 1 1.984 9.314 14.209 
126 1 6.846 9.307 21.771 
128 1 7.76 8.511 20.899 
139 1 1.491 10.146 20.924 
140 1 4.097 7.793 18.554 
143 1 7.967 6.906 11.865 
146 1 4.29 8.493 22.068 
149 1 5.064 6.118 20.924 
157 1 2.256 10.089 19.728 
ITEM: TIMESTEP
10
ITEM: NUMBER OF ATOMS
163
ITEM: BOX BOUNDS xy xz yz pp pp pp
-6.7755000000000001e+00 1.3552000000000000e+01 -6.7755000000000001e+00
0.0000000000000000e+00 1.1735510246683001e+01 0.0000000000000000e+00
0.0000000000000000e+00 2.2149999999999999e+01 0.0000000000000000e+00
ITEM: ATOMS id type x y z 
8 1 -2.42047 5.36795 9.84919 
87 1 2.9917 4.27437 10.6366 
90 1 2.63436 5.53306 9.77187 
109 1 -2.41986 5.3751 0.761487 
158 1 2.66179 5.45032 0.841547 
11 1 4.29781 4.19037 20.1485 
14 1 2.91104 4.11167 19.7026 
18 1 1.31944 5.84793 18.5976 
33 1 2.11197 4.25328 20.9119 
43 1 4.31001 4.15515 21.5716 
47 1 3.25299 5.80114 17.8488 
52 1 4.32587 4.20271 12.6244 
76 1 2.42722 4.91102 14.1842 
85 1 4.33096 4.14809 11.1998 
89 1 3.25014 5.79132 14.8992 
91 1 0.845866 4.93882 11.857 
102 1 2.93825 4.12578 13.0709 
105 1 1.31725 5.85697 14.1415 
114 1 2.20305 4.2147 11.8575 
150 1 2.43447 4.897 18.5677 
156 1 2.9694 4.26285 22.1165 
159 1 0.972908 5.10541 20.9031 
161 2 0.374467 3.94198 11.8776 
162 2 -0.464413 2.61942 11.5637 
163 3 0.21869 1.94488 11.5232 
5 1 -4.92471 10.6153 8.6238 
9 1 -3.33386 8.88445 7.53013 
19 1 -1.76932 7.51515 10.5553 
21 1 -2.60917 8.75111 10.9366 
23 1 -3.28689 7.53971 6.82094 
25 1 -4.10717 10.4765 9.77916 
32 1 1.58122 6.33585 0.776272 
36 1 -1.90255 7.5488 9.058 
38 1 -2.14949 6.20638 8.65094 
54 1 0.292325 8.52714 10.6815 
57 1 1.34718 7.97953 9.78258 
60 1 -1.76604 7.50503 0.0573685 
65 1 -3.29762 7.53779 3.78294 
78 1 -1.905 7.54292 1.55724 
80 1 -2.56397 8.78253 1.88851 
84 1 -4.4521 9.81467 3.11794 
99 1 -2.98203 9.61948 0.788605 
100 1 -2.91818 6.24083 3.17258 
107 1 -4.93085 10.6077 2.00174 
110 1 -3.33548 8.87905 3.08893 
111 1 0.589594 5.99283 10.7528 
113 1 1.50186 6.35301 9.83667 
119 1 -4.13001 10.4812 0.780751 
127 1 -2.1526 6.2132 1.96014 
131 1 -2.31563 6.21068 11.0105 
138 1 1.3397 8.00128 0.82376 
142 1 -2.5609 8.78183 8.71971 
145 1 -4.45363 9.81591 7.48702 
151 1 -5.03069 10.4648 11.0941 
154 1 -2.98883 9.63305 9.81987 
155 1 -2.91797 6.22894 7.44121 
12 1 2.58853 7.07817 17.1231 
17 1 0.402387 9.35095 20.9263 
24 1 -3.57635 8.38363 11.8553 
27 1 -0.250759 7.21178 21.6435 
29 1 0.606879 5.96264 22.0034 
31 1 1.29153 7.19759 17.8964 
44 1 -0.117171 7.17834 20.129 
46 1 0.135225 8.51943 19.7267 
51 1 -0.239653 7.20599 11.1197 
53 1 2.58099 7.0691 15.6469 
56 1 1.30981 7.22133 14.864 
63 1 -2.32307 6.21062 21.7614 
66 1 -3.35707 6.72708 20.8665 
70 1 -0.0900899 7.17653 12.649 
72 1 0.542076 5.9699 12.9941 
92 1 0.903802 8.48154 14.2422 
95 1 -5.01539 10.4275 21.7217 
98 1 -4.67412 9.27608 20.8391 
104 1 0.398276 9.34895 11.8538 
116 1 -2.6002 8.76227 21.8437 
118 1 -3.5836 8.38212 20.898 
122 1 0.136595 8.51008 13.0379 
133 1 -3.36292 6.73231 11.9022 
136 1 0.303778 8.51512 22.0811 
147 1 0.55106 5.927 19.799 
153 1 -4.65312 9.22829 11.9582 
160 1 0.900444 8.48367 18.5132 
1 1 7.88612 4.94766 10.518 
4 1 9.18291 4.77143 11.0258 
20 1 7.87257 4.94624 9.07234 
42 1 9.46393 5.41152 7.44276 
67 1 9.98269 4.56174 0.760722 
77 1 7.8855 4.94927 0.0731759 
94 1 7.85204 4.93589 1.55765 
96 1 9.2121 4.64531 1.99078 
121 1 4.72074 5.44904 10.6842 
130 1 9.46275 5.41605 3.17859 
134 1 9.97903 4.56004 9.8524 
152 1 9.18987 4.65125 8.62588 
45 1 4.68429 5.42232 22.0469 
55 1 4.82332 5.49438 13.0594 
106 1 9.18464 4.77229 21.7356 
137 1 4.82659 5.48131 19.691 
2 1 7.23149 10.53 9.06789 
3 1 8.94467 7.66856 6.03397 
6 1 8.53069 6.39699 6.82412 
16 1 2.34455 8.70461 0.840507 
22 1 7.14435 6.1822 8.72517 
26 1 7.18286 8.42553 7.53951 
35 1 7.15615 10.5792 10.4748 
37 1 6.91136 9.34196 10.955 
39 1 8.26834 8.91343 6.77716 
41 1 6.7336 7.01894 9.83109 
48 1 3.72133 6.36212 0.846642 
61 1 7.24122 10.5275 1.55449 
62 1 8.94954 7.66254 4.57238 
64 1 6.71209 9.24379 2.01228 
68 1 7.39385 6.96661 3.05109 
71 1 4.28947 8.54378 10.7762 
74 1 3.64674 7.7522 9.83539 
81 1 8.54169 6.40427 3.78579 
83 1 6.53873 8.42658 0.797469 
93 1 7.21548 10.5991 0.105691 
97 1 8.26635 8.91943 3.83396 
101 1 2.34777 9.93776 10.6524 
103 1 2.34458 8.68301 9.78479 
117 1 7.13886 6.20079 1.8889 
120 1 7.1792 8.43135 3.06854 
123 1 3.78807 6.32759 9.80126 
129 1 6.7388 6.99741 0.788286 
132 1 6.70568 9.23779 8.6212 
135 1 7.39426 6.97347 7.56317 
141 1 7.23845 6.16569 10.9039 
144 1 6.55163 8.44641 9.83648 
148 1 3.633 7.78733 0.78031 
7 1 9.19189 6.02185 11.9172 
10 1 3.64687 9.77652 21.5981 
13 1 2.35024 9.95148 22.0992 
15 1 2.98464 8.30464 17.9078 
28 1 3.66282 9.78679 20.1455 
30 1 4.3949 8.53968 19.7935 
34 1 4.35108 6.3008 18.6173 
40 1 7.77135 8.36097 11.933 
49 1 4.79833 7.71192 20.9112 
50 1 2.08058 9.3035 18.5081 
58 1 1.55471 10.1625 11.8367 
59 1 4.13167 7.76341 14.128 
69 1 3.65598 9.77265 11.1564 
73 1 2.96187 8.29905 14.8463 
75 1 4.98963 6.29003 11.8896 
79 1 7.2413 6.17385 21.853 
82 1 7.90007 6.94032 20.9124 
86 1 3.67557 9.77752 12.6277 
88 1 2.33406 10.0764 13.0629 
108 1 9.18664 6.02417 20.8486 
112 1 4.38658 8.53336 12.9632 
115 1 4.35001 6.28579 14.1318 
124 1 4.79875 7.71684 11.867 
125 1 2.07692 9.30198 14.254 
126 1 6.87179 9.30872 21.7649 
128 1 7.78349 8.35701 20.8427 
139 1 1.55458 10.1619 20.9286 
140 1 4.1267 7.75984 18.623 
143 1 7.90013 6.91603 11.8578 
146 1 4.29624 8.55236 21.9861 
149 1 4.9894 6.28674 20.9093 
157 1 2.34027 10.0757 19.7031 
ITEM: TIMESTEP
20
ITEM: NUMBER OF ATOMS
163
ITEM: BOX BOUNDS xy xz yz pp pp pp
-6.7755000000000001e+00 1.3552000000000000e+01 -6.7755000000000001e+00
0.0000000000000000e+00 1.1735510246683001e+01 0.0000000000000000e+00
0.0000000000000000e+00 2.2149999999999999e+01 0.0000000000000000e+00
ITEM: ATOMS id type x y z 
8 1 -2.42329 5.39825 9.84186 
87 1 2.98046 4.31188 10.6397 
90 1 2.64963 5.53198 9.78161 
109 1 -2.42465 5.39741 0.775994 
158 1 2.66025 5.44166 0.851505 
11 1 4.27687 4.22248 20.1142 
14 1 2.88907 4.1399 19.7007 
18 1 1.30374 5.85784 18.5784 
33 1 2.10346 4.268 20.9066 
43 1 4.29762 4.18746 21.5663 
47 1 3.25227 5.78458 17.8436 
52 1 4.31838 4.214 12.6398 
76 1 2.44029 4.91466 14.1751 
85 1 4.31849 4.19867 11.1955 
89 1 3.24486 5.78243 14.9142 
91 1 0.837093 4.94559 11.8502 
102 1 2.92176 4.13627 13.0685 
105 1 1.30658 5.87368 14.1641 
114 1 2.18866 4.23463 11.8463 
150 1 2.44367 4.91385 18.5811 
156 1 2.9589 4.2723 22.1094 
159 1 0.96448 5.11397 20.9175 
161 2 0.336921 3.93899 11.8773 
162 2 -0.468633 2.61523 11.5626 
163 3 0.220202 1.94541 11.5231 
5 1 -4.90787 10.5851 8.62191 
9 1 -3.321 8.86717 7.50394 
19 1 -1.76521 7.51974 10.5516 
21 1 -2.61909 8.75991 10.962 
23 1 -3.29874 7.53924 6.82299 
25 1 -4.13745 10.4527 9.83356 
32 1 1.6029 6.36232 0.774607 
36 1 -1.88547 7.55563 9.06182 
38 1 -2.15865 6.22646 8.64359 
54 1 0.308321 8.50466 10.6774 
57 1 1.35403 7.97184 9.791 
60 1 -1.76645 7.53309 0.0558912 
65 1 -3.29988 7.54058 3.79056 
78 1 -1.8823 7.55746 1.55592 
80 1 -2.54898 8.78267 1.89879 
84 1 -4.46164 9.80495 3.1123 
99 1 -2.97464 9.62465 0.767184 
100 1 -2.93299 6.26812 3.17265 
107 1 -4.90277 10.5901 1.98848 
110 1 -3.32207 8.86784 3.11019 
111 1 0.576439 5.99122 10.7312 
113 1 1.49959 6.3625 9.84466 
119 1 -4.12551 10.455 0.798421 
127 1 -2.15834 6.22763 1.97007 
131 1 -2.32882 6.22926 11.0129 
138 1 1.36153 7.99216 0.823298 
142 1 -2.55017 8.78957 8.71857 
145 1 -4.46248 9.80227 7.50322 
151 1 -5.00063 10.4092 11.0372 
154 1 -2.98381 9.62835 9.83135 
155 1 -2.93109 6.26943 7.43891 
12 1 2.55975 7.07339 17.1485 
17 1 0.408112 9.32788 20.9114 
24 1 -3.55391 8.36095 11.8482 
27 1 -0.2466 7.19398 21.6308 
29 1 0.612456 5.96401 22.0279 
31 1 1.2822 7.18648 17.9004 
44 1 -0.130463 7.16537 20.1391 
46 1 0.142112 8.49448 19.7184 
51 1 -0.241111 7.19745 11.1181 
53 1 2.55768 7.06564 15.6196 
56 1 1.28317 7.19499 14.8652 
63 1 -2.33193 6.22142 21.7529 
66 1 -3.37557 6.73201 20.8666 
70 1 -0.113738 7.15388 12.6419 
72 1 0.530528 5.9604 12.9864 
92 1 0.915422 8.46834 14.2452 
95 1 -5.03937 10.4115 21.7239 
98 1 -4.66791 9.26101 20.8006 
104 1 0.403439 9.32714 11.8556 
116 1 -2.61346 8.74896 21.8176 
118 1 -3.60343 8.36273 20.9069 
122 1 0.141696 8.50148 13.0517 
133 1 -3.38488 6.75685 11.8965 
136 1 0.311784 8.49937 22.086 
147 1 0.534261 5.93144 19.7943 
153 1 -4.68285 9.22928 11.9411 
160 1 0.915479 8.45498 18.5151 
1 1 7.87414 4.93131 10.5186 
4 1 9.16285 4.79597 11.0201 
20 1 7.84411 4.94198 9.06567 
42 1 9.45879 5.44866 7.43836 
67 1 9.97204 4.57236 0.765605 
77 1 7.87629 4.91814 0.0982836 
94 1 7.84282 4.93473 1.55347 
96 1 9.17076 4.66929 1.9986 
121 1 4.70176 5.4808 10.6744 
130 1 9.46116 5.44284 3.17284 
134 1 9.971 4.57412 9.85409 
152 1 9.16971 4.66468 8.61118 
45 1 4.65753 5.4797 22.0668 
55 1 4.83237 5.50836 13.0659 
106 1 9.16183 4.79022 21.7456 
137 1 4.82446 5.50623 19.7014 
2 1 7.25831 10.5002 9.036 
3 1 8.97602 7.64768 6.0757 
6 1 8.51566 6.39234 6.82124 
16 1 2.36005 8.69455 0.853662 
22 1 7.11042 6.1902 8.71346 
26 1 7.18893 8.41825 7.54041 
35 1 7.21475 10.5813 10.4863 
37 1 6.91723 9.2542 10.9929 
39 1 8.2807 8.93117 6.76699 
41 1 6.72376 7.00526 9.83006 
48 1 3.69974 6.35986 0.834449 
61 1 7.25239 10.5105 1.58347 
62 1 8.97628 7.64715 4.5389 
64 1 6.70417 9.21293 1.99081 
68 1 7.39235 6.9644 3.0616 
71 1 4.31273 8.51292 10.7398 
74 1 3.61209 7.75166 9.81545 
81 1 8.5171 6.39292 3.7868 
83 1 6.55498 8.44251 0.800423 
93 1 7.20325 10.5774 0.142546 
97 1 8.28059 8.93373 3.84556 
101 1 2.37246 9.91083 10.6645 
103 1 2.36468 8.66052 9.77786 
117 1 7.12038 6.18094 1.91092 
120 1 7.19127 8.41411 3.07635 
123 1 3.78476 6.33605 9.80225 
129 1 6.70249 7.02027 0.799704 
132 1 6.71011 9.21804 8.62127 
135 1 7.39446 6.96566 7.55479 
141 1 7.2131 6.19947 10.9368 
144 1 6.55759 8.43568 9.83031 
148 1 3.59311 7.78886 0.803956 
7 1 9.17521 6.03815 11.9251 
10 1 3.66023 9.79745 21.5929 
13 1 2.37201 9.93459 22.0923 
15 1 3.01641 8.33199 17.9043 
28 1 3.6903 9.78529 20.1405 
30 1 4.42399 8.53636 19.7839 
34 1 4.34061 6.30247 18.6122 
40 1 7.78358 8.35855 11.9176 
49 1 4.81047 7.72455 20.9037 
50 1 2.07124 9.28204 18.5172 
58 1 1.56506 10.1456 11.8359 
59 1 4.13482 7.75549 14.1357 
69 1 3.66676 9.79413 11.165 
73 1 3.01026 8.32513 14.8531 
75 1 5.00341 6.30181 11.8761 
79 1 7.20319 6.18859 21.8177 
82 1 7.94012 6.93128 20.8718 
86 1 3.69122 9.78959 12.6195 
88 1 2.36428 10.0574 13.0696 
108 1 9.17889 6.02667 20.8345 
112 1 4.41355 8.54429 12.9865 
115 1 4.33715 6.30788 14.1476 
124 1 4.82641 7.72636 11.8641 
125 1 2.06963 9.2922 14.2434 
126 1 6.91336 9.2871 21.7625 
128 1 7.8458 8.36127 20.825 
139 1 1.56472 10.1479 20.9233 
140 1 4.13854 7.76392 18.6287 
143 1 7.93163 6.942 11.8805 
146 1 4.32598 8.51976 22.0153 
149 1 4.98504 6.28913 20.9056 
157 1 2.36486 10.0568 19.6913 
ITEM: TIMESTEP
30
ITEM: NUMBER OF ATOMS
163
ITEM: BOX BOUNDS xy xz yz pp pp pp
-6.7755000000000001e+00 1.3552000000000000e+01 -6.7755000000000001e+00
0.0000000000000000e+00 1.1735510246683001e+01 0.0000000000000000e+00
0.0000000000000000e+00 2.2149999999999999e+01 0.0000000000000000e+00
ITEM: ATOMS id type x y z 
8 1 -2.43476 5.41356 9.83916 
87 1 2.98021 4.32634 10.6411 
90 1 2.64551 5.53474 9.77794 
109 1 -2.43446 5.41275 0.779869 
158 1 2.65122 5.44415 0.852457 
11 1 4.27004 4.23414 20.1143 
14 1 2.87934 4.15331 19.7052 
18 1 1.29333 5.85184 18.5717 
33 1 2.09055 4.27379 20.9023 
43 1 4.28582 4.21476 21.5551 
47 1 3.24725 5.79637 17.8342 
52 1 4.31554 4.22688 12.6387 
76 1 2.43616 4.92598 14.1741 
85 1 4.30866 4.22439 11.2065 
89 1 3.23827 5.79053 14.9228 
91 1 0.820733 4.94444 11.844 
102 1 2.91378 4.14587 13.0613 
105 1 1.2987 5.86467 14.1629 
114 1 2.18132 4.24602 11.849 
150 1 2.43718 4.92444 18.5785 
156 1 2.94927 4.28029 22.115 
159 1 0.955616 5.12389 20.9231 
161 2 0.309018 3.94304 11.877 
162 2 -0.471946 2.6115 11.5617 
163 3 0.221289 1.94613 11.5231 
5 1 -4.90151 10.5702 8.62203 
9 1 -3.31199 8.87068 7.4969 
19 1 -1.76175 7.5226 10.5535 
21 1 -2.60309 8.7764 10.9639 
23 1 -3.29631 7.54056 6.82172 
25 1 -4.12025 10.4426 9.83892 
32 1 1.60271 6.37156 0.782709 
36 1 -1.87561 7.56677 9.06249 
38 1 -2.15787 6.23983 8.64122 
54 1 0.315446 8.49648 10.6784 
57 1 1.35736 7.96165 9.79391 
60 1 -1.76746 7.53581 0.0554715 
65 1 -3.29585 7.54059 3.79199 
78 1 -1.87344 7.56806 1.55157 
80 1 -2.54047 8.79613 1.8941 
84 1 -4.45501 9.79684 3.10893 
99 1 -2.97107 9.60613 0.766378 
100 1 -2.93528 6.28045 3.17138 
107 1 -4.8965 10.5723 1.98855 
110 1 -3.31111 8.87251 3.11548 
111 1 0.563439 5.98733 10.7271 
113 1 1.49456 6.37045 9.8452 
119 1 -4.12624 10.4356 0.777352 
127 1 -2.15685 6.24081 1.97213 
131 1 -2.33693 6.24017 11.0116 
138 1 1.36929 7.98359 0.822537 
142 1 -2.54141 8.80003 8.71858 
145 1 -4.45572 9.79537 7.50269 
151 1 -4.97206 10.4058 11.0354 
154 1 -2.97278 9.60949 9.83902 
155 1 -2.93438 6.27962 7.44174 
12 1 2.56224 7.07426 17.1503 
17 1 0.417445 9.31074 20.9083 
24 1 -3.55101 8.35255 11.8584 
27 1 -0.246033 7.18519 21.6357 
29 1 0.60454 5.9634 22.0378 
31 1 1.27957 7.18277 17.8964 
44 1 -0.141576 7.155 20.1403 
46 1 0.140711 8.48262 19.7168 
51 1 -0.244251 7.18713 11.1161 
53 1 2.55362 7.07278 15.6125 
56 1 1.2753 7.19288 14.8682 
63 1 -2.33557 6.23608 21.7542 
66 1 -3.38715 6.74254 20.8662 
70 1 -0.124861 7.14401 12.6453 
72 1 0.523683 5.95872 12.9854 
92 1 0.916997 8.45481 14.2464 
95 1 -4.9837 10.4206 21.7312 
98 1 -4.66957 9.27064 20.8194 
104 1 0.412076 9.31051 11.8574 
116 1 -2.61756 8.761 21.8082 
118 1 -3.60747 8.35087 20.9007 
122 1 0.142831 8.48924 13.051 
133 1 -3.39387 6.77463 11.8967 
136 1 0.319307 8.48852 22.0864 
147 1 0.520832 5.92625 19.7908 
153 1 -4.67404 9.2156 11.9277 
160 1 0.918284 8.44409 18.5167 
1 1 7.84852 4.94616 10.5247 
4 1 9.15064 4.81753 11.0162 
20 1 7.82407 4.94232 9.06409 
42 1 9.45062 5.45829 7.44291 
67 1 9.95888 4.58713 0.772542 
77 1 7.86707 4.93099 0.108418 
94 1 7.82299 4.93717 1.54756 
96 1 9.15998 4.67975 1.99737 
121 1 4.70259 5.50649 10.6707 
130 1 9.45206 5.45827 3.17187 
134 1 9.95906 4.58933 9.84242 
152 1 9.16252 4.6813 8.6158 
45 1 4.64781 5.50114 22.0765 
55 1 4.83397 5.5283 13.0679 
106 1 9.14789 4.79919 21.7526 
137 1 4.81957 5.5209 19.6968 
2 1 7.26622 10.4912 9.04572 
3 1 8.9727 7.64795 6.07578 
6 1 8.51076 6.39385 6.81512 
16 1 2.36398 8.69769 0.862882 
22 1 7.09452 6.18338 8.7008 
26 1 7.19388 8.41436 7.53287 
35 1 7.2484 10.5394 10.4906 
37 1 6.88645 9.21739 11.0072 
39 1 8.28564 8.92254 6.75927 
41 1 6.71568 6.99182 9.83714 
48 1 3.70046 6.35294 0.838499 
61 1 7.26075 10.4955 1.58331 
62 1 8.97299 7.64782 4.53669 
64 1 6.71105 9.20389 1.9964 
68 1 7.38495 6.95822 3.06394 
71 1 4.31783 8.51217 10.7411 
74 1 3.61437 7.76183 9.81132 
81 1 8.51298 6.39167 3.79792 
83 1 6.56691 8.42208 0.784151 
93 1 7.22981 10.5257 0.142146 
97 1 8.28539 8.92464 3.85341 
101 1 2.38581 9.89158 10.6721 
103 1 2.37054 8.65725 9.77224 
117 1 7.09347 6.18825 1.91027 
120 1 7.19398 8.41363 3.07968 
123 1 3.78614 6.33791 9.79767 
129 1 6.70867 7.00503 0.797918 
132 1 6.7149 9.2027 8.6213 
135 1 7.38669 6.96003 7.55204 
141 1 7.21501 6.20138 10.9474 
144 1 6.55619 8.41458 9.81748 
148 1 3.59177 7.79876 0.806971 
7 1 9.1706 6.04108 11.9279 
10 1 3.68304 9.78088 21.5949 
13 1 2.38761 9.92004 22.085 
15 1 3.02266 8.33123 17.8934 
28 1 3.71118 9.78276 20.1413 
30 1 4.44056 8.5428 19.7752 
34 1 4.33718 6.30874 18.6088 
40 1 7.7683 8.36967 11.9104 
49 1 4.82086 7.73533 20.9079 
50 1 2.08204 9.26794 18.5191 
58 1 1.57708 10.1315 11.8432 
59 1 4.14293 7.76225 14.1361 
69 1 3.69427 9.77786 11.1589 
73 1 3.01758 8.32979 14.868 
75 1 5.00254 6.31842 11.8785 
79 1 7.18217 6.2122 21.804 
82 1 7.95767 6.92986 20.8715 
86 1 3.70906 9.78243 12.6188 
88 1 2.37564 10.0457 13.0665 
108 1 9.17298 6.0265 20.8224 
112 1 4.43412 8.54969 12.9896 
115 1 4.33312 6.30975 14.152 
124 1 4.83121 7.73889 11.8574 
125 1 2.08435 9.27511 14.2425 
126 1 6.89024 9.23245 21.7734 
128 1 7.84687 8.3629 20.8338 
139 1 1.57522 10.1362 20.9154 
140 1 4.14663 7.76519 18.627 
143 1 7.92761 6.94214 11.8855 
146 1 4.32839 8.52225 22.0272 
149 1 4.97759 6.31031 20.8951 
157 1 2.3743 10.0432 19.6911 
ITEM: TIMESTEP
40
ITEM: NUMBER OF ATOMS
163
ITEM: BOX BOUNDS xy xz yz pp pp pp
-6.7755000000000001e+00 1.3552000000000000e+01 -6.7755000000000001e+00
0.0000000000000000e+00 1.1735510246683001e+01 0.0000000000000000e+00
0.0000000000000000e+00 2.2149999999999999e+01 0.0000000000000000e+00
ITEM: ATOMS id type x y z 
8 1 -2.45191 5.44301 9.83263 
87 1 2.97083 4.35506 10.6441 
90 1 2.63861 5.5464 9.76613 
109 1 -2.45307 5.44151 0.784683 
158 1 2.63649 5.44273 0.866847 
11 1 4.25801 4.25853 20.1035 
14 1 2.86118 4.17493 19.7107 
18 1 1.2769 5.84589 18.56 
33 1 2.07146 4.28622 20.9066 
43 1 4.2645 4.2568 21.5425 
47 1 3.23592 5.8026 17.824 
52 1 4.3088 4.25756 12.6509 
76 1 2.42869 4.93579 14.1735 
85 1 4.30112 4.26788 11.2203 
89 1 3.22852 5.79624 14.9294 
91 1 0.795242 4.93747 11.8335 
102 1 2.90151 4.16528 13.0507 
105 1 1.28181 5.8572 14.1668 
114 1 2.16406 4.26877 11.8461 
150 1 2.41997 4.93571 18.573 
156 1 2.93868 4.29844 22.1141 
159 1 0.935868 5.13629 20.9293 
161 2 0.259969 3.95242 11.8759 
162 2 -0.478889 2.60358 11.5597 
163 3 0.223592 1.9476 11.5232 
5 1 -4.88265 10.5478 8.63562 
9 1 -3.29664 8.87717 7.48515 
19 1 -1.75762 7.54063 10.5575 
21 1 -2.56485 8.7857 10.9848 
23 1 -3.29793 7.53998 6.81675 
25 1 -4.08918 10.4309 9.83035 
32 1 1.59474 6.38385 0.801403 
36 1 -1.85458 7.58933 9.06044 
38 1 -2.15186 6.26385 8.64114 
54 1 0.324445 8.47962 10.6789 
57 1 1.36298 7.95005 9.79345 
60 1 -1.76698 7.55462 0.0501895 
65 1 -3.29624 7.54121 3.79545 
78 1 -1.85238 7.58864 1.54961 
80 1 -2.51478 8.80719 1.90905 
84 1 -4.43942 9.79049 3.11531 
99 1 -2.95071 9.58639 0.756773 
100 1 -2.93405 6.2899 3.16801 
107 1 -4.88709 10.5504 1.98109 
110 1 -3.29487 8.87575 3.12737 
111 1 0.538756 5.9739 10.7189 
113 1 1.48161 6.37515 9.84147 
119 1 -4.09429 10.4282 0.788558 
127 1 -2.15098 6.26386 1.97181 
131 1 -2.35194 6.25903 11.0111 
138 1 1.38169 7.97692 0.826606 
142 1 -2.51747 8.80947 8.70521 
145 1 -4.44163 9.78825 7.49652 
151 1 -4.95556 10.3677 11.0437 
154 1 -2.95123 9.596 9.84719 
155 1 -2.93518 6.28876 7.44562 
12 1 2.56858 7.07021 17.1466 
17 1 0.435334 9.28092 20.9033 
24 1 -3.52076 8.34253 11.8723 
27 1 -0.248739 7.16755 21.6417 
29 1 0.587972 5.96209 22.0542 
31 1 1.28018 7.18241 17.8921 
44 1 -0.162768 7.13426 20.1401 
46 1 0.134695 8.45889 19.7163 
51 1 -0.25314 7.17043 11.1177 
53 1 2.55382 7.0724 15.6093 
56 1 1.27213 7.19332 14.8695 
63 1 -2.35254 6.25491 21.7538 
66 1 -3.40054 6.75458 20.8629 
70 1 -0.148647 7.12536 12.6474 
72 1 0.507645 5.94817 12.983 
92 1 0.917999 8.44352 14.2452 
95 1 -4.96292 10.427 21.714 
98 1 -4.65645 9.28342 20.8272 
104 1 0.42927 9.28491 11.8629 
116 1 -2.60379 8.76168 21.7836 
118 1 -3.61043 8.34054 20.8837 
122 1 0.139898 8.46725 13.0524 
133 1 -3.4035 6.79218 11.9008 
136 1 0.333268 8.47042 22.0863 
147 1 0.49638 5.9158 19.7813 
153 1 -4.65973 9.19527 11.9294 
160 1 0.918764 8.43288 18.5211 
1 1 7.80612 4.94888 10.5281 
4 1 9.12556 4.85346 11.0103 
20 1 7.79049 4.94536 9.0618 
42 1 9.43999 5.47147 7.44809 
67 1 9.93765 4.61586 0.780545 
77 1 7.84078 4.95949 0.110423 
94 1 7.78663 4.94232 1.55316 
96 1 9.1276 4.70033 1.99932 
121 1 4.69825 5.53608 10.6649 
130 1 9.44016 5.47333 3.168 
134 1 9.94143 4.61699 9.8373 
152 1 9.12936 4.70667 8.61863 
45 1 4.62557 5.53333 22.081 
55 1 4.83322 5.55161 13.0721 
106 1 9.12542 4.81686 21.7584 
137 1 4.81375 5.54274 19.6903 
2 1 7.28241 10.4607 9.05049 
3 1 8.96679 7.6525 6.07418 
6 1 8.50368 6.39478 6.80836 
16 1 2.37321 8.70403 0.877528 
22 1 7.0608 6.16572 8.68628 
26 1 7.19641 8.39817 7.52221 
35 1 7.27712 10.4768 10.4914 
37 1 6.86618 9.192 11.0227 
39 1 8.29652 8.92097 6.74979 
41 1 6.69203 6.97117 9.83254 
48 1 3.69191 6.35954 0.857293 
61 1 7.27522 10.4643 1.58081 
62 1 8.9652 7.65391 4.5408 
64 1 6.71675 9.18282 2.00319 
68 1 7.36954 6.95054 3.07306 
71 1 4.33501 8.5135 10.7305 
74 1 3.62547 7.77112 9.78879 
81 1 8.50661 6.39513 3.80656 
83 1 6.55805 8.38573 0.807385 
93 1 7.27196 10.4485 0.136567 
97 1 8.29884 8.92126 3.86332 
101 1 2.41309 9.85848 10.681 
103 1 2.38088 8.65135 9.76432 
117 1 7.05477 6.17184 1.932 
120 1 7.197 8.40088 3.09314 
123 1 3.785 6.34824 9.78017 
129 1 6.69823 6.97572 0.793443 
132 1 6.72217 9.17978 8.62074 
135 1 7.37216 6.95302 7.54048 
141 1 7.20491 6.20647 10.9629 
144 1 6.54492 8.38623 9.80249 
148 1 3.59311 7.80667 0.827192 
7 1 9.15554 6.05248 11.9327 
10 1 3.71953 9.76966 21.5945 
13 1 2.41306 9.89795 22.0761 
15 1 3.02974 8.32732 17.8813 
28 1 3.74594 9.78151 20.1368 
30 1 4.47722 8.55703 19.7619 
34 1 4.33494 6.32577 18.5953 
40 1 7.74877 8.36888 11.9146 
49 1 4.8442 7.76 20.9077 
50 1 2.0938 9.25054 18.5224 
58 1 1.59505 10.1037 11.8496 
59 1 4.15768 7.77203 14.1447 
69 1 3.73957 9.77621 11.1522 
73 1 3.02717 8.32908 14.8818 
75 1 5.01049 6.34191 11.8806 
79 1 7.15925 6.2112 21.7746 
82 1 7.97016 6.91918 20.8613 
86 1 3.74408 9.77768 12.6216 
88 1 2.40664 10.0216 13.0666 
108 1 9.16954 6.01495 20.8021 
112 1 4.4722 8.56216 13.0038 
115 1 4.32743 6.32596 14.165 
124 1 4.85474 7.75833 11.8576 
125 1 2.0986 9.25804 14.2382 
126 1 6.89831 9.191 21.7516 
128 1 7.84363 8.36739 20.8335 
139 1 1.59288 10.1105 20.9075 
140 1 4.16103 7.77208 18.6172 
143 1 7.91603 6.94599 11.9088 
146 1 4.346 8.52464 22.0437 
149 1 4.96158 6.33503 20.8884 
157 1 2.40631 10.0199 19.6912 
ITEM: TIMESTEP
50
ITEM: NUMBER OF ATOMS
163
ITEM: BOX BOUNDS xy xz yz pp pp pp
-6.7755000000000001e+00 1.3552000000000000e+01 -6.7755000000000001e+00
0.0000000000000000e+00 1.1735510246683001e+01 0.0000000000000000e+00
0.0000000000000000e+00 2.2149999999999999e+01 0.0000000000000000e+00
ITEM: ATOMS id type x y z 
8 1 -2.48605 5.49883 9.8269 
87 1 2.95371 4.40919 10.6437 
90 1 2.62988 5.59073 9.73849 
109 1 -2.49405 5.49526 0.792863 
158 1 2.61791 5.46889 0.90919 
11 1 4.22697 4.31502 20.0898 
14 1 2.82156 4.19805 19.7144 
18 1 1.24871 5.85427 18.5458 
33 1 2.04415 4.31551 20.9232 
43 1 4.22893 4.31876 21.5213 
47 1 3.21704 5.78917 17.8362 
52 1 4.28585 4.31869 12.6602 
76 1 2.3918 4.92912 14.1781 
85 1 4.276 4.32654 11.2439 
89 1 3.20966 5.78912 14.9108 
91 1 0.745008 4.92349 11.8222 
102 1 2.86763 4.19145 13.036 
105 1 1.25548 5.86159 14.1728 
114 1 2.14023 4.30617 11.8321 
150 1 2.37876 4.92619 18.5616 
156 1 2.90735 4.34449 22.1246 
159 1 0.886386 5.1441 20.9353 
161 2 0.167922 3.96983 11.8722 
162 2 -0.496247 2.58272 11.5546 
163 3 0.229341 1.95116 11.5232 
5 1 -4.84092 10.5166 8.64986 
9 1 -3.27489 8.86938 7.46494 
19 1 -1.75132 7.58064 10.5498 
21 1 -2.50604 8.8112 11.0021 
23 1 -3.3028 7.53555 6.81579 
25 1 -4.06797 10.3944 9.87514 
32 1 1.55554 6.37532 0.84339 
36 1 -1.80826 7.62691 9.04604 
38 1 -2.13697 6.30666 8.63846 
54 1 0.343357 8.44205 10.6833 
57 1 1.37268 7.93904 9.78247 
60 1 -1.75675 7.58372 0.0490757 
65 1 -3.30091 7.53546 3.80228 
78 1 -1.81029 7.62907 1.56026 
80 1 -2.46944 8.83279 1.92148 
84 1 -4.39553 9.8011 3.12301 
99 1 -2.90421 9.57379 0.761492 
100 1 -2.93047 6.28771 3.15923 
107 1 -4.84516 10.519 1.97395 
110 1 -3.27084 8.87157 3.14404 
111 1 0.500207 5.94845 10.6992 
113 1 1.44201 6.36471 9.82287 
119 1 -4.07508 10.4155 0.74626 
127 1 -2.13836 6.3076 1.96904 
131 1 -2.37235 6.29489 11.0077 
138 1 1.40392 7.97569 0.849284 
142 1 -2.47433 8.83498 8.68609 
145 1 -4.40078 9.80158 7.49515 
151 1 -4.93317 10.2909 11.0325 
154 1 -2.87834 9.58645 9.85204 
155 1 -2.93307 6.28691 7.45304 
12 1 2.57534 7.05983 17.144 
17 1 0.470768 9.22508 20.8962 
24 1 -3.46306 8.34064 11.9129 
27 1 -0.259699 7.14187 21.6374 
29 1 0.564839 5.95372 22.0768 
31 1 1.28456 7.18926 17.8869 
44 1 -0.207832 7.09254 20.133 
46 1 0.12047 8.41641 19.721 
51 1 -0.264096 7.1363 11.1292 
53 1 2.5621 7.05536 15.6109 
56 1 1.28139 7.19729 14.8632 
63 1 -2.38094 6.29482 21.7576 
66 1 -3.42003 6.74295 20.8347 
70 1 -0.190669 7.08408 12.6567 
72 1 0.470949 5.9224 12.9886 
92 1 0.913374 8.44895 14.2372 
95 1 -4.9334 10.3642 21.7323 
98 1 -4.62807 9.26172 20.7574 
104 1 0.461596 9.22961 11.8725 
116 1 -2.57848 8.77103 21.7637 
118 1 -3.56619 8.35856 20.8419 
122 1 0.124941 8.43033 13.0518 
133 1 -3.4054 6.80132 11.9206 
136 1 0.364944 8.43108 22.0853 
147 1 0.454752 5.89092 19.763 
153 1 -4.63387 9.11471 11.9823 
160 1 0.912659 8.43387 18.5294 
1 1 7.71487 4.92074 10.5384 
4 1 9.06461 4.91222 10.9995 
20 1 7.71847 4.95202 9.06675 
42 1 9.42515 5.48838 7.4618 
67 1 9.88797 4.67558 0.793605 
77 1 7.78639 4.97289 0.117391 
94 1 7.70924 4.94231 1.55912 
96 1 9.06757 4.73445 1.99887 
121 1 4.67772 5.5917 10.6658 
130 1 9.43108 5.49283 3.15972 
134 1 9.8929 4.68701 9.83348 
152 1 9.06861 4.74152 8.62692 
45 1 4.58563 5.58917 22.0719 
55 1 4.83753 5.61166 13.0877 
106 1 9.08479 4.84255 21.7627 
137 1 4.80379 5.59623 19.6684 
2 1 7.30836 10.4115 9.02227 
3 1 8.95368 7.66488 6.0741 
6 1 8.49366 6.40091 6.80874 
16 1 2.39982 8.70748 0.902999 
22 1 6.9868 6.13992 8.64999 
26 1 7.20896 8.37602 7.49864 
35 1 7.30574 10.4091 10.4498 
37 1 6.88045 9.1449 11.0228 
39 1 8.30677 8.93477 6.76584 
41 1 6.64169 6.93179 9.82953 
48 1 3.65498 6.38173 0.909849 
61 1 7.30492 10.3963 1.60774 
62 1 8.96106 7.66361 4.53932 
64 1 6.72184 9.12236 2.00602 
68 1 7.33823 6.92973 3.09918 
71 1 4.38223 8.50501 10.7156 
74 1 3.66314 7.79675 9.74608 
81 1 8.48806 6.40216 3.80476 
83 1 6.56722 8.35823 0.777137 
93 1 7.27375 10.4406 0.185468 
97 1 8.31357 8.93681 3.85358 
101 1 2.47698 9.81276 10.7007 
103 1 2.409 8.63185 9.75036 
117 1 6.96785 6.14483 1.95336 
120 1 7.20681 8.37691 3.12612 
123 1 3.78476 6.37078 9.73504 
129 1 6.64564 6.93108 0.810594 
132 1 6.72959 9.1227 8.61048 
135 1 7.33775 6.91514 7.52319 
141 1 7.16337 6.21961 10.9562 
144 1 6.52053 8.3636 9.8187 
148 1 3.61417 7.8303 0.86548 
7 1 9.1137 6.08945 11.9409 
10 1 3.77492 9.77444 21.5818 
13 1 2.46755 9.87345 22.0626 
15 1 3.04303 8.32317 17.884 
28 1 3.82821 9.78474 20.1331 