LAMMPS (3 Mar 2020)
Reading data file ...
  orthogonal box = (0 0 0) to (9.898 9.898 9.898)
  2 by 2 by 2 MPI processor grid
  reading atoms ...
  41 atoms
  read_data CPU = 0.0488405 secs
WARNING: Using 'neigh_modify every 1 delay 0 check yes' setting during minimization (../min.cpp:190)
WARNING: Total cutoff < 2*bond cutoff. May need to use an increased neighbor list skin. (../pair_reaxc.cpp:413)
Neighbor list info ...
  update every 1 steps, delay 0 steps, check yes
  max neighbors/atom: 2000, page size: 100000
  master list distance cutoff = 9.5
  ghost atom cutoff = 9.5
  binsize = 4.75, bins = 3 3 3
  2 neighbor lists, perpetual/occasional/extra = 2 0 0
  (1) pair reax/c, perpetual
      attributes: half, newton off, ghost
      pair build: half/bin/newtoff/ghost
      stencil: half/ghost/bin/3d/newtoff
      bin: standard
  (2) fix qeq/reax, perpetual, copy from (1)
      attributes: half, newton off, ghost
      pair build: copy
      stencil: none
      bin: none
Setting up cg style minimization ...
  Unit style    : real
  Current step  : 0
Per MPI rank memory allocation (min/avg/max) = 18.17 | 18.26 | 18.43 Mbytes
Step Temp E_pair E_mol TotEng Press 
       0            0   -7176.7718            0   -7176.7718    43662.171 
     219            0   -7458.9977            0   -7458.9977    2355.9131 
Loop time of 4.18021 on 8 procs for 219 steps with 41 atoms

99.4% CPU use with 8 MPI tasks x no OpenMP threads

Minimization stats:
  Stopping criterion = energy tolerance
  Energy initial, next-to-last, final = 
        -7176.77176116     -7458.99766466     -7458.99771316
  Force two-norm initial, final = 865.367 24.3906
  Force max component initial, final = 376.211 9.55474
  Final line search alpha, max atom move = 0.000305532 0.00291928
  Iterations, force evaluations = 219 1514

MPI task timing breakdown:
Section |  min time  |  avg time  |  max time  |%varavg| %total
---------------------------------------------------------------
Pair    | 2.5125     | 2.6228     | 2.7952     |   5.2 | 62.74
Neigh   | 0.00066142 | 0.00067676 | 0.00069012 |   0.0 |  0.02
Comm    | 0.06201    | 0.2352     | 0.34599    |  17.6 |  5.63
Output  | 0.0004008  | 0.00059344 | 0.00090854 |   0.0 |  0.01
Modify  | 1.3088     | 1.3095     | 1.3099     |   0.0 | 31.33
Other   |            | 0.01142    |            |       |  0.27

Nlocal:    5.125 ave 6 max 5 min
Histogram: 7 0 0 0 0 0 0 0 0 1
Nghost:    567.5 ave 576 max 562 min
Histogram: 4 0 0 0 0 0 0 3 0 1
Neighs:    767.625 ave 898 max 745 min
Histogram: 7 0 0 0 0 0 0 0 0 1

Total # of neighbors = 6141
Ave neighs/atom = 149.78
Neighbor list builds = 1
Dangerous builds = 0
WARNING: Using 'neigh_modify every 1 delay 0 check yes' setting during minimization (../min.cpp:190)
WARNING: Total cutoff < 2*bond cutoff. May need to use an increased neighbor list skin. (../pair_reaxc.cpp:413)
Setting up cg style minimization ...
  Unit style    : real
  Current step  : 219
Per MPI rank memory allocation (min/avg/max) = 18.17 | 18.26 | 18.43 Mbytes
Step Temp E_pair E_mol TotEng Press 
     219            0   -7458.9977            0   -7458.9977    2355.9131 
     227            0   -7459.0523            0   -7459.0523    281.78727 
Loop time of 0.210828 on 8 procs for 8 steps with 41 atoms

99.4% CPU use with 8 MPI tasks x no OpenMP threads

Minimization stats:
  Stopping criterion = energy tolerance
  Energy initial, next-to-last, final = 
        -7458.99771316      -7459.0522937      -7459.0523333
  Force two-norm initial, final = 24.3906 61.3203
  Force max component initial, final = 9.55474 30.437
  Final line search alpha, max atom move = 4.23343e-06 0.000128853
  Iterations, force evaluations = 8 77

MPI task timing breakdown:
Section |  min time  |  avg time  |  max time  |%varavg| %total
---------------------------------------------------------------
Pair    | 0.1288     | 0.13538    | 0.14556    |   1.4 | 64.22
Neigh   | 0          | 0          | 0          |   0.0 |  0.00
Comm    | 0.0030268  | 0.013245   | 0.019852   |   4.4 |  6.28
Output  | 1.9006e-05 | 2.966e-05  | 3.8151e-05 |   0.0 |  0.01
Modify  | 0.061533   | 0.061564   | 0.061592   |   0.0 | 29.20
Other   |            | 0.0006038  |            |       |  0.29

Nlocal:    5.125 ave 6 max 5 min
Histogram: 7 0 0 0 0 0 0 0 0 1
Nghost:    570.625 ave 585 max 562 min
Histogram: 3 1 0 0 1 0 2 0 0 1
Neighs:    765.375 ave 893 max 744 min
Histogram: 7 0 0 0 0 0 0 0 0 1

Total # of neighbors = 6123
Ave neighs/atom = 149.341
Neighbor list builds = 0
Dangerous builds = 0
WARNING: Using 'neigh_modify every 1 delay 0 check yes' setting during minimization (../min.cpp:190)
WARNING: Total cutoff < 2*bond cutoff. May need to use an increased neighbor list skin. (../pair_reaxc.cpp:413)
Setting up cg style minimization ...
  Unit style    : real
  Current step  : 227
WARNING: Energy due to 3 extra global DOFs will be included in minimizer energies
Per MPI rank memory allocation (min/avg/max) = 18.17 | 18.26 | 18.43 Mbytes
Step Temp E_pair E_mol TotEng Press Volume 
     227            0   -7459.0523            0   -7459.0523    281.78727    969.71106 
     591            0   -7461.1861            0   -7461.1861   -25.003349    969.47003 
Loop time of 1.34873 on 8 procs for 364 steps with 41 atoms

99.4% CPU use with 8 MPI tasks x no OpenMP threads

Minimization stats:
  Stopping criterion = energy tolerance
  Energy initial, next-to-last, final = 
         -7459.0523333     -7461.18600737     -7461.18606666
  Force two-norm initial, final = 66.2338 13.4729
  Force max component initial, final = 30.437 6.77206
  Final line search alpha, max atom move = 2.17053e-05 0.00014699
  Iterations, force evaluations = 364 548

MPI task timing breakdown:
Section |  min time  |  avg time  |  max time  |%varavg| %total
---------------------------------------------------------------
Pair    | 0.91645    | 0.96197    | 1.0311     |   3.5 | 71.32
Neigh   | 0          | 0          | 0          |   0.0 |  0.00
Comm    | 0.022631   | 0.09193    | 0.1375     |  11.4 |  6.82
Output  | 0.00061937 | 0.00081652 | 0.0011275  |   0.0 |  0.06
Modify  | 0.28097    | 0.28117    | 0.28136    |   0.0 | 20.85
Other   |            | 0.01284    |            |       |  0.95

Nlocal:    5.125 ave 6 max 5 min
Histogram: 7 0 0 0 0 0 0 0 0 1
Nghost:    570.625 ave 585 max 562 min
Histogram: 3 1 0 0 1 0 2 0 0 1
Neighs:    765.375 ave 893 max 744 min
Histogram: 7 0 0 0 0 0 0 0 0 1

Total # of neighbors = 6123
Ave neighs/atom = 149.341
Neighbor list builds = 0
Dangerous builds = 0
WARNING: Using 'neigh_modify every 1 delay 0 check yes' setting during minimization (../min.cpp:190)
WARNING: Total cutoff < 2*bond cutoff. May need to use an increased neighbor list skin. (../pair_reaxc.cpp:413)
Setting up cg style minimization ...
  Unit style    : real
  Current step  : 591
Per MPI rank memory allocation (min/avg/max) = 18.17 | 18.26 | 18.43 Mbytes
Step Temp E_pair E_mol TotEng Press 
     591            0   -7461.1861            0   -7461.1861   -25.003349 
     606            0   -7461.2082            0   -7461.2082    10.629711 
Loop time of 0.497124 on 8 procs for 15 steps with 41 atoms

99.4% CPU use with 8 MPI tasks x no OpenMP threads

Minimization stats:
  Stopping criterion = energy tolerance
  Energy initial, next-to-last, final = 
        -7461.18606666     -7461.20819023     -7461.20820184
  Force two-norm initial, final = 13.4562 13.5306
  Force max component initial, final = 6.77206 6.30017
  Final line search alpha, max atom move = 8.15382e-06 5.13705e-05
  Iterations, force evaluations = 15 189

MPI task timing breakdown:
Section |  min time  |  avg time  |  max time  |%varavg| %total
---------------------------------------------------------------
Pair    | 0.3201     | 0.33367    | 0.35404    |   1.8 | 67.12
Neigh   | 0          | 0          | 0          |   0.0 |  0.00
Comm    | 0.007345   | 0.027801   | 0.041405   |   6.1 |  5.59
Output  | 2.139e-05  | 2.7572e-05 | 3.715e-05  |   0.0 |  0.01
Modify  | 0.13422    | 0.13428    | 0.13434    |   0.0 | 27.01
Other   |            | 0.001341   |            |       |  0.27

Nlocal:    5.125 ave 6 max 5 min
Histogram: 7 0 0 0 0 0 0 0 0 1
Nghost:    567.5 ave 576 max 562 min
Histogram: 4 0 0 0 0 0 0 3 0 1
Neighs:    770.125 ave 895 max 749 min
Histogram: 7 0 0 0 0 0 0 0 0 1

Total # of neighbors = 6161
Ave neighs/atom = 150.268
Neighbor list builds = 0
Dangerous builds = 0
WARNING: Using 'neigh_modify every 1 delay 0 check yes' setting during minimization (../min.cpp:190)
WARNING: Total cutoff < 2*bond cutoff. May need to use an increased neighbor list skin. (../pair_reaxc.cpp:413)
Setting up cg style minimization ...
  Unit style    : real
  Current step  : 606
WARNING: Energy due to 3 extra global DOFs will be included in minimizer energies
Per MPI rank memory allocation (min/avg/max) = 18.17 | 18.26 | 18.43 Mbytes
Step Temp E_pair E_mol TotEng Press Volume 
     606            0   -7461.2082            0   -7461.2082    10.629711    969.47003 
     621            0   -7461.2268            0   -7461.2268    439.49465    969.40913 
Loop time of 0.140924 on 8 procs for 15 steps with 41 atoms

99.3% CPU use with 8 MPI tasks x no OpenMP threads

Minimization stats:
  Stopping criterion = energy tolerance
  Energy initial, next-to-last, final = 
        -7461.20820184     -7461.22676301      -7461.2268015
  Force two-norm initial, final = 13.5458 19.8955
  Force max component initial, final = 6.30017 8.15493
  Final line search alpha, max atom move = 5.0075e-06 4.08358e-05
  Iterations, force evaluations = 15 57

MPI task timing breakdown:
Section |  min time  |  avg time  |  max time  |%varavg| %total
---------------------------------------------------------------
Pair    | 0.09775    | 0.10186    | 0.10818    |   1.0 | 72.28
Neigh   | 0          | 0          | 0          |   0.0 |  0.00
Comm    | 0.0022493  | 0.0085983  | 0.012724   |   3.4 |  6.10
Output  | 4.0846e-05 | 5.348e-05  | 7.0593e-05 |   0.0 |  0.04
Modify  | 0.0292     | 0.029228   | 0.02924    |   0.0 | 20.74
Other   |            | 0.001182   |            |       |  0.84

Nlocal:    5.125 ave 6 max 5 min
Histogram: 7 0 0 0 0 0 0 0 0 1
Nghost:    567.5 ave 576 max 562 min
Histogram: 4 0 0 0 0 0 0 3 0 1
Neighs:    769.875 ave 895 max 748 min
Histogram: 7 0 0 0 0 0 0 0 0 1

Total # of neighbors = 6159
Ave neighs/atom = 150.22
Neighbor list builds = 0
Dangerous builds = 0
WARNING: Using 'neigh_modify every 1 delay 0 check yes' setting during minimization (../min.cpp:190)
WARNING: Total cutoff < 2*bond cutoff. May need to use an increased neighbor list skin. (../pair_reaxc.cpp:413)
Setting up cg style minimization ...
  Unit style    : real
  Current step  : 621
Per MPI rank memory allocation (min/avg/max) = 18.17 | 18.26 | 18.43 Mbytes
Step Temp E_pair E_mol TotEng Press 
     621            0   -7461.2268            0   -7461.2268    439.49465 
     638            0   -7461.2366            0   -7461.2366    244.31604 
Loop time of 0.638681 on 8 procs for 17 steps with 41 atoms

99.4% CPU use with 8 MPI tasks x no OpenMP threads

Minimization stats:
  Stopping criterion = energy tolerance
  Energy initial, next-to-last, final = 
         -7461.2268015     -7461.23660785      -7461.2366358
  Force two-norm initial, final = 16.7217 8.44748
  Force max component initial, final = 8.15493 3.69686
  Final line search alpha, max atom move = 7.36223e-06 2.72171e-05
  Iterations, force evaluations = 17 246

MPI task timing breakdown:
Section |  min time  |  avg time  |  max time  |%varavg| %total
---------------------------------------------------------------
Pair    | 0.4156     | 0.43318    | 0.45997    |   2.0 | 67.82
Neigh   | 0          | 0          | 0          |   0.0 |  0.00
Comm    | 0.0095874  | 0.036507   | 0.05414    |   7.0 |  5.72
Output  | 1.7974e-05 | 2.4492e-05 | 3.4284e-05 |   0.0 |  0.00
Modify  | 0.16719    | 0.16728    | 0.16735    |   0.0 | 26.19
Other   |            | 0.001695   |            |       |  0.27

Nlocal:    5.125 ave 6 max 5 min
Histogram: 7 0 0 0 0 0 0 0 0 1
Nghost:    567.5 ave 576 max 562 min
Histogram: 4 0 0 0 0 0 0 3 0 1
Neighs:    770.125 ave 895 max 749 min
Histogram: 7 0 0 0 0 0 0 0 0 1

Total # of neighbors = 6161
Ave neighs/atom = 150.268
Neighbor list builds = 0
Dangerous builds = 0
WARNING: Total cutoff < 2*bond cutoff. May need to use an increased neighbor list skin. (../pair_reaxc.cpp:413)
Setting up Verlet run ...
  Unit style    : real
  Current step  : 0
  Time step     : 0.25
Per MPI rank memory allocation (min/avg/max) = 17.04 | 17.14 | 17.3 Mbytes
Step Temp TotEng KinEng PotEng Press 
       0          300   -7425.4669    35.769721   -7461.2366    1931.0294 
     200    241.62732    -7410.084    28.809806   -7438.8938   -6470.7246 
     400    324.97611   -7387.1128    38.747682   -7425.8605     1780.006 
     600    323.99877   -7384.3671    38.631151   -7422.9983    12141.929 
     800    288.24998   -7394.5657    34.368737   -7428.9344   -17066.226 
    1000    303.63488   -7383.8479    36.203116    -7420.051   -21981.834 
    1200    299.19702   -7381.8149    35.673979   -7417.4889   -13997.608 
    1400    293.91399   -7395.6443    35.044071   -7430.6884     7840.282 
    1600    306.55353   -7388.6977    36.551113   -7425.2488   -18251.434 
    1800    266.06884   -7375.9567    31.724027   -7407.6807     25281.83 
    2000    264.22772   -7382.0494    31.504505   -7413.5539   -14295.917 
    2200    273.22087   -7392.0965    32.576781   -7424.6733    13519.042 
    2400    296.18991   -7393.1943    35.315434   -7428.5097   -11362.767 
    2600    341.50633   -7383.4019     40.71862   -7424.1205    -21009.33 
    2800    317.92434   -7382.6395    37.906882   -7420.5463    42849.709 
    3000    290.13781   -7396.3166    34.593828   -7430.9105   -36760.398 
    3200    287.25666   -7383.7935    34.250302   -7418.0438   -7083.9706 
    3400    339.47935   -7384.1241    40.476939   -7424.6011    1966.5911 
    3600    273.66228   -7392.2593    32.629412   -7424.8887    7119.4836 
    3800    260.64555   -7402.3545    31.077395   -7433.4319   -10147.958 
    4000    286.03811   -7394.2689     34.10501   -7428.3739    23746.568 
    4200    363.58023   -7382.6952    43.350544   -7426.0457   -17274.927 
    4400    255.06885   -7394.4546    30.412472   -7424.8671   -562.12491 
    4600    324.43028   -7388.8516    38.682602   -7427.5342    12170.147 
    4800    307.80254   -7385.5544    36.700036   -7422.2544    -5261.478 
    5000    279.19106   -7393.5342     33.28862   -7426.8228     -15791.6 
    5200    324.82494   -7388.1626    38.729658   -7426.8922   -10358.646 
    5400    275.08752    -7388.813    32.799346   -7421.6123    2319.9935 
    5600    289.76263   -7389.1565    34.549094   -7423.7056   -19178.442 
    5800    312.48695   -7392.7141    37.258569   -7429.9727   -17645.308 
    6000    269.73601   -7400.9098    32.161273   -7433.0711    22099.679 
    6200     321.5831   -7389.0179    38.343126    -7427.361   -22093.831 
    6400    283.95654   -7391.2537     33.85682   -7425.1105     4426.961 
    6600    312.85547   -7383.5667     37.30251   -7420.8693   -945.31932 
    6800    310.65613   -7386.3649    37.040276   -7423.4052   -9511.4796 
    7000    305.59813   -7393.0625    36.437199   -7429.4997    19898.967 
    7200    341.27207   -7380.2733    40.690688    -7420.964    6993.2384 
    7400    336.23369   -7382.8566    40.089951   -7422.9466    7199.4936 
    7600     267.9467   -7390.0266    31.947929   -7421.9745    15645.567 
    7800    292.49837   -7396.4316    34.875283   -7431.3069   -26994.554 
    8000    283.87911   -7398.5697    33.847588   -7432.4173     6666.817 
    8200    306.94699   -7385.7199    36.598027   -7422.3179    3938.2086 
    8400    265.10545   -7393.5636     31.60916   -7425.1727   -12422.254 
    8600    270.37956   -7394.9829    32.238004   -7427.2209    1896.0891 
    8800    333.53272   -7382.1449    39.767908   -7421.9128    23288.402 
    9000    294.54812     -7394.67     35.11968   -7429.7897   -11315.083 
    9200    377.30929   -7381.8013    44.987493   -7426.7888    5237.1613 
    9400    301.65009   -7386.0459    35.966465   -7422.0124   -27522.703 
    9600    311.89228   -7392.6479    37.187666   -7429.8356    17959.589 
    9800    295.45443   -7388.8002    35.227741    -7424.028   -36915.848 
   10000     288.0893   -7391.6225    34.349579   -7425.9721    13269.875 
   10200    349.24586   -7378.6035    41.641422   -7420.2449   -3536.9827 
   10400    299.61811   -7383.5795    35.724187   -7419.3036   -5374.8292 
   10600    296.70275   -7390.9472    35.376581   -7426.3238    2020.3597 
   10800    249.51216   -7385.9878    29.749934   -7415.7378    4282.7933 
   11000    288.10694   -7382.7443    34.351683   -7417.0959   -17864.746 
   11200    294.99224   -7394.6965    35.172634   -7429.8691    20283.941 
   11400    291.03717   -7386.9741    34.701061   -7421.6752   -18655.833 
   11600    397.65962   -7366.8416    47.413912   -7414.2555    22158.765 
   11800    301.87235   -7385.0857    35.992966   -7421.0786   -8873.1687 
   12000    251.49297   -7394.0121     29.98611   -7423.9982   -3644.0272 
   12200    219.04983   -7398.5324    26.117837   -7424.6502    7687.0385 
   12400    260.30973   -7381.5888    31.037355   -7412.6261    10291.679 
   12600    328.73095   -7387.7185     39.19538   -7426.9139   -14010.743 
   12800    256.98675   -7394.4574    30.641147   -7425.0985    8560.5861 
   13000    278.64171   -7389.0267    33.223121   -7422.2498   -2608.1313 
   13200    355.39448   -7373.0945    42.374537   -7415.4691   -17166.184 
   13400    312.43657   -7389.8173    37.252562   -7427.0699    6126.2362 
   13600    283.40408   -7394.9683     33.79095   -7428.7593    2283.5527 
   13800    260.63594   -7383.4113    31.076249   -7414.4875   -12217.496 
   14000     315.4027    -7381.787    37.606222   -7419.3933    -18965.04 
   14200    262.92207   -7395.0186     31.34883   -7426.3674     8892.473 
   14400    376.11891    -7385.003    44.845561   -7429.8485    5119.1862 
   14600    348.44735   -7382.6227    41.546215   -7424.1689    11380.965 
   14800    257.77781   -7394.4041    30.735467   -7425.1396   -13971.825 
   15000     293.3254   -7392.2632    34.973892   -7427.2371   -14639.512 
   15200    374.53085   -7380.7453    44.656213   -7425.4015    26996.417 
   15400    332.53524   -7390.5106    39.648975   -7430.1596    23267.638 
   15600    312.82162    -7389.967    37.298473   -7427.2655   -9497.7732 
   15800    281.97074   -7391.3951    33.620048   -7425.0151    4580.7519 
   16000    335.58552   -7379.3299    40.012668   -7419.3426    12922.441 
   16200    329.62203   -7390.6568    39.301626   -7429.9584    28905.983 
   16400    240.22134    -7395.224    28.642168   -7423.8661   -10475.088 
   16600    290.23852   -7381.8609    34.605836   -7416.4668   -13753.454 
   16800    265.95772   -7385.5335    31.710778   -7417.2443    5262.5612 
   17000    301.50668   -7390.8061    35.949366   -7426.7554    2888.1773 
   17200    227.78768   -7393.2105    27.159672   -7420.3702    5836.9214 
   17400    396.55012   -7378.2213    47.281623    -7425.503    21611.344 
   17600    315.19632   -7390.2648    37.581615   -7427.8465    -7805.836 
   17800    307.92698   -7390.5399    36.714873   -7427.2548    26758.144 
   18000    356.93941   -7381.2603    42.558743   -7423.8191    2318.6889 
   18200    348.64994    -7380.208     41.57037   -7421.7784   -26817.899 
   18400    278.70651   -7393.5577    33.230847   -7426.7885    27029.952 
   18600    334.82961   -7381.4168    39.922538   -7421.3393   -10378.925 
   18800    265.15129   -7389.9831    31.614625   -7421.5977   -5442.3421 
   19000    319.86686    -7393.507    38.138494   -7431.6455    10429.381 
   19200    289.35843   -7383.7143    34.500901   -7418.2152   -6438.6913 
   19400    288.58321   -7376.6861    34.408469   -7411.0946    1985.4332 
   19600      254.366   -7392.8123    30.328669   -7423.1409     2595.179 
   19800    287.73729   -7394.5781    34.307608   -7428.8857   -28625.298 
   20000    250.41135   -7382.5401    29.857147   -7412.3972    16017.992 
   20200    286.33644   -7381.4661    34.140582   -7415.6067   -38870.076 
   20400    254.00788   -7397.5568     30.28597   -7427.8428    8947.8095 
   20600    308.22098   -7392.0612    36.749927   -7428.8111   -19505.106 
   20800    296.82166   -7374.6895     35.39076   -7410.0803    16090.841 
   21000    283.92589   -7382.7661    33.853166   -7416.6192   -277.52341 
   21200    253.20171   -7391.8594    30.189848   -7422.0493   -10106.162 
   21400    259.54226   -7395.9409    30.945847   -7426.8867    15382.138 
   21600    387.14877   -7378.5391    46.160678   -7424.6997    2665.0534 
   21800    297.64328    -7390.124    35.488723   -7425.6127   -38496.681 
   22000    303.95266   -7395.6984    36.241006   -7431.9394    3512.7635 
   22200    312.19309    -7377.419    37.223532   -7414.6426   -16968.355 
   22400    286.62395   -7385.2953    34.174863   -7419.4702   -3987.0264 
   22600    298.70298   -7395.1043    35.615074   -7430.7194   -9484.3441 
   22800    320.10842   -7381.4584    38.167295   -7419.6257   -12206.646 
   23000    328.35192   -7382.3319    39.150188   -7421.4821    31.888144 
   23200    277.63122    -7391.612    33.102637   -7424.7147    9148.7361 
   23400    292.71891    -7391.665    34.901579   -7426.5666   -10440.632 
   23600    257.12423   -7399.8994     30.65754   -7430.5569    9983.5158 
   23800    346.03955   -7384.2596    41.259127   -7425.5187   -4655.4901 
   24000    324.76114   -7391.8722    38.722051   -7430.5943    13326.903 
   24200    217.21335   -7398.9067     25.89887   -7424.8056    28862.697 
   24400    396.04956   -7381.6681    47.221941   -7428.8901   -13594.852 
   24600    297.40078   -7393.4589    35.459809   -7428.9187    24347.409 
   24800    308.19785   -7391.2006     36.74717   -7427.9478   -5338.6748 
   25000    345.59479   -7379.8113    41.206097   -7421.0174   -19356.136 
   25200    294.81248   -7390.9645    35.151201   -7426.1157    17778.543 
   25400    274.10278   -7390.2034    32.681933   -7422.8853   -687.26394 
   25600    286.21979   -7384.8954    34.126673   -7419.0221    10923.724 
   25800    310.15124    -7382.373    36.980077   -7419.3531    53.697267 
   26000    254.83645   -7396.8657    30.384762   -7427.2504    1175.5803 
   26200    266.03918   -7388.8454    31.720491   -7420.5659    1523.5003 
   26400    310.30615   -7382.9005    36.998547    -7419.899    10230.407 
   26600     269.0451   -7392.9041    32.078893    -7424.983    7905.0308 
   26800     252.6733   -7395.8085    30.126844   -7425.9354    4502.5359 
   27000    303.65271   -7384.4682    36.205242   -7420.6735    3696.4757 
   27200    338.29468   -7383.9837    40.335687   -7424.3194   -11197.001 
   27400    269.77163   -7397.2775     32.16552    -7429.443    29377.977 
   27600    276.02971    -7388.299    32.911686   -7421.2107    11902.889 
   27800    330.60248   -7377.8187    39.418528   -7417.2373    6065.0521 
   28000    368.23132   -7381.2261    43.905105   -7425.1312    11155.099 
   28200    310.07023   -7395.2039    36.970418   -7432.1743   -14429.907 
   28400    291.23902   -7383.1096    34.725128   -7417.8347    6308.4288 
   28600    339.56987   -7379.8056    40.487731   -7420.2933      39253.9 
   28800    329.71895   -7388.6674    39.313183   -7427.9806   -9544.4781 
   29000    282.12006   -7394.7622    33.637853      -7428.4   -5824.0277 
   29200     294.3447   -7392.3737    35.095426   -7427.4692    22102.022 
   29400    337.59717   -7381.8652    40.252522   -7422.1177    28626.356 
   29600    250.01638   -7394.5724    29.810054   -7424.3824   -4669.6463 
   29800    281.09111   -7391.8428    33.515168    -7425.358   -13980.839 
   30000    324.16862   -7383.1502    38.651403   -7421.8016    27254.934 
   30200    312.11728   -7392.7462    37.214493   -7429.9607    -21264.72 
   30400    307.98635   -7394.1234    36.721952   -7430.8454    10143.132 
   30600    346.99203   -7383.7586    41.372693   -7425.1313   -20732.613 
   30800    253.07743   -7392.0252     30.17503   -7422.2003   -10055.288 
   31000    250.49714   -7405.1034    29.867376   -7434.9708    12970.654 
   31200    241.31486   -7396.6726     28.77255   -7425.4452    8402.3593 
   31400    298.22085    -7385.456    35.557589   -7421.0136    586.52717 
   31600    294.54363   -7391.4427    35.119145   -7426.5618    644.15851 
   31800    311.38896   -7397.5911    37.127654   -7434.7188    -9804.216 
   32000    342.61209   -7384.9587    40.850463   -7425.8092    4541.2912 
   32200    335.16855   -7391.5405    39.962952   -7431.5034   -4348.6971 
   32400    245.26853   -7396.8552    29.243956   -7426.0992    8969.4125 
   32600    340.73747   -7380.7187    40.626946   -7421.3457   -12100.026 
   32800    284.27703    -7391.439    33.895033   -7425.3341    15061.811 
   33000    259.02351    -7395.742    30.883995    -7426.626    6714.1943 
   33200    298.38814   -7389.4679    35.577535   -7425.0454   -29975.023 
   33400    291.06246   -7381.5695    34.704076   -7416.2736    35176.773 
   33600    331.08016   -7383.1321    39.475482   -7422.6076   -17218.129 
   33800    276.78111   -7394.6719    33.001277   -7427.6732    4770.4282 
   34000    326.10428   -7379.9085    38.882196   -7418.7907   -27149.355 
   34200    329.85823   -7390.7685    39.329789   -7430.0983    10452.097 
   34400    308.27969   -7391.7249    36.756928   -7428.4818    5806.5325 
   34600    326.17661   -7384.5096    38.890821   -7423.4004    22435.331 
   34800    229.85679   -7398.5599    27.406377   -7425.9663   -11932.592 
   35000    316.47943   -7388.8332    37.734602   -7426.5678    9353.1925 
   35200    292.14579   -7388.1052    34.833245   -7422.9385    19416.305 
   35400    273.53108   -7397.3632    32.613768    -7429.977    5001.1271 
   35600    282.32023   -7394.4773    33.661719    -7428.139   -34243.942 
   35800    315.33528   -7382.6585    37.598182   -7420.2567    16782.694 
   36000    291.01711   -7394.9724    34.698669    -7429.671   -18735.361 
   36200    251.44497   -7403.5895    29.980388   -7433.5698   -11555.658 
   36400    336.89513   -7383.6514    40.168816   -7423.8202   -27067.306 
   36600    333.87394    -7387.499    39.808592   -7427.3075   -1514.5126 
   36800     294.3046    -7396.637    35.090644   -7431.7276    24380.798 
   37000    375.34441   -7373.9484    44.753216   -7418.7016    23134.388 
   37200    268.30026   -7389.2051    31.990084   -7421.1951   -22844.525 
   37400    239.03943   -7390.8771    28.501246   -7419.3783    21949.094 
   37600    427.45275   -7376.7924    50.966218   -7427.7586    20672.306 
   37800    309.48586   -7392.6316    36.900742   -7429.5323   -232.10443 
   38000    320.66137   -7387.0566    38.233225   -7425.2898    38290.741 
   38200    379.65999   -7379.4889    45.267772   -7424.7567   -26561.525 
   38400    301.03929   -7396.1895    35.893637   -7432.0831    1267.7867 
   38600    324.08122   -7387.2116    38.640983   -7425.8525     35934.41 
   38800    285.45921   -7384.9367    34.035987   -7418.9727   -49810.397 
   39000    268.53687   -7396.7084    32.018296   -7428.7267    13491.885 
   39200    352.88763   -7378.6403     42.07564   -7420.7159   -17733.979 
   39400    299.61513   -7390.6893    35.723831   -7426.4132   -11465.643 
   39600    274.50676   -7394.2331      32.7301   -7426.9632    6458.5876 
   39800    330.61562   -7378.8679    39.420095    -7418.288   -18682.685 
   40000    270.98388   -7390.5109    32.310059    -7422.821    19408.682 
   40200    321.23866   -7391.6612    38.302057   -7429.9633    7863.2122 
   40400    299.45287   -7382.7424    35.704485   -7418.4469    -10625.33 
   40600    284.83644   -7378.6257    33.961733   -7412.5875   -7228.7291 
   40800    269.12886   -7394.1268    32.088881   -7426.2157   -353.65088 
   41000    341.54743   -7387.1314    40.723521   -7427.8549    7167.6393 
   41200    376.22183   -7380.9502    44.857833    -7425.808    32887.089 
   41400    256.21759    -7398.261    30.549438   -7428.8104   -16332.858 
   41600    315.92866   -7384.2342    37.668933   -7421.9032   -26306.674 
   41800    268.30617   -7390.0198    31.990789   -7422.0106    3916.4127 
   42000    249.63041    -7397.909    29.764033   -7427.6731    12332.485 
   42200    327.79166   -7386.6656    39.083387   -7425.7489   -39783.765 
   42400    279.02504    -7390.269    33.268826   -7423.5378    23557.144 
   42600    244.29884   -7402.4673    29.128338   -7431.5956   -4097.6795 
   42800    306.59581     -7390.91    36.556155   -7427.4662    20802.781 
   43000    316.16351   -7387.1653    37.696935   -7424.8622     21989.23 
   43200     333.0353   -7377.3703    39.708599   -7417.0789    8564.3195 
   43400    298.70254   -7393.4547    35.615021   -7429.0697   -3013.6352 
   43600    292.75116   -7390.5962    34.905425   -7425.5016     28003.97 
   43800    386.44365   -7374.7616    46.076604   -7420.8382   -12409.347 
   44000    311.95356   -7379.5077    37.194972   -7416.7027     8862.104 
   44200    300.71939   -7390.9255    35.855495    -7426.781   -7953.6053 
   44400     286.3112   -7392.5274    34.137572   -7426.6649   -263.96809 
   44600       269.58   -7380.1348    32.142671   -7412.2775   -23045.831 
   44800    261.44067   -7390.5605    31.172199   -7421.7327    3846.0869 
   45000    287.71378    -7392.617    34.304805   -7426.9218   -19481.871 
   45200    299.43388    -7389.777    35.702221   -7425.4793   -3644.6202 
   45400    270.47238   -7390.1586    32.249072   -7422.4076    14281.716 
   45600    334.29606    -7370.953    39.858922    -7410.812   -9902.0358 
   45800    300.78858   -7389.6498    35.863744   -7425.5135   -8636.4418 
   46000    265.14446    -7394.179    31.613811   -7425.7928     24612.26 
   46200    262.96345   -7393.8217    31.353764   -7425.1755   -14642.768 
   46400    342.92144   -7380.2619    40.887347   -7421.1493   -9230.4277 
   46600    254.97699   -7395.1915    30.401518    -7425.593   -15317.112 
   46800    273.89542   -7393.5175    32.657209   -7426.1747   -26170.862 
   47000    374.29119   -7384.4617    44.627637   -7429.0893   -27776.689 
   47200    252.69899   -7382.8216    30.129907   -7412.9515    46604.044 
   47400    340.60435   -7384.6227    40.611075   -7425.2338   -17995.386 
   47600     269.0026   -7397.1925    32.073826   -7429.2664   -1320.0656 
   47800    337.46754   -7381.9796    40.237066   -7422.2167     35436.41 
   48000    343.07451   -7381.7983    40.905597   -7422.7039   -18386.866 
   48200     267.1371   -7396.2216    31.851399    -7428.073   -25124.229 
   48400    244.33483   -7404.8048    29.132629   -7433.9374    17768.333 
   48600    318.26037   -7389.4285    37.946949   -7427.3754    -20202.77 
   48800    365.98559   -7379.1677    43.637341    -7422.805   -1184.6308 
   49000    275.52917   -7394.8811    32.852004   -7427.7331    2356.0053 
   49200    291.87664   -7394.3234    34.801153   -7429.1246   -8967.5129 
   49400    272.35467   -7385.6432    32.473502   -7418.1167   -967.05196 
   49600    282.06304   -7386.1033    33.631054   -7419.7344   -10310.224 
   49800    298.54982   -7397.5863    35.596812   -7433.1831    18063.328 
   50000    231.57754   -7400.1867    27.611546   -7427.7983    3068.8715 
   50200    313.55192   -7388.8308    37.385549   -7426.2164   -16135.135 
   50400    344.09006   -7380.9517    41.026684   -7421.9783    -21902.84 
   50600    297.37804   -7395.9791    35.457097   -7431.4362    12190.999 
   50800    324.53593    -7390.337    38.695199   -7429.0322   -686.18524 
   51000    345.39231   -7384.3339    41.181955   -7425.5159   -2775.6589 
   51200    261.56303   -7390.5091    31.186789   -7421.6959    1552.5052 
   51400    300.60896   -7391.2691    35.842328   -7427.1114   -12003.177 
   51600    314.81366    -7382.457    37.535989    -7419.993   -14494.383 
   51800    273.76932   -7393.2699    32.642173   -7425.9121    10768.384 
   52000    274.76221   -7393.0478    32.760559   -7425.8083   -29705.474 
   52200     281.0866   -7386.0378     33.51463   -7419.5524    28075.439 
   52400    277.79797   -7394.6893    33.122519   -7427.8119   -15043.272 
   52600    298.48152   -7387.1225    35.588669   -7422.7112    14649.665 
   52800    351.05479   -7383.7151    41.857105   -7425.5722   -18337.778 
   53000    223.57381   -7395.4799    26.657243   -7422.1372    14448.162 
   53200     276.4523   -7391.1774    32.962072   -7424.1394    23051.595 
   53400    305.45736   -7386.4634    36.420415   -7422.8838   -16644.775 
   53600    298.95265   -7387.1667    35.644843   -7422.8115    -219.5489 
   53800     345.8227   -7392.1845    41.233272   -7433.4177   -15866.621 
   54000    268.07462   -7400.5942    31.963181   -7432.5574   -5618.7254 
   54200    325.68227   -7385.7691    38.831879   -7424.6009   -9579.6209 
   54400    280.33148   -7389.4156    33.424595   -7422.8402   -20413.466 
   54600    239.62861   -7403.3338    28.571494   -7431.9052     9709.267 
   54800    334.97387   -7383.5947    39.939739   -7423.5345      3381.21 
   55000     266.0098   -7390.1783    31.716988   -7421.8953    2282.5113 
   55200    282.07664    -7393.911    33.632675   -7427.5437   -25760.352 
   55400     314.8841    -7383.612    37.544388   -7421.1564   -10029.155 
   55600    226.87569   -7396.9997    27.050934   -7424.0507    3214.5537 
   55800    330.01156   -7391.2557    39.348071   -7430.6038   -13220.937 
   56000    246.97256   -7388.7732    29.447132   -7418.2203    12455.822 
   56200    268.26528   -7389.4516    31.985914   -7421.4375     19549.82 
   56400    304.91509   -7394.1605    36.355759   -7430.5163   -22922.538 
   56600    320.01435    -7387.566     38.15608    -7425.722   -382.99302 
   56800    355.30877   -7380.6808    42.364318   -7423.0451   -48049.679 
   57000     294.7304   -7394.7523    35.141414   -7429.8937    17044.656 
   57200    321.93758   -7385.1057    38.385391   -7423.4911    6009.5183 
   57400    289.59985   -7397.7618    34.529686   -7432.2915   -13830.692 
   57600    295.53402    -7394.139    35.237231   -7429.3762    2308.8512 
   57800     326.9447   -7385.9614    38.982402   -7424.9438    1870.8107 
   58000     226.5347   -7401.8955    27.010277   -7428.9058    1272.6665 
   58200    294.88727   -7385.6235    35.160118   -7420.7837    -13545.63 
   58400    367.16479   -7384.9329     43.77794   -7428.7108   -7903.6814 
   58600    291.57931   -7395.5425    34.765701   -7430.3082    -7420.387 
   58800    269.57488   -7379.7328    32.142061   -7411.8749    28583.232 
   59000    252.64132   -7386.6253    30.123031   -7416.7483   -8444.6494 
   59200    244.41328   -7395.5282    29.141983   -7424.6702   -738.91194 
   59400    338.60504   -7375.8587    40.372692   -7416.2314    25716.059 
   59600    338.67793   -7385.3997    40.381384   -7425.7811    25349.471 
   59800    331.29915   -7393.9256    39.501593   -7433.4272    7536.1207 
   60000    308.13232   -7380.3943    36.739356   -7417.1336   -12977.141 
   60200    346.96994   -7383.7823    41.370059   -7425.1523    27022.548 
   60400    274.63475   -7390.8138    32.745361   -7423.5591    3333.6097 
   60600    358.71476    -7385.746    42.770422   -7428.5164   -9065.6979 
   60800    310.84624   -7382.4589    37.062943   -7419.5219   -21927.137 
   61000    252.64421   -7394.3559    30.123376   -7424.4793    29945.533 
   61200    321.38821   -7379.1632    38.319889   -7417.4831   -6786.7221 
   61400    383.23202   -7374.3828    45.693674   -7420.0765   -6534.8384 
   61600    271.39007   -7389.5423     32.35849   -7421.9008   -3609.4621 
   61800    308.61952   -7391.1498    36.797447   -7427.9473   -4916.2694 
   62000    236.09738   -7392.5856    28.150458    -7420.736   -7329.2043 
   62200    256.68447    -7392.667    30.605106   -7423.2721    9997.2525 
   62400    341.04797   -7381.5562    40.663969   -7422.2201   -3487.8361 
   62600    266.78643   -7396.8711    31.809587   -7428.6807   -5501.6238 
   62800     286.9145   -7391.1505    34.209506     -7425.36   -12503.048 
   63000    398.53501   -7381.4478    47.518287   -7428.9661    13033.545 
   63200    280.95538   -7389.0503    33.498985   -7422.5493    1206.6135 
   63400    314.92629   -7393.1998    37.549418   -7430.7492    -5449.526 
   63600    282.64592   -7379.6709    33.700553   -7413.3715   -4979.3028 
   63800    305.42693   -7388.3704    36.416786   -7424.7872    -12339.71 
   64000    284.83736    -7393.473    33.961843   -7427.4348    14792.431 
   64200    304.92247   -7385.3781    36.356639   -7421.7347    4380.4839 
   64400    424.59734   -7367.4947     50.62576   -7418.1205   -1406.4618 
   64600     256.0134   -7387.2176    30.525092   -7417.7427    28124.934 
   64800    309.24121   -7391.8333    36.871572   -7428.7049   -40000.866 
   65000    331.78345   -7377.5814    39.559338   -7417.1407     20455.39 
   65200    333.01937   -7390.4277      39.7067   -7430.1344    12499.663 
   65400    283.85899   -7390.2077    33.845189   -7424.0529   -19476.308 
   65600    368.65231   -7378.7429      43.9553   -7422.6982   -23467.569 
   65800    279.56186   -7396.3752    33.332832    -7429.708    14505.054 
   66000    357.68252   -7387.6202    42.647346   -7430.2675    1430.8543 
   66200    328.00627   -7382.4191    39.108976   -7421.5281    22517.419 
   66400    228.15857   -7397.6435    27.203895   -7424.8474    27494.975 
   66600    314.81208   -7385.2413      37.5358   -7422.7771   -9673.4865 
   66800    251.26229   -7393.5072    29.958606   -7423.4658   -39904.022 
   67000    278.17716   -7392.9959    33.167731   -7426.1637   -13941.627 
   67200    320.98074   -7381.7847    38.271305    -7420.056    -2505.449 
   67400    255.95336   -7397.3892    30.517934   -7427.9072   -5387.9498 
   67600    252.47769   -7389.7102    30.103522   -7419.8137   -7659.7655 
   67800    340.44152   -7384.2669     40.59166   -7424.8586   -7198.3026 
   68000    320.92121   -7389.3003    38.264206   -7427.5645    6628.8207 
   68200    269.64803   -7394.2942    32.150782    -7426.445   -8002.5375 
   68400    348.35379   -7378.7161    41.535059   -7420.2512    30037.735 
   68600    322.17035   -7391.0821    38.413144   -7429.4953    26128.924 
   68800    305.08566   -7393.2207    36.376096   -7429.5968    9415.5798 
   69000    348.42962   -7382.3738    41.544101   -7423.9179    11547.702 
   69200    281.57107   -7383.6235    33.572395   -7417.1959   -15891.439 
   69400    255.32219   -7393.2424    30.442679   -7423.6851    14856.765 
   69600    278.75412   -7390.8764    33.236523   -7424.1129    2500.8101 
   69800    356.16501   -7381.2411     42.46641   -7423.7075   -35230.855 
   70000    222.25063   -7393.7015    26.499476    -7420.201   -451.91924 
   70200    294.57734   -7389.3619    35.123163    -7424.485    2838.4104 
   70400    330.25045    -7379.167    39.376554   -7418.5436    8921.1161 
   70600    291.97038   -7394.9905     34.81233   -7429.8029   -2765.3716 
   70800    319.78501    -7390.423    38.128735   -7428.5517   -3213.1354 
   71000    330.54192   -7387.4873    39.411307   -7426.8986    2859.7421 
   71200    283.67739   -7388.5347    33.823537   -7422.3583   -2690.6508 
   71400    264.15129   -7394.3896    31.495392    -7425.885   -9074.0156 
   71600    254.59539    -7389.179     30.35602   -7419.5351    14155.385 
   71800    318.10317   -7383.9078    37.928206    -7421.836   -16681.844 
   72000    267.25749   -7394.2394    31.865753   -7426.1051   -12220.513 
   72200    323.42446   -7377.6098    38.562676   -7416.1725    5139.5761 
   72400    358.57191   -7386.2995     42.75339   -7429.0529    1613.7806 
   72600    262.23417   -7394.8443     31.26681   -7426.1111    24001.911 
   72800    382.93764   -7380.9912    45.658574   -7426.6498   -15226.383 
   73000    326.95374   -7386.6074     38.98348   -7425.5909   -33907.509 
   73200    260.75487   -7390.2251     31.09043   -7421.3155    14876.276 
   73400    309.99124   -7385.2388    36.961001   -7422.1998   -14369.345 
   73600    250.25075   -7385.2941    29.837998   -7415.1321    38427.487 
   73800    296.08254   -7398.2509    35.302633   -7433.5535   -30411.602 
   74000    324.16044   -7386.1649    38.650428   -7424.8153   -16702.105 
   74200    254.24766    -7387.705     30.31456   -7418.0196   -8211.1471 
   74400    236.35187   -7394.0571    28.180801   -7422.2379   -11028.613 
   74600    310.79572   -7382.3421    37.056921    -7419.399   -40760.755 
   74800    293.44909   -7390.3471     34.98864   -7425.3357    37305.483 
   75000    291.29722    -7396.706    34.732067   -7431.4381   -19585.883 
   75200    316.92238   -7386.9244    37.787417   -7424.7118   -450.24809 
   75400    334.89552   -7389.2357    39.930397   -7429.1661   -11895.901 
   75600    298.59257   -7400.7186    35.601909   -7436.3205    2594.0825 
   75800    348.33882   -7386.3224    41.533274   -7427.8557    28011.337 
   76000    270.48773   -7390.2764    32.250902   -7422.5273   -17319.645 
   76200    336.28123   -7385.5376    40.095619   -7425.6332   -2783.0934 
   76400    299.51881   -7380.6689    35.712347   -7416.3813    31323.726 
   76600    305.67651   -7393.6883    36.446544   -7430.1348   -35717.644 
   76800    346.57719   -7381.7813    41.323231   -7423.1046    20291.112 
   77000    293.55628   -7392.6148    35.001421   -7427.6162   -12374.946 
   77200    363.02874   -7390.5612    43.284788    -7433.846    8168.4035 
   77400    332.92728   -7380.4917    39.695719   -7420.1874     26582.17 
   77600    259.06367   -7393.1054    30.888784   -7423.9942   -13958.223 
   77800    259.85661   -7393.4168    30.983328   -7424.4001   -12706.642 
   78000    279.97926   -7391.0271    33.382599   -7424.4097     -2978.33 
   78200    287.07268   -7380.2274    34.228366   -7414.4557    14394.791 
   78400    333.68153   -7382.3216     39.78565   -7422.1073   -15934.768 
   78600    231.94681   -7392.4193    27.655576   -7420.0748    29081.012 
   78800     330.8415   -7384.5397    39.447026   -7423.9868   -3337.1147 
   79000    319.85861   -7380.0016     38.13751   -7418.1391   -17818.925 
   79200    296.82119   -7392.2272    35.390704   -7427.6179   -8956.7844 
   79400    360.49316   -7383.7821    42.982465   -7426.7646   -19381.977 
   79600    279.53389   -7401.1928    33.329497   -7434.5223     22152.37 
   79800    295.34887   -7393.4128    35.215155    -7428.628    16730.467 
   80000    298.47879   -7386.3687    35.588343    -7421.957    6257.8307 
   80200    257.09104   -7397.6213    30.653582   -7428.2749   -4263.6365 
   80400    262.43141    -7392.571    31.290327   -7423.8613    26228.506 
   80600    321.40022   -7388.4106    38.321321    -7426.732    8761.0091 
   80800    266.46485   -7391.8258    31.771245    -7423.597   -16272.798 
   81000    334.53202   -7382.4212    39.887056   -7422.3082   -8779.4981 
   81200    246.81445   -7391.2718     29.42828   -7420.7001    22800.402 
   81400    301.45331   -7392.5391    35.943003   -7428.4821   -9637.6614 
   81600    362.04892    -7369.789    43.167962    -7412.957    4904.0099 
   81800    383.17238   -7383.2511    45.686563   -7428.9377    739.41192 
   82000    314.01318   -7392.1601    37.440546   -7429.6007    10235.921 
   82200    265.89724   -7399.2332    31.703566   -7430.9368     13896.68 
   82400    347.17887   -7386.0409    41.394971   -7427.4359   -18144.356 
   82600     287.7443   -7387.9162    34.308444   -7422.2246   -794.64262 
   82800    244.92131   -7394.8261    29.202556   -7424.0286   -15618.731 
   83000    280.75532   -7389.4011    33.475131   -7422.8762   -33710.451 
   83200     325.2344   -7390.7622    38.778479   -7429.5407    14784.684 
   83400    180.46507   -7400.3591    21.517284   -7421.8763   -24976.834 
   83600    299.75942   -7386.4606    35.741036   -7422.2017    8726.4699 
   83800    301.93891   -7392.2814    36.000901   -7428.2823    15707.298 
   84000    219.04665   -7404.7165    26.117459    -7430.834     15222.73 
   84200    319.13417    -7390.563    38.051134   -7428.6141    -1300.781 
   84400    305.77593   -7385.0697    36.458398   -7421.5281   -8845.5825 
   84600    372.18672   -7376.5851    44.376716   -7420.9618   -4504.7565 
   84800    308.50853   -7395.2141    36.784213   -7431.9983    -12034.78 
   85000    324.51231   -7388.2073    38.692383   -7426.8997    21295.267 
   85200    327.32009   -7387.3975     39.02716   -7426.4247   -24091.352 
   85400     240.3831   -7392.7259    28.661454   -7421.3874   -12469.292 
   85600    328.80688    -7382.973    39.204434   -7422.1774   -4984.5483 
   85800      311.109   -7380.3688    37.094274   -7417.4631   -815.72892 
   86000    293.95816   -7391.7713    35.049338   -7426.8207    20870.834 
   86200    368.51532   -7380.7004    43.938967   -7424.6393    -22350.28 
   86400     307.4036   -7392.0407     36.65247   -7428.6932   -1763.9115 
   86600    310.76348   -7388.7006    37.053076   -7425.7537    17999.018 
   86800    310.06927   -7386.8793    36.970304   -7423.8497    24263.164 
   87000    273.80384   -7392.4475    32.646289   -7425.0938    -19609.08 
   87200    307.62834   -7381.4772    36.679266   -7418.1565   -11111.748 
   87400    309.09691   -7394.9558    36.854367   -7431.8102   -89.225146 
   87600    261.85377    -7394.977    31.221454   -7426.1985   -11989.589 
   87800    280.51415   -7384.9212    33.446376   -7418.3675    31730.481 
   88000    227.86938    -7392.777    27.169413   -7419.9464   -14306.186 
   88200    235.31537   -7399.5938    28.057217    -7427.651    18217.845 
   88400    281.48841   -7389.7734    33.562539    -7423.336   -7673.5389 
   88600    273.18585   -7384.2314    32.572605    -7416.804   -37330.198 
   88800    398.60198   -7374.7179    47.526272   -7422.2442   -33858.558 
   89000    270.54767   -7392.5848    32.258048   -7424.8429    12618.335 
   89200      308.255   -7383.6248    36.753984   -7420.3787     9417.714 
   89400    313.20613   -7386.3607    37.344319    -7423.705     585.4933 
   89600    254.77722   -7395.1565      30.3777   -7425.5342    1771.2604 
   89800    301.07245   -7383.6192    35.897592   -7419.5168    26320.081 
   90000    274.79708   -7397.7117    32.764716   -7430.4765    20958.154 
   90200    306.10015   -7394.2762    36.497056   -7430.7733   -14367.861 
   90400    319.77547   -7386.3582    38.127597   -7424.4858    13233.815 
   90600    297.22887   -7393.0043    35.439312   -7428.4436   -6521.3234 
   90800    297.47183     -7401.01     35.46828   -7436.4783    182.13195 
   91000    313.93015   -7387.3242    37.430646   -7424.7549    39951.613 
   91200    342.75238    -7386.938    40.867189   -7427.8052   -49010.656 
   91400    338.66358   -7382.4708    40.379672   -7422.8505    465.30789 
   91600    223.95299   -7396.5277    26.702453   -7423.2301   -20846.127 
   91800    281.00536   -7389.6881    33.504944    -7423.193   -28570.709 
   92000    354.82966   -7384.4006    42.307193   -7426.7078   -1250.1492 
   92200    332.54016   -7394.4062    39.649562   -7434.0557    26278.364 
   92400    337.32782   -7386.6139    40.220406   -7426.8343   -3597.5225 
   92600    312.17701   -7384.2501    37.221615   -7421.4717   -10517.017 
   92800    262.71911   -7396.6308    31.324631   -7427.9555   -4336.0379 
   93000    403.20479     -7378.53    48.075076    -7426.605   -17558.077 
   93200    289.36839   -7387.6682    34.502088   -7422.1703   -13697.481 
   93400    276.09412   -7392.5144    32.919365   -7425.4337    18557.234 
   93600    303.52613   -7377.0325     36.19015   -7413.2227    -28822.63 
   93800    250.69241   -7395.1472    29.890658   -7425.0379   -11695.248 
   94000    287.44249   -7385.0878    34.272458   -7419.3603   -19973.671 
   94200    284.68343   -7394.2625    33.943489    -7428.206   -26109.682 
   94400    225.82604   -7395.2846    26.925782   -7422.2103    73.092374 
   94600    300.21482   -7388.5551    35.795334   -7424.3505    2070.1511 
   94800    325.43879   -7384.0955    38.802849   -7422.8983    5091.6559 
   95000    313.56789   -7384.2771    37.387453   -7421.6645    13426.643 
   95200    241.39413   -7396.6146    28.782002   -7425.3966   -2407.2868 
   95400      258.602   -7387.0226    30.833738   -7417.8563    10491.862 
   95600    279.09609   -7389.8762    33.277297   -7423.1535   -14648.696 
   95800    267.17892   -7395.7313    31.856385   -7427.5877    1700.9305 
   96000    301.16436   -7384.5888     35.90855   -7420.4974    4035.5967 
   96200     267.2774   -7388.5203    31.868126   -7420.3884    5019.8392 
   96400    258.53909   -7391.8677    30.826237   -7422.6939   -6082.1752 
   96600    286.04667   -7383.7055    34.106032   -7417.8116    2348.8436 
   96800    257.66683   -7394.5068    30.722235    -7425.229    16935.223 
   97000    325.07478    -7390.608    38.759447   -7429.3674   -5361.5215 
   97200    304.06545   -7382.8081    36.254455   -7419.0626    21451.319 
   97400    304.96609   -7388.9341     36.36184    -7425.296   -42271.843 
   97600    360.75819   -7383.1614    43.014065   -7426.1755   -3418.5846 
   97800     379.4867   -7379.8215    45.247111   -7425.0687   -1761.8232 
   98000    283.90347   -7392.8858    33.850493   -7426.7363   -15598.907 
   98200    313.25235   -7381.0764     37.34983   -7418.4262    11109.193 
   98400    321.26796   -7386.1093    38.305551   -7424.4149    19914.713 
   98600    263.96322   -7395.1899    31.472969   -7426.6629    -26697.11 
   98800     357.9882   -7382.0385    42.683793   -7424.7222    4851.6985 
   99000    245.33361    -7396.662    29.251716   -7425.9137   -1893.3519 
   99200    312.51219   -7389.5217    37.261579   -7426.7833    23492.368 
   99400    318.85299   -7386.8857    38.017608   -7424.9033   -17376.831 
   99600    225.25771   -7401.5284    26.858018   -7428.3864   -30989.575 
   99800    319.77085   -7391.6479    38.127047   -7429.7749    17108.887 
  100000    313.63306     -7387.46    37.395223   -7424.8552   -21563.257 
  100200    368.72621   -7372.0066    43.964111   -7415.9708    15662.714 
  100400    302.26988   -7387.1984    36.040364   -7423.2387   -1909.4491 
  100600    282.23337   -7392.3295    33.651362   -7425.9809    13119.822 
  100800    300.18461   -7385.3335    35.791733   -7421.1253    10075.303 
  101000    236.51918   -7385.7827     28.20075   -7413.9835   -20915.753 
  101200     243.4208   -7395.3017    29.023646   -7424.3253    21346.407 
  101400    279.33918   -7390.8975    33.306281   -7424.2038   -7980.5978 
  101600    202.41451   -7390.7171    24.134368   -7414.8515   -8109.2719 
  101800    307.93677   -7375.8628    36.716041   -7412.5789     2259.777 
  102000    239.36989   -7395.2829    28.540647   -7423.8235    3088.1249 
  102200     317.1166   -7385.2023    37.810574   -7423.0129    1969.3197 
  102400    307.06816   -7385.8513    36.612474   -7422.4637    -4293.913 
  102600    252.23342    -7396.327    30.074397   -7426.4013    474.53682 
  102800     280.6354   -7384.9407    33.460832   -7418.4015   -347.53633 
  103000    277.03864   -7395.4444    33.031983   -7428.4764    12077.521 
  103200    262.14692   -7394.4887    31.256407   -7425.7451   -26352.392 
  103400    295.61166   -7385.3395    35.246489    -7420.586   -17495.003 
  103600    245.40137    -7393.518    29.259795   -7422.7778   -7989.8472 
  103800    205.31763   -7407.2746    24.480514   -7431.7551   -24384.947 
  104000     332.6808   -7386.6129    39.666331   -7426.2793    41360.312 
  104200    279.08605   -7386.7838      33.2761   -7420.0599   -18791.235 
  104400    255.71405   -7396.2477      30.4894   -7426.7371   -8334.8585 
  104600    232.61687    -7393.518    27.735468   -7421.2535   -463.82595 
  104800    333.20971   -7381.2916    39.729394    -7421.021   -26656.639 
  105000     295.9475   -7395.7884    35.286531   -7431.0749   -26611.527 
  105200    279.83946   -7391.6834    33.365931   -7425.0493    3711.9504 
  105400    322.17536   -7382.8334    38.413742   -7421.2472   -25432.078 
  105600    266.49594   -7393.5484    31.774951   -7425.3233     1456.393 
  105800    324.83169   -7379.2843    38.730462   -7418.0148    3537.3822 
  106000    336.40084   -7389.3953    40.109881   -7429.5052    447.57316 
  106200    245.81126   -7390.3317    29.308667   -7419.6404   -13222.228 
  106400    345.54274   -7379.4652     41.19989   -7420.6651   -6718.5567 
  106600    261.58026    -7389.182    31.188842   -7420.3709   -9954.8539 
  106800    251.04894   -7395.9885    29.933168   -7425.9216   -20364.233 
  107000    332.12845   -7379.8778    39.600473   -7419.4783    14521.442 
  107200    273.56537   -7397.6514    32.617856   -7430.2693   -2304.3847 
  107400    323.64796   -7389.7685    38.589324   -7428.3578   -7479.7538 
  107600    331.55815   -7383.4289    39.532474   -7422.9614    -2047.488 
  107800    279.24433   -7397.7342    33.294972   -7431.0291    2453.2365 
  108000    342.85678   -7388.5151    40.879637   -7429.3947   -431.76304 
  108200    351.79235   -7382.5411    41.945047   -7424.4861   -6325.1576 
  108400    313.18877   -7390.5388    37.342249    -7427.881    14797.879 
  108600    270.47329   -7393.2374     32.24918   -7425.4866   -14383.334 
  108800    325.86195   -7381.4041    38.853302   -7420.2574    20035.489 
  109000    306.62194   -7393.1558     36.55927   -7429.7151   -11949.354 
  109200    280.46419   -7391.1819    33.440419   -7424.6223    19795.673 
  109400    319.44401    -7389.333    38.088077    -7427.421    9027.2213 
  109600    231.29506   -7398.9903    27.577866   -7426.5681   -331.32589 
  109800    247.77046   -7392.0514    29.542267   -7421.5937   -18496.115 
  110000    262.00732   -7387.5723    31.239762    -7418.812    20675.566 
  110200    231.93921   -7398.0701    27.654669   -7425.7248    -10925.99 
  110400    324.23674   -7379.8543    38.659525   -7418.5138   -15802.151 
  110600    330.43651   -7390.9709    39.398739   -7430.3697   -2841.8566 
  110800    276.86612   -7394.9514    33.011412   -7427.9628    22764.219 
  111000     313.9552   -7376.5847    37.433633   -7414.0183    20491.539 
  111200    321.62843   -7388.7989    38.348531   -7427.1475    15835.084 
  111400    274.30244   -7394.4331    32.705739   -7427.1389    6997.0434 
  111600    360.61252   -7375.7326    42.996697   -7418.7293    28792.791 
  111800    356.14366   -7387.3186    42.463864   -7429.7824    914.33149 
  112000    315.57039   -7392.5749    37.626215   -7430.2011   -7844.8183 
  112200    336.90882   -7377.0614    40.170448   -7417.2319    24766.582 
  112400    310.40948   -7379.7154    37.010868   -7416.7263   -3195.8264 
  112600    268.96011   -7388.7416     32.06876   -7420.8104   -12438.537 
  112800    266.32351   -7401.9388    31.754392   -7433.6932    10903.942 
  113000    293.88763    -7392.508    35.040928   -7427.5489   -14257.845 
  113200    296.31927   -7384.0553    35.330858   -7419.3861    4989.1758 
  113400     286.5633   -7393.6834    34.167631    -7427.851    9192.5582 
  113600    290.45353   -7395.6027    34.631472   -7430.2342   -42173.237 
  113800    325.98687    -7382.002    38.868198   -7420.8702   -14420.419 
  114000    280.73433   -7392.3435    33.472629   -7425.8162   -4355.7974 
  114200    224.29618   -7404.6189    26.743372   -7431.3622    17638.077 
  114400    281.73193    -7390.189    33.591575   -7423.7805    30795.413 
  114600    306.40328   -7385.0888    36.533199    -7421.622   -22089.905 
  114800    274.01868   -7396.0008    32.671905   -7428.6727   -15012.166 
  115000    278.98534   -7392.0817    33.264092   -7425.3458    24694.342 
  115200    280.39842   -7384.6454    33.432578    -7418.078   -16840.358 
  115400    217.07942   -7397.0332      25.8829   -7422.9161   -16488.638 
  115600    308.51868   -7387.5346    36.785424     -7424.32   -9973.3856 
  115800    250.88243   -7383.4742    29.913314   -7413.3875    22668.317 
  116000    243.48991   -7393.6236    29.031887   -7422.6555   -22597.192 
  116200    320.74816   -7376.4602    38.243573   -7414.7038    16953.937 
  116400    357.28984   -7383.6504    42.600525   -7426.2509   -19206.719 
  116600    298.28837   -7391.2091    35.565639   -7426.7747   -7703.5849 
  116800    395.40751   -7380.6616    47.145388   -7427.8069   -4000.2784 
  117000    308.71536   -7388.9236    36.808874   -7425.7325   -36178.165 
  117200     271.7824   -7392.0874    32.405268   -7424.4926    17113.597 
  117400    335.15956   -7383.9396    39.961879   -7423.9015    190.99028 
  117600    252.76208    -7401.658     30.13743   -7431.7954     11506.08 
  117800    285.89256   -7390.8385    34.087657   -7424.9262   -5090.8233 
  118000     329.5584   -7386.9341     39.29404   -7426.2282    10052.678 
  118200    215.45754   -7402.6115     25.68952    -7428.301   -1672.1732 
  118400    290.94822   -7393.5374    34.690456   -7428.2279    7129.0212 
  118600    294.45985   -7387.1867    35.109156   -7422.2959    1916.5254 
  118800    314.11842   -7387.1701    37.453094   -7424.6232    15465.368 
  119000    266.76624   -7396.4213     31.80718   -7428.2284   -24454.248 
  119200    291.98816   -7382.0157     34.81445   -7416.8302   -12607.184 
  119400    280.72591   -7387.8745    33.471625   -7421.3461    -10660.78 
  119600    300.50127   -7388.1015    35.829489    -7423.931    570.85824 
  119800    348.38641   -7381.0106    41.538948   -7422.5496   -17975.377 
  120000    297.90321   -7393.8517    35.519715   -7429.3714    35992.072 
  120200    333.62281   -7382.3707     39.77865   -7422.1493   -22849.311 
  120400    288.67444   -7388.7457    34.419347    -7423.165    14967.731 
  120600    281.41207   -7395.7291    33.553438   -7429.2826    27376.468 
  120800    305.08418   -7382.9665     36.37592   -7419.3424    2721.7886 
  121000    304.86849   -7392.0358    36.350202    -7428.386   -6150.4341 
  121200    296.34094    -7397.123    35.333442   -7432.4564   -16811.495 
  121400    325.15959   -7388.2013    38.769559   -7426.9708   -10246.882 
  121600    276.54864   -7387.5579    32.973559   -7420.5314    5834.0242 
  121800    276.11575   -7397.6142    32.921944   -7430.5361    17424.889 
  122000    283.86283   -7392.2687    33.845647   -7426.1143   -28889.343 
  122200    323.58997   -7384.3464     38.58241   -7422.9288    9633.1573 
  122400    299.00862   -7392.0747    35.651516   -7427.7262   -14546.404 
  122600    291.86192   -7403.3503    34.799398   -7438.1497    2126.7501 
  122800    267.03659   -7392.1024    31.839414   -7423.9419    9078.7923 
  123000    294.83706   -7386.9236    35.154131   -7422.0777    5403.8619 
  123200    359.02469   -7372.8952    42.807376   -7415.7026    6163.3165 
  123400    287.51989    -7389.258    34.281687   -7423.5397   -1835.4881 
  123600    291.71107   -7391.6637    34.781412   -7426.4451    21973.602 
  123800    315.13371   -7375.2292    37.574149   -7412.8033   -9969.6997 
  124000    283.51216   -7389.7376    33.803836   -7423.5414   -2859.2581 
  124200    302.54863   -7388.4853      36.0736   -7424.5589   -5817.8764 
  124400    303.10647   -7385.5596    36.140113   -7421.6997    17712.746 
  124600     246.3312   -7398.9101    29.370661   -7428.2808   -6762.0579 
  124800    232.82273   -7385.2939    27.760013   -7413.0539   -10092.256 
  125000    282.25072   -7389.0432    33.653431   -7422.6967    5841.6774 
  125200    274.76632   -7393.1237    32.761049   -7425.8848   -1779.0179 
  125400    254.18095   -7389.8623    30.306606   -7420.1689   -7291.9148 
  125600    316.39019   -7375.9874    37.723962   -7413.7113    5306.3825 
  125800    254.54649   -7391.1663     30.35019   -7421.5165    15389.915 
  126000    280.87603   -7394.4856    33.489524   -7427.9751     11471.59 
  126200     334.0687   -7376.8342    39.831814    -7416.666    15900.739 
  126400    261.81347   -7389.4402    31.216649   -7420.6569    7102.7681 
  126600    318.51473   -7388.4862    37.977276   -7426.4634     10711.08 
  126800    299.77962   -7388.6211    35.743444   -7424.3646    2602.1533 
  127000    247.32833   -7400.8576    29.489551   -7430.3472   -4994.1911 
  127200    266.13105   -7387.0236    31.731445   -7418.7551   -1364.3567 
  127400    266.54779   -7388.2592    31.781133   -7420.0403    -25815.04 
  127600     224.8373   -7400.3257    26.807891   -7427.1336   -10854.815 
  127800    325.65387   -7382.8015    38.828493     -7421.63    31082.895 
  128000    281.44979    -7385.322    33.557935   -7418.8799   -17964.351 
  128200    266.14883   -7398.2084    31.733564   -7429.9419   -3676.6364 
  128400    319.60655   -7389.9599    38.107456   -7428.0674   -942.66681 
  128600    299.96247   -7386.4888    35.765246   -7422.2541   -21307.279 
  128800     285.2987   -7389.4436    34.016849   -7423.4605     1844.673 
  129000    264.19051    -7398.173    31.500069   -7429.6731    16571.326 
  129200    309.29722   -7388.8216     36.87825   -7425.6998   -6384.2736 
  129400    381.16535   -7381.5636     45.44726   -7427.0109   -4235.9487 
  129600    314.79709   -7390.9309    37.534013   -7428.4649   -11494.113 
  129800    334.71079    -7388.275    39.908372   -7428.1833   -9898.8525 
  130000    242.24994   -7392.9983    28.884042   -7421.8823    32283.151 
  130200    307.39609   -7390.0248    36.651574   -7426.6764   -26110.427 
  130400    326.97093   -7378.8937    38.985529   -7417.8793   -14281.452 
  130600    282.11675   -7396.2494    33.637458   -7429.8869    31496.842 
  130800    345.60287   -7386.5361    41.207061   -7427.7431    2669.9683 
  131000    351.52585    -7378.018    41.913271   -7419.9312    447.31299 
  131200    249.14041   -7395.6121    29.705609   -7425.3177     8355.301 
  131400    304.35804   -7387.3224     36.28934   -7423.6117   -20906.161 
  131600    323.48392   -7383.9136    38.569765   -7422.4833    43904.601 
  131800    302.82294   -7397.4724    36.106307   -7433.5787   -3065.0086 
  132000     331.5538   -7384.1001    39.531956   -7423.6321   -16090.085 
  132200    306.18138   -7389.3742    36.506741    -7425.881    4546.2752 
  132400    267.86607   -7389.5234    31.938315   -7421.4617    2358.9769 
  132600     326.8287   -7374.1958    38.968571   -7413.1644    3053.8865 
  132800    271.13163   -7392.0771    32.327675   -7424.4047    935.03222 
  133000    268.45126   -7388.0707    32.008089   -7420.0788   -8604.5264 
  133200    321.38789   -7378.8638     38.31985   -7417.1837   -15479.136 
  133400    274.21841   -7393.6773    32.695719    -7426.373    20905.338 
  133600    382.24999   -7384.8789    45.576584   -7430.4554   -18748.953 
  133800    330.47964   -7392.3675    39.403881   -7431.7714    3045.3831 
  134000    271.51667   -7397.1002    32.373584   -7429.4738    9477.9051 
  134200     248.2755   -7386.9132    29.602484   -7416.5157    3475.3146 
  134400    271.62029   -7390.8363     32.38594   -7423.2222   -26003.066 
  134600    231.80664   -7401.9228    27.638862   -7429.5617   -1586.4868 
  134800    316.06678   -7385.6297    37.685402   -7423.3151    9828.9542 
  135000    309.70552   -7391.8877    36.926933   -7428.8146   -19106.556 
  135200    267.41965    -7394.878    31.885087   -7426.7631    12728.588 
  135400    404.44079   -7378.3122    48.222447   -7426.5346   -9346.0375 
  135600    292.02056    -7393.074    34.818313   -7427.8923    3187.7888 
  135800    295.11109   -7390.7738    35.186805   -7425.9606   -18440.051 
  136000    353.81985   -7376.0115    42.186791   -7418.1983   -17410.177 
  136200    289.23935   -7391.2332    34.486702   -7425.7199    13787.891 
  136400    293.35884   -7389.5557    34.977879   -7424.5336    2966.8927 
  136600    320.35351   -7381.0045    38.196519    -7419.201    3112.2969 
  136800    280.41937    -7394.246    33.435075   -7427.6811   -16564.426 
  137000    315.43497   -7385.9529     37.61007    -7423.563    140.24538 
  137200    273.57329   -7392.7012      32.6188     -7425.32    -15327.88 
  137400    272.39128   -7398.4564    32.477866   -7430.9342    22827.715 
  137600    283.58697   -7388.2514    33.812755   -7422.0642     6663.655 
  137800    323.95202   -7391.0122    38.625578   -7429.6378   -17002.369 
  138000    284.16268   -7397.1279    33.881399   -7431.0093   -6637.3738 
  138200     371.0837    -7381.164    44.245201   -7425.4092    5602.4695 
  138400    321.31698   -7390.0023    38.311396   -7428.3137    5812.1009 
  138600    295.66102   -7388.1393    35.252374   -7423.3916     6791.378 
  138800    352.01021   -7375.0075    41.971023   -7416.9785    42461.223 
  139000    244.63546   -7391.3059    29.168473   -7420.4744    4708.6343 
  139200    255.36638   -7389.9273    30.447947   -7420.3752   -6580.0915 
  139400    293.61185   -7376.4262    35.008047   -7411.4342    48808.736 
  139600    286.62477   -7389.2564     34.17496   -7423.4314   -38864.613 
  139800    279.44986   -7393.0274    33.319478   -7426.3469   -23729.838 
  140000    276.52849   -7379.4076    32.971157   -7412.3788    8513.5095 
  140200    280.61586   -7378.0825    33.458503    -7411.541   -12603.486 
  140400    266.06381   -7391.2091    31.723427   -7422.9325   -9353.0903 
  140600    315.88596   -7386.7028    37.663842   -7424.3667   -3020.7081 
  140800    321.90835      -7382.8    38.381906   -7421.1819    7226.3609 
  141000    275.37058   -7396.9236    32.833096   -7429.7567    11715.864 
  141200    332.82896   -7388.4203    39.683997   -7428.1043   -3395.8584 
  141400    280.79262     -7389.31    33.479578   -7422.7896    34553.492 
  141600    275.80307   -7384.6335    32.884663   -7417.5182    -6121.927 
  141800    312.26595   -7380.8515    37.232219   -7418.0837     19042.85 
  142000    307.28611   -7394.4242    36.638461   -7431.0627   -5313.6215 
  142200    309.24047   -7384.6923    36.871485   -7421.5638    42528.529 
  142400    311.82103   -7380.5066     37.17917   -7417.6858   -350.83633 
  142600    234.95371   -7399.3287    28.014095   -7427.3428   -14353.946 
  142800    276.60929   -7385.1088     32.98079   -7418.0896   -14787.237 
  143000    306.93221   -7383.6175    36.596265   -7420.2138     42805.04 
  143200    374.21039   -7386.6062    44.618003   -7431.2242   -23233.656 
  143400    237.33841   -7395.3083    28.298428   -7423.6067   -33957.731 
  143600    274.78601   -7400.2234    32.763395   -7432.9868    2039.6173 
  143800    436.07875   -7382.8062    51.994717   -7434.8009   -6305.9361 
  144000    370.20232   -7391.2461    44.140111   -7435.3862   -16514.278 
  144200    354.12395   -7391.2598    42.223049   -7433.4829   -15664.694 
  144400    349.79884   -7376.5591    41.707356   -7418.2664   -5091.0604 
  144600    287.42045   -7387.3196     34.26983   -7421.5895    12924.077 
  144800    330.32836   -7388.7019    39.385843   -7428.0877   -19517.449 
  145000    349.34499   -7373.3618    41.653243    -7415.015    20067.912 
  145200    345.33058   -7388.8538    41.174594   -7430.0284   -11329.278 
  145400    276.35832   -7391.2741    32.950866    -7424.225    2788.8521 
  145600    395.98689   -7378.8505    47.214468    -7426.065    6892.5036 
  145800    317.49415   -7384.2262     37.85559   -7422.0818   -2280.6822 
  146000    296.24508   -7390.1334    35.322012   -7425.4555    3731.4519 
  146200    325.63204   -7385.5716     38.82589   -7424.3975   -25225.144 
  146400    289.71165   -7379.4186    34.543015   -7413.9616    26141.792 
  146600    283.28187   -7395.1327    33.776378    -7428.909    14868.296 
  146800    263.86896   -7388.3186     31.46173   -7419.7803    16052.106 
  147000    304.72422   -7380.5261    36.333001   -7416.8591    4275.8047 
  147200    242.08729   -7390.0211    28.864649   -7418.8857    -22213.57 
  147400    228.26599   -7393.1697    27.216702   -7420.3864    5769.9484 
  147600    255.11935   -7390.5331    30.418493   -7420.9516   -7478.3225 
  147800    240.26747   -7396.2758    28.647668   -7424.9235   -5615.9347 
  148000    328.07116   -7385.3934    39.116713   -7424.5101   -1456.4909 
  148200    287.41785    -7385.296    34.269521   -7419.5655   -4480.0934 
  148400    222.66584   -7400.9476    26.548983   -7427.4966    11718.408 
  148600    246.20283   -7388.7212    29.355354   -7418.0766    36439.742 
  148800    339.44999   -7388.4633    40.473438   -7428.9368   -17409.204 
  149000    273.78154   -7388.8419     32.64363   -7421.4855     30405.13 
  149200    371.34479   -7379.1541    44.276332   -7423.4304   -7918.5545 
  149400    248.53749   -7395.9329    29.633722   -7425.5667    9250.1428 
  149600     306.0247   -7390.8898    36.488061   -7427.3778    26396.227 
  149800     344.0226   -7384.4895    41.018642   -7425.5081   -26318.674 
  150000    317.74526    -7389.654    37.885531   -7427.5395   -19597.178 
  150200    236.36692   -7406.3813    28.182595   -7434.5639    10502.602 
  150400    335.47061   -7390.4484    39.998967   -7430.4474    8147.2975 
  150600    397.51752   -7382.5816    47.396968   -7429.9786   -1284.1713 
  150800    291.06774   -7394.1779    34.704706   -7428.8826   -6844.2834 
  151000    310.67076   -7392.9019    37.042021    -7429.944    -17358.52 
  151200    361.39968   -7378.3591    43.090552   -7421.4496    18195.614 
  151400    278.66978   -7390.1995    33.226468    -7423.426    6335.3703 
  151600    286.17469   -7389.1175    34.121296   -7423.2388    21624.364 
  151800    392.80609   -7367.6351    46.835214   -7414.4703   -23755.665 
  152000    317.25082   -7386.2074    37.826577    -7424.034   -17689.742 
  152200    280.86625   -7392.1366    33.488358   -7425.6249    11214.601 
  152400    287.25412    -7384.893    34.249998    -7419.143   -24560.113 
  152600    279.67394   -7385.5095    33.346196   -7418.8557    17411.034 
  152800     253.6406   -7396.6472    30.242178   -7426.8894    19572.294 
  153000    285.06586   -7389.1268    33.989087   -7423.1159   -3300.9467 
  153200    267.60138   -7385.5529    31.906756   -7417.4596    5435.9823 
  153400    257.14215    -7393.297    30.659676   -7423.9567    9052.6459 
  153600    308.71935   -7384.5159     36.80935   -7421.3252    -33767.82 
  153800    233.20851   -7384.7476     27.80601   -7412.5536   -19749.743 
  154000    306.31683   -7395.0152    36.522891   -7431.5381   -7411.0918 
  154200    320.77496   -7387.2277    38.246769   -7425.4745    15614.886 
  154400    281.21834    -7390.481    33.530338   -7424.0114    23981.541 
  154600    287.21266    -7384.957    34.245055    -7419.202    -24168.86 
  154800    416.70297   -7372.8312    49.684496   -7422.5157    2808.0366 
  155000    267.99915   -7392.4137    31.954182   -7424.3678    2579.6906 
  155200    310.16696   -7390.3497    36.981951   -7427.3316    6897.9183 
  155400    376.59412   -7378.0124    44.902221   -7422.9146   -8532.3963 
  155600    309.59037   -7394.1986    36.913203   -7431.1118   -15276.624 
  155800    272.11227   -7387.5263      32.4446   -7419.9709   -22117.174 
  156000    422.58696    -7375.986    50.386058    -7426.372    27515.404 
  156200    321.06698    -7395.157    38.281587   -7433.4386    19872.292 
  156400    340.50717    -7388.836    40.599487   -7429.4355    6347.4575 
  156600    375.38193   -7374.1662    44.757689   -7418.9239   -12069.376 
  156800     314.5613   -7393.7487    37.505899   -7431.2546   -12633.888 
  157000    304.02205   -7392.2209    36.249279   -7428.4702    65.178899 
  157200    334.46368   -7381.1299    39.878908   -7421.0088   -768.22838 
  157400    245.42671   -7400.7738    29.262816   -7430.0366   -14019.734 
  157600    295.09515   -7394.9855    35.184904   -7430.1704    1649.7254 
  157800    341.64236   -7382.9639    40.734839   -7423.6987     34571.85 
  158000    286.10617   -7392.4861    34.113126   -7426.5993   -23396.235 
  158200    242.78405    -7396.767    28.947725   -7425.7147   -4334.2876 
  158400    297.40976   -7387.8229    35.460881   -7423.2838   -26583.762 
  158600    295.51869   -7387.4589    35.235403   -7422.6943    9463.2625 
  158800    381.41898   -7379.7788    45.477501   -7425.2563    19531.962 
  159000    277.35694   -7393.9462    33.069935   -7427.0162   -14178.782 
  159200    254.14522   -7391.6197    30.302346    -7421.922   -3921.8573 
  159400    268.65128   -7383.2953    32.031937   -7415.3272    33594.903 
  159600    299.59354   -7392.0907    35.721258    -7427.812   -17594.919 
  159800    217.56205      -7400.2    25.940446   -7426.1405   -3387.9657 
  160000    311.68346   -7392.6403    37.162768   -7429.8031   -8326.3807 
  160200    386.72318   -7384.6244    46.109934   -7430.7344    26028.472 
  160400    287.87049   -7398.8131    34.323491   -7433.1366    19880.716 
  160600     325.2079   -7389.0328     38.77532   -7427.8081   -16121.152 
  160800    330.20235   -7386.5175     39.37082   -7425.8883    -450.5204 
  161000     224.4744   -7396.3602    26.764622   -7423.1249   -8266.5628 
  161200    311.32737   -7382.3006     37.12031   -7419.4209    -21238.75 
  161400    318.34917   -7386.2096    37.957537   -7424.1671   -17744.888 
  161600     294.3169   -7390.3949    35.092111    -7425.487    37701.505 
  161800    340.25251    -7386.531    40.569124   -7427.1001     -6641.24 
  162000    315.75962   -7378.1674    37.648778   -7415.8162   -12548.661 
  162200    247.95507   -7394.6262    29.564278   -7424.1905    24022.318 
  162400    268.56663   -7390.1344    32.021844   -7422.1562    9695.2062 
  162600    436.87928   -7369.0559    52.090166   -7421.1461   -330.55299 
  162800     268.3385   -7390.6454    31.994644     -7422.64    23225.278 
  163000    301.55856   -7389.7242    35.955551   -7425.6798    10164.718 
  163200    318.60097   -7384.8434    37.987559   -7422.8309    7369.7565 
  163400    296.85135   -7394.5735    35.394299   -7429.9678   -23369.672 
  163600    332.05461   -7381.9525    39.591669   -7421.5441   -8608.5862 
  163800    320.93589   -7389.3577    38.265957   -7427.6236    29708.439 
  164000    339.53193   -7391.0479    40.483207   -7431.5311    9949.3024 
  164200     308.3615   -7382.1575    36.766682   -7418.9241    30869.734 
  164400    300.45981   -7399.6873    35.824544   -7435.5119    8345.1757 
  164600    289.81022   -7392.0032    34.554769   -7426.5579   -19239.853 
  164800    327.96333   -7382.4193    39.103856   -7421.5231    21784.243 
  165000     277.3364   -7395.0684    33.067485   -7428.1359    19887.646 
  165200     296.9992   -7395.6737    35.411928   -7431.0856    816.69239 
  165400     230.4242   -7388.0463    27.474031   -7415.5203    18867.567 
  165600     266.5272   -7388.3892    31.778678   -7420.1679   -29384.967 
  165800    238.67261   -7402.1368    28.457509   -7430.5943    16779.144 
  166000    312.27321    -7387.531    37.233085   -7424.7641   -13989.783 
  166200    302.73542   -7390.8762    36.095871    -7426.972    14070.058 
  166400    228.50573   -7397.2486    27.245287   -7424.4939     1961.949 
  166600    258.46007   -7395.4928    30.816815   -7426.3096    11236.855 
  166800    339.05191    -7385.755    40.425974   -7426.1809    6668.1937 
  167000    229.57149   -7397.7594     27.37236   -7425.1317     2322.471 
  167200    326.32008     -7387.07    38.907927   -7425.9779   -15515.021 
  167400    336.86583   -7382.0415    40.165322   -7422.2068     10741.21 
  167600    266.66963   -7396.0115    31.795661   -7427.8072   -12905.542 
  167800    274.47572   -7390.0289      32.7264   -7422.7553   -1234.0021 
  168000    345.14379   -7375.5618    41.152323   -7416.7141    678.82573 
  168200    308.55916   -7387.8477     36.79025   -7424.6379    -6514.076 
  168400     291.6809   -7392.8818    34.777814   -7427.6596    7933.7989 
  168600    267.80471   -7396.0413    31.930999   -7427.9723    19824.897 
  168800    278.11042   -7384.3478    33.159773   -7417.5075    15629.251 
  169000    288.02603   -7385.0884    34.342036   -7419.4304   -3476.9672 
  169200    272.35121   -7395.6876    32.473089   -7428.1607   -16586.107 
  169400    326.74583   -7385.9259     38.95869   -7424.8846    37830.959 
  169600    362.66022    -7383.167    43.240849   -7426.4079   -4556.1159 
  169800    348.73589   -7387.3415    41.580618   -7428.9221    15251.923 
  170000    261.78316   -7396.6527    31.213035   -7427.8657   -5570.2483 
  170200    288.55342   -7379.7673    34.404917   -7414.1722   -7520.1596 
  170400    302.24743   -7385.8781    36.037687   -7421.9158   -9014.4339 
  170600    313.06996   -7393.5082    37.328084   -7430.8363    11403.349 
  170800    356.13176   -7388.5908    42.462445   -7431.0532   -32018.532 
  171000    337.23595   -7383.2079    40.209452   -7423.4174    7905.0429 
  171200    340.10189    -7377.922    40.551165   -7418.4732    31040.233 
  171400     268.6698   -7393.6815    32.034146   -7425.7157   -14582.686 
  171600    335.37821     -7388.19    39.987949    -7428.178    3547.9258 
  171800    314.03205   -7380.2441    37.442796   -7417.6869   -8763.8798 
  172000    318.00945   -7389.2181     37.91703   -7427.1352    8195.7675 
  172200    288.44602    -7391.302    34.392111   -7425.6941    218.59638 
  172400    313.00686   -7392.4475     37.32056   -7429.7681   -586.40192 
  172600    319.88299   -7383.4641    38.140418   -7421.6045   -25575.753 
  172800     247.1623   -7386.5524    29.469755   -7416.0222   -18933.483 
  173000    270.86319   -7394.7258    32.295668   -7427.0215    10664.136 
  173200     301.3082   -7388.6362      35.9257   -7424.5619    26174.973 
  173400    300.25654   -7389.9472    35.800309   -7425.7475   -4699.0447 
  173600    327.60039   -7380.1536    39.060581   -7419.2142    29327.296 
  173800    235.27634   -7393.0764    28.052563   -7421.1289    2059.3154 
  174000    255.63387   -7392.2574     30.47984   -7422.7373   -16943.465 
  174200    317.77037   -7383.2429    37.888524   -7421.1314    16884.106 
  174400    298.83323   -7389.0132    35.630603   -7424.6438   -7442.5474 
  174600    281.38655   -7390.5557    33.550394   -7424.1061    16339.553 
  174800    189.25573   -7394.7247    22.565415   -7417.2901    -3338.603 
  175000    264.16164   -7384.5987    31.496627   -7416.0953   -4277.1571 
  175200    343.35727   -7384.8014    40.939312   -7425.7407    16991.925 
  175400    293.06339   -7393.5885    34.942652   -7428.5312   -20609.573 
  175600    278.56496   -7382.7279    33.213969   -7415.9419    31797.926 
  175800    295.34204   -7390.3085    35.214341   -7425.5229    7151.3727 
  176000    294.98681   -7395.9528    35.171986   -7431.1248   -341.69812 
  176200    369.42694   -7381.6644    44.047661   -7425.7121   -6413.7457 
  176400    315.23178   -7387.7353    37.585843   -7425.3211   -2814.3555 
  176600    290.74996   -7388.9839    34.666816   -7423.6507   -2249.6178 
  176800    232.14662   -7390.5291    27.679399   -7418.2085    -7599.865 
  177000    218.01072   -7401.7673    25.993942   -7427.7613   -4263.7281 
  177200    305.11481   -7385.1889    36.379572   -7421.5684    18299.995 
  177400    327.64861   -7386.5425     39.06633   -7425.6088    11412.761 
  177600    283.46094   -7397.8901    33.797729   -7431.6878    -3857.606 
  177800    366.61688   -7380.3496    43.712612   -7424.0622    401.85072 
  178000    259.17599   -7392.6313    30.902176   -7423.5334    7955.7163 
  178200    289.64642   -7389.7197    34.535238    -7424.255    3133.5027 
  178400     408.7759    -7378.274    48.739333   -7427.0133   -13842.418 
  178600    275.42536   -7390.6051    32.839627   -7423.4448    1040.6065 
  178800     250.6075   -7394.0073    29.880534   -7423.8878    3043.2821 
  179000    363.13505    -7379.289    43.297464   -7422.5864    -8528.986 
  179200    321.66674   -7393.1069    38.353098     -7431.46    5003.9828 
  179400    329.78064   -7392.5573    39.320538   -7431.8778   -18112.166 
[...]
  950000    319.68002   -7396.3463    38.116217   -7434.4625    13118.934 
  950200    322.13901   -7385.4441    38.409407   -7423.8535    9877.5543 
  950400    352.72127   -7384.9841    42.055804   -7427.0399    12771.437 
  950600    318.48137   -7388.3544    37.973299   -7426.3277   -5430.4999 
  950800    275.22518   -7398.6128    32.815759   -7431.4286    7229.2694 
  951000     290.7378   -7385.0385    34.665367   -7419.7039   -45324.608 
  951200    291.95467   -7382.3393    34.810456   -7417.1497    2867.5303 
  951400    250.50264   -7397.8677    29.868031   -7427.7357   -2279.2039 
  951600    281.73808   -7389.7971    33.592308   -7423.3894    -18206.88 
  951800    298.93447     -7385.89    35.642674   -7421.5327   -7899.1021 
  952000    281.50866   -7390.9844    33.564954   -7424.5494    29568.824 
  952200     232.0713   -7403.7317    27.670419   -7431.4021   -4814.4977 
  952400    281.82572      -7390.3    33.602757   -7423.9028    1507.7118 
  952600    323.34667   -7383.3579      38.5534   -7421.9113   -6706.9908 
  952800     277.9387   -7394.9193    33.139299   -7428.0586    289.79493 
  953000    285.71113   -7396.4937    34.066025   -7430.5597    25877.706 
  953200    307.40288    -7389.022    36.652383   -7425.6744   -16820.816 
  953400    338.40677    -7383.298    40.349052    -7423.647    12547.842 
  953600    373.74584   -7384.6397    44.562615   -7429.2024    9019.9487 
  953800    285.25384    -7397.238    34.011501   -7431.2495   -12290.203 
  954000    363.61536   -7383.3208    43.354733   -7426.6755    6742.9278 
  954200    324.25651   -7386.4749    38.661883   -7425.1368   -1265.5849 
  954400    260.80156   -7392.5662    31.095996   -7423.6622   -19673.985 
  954600       343.58   -7373.8252    40.965869   -7414.7911   -703.28429 
  954800    306.99234   -7387.3471    36.603434   -7423.9505    9519.3161 
  955000    284.42194    -7391.189    33.912311   -7425.1013   -31024.984 
  955200    283.67195   -7392.6573    33.822889   -7426.4802    7970.4957 
  955400    298.11412   -7388.0447    35.544863   -7423.5895    3087.6884 
  955600    320.82309   -7378.3505    38.252507   -7416.6031   -30830.221 
  955800    341.76314   -7390.7587    40.749241    -7431.508   -19643.461 
  956000    311.40232   -7388.6494    37.129246   -7425.7786    56865.572 
  956200     364.9804   -7377.3668     43.51749   -7420.8842   -17443.856 
  956400    276.97229   -7387.1483    33.024072   -7420.1724    7791.8577 
  956600    303.36842   -7391.9483    36.171346   -7428.1196    5625.8146 
  956800    359.14825   -7378.7148    42.822108   -7421.5369    20935.272 
  957000     278.2536   -7389.3183    33.176845   -7422.4952   -43845.158 
  957200    297.60389   -7394.0548    35.484027   -7429.5389     9068.344 
  957400    306.59651   -7383.7204    36.556239   -7420.2767     11666.69 
  957600    311.34226   -7394.9858    37.122085   -7432.1079   -4078.8153 
  957800    272.06784   -7391.6666    32.439302   -7424.1059   -17788.482 
  958000     286.6635   -7388.2822    34.179578   -7422.4618   -18565.585 
  958200     283.9286   -7392.9458    33.853489   -7426.7993    9921.5543 
  958400    323.17717   -7385.5404     38.53319   -7424.0736    17174.812 
  958600    324.06084   -7383.7319    38.638552   -7422.3705    14152.034 
  958800    236.08412   -7396.4465    28.148877   -7424.5954    719.78456 
  959000    289.74741   -7386.1116     34.54728   -7420.6589   -2165.9925 
  959200     300.8528   -7389.7967    35.871402   -7425.6681   -4647.1258 
  959400     263.8061   -7402.9245    31.454235   -7434.3787    24738.769 
  959600    264.21059   -7396.2177    31.502463   -7427.7202   -2952.6509 
  959800    350.31709   -7387.2675    41.769148   -7429.0366    8523.3551 
  960000    239.45035   -7392.5712     28.55024   -7421.1214    8268.4413 
  960200    323.53241   -7387.6846    38.575547   -7426.2601   -26030.471 
  960400    328.45227    -7384.698    39.162153   -7423.8602     7745.159 
  960600    309.00193   -7396.8204    36.843042   -7433.6635    6151.5937 
  960800    307.46031   -7385.6416    36.659232   -7422.3008   -14440.124 
  961000      274.762    -7390.252    32.760533   -7423.0126   -13605.268 
  961200    237.37021   -7405.8219    28.302221   -7434.1241   -1736.7358 
  961400    269.09542    -7396.124    32.084893   -7428.2089   -7427.1093 
  961600    363.24983   -7385.0807     43.31115   -7428.3918    34269.663 
  961800    265.11144   -7395.1406    31.609874   -7426.7504    12057.927 
  962000    255.27982   -7394.6322    30.437626   -7425.0698    18761.667 
  962200    328.66941   -7387.5921    39.188043   -7426.7802    -17637.47 
  962400       303.47   -7390.3991    36.183457   -7426.5826    16422.222 
  962600    358.66675   -7373.9892    42.764698   -7416.7539   -24972.409 
  962800    289.43428   -7390.3877    34.509944   -7424.8977    15148.165 
  963000    334.65194   -7390.1647    39.901354    -7430.066   -16815.329 
  963200    321.72195   -7374.8296    38.359681   -7413.1893    3019.2558 
  963400    338.32794   -7386.3311    40.339653   -7426.6708   -5050.6564 
  963600    288.73219   -7394.3115    34.426233   -7428.7378    9119.2426 
  963800    336.98038   -7375.9639     40.17898   -7416.1429    4591.5346 
  964000    241.20478   -7389.1606    28.759426     -7417.92   -35760.106 
  964200    268.98792   -7390.8771    32.072076   -7422.9492    8308.0943 
  964400    382.61018   -7381.9054     45.61953   -7427.5249   -7333.9549 
  964600    318.36487   -7386.1624    37.959408   -7424.1218    22160.747 
  964800    262.24009   -7393.9225    31.267516     -7425.19    8452.8403 
  965000    336.51489   -7375.0716    40.123479   -7415.1951    7862.3363 
  965200    294.98372   -7382.9449    35.171617   -7418.1165    2482.6661 
  965400    265.40695   -7391.1993    31.645108   -7422.8445    7825.4753 
  965600    380.84503   -7388.6249    45.409067    -7434.034    8319.0659 
  965800    371.41186   -7375.8307    44.284328    -7420.115    6548.6674 
  966000    303.04266   -7390.5045    36.132505   -7426.6371    11040.885 
  966200    342.34633   -7388.0895    40.818776   -7428.9082   -9154.4878 
  966400    299.32196   -7402.6945    35.688876   -7438.3834    6169.7235 
  966600    309.54614   -7390.7096     36.90793   -7427.6175    575.82907 
  966800     270.7545   -7386.0871    32.282709   -7418.3698    10482.917 
  967000    239.21566   -7396.7237    28.522257   -7425.2459    490.39537 
  967200    270.37339   -7391.6195    32.237268   -7423.8568    17214.322 
  967400    308.44293   -7385.7902    36.776392   -7422.5666    7999.7585 
  967600    292.63149   -7393.7335    34.891155   -7428.6246    69.321001 
  967800    250.74975   -7401.6999    29.897494   -7431.5974   -7097.4632 
  968000    295.74117   -7384.2604     35.26193   -7419.5224    20406.851 
  968200    317.04483   -7390.2918    37.802016   -7428.0938   -905.11785 
  968400     269.3935   -7398.9746    32.120434    -7431.095   -10181.053 
  968600    311.04595   -7380.2778    37.086756   -7417.3646    4578.8111 
  968800    259.08004   -7391.1941    30.890736   -7422.0848     34828.24 
  969000    310.80823   -7394.2685    37.058411   -7431.3269    10752.205 
  969200    247.56791   -7393.7391    29.518116   -7423.2572    21621.873 
  969400     397.2852    -7381.527    47.369268   -7428.8963    1103.6774 
  969600    280.60106    -7392.916    33.456739   -7426.3727    3021.1838 
  969800    290.63686   -7393.4486     34.65333   -7428.1019   -5758.5017 
  970000    352.42811   -7380.3178     42.02085   -7422.3386   -6862.5471 
  970200    264.23919   -7393.1148    31.505873   -7424.6206    -10892.06 
  970400    299.89335   -7391.1909    35.757005   -7426.9479   -6115.6898 
  970600     262.6603   -7384.9761    31.317619   -7416.2937    32109.724 
  970800    196.50287   -7399.1799    23.429509   -7422.6094   -23412.453 
  971000    296.84878   -7387.2544    35.393993   -7422.6484   -5747.6405 
  971200    302.03267   -7395.7862    36.012081   -7431.7982    28049.938 
  971400    223.26675   -7392.6942    26.620631   -7419.3148    -4963.349 
  971600    276.64448   -7386.6895    32.984985   -7419.6745    17729.688 
  971800    278.61834   -7396.2153    33.220333   -7429.4356    15182.679 
  972000     264.9287   -7394.1347    31.588085   -7425.7228     -46009.8 
  972200    350.86025   -7385.3822    41.833911   -7427.2161    3732.6251 
  972400    355.54086   -7392.5079    42.391991   -7434.8999    -1163.343 
  972600    280.10328   -7400.6069    33.397387   -7434.0043   -308.48541 
  972800    363.26959   -7381.2898    43.313506   -7424.6033    257.54148 
  973000     364.5099   -7390.2138     43.46139   -7433.6752    11489.081 
  973200    287.10687   -7397.8117    34.232441   -7432.0442   -5365.0953 
  973400    355.86873   -7380.0071    42.431084   -7422.4382    14864.921 
  973600    232.56239   -7391.5256    27.728972   -7419.2546    4450.7464 
  973800    268.98268   -7393.5641    32.071451   -7425.6355   -8393.7569 
  974000    287.15764   -7389.4004    34.238495   -7423.6389    22715.036 
  974200     344.7545   -7387.1481    41.105908    -7428.254   -2804.3251 
  974400    314.49956   -7384.8797    37.498538   -7422.3783   -10883.624 
  974600    270.69572   -7398.6146    32.275701   -7430.8903   -12219.836 
  974800    350.07351   -7386.0445    41.740105   -7427.7846   -12702.931 
  975000    299.39908   -7384.3947    35.698071   -7420.0928    35501.249 
  975200    321.99027    -7395.023    38.391673   -7433.4146    8434.3494 
  975400    254.74063   -7405.1904    30.373337   -7435.5637    13272.635 
  975600     258.6008   -7386.4541    30.833594   -7417.2877    23766.527 
  975800    294.26968   -7386.3646    35.086481   -7421.4511    19186.628 
  976000    273.92278   -7399.3822    32.660471   -7432.0427    9727.8387 
  976200    312.80699    -7386.323    37.296728   -7423.6198    171.68162 
  976400    329.85572    -7385.764     39.32949   -7425.0934   -197.44278 
  976600    238.48695   -7396.0028    28.435372   -7424.4382   -514.44344 
  976800    255.94261   -7388.9193    30.516653   -7419.4359   -22766.374 
  977000    313.30899   -7384.7727    37.356584   -7422.1293   -8722.1429 
  977200    267.54972   -7398.1457    31.900596   -7430.0463   -12047.398 
  977400    332.47358   -7380.3546    39.641624   -7419.9962   -3856.9044 
  977600    258.26805   -7391.2005     30.79392   -7421.9945   -3293.5447 
  977800    258.98549   -7389.6541    30.879462   -7420.5335   -11726.273 
  978000    325.38208   -7375.9136    38.796087   -7414.7097   -9575.3995 
  978200    262.66909    -7395.213    31.318667   -7426.5317    2516.3273 
  978400    285.57899   -7384.3003    34.050269   -7418.3506   -64.163238 
  978600    247.48302   -7393.5117    29.507995   -7423.0197    24681.073 
  978800    238.13029   -7393.2094    28.392846   -7421.6022   -11570.614 
  979000    334.64527   -7379.8558    39.900559   -7419.7564   -16918.582 
  979200    314.78461   -7386.2315    37.532525    -7423.764    14539.519 
  979400    344.88351    -7390.378     41.12129   -7431.4993   -3275.2337 
  979600     260.7657   -7400.0015     31.09172   -7431.0932     18859.52 
  979800     282.5949   -7388.4208    33.694468   -7422.1153   -11179.921 
  980000    282.75749   -7388.1961    33.713854     -7421.91    -26226.31 
  980200    261.39768   -7399.4026    31.167073   -7430.5696   -2434.0303 
  980400    253.29835   -7396.9188     30.20137   -7427.1202    2362.3356 
  980600    312.46886   -7385.7879    37.256412   -7423.0443   -12679.923 
  980800    265.11736   -7389.3059     31.61058   -7420.9165    13604.316 
  981000    285.12867   -7396.8388    33.996576   -7430.8354    36035.672 
  981200    305.20554   -7388.7105    36.390389   -7425.1009   -13335.156 
  981400    312.70752   -7377.5883    37.284869   -7414.8732     11979.68 
  981600    278.07452   -7389.6491    33.155493   -7422.8046   -17500.357 
  981800    306.79691   -7391.2186    36.580132   -7427.7988    16941.931 
  982000    290.21284   -7392.0472    34.602774     -7426.65    2588.4593 
  982200    422.52272   -7377.0626    50.378398    -7427.441   -5149.0209 
  982400    350.99938   -7387.5097    41.850499   -7429.3602     28695.48 
  982600    302.56687   -7391.2132    36.075775    -7427.289    18481.363 
  982800    346.08989   -7378.0786    41.265128   -7419.3437   -46802.921 
  983000    262.46083   -7387.0082    31.293835   -7418.3021   -9770.3087 
  983200    301.25909   -7392.4815    35.919845   -7428.4013   -26389.047 
  983400    298.81915   -7381.7414    35.628925   -7417.3704   -21097.588 
  983600    265.44677   -7382.8902    31.649856     -7414.54   -3596.8145 
  983800    287.41369   -7390.4053    34.269025   -7424.6744   -9586.8037 
  984000    287.26987   -7395.1408    34.251877   -7429.3927   -1.6692207 
  984200    385.30453   -7378.0492    45.940785     -7423.99   -3714.0843 
  984400    316.31043   -7389.7327    37.714453   -7427.4471    8447.7578 
  984600    301.87401   -7390.4828    35.993163    -7426.476    3017.4688 
  984800    283.44534   -7388.6899    33.795868   -7422.4857   -13436.316 
  985000    294.17764   -7389.0379    35.075507   -7424.1135    9837.7021 
  985200    310.95771   -7379.5405    37.076235   -7416.6168    26344.719 
  985400    271.82707   -7392.5023    32.410595   -7424.9129   -5396.4327 
  985600    266.18738   -7391.8956    31.738161   -7423.6338    2561.3655 
  985800    332.70598   -7378.6379    39.669334   -7418.3072    4877.6923 
  986000    240.05595   -7388.5925    28.622447    -7417.215    28722.375 
  986200    250.50713   -7393.0872    29.868567   -7422.9558    -13005.73 
  986400    344.50742   -7375.3621    41.076447   -7416.4385    7386.4406 
  986600    312.56875   -7391.3362    37.268323   -7428.6045   -3296.7373 
  986800    303.25346   -7387.8048    36.157638   -7423.9625    3056.0376 
  987000    321.95452   -7376.0783    38.387411   -7414.4657   -3649.2858 
  987200    245.00604   -7391.3062    29.212658   -7420.5188   -31351.077 
  987400    298.97287   -7389.5782    35.647253   -7425.2254   -12492.594 
  987600    378.83334   -7374.9668    45.169209    -7420.136   -1555.6912 
  987800    276.19328   -7392.0946    32.931188   -7425.0258    8326.0375 
  988000    277.41343   -7388.8082    33.076669   -7421.8849    29420.192 
  988200    352.71438    -7375.927    42.054983    -7417.982   -24021.084 
  988400    282.13417   -7392.9023    33.639534   -7426.5419    20700.838 
  988600    319.16313   -7382.6339    38.054587   -7420.6885   -1948.7373 
  988800    249.33307   -7399.8217    29.728581   -7429.5503   -19857.745 
  989000    265.65029   -7392.4698    31.674122    -7424.144    13119.528 
  989200     333.1668   -7383.7063    39.724278   -7423.4306   -18677.399 
  989400    297.81899   -7396.0388    35.509674   -7431.5485    13856.408 
  989600    284.02036   -7395.9422    33.864429   -7429.8066    8815.4611 
  989800    300.48282   -7385.9587    35.827288    -7421.786    526.28839 
  990000    293.59976   -7389.9221    35.006605   -7424.9287    12282.233 
  990200    271.94794   -7403.3919    32.425006   -7435.8169   -8637.4896 
  990400    273.76856   -7392.8514    32.642083   -7425.4934    16530.835 
  990600    319.05704   -7383.4374    38.041937   -7421.4794   -4458.3412 
  990800    265.55931   -7389.2587    31.663274    -7420.922   -20228.884 
  991000    297.44546   -7395.3081    35.465137   -7430.7732    21341.062 
  991200    342.47429   -7380.6164    40.834032   -7421.4504    5084.1509 
  991400    283.85562   -7387.9524    33.844787   -7421.7971   -6563.1778 
  991600    293.00083   -7388.8115    34.935192   -7423.7467   -5145.9621 
  991800    289.01154   -7393.6186     34.45954   -7428.0781    -489.9574 
  992000    283.14799   -7403.2444    33.760415   -7437.0048    14568.332 
  992200    341.84025   -7388.1174    40.758434   -7428.8758    -13722.57 
  992400    284.05911   -7388.3207     33.86905   -7422.1897    -1090.402 
  992600    264.35921   -7395.1455    31.520183   -7426.6657    19333.585 
  992800     312.9601    -7385.097    37.314985    -7422.412    2684.8605 
  993000    295.12574   -7388.5543     35.18855   -7423.7428   -13968.874 
  993200     270.4065   -7396.4941    32.241217   -7428.7353    24479.466 
  993400    358.65227   -7387.1572    42.762972   -7429.9202   -4884.0512 
  993600    336.74535   -7390.6966    40.150957   -7430.8475    20091.995 
  993800    240.64286   -7400.7181    28.692427   -7429.4106    9304.3848 
  994000    254.19007   -7386.5903    30.307692    -7416.898   -3860.2642 
  994200    290.83185   -7391.4213     34.67658   -7426.0979   -27677.266 
  994400    266.05188   -7396.8894    31.722004   -7428.6114    18313.678 
  994600    292.84104   -7388.3074    34.916141   -7423.2235   -13174.263 
  994800    363.00515   -7387.9648    43.281976   -7431.2468   -16437.552 
  995000    309.11853   -7387.1166    36.856945   -7423.9735   -8628.3252 
  995200    346.08134   -7387.3905    41.264109   -7428.6546   -15296.337 
  995400    297.85511   -7397.0236     35.51398   -7432.5375    13335.407 
  995600    326.93711   -7387.6549    38.981497   -7426.6364    15891.444 
  995800     345.9889   -7382.8092    41.253087   -7424.0623   -15368.761 
  996000    313.98764   -7388.9755      37.4375    -7426.413    -7933.017 
  996200     304.4899   -7388.4655    36.305062   -7424.7705     -320.801 
  996400    339.98134   -7380.2489    40.536792   -7420.7857   -15760.013 
  996600    296.40465   -7395.7141    35.341038   -7431.0551   -13432.069 
  996800     309.3416    -7392.004    36.883542   -7428.8876    1425.5806 
  997000    324.10153   -7386.8568    38.643404   -7425.5002     840.6111 
  997200    299.75563   -7388.9287    35.740583   -7424.6693   -31939.964 
  997400    323.48859   -7388.9471    38.570322   -7427.5174    13057.683 
  997600    334.84554   -7388.2783    39.924438   -7428.2028    23877.639 
  997800    206.63724   -7402.8912    24.637855   -7427.5291   -15992.108 
  998000    259.11408   -7390.5002    30.894794    -7421.395    29567.159 
  998200    310.86911   -7385.9853    37.065671   -7423.0509   -11938.592 
  998400    274.96471   -7392.7018    32.784703   -7425.4865   -5289.6534 
  998600    273.62548   -7395.5177    32.625023   -7428.1428    30031.556 
  998800    320.67923   -7382.0053    38.235355   -7420.2407   -3856.8212 
  999000    277.48821   -7389.6353    33.085586   -7422.7209   -24469.447 
  999200    363.64856   -7387.5777    43.358691   -7430.9364   -5778.5591 
  999400    351.76902   -7384.2162    41.942265   -7426.1584    926.08044 
  999600    341.94484   -7394.4059    40.770904   -7435.1768    8320.0785 
  999800    353.39823    -7379.203    42.136519   -7421.3395    40024.144 
 1000000    316.57175   -7389.0749    37.745611   -7426.8205   -38941.362 
Loop time of 2421.07 on 8 procs for 1000000 steps with 41 atoms

Performance: 8.922 ns/day, 2.690 hours/ns, 413.040 timesteps/s
99.4% CPU use with 8 MPI tasks x no OpenMP threads

MPI task timing breakdown:
Section |  min time  |  avg time  |  max time  |%varavg| %total
---------------------------------------------------------------
Pair    | 1661.9     | 1745.5     | 1863.8     | 141.1 | 72.10
Neigh   | 0.050886   | 0.053031   | 0.055202   |   0.6 |  0.00
Comm    | 38.988     | 157.64     | 241.37     | 471.2 |  6.51
Output  | 0.080427   | 0.088844   | 0.1211     |   4.2 |  0.00
Modify  | 515.13     | 515.65     | 516.33     |   1.5 | 21.30
Other   |            | 2.154      |            |       |  0.09

Nlocal:    5.125 ave 6 max 4 min
Histogram: 1 0 0 0 0 5 0 0 0 2
Nghost:    552.5 ave 564 max 537 min
Histogram: 1 0 1 1 1 0 1 0 1 2
Neighs:    787 ave 926 max 622 min
Histogram: 1 0 0 0 5 0 0 0 0 2

Total # of neighbors = 6296
Ave neighs/atom = 153.561
Neighbor list builds = 81
Dangerous builds = 0

Please see the log.cite file for references relevant to this simulation

Total wall time: 0:40:28
