LAMMPS (3 Mar 2020)
# Alpha
clear
units		real
dimension 3
boundary        p p p
atom_style	charge
newton on
read_data       OOH_2.lmp
  orthogonal box = (0 0 0) to (16.525 16.526 16.526)
  2 by 2 by 2 MPI processor grid
  reading atoms ...
  99 atoms
  read_data CPU = 0.00417596 secs

timestep 0.25

# ---------- Define Interatomic Potential ---------------------
pair_style      reax/c NULL checkqeq no
pair_coeff      * * ffield.reax C H O
fix             2 all qeq/reax 1 0.0 10.0 1.0e-6 reax/c

#------------ Equilibration of the system -------------------------
reset_timestep 0

dump 1 all custom 10 min.lammpstrj id type x y z

minimize 1.0e-8 1.0e-8 100000 100000
WARNING: Using 'neigh_modify every 1 delay 0 check yes' setting during minimization (../min.cpp:190)
WARNING: Total cutoff < 2*bond cutoff. May need to use an increased neighbor list skin. (../pair_reaxc.cpp:413)
Neighbor list info ...
  update every 1 steps, delay 0 steps, check yes
  max neighbors/atom: 2000, page size: 100000
  master list distance cutoff = 9.5
  ghost atom cutoff = 9.5
  binsize = 4.75, bins = 4 4 4
  2 neighbor lists, perpetual/occasional/extra = 2 0 0
  (1) pair reax/c, perpetual
      attributes: half, newton off, ghost
      pair build: half/bin/newtoff/ghost
      stencil: half/ghost/bin/3d/newtoff
      bin: standard
  (2) fix qeq/reax, perpetual, copy from (1)
      attributes: half, newton off, ghost
      pair build: copy
      stencil: none
      bin: none
Per MPI rank memory allocation (min/avg/max) = 14.96 | 15.09 | 15.32 Mbytes
Step Temp E_pair E_mol TotEng Press 
       0            0   -17629.431            0   -17629.431    1242.2966 
      16            0   -17668.558            0   -17668.558    3269.1874 
Loop time of 0.120019 on 8 procs for 16 steps with 99 atoms

98.8% CPU use with 8 MPI tasks x no OpenMP threads

Minimization stats:
  Stopping criterion = energy tolerance
  Energy initial, next-to-last, final = 
        -17629.4310294     -17668.5575633     -17668.5577059
  Force two-norm initial, final = 269.353 110.098
  Force max component initial, final = 119.738 51.0314
  Final line search alpha, max atom move = 0.0019472 0.0993681
  Iterations, force evaluations = 16 47

MPI task timing breakdown:
Section |  min time  |  avg time  |  max time  |%varavg| %total
---------------------------------------------------------------
Pair    | 0.05198    | 0.052593   | 0.053934   |   0.3 | 43.82
Neigh   | 0          | 0          | 0          |   0.0 |  0.00
Comm    | 0.00099584 | 0.0023962  | 0.003045   |   1.3 |  2.00
Output  | 2.132e-05  | 2.6635e-05 | 3.8853e-05 |   0.0 |  0.02
Modify  | 0.064514   | 0.064535   | 0.064552   |   0.0 | 53.77
Other   |            | 0.0004676  |            |       |  0.39

Nlocal:    12.375 ave 15 max 12 min
Histogram: 7 0 0 0 0 0 0 0 0 1
Nghost:    375.75 ave 390 max 366 min
Histogram: 1 0 3 0 0 3 0 0 0 1
Neighs:    793.875 ave 981 max 740 min
Histogram: 4 3 0 0 0 0 0 0 0 1

Total # of neighbors = 6351
Ave neighs/atom = 64.1515
Neighbor list builds = 0
Dangerous builds = 0

###
min_style cg
minimize 1.0e-8 1.0e-8 100000 100000
WARNING: Using 'neigh_modify every 1 delay 0 check yes' setting during minimization (../min.cpp:190)
WARNING: Total cutoff < 2*bond cutoff. May need to use an increased neighbor list skin. (../pair_reaxc.cpp:413)
Per MPI rank memory allocation (min/avg/max) = 14.96 | 15.09 | 15.32 Mbytes
Step Temp E_pair E_mol TotEng Press 
      16            0   -17668.558            0   -17668.558    3269.1874 
     252            0   -17688.004            0   -17688.004   -4450.0816 
Loop time of 3.53519 on 8 procs for 236 steps with 99 atoms

99.6% CPU use with 8 MPI tasks x no OpenMP threads

Minimization stats:
  Stopping criterion = energy tolerance
  Energy initial, next-to-last, final = 
        -17668.5577059      -17688.003412     -17688.0035868
  Force two-norm initial, final = 110.098 9.37683
  Force max component initial, final = 51.0314 2.91327
  Final line search alpha, max atom move = 0.000161836 0.000471471
  Iterations, force evaluations = 236 1555

MPI task timing breakdown:
Section |  min time  |  avg time  |  max time  |%varavg| %total
---------------------------------------------------------------
Pair    | 1.6757     | 1.6954     | 1.7406     |   1.6 | 47.96
Neigh   | 0.00032357 | 0.00033577 | 0.00035105 |   0.0 |  0.01
Comm    | 0.032156   | 0.079407   | 0.10118    |   7.6 |  2.25
Output  | 0.00048508 | 0.00061629 | 0.00082701 |   0.0 |  0.02
Modify  | 1.7476     | 1.7481     | 1.7486     |   0.0 | 49.45
Other   |            | 0.01124    |            |       |  0.32

Nlocal:    12.375 ave 15 max 12 min
Histogram: 7 0 0 0 0 0 0 0 0 1
Nghost:    375.75 ave 390 max 366 min
Histogram: 1 0 3 0 0 3 0 0 0 1
Neighs:    798.375 ave 983 max 740 min
Histogram: 3 3 1 0 0 0 0 0 0 1

Total # of neighbors = 6387
Ave neighs/atom = 64.5152
Neighbor list builds = 1
Dangerous builds = 0

###
fix 1 all box/relax aniso 0.0
min_style cg
minimize 1.0e-8 1.0e-8 100000 100000
WARNING: Using 'neigh_modify every 1 delay 0 check yes' setting during minimization (../min.cpp:190)
WARNING: Total cutoff < 2*bond cutoff. May need to use an increased neighbor list skin. (../pair_reaxc.cpp:413)
Per MPI rank memory allocation (min/avg/max) = 14.96 | 15.09 | 15.32 Mbytes
Step Temp E_pair E_mol TotEng Press Volume 
     252            0   -17688.004            0   -17688.004   -4450.0816    4513.1209 
     404            0   -17688.629            0   -17688.629    98.290743    4499.3762 
Loop time of 0.48315 on 8 procs for 152 steps with 99 atoms

99.6% CPU use with 8 MPI tasks x no OpenMP threads

Minimization stats:
  Stopping criterion = energy tolerance
  Energy initial, next-to-last, final = 
        -17688.0035868     -17688.6288564     -17688.6288819
  Force two-norm initial, final = 507.798 18.6246
  Force max component initial, final = 306.234 11.9915
  Final line search alpha, max atom move = 2.88293e-05 0.000345708
  Iterations, force evaluations = 152 267

MPI task timing breakdown:
Section |  min time  |  avg time  |  max time  |%varavg| %total
---------------------------------------------------------------
Pair    | 0.28679    | 0.29051    | 0.29922    |   0.7 | 60.13
Neigh   | 0          | 0          | 0          |   0.0 |  0.00
Comm    | 0.0054206  | 0.014495   | 0.018584   |   3.3 |  3.00
Output  | 0.00030153 | 0.0003632  | 0.0004573  |   0.0 |  0.08
Modify  | 0.17236    | 0.17247    | 0.17256    |   0.0 | 35.70
Other   |            | 0.005313   |            |       |  1.10

Nlocal:    12.375 ave 15 max 12 min
Histogram: 7 0 0 0 0 0 0 0 0 1
Nghost:    375.75 ave 390 max 366 min
Histogram: 1 0 3 0 0 3 0 0 0 1
Neighs:    798.125 ave 982 max 740 min
Histogram: 3 3 1 0 0 0 0 0 0 1

Total # of neighbors = 6385
Ave neighs/atom = 64.4949
Neighbor list builds = 0
Dangerous builds = 0

unfix 1
###
min_style cg
minimize 1.0e-8 1.0e-8 100000 100000
WARNING: Using 'neigh_modify every 1 delay 0 check yes' setting during minimization (../min.cpp:190)
WARNING: Total cutoff < 2*bond cutoff. May need to use an increased neighbor list skin. (../pair_reaxc.cpp:413)
Per MPI rank memory allocation (min/avg/max) = 14.96 | 15.09 | 15.32 Mbytes
Step Temp E_pair E_mol TotEng Press 
     404            0   -17688.629            0   -17688.629    98.290743 
     406            0    -17688.63            0    -17688.63    90.546112 
Loop time of 0.0673881 on 8 procs for 2 steps with 99 atoms

99.6% CPU use with 8 MPI tasks x no OpenMP threads

Minimization stats:
  Stopping criterion = energy tolerance
  Energy initial, next-to-last, final = 
        -17688.6288819       -17688.62987     -17688.6300428
  Force two-norm initial, final = 12.6958 12.2091
  Force max component initial, final = 3.45768 3.82989
  Final line search alpha, max atom move = 7.63561e-06 2.92436e-05
  Iterations, force evaluations = 2 31

MPI task timing breakdown:
Section |  min time  |  avg time  |  max time  |%varavg| %total
---------------------------------------------------------------
Pair    | 0.034399   | 0.034854   | 0.035897   |   0.2 | 51.72
Neigh   | 0          | 0          | 0          |   0.0 |  0.00
Comm    | 0.00064684 | 0.0017424  | 0.0022228  |   1.2 |  2.59
Output  | 0          | 0          | 0          |   0.0 |  0.00
Modify  | 0.030506   | 0.030526   | 0.030542   |   0.0 | 45.30
Other   |            | 0.000266   |            |       |  0.39

Nlocal:    12.375 ave 15 max 12 min
Histogram: 7 0 0 0 0 0 0 0 0 1
Nghost:    375.75 ave 390 max 366 min
Histogram: 1 0 3 0 0 3 0 0 0 1
Neighs:    801.125 ave 984 max 742 min
Histogram: 2 4 1 0 0 0 0 0 0 1

Total # of neighbors = 6409
Ave neighs/atom = 64.7374
Neighbor list builds = 0
Dangerous builds = 0

###
fix 1 all box/relax aniso 0.0
min_style cg
minimize 1.0e-8 1.0e-8 100000 100000
WARNING: Using 'neigh_modify every 1 delay 0 check yes' setting during minimization (../min.cpp:190)
WARNING: Total cutoff < 2*bond cutoff. May need to use an increased neighbor list skin. (../pair_reaxc.cpp:413)
Per MPI rank memory allocation (min/avg/max) = 14.96 | 15.09 | 15.32 Mbytes
Step Temp E_pair E_mol TotEng Press Volume 
     406            0    -17688.63            0    -17688.63    90.546112    4499.3762 
     408            0   -17688.631            0   -17688.631    38.019691    4499.4427 
Loop time of 0.00906852 on 8 procs for 2 steps with 99 atoms

99.6% CPU use with 8 MPI tasks x no OpenMP threads

Minimization stats:
  Stopping criterion = energy tolerance
  Energy initial, next-to-last, final = 
        -17688.6300428       -17688.63053     -17688.6306687
  Force two-norm initial, final = 17.311 13.9438
  Force max component initial, final = 10.5984 6.81217
  Final line search alpha, max atom move = 1.39918e-05 9.53146e-05
  Iterations, force evaluations = 2 4

MPI task timing breakdown:
Section |  min time  |  avg time  |  max time  |%varavg| %total
---------------------------------------------------------------
Pair    | 0.0053895  | 0.005473   | 0.0056382  |   0.1 | 60.35
Neigh   | 0          | 0          | 0          |   0.0 |  0.00
Comm    | 9.7314e-05 | 0.0002706  | 0.00036304 |   0.0 |  2.98
Output  | 0          | 0          | 0          |   0.0 |  0.00
Modify  | 0.0031891  | 0.0031929  | 0.0031958  |   0.0 | 35.21
Other   |            | 0.000132   |            |       |  1.46

Nlocal:    12.375 ave 15 max 12 min
Histogram: 7 0 0 0 0 0 0 0 0 1
Nghost:    375.75 ave 390 max 366 min
Histogram: 1 0 3 0 0 3 0 0 0 1
Neighs:    801.125 ave 984 max 742 min
Histogram: 2 4 1 0 0 0 0 0 0 1

Total # of neighbors = 6409
Ave neighs/atom = 64.7374
Neighbor list builds = 0
Dangerous builds = 0

unfix 1
###
min_style cg
minimize 1.0e-8 1.0e-8 100000 100000
WARNING: Using 'neigh_modify every 1 delay 0 check yes' setting during minimization (../min.cpp:190)
WARNING: Total cutoff < 2*bond cutoff. May need to use an increased neighbor list skin. (../pair_reaxc.cpp:413)
Per MPI rank memory allocation (min/avg/max) = 14.96 | 15.09 | 15.32 Mbytes
Step Temp E_pair E_mol TotEng Press 
     408            0   -17688.631            0   -17688.631    38.019691 
     410            0   -17688.631            0   -17688.631    35.748616 
Loop time of 0.077553 on 8 procs for 2 steps with 99 atoms

99.6% CPU use with 8 MPI tasks x no OpenMP threads

Minimization stats:
  Stopping criterion = energy tolerance
  Energy initial, next-to-last, final = 
        -17688.6306687     -17688.6308663     -17688.6309971
  Force two-norm initial, final = 11.7952 8.94129
  Force max component initial, final = 3.44495 2.65532
  Final line search alpha, max atom move = 1.2183e-06 3.23499e-06
  Iterations, force evaluations = 2 36

MPI task timing breakdown:
Section |  min time  |  avg time  |  max time  |%varavg| %total
---------------------------------------------------------------
Pair    | 0.039778   | 0.040278   | 0.041537   |   0.3 | 51.94
Neigh   | 0          | 0          | 0          |   0.0 |  0.00
Comm    | 0.00073117 | 0.0020445  | 0.0025986  |   1.3 |  2.64
Output  | 0          | 0          | 0          |   0.0 |  0.00
Modify  | 0.034922   | 0.034941   | 0.034953   |   0.0 | 45.05
Other   |            | 0.0002894  |            |       |  0.37

Nlocal:    12.375 ave 15 max 12 min
Histogram: 7 0 0 0 0 0 0 0 0 1
Nghost:    375.75 ave 390 max 366 min
Histogram: 1 0 3 0 0 3 0 0 0 1
Neighs:    801.125 ave 984 max 742 min
Histogram: 2 4 1 0 0 0 0 0 0 1

Total # of neighbors = 6409
Ave neighs/atom = 64.7374
Neighbor list builds = 0
Dangerous builds = 0

undump 1
#############
#----------- Thermo ------------
reset_timestep 0
thermo  200

thermo_style    custom step temp etotal ke pe press
velocity all create 300 12345 mom yes rot yes
fix 1 all npt temp 300 300 25.0 iso 0.0 0.0 250.0

variable vpe equal pe
variable vtemp equal temp
variable vstep equal step

fix output all print 2500 "${vstep} ${vtemp} ${vpe}" file temp-tpdh-Pt.dat screen no

dump 1 all custom 2500 thermo-tpdh-Pt.lammpstrj id type x y z

run 1000000
WARNING: Total cutoff < 2*bond cutoff. May need to use an increased neighbor list skin. (../pair_reaxc.cpp:413)
Per MPI rank memory allocation (min/avg/max) = 13.84 | 13.96 | 14.2 Mbytes
Step Temp TotEng KinEng PotEng Press 
       0          300   -17600.995    87.635815   -17688.631    926.08837 
     200     227.9685     -17568.4    66.594017   -17634.994   -968.26619 
     400    306.89628   -17520.029    89.650352   -17609.679   -3453.0127 
     600    310.71561   -17499.357    90.766053   -17590.123   -728.30115 
     800    311.98357   -17528.389    91.136449   -17619.525   -4764.7413 
    1000    284.25341   -17534.684    83.035932    -17617.72    2734.5389 
    1200    329.92842   -17509.414    96.378488   -17605.793    7298.4261 
    1400    250.48429   -17520.582    73.171316   -17593.754    6251.6226 
    1600    285.67504   -17528.549    83.451217   -17612.001   -5099.1737 
    1800    326.28307   -17513.045    95.313609   -17608.358   -4151.2914 
    2000    344.03072   -17508.048    100.49804   -17608.546   -6193.2566 
    2200    296.55217   -17519.157    86.628637   -17605.786   -1354.4546 
    2400    302.57106   -17525.037    88.386872   -17613.424   -127.78867 
    2600    296.90059   -17524.026    86.730418   -17610.756    7287.8834 
    2800    329.87948   -17500.266     96.36419   -17596.631    814.27204 
    3000    332.77424   -17516.932    97.209805   -17614.142    1143.8204 
    3200    296.38581    -17518.17    86.580041    -17604.75      3859.61 
    3400    297.05586   -17510.961    86.775775   -17597.737   -2495.6397 
    3600    300.90161   -17530.835    87.899194   -17618.734   -582.23855 
    3800    326.91026   -17514.439    95.496823   -17609.936    -1095.384 
    4000    291.11145   -17524.056    85.039299   -17609.096    -5136.045 
    4200    282.54178   -17529.094    82.535932    -17611.63    2709.5731 
    4400    329.97283   -17502.088     96.39146    -17598.48    3507.9542 
    4600    316.94942     -17519.8    92.587071   -17612.387    3735.7167 
    4800    298.42807    -17521.41    87.176625   -17608.587    5139.3048 
    5000     264.8111   -17528.475    77.356456   -17605.831    2633.3385 
    5200    256.38754   -17526.189    74.895771   -17601.085   -2697.3522 
    5400    326.28095   -17507.772     95.31299   -17603.085    1252.0008 
    5600     307.6469   -17525.583    89.869623   -17615.453   -2114.4873 
    5800    323.20443   -17521.629    94.414279   -17616.043   -3770.0271 
    6000    300.13607   -17516.776    87.675563   -17604.451    4849.7584 
    6200    299.42407   -17506.825    87.467576   -17594.292    -7011.782 
    6400    302.49457   -17518.456    88.364529    -17606.82   -3805.0358 
    6600    310.15854   -17528.391    90.603323   -17618.994    3021.2467 
    6800     331.2543   -17508.431    96.765803   -17605.197    -4239.594 
    7000       340.12       -17500    99.355644   -17599.356    -5062.667 
    7200    293.41943   -17525.823    85.713504   -17611.536   -6108.7003 
    7400    262.76709   -17521.808     76.75936   -17598.567   -4437.1815 
    7600    309.30517   -17508.293    90.354035   -17598.647    4735.2605 
    7800    300.16834   -17524.989    87.684991   -17612.674   -6943.3521 
    8000    281.54026    -17514.47    82.243366   -17596.713   -4938.7447 
    8200    339.30741   -17520.391    99.118272   -17619.509    -2846.983 
    8400    291.28448   -17540.717    85.089844   -17625.807    4156.1308 
    8600    255.62153   -17545.751    74.672004   -17620.423   -1466.8798 
    8800    337.61659   -17523.781    98.624352   -17622.405    4540.7738 
    9000    291.63572   -17537.884    85.192446   -17623.076    -1502.336 
    9200    270.84863   -17537.746    79.120134   -17616.866    7533.2122 
    9400    317.60154   -17527.363    92.777567    -17620.14    10689.419 
    9600    293.21181   -17542.523    85.652853   -17628.175    2886.6666 
    9800     297.6304   -17522.576    86.943611    -17609.52    640.63408 
   10000    314.84218   -17522.476    91.971503   -17614.448   -6901.2882 
   10200    285.62247   -17535.524    83.435859    -17618.96   -5496.0477 
   10400    298.88003   -17532.509    87.308649   -17619.817    8344.6673 
   10600    345.76277   -17509.516    101.00401    -17610.52    3033.3487 
   10800    327.51651   -17529.663    95.673922   -17625.337    -4521.617 
   11000    314.18067   -17536.184    91.778264   -17627.963    8551.3672 
   11200    325.38744   -17514.931    95.051978   -17609.983   -10331.089 
   11400    271.44403   -17539.193    79.294064   -17618.487    -15068.87 
   11600    284.70155   -17536.358    83.166842   -17619.525   -919.16385 
   11800     341.6918   -17525.998    99.814799   -17625.813   -1384.6684 
   12000    290.14957   -17548.204    84.758314   -17632.962    157.47271 
   12200    285.39838   -17528.452    83.370399   -17611.822   -2026.3861 
   12400    276.32477   -17515.677    80.719821   -17596.397    1601.8984 
   12600    303.97148   -17538.836     88.79596   -17627.632    8797.2656 
   12800    294.70023   -17540.344    86.087651   -17626.432    2276.8216 
   13000    359.07794   -17515.846    104.89363    -17620.74   -5384.8532 
   13200    278.70549   -17529.496    81.415277   -17610.911   -231.94114 
   13400    333.81064   -17526.614    97.512558   -17624.126   -6826.6656 
   13600    283.93155   -17533.958    82.941909     -17616.9    3971.1754 
   13800    301.44326   -17538.853     88.05742   -17626.911    6216.6694 
   14000    330.82553   -17515.332    96.640551   -17611.973    2585.0627 
   14200    295.41499   -17531.215    86.296446   -17617.511    1033.8074 
   14400    262.12602   -17534.004     76.57209   -17610.576   -5782.6133 
   14600    345.10091   -17508.393    100.81066   -17609.203   -5306.6632 
   14800    286.05898   -17522.657    83.563374    -17606.22   -426.97408 
   15000    294.62111   -17535.086    86.064538   -17621.151   -4252.4402 
   15200    349.32302   -17515.596    102.04403    -17617.64   -2630.7728 
   15400     307.3802   -17527.878    89.791715    -17617.67   -3181.7763 
   15600    272.44396   -17534.555    79.586162   -17614.141    9489.4694 
   15800    367.40717    -17512.95    107.32676   -17620.277    4630.9406 
   16000    323.03598   -17524.921    94.365071   -17619.286   -8057.0583 
   16200    278.88066   -17537.073    81.466448    -17618.54   -9866.3697 
   16400    244.83268   -17558.464    71.520372   -17629.984    -54.50086 
   16600    261.30727   -17529.795    76.332919   -17606.128   -1602.9364 
   16800    327.01157    -17526.28    95.526418   -17621.806    601.88839 
   17000    253.46046    -17543.57    74.040714   -17617.611    3659.7702 
   17200    292.65988   -17532.361    85.491624   -17617.853    750.87217 
   17400    330.31334   -17522.926    96.490931   -17619.417    6549.3433 
   17600    278.48833   -17540.581    81.351838   -17621.933    6403.1524 
   17800    301.32681    -17535.84    88.023404   -17623.864   -1887.2689 
   18000    334.25176    -17514.82    97.641418   -17612.461   -3477.0315 
   18200    275.28242   -17529.205    80.415332    -17609.62    2700.9997 
   18400    334.91234    -17530.59    97.834386   -17628.424    1067.4871 
   18600    304.81746   -17529.365     89.04309   -17618.408   -1366.7246 
   18800    309.24777   -17532.758    90.337268   -17623.095     1920.087 
   19000    283.47882   -17541.497    82.809657   -17624.307   -7474.6277 
   19200    305.33137   -17525.444    89.193211   -17614.637   -10921.281 
   19400    292.51837   -17528.415    85.450288   -17613.866   -562.39127 
   19600    270.01616   -17542.685    78.876953   -17621.562    3983.4721 
   19800    293.78673   -17534.294    85.820798   -17620.115    2470.1913 
   20000    293.26625   -17526.857    85.668756   -17612.525   -4555.7223 
   20200    267.32604   -17549.814     78.09112   -17627.905   -10788.235 
   20400    303.20849   -17528.126    88.573077   -17616.699   -6618.4807 
   20600    279.08807   -17532.082    81.527035   -17613.609    10461.387 
   20800    270.31576   -17541.807    78.964474   -17620.772    7866.2244 
   21000    296.11701   -17515.174    86.501519   -17601.675   -2276.0665 
   21200    290.53218   -17532.147    84.870082   -17617.017   -10532.305 
   21400    295.90621   -17544.201    86.439941   -17630.641   -6383.1945 
   21600     306.1931    -17520.95     89.44494   -17610.395    3486.6635 
   21800    274.61415   -17535.838    80.220117   -17616.058    7877.4482 
   22000    297.31892   -17539.935    86.852619   -17626.787    3260.9851 
   22200    302.07513   -17514.289    88.242001   -17602.531   -4887.8938 
   22400    302.63922    -17538.93    88.406782   -17627.337   -5475.5531 
   22600    294.07767   -17535.576    85.905789   -17621.482   -3044.5254 
   22800     285.4399   -17523.521    83.382528   -17606.904   -14375.596 
   23000    307.64977   -17528.154    89.870463   -17618.024   -7331.2343 
   23200    268.71843   -17534.315    78.497863   -17612.813   -7851.8411 
   23400    357.18213   -17508.228    104.33982   -17612.568    5346.8382 
   23600    288.22657   -17534.967    84.196569   -17619.164    2749.9457 
   23800    288.22309   -17523.904    84.195552   -17608.099    14652.038 
   24000    270.47671   -17530.428    79.011489   -17609.439   -3778.7354 
   24200     305.5503   -17538.983    89.257165    -17628.24   -3206.7734 
   24400    290.08069   -17531.231    84.738194   -17615.969   -6909.3027 
   24600    297.37339    -17520.08    86.868533   -17606.948   -9935.9232 
   24800    289.00276   -17542.589    84.423308   -17627.013   -4048.9736 
   25000    244.75016   -17554.579    71.496265   -17626.076   -7899.0907 
   25200    317.37237   -17526.482     92.71062   -17619.193     -10923.6 
   25400    338.03843   -17522.755    98.747579   -17621.503    7397.3333 
   25600    302.97318   -17542.512     88.50434   -17631.016    8965.8762 
   25800    325.14262   -17524.204    94.980461   -17619.185    6474.1524 
   26000    309.89312   -17527.008    90.525788   -17617.534   -2602.6689 
   26200    302.70905   -17534.291    88.427181   -17622.718    3798.2975 
   26400    294.66417   -17521.081    86.077116   -17607.158    8563.1075 
   26600    335.77215    -17515.24    98.085554   -17613.326   -6496.9464 
   26800    289.44503   -17535.136    84.552505   -17619.689   -5631.7712 
   27000    289.32778   -17530.575    84.518253   -17615.093   -3052.6716 
   27200    323.63108   -17515.639    94.538912   -17610.178   -12279.656 
   27400      280.775   -17537.907    82.019819   -17619.927    308.24307 
   27600    260.47904   -17534.902    76.090978   -17610.993    3019.2289 
   27800    345.28763   -17518.575    100.86521    -17619.44    15054.137 
   28000    294.76346   -17540.209    86.106119   -17626.315    9931.6716 
   28200    293.13471   -17532.275    85.630332   -17617.906    5107.7293 
   28400    336.49086   -17521.388    98.295502   -17619.683   -459.36221 
   28600    341.61658   -17530.894    99.792825   -17630.687    3171.8766 
   28800    319.34537   -17529.569    93.286972   -17622.856    3118.4627 
   29000    341.14355   -17509.757    99.654643   -17609.411   -4539.8088 
   29200    258.64324    -17532.16    75.554703   -17607.715   -1191.2139 
   29400    314.84162   -17529.197    91.971339   -17621.169   -3356.6184 
   29600    296.86591   -17534.056    86.720288   -17620.776   -2870.3957 
   29800    289.26372   -17514.419    84.499539   -17598.919   -7614.8854 
   30000    307.55977   -17527.519    89.844171   -17617.364    9667.2682 
   30200    289.00484   -17529.585    84.423916   -17614.009    2884.6116 
   30400    293.51686   -17533.099    85.741965   -17618.841   -1676.1857 
   30600    334.10548   -17516.963    97.598688   -17614.561   -3495.5527 
   30800    298.47331   -17537.325    87.189841   -17624.515   -6912.0871 
   31000    266.11483   -17541.225    77.737302   -17618.962   -3871.0563 
   31200    312.37396   -17527.208     91.25049   -17618.458   -9144.8148 
   31400    321.28587   -17524.267     93.85383   -17618.121    7443.0623 
   31600    360.27693   -17508.458    105.24388   -17613.702   -1388.7541 
   31800    276.50042   -17534.583    80.771132   -17615.354   -3644.2026 
   32000    260.35092   -17535.115     76.05355   -17611.168    312.16081 
   32200    323.18583    -17508.02    94.408845   -17602.429   -14701.682 
   32400    307.18195   -17536.706    89.733801   -17626.439   -6423.4054 
   32600    285.76627   -17538.344    83.477867   -17621.822   -2704.5094 
   32800    321.26032   -17518.147    93.846367   -17611.993   -621.59049 
   33000    316.39022   -17521.525    92.423717   -17613.949    7523.1714 
   33200    267.58339   -17535.462    78.166295   -17613.629   -2084.1059 
   33400    329.29803   -17518.054    96.194337   -17614.248   -14032.171 
   33600    338.64315   -17541.861    98.924228   -17640.785    -4381.584 
   33800    321.79096   -17597.299    94.001378     -17691.3    1604.9064 
   34000    309.88098   -17625.253    90.522243   -17715.776   -7745.7572 
   34200    311.12126   -17609.508    90.884552   -17700.392   -7437.8565 
   34400    293.04199   -17608.473    85.603244   -17694.076   -7762.4645 
   34600    257.56561   -17626.184    75.239908   -17701.424    6577.5751 
   34800    304.02891   -17613.758    88.812739   -17702.571    5402.6523 
   35000    278.36894   -17614.647    81.316964   -17695.964     4432.674 
   35200    293.54665   -17600.568    85.750665   -17686.318    3878.7944 
   35400    281.82043   -17607.149    82.325211   -17689.474   -6644.6524 
   35600    321.44699   -17620.962    93.900897   -17714.863   -4452.0358 
   35800    329.97029   -17596.671    96.390719   -17693.062   -492.43547 
   36000    304.49446   -17605.119    88.948734   -17694.068   -2266.2343 
   36200    288.36758   -17618.546    84.237761   -17702.784     5427.805 
   36400    339.14457   -17603.453    99.070704   -17702.524    4156.3431 
   36600    331.78086   -17609.685    96.919619   -17706.605   -9517.7674 
   36800    299.02405   -17618.051    87.350723   -17705.402   -4684.6241 
   37000     299.6436   -17602.135    87.531705   -17689.667    1946.3304 
   37200    292.63421   -17607.124    85.484125   -17692.608    -2775.254 
   37400    305.59259   -17612.153    89.269518   -17701.423    215.80231 
   37600    257.37715   -17634.185    75.184855    -17709.37   -5137.9677 
   37800    299.73039   -17615.142    87.557058     -17702.7    3209.3509 
   38000    327.45736   -17605.007    95.656643   -17700.663    1383.5583 
   38200    273.43196    -17622.62    79.874776   -17702.495   -2794.0516 
   38400    280.45492   -17616.823    81.926319   -17698.749    2970.9948 
   38600     287.9823   -17602.995    84.125212    -17687.12   -3637.1278 
   38800    288.60976   -17616.598    84.308506   -17700.906   -169.12622 
   39000    314.15914   -17605.474    91.771974   -17697.246   -7248.7389 
   39200    342.38957   -17600.048    100.01863   -17700.066     7305.294 
   39400    285.53192   -17619.692    83.409409   -17703.101   -9768.6582 
   39600     308.6359   -17607.988     90.15853   -17698.146    -9375.547 
   39800    379.48856   -17572.673    110.85596   -17683.529   -16360.782 
   40000     300.6012   -17595.599    87.811438   -17683.411   -5997.8424 
   40200    281.81602   -17616.009    82.323921   -17698.333   -1650.6792 
   40400    303.85545   -17605.261    88.762068   -17694.023   -2731.1981 
   40600     333.7606   -17588.866    97.497941   -17686.364   -635.63643 
   40800    275.96971   -17621.084    80.616103   -17701.701    2566.5585 
   41000    300.77393   -17607.523    87.861896   -17695.384   -7152.9799 
   41200    280.57121   -17605.395    81.960289   -17687.355   -2500.6733 
   41400    284.71707   -17622.209    83.171377    -17705.38    6863.0662 
   41600    296.62746   -17598.635     86.65063   -17685.286    8055.5125 
   41800    323.81731   -17603.151    94.593313   -17697.744    2530.7615 
   42000    300.48742   -17621.097    87.778201   -17708.876   -757.05762 
   42200     328.0828   -17603.345    95.839346   -17699.184    267.62087 
   42400    264.85971   -17617.396    77.370655   -17694.766    -2632.815 
   42600    296.56717   -17620.864    86.633018   -17707.497    5725.1457 
   42800    334.86765   -17605.414    97.821331   -17703.236    380.25543 
   43000    272.70997   -17623.677    79.663869   -17703.341    157.34324 
   43200     264.4131   -17635.212    77.240192   -17712.452   -6685.9368 
   43400    333.26531    -17606.85    97.353257   -17704.203   -10840.537 
   43600    307.76061   -17601.948    89.902841   -17691.851   -10959.233 
   43800    271.85077   -17626.491    79.412878   -17705.904    7.5841634 
   44000    295.97101   -17608.259    86.458871   -17694.718    1659.1614 
   44200    298.79929   -17606.312    87.285066   -17693.597      2855.26 
   44400    275.01017   -17632.123    80.335802   -17712.459     7615.692 
   44600    292.70471   -17615.155     85.50472    -17700.66     3427.735 
   44800    297.72631   -17605.743    86.971625   -17692.715    14913.493 
   45000    387.29162   -17579.978    113.13539   -17693.114    46.106565 
   45200    313.32277   -17609.244    91.527656   -17700.772    4263.0364 
   45400    300.33071   -17623.888    87.732421    -17711.62   -7343.8576 
   45600     332.0368    -17603.64    96.994387   -17700.635   -2379.3973 
   45800     312.9478   -17613.122    91.418119    -17704.54   -1098.5683 
   46000    293.39147   -17615.786    85.705336   -17701.491    11283.218 
   46200    287.57929   -17612.707    84.007485   -17696.714    983.11477 
   46400    338.37895   -17598.709    98.847049   -17697.556    3075.2425 
   46600    320.83579   -17607.742    93.722352   -17701.464    8460.6372 
   46800    307.97729   -17614.102    89.966136   -17704.068   -11275.431 
   47000    315.88472   -17597.743     92.27605   -17690.019   -1930.6286 
   47200    279.74018   -17622.658    81.717529   -17704.376    269.44454 
   47400    324.82268   -17613.261    94.887003   -17708.148   -5975.9396 
   47600    323.81696    -17598.73     94.59321   -17693.323   -1382.1749 
   47800    310.21709   -17618.006    90.620425   -17708.626    5443.5529 
   48000    281.71421   -17621.727    82.294182   -17704.022    -2280.337 
   48200    277.93571    -17609.43    81.190409    -17690.62   -8189.8543 
   48400    313.39547   -17605.708    91.548892   -17697.257   -7537.6546 
   48600    297.18021   -17619.969      86.8121   -17706.781   -271.63278 
   48800    259.24255   -17628.288    75.729773   -17704.018    4659.2655 
   49000    256.80015   -17616.829    75.016302   -17691.845   -5165.5895 
   49200    323.53628   -17598.934    94.511218   -17693.446   -2549.6962 
   49400    293.64306   -17612.757    85.778832   -17698.536    31.982173 
   49600    285.47542   -17612.992    83.392903   -17696.385    597.85898 
   49800    292.36347   -17608.731    85.405038   -17694.136   -2922.1877 
   50000    336.42529   -17603.429    98.276349   -17701.706    4040.4112 
   50200    313.23382   -17615.271     91.50167   -17706.773    4310.3602 
   50400    267.27523   -17628.275    78.076277   -17706.351    2188.8129 
   50600    285.49923   -17604.368    83.399859   -17687.768     6567.333 
   50800    316.90073   -17601.399    92.572847   -17693.972    1179.6711 
   51000    259.64885   -17625.896    75.848464   -17701.745   -4016.1796 
   51200    322.79088   -17607.163    94.293473   -17701.456   -4163.5366 
   51400    294.57293   -17614.461    86.050463   -17700.512   -4987.1806 
   51600    258.92863   -17613.232    75.638071    -17688.87   -9659.2718 
   51800    312.53915    -17601.91    91.298746   -17693.208    -2318.953 
   52000    282.76648    -17616.15    82.601569   -17698.752    4218.6556 
   52200     280.8848   -17628.642    82.051894   -17710.694    8123.8669 
   52400    307.93901   -17598.958    89.954954   -17688.913   -778.79142 
   52600    270.19184     -17614.9    78.928275   -17693.828   -3066.5218 
   52800    292.78383   -17621.389    85.527833   -17706.917   -4196.2181 
   53000    329.30391   -17596.714    96.196056    -17692.91    5317.7245 
   53200     295.9669   -17616.731    86.457668   -17703.188   -5632.9223 
   53400    290.73394   -17610.945     84.92902   -17695.874    1263.6022 
   53600    318.64429   -17593.295    93.082173   -17686.377   -9761.3574 
   53800    279.62403   -17619.751    81.683598   -17701.435   -6623.7927 
   54000    289.99369   -17611.332    84.712777   -17696.045    -3296.135 
   54200    329.34127   -17594.647     96.20697   -17690.854    2420.1004 
   54400    267.88368   -17626.849    78.254016   -17705.103   -5773.9947 
   54600    298.18056   -17613.608    87.104321   -17700.712    1333.4266 
   54800    303.21411   -17599.414     88.57472   -17687.988    7595.3664 
   55000    297.84371   -17617.842    87.005921   -17704.848   -4184.1367 
   55200    310.72913   -17616.191    90.770003   -17706.961   -5510.6782 
   55400    309.17672   -17606.529    90.316514   -17696.845    3661.6171 
   55600    275.02129   -17622.383    80.339051   -17702.722   -565.46816 
   55800    324.67105   -17596.933    94.842708   -17691.776   -222.01316 
   56000    304.90068   -17610.298      89.0674   -17699.365    120.48415 
   56200    331.18715   -17617.866    96.746187   -17714.612   -2063.8129 
   56400    367.00161    -17587.61    107.20828   -17694.819   -4839.3579 
   56600    314.43203   -17604.287    91.851692   -17696.138    655.71421 
   56800    279.06966   -17616.382    81.521657   -17697.904   -4360.7747 
   57000    312.58833   -17604.878    91.313112   -17696.191    5478.3974 
   57200    323.78754   -17598.908    94.584616   -17693.492    11217.385 
   57400    327.44818   -17620.489     95.65396   -17716.143    2102.3648 
   57600    321.87745   -17612.808    94.026644   -17706.834   -12169.376 
   57800    352.39641   -17583.739    102.94182   -17686.681    3842.9964 
   58000    303.89935   -17601.991     88.77489   -17690.766     -6056.03 
   58200    295.55609   -17615.309    86.337663   -17701.646    -4988.321 
   58400    349.56306   -17584.722    102.11415   -17686.836   -1900.5466 
   58600    313.40189   -17602.691    91.550766   -17694.242   -8229.0474 
   58800    278.24979   -17611.744    81.282158   -17693.026   -2844.5375 
   59000    327.44494    -17602.13    95.653013   -17697.783   -2560.4139 
   59200    301.25564   -17618.677    88.002613   -17706.679    10086.858 
   59400    279.57354   -17621.138     81.66885   -17702.806   -2127.0622 
   59600     291.8278   -17602.309    85.248558   -17687.557    3811.0283 
   59800    304.51852   -17609.915    88.955763   -17698.871    292.19514 
   60000     230.9875   -17634.076    67.475927   -17701.552    10425.916 
   60200    276.60597   -17616.776    80.801967   -17697.578    133.88194 
   60400    302.43861   -17610.334    88.348181   -17698.682    516.87293 
   60600    284.57149   -17622.497    83.128847   -17705.626   -2718.0937 
   60800    281.71823   -17610.552    82.295356   -17692.848   -2418.2336 
   61000    325.44389   -17598.449    95.068468   -17693.518   -198.49069 
   61200    262.67401   -17622.966    76.732171   -17699.698     4475.156 
   61400    307.26702    -17606.84    89.758654   -17696.598     7808.625 
   61600    246.79741   -17619.194    72.094309   -17691.288   -13809.802 
   61800    291.80452   -17624.211    85.241757   -17709.453   -1567.1903 
   62000    308.62882   -17609.189    90.156462   -17699.345    3970.6564 
   62200    284.69911   -17614.403    83.166128   -17697.569    5823.3656 
   62400    291.54367   -17602.109    85.165558   -17687.274   -2759.3701 
   62600    333.65465   -17592.625    97.466991   -17690.092   -3725.7658 
   62800    274.86363   -17621.973    80.292994   -17702.266    2158.7557 
   63000    321.55285   -17609.099    93.931822   -17703.031   -3525.5523 
   63200    266.04338   -17590.848    77.716429   -17668.564   -5237.4493 
   63400      260.054   -17611.158    75.966814   -17687.125    661.56953 
   63600    298.21238   -17618.204    87.113617   -17705.317   -14347.508 
   63800    354.36981   -17600.769    103.51829   -17704.287    4949.8184 
   64000    310.98793   -17623.763    90.845602   -17714.609   -725.60199 
   64200    272.64479   -17632.867    79.644828   -17712.512    3506.9076 
   64400     338.2194   -17604.812    98.800442   -17703.613    993.56462 
   64600    295.03995   -17619.167    86.186888   -17705.354   -1599.6406 
   64800    256.54807   -17629.152    74.942666   -17704.094    5535.7807 
   65000    299.56711   -17602.414     87.50936   -17689.923   -6809.7495 
   65200     299.4395   -17619.902    87.472082   -17707.374    2649.3892 
   65400    315.40445   -17613.753    92.135754   -17705.888    171.67275 
   65600    340.77472   -17593.752    99.546903   -17693.299   -1219.1581 
   65800    296.69223   -17607.343    86.669552   -17694.012   -7392.2923 
   66000     268.1192   -17618.742    78.322817   -17697.064   -2515.3074 
   66200    316.20409   -17591.608    92.369345   -17683.978    -3242.486 
   66400    266.56504   -17612.729    77.868817   -17690.598    6328.1135 
   66600     296.6521   -17613.553     86.65783   -17700.211   -3363.6643 
   66800    322.59767   -17595.541    94.237033   -17689.778   -7029.8613 
   67000    271.23437    -17622.23    79.232817   -17701.463   -4105.2558 
   67200    279.73599   -17606.569    81.716306   -17688.285   -1989.5872 
   67400    308.32229   -17596.814    90.066918   -17686.881      7085.86 
   67600    282.98727   -17622.641    82.666067   -17705.307   -5686.8723 
   67800    307.31013   -17602.633    89.771245   -17692.404    7240.0627 
   68000    309.31141   -17606.877    90.355859   -17697.233      592.367 
   68200    280.82113   -17629.415    82.033296   -17711.448   -7044.8313 
   68400     326.6206   -17599.972    95.412209   -17695.384   -793.90009 
   68600    311.95398   -17613.047    91.127806   -17704.175    2895.5011 
   68800    281.25247   -17615.877      82.1593   -17698.036    3149.1415 
   69000    340.66268   -17595.081    99.514173   -17694.595    4081.2707 
   69200    298.30438    -17613.87    87.140493    -17701.01   -6765.9774 
   69400    287.15173   -17617.958    83.882587    -17701.84    1226.2744 
   69600     325.1653   -17592.378    94.987087   -17687.366    4884.0386 
   69800    286.00932   -17614.701    83.548866    -17698.25    641.64379 
   70000    309.77363   -17607.532    90.490882   -17698.023    1095.3563 
   70200    257.79027   -17620.247    75.305536   -17695.553   -3588.4649 
   70400    293.70472   -17611.636    85.796843   -17697.433   -2333.0609 
   70600    340.54179   -17603.572    99.478858    -17703.05   -10381.587 
   70800    291.44108   -17617.788    85.135588   -17702.924    1831.9836 
   71000    297.77607   -17613.412    86.986163   -17700.398     1234.827 
   71200    334.51873   -17594.975    97.719407   -17692.695    1531.1651 
   71400    282.73426   -17613.681    82.592159   -17696.273    -2472.066 
   71600    309.24576   -17615.433     90.33668   -17705.769   -5522.3238 
   71800    346.38308    -17594.65    101.18521   -17695.835    4684.2094 
   72000    288.92633   -17622.218    84.400982   -17706.619    -7653.978 
   72200    319.18246   -17607.906    93.239384   -17701.145   -2257.3206 
   72400     297.8419   -17606.057    87.005393   -17693.062    4206.6224 
   72600    274.02483   -17619.412    80.047964    -17699.46   -2413.3238 
   72800    282.61718   -17623.358    82.557958   -17705.916     4331.807 
   73000    285.03521   -17604.982    83.264309   -17688.247   -2283.4434 
   73200    265.37481   -17621.924    77.521127   -17699.445    4534.4938 
   73400    311.06842   -17618.639    90.869116   -17709.508    7388.9139 
   73600    325.99135   -17602.478    95.228392   -17697.707    4022.4916 
   73800    282.92516   -17622.718    82.647923   -17705.366   -366.37164 
   74000    287.45341    -17597.58    83.970714   -17681.551    9393.1312 
   74200    298.86382   -17603.991    87.303917   -17691.295    14618.813 
   74400    297.65487   -17618.115    86.950758   -17705.066    6427.3809 
   74600    304.24154   -17602.356    88.874852   -17691.231    2536.8179 
   74800    321.26514   -17586.146    93.847774   -17679.994    44.320353 
   75000     279.5547   -17612.019    81.663348   -17693.683   -4212.1461 
   75200    271.30395   -17620.501    79.253142   -17699.754    1463.7751 
   75400    281.54606   -17601.696    82.245061   -17683.941   -10327.385 
   75600    318.56863   -17602.906    93.060074   -17695.966   -4315.5392 
   75800    266.55021   -17617.533    77.864484   -17695.398    418.69866 
   76000    330.08135    -17601.25    96.423162   -17697.673   -6414.6763 
   76200    295.46256    -17610.25    86.310341    -17696.56    3611.5559 
   76400    252.94407    -17621.24    73.889868    -17695.13    166.73995 
   76600    320.06334   -17601.958    93.496707   -17695.455     10133.08 
   76800    304.22488   -17628.723    88.869985   -17717.593    3834.9013 
   77000    283.31622   -17616.979     82.76216   -17699.741    6085.2285 
   77200    337.94637   -17603.342    98.720687   -17702.062    1385.5324 
   77400    288.36286   -17624.479    84.236382   -17708.715    4812.2771 
   77600     277.5739   -17622.986    81.084717   -17704.071   -6529.4807 
   77800    311.14713   -17600.313    90.892109   -17691.205   -6480.5467 
   78000    293.32907   -17615.558    85.687106   -17701.245    3550.0705 
   78200    276.88251   -17623.686    80.882747   -17704.569    8496.7592 
   78400    339.51528   -17595.397    99.178994   -17694.576     3900.039 
   78600    284.75222   -17616.572    83.181644   -17699.753    2863.1858 
   78800    275.31331   -17608.269    80.424356   -17688.693   -1391.7845 
   79000    297.99281       -17601    87.049478   -17688.049   -4221.0729 
   79200     251.8606   -17618.245    73.573362   -17691.818    3380.0558 
   79400    301.26267   -17604.942    88.004666   -17692.947   -2052.5935 
   79600    317.87393   -17607.056    92.857137   -17699.913    7182.2263 
   79800    293.67868   -17624.471    85.789234    -17710.26    2865.2752 
   80000    331.17694   -17601.862    96.743204   -17698.605   -384.05121 
   80200    301.65614   -17608.712    88.119605   -17696.831     5111.539 
   80400    301.42701   -17615.649    88.052672   -17703.701    -2575.895 
   80600    332.30868   -17600.819    97.073808   -17697.893    3986.6688 
   80800    274.13826   -17614.058    80.081099   -17694.139   -5305.8352 
   81000    326.36976   -17620.633    95.338932   -17715.972   -5496.5303 
   81200    305.34756   -17606.088    89.197941   -17695.286   -6196.4032 
   81400    306.98418    -17609.06     89.67603   -17698.736    323.22153 
   81600    273.77667   -17624.064    79.975472    -17704.04    739.82967 
   81800     279.6874   -17622.283     81.70211   -17703.985    852.12059 
   82000    281.47782   -17616.626    82.225128   -17698.851   -4345.4651 
   82200    336.98608   -17592.939    98.440167   -17691.379   -3253.7718 
   82400    316.15687   -17600.014    92.355549    -17692.37   -378.34208 
   82600    307.57378   -17615.008    89.848263   -17704.856    3342.5401 
   82800    294.51223   -17620.124    86.032732   -17706.156    4274.3946 
   83000     298.6198   -17604.805    87.232633   -17692.038   -98.058475 
   83200    321.66725   -17601.659     93.96524   -17695.624   -5734.4063 
   83400    296.08733   -17618.551    86.492848   -17705.044    -4187.959 
   83600    312.50125   -17614.417    91.287673   -17705.705   -2462.0894 
   83800    347.88188   -17587.764    101.62304   -17689.387   -530.97096 
   84000    294.86839   -17606.786    86.136774   -17692.922   -4986.7831 
   84200    291.23567   -17619.452    85.075585   -17704.527    4160.0368 
   84400    339.99308   -17605.067    99.318568   -17704.386    10861.192 
   84600    287.57789   -17601.801    84.007076   -17685.808    7625.5042 
   84800    266.57638   -17622.193    77.872128   -17700.065    5161.1457 
   85000    322.47348   -17601.127    94.200756   -17695.327   -5626.0676 
   85200    334.15726   -17589.261    97.613812   -17686.875    6707.2167 
   85400    287.27785   -17612.168    83.919428   -17696.088    13833.466 
   85600     300.1621   -17609.502    87.683167   -17697.186    6065.6069 
   85800    336.64427   -17596.449    98.340317   -17694.789   -1142.4515 
   86000     276.5098   -17623.218    80.773873   -17703.991   -1668.5879 
   86200    303.91808   -17602.511    88.780363   -17691.291    7068.6621 
   86400    318.84095   -17610.387    93.139623   -17703.527    6568.9691 
   86600     291.6888   -17627.497    85.207954   -17712.705    979.62506 
   86800    305.92848   -17608.702     89.36764    -17698.07   -3891.5666 
   87000    297.46119   -17605.022     86.89418   -17691.916    497.04881 
   87200    351.20846   -17585.739     102.5948   -17688.333    1553.3027 
   87400    298.02669   -17611.839    87.059375   -17698.898    7360.2185 
   87600    289.88541   -17623.056    84.681149   -17707.737    12965.096 
   87800    331.70018   -17597.272    96.896052   -17694.168    9468.5026 
   88000    300.59039   -17610.959     87.80828   -17698.767    8460.1781 
   88200    283.73571   -17624.552      82.8847   -17707.437   -4669.3502 
   88400    258.11029    -17630.33    75.399019   -17705.729   -1380.1812 
   88600    304.37174    -17607.94    88.912885   -17696.853   -7624.2152 
   88800    280.56247   -17611.501    81.957735   -17693.458   -14404.628 
   89000    285.68375   -17625.268    83.453763   -17708.722   -4158.3421 
   89200    295.07192   -17600.067    86.196228   -17686.263    5382.1255 
   89400    292.49794   -17615.671    85.444319   -17701.116    3382.5247 
   89600    303.10142   -17621.668    88.541801    -17710.21   -1208.9101 
   89800     301.0781   -17611.309    87.950749    -17699.26   -2593.8085 
   90000    330.53355   -17602.402    96.555257   -17698.957   -9330.2387 
   90200    281.98306     -17629.5    82.372718   -17711.872    242.43168 
   90400    290.84882   -17607.068    84.962579    -17692.03     -55.8182 
   90600    306.09856    -17608.79    89.417323   -17698.208    10688.001 
   90800    298.30334   -17630.196    87.140189   -17717.336    1453.0512 
   91000    275.04954   -17632.105    80.347301   -17712.452   -8503.7538 
   91200    298.86045   -17609.982     87.30293   -17697.285    -11518.54 
   91400    312.19871   -17595.166    91.199297   -17686.365    677.01167 
   91600    290.19047   -17619.872    84.770261   -17704.642     3462.698 
   91800    279.84639   -17616.578    81.748556   -17698.326    5170.8386 
   92000    318.65517   -17590.223    93.085353   -17683.308    11256.145 
   92200    272.89495     -17611.8    79.717904   -17691.518    15095.667 
   92400    296.64105   -17605.976    86.654601    -17692.63    7767.6382 
   92600    317.56831   -17615.998     92.76786   -17708.766    6525.4381 
   92800    282.33567   -17622.259    82.475721   -17704.734    6543.0546 
   93000    288.19399   -17600.988    84.187052   -17685.175   -7118.3657 
   93200    296.90196   -17607.476    86.730819   -17694.207    11176.434 
   93400    250.79804   -17629.293    73.262968   -17702.556   -7971.3543 
   93600    280.00954   -17620.028    81.796213   -17701.824   -7602.2798 
   93800    301.73072   -17602.306    88.141391   -17690.448    3372.6395 
   94000    305.91462   -17605.598    89.363591   -17694.962    5012.5524 
   94200    280.04511   -17623.449    81.806607   -17705.256   -2863.2748 
   94400    327.00515   -17606.211    95.524543   -17701.736    1525.6526 
   94600    281.14895   -17625.489    82.129058   -17707.618   -2428.4192 
   94800    293.84554   -17617.007    85.837979   -17702.845   -2914.3846 
   95000    321.78867   -17605.848    94.000708   -17699.848   -1569.9376 
   95200    271.35549   -17615.707    79.268197   -17694.975    4591.0231 
   95400     268.7806   -17631.779    78.516023   -17710.295    5698.6865 
   95600    305.34175   -17606.256    89.196245   -17695.452    3640.2434 
   95800    294.26915   -17618.784    85.961723   -17704.746    625.21412 
   96000    279.28542   -17609.403    81.584684   -17690.988     2543.701 
   96200    298.26776   -17600.938    87.129795   -17688.068   -1252.5767 
   96400    309.93293   -17621.414    90.537418   -17711.952   -6031.2009 
   96600    275.79884   -17614.732    80.566186   -17695.298   -3436.1861 
   96800    303.67815   -17608.415    88.710275   -17697.125    2718.5108 
   97000    288.02754   -17610.423    84.138428   -17694.562   -2577.0361 
   97200    301.23316   -17611.628    87.996045   -17699.624    4366.1616 
   97400     282.1271   -17601.212    82.414795   -17683.627    6544.9328 
   97600    313.29327   -17597.436    91.519039   -17688.955    4199.4675 
   97800    311.62749    -17620.88     91.03243   -17711.913    3526.5824 
   98000    327.97518   -17606.465    95.807909   -17702.273    1214.7288 
   98200    293.24492   -17609.611    85.662525   -17695.273   -7270.1815 
   98400    277.24302   -17623.584    80.988059   -17704.572   -7869.1262 
   98600    339.05358   -17601.807    99.044124   -17700.851   -9514.8175 
   98800    301.14023   -17616.548    87.968899   -17704.517   -14118.247 
   99000    260.33709   -17629.845    76.049511   -17705.894   -2139.6459 
   99200    312.44206   -17609.235    91.270383   -17700.505    783.13021 
   99400     302.9275   -17611.792    88.490995   -17700.283    4429.1605 
   99600    280.17921   -17622.684    81.845777    -17704.53    2350.6975 
   99800    319.90589   -17594.641    93.450712   -17688.092   -3527.2298 
  100000    260.30653   -17611.515    76.040583   -17687.556     122.2804 
  100200    288.79215   -17627.704    84.361786   -17712.066    -2000.874 
  100400     231.3279   -17638.883    67.575365   -17706.459    1180.9198 
  100600    278.54403   -17610.503    81.368109   -17691.871    4208.5144 
  100800    339.98116   -17597.496    99.315088   -17696.811   -2190.4973 
  101000    288.24701   -17620.989    84.202538   -17705.191     -1992.38 
  101200    275.27166   -17614.885    80.412189   -17695.297   -12659.087 
  101400    271.90213   -17610.187    79.427883   -17689.615   -57.320402 
  101600    330.67483    -17604.67    96.596527   -17701.266    8656.1671 
  101800    273.07327    -17620.06    79.769995    -17699.83    14401.958 
  102000    341.88268   -17601.035    99.870557   -17700.905    20521.099 
  102200    284.87785   -17608.515    83.218342   -17691.734    10159.807 
  102400    285.03966   -17613.255    83.265609    -17696.52    2742.7403 
  102600    331.11146   -17613.332    96.724077   -17710.056    4043.6628 
  102800    273.48875   -17618.597    79.891367   -17698.489   -9198.1267 
  103000    305.57059   -17601.362    89.263093   -17690.626    8496.8603 
  103200    301.45891   -17612.871    88.061992   -17700.933    1110.2905 
  103400    253.49109   -17610.514    74.049662   -17684.564   -295.43932 
  103600     289.8699   -17615.868    84.676618   -17700.545    7093.9857 
  103800    292.10766   -17628.818    85.330311   -17714.149   -1691.9014 
  104000    302.97052   -17605.436    88.503562   -17693.939    10862.804 
  104200    314.71405   -17607.032    91.934074   -17698.966    9275.6961 
  104400    262.09345   -17631.934    76.562577   -17708.496    7890.1727 
  104600    296.37253   -17612.228    86.576161   -17698.804    7872.9889 
  104800    325.30535   -17606.703    95.027998   -17701.731   -1767.8782 
  105000    264.08812   -17624.418    77.145259   -17701.563   -4749.9491 
  105200    328.89183   -17606.004     96.07568    -17702.08    -7757.412 
  105400    306.16429   -17614.318    89.436525   -17703.755    2096.1643 
  105600    279.27898   -17617.308    81.582804   -17698.891   -594.32925 
  105800    337.88907   -17593.337    98.703948   -17692.041   -1084.6798 
  106000    279.07054   -17610.861    81.521914   -17692.383    9.4175539 
  106200    255.82017   -17629.323     74.73003   -17704.053   -14923.142 
  106400    298.76314   -17622.992    87.274506   -17710.267   -2202.2483 
  106600    297.25481    -17606.14    86.833894   -17692.973    4616.4923 
  106800    311.98611   -17607.231    91.137191   -17698.368   -2680.2906 
  107000     310.9472   -17619.847    90.833704   -17710.681   -5457.0673 
  107200    281.44825   -17621.754    82.216491    -17703.97    266.07915 
  107400    325.93901   -17596.671    95.213103   -17691.884   -6209.7581 
  107600    281.17769   -17617.807    82.137453   -17699.944    89.562608 
  107800    303.61007   -17611.922    88.690386   -17700.612   -1558.9114 
  108000    326.23079   -17606.948    95.298337   -17702.246   -4354.6036 
  108200    234.57597   -17633.552    68.524189   -17702.076    -8773.632 
  108400    254.69882   -17633.605    74.402463   -17708.008    6309.7611 
  108600    261.84533   -17612.069    76.490096   -17688.559    9293.6828 
  108800    258.75509   -17600.172    75.587376   -17675.759    9697.0428 
  109000    295.17507   -17599.247    86.226361   -17685.473    133.79421 
  109200    298.72379   -17606.716    87.263009   -17693.979   -1246.0648 
  109400    304.15353   -17618.477    88.849143   -17707.326    5903.9784 
  109600    253.73078   -17621.425    74.119678   -17695.545    4832.8443 
  109800    314.53584   -17609.538    91.882015    -17701.42     6840.644 
  110000    273.54026   -17619.099    79.906412   -17699.006    -112.7588 
  110200    331.85493   -17611.272    96.941257   -17708.214   -5455.1963 
  110400    315.83578   -17600.197    92.261753   -17692.459   -1739.7207 
  110600    277.27299   -17619.896    80.996814   -17700.893    330.48552 
  110800     293.0596   -17620.402     85.60839   -17706.011    393.55082 
  111000    308.34634    -17598.77    90.073944   -17688.844    741.50598 
  111200    245.08512   -17612.192    71.594114   -17683.786   -1313.8175 
  111400    283.15242    -17618.67    82.714309   -17701.384    2634.2502 
  111600    333.11274   -17593.362    97.308688   -17690.671    10876.548 
  111800     274.6585    -17614.93    80.233073   -17695.163    999.23151 
  112000    257.58789   -17613.416    75.246416   -17688.663   -6465.0154 
  112200    272.29176   -17608.717    79.541701   -17688.259    1118.0504 
  112400     300.9645   -17606.697    87.917565   -17694.615    6013.5863 
  112600    256.33106    -17629.27    74.879272   -17704.149   -1491.6866 
  112800     313.3163   -17612.324    91.525764   -17703.849    6562.4591 
  113000    297.43642   -17609.126    86.886943   -17696.013    1506.6023 
  113200    272.33452   -17620.159    79.554194   -17699.713    5878.1233 
  113400    288.21517   -17617.408     84.19324   -17701.602   -3652.5237 
  113600    314.98677   -17591.494    92.013742   -17683.508    771.47819 
  113800    313.30975   -17609.025    91.523852   -17700.549    4757.1842 
  114000    277.92014   -17617.017    81.185861   -17698.203    376.00553 
  114200    308.15424   -17599.499    90.017826   -17689.517    4829.6952 
  114400    303.34508   -17607.937    88.612978    -17696.55   -8535.4811 
  114600    271.64348    -17613.49    79.352327   -17692.843   -3703.6293 
  114800     286.8696   -17609.184     83.80017   -17692.984    1934.3674 
  115000    292.35341   -17619.867    85.402097   -17705.269    1112.7317 
  115200    323.51184   -17599.905    94.504081   -17694.409    4897.5387 
  115400    276.93535   -17620.422    80.898183    -17701.32     4774.345 
  115600    330.14369    -17615.63    96.441372   -17712.072    6453.8732 
  115800    355.07648   -17595.313    103.72472   -17699.038    2201.4498 
  116000    382.65815   -17579.516    111.78186   -17691.298    4830.9899 
  116200    298.60975   -17612.403    87.229698   -17699.633    2663.9113 
  116400    279.04381   -17617.199    81.514105   -17698.713    2226.8814 
  116600    324.20188   -17602.487    94.705653   -17697.192   -313.64381 
  116800    266.95769   -17626.563    77.983517   -17704.547    1314.8898 
  117000    296.79706   -17607.308    86.700175   -17694.008    5311.7681 
  117200     315.6453   -17605.434    92.206111    -17697.64    1973.9599 
  117400    258.62976     -17626.8    75.550767   -17702.351    5913.1471 
  117600    286.64689   -17606.074    83.735113    -17689.81   -6675.7023 
  117800    293.81442   -17600.582    85.828888   -17686.411   -492.17595 
  118000    328.94326   -17620.816    96.090703   -17716.907   -2851.5047 
  118200    264.98293   -17605.672    77.406651   -17683.078    157.54519 
  118400    340.64873   -17603.472    99.510096   -17702.982    3832.2454 
  118600    271.76038   -17616.854    79.386474    -17696.24   -2334.8536 
  118800    328.73408   -17603.605    96.029597   -17699.635    7444.9997 
  119000    245.57492   -17629.852    71.737195   -17701.589   -6245.4321 
  119200    264.79983   -17621.578    77.353163   -17698.932   -2864.5155 
  119400    315.72688   -17604.753    92.229943   -17696.983    9496.2251 
  119600    316.39426   -17607.289    92.424896   -17699.713    3266.4929 
  119800    306.60034   -17628.123    89.563902   -17717.687    4836.6851 
  120000    305.92268   -17611.164    89.365946    -17700.53     5413.042 
  120200    296.57215    -17611.94    86.634473   -17698.574    7179.0033 
  120400    323.27729    -17597.71    94.435564   -17692.145    14165.849 
  120600    319.31997   -17583.008    93.279554   -17676.288   -1470.9906 
  120800    293.24649   -17616.595    85.662984   -17702.258   -7291.6727 
  121000    286.77046   -17614.317    83.771211   -17698.088    1814.4907 
  121200    338.80843   -17595.722    98.972511   -17694.695   -4105.7943 
  121400     309.8246   -17608.281     90.50577   -17698.787    4041.7421 
  121600    283.99512   -17622.257    82.960479   -17705.218    1554.3939 
  121800    310.11353   -17598.664    90.590173   -17689.255    936.97563 
  122000    261.86657    -17609.85      76.4963   -17686.347     1899.642 
  122200    248.26495    -17620.78    72.523004   -17693.303    7596.6864 
  122400    291.41094   -17612.441    85.126785   -17697.568     11715.87 
  122600    297.74664   -17606.795    86.977567   -17693.772      7307.93 
  122800     245.7314    -17625.79    71.782905   -17697.573    13219.224 
  123000    306.37354   -17600.848    89.497649   -17690.346    12149.099 
  123200    297.84049   -17604.849     87.00498   -17691.854    2631.0305 
  123400    292.93307   -17612.451    85.571428   -17698.022    4026.8209 
  123600    271.21319   -17615.197    79.226632   -17694.423    3658.9257 
  123800    310.09201   -17593.053    90.583888   -17683.637    9320.3167 
  124000    296.75428   -17615.036    86.687678   -17701.724    7433.8232 
  124200    302.23738   -17602.645    88.289397   -17690.934   -8796.0247 
  124400    303.18268   -17609.322    88.565537   -17697.888    2628.5372 
  124600    314.34886   -17612.523    91.827394   -17704.351    4292.8622 
  124800    274.77262   -17626.044     80.26641   -17706.311   -2032.9065 
  125000    291.63965   -17604.134    85.193595   -17689.328   -4111.7797 
  125200    334.32248   -17605.403    97.662077   -17703.065    2748.9135 
  125400     281.1725   -17616.394    82.135938    -17698.53   -8189.6382 
  125600    318.62959   -17605.468    93.077881   -17698.546    11897.396 
  125800     257.3202   -17625.004     75.16822   -17700.172    1994.7941 
  126000    233.05884   -17634.017    68.081004   -17702.098   -6934.0701 
  126200    276.68989   -17611.058    80.826479   -17691.884    4514.2495 
  126400     302.9986   -17602.958    88.511764    -17691.47   -4217.8665 
  126600    288.66299   -17626.393    84.324054   -17710.717   -7723.8069 
  126800    307.78649   -17603.551      89.9104   -17693.461   -4075.4442 
  127000    311.63492   -17607.611    91.034601   -17698.646    387.19888 
  127200    295.35956   -17619.128    86.280254   -17705.408   -155.94193 
  127400     314.0312   -17597.921      91.7346   -17689.656   -1936.4662 
  127600    294.34357   -17611.399    85.983461   -17697.382   -6350.1898 
  127800    268.32212   -17624.645    78.382093   -17703.027    468.02505 
  128000    301.59054   -17610.337    88.100442   -17698.437    1030.5176 
  128200    318.62924   -17609.762    93.077777    -17702.84    3000.9251 
  128400    303.44542   -17611.103     88.64229   -17699.745    2990.5925 
  128600     306.4773   -17610.031    89.527961   -17699.559   -6668.3346 
  128800    271.99231   -17616.114    79.454227   -17695.568    1467.9733 
  129000    289.34549   -17602.616    84.523427   -17687.139    -9322.094 
  129200    289.86602   -17622.386    84.675485   -17707.062   -1094.5555 
  129400    255.25326   -17620.935    74.564426     -17695.5    3177.7098 
  129600    306.31913   -17602.763    89.481756   -17692.245   -7424.5499 
  129800    296.85122    -17620.43    86.715996   -17707.146    2993.3685 
  130000    247.27298   -17630.324     72.23323   -17702.557   -1663.4027 
  130200    318.27122   -17608.929    92.973193   -17701.902    571.21626 
  130400    279.25941   -17620.174    81.577086   -17701.751    121.15843 
  130600    306.07619   -17605.954     89.41079   -17695.365   -7264.2556 
  130800    319.68787   -17601.794    93.387023   -17695.181   -9077.5012 
  131000    277.31791   -17619.008    81.009936   -17700.018    -522.2704 
  131200    335.18565   -17600.648    97.914226   -17698.562    1399.9422 
  131400    302.81827   -17603.432    88.459088   -17691.892    -8633.024 
  131600     266.1848   -17617.716    77.757739   -17695.474    3265.7415 
  131800    307.53679   -17618.473    89.837458   -17708.311     5213.155 
  132000    313.10368   -17599.948    91.463654   -17691.412     2657.409 
  132200    308.17849   -17619.821    90.024912   -17709.846   -2131.9689 
  132400    340.61783   -17609.353    99.501072   -17708.854   -10209.158 
  132600    285.25903   -17610.103    83.329694   -17693.433    -7576.859 
  132800    322.84253   -17614.105    94.308561   -17708.413    3491.1105 
  133000    336.70048   -17603.465    98.356737   -17701.821   -3918.2718 
  133200    381.97897   -17591.276    111.58346   -17702.859   -3683.8856 
  133400    275.15676   -17620.954    80.378623   -17701.333   -3888.2657 
  133600    305.29898    -17610.12    89.183751   -17699.304    31.799525 
  133800    294.43829   -17603.666    86.011132   -17689.677    2914.9946 
  134000    259.03089   -17621.624    75.667943   -17697.292    329.51024 
  134200    309.50362   -17605.403    90.412007   -17695.815    2197.8192 
  134400    335.94124   -17607.039    98.134947   -17705.174    2127.9908 
  134600    273.82041   -17614.394    79.988249   -17694.382    3469.3089 
  134800    287.51043   -17598.783    83.987369    -17682.77    -5647.187 
  135000    322.03175   -17601.494    94.071717   -17695.566    465.91372 
  135200    263.13205   -17614.901    76.865971   -17691.767   -16979.542 
  135400    280.49206   -17614.836    81.937169   -17696.774   -8908.9485 
  135600     313.4523   -17598.364    91.565494    -17689.93   -16620.458 
  135800    318.66419   -17623.499    93.087989   -17716.587   -2267.7947 
  136000    300.67578   -17620.033    87.833223   -17707.866    409.26673 
  136200    316.93747   -17608.616    92.583578   -17701.199   -2258.0827 
  136400     286.8789   -17616.163    83.802888   -17699.966    378.81191 
  136600    263.72255    -17627.73     77.03847   -17704.768   -2683.9534 
  136800    323.80803   -17608.194    94.590604   -17702.785   -5954.6669 
  137000     266.2616   -17618.555    77.780176   -17696.335   -1546.3158 
  137200     283.9506   -17624.684    82.947474   -17707.631   -14289.446 
  137400    296.98102   -17601.644    86.753912   -17688.398   -4794.3002 
  137600    264.17245   -17615.537    77.169893   -17692.707    7108.8048 
  137800    273.70821   -17621.678    79.955475   -17701.633   -3365.9256 
  138000    313.73766   -17608.978    91.648852   -17700.627    2285.6731 
  138200    272.70454    -17619.68    79.662282   -17699.343    3709.4817 
  138400    317.22721   -17597.908    92.668216   -17690.577    7188.0674 
  138600    285.76452   -17608.682    83.477356   -17692.159   -3340.9985 
  138800     254.9878    -17632.37     74.48688   -17706.857   -626.50683 
  139000    306.89594   -17621.468    89.650253   -17711.118    15458.116 
  139200    304.04671   -17605.636    88.817939   -17694.454     12628.52 
  139400    296.40161   -17609.236    86.584655   -17695.821   -351.59983 
  139600    283.38614   -17625.465    82.782585   -17708.247    3668.7121 
  139800    296.83197   -17612.948    86.710372   -17699.658   -8517.2934 
  140000    276.95265   -17610.424    80.903238   -17691.328   -10054.293 
  140200    325.60526   -17583.482    95.115608   -17678.598    7939.4077 
  140400    325.28941   -17604.798    95.023342   -17699.821   -5527.2512 
  140600    301.60489   -17616.042    88.104636   -17704.147   -2684.8499 
  140800    258.83235   -17628.063    75.609946   -17703.673    5784.9103 
  141000    320.47806   -17605.932    93.617853    -17699.55   -10036.958 
  141200    324.40965   -17605.257    94.766347   -17700.024   -12070.869 
  141400    328.89578   -17626.878    96.076833   -17722.955   -1060.0987 
  141600    285.19372   -17614.187    83.310615   -17697.497    -6157.766 
  141800      338.898   -17602.907    98.998674   -17701.905    2778.9514 
  142000    276.86349   -17622.704    80.877194   -17703.581     3918.146 
  142200    314.36853   -17610.847    91.833142    -17702.68    3790.6096 
  142400    276.16881   -17613.772    80.674263   -17694.446   -2677.4061 
  142600    325.01232   -17590.249    94.942399   -17685.191   -2387.0535 
  142800    256.26034   -17618.715    74.858613   -17693.574   -11969.445 
  143000    294.72249   -17599.835    86.094152   -17685.929   -15453.619 
  143200    281.44473    -17615.91    82.215462   -17698.126   -8243.9566 
  143400    249.57163   -17629.078     72.90471   -17701.983    2286.8921 
  143600    333.78801   -17603.575    97.505949   -17701.081    -2213.624 
  143800    273.44021   -17621.476    79.877186   -17701.353    4071.2225 
  144000    319.93458   -17602.207    93.459092   -17695.666    6646.6522 
  144200    314.45974   -17602.448    91.859785   -17694.308    4317.7478 
  144400    272.52249   -17623.845    79.609101   -17703.454   -5976.3655 
  144600    272.79448   -17619.987    79.688555   -17699.675   -5785.6351 
  144800    289.59218   -17607.187    84.595489   -17691.782   -6626.9456 
  145000    323.48915   -17602.348    94.497452   -17696.846    12760.773 
  145200    280.90377   -17623.151    82.057437   -17705.209    12125.765 
  145400    284.98069   -17600.406    83.248384   -17683.654    8784.1465 
  145600     272.9705   -17615.906    79.739975   -17695.646    10942.612 
  145800    302.62007   -17611.534    88.401188   -17699.935    2591.0352 
  146000    321.08334   -17584.392    93.794668   -17678.187   -1858.4239 
  146200    331.24631   -17594.855     96.76347   -17691.618   -7597.5372 
  146400    302.22608    -17617.87    88.286096   -17706.156     324.4634 
  146600    307.87079   -17612.894    89.935025   -17702.829   -4003.5643 
  146800    332.07178   -17593.823    97.004603   -17690.827    1914.8849 
  147000    292.45045   -17611.626    85.430447   -17697.057   -798.38676 
  147200    289.29261   -17616.821     84.50798   -17701.329   -2999.1585 
  147400    314.20832   -17606.725    91.786342   -17698.511   -10847.801 
  147600    325.00391   -17600.512    94.939943   -17695.452   -4525.9901 
  147800    311.21736   -17620.124    90.912624   -17711.037   -6882.4891 
  148000    326.04708   -17599.718    95.244673   -17694.963   -1748.5067 
  148200    289.37919   -17603.073    84.533271   -17687.606     8831.246 
  148400    288.27632   -17614.237      84.2111   -17698.449   -362.33523 
  148600    307.02561   -17613.268    89.688134   -17702.956    5698.8606 
  148800    370.81226   -17584.765    108.32145   -17693.087   -99.425157 
  149000     306.4966   -17614.571    89.533598   -17704.105   -8837.2724 
  149200    294.63041   -17608.767    86.067254   -17694.834   -3413.8674 
  149400    355.80985   -17587.512    103.93895   -17691.451   -1030.1279 
  149600    268.74781   -17617.071    78.506446   -17695.577    5892.2415 
  149800     313.1142   -17603.224    91.466727    -17694.69     1356.553 
  150000    291.53939   -17617.168    85.164309   -17702.332    7286.3602 
  150200    295.82258    -17619.34    86.415511   -17705.756   -759.52245 
  150400    314.78485   -17610.706    91.954758   -17702.661    1098.4714 
  150600    272.75682   -17610.517    79.677554   -17690.195    5417.3861 
  150800    343.17209   -17601.323    100.24722    -17701.57    -2834.952 
  151000    284.93904   -17618.739    83.236218   -17701.975    9305.8983 
  151200    311.97763    -17599.86    91.134714   -17690.994    12635.917 
  151400    297.72277   -17604.259    86.970592    -17691.23    1272.2072 
  151600      309.892   -17616.072    90.525459   -17706.597    4488.0173 
  151800    298.64002   -17614.365    87.238537   -17701.603   -6923.6983 
  152000    325.35617   -17587.736    95.042843   -17682.779   -6078.9659 
  152200    262.17923   -17615.901    76.587634   -17692.489    3543.6549 
  152400    270.75031   -17618.117    79.091415   -17697.209    1645.1563 
  152600    337.75176    -17597.12    98.663836   -17695.783   -6449.7665 
  152800    334.73926    -17611.45    97.783826   -17709.234    -5032.354 
  153000    336.08351   -17612.393    98.176508    -17710.57    1806.0603 
  153200    334.44346   -17608.628    97.697417   -17706.326    4916.4701 
  153400    243.21864   -17626.965     71.04888   -17698.014    2276.1844 
  153600    293.84291   -17609.549    85.837209   -17695.386    -6670.886 
  153800    305.05208   -17604.742    89.111626   -17693.854   -837.68725 
  154000    277.65214    -17622.21    81.107572   -17703.317   -5958.7789 
  154200    257.49699   -17637.934    75.219862   -17713.154   -2920.8025 
  154400     294.2391   -17612.722    85.952944   -17698.675   -5920.3447 
  154600    295.72211   -17602.901     86.38616   -17689.287    -471.3038 
  154800    254.03267   -17629.052    74.207869    -17703.26   -7916.5495 
  155000    297.19479    -17614.01    86.816359   -17700.826   -6430.4745 
  155200    280.27431   -17614.264    81.873558   -17696.137    1395.5598 
  155400    374.73989   -17587.771    109.46879    -17697.24    3392.3052 
  155600    322.37451   -17617.127    94.171844   -17711.299    9836.9502 
  155800    330.23585   -17608.478    96.468294   -17704.947    11206.673 
  156000    300.80614   -17606.651    87.871303   -17694.522    10029.684 
  156200    256.62966    -17636.99    74.966498   -17711.956    6040.3449 
  156400    284.80712   -17621.843    83.197679   -17705.041    8296.9129 
  156600    299.66215   -17604.794    87.537124   -17692.332    2866.8914 
  156800      326.998   -17599.931    95.522455   -17695.454   -3841.9752 
  157000    314.04288   -17614.647    91.738012   -17706.385   -4312.8059 
  157200    310.04418   -17607.657    90.569915   -17698.227   -1948.3836 
  157400    306.53976   -17610.529    89.546207   -17700.075    1823.3536 
  157600    283.43006   -17624.056    82.795415   -17706.851    -6951.578 
  157800    336.96592    -17599.84    98.434278   -17698.274   -2579.2321 
  158000    322.80212   -17608.454    94.296757   -17702.751    5810.2458 
  158200    325.88211   -17611.486    95.196481   -17706.682    13800.234 
  158400    300.97054    -17587.62    87.919329   -17675.539   -1886.2694 
  158600    255.54727   -17607.417    74.650312   -17682.067     10653.94 
  158800    279.88358   -17617.579    81.759419   -17699.339    5134.5219 
  159000    268.66601   -17610.196    78.482549   -17688.679   -3029.4185 
  159200    299.29408   -17600.933    87.429602   -17688.362   -5647.0666 
  159400    278.26029   -17624.274    81.285224   -17705.559    6374.1879 
  159600    301.45128   -17612.387    88.059764   -17700.446   -7471.9374 
  159800    302.38529   -17605.818    88.332606   -17694.151   -1593.2577 
  160000    256.06806   -17628.198    74.802444       -17703    9602.3536 
  160200    293.38929   -17611.896    85.704698   -17697.601    2347.6308 
  160400    294.61766   -17609.522     86.06353   -17695.585   -3436.4001 
  160600    302.44175   -17603.226    88.349098   -17691.575    4303.1288 
  160800    302.54928   -17605.578     88.38051   -17693.959    2561.8739 
  161000    304.29801   -17615.814    88.891349   -17704.706    5084.9502 
  161200    341.05058   -17590.088    99.627486   -17689.716    2139.3394 
  161400     313.8045   -17600.232    91.668376     -17691.9    1805.0363 
  161600    331.38168   -17612.139    96.803013   -17708.942   -2106.8499 
  161800    283.19948   -17621.257    82.728056   -17703.985    -10111.09 
  162000    314.75632   -17595.212    91.946424   -17687.159    676.99372 
  162200    267.35495   -17616.427    78.099564   -17694.527    413.66714 
  162400    268.06213   -17612.892    78.306145   -17691.199    3846.7564 
  162600    303.91361   -17590.414    88.779055   -17679.193   -6014.8165 
  162800    327.20302   -17609.975    95.582345   -17705.557   -7339.1098 
  163000    292.76032   -17618.952    85.520964   -17704.473    4022.4466 
  163200    321.63677   -17613.948    93.956336   -17707.905    1749.4281 
  163400     304.9672   -17596.351    89.086831   -17685.438     1948.012 
  163600    371.18541   -17593.362    108.43045   -17701.792   -1718.6222 
  163800    287.61728   -17616.548    84.018582   -17700.566    6704.8527 
  164000    315.22722   -17602.344    92.083983   -17694.428   -780.86466 
  164200    278.91069   -17623.048    81.475219   -17704.523   -1293.0542 
  164400    276.51043   -17614.168    80.774056   -17694.942   -3264.1093 
  164600    302.91026   -17601.592    88.485958   -17690.077    -348.4277 
  164800    258.16724   -17628.657    75.415656   -17704.072    2839.3124 
  165000    289.86633   -17617.233    84.675574   -17701.909   -1733.0018 
  165200    321.80913   -17600.439    94.006686   -17694.446   -1348.2428 
  165400    261.01588    -17628.67    76.247798   -17704.918   -1943.5709 
  165600    285.64501   -17617.057    83.442445     -17700.5    6572.0815 
  165800    319.29412   -17605.644    93.272002   -17698.916    -943.1323 
  166000    298.74346   -17618.883    87.268756   -17706.152   -3175.5873 
  166200    252.81748   -17639.213    73.852887   -17713.066   -4726.0915 
  166400    289.29607   -17616.286    84.508989   -17700.795   -2473.5485 
  166600    322.49826   -17600.173    94.207994   -17694.381   -1572.9738 
  166800    277.61121   -17620.417    81.095616   -17701.512   -6347.0916 
  167000    270.70272    -17619.22    79.077511   -17698.297    3380.6656 
  167200    310.33908   -17605.344    90.656062       -17696   -2890.3469 
  167400    291.96868   -17614.679    85.289711   -17699.969    5560.4685 
  167600    317.62824   -17607.285    92.785367    -17700.07   -902.03055 
  167800    279.41182   -17621.976    81.621609   -17703.597   -6050.6726 
  168000    265.84722   -17616.907    77.659128   -17694.566    6845.2647 
  168200    315.64092   -17602.221    92.204833   -17694.425    3841.0526 
  168400    342.06809   -17607.644     99.92472   -17707.568    15794.366 
  168600    292.45912   -17628.248    85.432977   -17713.681   -978.02341 
  168800    321.45744    -17605.61    93.903949   -17699.514    3396.6712 
  169000    297.21766   -17611.479    86.823039   -17698.302    2826.9934 
  169200    320.49767   -17611.989    93.623582   -17705.613   -1444.5344 
  169400    386.42519   -17590.603    112.88229   -17703.485    8858.5329 
  169600    266.09101   -17615.823    77.730343   -17693.553     180.1675 
  169800    317.16897   -17609.839    92.651205    -17702.49   -4568.0772 
  170000    349.53354   -17583.089    102.10552   -17685.195   -226.57776 
  170200    293.61594   -17615.998    85.770906   -17701.768    13370.316 
  170400    301.82574   -17611.079    88.169151   -17699.248   -2739.8203 
  170600    306.58729   -17590.278    89.560091   -17679.838     4367.975 
  170800    298.39532   -17619.783    87.167057    -17706.95    -1082.949 
  171000    299.64646   -17612.306     87.53254   -17699.839   -3473.1113 
  171200    319.52408   -17595.946    93.339177   -17689.285   -3990.2805 
  171400    286.10109   -17619.759    83.575673   -17703.335   -4026.4517 
  171600    294.28162   -17613.798    85.965365   -17699.763    1256.2758 
  171800    322.62766   -17595.926    94.245793   -17690.171    8641.4801 
  172000    339.26422   -17606.339    99.105655   -17705.445   -2568.1525 
  172200    273.50694   -17621.974     79.89668    -17701.87    2164.5066 
  172400     341.9796    -17594.27    99.898872   -17694.169    -699.3022 
  172600    306.27855   -17607.916    89.469903   -17697.386   -7324.8377 
  172800    266.86484   -17612.024    77.956394   -17689.981    437.91306 
  173000    302.33826   -17601.743    88.318865   -17690.061   -1105.3964 
  173200    337.61201   -17599.816    98.623012   -17698.439    2159.9242 
  173400    298.42187   -17620.196    87.174812   -17707.371   -8928.3143 
  173600     317.5125   -17600.619    92.751556    -17693.37    1050.2677 
  173800    312.29939   -17590.273    91.228704   -17681.502     2644.675 
  174000    296.63802   -17620.297    86.653715   -17706.951    2344.6314 
  174200    302.41944   -17607.046    88.342581   -17695.389    876.02628 
  174400     321.3721    -17605.91     93.87902   -17699.789   -7539.8148 
  174600    290.28531   -17625.597    84.797966   -17710.395    676.75255 
  174800    313.07179   -17603.353    91.454339   -17694.807    7684.8376 
  175000     291.9618   -17609.761    85.287703   -17695.049    9570.9613 
  175200    273.09042   -17620.571    79.775004   -17700.346     3494.349 
  175400     299.9663   -17593.974    87.625971     -17681.6    454.98158 
  175600    299.38359   -17617.294    87.455751   -17704.749   -4839.1307 
  175800    312.30963   -17615.464    91.231696   -17706.695   -326.58342 
  176000    354.92571   -17590.398    103.68068   -17694.079    4337.4631 
  176200    322.55633   -17597.428    94.224958   -17691.653   -1261.0067 
  176400    278.93994   -17613.389    81.483762   -17694.873   -13798.908 
  176600    330.30371   -17605.806    96.488116   -17702.295    5814.7438 
  176800    321.17109   -17594.124    93.820302   -17687.944    1917.7913 
  177000    269.18613   -17618.314    78.634488   -17696.948    10786.685 
  177200    340.42305   -17600.586    99.444171    -17700.03   -1605.9407 
  177400     334.3081   -17607.986    97.657876   -17705.644   -3486.1585 
  177600    299.21645   -17614.304    87.406926   -17701.711   -3281.7618 
  177800     284.4122   -17619.913    83.082318   -17702.995   -4769.7644 
[...]
  950000    333.84077   -17610.524     97.52136   -17708.046    2477.4401 
  950200    302.33709   -17607.027    88.318524   -17695.346     741.5952 
  950400    244.17168   -17616.094    71.327282   -17687.421    11950.049 
  950600    264.51402   -17609.969    77.269672   -17687.239    3479.9973 
  950800    352.60104   -17597.216     103.0016   -17700.218     4572.866 
  951000    296.21264    -17619.06    86.529455   -17705.589   -6619.3637 
  951200    280.76041   -17614.915    82.015559   -17696.931   -5449.6753 
  951400    323.00826   -17601.677    94.356976   -17696.034    3062.2355 
  951600     293.3598    -17614.43    85.696085   -17700.126    2610.1751 
  951800    306.16334   -17613.558    89.436246   -17702.994   -4204.6476 
  952000    337.97706   -17589.066    98.729651   -17687.796    3235.5049 
  952200     307.4087   -17611.001    89.800041   -17700.801   -3105.0543 
  952400     311.1318   -17609.669    90.887629   -17700.557    341.96578 
  952600    361.79288   -17586.677    105.68671   -17692.364    2200.1342 
  952800    298.88279   -17610.472    87.309458   -17697.781   -7141.3534 
  953000    289.16371   -17618.009    84.470326    -17702.48   -5008.9713 
  953200    303.50284   -17601.991    88.659062    -17690.65    -8386.444 
  953400    275.56541   -17606.551    80.497998   -17687.049    838.24481 
  953600    267.33084   -17616.732    78.092522   -17694.825    3877.2184 
  953800    290.62322   -17613.827    84.896675   -17698.723   -3770.7333 
  954000    239.52231   -17632.712     69.96911   -17702.681    2533.8262 
  954200    271.58351   -17610.485    79.334807    -17689.82    7221.3034 
  954400    344.23253   -17597.969      100.557   -17698.526     1313.785 
  954600    286.10431   -17625.159    83.576614   -17708.736   -294.84914 
  954800    360.56867   -17615.042     105.3291   -17720.371    3698.6699 
  955000    370.82157   -17589.631    108.32417   -17697.955    5772.1334 
  955200    353.20831   -17607.607    103.17899   -17710.786     520.4225 
  955400    347.69379   -17615.517     101.5681   -17717.085    2601.3528 
  955600    326.63374   -17604.151    95.416048   -17699.567    5333.5486 
  955800    287.95062   -17612.022    84.115958   -17696.138    4014.5018 
  956000    281.70202   -17623.158     82.29062   -17705.449   -8979.4631 
  956200    340.24524   -17604.254    99.392231   -17703.646    842.20241 
  956400      289.293   -17610.922    84.508094    -17695.43    3533.9748 
  956600    271.71259   -17633.144    79.372516   -17712.516    918.05574 
  956800    300.42071   -17601.898    87.758714   -17689.657   -2331.3632 
  957000      307.002   -17609.096    89.681235   -17698.777     8906.723 
  957200    282.90737   -17626.681    82.642726   -17709.324    10171.807 
  957400    293.23857   -17611.829    85.660671   -17697.489    5653.0022 
  957600    302.26067   -17606.575      88.2962   -17694.871    424.84361 
  957800     325.0345   -17602.469    94.948877   -17697.418   -5860.2176 
  958000    296.99131    -17617.85    86.756919   -17704.607   -556.35292 
  958200    298.51879   -17625.452    87.203124   -17712.655   -3061.3398 
  958400    322.47343   -17600.761    94.200741   -17694.961    7057.8708 
  958600    280.71453   -17614.954    82.002156   -17696.956    646.95333 
  958800     290.9651   -17614.172    84.996545   -17699.169    2042.7346 
  959000     312.0945   -17598.819    91.168854   -17689.987    96.620342 
  959200    293.47419   -17621.347    85.729501   -17707.077   -2706.7499 
  959400    284.02487   -17611.556     82.96917   -17694.525     -2643.08 
  959600    344.18504    -17587.29    100.54312   -17687.833    2554.4572 
  959800    319.42604   -17599.945    93.310539   -17693.255    7638.3787 
  960000    297.25608   -17615.726    86.834262    -17702.56    2050.4719 
  960200    307.28652   -17612.867    89.764348   -17702.631   -6384.8624 
  960400    331.31261   -17591.359    96.782836   -17688.142   -6958.9372 
  960600    278.00468   -17620.741    81.210557   -17701.951   -9319.3164 
  960800    314.03234   -17604.485    91.734934    -17696.22   -11143.267 
  961000    305.50526   -17600.548    89.244009   -17689.792   -1349.1773 
  961200    258.35043   -17625.277    75.469169   -17700.746   -2867.6464 
  961400    305.56599   -17607.741    89.261748   -17697.003    3665.8658 
  961600     282.5332   -17602.528    82.533426   -17685.061   -8904.4927 
  961800    306.69953   -17602.069    89.592878   -17691.662    6591.5033 
  962000    307.52773   -17613.327    89.834812   -17703.161    1659.2452 
  962200    262.30753   -17629.712    76.625115   -17706.337    2184.0065 
  962400    289.43473   -17605.577    84.549496   -17690.126   -2540.8236 
  962600    297.81741   -17604.602    86.998237     -17691.6    2495.5243 
  962800     269.5723   -17618.433    78.747294   -17697.181   -3887.8778 
  963000    278.93814   -17622.089    81.483237   -17703.572    524.28884 
  963200    265.25616    -17631.76    77.486467   -17709.247    1107.3024 
  963400    290.61776   -17603.014    84.895081   -17687.909    9795.8173 
  963600    318.67903   -17595.181    93.092321   -17688.273    750.69037 
  963800    280.40195   -17621.375    81.910844   -17703.285   -5362.4357 
  964000    290.68722   -17617.381    84.915372   -17702.296    1313.2055 
  964200    248.65392   -17622.321    72.636632   -17694.958   -8792.2996 
  964400    341.99795   -17596.747     99.90423   -17696.651   -1644.0183 
  964600    291.41805    -17614.02    85.128862   -17699.149   -7303.8916 
  964800    286.57473   -17619.513    83.714035   -17703.227    -11754.05 
  965000    281.16475   -17612.236    82.133673    -17694.37   -1768.9451 
  965200    326.59211   -17585.081    95.403886   -17680.485    151.49522 
  965400    342.09426   -17602.649    99.932364   -17702.581    9557.8296 
  965600      286.484   -17612.098     83.68753   -17695.786    10532.917 
  965800    302.28415   -17607.376     88.30306   -17695.679    4166.2018 
  966000     304.0289   -17621.749    88.812736   -17710.562     2202.316 
  966200    318.90719   -17602.338    93.158973   -17695.497   -6469.9666 
  966400    285.28909   -17608.241    83.338473    -17691.58   -7081.9608 
  966600    288.76428   -17616.085    84.353644   -17700.438    2280.7163 
  966800    304.07682    -17613.62    88.826732   -17702.447    9255.3629 
  967000    308.77151   -17599.442    90.198144    -17689.64   -6686.9301 
  967200    289.79539    -17623.81     84.65485   -17708.464   -5476.4072 
  967400    292.85607   -17615.272    85.548936   -17700.821    2899.7467 
  967600     326.5776   -17605.832    95.399647   -17701.232    6642.3246 
  967800    295.62092   -17621.659    86.356601   -17708.016    567.43403 
  968000    313.55647   -17588.633    91.595923   -17680.229    661.41236 
  968200    324.14701   -17609.489    94.689626   -17704.179   -2958.5276 
  968400    307.99433   -17613.331    89.971115   -17703.302   -1950.6382 
  968600    351.53582   -17588.242    102.69043   -17690.933    416.45155 
  968800    298.55946   -17610.537    87.215007   -17697.752    3400.6619 
  969000    285.78992   -17616.893    83.484776   -17700.378    5722.5966 
  969200    319.40688   -17598.468    93.304942   -17691.773    1571.3943 
  969400    348.51575   -17595.586    101.80821   -17697.394   -1280.9867 
  969600    301.14263   -17611.525    87.969601   -17699.495     3660.511 
  969800    314.44202   -17620.102     91.85461   -17711.956    -2632.966 
  970000    340.91102   -17597.243    99.586717    -17696.83    5808.9408 
  970200    282.69751   -17613.147    82.581424   -17695.729    7922.5181 
  970400    334.98965    -17596.31    97.856971   -17694.167     5242.746 
  970600     316.9102   -17596.195    92.575612   -17688.771    10163.885 
  970800    298.26255   -17612.888    87.128273   -17700.017   -5071.9478 
  971000    294.21876   -17619.141    85.947002   -17705.088   -334.81664 
  971200    323.11485   -17597.464    94.388113   -17691.852   -1929.1805 
  971400    300.91654   -17614.439    87.903556   -17702.342    4619.6091 
  971600    280.23552   -17613.565    81.862228   -17695.427    4315.3636 
  971800    342.78467   -17590.796    100.13405    -17690.93   -1594.7689 
  972000    310.95331    -17607.56    90.835491   -17698.395   -5555.1018 
  972200    321.97248   -17617.525    94.054403   -17711.579    186.37406 
  972400    303.92273   -17613.601    88.781721   -17702.383    4173.6366 
  972600    334.24642   -17590.045     97.63986   -17687.685    1046.9812 
  972800    274.95096   -17612.233    80.318506   -17692.551    1578.9479 
  973000    307.36974   -17611.959    89.788661   -17701.748     6834.428 
  973200    351.98976   -17602.524    102.82303   -17705.347    2531.6567 
  973400    299.43434   -17619.852    87.470574   -17707.322    2917.1396 
  973600    283.31281   -17614.779    82.761163    -17697.54   -2947.4887 
  973800    276.93984   -17604.584    80.899495   -17685.483    -4416.739 
  974000    293.02068   -17612.533    85.597021    -17698.13   -7682.8634 
  974200    278.21507   -17608.817    81.272016   -17690.089   -9868.3441 
  974400    314.21149   -17590.824    91.787268   -17682.611   -4622.3958 
  974600    317.68169   -17614.485    92.800979   -17707.286    388.73749 
  974800    298.65711   -17614.786    87.243531    -17702.03    2346.1108 
  975000    349.69898   -17587.278    102.15385   -17689.432    681.37554 
  975200    311.14766   -17600.282    90.892264   -17691.174   -2899.0409 
  975400    283.31792   -17615.552    82.762657   -17698.315   -1498.0662 
  975600    324.86586   -17612.748    94.899616   -17707.648   -764.17283 
  975800    319.23797   -17594.927      93.2556   -17688.182    -2348.998 
  976000    281.74927   -17621.644    82.304422   -17703.948    830.47278 
  976200    326.06733   -17610.403    95.250589   -17705.653    10429.549 
  976400    307.49568   -17608.298    89.825449   -17698.123   -2366.2188 
  976600    248.62643   -17624.197    72.628599   -17696.826   -5177.7636 
  976800    289.06871   -17606.752    84.442572   -17691.195   -5567.7058 
  977000    335.80282   -17597.305    98.094513   -17695.399   -4154.3843 
  977200    277.42239   -17625.718    81.040459   -17706.758    3108.0032 
  977400    312.58002   -17605.801    91.310683   -17697.112    9713.7569 
  977600    311.91172   -17601.968    91.115459   -17693.083   -6641.3204 
  977800    315.73259   -17616.455    92.231609   -17708.686    899.86795 
  978000    296.85847   -17610.975    86.718113   -17697.693    1426.4195 
  978200     277.0594   -17623.515    80.934422    -17704.45    4230.3496 
  978400    277.73964   -17626.557    81.133133    -17707.69   -1536.6786 
  978600    310.28986   -17612.759    90.641683   -17703.401     1025.784 
  978800    284.02523   -17611.959    82.969275   -17694.928    6767.9224 
  979000     272.7197   -17617.797     79.66671   -17697.464    40.648249 
  979200     325.7575   -17599.676    95.160081   -17694.836   -1254.9405 
  979400    299.96922   -17599.722    87.626825   -17687.349    3435.3873 
  979600    298.98984   -17622.165    87.340728   -17709.506    427.56807 
  979800    323.60611   -17602.163    94.531617   -17696.694    248.78364 
  980000     287.0666   -17608.864     83.85772   -17692.722    -6074.406 
  980200    245.68066   -17619.328    71.768084   -17691.096   -10597.883 
  980400    335.83231     -17593.7    98.103128   -17691.803    2732.6806 
  980600    313.03387   -17601.579    91.443261   -17693.022   -3267.6715 
  980800    321.99153   -17615.959    94.059968   -17710.019    7591.0406 
  981000    303.85611   -17623.808    88.762261    -17712.57    13429.953 
  981200    334.06785   -17596.588    97.587694   -17694.175    906.15053 
  981400    285.46099   -17614.544    83.388688   -17697.933    235.26079 
  981600     277.9973   -17624.164    81.208401   -17705.372   -4778.0192 
  981800    323.77689   -17617.506    94.581506   -17712.087   -13322.522 
  982000    294.89499   -17606.457    86.144542   -17692.602    -3654.553 
  982200    250.83514   -17632.234    73.273808   -17705.508    2096.3599 
  982400    269.73602   -17618.865    78.795121   -17697.661   -9677.4905 
  982600     279.1376   -17607.253    81.541504   -17688.795    4530.5359 
  982800    275.30695     -17615.7    80.422498   -17696.123    -5077.744 
  983000    279.20624   -17618.244    81.561554   -17699.806     4017.693 
  983200    324.60535   -17606.351    94.823515   -17701.175   -5365.1044 
  983400    296.49476   -17611.895    86.611866   -17698.507   -934.39993 
  983600    327.18935   -17589.174    95.578352   -17684.752    -1528.259 
  983800    264.59571   -17609.006    77.293535     -17686.3   -7654.1502 
  984000    310.67283   -17608.447    90.753557     -17699.2    10268.071 
  984200    276.86853   -17627.067    80.878666   -17707.946   -570.22223 
  984400    291.15126    -17620.97    85.050928   -17706.021   -2420.9959 
  984600    292.59281   -17609.261    85.472031   -17694.733    -4673.398 
  984800    280.37578   -17606.424    81.903201   -17688.327   -3706.0923 
  985000    311.69339   -17604.768    91.051681    -17695.82   -9208.2071 
  985200    277.13822   -17618.207    80.957445   -17699.165   -1533.8059 
  985400    327.30542   -17611.394    95.612257   -17707.007   -3581.0741 
  985600    371.32122   -17583.563    108.47013   -17692.033    11791.728 
  985800    325.79176    -17604.29    95.170088    -17699.46    8489.8634 
  986000    269.34809   -17618.106      78.6818   -17696.788   -1203.4777 
  986200    318.50794    -17599.29    93.042345   -17692.333    841.91493 
  986400     325.8844   -17591.518    95.197149   -17686.715   -12855.329 
  986600    285.21383   -17618.464    83.316488   -17701.781   -5288.5456 
  986800    291.56757   -17609.907    85.172539    -17695.08   -1391.8569 
  987000    314.08004   -17599.347    91.748869   -17691.096      1253.68 
  987200     280.0571   -17611.525    81.810109   -17693.335   -8550.1208 
  987400    289.08311   -17612.819     84.44678   -17697.266    781.36308 
  987600    286.96457   -17625.825    83.827915   -17709.653    -2225.651 
  987800    320.95866   -17604.836    93.758247   -17698.594   -4001.4547 
  988000    283.81489   -17609.016    82.907831   -17691.924   -4488.2006 
  988200    247.09056   -17635.726    72.179941   -17707.906    7943.0885 
  988400    309.34727   -17617.687    90.366335   -17708.054    8596.0405 
  988600    319.97015   -17603.462    93.469483   -17696.931    9623.6738 
  988800    294.71556   -17614.311    86.092129   -17700.403    15868.487 
  989000    287.42021   -17621.164    83.961014   -17705.125   -445.25502 
  989200     303.4605   -17606.647    88.646695   -17695.294   -258.11049 
  989400     279.0237   -17610.498    81.508232   -17692.006    1264.4065 
  989600    326.65863   -17600.929    95.423319   -17696.352   -6108.0042 
  989800    283.95074   -17610.592    82.947516   -17693.539   -5860.0336 
  990000    276.22973   -17625.489    80.692058   -17706.181    267.68039 
  990200    280.62344   -17609.481    81.975548   -17691.456    1810.6671 
  990400    347.02452   -17594.536    101.37259   -17695.908   -2958.7756 
  990600    300.51871   -17615.164    87.787342   -17702.952   -10587.839 
  990800    317.59631   -17615.031    92.776038   -17707.807   -4938.2053 
  991000    229.18568   -17636.568    66.949581   -17703.517    5990.5372 
  991200    262.89626   -17612.547    76.797094   -17689.344   -2660.0714 
  991400    300.10968   -17613.685    87.667856   -17701.353   -3410.0177 
  991600    345.12677   -17594.674    100.81822   -17695.493    869.24942 
  991800    298.13549   -17611.716    87.091157   -17698.807    5315.2882 
  992000    279.16387   -17617.007    81.549178   -17698.556    5676.7382 
  992200    325.76003   -17594.917     95.16082   -17690.078   -5017.3567 
  992400    295.82358   -17622.975    86.415803   -17709.391   -2535.2512 
  992600    346.48203   -17610.054    101.21412   -17711.268    1128.3341 
  992800    319.13271   -17589.246    93.224851   -17682.471   -278.51064 
  993000    298.00628   -17610.336    87.053412    -17697.39    3502.4035 
  993200    272.94621   -17617.396     79.73288   -17697.129   -1458.0821 
  993400    297.50327   -17599.185    86.906471   -17686.092   -5207.4009 
  993600    320.69433   -17603.506     93.68103   -17697.187    754.81947 
  993800    294.97772   -17613.196    86.168711   -17699.364   -1570.4941 
  994000    322.97467   -17608.803    94.347161    -17703.15   -3457.5677 
  994200    342.99382   -17599.722    100.19514   -17699.917   -3818.8692 
  994400    298.29234   -17607.375    87.136974   -17694.512    3109.0601 
  994600    298.26804   -17611.593    87.129875   -17698.722    -4548.715 
  994800    271.60695   -17629.094    79.341654   -17708.436    4943.0709 
  995000    331.73493   -17611.756    96.906205   -17708.662    8378.6962 
  995200     309.3002   -17605.852    90.352583   -17696.205    10733.501 
  995400    278.60168   -17613.694    81.384951   -17695.079    521.09137 
  995600    282.39488   -17622.337     82.49302    -17704.83    8980.5319 
  995800    288.66178   -17607.365    84.323702   -17691.689    10857.038 
  996000    292.70498    -17605.05      85.5048   -17690.555    2261.9728 
  996200    275.62244   -17631.901    80.514657   -17712.416   -5438.8082 
  996400    255.60743   -17618.129    74.667885   -17692.796    8892.9118 
  996600    314.68542   -17605.532    91.925713   -17697.458    4402.2908 
  996800    269.08889   -17625.789     78.60608   -17704.395   -5625.0398 
  997000    218.14174   -17637.541    63.723432   -17701.265    3553.2254 
  997200    298.14059   -17609.869    87.092645   -17696.962    -3863.188 
  997400    358.14278   -17593.423    104.62045   -17698.043    1557.6579 
  997600    318.00642    -17613.44     92.89584   -17706.336   -849.91492 
  997800    285.80649    -17614.82    83.489615    -17698.31   -4765.1615 
  998000    331.29137   -17593.947     96.77663   -17690.724   -276.75258 
  998200    268.52334   -17608.625    78.440873   -17687.066     7458.449 
  998400    324.96692   -17604.455    94.929136   -17699.384    1072.9655 
  998600    327.84053   -17610.046    95.768574   -17705.814   -61.279978 
  998800    322.78915   -17620.653    94.292969   -17714.946      3587.18 
  999000    329.37165   -17591.896    96.215845   -17688.112    3202.7723 
  999200    355.25058   -17595.935    103.77558    -17699.71   -505.02684 
  999400    287.91718   -17613.165    84.106191   -17697.271    11010.067 
  999600    310.43938   -17609.645    90.685361    -17700.33   -2101.5282 
  999800    330.30853   -17598.691    96.489523    -17695.18    835.04574 
 1000000    290.89851   -17619.355    84.977095   -17704.332   -2548.7933 
Loop time of 16478.7 on 8 procs for 1000000 steps with 99 atoms

Performance: 1.311 ns/day, 18.310 hours/ns, 60.685 timesteps/s
88.5% CPU use with 8 MPI tasks x no OpenMP threads

MPI task timing breakdown:
Section |  min time  |  avg time  |  max time  |%varavg| %total
---------------------------------------------------------------
Pair    | 1173.2     | 1215.7     | 1271.9     |  89.0 |  7.38
Neigh   | 0.25698    | 0.26316    | 0.27005    |   0.8 |  0.00
Comm    | 291.78     | 337.61     | 390.65     | 178.4 |  2.05
Output  | 2.5386     | 2.5966     | 2.6649     |   2.0 |  0.02
Modify  | 14802      | 14809      | 14816      |   5.6 | 89.87
Other   |            | 113.8      |            |       |  0.69

Nlocal:    12.375 ave 16 max 11 min
Histogram: 1 0 6 0 0 0 0 0 0 1
Nghost:    374.625 ave 390 max 363 min
Histogram: 1 1 1 1 1 2 0 0 0 1
Neighs:    814.625 ave 1070 max 752 min
Histogram: 5 2 0 0 0 0 0 0 0 1

Total # of neighbors = 6517
Ave neighs/atom = 65.8283
Neighbor list builds = 732
Dangerous builds = 0

unfix 1
unfix output
undump 1

Please see the log.cite file for references relevant to this simulation

Total wall time: 4:34:43
