ITEM: TIMESTEP
0
ITEM: NUMBER OF ATOMS
99
ITEM: BOX BOUNDS pp pp pp
0.0000000000000000e+00 1.6524999999999999e+01
0.0000000000000000e+00 1.6526000000000000e+01
0.0000000000000000e+00 1.6526000000000000e+01
ITEM: ATOMS id type x y z 
1 1 1.813 1.813 1.813 
10 1 5.821 5.821 5.821 
17 1 3.388 3.388 3.388 
26 1 4.246 4.246 4.246 
33 1 0.284 2 2 
41 1 2 0.284 2 
49 1 2 2 0.283 
58 1 7.351 5.634 5.634 
66 1 5.634 7.351 5.634 
74 1 5.634 5.634 7.351 
81 1 2.689 2.689 2.689 
90 1 4.945 4.945 4.945 
4 1 1.813 1.813 14.084 
11 1 5.821 5.821 10.076 
20 1 3.388 3.388 12.509 
27 1 4.246 4.246 11.651 
36 1 0.284 2 13.897 
46 1 2 0.284 13.897 
56 1 2 2 15.614 
59 1 7.351 5.634 10.263 
69 1 5.634 7.351 10.263 
79 1 5.634 5.634 8.546 
84 1 2.689 2.689 13.208 
91 1 4.945 4.945 10.952 
97 2 3.734 4.018 13.663 
98 2 5.234 4.018 13.663 
99 3 5.626 3.303 14.218 
6 1 1.813 14.084 1.813 
13 1 5.821 10.076 5.821 
22 1 3.388 12.509 3.388 
29 1 4.246 11.651 4.246 
38 1 0.284 13.897 2 
48 1 2 15.614 2 
52 1 2 13.897 0.283 
61 1 7.351 10.263 5.634 
71 1 5.634 8.546 5.634 
75 1 5.634 10.263 7.351 
86 1 2.689 13.208 2.689 
93 1 4.945 10.952 4.945 
7 1 1.813 14.084 14.084 
16 1 5.821 10.076 10.076 
23 1 3.388 12.509 12.509 
32 1 4.246 11.651 11.651 
39 1 0.284 13.897 13.897 
43 1 2 15.614 13.897 
53 1 2 13.897 15.614 
64 1 7.351 10.263 10.263 
68 1 5.634 8.547 10.263 
78 1 5.634 10.263 8.546 
87 1 2.689 13.208 13.208 
96 1 4.945 10.952 10.952 
8 1 14.084 1.813 1.813 
15 1 10.076 5.821 5.821 
24 1 12.509 3.388 3.388 
31 1 11.651 4.246 4.246 
40 1 15.613 2 2 
44 1 13.897 0.284 2 
54 1 13.897 2 0.283 
63 1 8.547 5.634 5.634 
67 1 10.263 7.351 5.634 
77 1 10.263 5.634 7.351 
88 1 13.208 2.689 2.689 
95 1 10.952 4.945 4.945 
5 1 14.084 1.813 14.084 
14 1 10.076 5.821 10.076 
21 1 12.509 3.388 12.509 
30 1 11.651 4.246 11.651 
37 1 15.613 2 13.897 
47 1 13.897 0.284 13.897 
51 1 13.897 2 15.614 
62 1 8.546 5.634 10.263 
72 1 10.263 7.351 10.263 
76 1 10.263 5.634 8.546 
85 1 13.208 2.689 13.208 
94 1 10.952 4.945 10.952 
3 1 14.084 14.084 1.813 
12 1 10.076 10.076 5.821 
19 1 12.509 12.509 3.388 
28 1 11.651 11.651 4.246 
35 1 15.613 13.897 2 
45 1 13.897 15.614 2 
55 1 13.897 13.897 0.283 
60 1 8.547 10.263 5.634 
70 1 10.263 8.547 5.634 
80 1 10.263 10.263 7.351 
83 1 13.208 13.208 2.689 
92 1 10.952 10.952 4.945 
2 1 14.084 14.084 14.084 
9 1 10.076 10.076 10.076 
18 1 12.509 12.509 12.509 
25 1 11.651 11.651 11.651 
34 1 15.613 13.897 13.897 
42 1 13.897 15.614 13.897 
50 1 13.897 13.897 15.614 
57 1 8.546 10.263 10.263 
65 1 10.263 8.546 10.263 
73 1 10.263 10.263 8.547 
82 1 13.208 13.208 13.208 
89 1 10.952 10.952 10.952 
ITEM: TIMESTEP
10
ITEM: NUMBER OF ATOMS
99
ITEM: BOX BOUNDS pp pp pp
0.0000000000000000e+00 1.6524999999999999e+01
0.0000000000000000e+00 1.6526000000000000e+01
0.0000000000000000e+00 1.6526000000000000e+01
ITEM: ATOMS id type x y z 
1 1 1.8126 1.81251 1.81726 
10 1 5.82139 5.82154 5.8151 
17 1 3.38838 3.3887 3.38773 
26 1 4.2448 4.2448 4.24594 
33 1 0.283641 1.9992 1.99982 
41 1 1.99918 0.28327 1.99973 
49 1 1.99995 1.99997 0.287092 
58 1 7.35265 5.63467 5.63409 
66 1 5.63476 7.35356 5.63413 
74 1 5.63215 5.63209 7.34279 
81 1 2.68864 2.68809 2.6903 
90 1 4.94542 4.94527 4.94258 
4 1 1.81104 1.80675 14.0699 
11 1 5.84506 5.84428 10.0531 
20 1 3.39196 3.44448 12.6822 
27 1 4.25074 4.25227 11.6028 
36 1 0.271468 2.00466 13.8893 
46 1 2.00566 0.269497 13.8888 
56 1 2.00418 2.00339 15.6208 
59 1 7.36166 5.63633 10.2611 
69 1 5.63633 7.36075 10.2611 
79 1 5.63701 5.63706 8.53597 
84 1 2.63321 2.62952 13.2319 
91 1 4.9438 4.94281 10.9212 
97 2 3.7148 3.99592 13.578 
98 2 5.27643 4.02138 13.6916 
99 3 5.62373 3.30386 14.2173 
6 1 1.81336 14.0841 1.81373 
13 1 5.82132 10.0766 5.8205 
22 1 3.38836 12.509 3.38855 
29 1 4.24569 11.6509 4.24578 
38 1 0.283898 13.8978 1.99919 
48 1 1.99918 15.6128 1.99889 
52 1 1.99941 13.898 0.284469 
61 1 7.35092 10.262 5.63493 
71 1 5.63483 8.54623 5.63498 
75 1 5.6348 10.262 7.35031 
86 1 2.68946 13.2082 2.68924 
93 1 4.94518 10.9517 4.94471 
7 1 1.81248 14.0761 14.0853 
16 1 5.82138 10.0822 10.0752 
23 1 3.38917 12.5088 12.5081 
32 1 4.24502 11.6515 11.6517 
39 1 0.282358 13.8967 13.8975 
43 1 2.00098 15.6028 13.897 
53 1 1.99944 13.8967 15.6159 
64 1 7.35319 10.263 10.2623 
68 1 5.63204 8.55566 10.2649 
78 1 5.63467 10.263 8.54352 
87 1 2.6886 13.206 13.2082 
96 1 4.94528 10.9533 10.952 
8 1 14.0837 1.81298 1.8137 
15 1 10.0765 5.82139 5.82057 
24 1 12.509 3.38838 3.38868 
31 1 11.6508 4.24575 4.24574 
40 1 15.6122 1.99923 1.99899 
44 1 13.8977 0.283536 1.99913 
54 1 13.8978 1.99938 0.284458 
63 1 8.54767 5.63487 5.63503 
67 1 10.2621 7.35066 5.63497 
77 1 10.2621 5.63483 7.35049 
88 1 13.2081 2.68933 2.68906 
95 1 10.9517 4.94525 4.94487 
5 1 14.0764 1.81221 14.0851 
14 1 10.0819 5.82147 10.0756 
21 1 12.5091 3.38916 12.5079 
30 1 11.6511 4.24513 11.6518 
37 1 15.6035 2.00101 13.8972 
47 1 13.8967 0.282501 13.8976 
51 1 13.8966 1.99938 15.6153 
62 1 8.5543 5.63197 10.265 
72 1 10.263 7.35386 10.2624 
76 1 10.263 5.63459 8.5434 
85 1 13.2055 2.68845 13.2085 
94 1 10.9537 4.94525 10.9517 
3 1 14.0837 14.084 1.81297 
12 1 10.0758 10.076 5.82128 
19 1 12.5088 12.5086 3.38819 
28 1 11.651 11.6509 4.24607 
35 1 15.6129 13.8979 1.99911 
45 1 13.8978 15.6135 1.99906 
55 1 13.8979 13.898 0.283028 
60 1 8.54732 10.2619 5.63517 
70 1 10.262 8.54763 5.63513 
80 1 10.262 10.262 7.34986 
83 1 13.2078 13.2082 2.68905 
92 1 10.9518 10.952 4.94534 
2 1 14.0831 14.0837 14.0841 
9 1 10.0765 10.0764 10.0759 
18 1 12.5086 12.5088 12.5085 
25 1 11.6511 11.6513 11.6512 
34 1 15.6114 13.8979 13.8976 
42 1 13.8979 15.6121 13.8977 
50 1 13.8978 13.8979 15.6145 
57 1 8.54684 10.2621 10.2623 
65 1 10.262 8.54638 10.2622 
73 1 10.2621 10.2621 8.54661 
82 1 13.2078 13.2079 13.208 
89 1 10.9522 10.9514 10.952 
ITEM: TIMESTEP
16
ITEM: NUMBER OF ATOMS
99
ITEM: BOX BOUNDS pp pp pp
0.0000000000000000e+00 1.6524999999999999e+01
0.0000000000000000e+00 1.6526000000000000e+01
0.0000000000000000e+00 1.6526000000000000e+01
ITEM: ATOMS id type x y z 
1 1 1.81272 1.81235 1.81762 
10 1 5.82179 5.82123 5.81389 
17 1 3.38812 3.38799 3.38824 
26 1 4.24535 4.24508 4.24518 
33 1 0.28311 1.99917 2.0006 
41 1 1.99915 0.282752 2.00047 
49 1 2.00209 2.00207 0.285254 
58 1 7.35209 5.63488 5.63285 
66 1 5.63488 7.35188 5.63283 
74 1 5.6322 5.6323 7.34152 
81 1 2.6876 2.68767 2.69051 
90 1 4.94486 4.94534 4.94121 
4 1 1.81519 1.80845 14.0589 
11 1 5.83639 5.83541 10.0571 
20 1 3.38598 3.45088 12.6895 
27 1 4.24291 4.24605 11.5951 
36 1 0.268365 2.00216 13.8884 
46 1 2.00428 0.264999 13.8872 
56 1 2.00133 1.99981 15.6172 
59 1 7.35866 5.63912 10.2579 
69 1 5.63951 7.35861 10.2577 
79 1 5.64126 5.64102 8.53748 
84 1 2.62958 2.62829 13.2305 
91 1 4.93774 4.93583 10.9067 
97 2 3.72957 4.02788 13.6024 
98 2 5.29743 4.03122 13.7026 
99 3 5.62664 3.29679 14.2228 
6 1 1.81316 14.0833 1.81535 
13 1 5.82137 10.0772 5.8192 
22 1 3.38876 12.5088 3.38859 
29 1 4.24556 11.6509 4.24573 
38 1 0.28308 13.8979 1.99938 
48 1 1.99942 15.6133 1.99932 
52 1 1.99996 13.8979 0.286657 
61 1 7.35143 10.2622 5.6348 
71 1 5.63463 8.54778 5.63473 
75 1 5.63451 10.2624 7.34896 
86 1 2.68901 13.2078 2.68962 
93 1 4.94515 10.9525 4.94426 
7 1 1.81154 14.07 14.0865 
16 1 5.8218 10.0831 10.0753 
23 1 3.3897 12.5083 12.5073 
32 1 4.24598 11.6511 11.6513 
39 1 0.280633 13.8943 13.8974 
43 1 2.00462 15.5973 13.8935 
53 1 1.99961 13.8943 15.6173 
64 1 7.35212 10.2644 10.2622 
68 1 5.63185 8.55409 10.2654 
78 1 5.63475 10.2644 8.54476 
87 1 2.68835 13.2031 13.209 
96 1 4.94575 10.9548 10.9505 
8 1 14.0827 1.81284 1.81486 
15 1 10.0774 5.82139 5.81946 
24 1 12.5086 3.38866 3.38851 
31 1 11.6509 4.2455 4.24578 
40 1 15.6127 1.99941 1.99938 
44 1 13.8978 0.282724 1.99926 
54 1 13.8977 1.99974 0.286204 
63 1 8.54757 5.63463 5.63476 
67 1 10.2622 7.35155 5.63483 
77 1 10.2624 5.63454 7.34897 
88 1 13.2079 2.68898 2.68964 
95 1 10.9526 4.94537 4.94428 
5 1 14.0714 1.81165 14.0862 
14 1 10.0832 5.82172 10.0752 
21 1 12.5081 3.38954 12.5075 
30 1 11.6511 4.24591 11.6511 
37 1 15.5997 2.00434 13.894 
47 1 13.8946 0.280701 13.8976 
51 1 13.8945 1.99946 15.6168 
62 1 8.55459 5.63181 10.2656 
72 1 10.2643 7.3519 10.2623 
76 1 10.2643 5.63475 8.54485 
85 1 13.2034 2.68785 13.2093 
94 1 10.9554 4.94586 10.951 
3 1 14.0832 14.0839 1.81346 
12 1 10.077 10.0765 5.82077 
19 1 12.5086 12.5089 3.38804 
28 1 11.6519 11.6512 4.24589 
35 1 15.6126 13.898 1.99893 
45 1 13.8979 15.6132 1.99886 
55 1 13.8979 13.8981 0.284278 
60 1 8.54682 10.262 5.63516 
70 1 10.262 8.54676 5.63515 
80 1 10.262 10.262 7.35046 
83 1 13.208 13.2077 2.68943 
92 1 10.9512 10.9526 4.94452 
2 1 14.0814 14.0824 14.0843 
9 1 10.0776 10.0775 10.0759 
18 1 12.5085 12.5087 12.5081 
25 1 11.6513 11.651 11.6515 
34 1 15.6105 13.8976 13.897 
42 1 13.8975 15.6116 13.8972 
50 1 13.8975 13.8978 15.6146 
57 1 8.54784 10.2624 10.2626 
65 1 10.2624 8.54788 10.2626 
73 1 10.2622 10.2622 8.54577 
82 1 13.207 13.2074 13.2084 
89 1 10.9526 10.9526 10.9517 
ITEM: TIMESTEP
20
ITEM: NUMBER OF ATOMS
99
ITEM: BOX BOUNDS pp pp pp
0.0000000000000000e+00 1.6524999999999999e+01
0.0000000000000000e+00 1.6526000000000000e+01
0.0000000000000000e+00 1.6526000000000000e+01
ITEM: ATOMS id type x y z 
1 1 1.81233 1.81291 1.81395 
10 1 5.82082 5.82234 5.81339 
17 1 3.3865 3.387 3.3892 
26 1 4.24445 4.24557 4.24333 
33 1 0.284466 1.99898 2.00036 
41 1 1.99907 0.284185 2.00025 
49 1 2.00086 2.00069 0.282288 
58 1 7.35303 5.63466 5.63235 
66 1 5.63486 7.35321 5.63243 
74 1 5.63417 5.6341 7.34039 
81 1 2.68836 2.68723 2.68795 
90 1 4.94566 4.94364 4.942 
4 1 1.80938 1.80151 14.0599 
11 1 5.84073 5.83965 10.0516 
20 1 3.38593 3.46369 12.7153 
27 1 4.23486 4.23969 11.5932 
36 1 0.267668 2.00138 13.8865 
46 1 2.00463 0.263015 13.8847 
56 1 2.00051 1.99832 15.6148 
59 1 7.3593 5.63852 10.2576 
69 1 5.63908 7.35781 10.2572 
79 1 5.64149 5.64124 8.53606 
84 1 2.63638 2.63908 13.2259 
91 1 4.9273 4.92441 10.9043 
97 2 3.73041 4.03574 13.5994 
98 2 5.31376 4.03675 13.7116 
99 3 5.62754 3.29334 14.2254 
6 1 1.81332 14.084 1.81558 
13 1 5.81988 10.0762 5.82098 
22 1 3.389 12.508 3.38795 
29 1 4.24421 11.6502 4.2468 
38 1 0.283289 13.8977 1.99974 
48 1 1.99926 15.6138 2.00003 
52 1 2.00016 13.8971 0.286752 
61 1 7.35132 10.2622 5.63467 
71 1 5.63489 8.54704 5.63418 
75 1 5.63482 10.2628 7.34936 
86 1 2.68842 13.2089 2.69129 
93 1 4.94881 10.9533 4.94293 
7 1 1.81138 14.0697 14.0869 
16 1 5.82145 10.0814 10.0742 
23 1 3.39011 12.5075 12.5069 
32 1 4.24626 11.6524 11.6495 
39 1 0.280832 13.8928 13.8976 
43 1 2.00461 15.5956 13.893 
53 1 1.99964 13.8928 15.6177 
64 1 7.35318 10.2647 10.2623 
68 1 5.63382 8.55394 10.2639 
78 1 5.6348 10.2646 8.54357 
87 1 2.68758 13.2007 13.2102 
96 1 4.94739 10.953 10.9514 
8 1 14.0844 1.81391 1.81519 
15 1 10.0771 5.82196 5.81974 
24 1 12.5091 3.3901 3.38776 
31 1 11.6514 4.24686 4.24547 
40 1 15.6132 1.99923 1.99999 
44 1 13.8976 0.283024 1.99951 
54 1 13.8969 1.9999 0.286028 
63 1 8.54817 5.63496 5.63426 
67 1 10.2623 7.35081 5.63471 
77 1 10.2628 5.63479 7.34956 
88 1 13.2067 2.68612 2.69148 
95 1 10.9514 4.94411 4.94532 
5 1 14.072 1.8104 14.0855 
14 1 10.0828 5.82272 10.0748 
21 1 12.5074 3.38816 12.5061 
30 1 11.6542 4.24777 11.6502 
37 1 15.5989 2.00394 13.894 
47 1 13.8935 0.281699 13.8978 
51 1 13.8933 1.99941 15.6167 
62 1 8.55389 5.63366 10.2642 
72 1 10.2647 7.35376 10.2623 
76 1 10.2647 5.63477 8.54342 
85 1 13.2019 2.68966 13.2128 
94 1 10.951 4.94392 10.951 
3 1 14.0836 14.083 1.81429 
12 1 10.0753 10.0769 5.82019 
19 1 12.5097 12.5082 3.38881 
28 1 11.6501 11.6514 4.24544 
35 1 15.6127 13.8978 1.99918 
45 1 13.8976 15.6136 1.99916 
55 1 13.8976 13.8979 0.283731 
60 1 8.54744 10.2619 5.63521 
70 1 10.2621 8.54748 5.63509 
80 1 10.2621 10.2621 7.34985 
83 1 13.2061 13.2084 2.6887 
92 1 10.9534 10.9516 4.94572 
2 1 14.0811 14.0816 14.0854 
9 1 10.0768 10.0772 10.0753 
18 1 12.5079 12.5075 12.509 
25 1 11.6512 11.6517 11.6501 
34 1 15.6102 13.8967 13.8968 
42 1 13.8965 15.6115 13.8971 
50 1 13.8971 13.8975 15.615 
57 1 8.5476 10.2629 10.2623 
65 1 10.2628 8.54732 10.2623 
73 1 10.2623 10.2624 8.54621 
82 1 13.2072 13.2086 13.2068 
89 1 10.952 10.9505 10.9527 
ITEM: TIMESTEP
30
ITEM: NUMBER OF ATOMS
99
ITEM: BOX BOUNDS pp pp pp
0.0000000000000000e+00 1.6524999999999999e+01
0.0000000000000000e+00 1.6526000000000000e+01
0.0000000000000000e+00 1.6526000000000000e+01
ITEM: ATOMS id type x y z 
1 1 1.81492 1.81649 1.78816 
10 1 5.81879 5.82448 5.80652 
17 1 3.38335 3.37612 3.38483 
26 1 4.2408 4.23735 4.24047 
33 1 0.291607 1.99838 1.99191 
41 1 1.9987 0.290877 1.99275 
49 1 1.99178 1.988 0.248209 
58 1 7.35209 5.63402 5.62505 
66 1 5.63612 7.35112 5.62692 
74 1 5.64995 5.64855 7.33653 
81 1 2.68174 2.68842 2.67798 
90 1 4.93893 4.95174 4.92766 
4 1 1.80733 1.78591 14.018 
11 1 5.80911 5.80337 10.0527 
20 1 3.38534 3.57117 12.8128 
27 1 4.18226 4.21134 11.5757 
36 1 0.258012 1.98856 13.8671 
46 1 2.00594 0.241078 13.8578 
56 1 1.98355 1.97382 15.5785 
59 1 7.33682 5.63851 10.247 
69 1 5.64165 7.33371 10.2459 
79 1 5.65222 5.64942 8.53422 
84 1 2.63939 2.69048 13.2688 
91 1 4.86703 4.85729 10.8414 
97 2 3.78623 4.20398 13.6878 
98 2 5.49755 4.1049 13.8075 
99 3 5.6376 3.24958 14.2573 
6 1 1.80926 14.0889 1.82406 
13 1 5.81958 10.0739 5.82326 
22 1 3.38685 12.5072 3.3884 
29 1 4.25144 11.6505 4.24212 
38 1 0.282646 13.9002 2.00238 
48 1 1.99775 15.6204 2.00422 
52 1 2.00066 13.8917 0.295698 
61 1 7.35356 10.2626 5.63398 
71 1 5.63678 8.54854 5.63039 
75 1 5.63713 10.2661 7.3486 
86 1 2.68651 13.2107 2.69674 
93 1 4.94451 10.9538 4.94974 
7 1 1.80904 14.0487 14.0926 
16 1 5.82227 10.0657 10.0702 
23 1 3.39331 12.495 12.5085 
32 1 4.25289 11.6452 11.6459 
39 1 0.277498 13.8765 13.9002 
43 1 2.00426 15.5719 13.8831 
53 1 1.99899 13.8777 15.6246 
64 1 7.35141 10.265 10.2621 
68 1 5.64686 8.52821 10.252 
78 1 5.63759 10.2624 8.5457 
87 1 2.69164 13.1901 13.2093 
96 1 4.94915 10.9559 10.9336 
8 1 14.0908 1.81554 1.8208 
15 1 10.0776 5.82353 5.81886 
24 1 12.508 3.38235 3.3934 
31 1 11.649 4.24362 4.24472 
40 1 15.6197 1.997 2.00364 
44 1 13.8986 0.282599 2.00276 
54 1 13.8923 1.99834 0.294472 
63 1 8.54729 5.63462 5.62995 
67 1 10.2615 7.34978 5.63517 
77 1 10.2677 5.63482 7.35023 
88 1 13.2073 2.6902 2.68838 
95 1 10.96 4.95819 4.94 
5 1 14.0608 1.81037 14.0904 
14 1 10.0716 5.82389 10.074 
21 1 12.5005 3.3913 12.51 
30 1 11.6473 4.24612 11.6459 
37 1 15.5884 1.9985 13.8885 
47 1 13.8827 0.283175 13.9014 
51 1 13.8834 1.9997 15.6236 
62 1 8.53351 5.64473 10.2528 
72 1 10.2648 7.34857 10.2605 
76 1 10.2651 5.63578 8.54728 
85 1 13.1896 2.68259 13.208 
94 1 10.9608 4.96048 10.9474 
3 1 14.086 14.0813 1.81397 
12 1 10.0747 10.0758 5.81972 
19 1 12.5082 12.5077 3.38757 
28 1 11.6498 11.6526 4.24645 
35 1 15.6113 13.899 1.9995 
45 1 13.8958 15.6124 2.00048 
55 1 13.8948 13.8969 0.283927 
60 1 8.54924 10.2615 5.63548 
70 1 10.2635 8.54392 5.63421 
80 1 10.2637 10.2632 7.35149 
83 1 13.2171 13.2046 2.69512 
92 1 10.9449 10.9546 4.94058 
2 1 14.0772 14.081 14.0867 
9 1 10.0766 10.0764 10.0742 
18 1 12.5064 12.5077 12.5082 
25 1 11.6502 11.651 11.6493 
34 1 15.6059 13.8883 13.8968 
42 1 13.8881 15.613 13.8973 
50 1 13.8953 13.8966 15.6129 
57 1 8.54763 10.2677 10.2616 
65 1 10.2675 8.54624 10.2612 
73 1 10.2624 10.2627 8.54586 
82 1 13.2012 13.2043 13.2138 
89 1 10.956 10.9513 10.9454 
ITEM: TIMESTEP
40
ITEM: NUMBER OF ATOMS
99
ITEM: BOX BOUNDS pp pp pp
0.0000000000000000e+00 1.6524999999999999e+01
0.0000000000000000e+00 1.6526000000000000e+01
0.0000000000000000e+00 1.6526000000000000e+01
ITEM: ATOMS id type x y z 
1 1 1.81754 1.81809 1.76814 
10 1 5.82363 5.8233 5.79893 
17 1 3.37936 3.37831 3.37387 
26 1 4.23585 4.23872 4.23682 
33 1 0.292551 1.99881 1.98052 
41 1 1.99796 0.29315 1.98194 
49 1 1.98009 1.97082 0.229927 
58 1 7.35132 5.63562 5.62144 
66 1 5.63651 7.35292 5.62199 
74 1 5.65429 5.65212 7.3294 
81 1 2.6878 2.68694 2.66379 
90 1 4.93857 4.94011 4.93038 
4 1 1.81327 1.79374 13.9976 
11 1 5.79266 5.78099 10.047 
20 1 3.39263 3.62502 12.8593 
27 1 4.16757 4.2253 11.6069 
36 1 0.259598 1.98028 13.8553 
46 1 2.00648 0.23991 13.8409 
56 1 1.97266 1.95777 15.5601 
59 1 7.32398 5.627 10.2416 
69 1 5.63399 7.31342 10.2392 
79 1 5.64648 5.64103 8.52638 
84 1 2.65174 2.73982 13.3114 
91 1 4.85369 4.85508 10.8486 
97 2 3.80267 4.27498 13.7 
98 2 5.62042 4.12648 13.8797 
99 3 5.63268 3.24686 14.2637 
6 1 1.81214 14.093 1.82296 
13 1 5.82244 10.0772 5.82309 
22 1 3.38713 12.5104 3.39075 
29 1 4.24755 11.6529 4.24534 
38 1 0.282769 13.903 2.00428 
48 1 1.99765 15.6243 1.99848 
52 1 1.9972 13.8906 0.292938 
61 1 7.34975 10.262 5.63535 
71 1 5.63721 8.5485 5.62938 
75 1 5.63837 10.2631 7.35316 
86 1 2.68871 13.2132 2.69514 
93 1 4.94488 10.9508 4.94477 
7 1 1.81067 14.0465 14.0935 
16 1 5.82504 10.0445 10.0741 
23 1 3.39467 12.4898 12.5064 
32 1 4.25544 11.6428 11.6363 
39 1 0.278797 13.8713 13.9053 
43 1 1.99907 15.5721 13.8757 
53 1 1.99506 13.8757 15.6225 
64 1 7.34802 10.2537 10.2593 
68 1 5.64838 8.50921 10.2437 
78 1 5.6401 10.2523 8.54851 
87 1 2.69305 13.1783 13.2122 
96 1 4.95045 10.9342 10.9429 
8 1 14.0904 1.81294 1.82067 
15 1 10.0786 5.82108 5.82307 
24 1 12.5086 3.38532 3.39028 
31 1 11.653 4.24915 4.24431 
40 1 15.6233 1.9969 1.99735 
44 1 13.9011 0.280634 2.00379 
54 1 13.8928 1.99655 0.292067 
63 1 8.54757 5.63622 5.62883 
67 1 10.2621 7.34928 5.63557 
77 1 10.264 5.63708 7.35278 
88 1 13.212 2.68759 2.69484 
95 1 10.9525 4.94792 4.94396 
5 1 14.0605 1.81308 14.0917 
14 1 10.0532 5.82309 10.0747 
21 1 12.4955 3.39033 12.508 
30 1 11.6455 4.25512 11.644 
37 1 15.5896 1.98466 13.8842 
47 1 13.8788 0.282598 13.9048 
51 1 13.884 1.99746 15.6212 
62 1 8.51835 5.64481 10.2454 
72 1 10.2568 7.3502 10.2585 
76 1 10.257 5.63843 8.54891 
85 1 13.1878 2.68906 13.2079 
94 1 10.9396 4.95253 10.948 
3 1 14.0848 14.0835 1.81332 
12 1 10.0773 10.0752 5.81902 
19 1 12.5105 12.5083 3.38951 
28 1 11.6492 11.6522 4.24447 
35 1 15.6135 13.9007 2.00134 
45 1 13.8986 15.6132 2.00125 
55 1 13.8952 13.8978 0.284237 
60 1 8.54469 10.2619 5.63474 
70 1 10.2621 8.54767 5.63484 
80 1 10.2628 10.2626 7.34881 
83 1 13.2113 13.2071 2.68998 
92 1 10.9501 10.9538 4.94352 
2 1 14.0801 14.0823 14.0847 
9 1 10.0767 10.075 10.0746 
18 1 12.5058 12.5069 12.51 
25 1 11.6516 11.6506 11.6487 
34 1 15.6098 13.8846 13.9022 
42 1 13.8859 15.6136 13.9022 
50 1 13.8945 13.8971 15.6145 
57 1 8.54431 10.264 10.2593 
65 1 10.2636 8.54446 10.2586 
73 1 10.2624 10.2621 8.54602 
82 1 13.2027 13.2075 13.2104 
89 1 10.9516 10.9509 10.9492 
ITEM: TIMESTEP
50
ITEM: NUMBER OF ATOMS
99
ITEM: BOX BOUNDS pp pp pp
0.0000000000000000e+00 1.6524999999999999e+01
0.0000000000000000e+00 1.6526000000000000e+01
0.0000000000000000e+00 1.6526000000000000e+01
ITEM: ATOMS id type x y z 
1 1 1.81739 1.81756 1.76908 
10 1 5.82266 5.82292 5.79842 
17 1 3.37993 3.37928 3.37356 
26 1 4.23578 4.23811 4.23678 
33 1 0.292494 1.99889 1.97958 
41 1 1.99844 0.293159 1.98094 
49 1 1.97981 1.97059 0.229578 
58 1 7.35289 5.63578 5.62077 
66 1 5.63662 7.35278 5.62135 
74 1 5.65259 5.65031 7.3272 
81 1 2.6882 2.68772 2.66152 
90 1 4.93857 4.93998 4.92917 
4 1 1.81249 1.79318 13.9998 
11 1 5.79438 5.78274 10.0439 
20 1 3.39257 3.62841 12.8702 
27 1 4.17212 4.23064 11.6071 
36 1 0.259532 1.98011 13.8544 
46 1 2.00674 0.241748 13.84 
56 1 1.9727 1.95735 15.5606 
59 1 7.32152 5.62526 10.2416 
69 1 5.63287 7.31152 10.2392 
79 1 5.64476 5.63884 8.5265 
84 1 2.65217 2.73938 13.3085 
91 1 4.8537 4.85731 10.8553 
97 2 3.80158 4.27405 13.6965 
98 2 5.6262 4.12818 13.8826 
99 3 5.63119 3.24655 14.2639 
6 1 1.81318 14.0924 1.8213 
13 1 5.8211 10.0774 5.82255 
22 1 3.38726 12.5114 3.39102 
29 1 4.24684 11.6516 4.24543 
38 1 0.284222 13.9033 2.00441 
48 1 1.99765 15.6233 1.99736 
52 1 1.99627 13.8909 0.292618 
61 1 7.35047 10.2622 5.63555 
71 1 5.63701 8.54864 5.62955 
75 1 5.63838 10.2617 7.3531 
86 1 2.68888 13.2129 2.69456 
93 1 4.94552 10.9528 4.94546 
7 1 1.81061 14.0468 14.092 
16 1 5.82424 10.0443 10.0746 
23 1 3.39482 12.4895 12.5059 
32 1 4.2549 11.6408 11.6378 
39 1 0.2805 13.8722 13.9053 
43 1 1.99958 15.5735 13.8746 
53 1 1.99554 13.8769 15.6229 
64 1 7.34955 10.2521 10.2592 
68 1 5.64649 8.50896 10.244 
78 1 5.64006 10.2509 8.549 
87 1 2.69308 13.1787 13.2112 
96 1 4.95008 10.9333 10.9438 
8 1 14.0907 1.81187 1.82023 
15 1 10.0776 5.82135 5.82261 
24 1 12.51 3.38611 3.39055 
31 1 11.6525 4.24865 4.24427 
40 1 15.6214 1.99721 1.9959 
44 1 13.9014 0.28321 2.00355 
54 1 13.8936 1.99646 0.291031 
63 1 8.5486 5.63631 5.62922 
67 1 10.2622 7.35085 5.6359 
77 1 10.263 5.6373 7.35287 
88 1 13.2112 2.68771 2.69392 
95 1 10.9532 4.94672 4.94475 
5 1 14.0604 1.81203 14.0911 
14 1 10.0531 5.82373 10.0752 
21 1 12.4952 3.39085 12.5069 
30 1 11.6442 4.2548 11.6448 
37 1 15.5902 1.98468 13.8835 
47 1 13.8793 0.282977 13.905 
51 1 13.8847 1.99722 15.6215 
62 1 8.51944 5.64269 10.246 
72 1 10.2552 7.34935 10.2585 
76 1 10.2556 5.63838 8.54875 
85 1 13.1886 2.69033 13.2086 
94 1 10.9386 4.95058 10.9488 
3 1 14.084 14.0835 1.81324 
12 1 10.0756 10.076 5.81967 
19 1 12.5108 12.5082 3.3894 
28 1 11.649 11.6523 4.24473 
35 1 15.6132 13.9006 2.0014 
45 1 13.899 15.6129 2.00132 
55 1 13.8957 13.8977 0.283776 
60 1 8.54648 10.2616 5.6349 
70 1 10.2619 8.54605 5.63489 
80 1 10.2625 10.2622 7.34951 
83 1 13.2096 13.2074 2.68993 
92 1 10.951 10.9527 4.94395 
2 1 14.0801 14.0836 14.0848 
9 1 10.0753 10.0755 10.0741 
18 1 12.5056 12.5077 12.5103 
25 1 11.651 11.6503 11.6487 
34 1 15.609 13.8848 13.9029 
42 1 13.8865 15.6129 13.9028 
50 1 13.8945 13.8975 15.6141 
57 1 8.54521 10.2622 10.2592 
65 1 10.2624 8.54578 10.2585 
73 1 10.2622 10.2619 8.54491 
82 1 13.2039 13.207 13.2093 
89 1 10.9518 10.9508 10.95 
ITEM: TIMESTEP
60
ITEM: NUMBER OF ATOMS
99
ITEM: BOX BOUNDS pp pp pp
0.0000000000000000e+00 1.6524999999999999e+01
0.0000000000000000e+00 1.6526000000000000e+01
0.0000000000000000e+00 1.6526000000000000e+01
ITEM: ATOMS id type x y z 
1 1 1.81578 1.81463 1.77101 
10 1 5.82253 5.82164 5.78944 
17 1 3.38264 3.38539 3.36163 
26 1 4.23813 4.23738 4.2297 
33 1 0.289765 2.00032 1.97059 
41 1 2.00099 0.289159 1.97298 
49 1 1.97911 1.96809 0.231378 
58 1 7.35391 5.63693 5.61707 
66 1 5.63667 7.35375 5.61711 
74 1 5.63647 5.63148 7.31557 
81 1 2.68882 2.69007 2.65333 
90 1 4.93929 4.93831 4.92364 
4 1 1.81207 1.79599 14.001 
11 1 5.79403 5.7816 10.0332 
20 1 3.39207 3.63983 12.8943 
27 1 4.1919 4.26876 11.6546 
36 1 0.261197 1.9798 13.8481 
46 1 2.01004 0.249724 13.832 
56 1 1.97171 1.95528 15.5632 
59 1 7.31792 5.61051 10.239 
69 1 5.62294 7.307 10.2346 
79 1 5.62893 5.62013 8.51413 
84 1 2.65153 2.74124 13.3095 
91 1 4.86973 4.88901 10.8943 
97 2 3.80875 4.29723 13.7071 
98 2 5.68818 4.14126 13.9155 
99 3 5.61558 3.24798 14.2647 
6 1 1.81377 14.0882 1.81398 
13 1 5.82129 10.0787 5.82372 
22 1 3.38794 12.5128 3.39125 
29 1 4.2449 11.6539 4.24971 
38 1 0.284646 13.9045 2.00263 
48 1 2.00033 15.6189 1.98562 
52 1 1.99411 13.8949 0.284222 
61 1 7.34989 10.2622 5.63728 
71 1 5.63639 8.5489 5.62836 
75 1 5.63856 10.2493 7.35501 
86 1 2.69026 13.2138 2.69204 
93 1 4.94531 10.9559 4.94749 
7 1 1.81603 14.0567 14.0824 
16 1 5.82103 10.0371 10.0784 
23 1 3.39361 12.4862 12.504 
32 1 4.25129 11.6239 11.6491 
39 1 0.285308 13.8793 13.9059 
43 1 2.00465 15.5818 13.8629 
53 1 1.99606 13.8862 15.6149 
64 1 7.34848 10.2353 10.2588 
68 1 5.63107 8.50453 10.248 
78 1 5.63916 10.2371 8.55072 
87 1 2.69209 13.1824 13.2036 
96 1 4.94803 10.9201 10.953 
8 1 14.0872 1.81201 1.81429 
15 1 10.078 5.82127 5.82271 
24 1 12.514 3.39067 3.38965 
31 1 11.6532 4.24485 4.24839 
40 1 15.6186 2.00016 1.98435 
44 1 13.9037 0.284121 2.00194 
54 1 13.8984 1.99574 0.284702 
63 1 8.54987 5.6369 5.62857 
67 1 10.2621 7.35039 5.63734 
77 1 10.2531 5.63812 7.35475 
88 1 13.2111 2.68727 2.69189 
95 1 10.9545 4.94347 4.94723 
5 1 14.0636 1.81367 14.085 
14 1 10.0463 5.82038 10.0795 
21 1 12.4963 3.39496 12.5063 
30 1 11.6305 4.24694 11.6492 
37 1 15.5918 1.98435 13.874 
47 1 13.8825 0.282943 13.905 
51 1 13.8913 1.99628 15.6153 
62 1 8.51528 5.62349 10.2514 
72 1 10.241 7.34787 10.2591 
76 1 10.2434 5.63832 8.55009 
85 1 13.1914 2.69414 13.2078 
94 1 10.93 4.9483 10.9549 
3 1 14.0838 14.0848 1.81293 
12 1 10.0744 10.0748 5.81863 
19 1 12.5082 12.5104 3.38822 
28 1 11.6542 11.6495 4.24709 
35 1 15.6137 13.9026 2.00166 
45 1 13.9022 15.614 2.00083 
55 1 13.898 13.8993 0.282897 
60 1 8.54694 10.2612 5.63648 
70 1 10.2609 8.54619 5.63676 
80 1 10.2612 10.2614 7.35007 
83 1 13.2067 13.2095 2.68944 
92 1 10.9491 10.951 4.94089 
2 1 14.084 14.0839 14.0844 
9 1 10.0744 10.0763 10.0744 
18 1 12.5089 12.5081 12.5087 
25 1 11.6493 11.6499 11.6525 
34 1 15.6135 13.8884 13.9069 
42 1 13.8912 15.6124 13.9055 
50 1 13.8973 13.899 15.6143 
57 1 8.54415 10.2482 10.2586 
65 1 10.2517 8.54391 10.2588 
73 1 10.261 10.2612 8.54581 
82 1 13.2069 13.2096 13.2069 
89 1 10.9483 10.9535 10.9534 
ITEM: TIMESTEP
70
ITEM: NUMBER OF ATOMS
99
ITEM: BOX BOUNDS pp pp pp
0.0000000000000000e+00 1.6524999999999999e+01
0.0000000000000000e+00 1.6526000000000000e+01
0.0000000000000000e+00 1.6526000000000000e+01
ITEM: ATOMS id type x y z 
1 1 1.81581 1.81354 1.7647 
10 1 5.82115 5.82025 5.78879 
17 1 3.38337 3.38257 3.35725 
26 1 4.23972 4.24291 4.21722 
33 1 0.28959 1.99959 1.96915 
41 1 2.00039 0.287849 1.9707 
49 1 1.97806 1.96704 0.225902 
58 1 7.35155 5.63716 5.6157 
66 1 5.63689 7.35241 5.61644 
74 1 5.6333 5.62819 7.31541 
81 1 2.68761 2.6869 2.65164 
90 1 4.94138 4.94003 4.91476 
4 1 1.81589 1.8014 13.9953 
11 1 5.78775 5.77302 10.033 
20 1 3.4019 3.6615 12.9147 
27 1 4.19364 4.27907 11.6739 
36 1 0.263588 1.98543 13.8425 
46 1 2.0169 0.25234 13.8235 
56 1 1.9719 1.9572 15.5572 
59 1 7.31264 5.606 10.2369 
69 1 5.62045 7.30186 10.2312 
79 1 5.62227 5.61231 8.51209 
84 1 2.65856 2.76009 13.3316 
91 1 4.867 4.88896 10.9022 
97 2 3.81343 4.31113 13.7301 
98 2 5.73392 4.14895 13.941 
99 3 5.60119 3.2525 14.2646 
6 1 1.81467 14.0878 1.81085 
13 1 5.82041 10.0749 5.82377 
22 1 3.38784 12.5148 3.39217 
29 1 4.24597 11.6555 4.25056 
38 1 0.28611 13.9028 1.99917 
48 1 2.00034 15.6169 1.98478 
52 1 1.99767 13.8957 0.280896 
61 1 7.34929 10.2615 5.63771 
71 1 5.63721 8.54624 5.62581 
75 1 5.63694 10.2471 7.35582 
86 1 2.69079 13.2126 2.69066 
93 1 4.94358 10.9549 4.94847 
7 1 1.81645 14.0604 14.0788 
16 1 5.82002 10.0304 10.0791 
23 1 3.39301 12.4809 12.5076 
32 1 4.25091 11.6211 11.6484 
39 1 0.284637 13.8827 13.9014 
43 1 2.01037 15.5844 13.8551 
53 1 1.99818 13.888 15.6112 
64 1 7.34616 10.2309 10.2614 
68 1 5.63136 8.49794 10.2439 
78 1 5.63717 10.2333 8.55009 
87 1 2.69215 13.1774 13.2065 
96 1 4.94406 10.914 10.9527 
8 1 14.0898 1.81527 1.81229 
15 1 10.0768 5.82012 5.82592 
24 1 12.5123 3.38761 3.39019 
31 1 11.6543 4.24723 4.25016 
40 1 15.6183 1.99969 1.98359 
44 1 13.9022 0.285652 1.99956 
54 1 13.8963 1.99811 0.281469 
63 1 8.54681 5.63688 5.62579 
67 1 10.2617 7.34992 5.63809 
77 1 10.25 5.6373 7.3562 
88 1 13.214 2.69054 2.69293 
95 1 10.9549 4.94398 4.94871 
5 1 14.0665 1.81397 14.0817 
14 1 10.0405 5.81659 10.0779 
21 1 12.4885 3.39195 12.5092 
30 1 11.6308 4.25227 11.6507 
37 1 15.5939 1.98714 13.8689 
47 1 13.8846 0.28128 13.901 
51 1 13.8908 1.99753 15.612 
62 1 8.50885 5.62264 10.2485 
72 1 10.2363 7.34598 10.2617 
76 1 10.2391 5.63744 8.55144 
85 1 13.1873 2.6902 13.2059 
94 1 10.9279 4.94652 10.9517 
3 1 14.0843 14.0863 1.81445 
12 1 10.0774 10.0737 5.82256 
19 1 12.5085 12.5086 3.38694 
28 1 11.6494 11.6511 4.24475 
35 1 15.6139 13.9018 2.00019 
45 1 13.9009 15.615 2.00045 
55 1 13.8988 13.8992 0.285105 
60 1 8.54325 10.2622 5.63665 
70 1 10.2618 8.54426 5.6365 
80 1 10.2602 10.2608 7.35103 
83 1 13.2106 13.2063 2.6908 
92 1 10.951 10.9535 4.94693 
2 1 14.0849 14.0827 14.0847 
9 1 10.0739 10.0725 10.0747 
18 1 12.5065 12.5087 12.5095 
25 1 11.6478 11.6499 11.6505 
34 1 15.6138 13.8913 13.9029 
42 1 13.8915 15.6115 13.9026 
50 1 13.8983 13.8985 15.6157 
57 1 8.54145 10.246 10.2599 
65 1 10.2489 8.54158 10.2597 
73 1 10.2601 10.2602 8.54546 
82 1 13.207 13.2062 13.2081 
89 1 10.9503 10.9509 10.9511 
ITEM: TIMESTEP
80
ITEM: NUMBER OF ATOMS
99
ITEM: BOX BOUNDS pp pp pp
0.0000000000000000e+00 1.6524999999999999e+01
0.0000000000000000e+00 1.6526000000000000e+01
0.0000000000000000e+00 1.6526000000000000e+01
ITEM: ATOMS id type x y z 
1 1 1.81548 1.81196 1.76312 
10 1 5.81886 5.82017 5.78778 
17 1 3.38381 3.38335 3.35251 
26 1 4.23978 4.24338 4.2131 
33 1 0.289122 1.99868 1.96744 
41 1 1.99989 0.286232 1.96893 
49 1 1.97746 1.96648 0.2247 
58 1 7.35099 5.63655 5.61451 
66 1 5.63693 7.35078 5.61523 
74 1 5.63033 5.62422 7.31326 
81 1 2.68818 2.68622 2.64825 
90 1 4.94317 4.94039 4.90902 
4 1 1.81709 1.80362 13.9941 
11 1 5.78508 5.77122 10.0301 
20 1 3.40389 3.67149 12.9323 
27 1 4.1935 4.28313 11.6847 
36 1 0.263957 1.98731 13.8392 
46 1 2.0201 0.254266 13.8192 
56 1 1.97107 1.95654 15.5554 
59 1 7.31027 5.60364 10.2354 
69 1 5.61922 7.29798 10.2287 
79 1 5.61865 5.60868 8.51087 
84 1 2.66129 2.76745 13.3368 
91 1 4.86675 4.89112 10.9067 
97 2 3.81933 4.32282 13.7489 
98 2 5.76216 4.1518 13.9574 
99 3 5.59202 3.25774 14.264 
6 1 1.81421 14.0857 1.80849 
13 1 5.8202 10.0737 5.82254 
22 1 3.38775 12.5153 3.39271 
29 1 4.24593 11.6548 4.25016 
38 1 0.28617 13.9027 1.99689 
48 1 2.00032 15.6163 1.98276 
52 1 1.99834 13.8968 0.278582 
61 1 7.34863 10.2611 5.63868 
71 1 5.63731 8.54661 5.6259 
75 1 5.63658 10.2448 7.35508 
86 1 2.6916 13.2123 2.68895 
93 1 4.94348 10.9571 4.95115 
7 1 1.8171 14.0621 14.0772 
16 1 5.81817 10.0274 10.0789 
23 1 3.3908 12.4762 12.509 
32 1 4.24865 11.6164 11.65 
39 1 0.284964 13.8857 13.8995 
43 1 2.01271 15.5863 13.8514 
53 1 1.99856 13.8906 15.6084 
64 1 7.3448 10.2283 10.2613 
68 1 5.63043 8.49482 10.2423 
78 1 5.63647 10.2305 8.55087 
87 1 2.6947 13.1798 13.2062 
96 1 4.94448 10.9128 10.9527 
8 1 14.0878 1.81688 1.80896 
15 1 10.0758 5.81983 5.8241 
24 1 12.5148 3.38938 3.3909 
31 1 11.6559 4.24588 4.25089 
40 1 15.6181 1.99986 1.98201 
44 1 13.9025 0.285824 1.99796 
54 1 13.8971 1.99826 0.280447 