LAMMPS (3 Mar 2020)
# Alpha
clear
units		real
dimension 3
boundary        p p p
atom_style	charge
newton on
read_data       OH_8.lmp
  orthogonal box = (0 0 0) to (32.808 17.78 2.473)
  4 by 2 by 1 MPI processor grid
  reading atoms ...
  58 atoms
  read_data CPU = 0.0176096 secs

timestep 0.25

# ---------- Define Interatomic Potential ---------------------
pair_style      reax/c NULL checkqeq no
pair_coeff      * * ffield.reax C H O
WARNING: Changed valency_val to valency_boc for X (../reaxc_ffield.cpp:315)
fix             2 all qeq/reax 1 0.0 10.0 1.0e-6 reax/c

#------------ Equilibration of the system -------------------------
reset_timestep 0

dump 1 all custom 10 min.lammpstrj id type x y z

minimize 1.0e-8 1.0e-8 100000 100000
WARNING: Using 'neigh_modify every 1 delay 0 check yes' setting during minimization (../min.cpp:190)
Neighbor list info ...
  update every 1 steps, delay 0 steps, check yes
  max neighbors/atom: 2000, page size: 100000
  master list distance cutoff = 12
  ghost atom cutoff = 12
  binsize = 6, bins = 6 3 1
  2 neighbor lists, perpetual/occasional/extra = 2 0 0
  (1) pair reax/c, perpetual
      attributes: half, newton off, ghost
      pair build: half/bin/newtoff/ghost
      stencil: half/ghost/bin/3d/newtoff
      bin: standard
  (2) fix qeq/reax, perpetual, copy from (1)
      attributes: half, newton off, ghost
      pair build: copy
      stencil: none
      bin: none
Per MPI rank memory allocation (min/avg/max) = 28.7 | 28.9 | 29.09 Mbytes
Step Temp E_pair E_mol TotEng Press 
       0            0   -10830.632            0   -10830.632    606676.38 
     149            0   -11169.665            0   -11169.665    128533.63 
Loop time of 7.55327 on 8 procs for 149 steps with 58 atoms

99.1% CPU use with 8 MPI tasks x no OpenMP threads

Minimization stats:
  Stopping criterion = energy tolerance
  Energy initial, next-to-last, final = 
        -10830.6319482     -11169.6649142     -11169.6649851
  Force two-norm initial, final = 368.248 62.2836
  Force max component initial, final = 158.065 25.2963
  Final line search alpha, max atom move = 0.00121486 0.0307315
  Iterations, force evaluations = 149 796

MPI task timing breakdown:
Section |  min time  |  avg time  |  max time  |%varavg| %total
---------------------------------------------------------------
Pair    | 6.5608     | 6.7641     | 6.9431     |   4.8 | 89.55
Neigh   | 0          | 0          | 0          |   0.0 |  0.00
Comm    | 0.028236   | 0.2071     | 0.41048    |  27.1 |  2.74
Output  | 0.00046285 | 0.00058172 | 0.00087055 |   0.0 |  0.01
Modify  | 0.57178    | 0.57206    | 0.57242    |   0.0 |  7.57
Other   |            | 0.009441   |            |       |  0.12

Nlocal:    7.25 ave 11 max 3 min
Histogram: 2 0 2 0 0 0 0 1 0 3
Nghost:    1135.75 ave 1149 max 1121 min
Histogram: 2 0 2 0 0 0 0 2 0 2
Neighs:    2044.88 ave 3155 max 839 min
Histogram: 2 0 2 0 0 0 1 0 0 3

Total # of neighbors = 16359
Ave neighs/atom = 282.052
Neighbor list builds = 0
Dangerous builds = 0

###
min_style cg
minimize 1.0e-8 1.0e-8 100000 100000
WARNING: Using 'neigh_modify every 1 delay 0 check yes' setting during minimization (../min.cpp:190)
Per MPI rank memory allocation (min/avg/max) = 28.7 | 28.9 | 29.09 Mbytes
Step Temp E_pair E_mol TotEng Press 
     149            0   -11169.665            0   -11169.665    128533.63 
     429            0   -11195.637            0   -11195.637     112800.2 
Loop time of 16.0032 on 8 procs for 280 steps with 58 atoms

99.2% CPU use with 8 MPI tasks x no OpenMP threads

Minimization stats:
  Stopping criterion = energy tolerance
  Energy initial, next-to-last, final = 
        -11169.6649841     -11195.6371855      -11195.637202
  Force two-norm initial, final = 62.2836 29.8299
  Force max component initial, final = 25.2963 10.2313
  Final line search alpha, max atom move = 0.0029961 0.0306539
  Iterations, force evaluations = 280 1700

MPI task timing breakdown:
Section |  min time  |  avg time  |  max time  |%varavg| %total
---------------------------------------------------------------
Pair    | 13.717     | 14.347     | 14.72      |   7.9 | 89.65
Neigh   | 0          | 0          | 0          |   0.0 |  0.00
Comm    | 0.062298   | 0.43575    | 1.0656     |  45.3 |  2.72
Output  | 0.00087827 | 0.0010715  | 0.0015758  |   0.6 |  0.01
Modify  | 1.1999     | 1.2005     | 1.2014     |   0.0 |  7.50
Other   |            | 0.01924    |            |       |  0.12

Nlocal:    7.25 ave 12 max 2 min
Histogram: 1 0 1 0 2 0 2 0 0 2
Nghost:    1135.75 ave 1148 max 1124 min
Histogram: 2 1 1 0 0 0 0 2 0 2
Neighs:    2042.88 ave 3379 max 551 min
Histogram: 1 0 1 0 2 1 1 0 0 2

Total # of neighbors = 16343
Ave neighs/atom = 281.776
Neighbor list builds = 0
Dangerous builds = 0

###
fix 1 all box/relax aniso 0.0
min_style cg
minimize 1.0e-8 1.0e-8 100000 100000
WARNING: Using 'neigh_modify every 1 delay 0 check yes' setting during minimization (../min.cpp:190)
Per MPI rank memory allocation (min/avg/max) = 28.7 | 28.9 | 29.09 Mbytes
Step Temp E_pair E_mol TotEng Press Volume 
     429            0   -11195.637            0   -11195.637     112800.2    1442.5658 
    3703            0   -11239.173            0   -11239.173   -427.06629    1473.8475 
Loop time of 46.9432 on 8 procs for 3274 steps with 58 atoms

99.2% CPU use with 8 MPI tasks x no OpenMP threads

Minimization stats:
  Stopping criterion = energy tolerance
  Energy initial, next-to-last, final = 
         -11195.637202     -11239.1731151     -11239.1731784
  Force two-norm initial, final = 4459.07 19.8914
  Force max component initial, final = 3777.33 14.7013
  Final line search alpha, max atom move = 2.5452e-05 0.000374177
  Iterations, force evaluations = 3274 5150

MPI task timing breakdown:
Section |  min time  |  avg time  |  max time  |%varavg| %total
---------------------------------------------------------------
Pair    | 40.254     | 43.244     | 44.523     |  19.0 | 92.12
Neigh   | 0          | 0          | 0          |   0.0 |  0.00
Comm    | 0.14851    | 1.4263     | 4.4161     | 104.5 |  3.04
Output  | 0.0091865  | 0.012036   | 0.023032   |   3.9 |  0.03
Modify  | 2.0798     | 2.0815     | 2.0831     |   0.1 |  4.43
Other   |            | 0.179      |            |       |  0.38

Nlocal:    7.25 ave 12 max 2 min
Histogram: 1 0 0 1 2 1 1 0 0 2
Nghost:    1139.75 ave 1153 max 1128 min
Histogram: 3 0 1 0 0 0 0 2 0 2
Neighs:    2045.25 ave 3373 max 550 min
Histogram: 1 0 0 1 2 2 0 0 0 2

Total # of neighbors = 16362
Ave neighs/atom = 282.103
Neighbor list builds = 0
Dangerous builds = 0

unfix 1
###
min_style cg
minimize 1.0e-8 1.0e-8 100000 100000
WARNING: Using 'neigh_modify every 1 delay 0 check yes' setting during minimization (../min.cpp:190)
Per MPI rank memory allocation (min/avg/max) = 28.7 | 28.9 | 29.09 Mbytes
Step Temp E_pair E_mol TotEng Press 
    3703            0   -11239.173            0   -11239.173   -427.06532 
    3764            0   -11239.865            0   -11239.865     31283.57 
Loop time of 3.71362 on 8 procs for 61 steps with 58 atoms

99.0% CPU use with 8 MPI tasks x no OpenMP threads

Minimization stats:
  Stopping criterion = energy tolerance
  Energy initial, next-to-last, final = 
        -11239.1731781     -11239.8646508     -11239.8647047
  Force two-norm initial, final = 9.93001 21.5009
  Force max component initial, final = 2.75125 11.7924
  Final line search alpha, max atom move = 0.00474363 0.0559387
  Iterations, force evaluations = 61 391

MPI task timing breakdown:
Section |  min time  |  avg time  |  max time  |%varavg| %total
---------------------------------------------------------------
Pair    | 3.0818     | 3.3219     | 3.4309     |   5.5 | 89.45
Neigh   | 0          | 0          | 0          |   0.0 |  0.00
Comm    | 0.011129   | 0.12004    | 0.36009    |  29.2 |  3.23
Output  | 0.00017579 | 0.0002162  | 0.00032664 |   0.0 |  0.01
Modify  | 0.26677    | 0.26692    | 0.26705    |   0.0 |  7.19
Other   |            | 0.004564   |            |       |  0.12

Nlocal:    7.25 ave 12 max 3 min
Histogram: 1 2 1 0 0 0 1 1 1 1
Nghost:    1135.75 ave 1150 max 1122 min
Histogram: 2 0 2 0 0 0 0 2 0 2
Neighs:    2002.88 ave 3287 max 815 min
Histogram: 1 2 1 0 0 0 1 0 1 2

Total # of neighbors = 16023
Ave neighs/atom = 276.259
Neighbor list builds = 0
Dangerous builds = 0

###
fix 1 all box/relax aniso 0.0
min_style cg
minimize 1.0e-8 1.0e-8 100000 100000
WARNING: Using 'neigh_modify every 1 delay 0 check yes' setting during minimization (../min.cpp:190)
Per MPI rank memory allocation (min/avg/max) = 28.7 | 28.9 | 29.09 Mbytes
Step Temp E_pair E_mol TotEng Press Volume 
    3764            0   -11239.865            0   -11239.865    31283.575    1473.8475 
    3827            0   -11240.203            0   -11240.203    436.46606    1475.2686 
Loop time of 1.06841 on 8 procs for 63 steps with 58 atoms

99.0% CPU use with 8 MPI tasks x no OpenMP threads

Minimization stats:
  Stopping criterion = energy tolerance
  Energy initial, next-to-last, final = 
        -11239.8647035     -11240.2032909     -11240.2033901
  Force two-norm initial, final = 1224.53 20.7315
  Force max component initial, final = 974.38 14.4553
  Final line search alpha, max atom move = 9.34585e-06 0.000135097
  Iterations, force evaluations = 63 116

MPI task timing breakdown:
Section |  min time  |  avg time  |  max time  |%varavg| %total
---------------------------------------------------------------
Pair    | 0.91217    | 0.98135    | 1.0147     |   3.0 | 91.85
Neigh   | 0          | 0          | 0          |   0.0 |  0.00
Comm    | 0.0026995  | 0.035985   | 0.10515    |  15.9 |  3.37
Output  | 0.00016578 | 0.00020414 | 0.00031073 |   0.0 |  0.02
Modify  | 0.046914   | 0.046947   | 0.046983   |   0.0 |  4.39
Other   |            | 0.003923   |            |       |  0.37

Nlocal:    7.25 ave 12 max 3 min
Histogram: 2 1 1 0 0 0 1 0 2 1
Nghost:    1135.75 ave 1150 max 1121 min
Histogram: 2 0 2 0 0 0 0 2 0 2
Neighs:    2001.25 ave 3287 max 813 min
Histogram: 2 1 1 0 0 0 1 0 1 2

Total # of neighbors = 16010
Ave neighs/atom = 276.034
Neighbor list builds = 0
Dangerous builds = 0

unfix 1
###
min_style cg
minimize 1.0e-8 1.0e-8 100000 100000
WARNING: Using 'neigh_modify every 1 delay 0 check yes' setting during minimization (../min.cpp:190)
Per MPI rank memory allocation (min/avg/max) = 28.7 | 28.9 | 29.09 Mbytes
Step Temp E_pair E_mol TotEng Press 
    3827            0   -11240.203            0   -11240.203    436.46596 
    3840            0   -11240.408            0   -11240.408    18971.554 
Loop time of 0.860921 on 8 procs for 13 steps with 58 atoms

99.1% CPU use with 8 MPI tasks x no OpenMP threads

Minimization stats:
  Stopping criterion = energy tolerance
  Energy initial, next-to-last, final = 
        -11240.2033902     -11240.4081479     -11240.4081482
  Force two-norm initial, final = 8.67798 32.87
  Force max component initial, final = 2.30674 14.7139
  Final line search alpha, max atom move = 3.59815e-05 0.000529426
  Iterations, force evaluations = 13 90

MPI task timing breakdown:
Section |  min time  |  avg time  |  max time  |%varavg| %total
---------------------------------------------------------------
Pair    | 0.71226    | 0.76883    | 0.79522    |   2.8 | 89.30
Neigh   | 0          | 0          | 0          |   0.0 |  0.00
Comm    | 0.002523   | 0.028885   | 0.085426   |  14.3 |  3.36
Output  | 2.8573e-05 | 3.4842e-05 | 4.8591e-05 |   0.0 |  0.00
Modify  | 0.062052   | 0.062069   | 0.062089   |   0.0 |  7.21
Other   |            | 0.001104   |            |       |  0.13

Nlocal:    7.25 ave 12 max 3 min
Histogram: 2 1 1 0 0 0 1 0 2 1
Nghost:    1135.75 ave 1150 max 1121 min
Histogram: 2 0 2 0 0 0 0 2 0 2
Neighs:    1999.75 ave 3287 max 811 min
Histogram: 2 1 1 0 0 0 1 0 1 2

Total # of neighbors = 15998
Ave neighs/atom = 275.828
Neighbor list builds = 0
Dangerous builds = 0

undump 1
#############
#----------- Thermo ------------
reset_timestep 0
thermo  200

thermo_style    custom step temp etotal ke pe press
velocity all create 300 12345 mom yes rot yes
fix 1 all npt temp 300 300 25.0 iso 0.0 0.0 250.0

variable vpe equal pe
variable vtemp equal temp
variable vstep equal step

fix output all print 2500 "${vstep} ${vtemp} ${vpe}" file temp-tpdh-Pt.dat screen no

dump 1 all custom 2500 thermo-tpdh-Pt.lammpstrj id type x y z

run 1000000
Per MPI rank memory allocation (min/avg/max) = 27.57 | 27.77 | 27.96 Mbytes
Step Temp TotEng KinEng PotEng Press 
       0          300   -11189.436    50.971852   -11240.408    20550.957 
     200    195.33301   -11169.391    33.188284    -11202.58    85497.327 
     400    332.72524   -11139.198    56.532073    -11195.73    27160.313 
     600    260.38628   -11132.786    44.241236   -11177.027     2702.315 
     800    417.57417   -11123.218    70.948429   -11194.166     3165.517 
    1000     290.6645   -11142.422    49.385692   -11191.808     13558.69 
    1200    352.07472   -11133.463    59.819668   -11193.283   -2901.8847 
    1400     244.1077   -11152.603    41.475405   -11194.079    15107.523 
    1600    366.47147   -11137.394    62.265764    -11199.66    47879.455 
    1800    299.12272   -11142.578    50.822797   -11193.401    19808.953 
    2000    377.12406   -11120.151    64.075706   -11184.227   -9800.0817 
    2200    266.63635    -11134.79    45.303162   -11180.093   -5726.1996 
    2400    295.87659   -11134.542     50.27126   -11184.813    47240.803 
    2600    243.13092   -11146.603    41.309444   -11187.912    -26848.28 
    2800    324.30234   -11131.534    55.100969   -11186.635    85328.151 
    3000     256.3873   -11145.832    43.561785   -11189.394   -30623.461 
    3200     256.3659   -11155.137    43.558148   -11198.695    14905.674 
    3400     302.3738   -11139.038    51.375176   -11190.413   -46152.688 
    3600    339.97445   -11137.331    57.763758   -11195.094   -6018.2808 
    3800    215.60421   -11150.274    36.632486   -11186.907    1831.1421 
    4000    329.57901    -11131.61    55.997509   -11187.607    21099.096 
    4200     291.1834   -11140.663    49.473857   -11190.137   -1596.2887 
    4400    331.75581   -11142.612     56.36736   -11198.979   -31266.136 
    4600    230.43521   -11147.284    39.152365   -11186.437    2831.3827 
    4800    315.78378   -11135.949    53.653613   -11189.602     -20569.5 
    5000    329.18514   -11132.472    55.930588   -11188.403   -10343.098 
    5200    350.94912    -11124.57    59.628422   -11184.199    57082.002 
    5400    291.03385   -11134.447    49.448448   -11183.895    14410.682 
    5600    306.99082   -11139.797    52.159635   -11191.957     50791.21 
    5800     292.5518   -11145.193    49.706357   -11194.899    -28278.29 
    6000    308.45337   -11137.466    52.408131   -11189.874    40857.353 
    6200    333.39654   -11136.366     56.64613   -11193.012   -3278.4455 
    6400    321.88135   -11133.437    54.689628   -11188.127    63876.495 
    6600    295.46905   -11133.924    50.202016   -11184.126    28982.834 
    6800    257.67509   -11137.519    43.780589     -11181.3    22699.299 
    7000    239.45887   -11149.391     40.68554   -11190.077    48830.056 
    7200    320.61236    -11138.92    54.474019   -11193.394    46003.937 
    7400    277.19728   -11150.535    47.097529   -11197.632   -18321.395 
    7600    307.15932   -11140.149    52.188264   -11192.337    79765.445 
    7800    276.39615   -11135.741    46.961413   -11182.703    50077.662 
    8000    287.27015    -11143.03    48.808971   -11191.839   -912.40032 
    8200    319.39254   -11133.354    54.266764   -11187.621    7578.7422 
    8400    326.27867   -11134.138    55.436759   -11189.574    17602.287 
    8600    280.06931   -11135.294    47.585504    -11182.88   -27383.006 
    8800    280.04992   -11147.958     47.58221   -11195.541    24283.722 
    9000    293.55701   -11146.886    49.877148   -11196.763   -43098.054 
    9200    343.84251   -11132.057    58.420966   -11190.477    2417.0372 
    9400    309.18017   -11119.993    52.531619   -11172.525    21863.703 
    9600    275.58721   -11141.279    46.823968   -11188.103   -28421.278 
    9800    315.80266    -11130.14    53.656821   -11183.797   -36297.527 
   10000    389.58584   -11114.976    66.193039    -11181.17   -25129.817 
   10200    298.33752   -11133.737    50.689386   -11184.426    29069.551 
   10400    240.79268   -11146.933    40.912162   -11187.845   -27419.633 
   10600    359.01815   -11127.939      60.9994   -11188.939    10662.329 
   10800    297.80484   -11135.632    50.598881   -11186.231    -2180.419 
   11000    280.45295   -11142.959    47.650687    -11190.61    23035.584 
   11200    324.21182   -11125.152     55.08559   -11180.238    102722.21 
   11400    297.71967   -11126.852    50.584409   -11177.437    11222.762 
   11600    315.99531   -11138.516    53.689554   -11192.205   -27682.979 
   11800    275.09379   -11144.112    46.740132   -11190.853    1090.7514 
   12000    274.41747   -11137.735    46.625222    -11184.36    23304.026 
   12200    273.60111   -11135.067    46.486518   -11181.554   -43799.681 
   12400    329.57975   -11136.123    55.997634   -11192.121    53427.628 
   12600     251.5429   -11141.111    42.738691    -11183.85    11125.307 
   12800    302.86309   -11132.735    51.458309   -11184.193    12605.537 
   13000    357.51946   -11113.877    60.744763   -11174.622    13306.533 
   13200    286.99104     -11134.5    48.761549   -11183.262    -16886.76 
   13400     331.8222   -11130.281     56.37864    -11186.66   -49559.918 
   13600    294.30878   -11138.226    50.004878   -11188.231   -23920.822 
   13800    273.40531   -11143.311     46.45325   -11189.764   -8831.7652 
   14000    348.76398   -11131.626    59.257153   -11190.883    3708.6444 
   14200    318.25625   -11127.912    54.073702   -11181.985    38495.051 
   14400    259.98506   -11139.759    44.173066   -11183.932   -34536.963 
   14600    280.75481   -11141.772    47.701976   -11189.474    35907.278 
   14800    342.56792   -11125.806    58.204404   -11184.011   -42435.252 
   15000    326.72733   -11145.211    55.512989   -11200.724   -22591.269 
   15200    281.18249   -11147.943    47.774641   -11195.718   -29734.613 
   15400    344.73764   -11129.596    58.573054   -11188.169   -26435.396 
   15600    297.50638   -11139.744     50.54817   -11190.292    72649.235 
   15800    325.13799   -11126.163    55.242951   -11181.406    6957.8895 
   16000    275.36299   -11133.339    46.785872   -11180.125    -49047.74 
   16200    292.66364   -11137.136     49.72536   -11186.862   -40833.662 
   16400    274.03556   -11145.445    46.560333   -11192.006    44274.172 
   16600    327.39919   -11135.362    55.627143   -11190.989    -964.6556 
   16800    287.81545    -11134.65    48.901622   -11183.551   -75484.481 
   17000    282.79064   -11140.356    48.047875   -11188.404   -28168.573 
   17200    293.58015   -11137.717     49.88108   -11187.598   -22818.704 
   17400    284.49369   -11124.629    48.337234   -11172.966    24469.638 
   17600    271.11445   -11138.043    46.064019   -11184.107    -46761.27 
   17800    302.21924    -11137.84    51.348914   -11189.189    35692.634 
   18000      289.668   -11137.875    49.216382   -11187.091    -1949.131 
   18200    357.87355   -11132.286    60.804925   -11193.091   -46980.721 
   18400    257.52808   -11146.339     43.75561   -11190.094   -64465.177 
   18600    320.60119   -11142.856    54.472122   -11197.328    4142.7886 
   18800    284.79107   -11137.184    48.387761   -11185.571   -50628.837 
   19000    353.09388   -11124.391    59.992831   -11184.384   -7825.7907 
   19200    269.17345   -11137.331     45.73423   -11183.066    47852.508 
   19400     312.3584   -11137.315     53.07162   -11190.387    17158.756 
   19600    311.50887   -11141.282    52.927281   -11194.209    4823.1157 
   19800    324.51288   -11130.438    55.136742   -11185.575    56638.988 
   20000    257.39768   -11137.764    43.733455   -11181.497   -35625.733 
   20200    317.12943   -11132.171    53.882247   -11186.053    -44125.95 
   20400    335.54024   -11126.401    57.010357   -11183.411    30338.561 
   20600    291.40731   -11142.214    49.511901   -11191.725    10980.969 
   20800    284.90238   -11140.037    48.406673   -11188.444    24072.998 
   21000    300.54898   -11135.436    51.065128   -11186.501   -4967.4135 
   21200    289.50791   -11141.303    49.189181   -11190.492    4317.4524 
   21400    320.80395   -11124.762    54.506571   -11179.269   -14412.583 
   21600    266.38061   -11141.576    45.259709   -11186.836    19951.832 
   21800    272.08045   -11135.656    46.228147   -11181.884    3557.7282 
   22000    249.72918   -11134.231    42.430529   -11176.662    -28987.27 
   22200    302.14688   -11131.374     51.33662    -11182.71   -59945.746 
   22400    229.39497     -11145.6    38.975621   -11184.576   -21156.531 
   22600    323.33311   -11136.525    54.936292   -11191.462   -14443.803 
   22800    254.84547   -11156.675    43.299819   -11199.975   -603.15643 
   23000    315.14276   -11138.966      53.5447   -11192.511   -37871.158 
   23200    325.43737   -11133.477    55.293818   -11188.771   -15392.442 
   23400    263.01548   -11153.273    44.687954   -11197.961   -14350.857 
   23600    264.33655    -11139.38    44.912411   -11184.293    13125.165 
   23800    337.61668   -11132.196    57.363158   -11189.559   -27249.861 
   24000    305.72373   -11149.854    51.944348   -11201.798    12274.709 
   24200    308.95731   -11142.154    52.493754   -11194.647    18200.431 
   24400    304.15043   -11143.773    51.677036    -11195.45    31410.689 
   24600     333.5982   -11134.892    56.680393   -11191.573    -105.8407 
   24800    315.91385    -11128.56    53.675713   -11182.236   -42871.822 
   25000    248.59597    -11144.28     42.23799   -11186.518   -88.611095 
   25200    276.70071   -11141.626    47.013158   -11188.639    41088.306 
   25400    304.92386   -11125.273    51.808445   -11177.082    1411.2484 
   25600    273.77424   -11135.364    46.515934    -11181.88    6946.2263 
   25800    268.14305   -11135.947    45.559159   -11181.507    50406.676 
   26000    229.35504   -11146.246    38.968838   -11185.215   -18469.954 
   26200    275.07868   -11133.501    46.737565   -11180.239   -4759.9206 
   26400    303.80336   -11135.916    51.618067   -11187.534    39374.896 
   26600    282.38382   -11145.895    47.978753   -11193.873    10073.809 
   26800    231.89541   -11156.771    39.400461   -11196.172    -11347.35 
   27000    306.31974    -11135.76    52.045614   -11187.806    2214.0681 
   27200    299.01054    -11135.12    50.803737   -11185.924    4482.9759 
   27400    282.38059   -11141.267    47.978205   -11189.245   -31368.708 
   27600    285.89641    -11140.26    48.575566   -11188.836   -4737.6183 
   27800    339.98685   -11127.377    57.765865   -11185.143   -20705.136 
   28000    278.70471   -11141.506    47.353651   -11188.859   -24109.948 
   28200    276.14225    -11140.11    46.918274   -11187.028    23258.629 
   28400    339.63887   -11140.803    57.706741   -11198.509     12421.86 
   28600    288.55095   -11143.649    49.026587   -11192.676   -34426.528 
   28800     365.4921   -11126.837    62.099364   -11188.937   -18650.405 
   29000     333.1435   -11125.681    56.603137   -11182.284   -102322.76 
   29200      284.873   -11143.263    48.401681   -11191.665   -26368.952 
   29400    328.77747   -11129.296    55.861321   -11185.157   -35539.921 
   29600    284.17351   -11132.949    48.282834   -11181.232    29457.658 
   29800    297.03191   -11146.251    50.467555   -11196.719    -42768.75 
   30000    254.72084   -11143.627    43.278644   -11186.906    5311.7155 
   30200    311.12405   -11128.777    52.861897   -11181.639    2188.1158 
   30400    284.23355   -11142.692    48.293035   -11190.985   -7970.1343 
   30600    299.13993   -11134.564     50.82572    -11185.39    78259.629 
   30800     306.5054    -11136.69     52.07716   -11188.767     28156.81 
   31000    319.47475   -11135.566    54.280733   -11189.847   -43866.786 
   31200    247.56687   -11145.509    42.063139   -11187.572   -36782.034 
   31400    302.06795   -11131.973    51.323209   -11183.296   -2389.0409 
   31600    287.25722    -11137.59    48.806774   -11186.397    17725.232 
   31800    298.85366   -11139.205    50.777082   -11189.982    -27991.37 
   32000    297.43695   -11140.442    50.536373   -11190.979     -552.324 
   32200    289.88081   -11138.654    49.252539   -11187.906   -29253.466 
   32400    272.36468   -11146.693    46.276441   -11192.969    13529.642 
   32600    318.98336   -11132.646    54.197241   -11186.843    30313.608 
   32800     317.3698   -11131.623    53.923088   -11185.547    -25031.41 
   33000    275.09787   -11147.283    46.740826   -11194.024   -33287.163 
   33200    270.84726    -11148.99    46.018621   -11195.009   -32416.261 
   33400    296.31917   -11139.105    50.346455   -11189.451    37999.326 
   33600     350.5977   -11132.856    59.568713   -11192.425   -19234.745 
   33800    274.13311   -11150.824    46.576908   -11197.401    18285.434 
   34000    309.20983   -11135.714    52.536659   -11188.251   -677.54042 
   34200     239.3193   -11152.638    40.661826     -11193.3   -37567.753 
   34400    294.62678   -11141.864    50.058908   -11191.923   -23615.525 
   34600    327.99987   -11135.914    55.729202   -11191.643    35925.569 
   34800    245.34814   -11151.549    41.686163   -11193.235    941.32443 
   35000    261.73047    -11136.75    44.469622    -11181.22    25582.654 
   35200    322.32572   -11140.536     54.76513   -11195.301    31112.097 
   35400    327.41653   -11150.384    55.630089   -11206.014    22696.368 
   35600    331.58395    -11129.89    56.338161   -11186.229   -14296.022 
   35800    266.97097   -11143.178    45.360016   -11188.538    23166.657 
   36000     221.2577   -11148.167    37.593048   -11185.761   -52157.621 
   36200    278.53271   -11138.955    47.324427   -11186.279    23203.448 
   36400     318.4949   -11129.782     54.11425   -11183.896   -67619.056 
   36600    320.71565   -11150.777    54.491568   -11205.269    55734.778 
   36800    287.61531   -11143.016    48.867616   -11191.883   -620.28044 
   37000    297.41694   -11132.137    50.532974    -11182.67   -24197.503 
   37200    287.94243   -11143.141    48.923197   -11192.064    8278.6136 
   37400    308.77107   -11140.496    52.462111   -11192.958    43355.209 
   37600    374.99703   -11129.568     63.71431   -11193.283    -27956.85 
   37800    298.79143   -11136.527    50.766509   -11187.294    6024.6077 
   38000    347.91645   -11123.824    59.113153   -11182.937   -35122.952 
   38200    309.90038   -11118.013    52.653987   -11170.667    50096.276 
   38400    297.23123   -11138.709    50.501421   -11189.211    5457.8519 
   38600    347.97544   -11141.598    59.123176   -11200.721    -44890.11 
   38800    251.36034   -11155.005    42.707673   -11197.713   -14720.072 
   39000     359.7429   -11138.837    61.122539    -11199.96   -1916.2221 
   39200    306.31049   -11140.073    52.044043   -11192.117    17468.547 
   39400     283.9699   -11152.617    48.248239   -11200.865   -13711.015 
   39600    273.62306   -11147.975    46.490247   -11194.465    5797.8453 
   39800     311.4816   -11129.962    52.922647   -11182.885    37527.751 
   40000    282.80438   -11143.964     48.05021   -11192.014     54856.18 
   40200    291.83418   -11142.972    49.584429   -11192.557    48569.608 
   40400     322.2999   -11133.733    54.760742   -11188.494    46902.035 
   40600    282.27378   -11135.377    47.960058   -11183.337    1735.1383 
   40800    288.14169    -11138.54    48.957051   -11187.497   -5762.9331 
   41000    263.00569   -11148.671     44.68629   -11193.357   -17962.069 
   41200    259.75777   -11145.957    44.134449   -11190.091    15674.526 
   41400    314.34764   -11135.535    53.409604   -11188.944    176.50242 
   41600    273.24793   -11152.271     46.42651   -11198.697   -23126.476 
   41800    332.78715   -11131.497     56.54259    -11188.04    41541.681 
   42000    295.27549   -11136.711    50.169129    -11186.88   -15716.934 
   42200    263.16197   -11144.135    44.712842   -11188.847   -16462.946 
   42400    314.02231    -11130.77     53.35433   -11184.124    1363.9155 
   42600     303.6376   -11127.061    51.589903   -11178.651    631.48974 
   42800    264.12164   -11147.144    44.875897   -11192.019   -11530.574 
   43000    317.43905   -11136.163    53.934853   -11190.098   -23822.916 
   43200    335.46529   -11131.117    56.997623   -11188.114    9421.5279 
   43400    323.67156   -11137.798    54.993796   -11192.792    88265.756 
   43600    254.35882   -11147.188    43.217134   -11190.406   -6654.1615 
   43800    224.01055    -11154.86    38.060775    -11192.92   -9088.9054 
   44000     303.0782   -11136.228    51.494858   -11187.723    -13210.16 
   44200    329.45413   -11130.162     55.97629   -11186.139   -39311.738 
   44400     286.3436   -11146.649    48.651545     -11195.3   -30217.108 
   44600    335.93186   -11135.867    57.076897   -11192.944   -53800.262 
   44800    292.84501   -11133.622    49.756174   -11183.378    31557.554 
   45000    258.97874   -11143.324    44.002087   -11187.326    47271.924 
   45200    277.58832   -11144.655    47.163968   -11191.819   -4369.6273 
   45400    301.22414   -11126.955     51.17984   -11178.135   -24390.615 
   45600    295.76143   -11142.529    50.251692   -11192.781   -49001.714 
   45800    298.95872   -11142.519    50.794932   -11193.314    43145.323 
   46000    313.90089   -11126.159    53.333699   -11179.493   -46462.792 
   46200    285.05833   -11139.699     48.43317   -11188.132    31065.114 
   46400    285.05955   -11147.244    48.433377   -11195.677   -8207.7353 
   46600    291.85296   -11129.512    49.587619   -11179.099   -50923.383 
   46800    335.43681   -11133.182    56.992785   -11190.175   -10249.342 
   47000    301.81669     -11137.9    51.280519   -11189.181   -6330.2772 
   47200    294.56255   -11128.108    50.047995   -11178.156   -20259.899 
   47400    311.67587   -11122.068    52.955655   -11175.024    8513.0784 
   47600    272.30592   -11135.613    46.266458   -11181.879    5283.2645 
   47800    229.46395       -11152    38.987342   -11190.987   -11095.587 
   48000    280.21965   -11129.585    47.611048   -11177.196    27711.686 
   48200    310.51609   -11140.519      52.7586   -11193.278    6607.2849 
   48400    285.62482   -11141.407    48.529419   -11189.936    39144.329 
   48600    340.57739   -11125.028    57.866201   -11182.894    1916.1234 
   48800    329.64973   -11140.658    56.009524   -11196.668   -30348.381 
   49000     288.9976   -11144.125    49.102476   -11193.227   -8994.9544 
   49200    384.33234   -11123.211    65.300438   -11188.512     17409.75 
   49400    332.69442   -11135.676    56.526836   -11192.203   -30185.407 
   49600    318.64326   -11135.958    54.139457   -11190.097    24736.294 
   49800    315.33123   -11138.459    53.576722   -11192.036   -13302.808 
   50000    273.88964   -11149.225     46.53554   -11195.761   -23968.238 
   50200    309.09268   -11129.065    52.516754   -11181.582   -12950.278 
   50400    272.99079   -11140.626     46.38282   -11187.009    24399.671 
   50600    292.55849   -11140.046    49.707494   -11189.753    -39200.28 
   50800    305.01523   -11125.419     51.82397   -11177.243    27321.805 
   51000    326.94816     -11142.3     55.55051    -11197.85   -24280.135 
   51200    307.93294   -11140.966    52.319708   -11193.285   -15868.443 
   51400    330.05589   -11121.883    56.078533   -11177.962   -17121.289 
   51600    309.40386   -11137.169    52.569626   -11189.739    49567.093 
   51800    287.53393   -11136.929     48.85379   -11185.783    26493.648 
   52000    323.43929   -11121.075    54.954332   -11176.029    -10430.72 
   52200    259.54292   -11135.122    44.097945    -11179.22     6989.284 
   52400    265.53436   -11139.874    45.115927    -11184.99    66029.893 
   52600    278.72327   -11136.019    47.356804   -11183.376    18911.004 
   52800    247.72305   -11147.008    42.089676   -11189.097   -27026.257 
   53000     323.2103   -11132.835    54.915424   -11187.751    -23291.45 
   53200     336.2278   -11136.554     57.12718   -11193.681   -16750.974 
   53400    297.70849    -11150.17     50.58251   -11200.753   -25128.575 
   53600    336.91765   -11132.454    57.244388   -11189.698    60805.031 
   53800    322.91125   -11137.495    54.864615   -11192.359    6633.7639 
   54000    281.15024   -11145.925    47.769161   -11193.694    31002.518 
   54200    287.40982    -11136.88    48.832703   -11185.713    73570.152 
   54400    319.16258   -11127.941    54.227692   -11182.169   -70451.918 
   54600    274.62088   -11134.396    46.659782   -11181.056    19417.543 
   54800    264.43374   -11132.771    44.928925     -11177.7   -426.32561 
   55000     316.6997    -11123.84    53.809234    -11177.65    23687.285 
   55200    276.05148   -11139.335    46.902851   -11186.238   -8871.2873 
   55400    307.63213   -11139.898    52.268597   -11192.166   -17587.992 
   55600    324.56884   -11125.149    55.146249   -11180.295   -29550.882 
   55800    257.00351    -11139.02    43.666482   -11182.687   -89174.326 
   56000    243.28774   -11142.024    41.336089    -11183.36    49119.021 
   56200    309.73753    -11130.56    52.626318   -11183.186    17704.218 
   56400    232.24651   -11138.316    39.460115   -11177.776    44798.755 
   56600    330.83452   -11117.926    56.210827   -11174.137   -20776.928 
   56800    332.51805   -11126.655    56.496869   -11183.152   -71630.607 
   57000    305.18727   -11135.582    51.853202   -11187.435    76712.433 
   57200    247.20053   -11147.023    42.000896   -11189.024   -70609.859 
   57400    323.53756   -11140.695    54.971028   -11195.666    10245.329 
   57600    304.46796   -11135.644    51.730986   -11187.375   -16996.346 
   57800     288.6664   -11145.165    49.046203   -11194.211    35012.281 
   58000    250.38193   -11157.556    42.541435   -11200.098   -65212.821 
   58200    318.63958   -11139.516    54.138832   -11193.654    25141.536 
   58400    310.36264   -11131.284    52.732528   -11184.016    12372.888 
   58600    370.77105   -11120.574     62.99629    -11183.57   -13346.069 
   58800    281.85194   -11135.737    47.888384   -11183.626    8118.1104 
   59000    324.51715   -11131.199    55.137467   -11186.337    8981.2675 
   59200    264.21388    -11141.21    44.891569   -11186.102    39806.826 
   59400    321.54989   -11121.628    54.633311   -11176.262   -16513.201 
   59600    353.71794   -11129.282    60.098862   -11189.381   -10716.313 
   59800    301.58426   -11140.322    51.241027   -11191.563   -12337.909 
   60000    293.60127   -11141.215    49.884668   -11191.099   -607.74786 
   60200    287.93146   -11129.243    48.921333   -11178.165    24003.684 
   60400    321.75106   -11128.804    54.667492   -11183.471   -43.797433 
   60600    271.48826   -11147.404    46.127532   -11193.532    12668.007 
   60800    271.34626   -11134.396    46.103404     -11180.5    83843.131 
   61000    298.25896    -11130.57    50.676038   -11181.246      30943.2 
   61200    231.78826   -11142.134    39.382257   -11181.516   -6562.5309 
   61400    345.72161   -11122.733    58.740236   -11181.473    26341.127 
   61600    316.86443   -11138.526    53.837222   -11192.363    40235.658 
   61800     296.8588   -11135.583    50.438143   -11186.021    27730.401 
   62000    255.47682   -11149.031    43.407089   -11192.439     16550.86 
   62200     292.5897   -11143.862    49.712795   -11193.575   -1290.2678 
   62400     311.2566   -11135.046    52.884418    -11187.93   -20645.346 
   62600    315.52579   -11137.559     53.60978   -11191.168    22515.078 
   62800    296.20233   -11146.777    50.326605   -11197.103   -28454.338 
   63000    328.81175   -11128.656    55.867146   -11184.523   -51126.775 
   63200    303.87164   -11138.325    51.629668   -11189.954    12568.171 
   63400     305.1274   -11145.901     51.84303   -11197.744   -39434.848 
   63600    326.42195   -11144.561    55.461105   -11200.022    72359.144 
   63800    334.77596   -11133.251    56.880503   -11190.131   -208.39005 
   64000     318.8641   -11140.071    54.176979   -11194.248   -8266.7525 
   64200    257.01323   -11148.641    43.668135   -11192.309    3642.0407 
   64400     327.7607   -11133.553    55.688566   -11189.241    13394.196 
   64600    277.94199   -11137.652    47.224059   -11184.876   -11727.226 
   64800    286.79314   -11152.495    48.727924   -11201.223   -22732.163 
   65000    298.20228   -11145.543    50.666408    -11196.21    19414.467 
   65200    265.18674   -11134.904    45.056865    -11179.96   -18572.313 
   65400    233.76421   -11146.062    39.717983    -11185.78    3559.5588 
   65600    301.57381   -11144.381    51.239252   -11195.621   -14261.587 
   65800    344.61221   -11133.251    58.551742   -11191.803    27648.596 
   66000     265.2388   -11148.103    45.065709   -11193.169    83636.491 
   66200    268.54526   -11138.773    45.627497     -11184.4    21758.207 
   66400    309.03764   -11134.552    52.507402    -11187.06   -8721.7709 
   66600    272.93745   -11146.835    46.373757   -11193.209   -8277.9398 
   66800    293.76179   -11122.737    49.911941   -11172.649   -18405.233 
   67000    305.38271    -11133.89    51.886407   -11185.776   -21171.169 
   67200    254.21373   -11147.171    43.192481   -11190.363   -18542.583 
   67400    311.51394   -11130.154    52.928142   -11183.082   -15677.356 
   67600    326.95615   -11140.106    55.551868   -11195.658   -24720.971 
   67800    327.74458   -11137.261    55.685827   -11192.947   -41015.865 
   68000    239.76906   -11147.413    40.738243   -11188.151   -924.92337 
   68200     322.1062   -11134.725    54.727833   -11189.453   -65444.545 
   68400    290.65357   -11135.473    49.383835   -11184.857   -23651.254 
   68600    288.23227   -11154.553    48.972442   -11203.526   -16270.287 
   68800    285.24642   -11142.645    48.465128    -11191.11    19797.747 
   69000    373.21345   -11132.142    63.411269   -11195.554    6743.5705 
   69200    318.60324   -11140.852    54.132658   -11194.985    10593.351 
   69400      229.626   -11155.241    39.014875   -11194.256   -68210.461 
   69600    289.40594   -11131.724    49.171856   -11180.896   -37616.004 
   69800    288.70869   -11138.392    49.053388   -11187.445    23020.829 
   70000    283.08198   -11145.996    48.097375   -11194.094   -4801.1983 
   70200    367.09973   -11121.682     62.37251   -11184.055   -36501.884 
   70400    277.51618   -11140.609    47.151711   -11187.761    80595.691 
   70600    266.51759   -11143.741    45.282984   -11189.024   -10195.212 
   70800    306.65023   -11127.813    52.101768   -11179.915   -26644.758 
   71000    300.08136   -11138.962    50.985675   -11189.948   -19493.652 
   71200     230.5536   -11158.006    39.172479   -11197.179   -25224.198 
   71400    245.66455   -11148.336    41.739923   -11190.076   -8200.1932 
   71600    302.22207   -11136.305    51.349396   -11187.655   -12940.027 
   71800    375.20475    -11125.89    63.749603   -11189.639   -42118.257 
   72000    267.16149   -11151.083    45.392386   -11196.476    2064.5627 
   72200    330.60668   -11133.509    56.172116   -11189.682    41576.203 
   72400    283.94724   -11137.938    48.244388   -11186.182   -23807.741 
   72600    307.12193   -11144.449    52.181912   -11196.631    55237.231 
   72800    318.15652   -11129.287    54.056756   -11183.344     -13516.3 
   73000    315.89404   -11137.167    53.672347   -11190.839    -41487.72 
   73200     312.5056   -11148.375    53.096631   -11201.471    5298.7759 
   73400    391.40058    -11133.19    66.501374   -11199.691    41988.263 
   73600    284.97688   -11140.478    48.419331   -11188.897     6238.671 
   73800     299.7671   -11132.632    50.932281   -11183.565   -13838.838 
   74000    328.05887   -11133.653    55.739227   -11189.392    5879.4328 
   74200    290.21515   -11143.955    49.309346   -11193.264    -6300.313 
   74400    335.06023   -11130.914    56.928801   -11187.843    -50255.69 
   74600    379.49109   -11125.083    64.477878   -11189.561   -47654.191 
   74800    311.02672   -11138.666     52.84536   -11191.511    21600.171 
   75000    340.66262   -11130.533    57.880681   -11188.414    18137.463 
   75200    350.87693   -11122.877    59.616156   -11182.493   -42637.139 
   75400    281.47637   -11141.884    47.824573   -11189.708   -40285.436 
   75600     277.5527   -11138.248    47.157917   -11185.406   -18373.526 
   75800    340.14415    -11124.69     57.79259   -11182.483    29764.823 
   76000    260.28219   -11141.823    44.223551   -11186.046   -8896.0339 
   76200     310.6216   -11137.554    52.776527   -11190.331    36287.693 
   76400     342.5541   -11120.782    58.202056   -11178.984    11933.335 
   76600     315.2096   -11139.333    53.556056   -11192.889    10810.402 
   76800     296.4462   -11144.024    50.368039   -11194.392   -7280.1704 
   77000    370.28232   -11124.957    62.913253    -11187.87    34354.249 
   77200    311.83482   -11137.723    52.982661   -11190.705   -27139.215 
   77400    316.18752   -11137.583    53.722211   -11191.305    -27723.35 
   77600    279.58245   -11139.825    47.502785   -11187.328    8031.7745 
   77800    289.11849    -11138.08    49.123016   -11187.203   -1556.0342 
   78000    307.65157   -11130.983    52.271901   -11183.255    -7007.371 
   78200    269.89775   -11143.278    45.857293   -11189.135    -6180.262 
   78400    276.29619   -11146.388    46.944428   -11193.332    64727.903 
   78600    346.75042    -11128.83    58.915036   -11187.745    34299.377 
   78800    292.98897   -11142.958    49.780635   -11192.738    38864.213 
   79000    342.82113   -11133.408    58.247426   -11191.656    15844.681 
   79200     301.5493   -11133.367    51.235088   -11184.602   -9368.3924 
   79400    274.71879   -11138.765    46.676418   -11185.441    4867.2442 
   79600    285.04385    -11148.45    48.430709    -11196.88    12324.526 
   79800     262.5667   -11147.114    44.611703   -11191.726   -47844.007 
   80000    298.81202   -11137.135    50.770007   -11187.905   -20148.914 
   80200    287.66945   -11138.856    48.876815   -11187.732    5151.7547 
   80400    259.20361   -11152.844    44.040294   -11196.884   -19251.197 
   80600    267.22596    -11136.06    45.403341   -11181.463    59776.985 
   80800    276.15765    -11135.38     46.92089   -11182.301   -2504.4735 
   81000    316.80189   -11135.392    53.826597   -11189.218   -15274.892 
   81200     234.4677   -11147.339     39.83751   -11187.177   -5461.4701 
   81400    317.90525    -11129.73    54.014064   -11183.744    66715.165 
   81600    296.80232   -11137.404    50.428546   -11187.832   -40390.936 
   81800    313.96596    -11139.39    53.344755   -11192.735    14885.808 
   82000    261.34749   -11140.855    44.404552    -11185.26   -23264.555 
   82200    330.68761   -11121.299    56.185866   -11177.485    8750.1851 
   82400     297.6785   -11135.512    50.577415    -11186.09    37422.477 
   82600    261.68888   -11140.113    44.462556   -11184.576    53573.313 
   82800    286.97106   -11141.827    48.758155   -11190.585   -26222.663 
   83000    347.50322   -11124.616    59.042943   -11183.659    33215.934 
   83200    294.48359   -11139.914    50.034579   -11189.949    37984.555 
   83400    258.36439   -11137.405    43.897704   -11181.302    32617.938 
   83600    330.55501   -11136.398    56.163337   -11192.562   -3217.1556 
   83800    264.36752   -11157.086    44.917674   -11202.004   -10826.304 
   84000    257.83192   -11143.577    43.807235   -11187.384     10327.62 
   84200    289.88339   -11132.026    49.252977   -11181.279    43778.141 
   84400    262.55258   -11137.302    44.609304   -11181.911   -172.52504 
   84600    312.16342   -11139.654    53.038492   -11192.693    28323.369 
   84800    325.79726   -11141.606    55.354966   -11196.961   -59704.244 
   85000    287.01973   -11148.682    48.766425   -11197.448   -863.82879 
   85200    270.77949   -11131.108    46.007107   -11177.115   -4008.6599 
   85400    281.95401   -11145.648    47.905727   -11193.554   -5017.5004 
   85600    276.35372   -11144.995    46.954203   -11191.949   -25997.127 
   85800    318.52653   -11130.131    54.119623   -11184.251     14941.57 
   86000    250.32268   -11141.101    42.531368   -11183.633    7491.7357 
   86200    278.64119   -11145.291    47.342859   -11192.634    36871.636 
   86400     317.2514   -11135.622    53.902971   -11189.525   -8011.7913 
   86600    282.08699   -11137.032     47.92832   -11184.961    -40267.02 
   86800    266.93018   -11150.051    45.353086   -11195.404    5942.2937 
   87000     272.7493   -11133.591     46.34179   -11179.933    32771.457 
   87200    336.19892   -11131.963    57.122271   -11189.085   -28498.828 
   87400    258.12012   -11146.931    43.856201   -11190.787     7375.108 
   87600    251.67786   -11159.887    42.761622   -11202.649   -37660.384 
   87800    262.15136   -11138.409    44.541135    -11182.95    39926.461 
   88000    314.55963   -11125.288    53.445623   -11178.734    25798.848 
   88200    290.03932   -11142.326    49.279471   -11191.606    12102.257 
   88400     259.7065   -11141.666    44.125738   -11185.792    130990.03 
   88600      299.642   -11122.559    50.911026    -11173.47    10162.991 
   88800    315.33322     -11120.9     53.57706   -11174.477    23668.067 
   89000    318.46476   -11139.664    54.109129   -11193.773   -10385.419 
   89200    304.18686   -11145.588    51.683224   -11197.271   -24544.325 
   89400    383.09483   -11123.242    65.090176   -11188.332    23110.552 
   89600    263.56831    -11142.14    44.781882   -11186.921    39595.039 
   89800    273.76748   -11137.949    46.514784   -11184.464    26725.356 
   90000    333.24886   -11131.212    56.621039   -11187.833    35546.341 
   90200    269.51075   -11144.556    45.791539   -11190.347    54335.945 
   90400    333.20775   -11132.439    56.614054   -11189.053    -59226.02 
   90600     291.0039   -11137.753     49.44336   -11187.196    44703.033 
   90800    294.44901   -11142.268    50.028704   -11192.297   -515.38759 
   91000    312.84649   -11126.344     53.15455   -11179.499    41280.913 
   91200    278.48626   -11139.749    47.316534   -11187.065   -17596.861 
   91400    313.29576   -11135.912    53.230883   -11189.143   -17848.927 
   91600    329.19989   -11127.455    55.933093   -11183.388     22445.76 
   91800    275.97298   -11144.378    46.889512   -11191.268   -7347.6051 
   92000    285.85901   -11129.882    48.569211   -11178.452   -12876.521 
   92200    330.86368   -11134.426    56.215781   -11190.642   -28573.265 
   92400    291.96788   -11138.296    49.607145   -11187.903   -23841.443 
   92600    242.54806   -11146.355    41.210412   -11187.566   -595.26252 
   92800    291.76817   -11129.707    49.573212    -11179.28    21757.427 
   93000     267.2332   -11141.204     45.40457   -11186.608   -60478.717 
   93200    305.71901   -11140.248    51.943547   -11192.192    20693.929 
   93400    329.36646   -11134.007    55.961395   -11189.969    10766.032 
   93600    357.98526   -11129.259    60.823905   -11190.083    27575.501 
   93800    288.99048   -11147.167    49.101267   -11196.269    26258.334 
   94000    309.06929   -11133.711     52.51278   -11186.224    5040.6008 
   94200     316.1373    -11133.89    53.713679   -11187.603   -54009.284 
   94400    312.43716     -11139.4    53.085002   -11192.485   -35225.275 
   94600    262.70147   -11148.017    44.634601   -11192.651   -10214.634 
   94800     293.3644   -11134.665    49.844423   -11184.509   -48516.145 
   95000    299.09253   -11129.577    50.817667   -11180.395   -7617.8772 
   95200    250.43592   -11150.864    42.550608   -11193.415   -8102.1234 
   95400    281.87007   -11138.877    47.891464   -11186.769    38343.021 
   95600    299.51997   -11134.091    50.890292   -11184.981    27326.938 
   95800    279.64561   -11135.998    47.513516   -11183.512    14843.963 
   96000     334.0339   -11121.257    56.754421   -11178.012   -17899.994 
   96200    251.93194   -11139.967    42.804793   -11182.771    1230.4922 
   96400     305.6849   -11138.682    51.937752   -11190.619    19858.814 
   96600     361.1834    -11115.42    61.367289   -11176.787   -16405.319 
   96800    349.69226   -11134.734    59.414873   -11194.149     2800.024 
   97000    308.13361   -11139.294    52.353802   -11191.648    -16513.88 
   97200    345.24448   -11130.761    58.659167    -11189.42    24268.054 
   97400    302.75268   -11131.582     51.43955   -11183.021    16593.235 
   97600    266.65079   -11145.128    45.305615   -11190.433    20130.238 
   97800    339.41525   -11129.313    57.668746   -11186.982   -15481.145 
   98000    325.88835   -11131.171    55.370442   -11186.542    24844.278 
   98200    315.29857   -11140.028    53.571173   -11193.599    11389.255 
   98400    386.17578   -11124.544    65.613648   -11190.157    2588.0263 
   98600    351.91133    -11128.26    59.791908   -11188.052   -30626.508 
   98800    287.23724   -11139.724     48.80338   -11188.527   -3164.6552 
   99000    271.17771   -11143.086    46.074767   -11189.161    5646.3726 
   99200    285.61176   -11146.082    48.527201   -11194.609    23244.777 
   99400    319.27383   -11129.345    54.246595   -11183.592     253.5566 
   99600    286.91086   -11141.767    48.747927   -11190.515    6341.7244 
   99800     324.8802   -11146.544    55.199152   -11201.743   -905.94904 
  100000    334.57254   -11134.698     56.84594   -11191.544    6855.7044 
  100200    304.29274   -11139.876    51.701215   -11191.578   -63884.818 
  100400    282.87073   -11147.062    48.061484   -11195.124    216.15931 
  100600    286.96595   -11130.541    48.757287   -11179.298    70176.968 
  100800    329.89403    -11134.42    56.051032   -11190.471   -16912.286 
  101000     252.6728   -11146.239    42.930668    -11189.17    18464.572 
  101200    312.78909   -11134.687    53.144797   -11187.832   -44720.269 
  101400    266.27373   -11140.934     45.24155   -11186.175    15326.331 
  101600    268.50655   -11148.304    45.620919   -11193.925     -71106.5 
  101800    353.02091    -11129.57    59.980431    -11189.55    63849.843 
  102000     308.5618   -11140.695    52.426555   -11193.121    28280.012 
  102200    290.08159   -11150.794    49.286652    -11200.08    2018.6714 
  102400    331.68175   -11130.294    56.354776   -11186.648    27563.568 
  102600    278.21767   -11139.363      47.2709   -11186.634   -37177.699 
  102800     276.8118   -11146.915    47.032034   -11193.947    22391.969 
  103000    320.94361   -11126.825    54.530301   -11181.355   -40570.541 
  103200    329.76141   -11140.163      56.0285   -11196.192    44759.529 
  103400    230.91833   -11147.519    39.234449   -11186.754    18547.428 
  103600    336.09576   -11133.733    57.104744   -11190.838   -20892.988 
  103800    285.77319   -11137.447    48.554629   -11186.001    35425.795 
  104000    312.66369   -11134.572    53.123492   -11187.695   -20007.555 
  104200    296.52074   -11123.763    50.380704   -11174.143   -34466.574 
  104400    319.61612   -11139.728    54.304752   -11194.032    22910.897 
  104600    284.35939   -11148.435    48.314417   -11196.749    54521.868 
  104800    257.05285   -11145.996    43.674867    -11189.67    -43682.57 
  105000    313.25233   -11132.815    53.223504   -11186.039     50221.08 
  105200    266.73354   -11145.807    45.319676   -11191.127   -35278.916 
  105400    235.33107    -11150.76    39.984202   -11190.744     62585.29 
  105600    298.05029   -11132.686    50.640584   -11183.326    1817.5081 
  105800     327.7147    -11142.07     55.68075   -11197.751    44585.643 
  106000    300.53513   -11144.167    51.062774    -11195.23    3987.5321 
  106200    300.39138   -11129.098    51.038351   -11180.136     45621.72 
  106400    288.15218   -11143.749    48.958835   -11192.708   -41369.662 
  106600    361.18091   -11119.017    61.366866   -11180.384   -1231.6395 
  106800    312.11698   -11134.143    53.030602   -11187.174    14310.418 
  107000    324.33261   -11138.381    55.106112   -11193.487   -42623.298 
  107200    366.21976   -11120.118    62.222997   -11182.341   -19826.735 
  107400    299.46597   -11133.128    50.881116   -11184.009    32218.772 
  107600    298.13614   -11138.656     50.65517   -11189.311   -5386.6344 
  107800    242.74411   -11151.146    41.243722    -11192.39    24555.158 
  108000    302.73812   -11134.642    51.437075   -11186.079   -57241.833 
  108200    244.88466   -11138.577    41.607415   -11180.185   -1.5799852 
  108400    368.41059   -11126.781    62.595234   -11189.376     33195.54 
  108600    285.07931   -11134.133    48.436734    -11182.57    40158.413 
  108800    275.96613   -11141.166     46.88835   -11188.054   -96610.238 
  109000    303.29181   -11126.738    51.531151   -11178.269    10953.556 
  109200    402.99386   -11111.262    68.471144   -11179.733    34365.173 
  109400    267.92804   -11137.914    45.522627   -11183.437   -70304.824 
  109600    289.61947    -11137.24    49.208136   -11186.448    -46462.09 
  109800    325.40608   -11122.862    55.288502    -11178.15   -29810.238 
  110000    279.53069    -11146.01    47.493989   -11193.504   -13642.046 
  110200    296.21291   -11136.269    50.328402   -11186.598    34105.398 
  110400    325.07142   -11128.338    55.231641    -11183.57    17662.044 
  110600    266.19447   -11146.968    45.228083   -11192.196   -15306.105 
  110800    326.00573   -11137.766    55.390386   -11193.157    32565.178 
  111000    338.79656   -11133.871    57.563627   -11191.435    34154.664 
  111200    266.41768   -11139.919    45.266008   -11185.185   -17179.688 
  111400     304.5923    -11127.26    51.752112   -11179.012    22097.859 
  111600     314.7592   -11128.876    53.479531   -11182.356   -25263.565 
  111800    298.81643   -11142.751    50.770755   -11193.522    20566.733 
  112000    307.13176   -11139.205    52.183583   -11191.389   -7189.5246 
  112200    388.47256   -11115.063    66.003885   -11181.066   -38151.431 
  112400    292.70537   -11134.922    49.732449   -11184.654    59745.266 
  112600    261.79492   -11141.027    44.480572   -11185.507    8466.0357 
  112800     281.2086   -11142.643    47.779078   -11190.422    55002.509 
  113000     354.1557   -11127.092     60.17324   -11187.265    -27186.04 
  113200    274.77587   -11149.319    46.686116   -11196.005   -22052.011 
  113400    276.33818   -11145.433    46.951562   -11192.385    2169.3136 
  113600    313.43233   -11129.757    53.254087   -11183.011   -32098.024 
  113800    262.97547    -11148.38    44.681156   -11193.061   -1274.7123 
  114000    300.53303    -11140.97    51.062418   -11192.032    4624.9229 
  114200    279.66645   -11136.639    47.517055   -11184.157    2124.5821 
  114400    261.29487   -11148.312    44.395611   -11192.708    4064.1557 
  114600    314.82794   -11133.989     53.49121    -11187.48    45339.239 
  114800    329.06077    -11132.56    55.909456   -11188.469   -35029.782 
  115000    245.26613    -11147.85    41.672229   -11189.522     49795.68 
  115200    299.45009   -11128.907    50.878418   -11179.786   -79616.839 
  115400    260.53411   -11140.426    44.266353   -11184.693    47606.739 
  115600    325.15441   -11140.497    55.245741   -11195.743    -45804.06 
  115800    324.65359    -11129.53     55.16065   -11184.691   -36612.999 
  116000    278.37661   -11142.466    47.297904   -11189.764    27378.809 
  116200    307.93118     -11145.9    52.319408    -11198.22   -11866.551 
  116400    322.83296   -11123.765    54.851313   -11178.616   -21571.912 
  116600    270.19262   -11136.997    45.907393   -11182.905    923.05385 
  116800    277.49897   -11140.255    47.148788   -11187.404    16444.927 
  117000    319.12195   -11126.982     54.22079   -11181.202    22638.796 
  117200    316.28295   -11131.519    53.738425   -11185.257    19585.708 
  117400    254.52016   -11141.206    43.244546    -11184.45    73203.263 
  117600    352.47819   -11122.404    59.888221   -11182.292   -14166.044 
  117800    305.00834   -11130.832    51.822799   -11182.654    7537.9969 
  118000    291.90317     -11143.9     49.59615   -11193.496    4461.7831 
  118200    383.71742   -11123.256    65.195958   -11188.451    28198.689 
  118400    287.09588   -11131.342    48.779362   -11180.122   -22478.606 
  118600    300.47417   -11139.875    51.052417   -11190.928   -28611.365 
  118800    301.40817   -11137.154    51.211109   -11188.366    18941.473 
  119000    361.84437   -11118.601    61.479593   -11180.081   -46396.081 
  119200    269.16097   -11139.597    45.732111    -11185.33   -28407.693 
  119400     257.7722   -11140.299    43.797089   -11184.096    6236.0615 
  119600    285.39108   -11141.426    48.489706   -11189.916    14184.249 
  119800    317.85594   -11127.811    54.005686   -11181.817    27281.171 
  120000    315.10264   -11141.382    53.537884    -11194.92     8721.818 
  120200     305.9802   -11138.648    51.987924   -11190.635    4389.2779 
  120400    302.03175   -11138.119    51.317059   -11189.436    28040.235 
  120600    268.11039   -11131.478     45.55361   -11177.031    17375.024 
  120800     251.5483   -11147.785    42.739609   -11190.524   -17936.875 
  121000    325.56975   -11130.283    55.316309   -11185.599   -22253.269 
  121200    345.63849   -11129.356    58.726114   -11188.082   -43045.668 
  121400     236.9161   -11142.832    40.253508   -11183.086   -39093.996 
  121600    309.71133   -11145.454    52.621866   -11198.076     7446.591 
  121800    359.59748   -11127.127    61.097831   -11188.225    39939.035 
  122000    296.66204   -11144.509    50.404712   -11194.914   -2595.5734 
  122200    270.87584   -11133.776    46.023478   -11179.799   -29856.905 
  122400    349.32454    -11129.23    59.352396   -11188.583   -22753.019 
  122600    340.61634    -11138.15    57.872819   -11196.023    64839.778 
  122800    239.27051   -11149.537    40.653536    -11190.19    6369.6211 
  123000    326.96108   -11131.012    55.552705   -11186.565    10608.056 
  123200    265.71092   -11136.837    45.145926   -11181.983   -23964.677 
  123400    247.84184   -11148.281    42.109858   -11190.391    27161.861 
  123600    324.30948   -11139.246    55.102182   -11194.348   -11592.907 
  123800    319.15602   -11131.404    54.226577   -11185.631    14654.867 
  124000    244.60413   -11149.715    41.559751   -11191.275   -10015.792 
  124200    312.27751   -11135.896    53.057876   -11188.954    38640.925 
  124400    282.89455   -11134.281    48.065531   -11182.346   -4516.0549 
  124600    284.29933    -11147.15     48.30421   -11195.454    55618.596 
  124800    284.11995   -11132.735    48.273733   -11181.009    16572.739 
  125000    349.43435   -11135.375    59.371054   -11194.746    17776.708 
  125200    294.78258   -11141.857     50.08538   -11191.942    44891.524 
  125400    306.05061   -11130.244    51.999887   -11182.244   -20914.903 
  125600    293.14744   -11138.397    49.807559   -11188.205    18419.964 
  125800    269.71417   -11140.181    45.826103   -11186.007     48437.91 
  126000    285.05857   -11124.789    48.433211   -11173.222    4484.2288 
  126200    327.10061   -11139.393    55.576413   -11194.969    6298.9796 
  126400    294.84682   -11143.609    50.096294   -11193.706   -14491.049 
  126600    318.86568   -11126.982    54.177247   -11181.159    11090.843 
  126800    273.86838   -11144.475    46.531929   -11191.007    22316.064 
  127000    277.70942   -11143.442    47.184545   -11190.627    109234.12 
  127200    328.65108    -11129.86    55.839847     -11185.7   -12497.583 
  127400    329.26971   -11138.637    55.944957   -11194.582    35631.127 
  127600    261.19243   -11145.747    44.378206   -11190.125   -2106.2913 
  127800    315.80016   -11130.195    53.656397   -11183.851    6429.2522 
  128000    284.71024   -11143.493    48.374027   -11191.867   -18511.335 
  128200    274.36629   -11151.416    46.616526   -11198.033   -31567.844 
  128400     280.4243   -11139.659     47.64582   -11187.305   -1303.7657 
  128600    305.39794   -11134.328    51.888996   -11186.217   -44124.106 
  128800    273.12317    -11134.12    46.405312   -11180.525    23156.955 
  129000    299.93979   -11141.157    50.961623   -11192.118    50109.523 
  129200    319.32278   -11143.244    54.254912   -11197.499     42708.31 
  129400    325.99484   -11127.272    55.388536    -11182.66    -37840.48 
  129600     281.1237   -11143.613    47.764652   -11191.378   -12074.192 
  129800    318.85649   -11141.577    54.175685   -11195.752   -43694.932 
  130000    308.52242   -11126.368    52.419863   -11178.788   -11568.724 
  130200    310.56629   -11136.364     52.76713   -11189.131    11809.576 
  130400    302.49861   -11145.115    51.396381   -11196.511    36833.402 
  130600    321.75351    -11129.42    54.667908   -11184.088    16977.751 
  130800    255.57739   -11138.617    43.424176   -11182.041    19672.424 
  131000    281.67763   -11145.854    47.858768   -11193.713   -16073.925 
  131200    275.28192   -11134.618    46.772098    -11181.39   -12022.299 
  131400    321.61168   -11129.778     54.64381   -11184.422   -31727.729 
  131600    345.79476   -11136.968    58.752664   -11195.721    55321.348 
  131800    275.69538   -11136.479    46.842346   -11183.322     1469.147 
  132000     340.5665   -11134.956     57.86435   -11192.821   -29694.201 
  132200    248.61369    -11151.65    42.241001   -11193.891    260.34854 
  132400    304.95113   -11133.851     51.81308   -11185.664    17455.255 
  132600    289.21626   -11133.366    49.139628   -11182.505    38293.881 
  132800    272.19578   -11145.256    46.247744   -11191.504   -13208.141 
  133000    335.22253   -11132.777    56.956376   -11189.734    52606.012 
  133200    303.04115   -11129.603    51.488562   -11181.092    47656.941 
  133400    266.14784   -11149.315     45.22016   -11194.536    13228.407 
  133600    249.62458   -11142.576    42.412757   -11184.989    65955.365 
  133800    328.98548   -11134.479    55.896665   -11190.376    6354.4764 
  134000    309.98896   -11134.142    52.669038   -11186.811    39637.358 
  134200    278.27294   -11145.357     47.28029   -11192.637   -49854.702 
  134400    285.58754   -11127.916    48.523085   -11176.439   -15211.048 
  134600    308.31035   -11141.182    52.383831   -11193.565    4709.5315 
  134800    244.61416   -11140.534    41.561456   -11182.095   -35850.899 
  135000    333.57753   -11126.906    56.676882   -11183.583    3950.2495 
  135200    262.49826   -11144.337    44.600074   -11188.938   -6660.0603 
  135400    289.62613   -11141.575    49.209268   -11190.784    10231.128 
  135600    315.07089    -11139.29     53.53249   -11192.822   -45482.032 
  135800    304.22596     -11134.7    51.689869    -11186.39    59305.178 
  136000    326.08587   -11138.125    55.404002   -11193.529    2778.6876 
  136200    266.51592   -11147.944      45.2827   -11193.227     26514.18 
  136400     281.5073   -11128.807    47.829828   -11176.637   -5923.1194 
  136600     284.3111   -11140.292    48.306211   -11188.598    15614.256 
  136800    292.84688   -11145.516    49.756493   -11195.272    49661.427 
  137000    277.34621   -11133.635    47.122833   -11180.758    -9250.378 
  137200    336.05184   -11129.561    57.097282   -11186.658   -23590.042 
  137400    281.58373   -11147.522    47.842813   -11195.365    52758.946 
  137600    325.82371   -11136.277    55.359459   -11191.636   -69905.712 
  137800      281.692   -11134.636    47.861209   -11182.498    46319.891 
  138000    299.57078   -11140.397    50.898926   -11191.295    44493.588 
  138200    294.76336   -11143.878    50.082114    -11193.96   -16884.683 
  138400    295.16567    -11131.78     50.15047   -11181.931   -7068.1048 
  138600    273.74346   -11146.103    46.510704   -11192.614   -9557.9393 
  138800    331.15718   -11127.212    56.265649   -11183.478     47002.35 
  139000     282.3466   -11136.482     47.97243   -11184.455    14020.624 
  139200    290.29333   -11141.656    49.322629   -11190.979   -12700.239 
  139400    263.41595   -11134.266    44.755996   -11179.022    628.03383 
  139600    321.57296   -11136.177    54.637232   -11190.814   -27111.473 
  139800    327.93482   -11134.597    55.718151   -11190.315   -37865.955 
  140000    407.72621   -11115.499    69.275199   -11184.774    18145.833 
  140200    298.10179   -11133.596    50.649334   -11184.246    25663.647 
  140400     262.7516   -11143.766    44.643119   -11188.409    26213.389 
  140600    308.03434   -11130.808    52.336935   -11183.145   -8739.9747 
  140800    285.07785   -11130.631    48.436487   -11179.068   -54006.699 
  141000    311.50084   -11141.755    52.925915   -11194.681   -13303.675 
  141200    365.05551   -11125.234    62.025184   -11187.259   -1358.1375 
  141400    281.71285   -11129.909    47.864752   -11177.774   -31936.092 
  141600    284.73219   -11144.615    48.377757   -11192.992    25107.201 
  141800    279.19556   -11135.712    47.437049   -11183.149    23489.483 
  142000    301.00451   -11130.829    51.142524   -11181.971   -9320.3166 
  142200     307.4781   -11133.855    52.242427   -11186.098   -28283.502 
  142400     256.7404   -11151.752    43.621779   -11195.374   -38046.524 
  142600    262.98259   -11139.124    44.682366   -11183.806    5166.5579 
  142800      295.413    -11136.57    50.192493   -11186.763   -11112.218 
  143000    267.17609    -11142.38    45.394868   -11187.775   -27042.626 
  143200    315.74922   -11132.455    53.647741   -11186.103     29475.28 
  143400    339.21779   -11127.149    57.635196   -11184.784   -22975.719 
  143600    308.47674   -11147.298    52.412102    -11199.71   -41633.565 
  143800    335.12603   -11132.641    56.939982   -11189.581     22102.53 
  144000    283.48149   -11131.766    48.165256   -11179.931   -8407.2539 
  144200    286.95083   -11138.703    48.754718   -11187.457   -34311.505 
  144400    297.04956   -11136.635    50.470553   -11187.106   -13430.237 
  144600     283.2319   -11145.753    48.122848   -11193.876   -3988.4423 
  144800    327.55373   -11130.726    55.653401   -11186.379   -23787.324 
  145000    305.40078   -11146.924    51.889478   -11198.814    -874.5722 
  145200    289.30895    -11143.65    49.155377   -11192.805   -60531.263 
  145400    310.38354   -11135.314     52.73608    -11188.05   -30109.034 
  145600       313.44   -11137.794    53.255391   -11191.049    8724.9079 
  145800    287.72144    -11146.94    48.885649   -11195.825   -3419.8497 
  146000    340.69673   -11130.207    57.886478   -11188.093   -20520.546 
  146200    299.30826   -11134.047    50.854321   -11184.901   -30935.137 
  146400    282.97976    -11142.95    48.080007    -11191.03    48777.883 
  146600     218.3743   -11137.299    37.103142   -11174.402    84992.994 
  146800    286.98374   -11128.259     48.76031   -11177.019    38128.216 
  147000    272.50149   -11138.794    46.299685   -11185.094   -7422.1616 
  147200    305.76979   -11132.925    51.952175   -11184.877   -38737.573 
  147400    367.47433    -11127.93    62.436158   -11190.366   -28211.339 
  147600    296.34356   -11141.997    50.350601   -11192.347   -21995.316 
  147800    326.86365   -11139.517    55.536152   -11195.053    26779.096 
  148000    314.51149    -11130.26    53.437444   -11183.698    91168.582 
  148200    294.94706   -11136.357    50.113326    -11186.47     12922.48 
  148400     267.2123   -11148.098    45.401019   -11193.499    25832.182 
  148600    285.15243   -11144.119    48.449158   -11192.569    15193.391 
  148800    286.93077    -11132.73    48.751308   -11181.481   -51912.953 
  149000    243.42453    -11147.62     41.35933    -11188.98   -16191.821 
  149200    285.72374   -11138.398    48.546226   -11186.944    61866.234 
  149400    341.33406   -11128.865    57.994764   -11186.859   -8011.4644 
  149600    255.65379   -11143.491    43.437157   -11186.928    1824.5394 
  149800    301.91896   -11143.782    51.297895    -11195.08   -10986.968 
  150000    345.01252   -11129.878    58.619756   -11188.498    4239.4902 
  150200    276.08004   -11148.096    46.907704   -11195.004   -15431.049 
  150400    264.23946   -11146.706    44.895915   -11191.602   -20211.739 
  150600    282.95953   -11140.473    48.076571    -11188.55   -43671.687 
  150800    300.59582   -11132.538    51.073085   -11183.611    3030.3203 
  151000    262.71778   -11150.963    44.637372     -11195.6   -24445.962 
  151200    329.94234   -11137.737    56.059241   -11193.797    46910.612 
  151400    299.25711    -11137.44     50.84563   -11188.285    4940.3977 
  151600    342.28167   -11124.578    58.155769   -11182.734    4811.4954 
  151800    302.29296   -11140.329     51.36144   -11191.691   -13707.865 
  152000    286.53091   -11142.087     48.68337   -11190.771   -4450.6963 
  152200    316.59575   -11132.558    53.791572   -11186.349   -34752.824 
  152400    264.22915   -11137.214    44.894164   -11182.108    104573.79 
  152600    301.95757   -11142.368    51.304455   -11193.672    19759.795 
  152800    263.18346   -11128.221    44.716494   -11172.938     17363.31 
  153000    273.83904   -11144.747    46.526943   -11191.274    41752.051 
  153200    290.45781   -11143.983    49.350574   -11193.334    7489.7608 
  153400     290.9197   -11136.246    49.429053   -11185.675   -17057.895 
  153600    368.00581   -11115.534    62.526459    -11178.06   -14237.223 
  153800    299.01038   -11133.085     50.80371   -11183.889    71863.329 
  154000    303.94031   -11142.764    51.641335   -11194.405    78920.997 
  154200    306.03819   -11137.104    51.997778   -11189.102    27106.823 
  154400    286.98199   -11128.305    48.760012   -11177.065   -51696.986 
  154600    299.89976   -11143.156    50.954821   -11194.111    48151.134 
  154800    296.81048   -11134.945    50.429932   -11185.375     2840.609 
  155000    278.38881    -11126.94    47.299977    -11174.24   -18014.651 
  155200    271.86712   -11143.656    46.191902   -11189.848   -22434.816 
  155400    327.62303   -11133.433    55.665174   -11189.098    6424.4781 
  155600    346.49101   -11128.068    58.870961   -11186.939    4606.6308 
  155800     330.4221   -11142.532    56.140754   -11198.673    12274.452 
  156000    333.74076   -11139.035    56.704615    -11195.74    -30980.15 
  156200    337.42799   -11126.829    57.331099   -11184.161    21561.864 
  156400    304.13987   -11136.598    51.675241   -11188.273   -29796.152 
  156600    293.56215    -11143.92    49.878022   -11193.798    25353.952 
  156800    309.06327   -11133.731    52.511757   -11186.243    45043.742 
  157000    286.13885    -11135.77    48.616756   -11184.387   -36545.969 
  157200    414.01458   -11117.251    70.343633   -11187.595    30990.818 
  157400    289.74892   -11133.995    49.230131   -11183.225    5675.0855 
  157600    310.79947   -11140.282    52.806748   -11193.089    77705.125 
  157800    280.24928   -11149.022    47.616083   -11196.638   -30156.877 
  158000    304.28756   -11139.168    51.700335   -11190.869   -35501.895 
  158200    313.33425   -11134.071    53.237424   -11187.308    47347.738 
  158400    230.15699   -11152.979    39.105094   -11192.084   -5109.8359 
  158600    274.41469   -11142.266    46.624749   -11188.891    36278.897 
  158800    331.31267   -11136.374    56.292067   -11192.666    9050.0708 
  159000    267.15875   -11142.475     45.39192   -11187.867   -26961.461 
  159200     289.0277   -11140.756     49.10759   -11189.863    34028.726 
  159400    297.56345   -11130.784    50.557866   -11181.342    66349.167 
  159600    312.62302   -11135.784    53.116582     -11188.9   -38937.556 
  159800    271.88337   -11148.481    46.194662   -11194.676    16284.558 
  160000    352.05328   -11128.444    59.816026    -11188.26    6803.1986 
  160200     293.2924   -11134.317    49.832188   -11184.149    31264.857 
  160400    273.09059   -11142.619    46.399776   -11189.019   -13902.063 
  160600    338.67041   -11130.252    57.542193   -11187.795   -64312.646 
  160800    318.63195   -11138.349    54.137535   -11192.487   -38469.093 
  161000    278.61549   -11140.371    47.338492   -11187.709   -9222.0297 
  161200    314.04616   -11136.681    53.358382   -11190.039   -4401.8488 
  161400    305.79248   -11137.089    51.956029   -11189.045   -18646.465 
  161600    286.40113   -11131.231     48.66132   -11179.892   -6467.5116 
  161800    293.18012   -11134.704    49.813113   -11184.517   -16608.815 
  162000    282.56369     -11149.2    48.009316   -11197.209    13093.897 
  162200    298.97555   -11129.829    50.797792   -11180.627   -3911.2886 
  162400     297.0631   -11138.766    50.472855   -11189.239    19035.344 
  162600    286.74256   -11149.233    48.719331   -11197.952    75006.479 
  162800    308.07599   -11127.322    52.344012   -11179.666   -3499.6903 
  163000    278.64474   -11139.437    47.343461   -11186.781   -15733.705 
  163200    298.13323   -11142.758    50.654677   -11193.412    27772.019 
  163400    342.95245   -11123.047    58.269738   -11181.317   -34488.727 
  163600    282.36312   -11135.408    47.975237   -11183.383   -18864.044 
  163800    270.79139   -11138.683    46.009129   -11184.692    51995.313 
  164000    310.16579   -11135.421    52.699082    -11188.12   -3924.1006 
  164200     308.9141   -11121.085    52.486413   -11173.571   -31117.404 
  164400    300.78108   -11132.101    51.104562   -11183.205   -28262.669 
  164600     251.1619   -11143.484    42.673958   -11186.158     13038.93 
  164800    354.14661   -11127.319    60.171695    -11187.49     -21196.6 
  165000    339.42494   -11129.673    57.670392   -11187.344     65389.02 
  165200    276.86635   -11139.111    47.041302   -11186.152    37536.828 
  165400    263.24328   -11142.829    44.726658   -11187.556   -35213.801 
  165600    336.98147   -11126.304    57.255231   -11183.559   -22481.045 
  165800    310.79425   -11136.897    52.805861   -11189.703    6211.1149 
  166000    295.08709   -11140.004    50.137118   -11190.141    37856.456 
  166200    292.54604   -11136.865    49.705379    -11186.57   -40463.424 
  166400    366.29672   -11132.699    62.236074   -11194.936    3073.5051 
  166600    308.48072   -11139.842    52.412778   -11192.255    52899.717 
  166800    256.87055   -11154.665    43.643892   -11198.309    3991.2323 
  167000    279.93092   -11137.914    47.561991   -11185.476    8052.2574 
  167200    333.49151   -11131.638    56.662266     -11188.3    9124.0808 
  167400     297.6287     -11147.3    50.568953   -11197.869    -22112.23 
  167600    263.07276   -11136.516    44.697686   -11181.213    9549.9369 
  167800     318.0539   -11135.649     54.03932   -11189.688   -37018.414 
  168000     252.5183   -11145.672    42.904418   -11188.576    92906.532 
  168200    287.01336   -11149.591    48.765341   -11198.356   -10590.979 
  168400    261.53025   -11134.027    44.435604   -11178.463    50310.418 
  168600    269.71456   -11146.326    45.826168   -11192.153     17258.18 
  168800    274.53895   -11143.206    46.645862   -11189.852     7756.303 
  169000    313.29273    -11130.37    53.230368     -11183.6   -13945.726 
  169200    252.01873   -11144.857    42.819538   -11187.677    24053.552 
  169400    335.82345   -11126.751    57.058478    -11183.81   -31028.343 
  169600      294.771    -11133.14    50.083412   -11183.224    3528.4812 
  169800    316.28851   -11142.655     53.73937   -11196.394   -229.75177 
  170000    329.10726   -11131.951    55.917354   -11187.868    31245.826 
  170200    362.00444   -11125.258    61.506789   -11186.765    4648.6249 
  170400    302.42412   -11140.886    51.383726    -11192.27   -53982.187 
  170600    302.49235   -11135.788    51.395317   -11187.183    27323.272 
  170800     386.7385   -11117.932    65.709259   -11183.641   -26990.418 
  171000    309.41106   -11135.977    52.570849   -11188.548    7709.2179 
  171200    326.31343   -11140.646    55.442666   -11196.089    13910.505 
  171400    367.67129   -11120.869    62.469621   -11183.338     65486.52 
  171600     285.1198   -11135.886    48.443614    -11184.33   -25314.499 
  171800    272.33359   -11136.651    46.271159   -11182.922    9439.8688 
  172000    322.82206   -11131.905    54.849461   -11186.754   -27614.167 
  172200    326.92935   -11124.045    55.547315   -11179.592    3227.0997 
  172400    302.51111     -11141.3    51.398505   -11192.698    20467.952 
  172600    315.71233   -11131.613    53.641474   -11185.255    37211.025 
  172800    303.59623   -11124.162    51.582874   -11175.744   -10708.703 
  173000    329.76993   -11134.361    56.029947   -11190.391    13460.942 
  173200    300.51439   -11137.826     51.05925   -11188.886   -24613.758 
  173400    317.48337   -11125.272    53.942384   -11179.214   -8357.0044 
  173600    265.22439   -11144.968    45.063261   -11190.032    -23308.62 
  173800    265.99818   -11137.718    45.194733   -11182.913   -19673.866 
  174000    331.40016   -11129.422    56.306932   -11185.729   -67688.463 
  174200    313.02565   -11136.279     53.18499   -11189.464   -6158.8983 
  174400    275.69505   -11143.678    46.842292    -11190.52    36641.482 
  174600    317.49094   -11128.825     53.94367   -11182.769   -51752.953 
  174800    266.83491   -11145.551    45.336898   -11190.888   -58143.454 
  175000    289.03453   -11144.232    49.108751   -11193.341   -10253.754 
  175200    335.99425   -11133.135    57.087497   -11190.222   -36756.219 
  175400    298.38783    -11137.28    50.697934   -11187.978   -46672.698 
  175600    271.03999   -11145.582    46.051368   -11191.633    17197.291 
  175800    312.27321   -11130.477    53.057146   -11183.534   -8300.1523 
  176000    255.78322   -11139.481    43.459149    -11182.94    46827.425 
  176200    252.06767   -11148.523    42.827854    -11191.35    22733.516 
  176400    301.75182   -11134.541    51.269496   -11185.811    8111.8916 
  176600    273.39106       -11138    46.450829   -11184.451    75974.236 
  176800    261.64417    -11151.75    44.454959   -11196.205   -17961.017 
  177000    332.04572   -11139.535    56.416617   -11195.952      53396.4 
  177200     283.2071   -11131.805    48.118634   -11179.924     38974.16 
  177400    325.72803   -11133.113    55.343202   -11188.457   -12637.603 
  177600    266.75707   -11145.301    45.323673   -11190.624   -34338.931 
  177800    348.62143   -11128.047    59.232934    -11187.28    11731.085 
  178000    292.13984    -11133.75    49.636362   -11183.386   -38942.724 
  178200    271.90452   -11139.973    46.198256   -11186.172   -46354.589 
  178400    271.68637    -11145.49    46.161191   -11191.651    17647.061 
  178600    295.04239     -11128.6    50.129523   -11178.729    15746.412 
  178800    267.29341   -11141.755    45.414801    -11187.17   -19230.514 
  179000    241.63481   -11161.849    41.055246   -11202.904   -4207.6044 
  179200    277.56148   -11146.262    47.159409   -11193.421   -2609.8296 
  179400    295.90643   -11132.997    50.276328   -11183.273   -46460.123 
  179600    287.25846   -11144.363    48.806986    -11193.17   -27159.886 
  179800    288.30683   -11146.066    48.985111   -11195.051    10697.207 
[...]
  950000    256.35252   -11147.851    43.555876   -11191.407   -33463.796 
  950200    322.44029   -11133.259    54.784595   -11188.044   -18510.279 
  950400     296.1267   -11140.948    50.313754   -11191.262     8283.439 
  950600     252.6743    -11144.59    42.930923   -11187.521    13809.294 
  950800    320.72435   -11132.721    54.493046   -11187.214    5507.7851 
  951000    267.08904   -11153.116    45.380076   -11198.496    40576.391 
  951200    288.79165   -11148.608    49.067485   -11197.676   -26354.142 
  951400    290.00821   -11134.279    49.274185   -11183.553    6480.7232 
  951600     297.4144   -11139.713    50.532542   -11190.246   -25703.946 
  951800    233.82702   -11152.011    39.728654    -11191.74     54146.01 
  952000    276.21791   -11140.031    46.931127   -11186.962    12545.132 
  952200    322.91767   -11135.599    54.865706   -11190.465   -35715.058 
  952400     362.0887   -11121.087    61.521105   -11182.608   -17992.133 
  952600      306.691   -11140.253    52.108694   -11192.362   -7711.2793 
  952800     274.6228     -11144.6    46.660109    -11191.26   -51414.872 
  953000    325.76753   -11125.688    55.349914   -11181.038   -54345.251 
  953200    322.04941       -11141    54.718182   -11195.718    1083.6251 
  953400    281.58208   -11144.287    47.842534    -11192.13   -21704.514 
  953600    333.20157   -11130.065    56.613004   -11186.678   -40338.342 
  953800    294.29329   -11148.421    50.002246   -11198.423    -27130.52 
  954000    290.92703   -11147.656    49.430298   -11197.086    28768.291 
  954200    312.23782   -11132.723    53.051132   -11185.774    22891.904 
  954400     294.0459   -11144.052    49.960214   -11194.012   -24137.026 
  954600    251.69527   -11149.176     42.76458    -11191.94   -18548.806 
  954800    300.06698   -11137.505    50.983232   -11188.488   -6481.4129 
  955000    273.11863   -11131.395    46.404541     -11177.8   -6804.9618 
  955200    320.27373   -11130.433    54.416484   -11184.849   -4036.5158 
  955400    275.98178   -11141.526    46.891008   -11188.417   -16772.876 
  955600    324.43225   -11132.243    55.123041   -11187.366    42068.372 
  955800    366.19051   -11124.284    62.218028   -11186.502    9732.1867 
  956000      293.251   -11144.399    49.825154   -11194.224   -8238.1904 
  956200    256.50829   -11139.237    43.582342   -11182.819     39141.64 
  956400    318.83487   -11125.909    54.172012   -11180.081    34965.517 
  956600    305.01951   -11138.463    51.824697   -11190.287    54185.008 
  956800    297.74105    -11140.89    50.588042   -11191.478    20726.025 
  957000    335.45244    -11121.87     56.99544   -11178.866    40755.122 
  957200    275.03998   -11139.843     46.73099   -11186.574   -28306.065 
  957400    279.33435   -11140.246     47.46063   -11187.707   -23621.173 
  957600    361.31054    -11125.57    61.388892   -11186.959    53785.457 
  957800    334.60928   -11126.135    56.852182   -11182.987   -1919.9037 
  958000    291.38805   -11143.681    49.508628    -11193.19    24121.541 
  958200    311.36532   -11136.679     52.90289   -11189.582    5144.9637 
  958400    314.07657    -11121.76    53.363548   -11175.124   -13442.475 
  958600    336.48587   -11133.647    57.171027   -11190.818     925.4441 
  958800    295.44044   -11139.716    50.197154   -11189.914    10579.108 
  959000     304.5669   -11151.072    51.747796   -11202.819   -13139.651 
  959200    310.70547   -11136.974    52.790777   -11189.765    9999.9828 
  959400    265.44423   -11135.133    45.100613   -11180.233    -7581.586 
  959600    278.96585   -11138.515     47.39802   -11185.913   -27873.523 
  959800    291.86349   -11128.535    49.589409   -11178.125    9382.0191 
  960000    291.73436   -11136.306    49.567468   -11185.874    28392.266 
  960200    299.19569   -11143.507    50.835195   -11194.343   -8506.9222 
  960400    299.97855    -11121.18    50.968207   -11172.148   -12084.869 
  960600    368.10852   -11128.058     62.54391   -11190.602   -6986.0312 
  960800    243.33501   -11139.951     41.34412   -11181.295    -4693.975 
  961000    336.45688     -11122.6    57.166101   -11179.766   -31784.897 
  961200    321.49409   -11126.677     54.62383   -11181.301    33080.208 
  961400    258.09627   -11136.008     43.85215   -11179.861    94615.391 
  961600    273.32722   -11145.471    46.439981   -11191.911   -12980.726 
  961800    312.10232   -11138.393    53.028111   -11191.421    7426.2607 
  962000    319.32474   -11127.611    54.255245   -11181.866   -55342.654 
  962200    299.83591   -11147.473    50.943972   -11198.417    33769.326 
  962400    341.69316   -11139.821    58.055778   -11197.876     18291.12 
  962600    305.24828    -11128.97    51.863566   -11180.834   -29221.532 
  962800    309.24007   -11131.112    52.541796   -11183.654    17323.578 
  963000    272.41382   -11142.454    46.284789   -11188.739    3507.3341 
  963200    310.24821   -11135.824    52.713086   -11188.537   -48507.894 
  963400    348.26328    -11129.97    59.172081   -11189.142    26531.562 
  963600     318.6791   -11140.236    54.145546   -11194.381    42088.194 
  963800     259.0135   -11140.442    44.007993    -11184.45    10527.221 
  964000    309.95817   -11120.436    52.663807   -11173.099   -36923.656 
  964200    302.28723    -11124.37    51.360467    -11175.73    24685.913 
  964400    306.99631   -11138.568    52.160568   -11190.728    13774.627 
  964600    246.82493   -11145.014    41.937079   -11186.951    -31189.04 
  964800    312.94134   -11135.562    53.170665   -11188.732   -9998.3319 
  965000    299.50131   -11138.594    50.887121   -11189.481    22957.949 
  965200    305.85075   -11136.635    51.965931   -11188.601   -19791.285 
  965400    292.26496   -11140.206     49.65762   -11189.863    4705.5964 
  965600    311.32672   -11137.765    52.896332   -11190.661    69067.881 
  965800    337.39143   -11124.205    57.324887    -11181.53   -11749.168 
  966000    321.18211   -11135.621    54.570823   -11190.192   -10585.406 
  966200    301.76122   -11139.114    51.271094   -11190.385    108679.04 
  966400    306.49053   -11132.352    52.074634   -11184.426    1982.2601 
  966600    301.71109   -11131.036    51.262576   -11182.298   -28440.811 
  966800     270.7586   -11145.672    46.003558   -11191.676    5843.5126 
  967000    310.66378   -11130.935    52.783694   -11183.718   -15586.867 
  967200    289.87748   -11134.574    49.251973   -11183.826   -34462.551 
  967400    260.13722    -11145.07    44.198919   -11189.269    -1567.276 
  967600    309.01783    -11133.74    52.504038   -11186.244    36729.544 
  967800    347.09801   -11134.188    58.974094   -11193.162    -29109.73 
  968000    249.76854   -11144.934    42.437217   -11187.371   -13043.479 
  968200     326.8999   -11138.189    55.542311   -11193.732    31229.185 
  968400    276.12792   -11138.189    46.915838   -11185.105   -36602.328 
  968600    367.27201   -11124.775    62.401781   -11187.177    31495.057 
  968800    287.27911   -11126.553    48.810495   -11175.364    68436.782 
  969000    331.56073   -11142.578    56.334215   -11198.912   -19580.612 
  969200    298.92269    -11135.25    50.788811   -11186.039   -44620.797 
  969400    318.76255    -11121.46    54.159725   -11175.619    50541.757 
  969600    295.16321   -11135.108    50.150051   -11185.258   -13809.418 
  969800     268.2118   -11147.403    45.570841   -11192.974   -46623.315 
  970000    280.51257   -11124.944    47.660817   -11172.605   -22487.015 
  970200    321.25954   -11132.496    54.583979    -11187.08    -45911.82 
  970400    296.61921   -11142.294    50.397435   -11192.691   -2728.8672 
  970600    306.60226   -11121.185    52.093616   -11173.279    16045.467 
  970800    282.10842   -11134.322    47.931962   -11182.254    969.60504 
  971000      292.866   -11138.783    49.759741   -11188.543   -33813.728 
  971200    309.78795   -11134.424    52.634885   -11187.058   -29542.766 
  971400    300.53131   -11125.756    51.062124   -11176.818    60853.374 
  971600    346.97775   -11125.456    58.953661   -11184.409     6451.831 
  971800     286.2103   -11143.743    48.628897   -11192.372   -4344.6165 
  972000    277.22527   -11130.117    47.102285   -11177.219   -30283.205 
  972200    298.98878   -11125.484    50.800039   -11176.284    36934.839 
  972400    304.31281   -11138.549    51.704625   -11190.253    16330.538 
  972600    307.47682   -11141.523    52.242209   -11193.765   -5942.3279 
  972800    311.45866   -11121.434    52.918749   -11174.352    1360.1542 
  973000    287.39185   -11131.208    48.829649   -11180.038   -28406.404 
  973200    271.92532     -11143.5    46.201791   -11189.702    17580.165 
  973400    277.02405   -11128.695    47.068097   -11175.763   -7684.1934 
  973600    325.28852   -11131.391    55.268527   -11186.659    44368.147 
  973800    292.94918    -11140.62    49.773875   -11190.394      17924.4 
  974000    334.16453   -11135.661    56.776616   -11192.438    74049.464 
  974200    294.61433   -11124.768    50.056792   -11174.825    50662.191 
  974400    262.69696   -11144.977    44.633835   -11189.611    -71828.24 
  974600    314.24074   -11142.545    53.391442   -11195.936    22081.263 
  974800    305.10626   -11131.103    51.839437   -11182.943   -11829.501 
  975000    334.21648   -11121.041    56.785442   -11177.826    5389.9422 
  975200    309.86338   -11137.058    52.647701   -11189.706    22633.681 
  975400    232.81751   -11151.099    39.557132   -11190.656   -66929.855 
  975600    316.91432   -11136.467    53.845699   -11190.313    10092.402 
  975800    273.46307   -11132.897    46.463064    -11179.36   -37791.617 
  976000    332.93338   -11141.049    56.567436   -11197.616    -47396.95 
  976200    259.90677   -11148.004    44.159764   -11192.164    1487.8094 
  976400    299.74072   -11133.757    50.927799   -11184.685     47753.02 
  976600    315.98492   -11141.998    53.687789   -11195.686   -22915.789 
  976800    241.61735   -11152.525    41.052279   -11193.578   -11801.314 
  977000    304.65626   -11130.694    51.762979   -11182.457   -39776.236 
  977200    317.07016   -11134.536    53.872177   -11188.408    2113.2656 
  977400     283.9032    -11148.58    48.236907   -11196.817    -30757.79 
  977600    308.25213   -11128.324     52.37394   -11180.698   -26624.773 
  977800    293.93397   -11135.348    49.941196   -11185.289   -17836.172 
  978000    289.21366   -11142.311    49.139186    -11191.45   -42385.038 
  978200    337.40813   -11119.759    57.327723   -11177.087    33674.289 
  978400    277.21972   -11136.872    47.101342   -11183.973    34570.514 
  978600    311.44486   -11135.768    52.916404   -11188.685   -8782.3422 
  978800    264.75454   -11154.101    44.983431   -11199.085   -13280.178 
  979000    268.88116   -11141.288    45.684568   -11186.973   -1552.1855 
  979200    272.40892   -11129.513    46.283957   -11175.797    22207.408 
  979400    345.57638   -11132.046    58.715559   -11190.761   -10697.593 
  979600    254.46059   -11144.204    43.234424   -11187.438    34471.356 
  979800    281.64226   -11132.282    47.852759   -11180.135    13858.844 
  980000    374.42641   -11113.799    63.617359   -11177.417    32311.409 
  980200    325.10417   -11136.315    55.237205   -11191.553   -10803.906 
  980400    262.75776    -11138.41    44.644166   -11183.054   -14069.933 
  980600    364.42473   -11121.623    61.918012   -11183.541   -927.86731 
  980800    275.03575   -11142.016    46.730271   -11188.747   -28997.406 
  981000    312.30582   -11138.583    53.062686   -11191.646     73456.75 
  981200    273.97968   -11143.446    46.550839   -11189.997   -70841.055 
  981400    349.32719    -11128.52    59.352847   -11187.873    38839.335 
  981600    252.84527   -11136.735    42.959972   -11179.695    3009.8285 
  981800     275.7876   -11141.469    46.858015   -11188.327    45996.203 
  982000    275.96302   -11139.074    46.887821   -11185.962    24156.996 
  982200    336.68361    -11120.26    57.204624   -11177.465    4144.5592 
  982400    252.25753   -11133.637    42.860111   -11176.497   -7776.2887 
  982600    302.30872   -11138.367    51.364117   -11189.731   -9426.4245 
  982800    265.46072   -11150.947    45.103415   -11196.051    13139.502 
  983000    287.71715   -11135.558     48.88492   -11184.443    36632.313 
  983200    282.46283   -11138.717    47.992179   -11186.709    19856.867 
  983400    348.57256   -11119.588     59.22463   -11178.813    885.97832 
  983600     315.9929   -11134.212    53.689144   -11187.902    1572.4045 
  983800    284.60192   -11134.718    48.355623   -11183.073      24884.6 
  984000    242.73473   -11154.427    41.242129   -11195.669   -6158.8743 
  984200    319.87338   -11139.239    54.348462   -11193.588    37131.891 
  984400    316.20926   -11129.493    53.725906   -11183.219   -7206.6129 
  984600    321.72925   -11113.098    54.663786   -11167.761    59206.975 
  984800    295.15162   -11133.124    50.148083   -11183.272   -16105.177 
  985000    252.58693   -11143.799    42.916079   -11186.715    13315.675 
  985200    336.37643   -11128.747    57.152432     -11185.9   -30142.068 
  985400    319.28628   -11134.727     54.24871   -11188.976   -34391.733 
  985600    277.21491   -11140.308    47.100524   -11187.409   -39138.862 
  985800    317.66723   -11120.372    53.973623   -11174.345    11516.017 
  986000    414.57692   -11103.387    70.439177   -11173.827    53618.163 
  986200    337.84043   -11135.933    57.401175   -11193.334    62476.945 
  986400    286.88367   -11141.774    48.743307   -11190.518   -30866.513 
  986600    308.76509   -11124.877    52.461094   -11177.338    35000.987 
  986800    301.84942   -11139.857    51.286081   -11191.143   -10772.961 
  987000    286.90973   -11144.475    48.747733   -11193.223    25793.678 
  987200    301.60042   -11128.648    51.243774   -11179.892    5522.0762 
  987400     335.9348   -11131.642    57.077397    -11188.72    -26844.38 
  987600    286.45117   -11137.425    48.669822   -11186.095   -66118.592 
  987800     305.7123   -11128.106    51.942407   -11180.048   -36235.963 
  988000    272.23041   -11145.615    46.253627   -11191.869   -2157.7514 
  988200    323.14594   -11140.809    54.904491   -11195.714   -28790.507 
  988400    340.47532    -11112.66    57.848858   -11170.509    33677.319 
  988600    278.40323   -11131.065    47.302427   -11178.367    39212.745 
  988800    258.14859   -11139.092    43.861039   -11182.953   -18099.291 
  989000    343.55516   -11127.242    58.372143   -11185.615   -24921.509 
  989200    278.56024   -11145.134    47.329105   -11192.463    6887.7274 
  989400    309.99041   -11137.174    52.669285   -11189.843    31290.987 
  989600    318.35726    -11122.71    54.090863   -11176.801   -9834.3533 
  989800    321.41942   -11136.141    54.611144   -11190.752    28029.261 
  990000    330.78695   -11132.754    56.202744   -11188.957   -50157.711 
  990200    376.86466   -11127.454    64.031632   -11191.486   -34761.594 
  990400    298.89426   -11140.687    50.783979   -11191.471    18096.221 
  990600    265.27191   -11145.776    45.071335   -11190.847   -2539.4225 
  990800    282.65858   -11125.668    48.025437   -11173.693     -42526.5 
  991000    279.70285    -11135.15     47.52324   -11182.673    27692.222 
  991200    289.11661   -11138.797    49.122696   -11187.919   -4589.2084 
  991400    365.79379   -11135.231    62.150622   -11197.381     -4116.66 
  991600    237.20909   -11153.378    40.303288   -11193.682    231.82099 
  991800    313.71909   -11135.586     53.30281   -11188.889    9568.1414 
  992000    300.09217   -11132.011    50.987512   -11182.998   -6740.9043 
  992200    304.34689   -11130.206    51.710415   -11181.917   -17555.459 
  992400    267.28917   -11143.498    45.414079   -11188.912    22364.802 
  992600    356.09289   -11124.439    60.502379   -11184.942    31733.348 
  992800    335.19412   -11129.773     56.95155   -11186.724   -1038.2171 
  993000    333.81104   -11134.882    56.716556   -11191.598   -17790.821 
  993200    238.07657   -11149.763    40.450679   -11190.214    20339.142 
  993400    286.39941   -11142.625    48.661028   -11191.286    40923.247 
  993600    302.36672   -11136.954    51.373972   -11188.328   -55147.993 
  993800    292.97565   -11142.991    49.778372   -11192.769   -70064.286 
  994000    253.63893   -11144.406    43.094819   -11187.501    2348.9776 
  994200    284.10629   -11128.965    48.271413   -11177.237    54427.429 
  994400    239.97699   -11144.923    40.773572   -11185.697    12864.294 
  994600    350.98402   -11139.868    59.634352   -11199.503    43674.357 
  994800     301.5904   -11138.147     51.24207   -11189.389   -869.08792 
  995000    313.99565   -11136.176    53.349799   -11189.526   -7777.3518 
  995200    254.55024   -11143.786    43.249658   -11187.036   -15138.968 
  995400    346.79959    -11126.67     58.92339   -11185.594   -10754.487 
  995600    305.42711   -11137.108    51.893951   -11189.002   -49192.148 
  995800    308.60004   -11134.984    52.433052   -11187.417     57080.97 
  996000    300.79047   -11132.579    51.106157   -11183.685    89070.238 
  996200     327.8667   -11125.058    55.706577   -11180.765    24500.204 
  996400    297.44157    -11140.05    50.537158   -11190.587    46465.683 
  996600    290.97884   -11136.975    49.439101   -11186.414   -15320.112 
  996800    345.13271   -11119.183    58.640178   -11177.823    22165.899 
  997000    279.63729   -11141.722    47.512102   -11189.234    14123.752 
  997200    346.54355   -11127.726    58.879888   -11186.605   -16080.829 
  997400    320.34163   -11134.735    54.428021   -11189.163   -29015.483 
  997600    270.62146   -11146.666    45.980257   -11192.646    5817.5221 
  997800    302.62174   -11130.389    51.417302   -11181.807    12407.206 
  998000    270.57292   -11141.768    45.972009    -11187.74   -43957.081 
  998200    282.07949   -11147.155    47.927047   -11195.082    12390.418 
  998400    305.37962   -11132.715    51.885882     -11184.6    -29990.22 
  998600    337.11112   -11133.265     57.27726   -11190.542    55327.548 
  998800    300.50121   -11140.162     51.05701   -11191.219   -29605.638 
  999000    277.85083   -11139.119    47.208571   -11186.328    -8141.313 
  999200    308.84654   -11122.341    52.474934   -11174.816   -11759.677 
  999400    365.74907   -11129.238    62.143025   -11191.381   -37302.379 
  999600    322.14658   -11143.156    54.734692   -11197.891    89800.013 
  999800    300.69161   -11129.625    51.089361   -11180.714   -38521.883 
 1000000    286.20468   -11136.742    48.627941    -11185.37    63289.909 
Loop time of 9250.39 on 8 procs for 1000000 steps with 58 atoms

Performance: 2.335 ns/day, 10.278 hours/ns, 108.104 timesteps/s
99.2% CPU use with 8 MPI tasks x no OpenMP threads

MPI task timing breakdown:
Section |  min time  |  avg time  |  max time  |%varavg| %total
---------------------------------------------------------------
Pair    | 8409.8     | 8605.1     | 8765.5     | 113.5 | 93.02
Neigh   | 3.2306     | 3.3484     | 3.4895     |   4.5 |  0.04
Comm    | 84.302     | 244.68     | 439.81     | 672.9 |  2.65
Output  | 0.12464    | 0.13626    | 0.206      |   7.1 |  0.00
Modify  | 393.12     | 393.4      | 393.62     |   0.9 |  4.25
Other   |            | 3.748      |            |       |  0.04

Nlocal:    7.25 ave 12 max 3 min
Histogram: 2 0 1 1 0 0 1 2 0 1
Nghost:    1139.75 ave 1153 max 1124 min
Histogram: 2 0 0 2 0 0 0 0 2 2
Neighs:    2002.88 ave 3404 max 815 min
Histogram: 2 0 1 1 0 0 1 2 0 1

Total # of neighbors = 16023
Ave neighs/atom = 276.259
Neighbor list builds = 1500
Dangerous builds = 0

unfix 1
unfix output
undump 1

Please see the log.cite file for references relevant to this simulation

Total wall time: 2:35:26
