ITEM: TIMESTEP
0
ITEM: NUMBER OF ATOMS
49
ITEM: BOX BOUNDS pp pp pp
0.0000000000000000e+00 1.1000000000000000e+01
0.0000000000000000e+00 1.1002000000000001e+01
0.0000000000000000e+00 1.1000000000000000e+01
ITEM: ATOMS id type x y z 
10 1 4.603 4.603 4.603 
11 1 3.085 3.085 3.085 
12 1 3.796 3.796 3.796 
46 1 0.726 0.725 0.725 
47 1 2.26 2.259 2.26 
48 1 1.551 1.55 1.55 
19 1 4.546 4.545 6.226 
20 1 3.013 3.013 7.764 
21 1 3.721 3.721 7.053 
31 1 0.668 0.667 10.103 
32 1 2.187 2.187 8.589 
33 1 1.476 1.475 9.298 
16 1 4.546 6.225 4.546 
17 1 3.013 7.765 3.013 
18 1 3.721 7.053 3.722 
25 1 0.668 10.103 0.668 
26 1 2.188 8.589 2.188 
27 1 1.476 9.298 1.476 
4 1 4.608 6.169 6.169 
5 1 3.086 7.684 7.684 
6 1 3.799 6.974 6.974 
37 1 0.729 10.046 10.046 
38 1 2.259 8.509 8.508 
39 1 1.552 9.219 9.219 
13 1 6.225 4.546 4.546 
14 1 7.764 3.013 3.013 
15 1 7.053 3.721 3.722 
28 1 10.102 0.667 0.668 
29 1 8.589 2.187 2.188 
30 1 9.298 1.475 1.476 
1 1 6.168 4.608 6.169 
2 1 7.684 3.086 7.684 
3 1 6.974 3.799 6.974 
40 1 10.045 0.728 10.046 
41 1 8.508 2.259 8.508 
42 1 9.218 1.551 9.218 
7 1 6.169 6.169 4.608 
8 1 7.684 7.684 3.086 
9 1 6.974 6.974 3.799 
43 1 10.046 10.047 0.729 
44 1 8.508 8.509 2.259 
45 1 9.219 9.219 1.552 
22 1 6.229 6.229 6.229 
23 1 7.764 7.765 7.765 
24 1 7.055 7.056 7.055 
34 1 10.108 10.108 10.107 
35 1 8.59 8.59 8.59 
36 1 9.301 9.301 9.3 
49 2 7.439 7.526 8.783 
ITEM: TIMESTEP
10
ITEM: NUMBER OF ATOMS
49
ITEM: BOX BOUNDS pp pp pp
0.0000000000000000e+00 1.1000000000000000e+01
0.0000000000000000e+00 1.1002000000000001e+01
0.0000000000000000e+00 1.1000000000000000e+01
ITEM: ATOMS id type x y z 
10 1 4.59391 4.59405 4.59445 
11 1 3.08174 3.08146 3.08175 
12 1 3.78916 3.78951 3.78909 
46 1 0.734625 0.733667 0.733769 
47 1 2.26989 2.26892 2.26965 
48 1 1.56246 1.56162 1.56191 
19 1 4.53914 4.53947 6.23624 
20 1 3.00178 3.00183 7.77442 
21 1 3.70743 3.70721 7.06805 
31 1 0.67558 0.674809 10.0979 
32 1 2.19053 2.18982 8.58533 
33 1 1.48153 1.48194 9.2925 
16 1 4.53879 6.23558 4.53989 
17 1 3.00167 7.77512 3.00205 
18 1 3.70828 7.06777 3.70852 
25 1 0.678227 10.0984 0.675993 
26 1 2.19033 8.5853 2.19099 
27 1 1.48324 9.29337 1.48204 
4 1 4.56445 6.17087 6.17096 
5 1 3.08428 7.69307 7.69185 
6 1 3.7809 6.97674 6.97877 
37 1 0.750681 10.037 10.0363 
38 1 2.26925 8.49771 8.49731 
39 1 1.56742 9.20625 9.20539 
13 1 6.23589 4.53866 4.53916 
14 1 7.77482 3.00142 3.00216 
15 1 7.06754 3.70771 3.70754 
28 1 10.0975 0.677114 0.675247 
29 1 8.58488 2.18964 2.19118 
30 1 9.29328 1.48251 1.48226 
1 1 6.17057 4.56326 6.17116 
2 1 7.69254 3.08421 7.69141 
3 1 6.97718 3.78124 6.97947 
40 1 10.0362 0.749828 10.0364 
41 1 8.4973 2.26907 8.49725 
42 1 9.20589 1.56531 9.20588 
7 1 6.1711 6.17158 4.56385 
8 1 7.69199 7.69261 3.0849 
9 1 6.97786 6.97698 3.78016 
43 1 10.0351 10.0362 0.752182 
44 1 8.49579 8.49635 2.27029 
45 1 9.20533 9.20592 1.56829 
22 1 6.248 6.24277 6.2354 
23 1 7.77637 7.79328 7.81616 
24 1 7.03835 7.04161 7.01508 
34 1 10.1231 10.1292 10.1379 
35 1 8.70679 8.6818 8.51815 
36 1 9.35144 9.34507 9.31543 
49 2 7.2908 7.39214 8.83703 
ITEM: TIMESTEP
20
ITEM: NUMBER OF ATOMS
49
ITEM: BOX BOUNDS pp pp pp
0.0000000000000000e+00 1.1000000000000000e+01
0.0000000000000000e+00 1.1002000000000001e+01
0.0000000000000000e+00 1.1000000000000000e+01
ITEM: ATOMS id type x y z 
10 1 4.59343 4.59435 4.59322 
11 1 3.08177 3.08286 3.08167 
12 1 3.79136 3.78903 3.79157 
46 1 0.736623 0.736009 0.736695 
47 1 2.27219 2.27197 2.27207 
48 1 1.56555 1.56341 1.56461 
19 1 4.5373 4.53778 6.23897 
20 1 2.99952 2.99927 7.77612 
21 1 3.7063 3.70675 7.06986 
31 1 0.678261 0.677431 10.0967 
32 1 2.18856 2.18979 8.58629 
33 1 1.48268 1.47928 9.29368 
16 1 4.53452 6.2381 4.5378 
17 1 3.00021 7.77685 2.99984 
18 1 3.70546 7.06939 3.70739 
25 1 0.682365 10.0985 0.677364 
26 1 2.18917 8.58572 2.19023 
27 1 1.48357 9.29542 1.48108 
4 1 4.561 6.16752 6.1692 
5 1 3.08564 7.69188 7.69127 
6 1 3.77913 6.97488 6.97597 
37 1 0.757368 10.0424 10.0425 
38 1 2.26842 8.49585 8.49529 
39 1 1.57232 9.20851 9.20779 
13 1 6.23754 4.53431 4.53658 
14 1 7.77643 2.99972 2.99962 
15 1 7.06931 3.70536 3.70712 
28 1 10.0984 0.681538 0.678345 
29 1 8.58591 2.18889 2.19045 
30 1 9.29418 1.48208 1.48124 
1 1 6.1671 4.55973 6.16867 
2 1 7.69158 3.0856 7.69173 
3 1 6.97515 3.77888 6.97566 
40 1 10.0412 0.757198 10.0422 
41 1 8.49514 2.26836 8.49468 
42 1 9.20719 1.57151 9.20746 
7 1 6.16825 6.16768 4.55646 
8 1 7.691 7.69135 3.08617 
9 1 6.9751 6.97471 3.77854 
43 1 10.0404 10.0415 0.762383 
44 1 8.49349 8.49394 2.26972 
45 1 9.20636 9.20714 1.5748 
22 1 6.24258 6.23812 6.21764 
23 1 7.74497 7.76758 7.86077 
24 1 7.04725 7.04773 6.99026 
34 1 10.1252 10.1281 10.1419 
35 1 8.70053 8.67601 8.50501 
36 1 9.35817 9.34845 9.28659 
49 2 7.30601 7.40857 8.85778 
ITEM: TIMESTEP
30
ITEM: NUMBER OF ATOMS
49
ITEM: BOX BOUNDS pp pp pp
0.0000000000000000e+00 1.1000000000000000e+01
0.0000000000000000e+00 1.1002000000000001e+01
0.0000000000000000e+00 1.1000000000000000e+01
ITEM: ATOMS id type x y z 
10 1 4.59399 4.594 4.59438 
11 1 3.08389 3.08262 3.08374 
12 1 3.79159 3.79368 3.79183 
46 1 0.742253 0.740924 0.741671 
47 1 2.27559 2.27436 2.27508 
48 1 1.5675 1.56727 1.56746 
19 1 4.53536 4.53592 6.2411 
20 1 2.99811 2.99784 7.77738 
21 1 3.70485 3.70522 7.07111 
31 1 0.679829 0.67824 10.0995 
32 1 2.18867 2.18728 8.58672 
33 1 1.4799 1.48149 9.296 
16 1 4.52802 6.23768 4.53559 
17 1 2.99877 7.77913 2.99822 
18 1 3.70248 7.06947 3.70576 
25 1 0.684084 10.1022 0.679828 
26 1 2.18861 8.58625 2.18885 
27 1 1.48304 9.29759 1.48096 
4 1 4.56302 6.16518 6.16722 
5 1 3.08533 7.69042 7.69077 
6 1 3.77718 6.97384 6.97369 
37 1 0.759535 10.0446 10.0455 
38 1 2.26871 8.49683 8.4959 
39 1 1.57397 9.20968 9.20944 
13 1 6.23698 4.52722 4.53425 
14 1 7.7789 2.99788 2.99806 
15 1 7.06924 3.70216 3.70452 
28 1 10.1025 0.683544 0.680506 
29 1 8.58731 2.18783 2.1896 
30 1 9.29603 1.48189 1.47939 
1 1 6.16456 4.56004 6.1662 
2 1 7.69008 3.08412 7.69047 
3 1 6.97439 3.77837 6.97477 
40 1 10.0435 0.758112 10.0458 
41 1 8.49633 2.26752 8.4957 
42 1 9.20956 1.57399 9.21008 
7 1 6.16378 6.16313 4.55031 
8 1 7.6911 7.69091 3.08521 
9 1 6.97283 6.97349 3.77382 
43 1 10.0437 10.0444 0.764778 
44 1 8.49536 8.49528 2.26928 
45 1 9.20844 9.21018 1.57598 
22 1 6.24033 6.23599 6.1985 
23 1 7.71402 7.74105 7.9087 
24 1 7.05913 7.05803 6.96865 
34 1 10.1274 10.1298 10.1419 
35 1 8.69972 8.67528 8.48303 
36 1 9.36557 9.35235 9.2488 
49 2 7.30601 7.41276 8.90295 
ITEM: TIMESTEP
40
ITEM: NUMBER OF ATOMS
49
ITEM: BOX BOUNDS pp pp pp
0.0000000000000000e+00 1.1000000000000000e+01
0.0000000000000000e+00 1.1002000000000001e+01
0.0000000000000000e+00 1.1000000000000000e+01
ITEM: ATOMS id type x y z 
10 1 4.59218 4.59858 4.59752 
11 1 3.08544 3.08986 3.08497 
12 1 3.79714 3.78899 3.79955 
46 1 0.747179 0.747836 0.7451 
47 1 2.27958 2.28125 2.28017 
48 1 1.57484 1.569 1.57228 
19 1 4.53788 4.53864 6.24643 
20 1 2.99749 2.99726 7.77685 
21 1 3.70464 3.7051 7.07223 
31 1 0.678628 0.682422 10.1068 
32 1 2.18381 2.18938 8.58697 
33 1 1.48657 1.47497 9.29944 
16 1 4.52172 6.23476 4.53466 
17 1 2.99819 7.77921 2.99655 
18 1 3.69736 7.06986 3.70499 
25 1 0.67942 10.1071 0.682381 
26 1 2.18673 8.58777 2.1859 
27 1 1.48263 9.30364 1.48173 
4 1 4.57451 6.16506 6.16525 
5 1 3.07825 7.68426 7.68443 
6 1 3.78878 6.97701 6.97819 
37 1 0.752229 10.0419 10.0438 
38 1 2.27251 8.49899 8.50004 
39 1 1.57203 9.21095 9.20721 
13 1 6.23429 4.51998 4.53337 
14 1 7.77985 2.99614 2.99598 
15 1 7.06793 3.69741 3.70316 
28 1 10.1079 0.678303 0.678936 
29 1 8.58497 2.18845 2.18279 
30 1 9.30771 1.47984 1.48962 
1 1 6.16633 4.57679 6.16615 
2 1 7.68688 3.08218 7.68628 
3 1 6.97331 3.77996 6.974 
40 1 10.0419 0.750628 10.0424 
41 1 8.50093 2.27296 8.50128 
42 1 9.20569 1.56745 9.20686 
7 1 6.16271 6.1578 4.54688 
8 1 7.69452 7.68924 3.07908 
9 1 6.96768 6.9777 3.76377 
43 1 10.041 10.0433 0.74407 
44 1 8.50256 8.50474 2.27149 
45 1 9.21244 9.2101 1.56724 
22 1 6.25026 6.24563 6.1783 
23 1 7.67665 7.70626 7.97601 
24 1 7.08282 7.07944 6.95228 
34 1 10.1282 10.1235 10.1118 
35 1 8.69736 8.67163 8.43271 
36 1 9.35133 9.34087 9.21315 
49 2 7.29617 7.41283 9.00801 
ITEM: TIMESTEP
50
ITEM: NUMBER OF ATOMS
49
ITEM: BOX BOUNDS pp pp pp
0.0000000000000000e+00 1.1000000000000000e+01
0.0000000000000000e+00 1.1002000000000001e+01
0.0000000000000000e+00 1.1000000000000000e+01
ITEM: ATOMS id type x y z 
10 1 4.59457 4.59595 4.60111 
11 1 3.08789 3.08807 3.0878 
12 1 3.79509 3.79508 3.79797 
46 1 0.746922 0.745125 0.744687 
47 1 2.27974 2.27891 2.27928 
48 1 1.57299 1.57182 1.57173 
19 1 4.54042 4.54112 6.24732 
20 1 2.99733 2.99743 7.77544 
21 1 3.70614 3.70651 7.07341 
31 1 0.679527 0.679116 10.1064 
32 1 2.18669 2.18627 8.58737 
33 1 1.48115 1.48048 9.29925 
16 1 4.52256 6.23524 4.53645 
17 1 2.99674 7.77952 2.99636 
18 1 3.69864 7.06921 3.70471 
25 1 0.678906 10.1083 0.681133 
26 1 2.18733 8.58991 2.18593 
27 1 1.48049 9.30146 1.48077 
4 1 4.58023 6.16767 6.16782 
5 1 3.08186 7.68522 7.686 
6 1 3.78349 6.97421 6.97452 
37 1 0.749903 10.0432 10.0429 
38 1 2.27306 8.49932 8.49869 
39 1 1.57253 9.20933 9.20863 
13 1 6.23391 4.52153 4.53504 
14 1 7.77874 2.99604 2.99589 
15 1 7.06798 3.69775 3.70399 
28 1 10.1097 0.67751 0.680917 
29 1 8.59035 2.18681 2.18615 
30 1 9.30152 1.48 1.4807 
1 1 6.16731 4.57758 6.16642 
2 1 7.68577 3.08132 7.68577 
3 1 6.97456 3.78266 6.97436 
40 1 10.0419 0.745576 10.0422 
41 1 8.49906 2.27183 8.49977 
42 1 9.2087 1.57046 9.20914 
7 1 6.16044 6.15993 4.54399 
8 1 7.69105 7.69118 3.07709 
9 1 6.97342 6.97349 3.76464 
43 1 10.0413 10.042 0.738996 
44 1 8.5043 8.50469 2.27141 
45 1 9.21191 9.21245 1.56578 
22 1 6.25439 6.24986 6.17794 
23 1 7.66746 7.69762 7.98468 
24 1 7.08122 7.07777 6.95402 
34 1 10.1218 10.12 10.1053 
35 1 8.69517 8.67151 8.43374 
36 1 9.35744 9.34371 9.20636 
49 2 7.29749 7.41513 9.01904 
ITEM: TIMESTEP
60
ITEM: NUMBER OF ATOMS
49
ITEM: BOX BOUNDS pp pp pp
0.0000000000000000e+00 1.1000000000000000e+01
0.0000000000000000e+00 1.1002000000000001e+01
0.0000000000000000e+00 1.1000000000000000e+01
ITEM: ATOMS id type x y z 
10 1 4.60154 4.59878 4.6162 
11 1 3.09387 3.08917 3.09262 
12 1 3.79216 3.80225 3.80468 
46 1 0.740069 0.739124 0.741241 
47 1 2.27847 2.27735 2.2765 
48 1 1.57112 1.57009 1.57064 
19 1 4.55678 4.55678 6.26232 
20 1 2.99919 2.99922 7.76925 
21 1 3.71322 3.71322 7.07869 
31 1 0.675081 0.674364 10.1014 
32 1 2.18446 2.18248 8.58029 
33 1 1.48582 1.48954 9.31063 
16 1 4.52689 6.23917 4.54238 
17 1 2.99471 7.77552 2.99681 
18 1 3.6988 7.06969 3.70694 
25 1 0.669139 10.1096 0.672382 
26 1 2.18756 8.59581 2.18478 
27 1 1.47464 9.29968 1.47901 
4 1 4.59919 6.17867 6.17015 
5 1 3.08166 7.68135 7.68365 
6 1 3.79278 6.97734 6.97482 
37 1 0.742732 10.0395 10.033 
38 1 2.27807 8.49807 8.49719 
39 1 1.57479 9.20592 9.20669 
13 1 6.23705 4.52667 4.54081 
14 1 7.77623 2.99344 2.99492 
15 1 7.0693 3.6955 3.70512 
28 1 10.1072 0.669564 0.673418 
29 1 8.60037 2.18607 2.18597 
30 1 9.29556 1.47229 1.47269 
1 1 6.17975 4.59554 6.16959 
2 1 7.6831 3.07948 7.68587 
3 1 6.97877 3.78869 6.9754 
40 1 10.0387 0.740025 10.0344 
41 1 8.49854 2.27694 8.49959 
42 1 9.2061 1.56956 9.20525 
7 1 6.16334 6.16279 4.53173 
8 1 7.69323 7.69585 3.06637 
9 1 6.97803 6.9731 3.75085 
43 1 10.0335 10.0349 0.706591 
44 1 8.51172 8.51415 2.2689 
45 1 9.2171 9.21432 1.5537 
22 1 6.27589 6.27135 6.16491 
23 1 7.6277 7.6595 8.05462 
24 1 7.07568 7.07285 6.9864 
34 1 10.1123 10.1091 10.0617 
35 1 8.67338 8.65327 8.40879 
36 1 9.34304 9.33028 9.17163 
49 2 7.30265 7.42899 9.11753 
ITEM: TIMESTEP
70
ITEM: NUMBER OF ATOMS
49
ITEM: BOX BOUNDS pp pp pp
0.0000000000000000e+00 1.1000000000000000e+01
0.0000000000000000e+00 1.1002000000000001e+01
0.0000000000000000e+00 1.1000000000000000e+01
ITEM: ATOMS id type x y z 
10 1 4.59877 4.60043 4.61605 
11 1 3.09075 3.09123 3.09234 
12 1 3.79599 3.79671 3.80484 
46 1 0.7402 0.739097 0.740792 
47 1 2.27827 2.27702 2.27635 
48 1 1.57162 1.57049 1.57084 
19 1 4.55706 4.55644 6.26243 
20 1 2.99991 2.99976 7.76904 
21 1 3.71375 3.71374 7.07818 
31 1 0.678117 0.677551 10.109 
32 1 2.18696 2.18671 8.58468 
33 1 1.4832 1.48406 9.3005 
16 1 4.52705 6.23791 4.54133 
17 1 2.99399 7.77628 2.99682 
18 1 3.69842 7.06984 3.70609 
25 1 0.670136 10.1083 0.672946 
26 1 2.18545 8.59423 2.18486 
27 1 1.47742 9.30264 1.47829 
4 1 4.60046 6.17913 6.1697 
5 1 3.08236 7.68156 7.68388 
6 1 3.79341 6.97773 6.97446 
37 1 0.742312 10.0398 10.0325 
38 1 2.27911 8.49777 8.49925 
39 1 1.57199 9.20688 9.20385 
13 1 6.2365 4.52523 4.53964 
14 1 7.77613 2.9928 2.99593 
15 1 7.06948 3.6969 3.70443 
28 1 10.1055 0.668323 0.671198 
29 1 8.59499 2.18445 2.18433 
30 1 9.30272 1.47656 1.47753 
1 1 6.18017 4.59623 6.16862 
2 1 7.68233 3.08036 7.68506 
3 1 6.97899 3.79072 6.97521 
40 1 10.0387 0.738486 10.0319 
41 1 8.4982 2.27698 8.50014 
42 1 9.20664 1.56909 9.20427 
7 1 6.16408 6.16147 4.53006 
8 1 7.69436 7.69521 3.06452 
9 1 6.97736 6.97597 3.75077 
43 1 10.0339 10.0335 0.70483 
44 1 8.51339 8.51405 2.27038 
45 1 9.21356 9.21379 1.54974 
22 1 6.2761 6.27075 6.16437 
23 1 7.62965 7.66154 8.05942 
24 1 7.0712 7.06905 6.99341 
34 1 10.114 10.1097 10.0606 
35 1 8.67293 8.65313 8.40928 
36 1 9.3436 9.3306 9.17059 
49 2 7.29979 7.42678 9.12369 
ITEM: TIMESTEP
80
ITEM: NUMBER OF ATOMS
49
ITEM: BOX BOUNDS pp pp pp
0.0000000000000000e+00 1.1000000000000000e+01
0.0000000000000000e+00 1.1002000000000001e+01
0.0000000000000000e+00 1.1000000000000000e+01
ITEM: ATOMS id type x y z 
10 1 4.59839 4.60012 4.61594 
11 1 3.09063 3.09113 3.09247 
12 1 3.79598 3.79666 3.80503 
46 1 0.740379 0.739441 0.741201 
47 1 2.27893 2.27772 2.27702 
48 1 1.5718 1.57065 1.5711 
19 1 4.5572 4.5566 6.26229 
20 1 3.00012 3.00009 7.76915 
21 1 3.71409 3.71388 7.07817 
31 1 0.679078 0.678719 10.1092 
32 1 2.18751 2.18775 8.58597 
33 1 1.48222 1.48218 9.2978 
16 1 4.52733 6.23759 4.54077 
17 1 2.99402 7.77636 2.99703 
18 1 3.69814 7.06971 3.70593 
25 1 0.67042 10.1076 0.672676 
26 1 2.18542 8.59452 2.18501 
27 1 1.47707 9.30196 1.4779 
4 1 4.6008 6.1794 6.16929 
5 1 3.08275 7.68151 7.68398 
6 1 3.79372 6.97817 6.97445 
37 1 0.741856 10.0401 10.0318 
38 1 2.27883 8.49783 8.49931 
39 1 1.5721 9.20698 9.20393 
13 1 6.2363 4.52535 4.53906 
14 1 7.77639 2.99269 2.99593 
15 1 7.06914 3.69672 3.70452 
28 1 10.1052 0.668513 0.670912 
29 1 8.59527 2.18473 2.18453 
30 1 9.30184 1.47575 1.47715 
1 1 6.18046 4.59665 6.16831 
2 1 7.68235 3.08083 7.68518 
3 1 6.97903 3.79103 6.97482 
40 1 10.0391 0.73781 10.0312 
41 1 8.49816 2.27679 8.50015 
42 1 9.20682 1.56911 9.20436 
7 1 6.16407 6.16138 4.52925 
8 1 7.69467 7.69515 3.06394 
9 1 6.97724 6.97643 3.75064 
43 1 10.0337 10.0332 0.703632 
44 1 8.5137 8.51434 2.27002 
45 1 9.21363 9.21394 1.54857 
22 1 6.27626 6.27074 6.16425 
23 1 7.6293 7.66137 8.06209 
24 1 7.06932 7.06745 6.99695 
34 1 10.1146 10.1103 10.0603 
35 1 8.67287 8.65319 8.40949 
36 1 9.34393 9.33081 9.17009 
49 2 7.29883 7.42606 9.12618 
ITEM: TIMESTEP
90
ITEM: NUMBER OF ATOMS
49
ITEM: BOX BOUNDS pp pp pp
0.0000000000000000e+00 1.1000000000000000e+01
0.0000000000000000e+00 1.1002000000000001e+01
0.0000000000000000e+00 1.1000000000000000e+01
ITEM: ATOMS id type x y z 
10 1 4.59835 4.59993 4.61595 
11 1 3.09066 3.09103 3.09253 
12 1 3.79582 3.79674 3.80507 
46 1 0.740325 0.739396 0.741206 
47 1 2.27885 2.27763 2.27693 
48 1 1.57174 1.57066 1.57111 
19 1 4.55728 4.55668 6.26225 
20 1 3.0002 3.00021 7.7692 
21 1 3.71421 3.71395 7.07816 
31 1 0.67928 0.678872 10.1092 
32 1 2.18748 2.18771 8.5858 
33 1 1.48235 1.48229 9.29797 
16 1 4.52739 6.2375 4.54059 
17 1 2.99395 7.77641 2.99706 
18 1 3.69814 7.06969 3.70588 
25 1 0.670525 10.1077 0.672634 
26 1 2.18533 8.5945 2.18501 
27 1 1.47709 9.30198 1.47787 
4 1 4.60094 6.17953 6.16913 
5 1 3.08289 7.68158 7.68396 
6 1 3.79382 6.97815 6.97453 
37 1 0.741878 10.0402 10.0316 
38 1 2.27883 8.49777 8.49927 
39 1 1.57216 9.20699 9.20387 
13 1 6.23623 4.52542 4.53886 
14 1 7.77642 2.99272 2.99597 
15 1 7.0691 3.6966 3.70453 
28 1 10.1056 0.668576 0.671016 
29 1 8.59539 2.18467 2.18467 
30 1 9.30154 1.47571 1.47684 
1 1 6.18057 4.59686 6.16819 
2 1 7.6824 3.08105 7.68523 
3 1 6.979 3.791 6.9747 
40 1 10.0392 0.737787 10.031 
41 1 8.49808 2.27683 8.50015 
42 1 9.20684 1.56907 9.20424 
7 1 6.16404 6.16143 4.52906 
8 1 7.6947 7.69525 3.06379 
9 1 6.97735 6.97638 3.75049 
43 1 10.0336 10.0332 0.703281 
44 1 8.51367 8.51438 2.26988 
45 1 9.21373 9.21393 1.54835 
22 1 6.27632 6.27074 6.16423 
23 1 7.62912 7.66126 8.06303 
24 1 7.06866 7.06689 6.99816 
34 1 10.1147 10.1103 10.0601 
35 1 8.67281 8.65315 8.40954 
36 1 9.34403 9.33089 9.1699 
49 2 7.29852 7.42584 9.12703 
ITEM: TIMESTEP
100
ITEM: NUMBER OF ATOMS
49
ITEM: BOX BOUNDS pp pp pp
0.0000000000000000e+00 1.1000000000000000e+01
0.0000000000000000e+00 1.1002000000000001e+01
0.0000000000000000e+00 1.1000000000000000e+01
ITEM: ATOMS id type x y z 
10 1 4.59834 4.59992 4.61595 
11 1 3.09066 3.09102 3.09254 
12 1 3.79582 3.79675 3.80506 
46 1 0.740324 0.739397 0.741212 
47 1 2.27885 2.27763 2.27694 
48 1 1.57174 1.57066 1.57112 
19 1 4.55728 4.55668 6.26225 
20 1 3.00021 3.00022 7.7692 
21 1 3.71422 3.71395 7.07817 
31 1 0.679288 0.678881 10.1091 
32 1 2.18748 2.18771 8.58579 
33 1 1.48237 1.4823 9.29799 
16 1 4.5274 6.23749 4.54058 
17 1 2.99394 7.7764 2.99706 
18 1 3.69814 7.06969 3.70588 
25 1 0.670534 10.1076 0.672623 
26 1 2.18533 8.59449 2.185 
27 1 1.47707 9.30198 1.47788 
4 1 4.60095 6.17954 6.16911 
5 1 3.0829 7.68158 7.68397 
6 1 3.79383 6.97815 6.97453 
37 1 0.741887 10.0402 10.0316 
38 1 2.27884 8.49776 8.49928 
39 1 1.57215 9.20699 9.20385 
13 1 6.23623 4.52542 4.53885 
14 1 7.77642 2.99272 2.99597 
15 1 7.0691 3.6966 3.70453 
28 1 10.1055 0.668574 0.671003 
29 1 8.59538 2.18466 2.18467 
30 1 9.30155 1.47571 1.47685 
1 1 6.18058 4.59687 6.16818 
2 1 7.6824 3.08107 7.68523 
3 1 6.979 3.79101 6.9747 
40 1 10.0392 0.737796 10.031 
41 1 8.49807 2.27685 8.50016 
42 1 9.20684 1.56904 9.2042 
7 1 6.16404 6.16143 4.52904 
8 1 7.69471 7.69524 3.06378 
9 1 6.97735 6.9764 3.75049 
43 1 10.0336 10.0332 0.703258 
44 1 8.51368 8.51439 2.26987 
45 1 9.21373 9.21392 1.54831 
22 1 6.27633 6.27074 6.16423 
23 1 7.6291 7.66125 8.06311 
24 1 7.06861 7.06685 6.99826 
34 1 10.1147 10.1103 10.0601 
35 1 8.6728 8.65315 8.40954 
36 1 9.34403 9.3309 9.16989 
49 2 7.2985 7.42582 9.1271 
ITEM: TIMESTEP
102
ITEM: NUMBER OF ATOMS
49
ITEM: BOX BOUNDS pp pp pp
0.0000000000000000e+00 1.1000000000000000e+01
0.0000000000000000e+00 1.1002000000000001e+01
0.0000000000000000e+00 1.1000000000000000e+01
ITEM: ATOMS id type x y z 
10 1 4.59834 4.59992 4.61595 
11 1 3.09066 3.09102 3.09254 
12 1 3.79582 3.79675 3.80506 
46 1 0.740324 0.739397 0.741212 
47 1 2.27885 2.27763 2.27694 
48 1 1.57174 1.57066 1.57112 
19 1 4.55728 4.55668 6.26225 
20 1 3.00021 3.00022 7.7692 
21 1 3.71422 3.71395 7.07817 
31 1 0.679289 0.678881 10.1091 
32 1 2.18748 2.18771 8.58579 
33 1 1.48237 1.4823 9.29799 
16 1 4.5274 6.23749 4.54058 
17 1 2.99394 7.7764 2.99706 
18 1 3.69814 7.06969 3.70588 
25 1 0.670533 10.1076 0.672623 
26 1 2.18533 8.59449 2.185 
27 1 1.47708 9.30198 1.47788 
4 1 4.60095 6.17954 6.16911 
5 1 3.0829 7.68159 7.68397 
6 1 3.79383 6.97815 6.97453 
37 1 0.741887 10.0402 10.0316 
38 1 2.27884 8.49776 8.49928 
39 1 1.57215 9.20699 9.20385 
13 1 6.23623 4.52542 4.53885 
14 1 7.77642 2.99272 2.99597 
15 1 7.0691 3.6966 3.70453 
28 1 10.1055 0.668573 0.671003 
29 1 8.59538 2.18466 2.18467 
30 1 9.30155 1.47571 1.47685 
1 1 6.18058 4.59687 6.16818 
2 1 7.6824 3.08107 7.68523 
3 1 6.979 3.79102 6.9747 
40 1 10.0392 0.737796 10.031 
41 1 8.49807 2.27685 8.50016 
42 1 9.20684 1.56904 9.20421 
7 1 6.16404 6.16143 4.52904 
8 1 7.69471 7.69524 3.06378 
9 1 6.97734 6.9764 3.75049 
43 1 10.0336 10.0332 0.703257 
44 1 8.51368 8.51439 2.26987 
45 1 9.21373 9.21392 1.54831 
22 1 6.27633 6.27074 6.16423 
23 1 7.6291 7.66125 8.06311 
24 1 7.06861 7.06685 6.99826 
34 1 10.1147 10.1103 10.0601 
35 1 8.6728 8.65315 8.40954 
36 1 9.34403 9.3309 9.16988 
49 2 7.2985 7.42582 9.1271 
ITEM: TIMESTEP
110
ITEM: NUMBER OF ATOMS
49
ITEM: BOX BOUNDS pp pp pp
-2.7570504668118722e-03 1.1002757050466814e+01
-2.7268335613337834e-03 1.1004726833561335e+01
-3.9986577296790707e-03 1.1003998657729683e+01
ITEM: ATOMS id type x y z 
10 1 4.59812 4.59972 4.61553 
11 1 3.08951 3.0899 3.09085 
12 1 3.7949 3.7958 3.80377 
46 1 0.737754 0.736855 0.737561 
47 1 2.27716 2.27596 2.27451 
48 1 1.56963 1.56856 1.56813 
19 1 4.55697 4.55639 6.26259 
20 1 2.99905 2.99908 7.77078 
21 1 3.71349 3.71321 7.07917 
31 1 0.676647 0.676275 10.1127 
32 1 2.18575 2.18602 8.58809 
33 1 1.48044 1.48037 9.30066 
16 1 4.5271 6.23765 4.54004 
17 1 2.99276 7.77745 2.99533 
18 1 3.6974 7.07032 3.70474 
25 1 0.667872 10.1101 0.668865 
26 1 2.18359 8.59608 2.18253 
27 1 1.47515 9.3038 1.47502 
4 1 4.60057 6.17964 6.1693 
5 1 3.08176 7.68262 7.68547 
6 1 3.79293 6.97893 6.97571 
37 1 0.739283 10.0427 10.0351 
38 1 2.27714 8.49931 8.50155 
39 1 1.57003 9.209 9.20669 
13 1 6.2364 4.52512 4.53831 
14 1 7.77748 2.99155 2.99424 
15 1 7.06972 3.69586 3.70338 
28 1 10.1081 0.665935 0.667248 
29 1 8.59699 2.18294 2.18219 
30 1 9.30338 1.47381 1.47398 
1 1 6.18067 4.5965 6.16837 
2 1 7.68344 3.07994 7.68674 
3 1 6.9798 3.79012 6.97588 
40 1 10.0417 0.735214 10.0345 
41 1 8.49965 2.27517 8.50243 
42 1 9.20886 1.56694 9.20704 
7 1 6.16414 6.16151 4.52843 
8 1 7.69575 7.69626 3.06207 
9 1 6.97815 6.97723 3.74911 
43 1 10.0361 10.0356 0.699556 
44 1 8.51527 8.51598 2.26741 
45 1 9.21575 9.2159 1.54527 
22 1 6.2766 6.271 6.16458 
23 1 7.63017 7.66232 8.06506 
24 1 7.06924 7.06748 6.99938 
34 1 10.1172 10.1129 10.0636 
35 1 8.67444 8.65476 8.41176 
36 1 9.3459 9.33274 9.17245 
49 2 7.29938 7.42676 9.12981 
ITEM: TIMESTEP
120
ITEM: NUMBER OF ATOMS
49
ITEM: BOX BOUNDS pp pp pp
-4.4914777869825995e-03 1.1004491477786987e+01
-4.3771311708701273e-03 1.1006377131170874e+01
-9.1023340357450268e-03 1.1009102334035754e+01
ITEM: ATOMS id type x y z 
10 1 4.59857 4.60012 4.61544 
11 1 3.08894 3.0893 3.08886 
12 1 3.79409 3.79514 3.8019 
46 1 0.735647 0.734815 0.732556 
47 1 2.27567 2.27451 2.27109 
48 1 1.56815 1.56716 1.56418 
19 1 4.55727 4.55667 6.26265 
20 1 2.99881 2.99885 7.77245 
21 1 3.71316 3.71297 7.08036 
31 1 0.674491 0.674092 10.1177 
32 1 2.18456 2.18477 8.5911 
33 1 1.47936 1.47955 9.30398 
16 1 4.5274 6.23727 4.53968 
17 1 2.99244 7.77767 2.99353 
18 1 3.69708 7.07049 3.70328 
25 1 0.665685 10.1123 0.663606 
26 1 2.18239 8.59725 2.17926 
27 1 1.47401 9.3046 1.47152 
4 1 4.60068 6.17907 6.16911 
5 1 3.08131 7.68312 7.68739 
6 1 3.79203 6.97958 6.97718 
37 1 0.737116 10.0447 10.0398 
38 1 2.27566 8.5007 8.5048 
39 1 1.56851 9.21033 9.21036 
13 1 6.23603 4.52543 4.53794 
14 1 7.77772 2.99126 2.99242 
15 1 7.06995 3.69558 3.70196 
28 1 10.1103 0.663813 0.661937 
29 1 8.59815 2.18179 2.17886 
30 1 9.30433 1.47271 1.47059 
1 1 6.18012 4.59662 6.16817 
2 1 7.68397 3.07954 7.68864 
3 1 6.98046 3.78925 6.97735 
40 1 10.0438 0.733107 10.0392 
41 1 8.50109 2.27373 8.50569 
42 1 9.21026 1.56547 9.21072 
7 1 6.16357 6.16104 4.52799 
8 1 7.69626 7.69683 3.06002 
9 1 6.9789 6.97776 3.74704 
43 1 10.0381 10.0376 0.69442 
44 1 8.51673 8.51734 2.26385 
45 1 9.21713 9.21733 1.54128 
22 1 6.27642 6.27079 6.16472 
23 1 7.63085 7.66299 8.06772 
24 1 7.06915 7.0674 7.0009 
34 1 10.1195 10.115 10.0684 
35 1 8.67557 8.65586 8.41488 
36 1 9.34693 9.3337 9.1755 
49 2 7.29988 7.4273 9.13339 
ITEM: TIMESTEP
130
ITEM: NUMBER OF ATOMS
49
ITEM: BOX BOUNDS pp pp pp
-5.4493470075057194e-03 1.1005449347007509e+01
-5.2675279845207012e-03 1.1007267527984524e+01
-1.2925827000365488e-02 1.1012925827000378e+01
ITEM: ATOMS id type x y z 
10 1 4.59923 4.60081 4.61561 
11 1 3.08869 3.08912 3.08742 
12 1 3.79352 3.79453 3.80047 
46 1 0.734073 0.733307 0.728465 
47 1 2.27439 2.27329 2.26813 
48 1 1.56729 1.56635 1.56131 
19 1 4.55782 4.55724 6.26233 
20 1 2.99915 2.99923 7.77338 
21 1 3.71304 3.71285 7.0813 
31 1 0.672891 0.672578 10.1217 
32 1 2.18378 2.18407 8.59342 
33 1 1.47899 1.47916 9.3063 
16 1 4.52801 6.23662 4.53966 
17 1 2.9927 7.77733 2.99254 
18 1 3.69692 7.07058 3.70219 
25 1 0.664008 10.1139 0.659355 
26 1 2.18154 8.59793 2.17676 
27 1 1.47363 9.30496 1.46897 
4 1 4.601 6.17829 6.16856 
5 1 3.08121 7.68329 7.68877 
6 1 3.79144 6.98012 6.97839 
37 1 0.735473 10.0462 10.0436 
38 1 2.2744 8.50189 8.50759 
39 1 1.56765 9.21108 9.21306 
13 1 6.23542 4.52605 4.53793 
14 1 7.77743 2.99156 2.99143 
15 1 7.07003 3.69542 3.70085 
28 1 10.1119 0.662174 0.657686 
29 1 8.59887 2.18097 2.17635 
30 1 9.30472 1.47238 1.46803 
1 1 6.17933 4.59695 6.16762 
2 1 7.68416 3.07946 7.69 
3 1 6.98102 3.78868 6.97855 
40 1 10.0453 0.731499 10.0431 
41 1 8.50231 2.27249 8.50849 
42 1 9.21106 1.56465 9.21342 
7 1 6.16288 6.16027 4.52793 
8 1 7.69654 7.69698 3.0585 
9 1 6.97933 6.97834 3.74538 
43 1 10.0397 10.0391 0.690222 
44 1 8.51797 8.51857 2.26075 
45 1 9.21798 9.21809 1.53827 
22 1 6.27598 6.27033 6.16453 
23 1 7.63122 7.66335 8.06983 
24 1 7.06858 7.06687 7.00218 
34 1 10.1211 10.1166 10.0723 
35 1 8.6762 8.6565 8.41751 
36 1 9.34743 9.33413 9.17761 
49 2 7.30014 7.42757 9.13616 
ITEM: TIMESTEP
140
ITEM: NUMBER OF ATOMS
49
ITEM: BOX BOUNDS pp pp pp
-7.7337628797557621e-03 1.1007733762879759e+01
-7.5247700297257827e-03 1.1009524770029731e+01
-1.6838460105577723e-02 1.1016838460105594e+01
ITEM: ATOMS id type x y z 
10 1 4.59958 4.60125 4.6157 
11 1 3.08783 3.08837 3.08593 
12 1 3.79259 3.79342 3.79903 
46 1 0.731312 0.730591 0.724229 
47 1 2.2723 2.27124 2.26508 
48 1 1.56549 1.56454 1.5584 
19 1 4.55816 4.55769 6.26201 
20 1 2.99887 2.99909 7.77437 
21 1 3.71254 3.71212 7.08223 
31 1 0.670078 0.670064 10.1259 
32 1 2.18208 2.18271 8.59582 
33 1 1.47792 1.47748 9.30861 
16 1 4.5284 6.23607 4.53966 
17 1 2.99231 7.77748 2.9915 
18 1 3.69639 7.0712 3.70108 
25 1 0.661075 10.1164 0.655047 
26 1 2.17974 8.59923 2.1742 
27 1 1.47256 9.30652 1.46635 
4 1 4.60124 6.17792 6.16795 
5 1 3.08065 7.68422 7.6901 
6 1 3.79021 6.98065 6.97978 
37 1 0.732646 10.0488 10.0476 
38 1 2.27232 8.50376 8.51052 
39 1 1.56589 9.21289 9.21567 
13 1 6.2349 4.52643 4.53794 
14 1 7.7776 2.99119 2.99042 
15 1 7.07063 3.69489 3.69971 
28 1 10.1147 0.659263 0.653541 
29 1 8.60039 2.17921 2.17397 
30 1 9.30591 1.47128 1.46506 
1 1 6.17896 4.59722 6.16703 
2 1 7.68508 3.07893 7.69134 
3 1 6.98156 3.78743 6.9799 
40 1 10.048 0.728667 10.047 
41 1 8.50419 2.27041 8.51142 
42 1 9.2129 1.5629 9.21604 
7 1 6.16239 6.15975 4.52791 
8 1 7.69734 7.6977 3.05689 
9 1 6.98018 6.97928 3.7437 
43 1 10.0423 10.0419 0.685896 
44 1 8.51987 8.52065 2.25756 
45 1 9.21988 9.21962 1.53514 
22 1 6.27566 6.26998 6.16428 
23 1 7.63207 7.66422 8.07195 
24 1 7.06823 7.06659 7.00366 
34 1 10.1239 10.1193 10.0762 
35 1 8.6775 8.65785 8.42035 
36 1 9.34892 9.33558 9.17977 
49 2 7.30085 7.42835 9.13897 
ITEM: TIMESTEP
150
ITEM: NUMBER OF ATOMS
49
ITEM: BOX BOUNDS pp pp pp
-1.1239853881643712e-02 1.1011239853881650e+01
-1.1076641419782608e-02 1.1013076641419786e+01
-2.0785241666244691e-02 1.1020785241666262e+01
ITEM: ATOMS id type x y z 
10 1 4.59978 4.60157 4.61604 
11 1 3.0864 3.08706 3.08457 
12 1 3.79124 3.79179 3.79735 
46 1 0.727122 0.726342 0.71963 
47 1 2.26918 2.26808 2.26181 
48 1 1.56277 1.56186 1.55523 
19 1 4.55879 4.55815 6.26115 
20 1 2.99846 2.99849 7.77509 
21 1 3.71159 3.7115 7.08321 
31 1 0.66636 0.665903 10.1301 
32 1 2.17991 2.18011 8.59815 
33 1 1.47552 1.47579 9.31103 
16 1 4.52899 6.23538 4.54 
17 1 2.99164 7.77796 2.9908 
18 1 3.69546 7.07202 3.69991 
25 1 0.65728 10.1205 0.650393 
26 1 2.1775 8.60165 2.17155 
27 1 1.46999 9.30819 1.46385 
4 1 4.60118 6.17711 6.16711 
5 1 3.07939 7.68519 7.69153 
6 1 3.7891 6.98249 6.98106 
37 1 0.72847 10.053 10.0518 
38 1 2.26932 8.50678 8.51357 
39 1 1.56303 9.21529 9.21865 
13 1 6.23424 4.52699 4.53826 
14 1 7.77809 2.99049 2.98967 
15 1 7.07145 3.6939 3.69858 
28 1 10.1186 0.655361 0.6487 
29 1 8.60251 2.17689 2.17105 
30 1 9.30805 1.46872 1.46301 
1 1 6.17813 4.59715 6.1662 
2 1 7.68602 3.07762 7.69273 
3 1 6.98338 3.78634 6.98118 
40 1 10.0522 0.724404 10.0512 
41 1 8.50722 2.26735 8.51447 
42 1 9.21523 1.56004 9.21904 
7 1 6.16177 6.15936 4.5281 
8 1 7.69843 7.69898 3.05511 
9 1 6.98184 6.9806 3.74201 
43 1 10.0465 10.0458 0.681073 
44 1 8.52295 8.52348 2.25389 
45 1 9.22225 9.22253 1.53191 
22 1 6.27517 6.26946 6.16369 
23 1 7.63332 7.66552 8.07414 
24 1 7.06754 7.06607 7.00579 
34 1 10.1278 10.1233 10.08 
35 1 8.67927 8.65977 8.42389 
36 1 9.35136 9.33801 9.18171 
49 2 7.30202 7.42964 9.14186 
ITEM: TIMESTEP
160
ITEM: NUMBER OF ATOMS
49
ITEM: BOX BOUNDS pp pp pp
-1.3623078957701555e-02 1.1013623078957709e+01
-1.3490584979942429e-02 1.1015490584979949e+01
-2.2457001161811724e-02 1.1022457001161831e+01
ITEM: ATOMS id type x y z 
10 1 4.59985 4.6015 4.61623 
11 1 3.08548 3.08601 3.08409 
12 1 3.79011 3.79084 3.79653 
46 1 0.724271 0.723457 0.71723 
47 1 2.2671 2.26598 2.26008 
48 1 1.56081 1.55992 1.55397 
19 1 4.55924 4.55859 6.26041 
20 1 2.99823 2.99825 7.77526 
21 1 3.71097 3.71087 7.08347 
31 1 0.663934 0.663385 10.1321 
32 1 2.17839 2.17854 8.59915 
33 1 1.4741 1.47442 9.31186 
16 1 4.52955 6.23495 4.54038 
17 1 2.99123 7.77842 2.99074 
18 1 3.69464 7.07241 3.69949 
25 1 0.654648 10.123 0.648158 
26 1 2.17579 8.60303 2.17032 
27 1 1.46858 9.30975 1.46299 
4 1 4.60117 6.17696 6.16642 
5 1 3.07869 7.68611 7.69206 
6 1 3.78812 6.98338 6.9818 
37 1 0.7256 10.0559 10.0538 
38 1 2.26722 8.50873 8.51518 
39 1 1.56118 9.21715 9.21985 
13 1 6.23383 4.52751 4.53867 
14 1 7.77852 2.99007 2.98965 
15 1 7.07181 3.69311 3.69812 
28 1 10.1212 0.652715 0.646568 
29 1 8.604 2.17521 2.1699 
30 1 9.30931 1.46717 1.46196 
1 1 6.17792 4.59718 6.16556 
2 1 7.68687 3.07694 7.69333 
3 1 6.98435 3.78527 6.98175 
40 1 10.055 0.721478 10.0532 
41 1 8.50908 2.26524 8.51615 
42 1 9.21717 1.5581 9.22011 
7 1 6.16166 6.15926 4.52845 
8 1 7.6993 7.69988 3.05432 
9 1 6.98285 6.98158 3.74098 
43 1 10.0493 10.0486 0.678619 
44 1 8.52496 8.5255 2.25195 
45 1 9.22409 9.22441 1.53018 
22 1 6.27475 6.26902 6.16315 