ITEM: TIMESTEP
0
ITEM: NUMBER OF ATOMS
130
ITEM: BOX BOUNDS pp pp pp
0.0000000000000000e+00 1.8762000000000000e+01
0.0000000000000000e+00 1.8762000000000000e+01
0.0000000000000000e+00 1.8760999999999999e+01
ITEM: ATOMS id type x y z 
1 1 3.12 3.119 3.121 
10 1 5.595 5.596 5.595 
17 1 4.011 4.011 4.012 
26 1 4.704 4.704 4.704 
33 1 0.414 3.456 3.456 
41 1 3.456 0.413 3.456 
49 1 3.456 3.456 0.414 
58 1 8.301 5.259 5.259 
66 1 5.259 8.301 5.259 
74 1 5.259 5.259 8.301 
81 1 1.612 3.354 3.354 
89 1 3.353 1.612 3.354 
97 1 3.354 3.354 1.613 
106 1 7.103 5.361 5.361 
114 1 5.362 7.103 5.361 
122 1 5.361 5.361 7.103 
4 1 3.12 3.12 14.976 
11 1 5.595 5.595 12.5 
20 1 4.011 4.011 14.084 
27 1 4.704 4.704 13.392 
36 1 0.414 3.456 14.639 
46 1 3.456 0.414 14.639 
56 1 3.456 3.456 17.682 
59 1 8.301 5.259 12.837 
69 1 5.259 8.301 12.837 
79 1 5.259 5.259 9.794 
84 1 1.612 3.354 14.742 
94 1 3.354 1.612 14.742 
104 1 3.354 3.354 16.483 
107 1 7.103 5.361 12.735 
117 1 5.361 7.103 12.735 
127 1 5.361 5.361 10.993 
6 1 3.12 14.976 3.12 
13 1 5.595 12.501 5.596 
22 1 4.011 14.085 4.011 
29 1 4.704 13.392 4.705 
38 1 0.414 14.64 3.457 
48 1 3.456 17.682 3.456 
52 1 3.456 14.64 0.414 
61 1 8.301 12.837 5.259 
71 1 5.259 9.794 5.259 
75 1 5.259 12.837 8.301 
86 1 1.612 14.742 3.354 
96 1 3.354 16.483 3.354 
100 1 3.354 14.742 1.612 
109 1 7.103 12.735 5.361 
119 1 5.361 10.993 5.361 
123 1 5.361 12.735 7.103 
7 1 3.12 14.976 14.976 
16 1 5.595 12.501 12.5 
23 1 4.011 14.085 14.084 
32 1 4.704 13.392 13.391 
39 1 0.414 14.64 14.639 
43 1 3.456 17.682 14.639 
53 1 3.456 14.64 17.682 
64 1 8.302 12.837 12.837 
68 1 5.259 9.795 12.837 
78 1 5.259 12.837 9.794 
87 1 1.612 14.742 14.741 
91 1 3.354 16.483 14.741 
101 1 3.353 14.742 16.483 
112 1 7.103 12.735 12.735 
116 1 5.361 10.993 12.735 
126 1 5.361 12.735 10.993 
8 1 14.976 3.12 3.12 
15 1 12.501 5.595 5.595 
24 1 14.084 4.011 4.011 
31 1 13.392 4.704 4.704 
40 1 17.682 3.456 3.456 
44 1 14.64 0.414 3.457 
54 1 14.64 3.456 0.414 
63 1 9.795 5.259 5.259 
67 1 12.837 8.301 5.259 
77 1 12.837 5.259 8.301 
88 1 16.483 3.354 3.354 
92 1 14.742 1.612 3.354 
102 1 14.742 3.354 1.612 
111 1 10.993 5.361 5.361 
115 1 12.735 7.103 5.361 
125 1 12.735 5.361 7.103 
5 1 14.976 3.119 14.975 
14 1 12.501 5.596 12.501 
21 1 14.085 4.011 14.084 
30 1 13.392 4.703 13.392 
37 1 17.682 3.456 14.639 
47 1 14.64 0.413 14.639 
51 1 14.64 3.456 17.682 
62 1 9.794 5.259 12.837 
72 1 12.837 8.301 12.837 
76 1 12.837 5.259 9.795 
85 1 16.483 3.354 14.741 
95 1 14.742 1.612 14.741 
99 1 14.742 3.354 16.483 
110 1 10.993 5.361 12.735 
120 1 12.734 7.103 12.735 
124 1 12.735 5.361 10.993 
3 1 14.976 14.976 3.12 
12 1 12.501 12.501 5.595 
19 1 14.085 14.085 4.011 
28 1 13.392 13.392 4.704 
35 1 17.682 14.64 3.457 
45 1 14.64 17.682 3.457 
55 1 14.64 14.64 0.414 
60 1 9.794 12.837 5.259 
70 1 12.837 9.794 5.259 
80 1 12.837 12.837 8.301 
83 1 16.484 14.742 3.354 
93 1 14.742 16.483 3.354 
103 1 14.742 14.742 1.613 
108 1 10.993 12.735 5.361 
118 1 12.734 10.993 5.361 
128 1 12.734 12.734 7.103 
2 1 14.976 14.976 14.975 
9 1 12.501 12.501 12.501 
18 1 14.084 14.085 14.084 
25 1 13.391 13.393 13.392 
34 1 17.682 14.64 14.639 
42 1 14.64 17.682 14.639 
50 1 14.64 14.64 17.682 
57 1 9.795 12.837 12.837 
65 1 12.837 9.794 12.837 
73 1 12.837 12.837 9.794 
82 1 16.483 14.742 14.741 
90 1 14.742 16.483 14.741 
98 1 14.742 14.742 16.483 
105 1 10.993 12.734 12.734 
113 1 12.735 10.993 12.735 
121 1 12.735 12.734 10.993 
129 2 9.795 14.187 12.837 
130 3 9.795 15.163 12.837 
ITEM: TIMESTEP
10
ITEM: NUMBER OF ATOMS
130
ITEM: BOX BOUNDS pp pp pp
0.0000000000000000e+00 1.8762000000000000e+01
0.0000000000000000e+00 1.8762000000000000e+01
0.0000000000000000e+00 1.8760999999999999e+01
ITEM: ATOMS id type x y z 
1 1 3.11971 3.11951 3.12039 
10 1 5.5953 5.59509 5.59501 
17 1 4.011 4.01065 4.01149 
26 1 4.70367 4.70404 4.70417 
33 1 0.412492 3.45531 3.45521 
41 1 3.45486 0.413151 3.45517 
49 1 3.45513 3.45516 0.41411 
58 1 8.30141 5.25975 5.25979 
66 1 5.25995 8.30225 5.25957 
74 1 5.25965 5.25964 8.30213 
81 1 1.61334 3.35311 3.35348 
89 1 3.35287 1.61191 3.3535 
97 1 3.35335 3.35319 1.6129 
106 1 7.10277 5.36168 5.36156 
114 1 5.36214 7.10148 5.3617 
122 1 5.36173 5.36184 7.10127 
4 1 3.11984 3.1198 14.9759 
11 1 5.5949 5.59482 12.5005 
20 1 4.01087 4.01106 14.085 
27 1 4.70356 4.70337 13.3916 
36 1 0.412738 3.45528 14.6401 
46 1 3.45527 0.412899 14.64 
56 1 3.45514 3.45517 17.6821 
59 1 8.30206 5.25963 12.8364 
69 1 5.25966 8.29964 12.8365 
79 1 5.25985 5.25984 9.79529 
84 1 1.61324 3.3532 14.7424 
94 1 3.35318 1.61343 14.7424 
104 1 3.35335 3.35335 16.4832 
107 1 7.10123 5.36166 12.7342 
117 1 5.36169 7.10076 12.7341 
127 1 5.36152 5.3615 10.992 
6 1 3.11998 14.9761 3.12011 
13 1 5.59491 12.5009 5.59534 
22 1 4.01045 14.0848 4.01123 
29 1 4.70395 13.392 4.70383 
38 1 0.413747 14.6408 3.45594 
48 1 3.45521 17.6821 3.4552 
52 1 3.45535 14.6406 0.412988 
61 1 8.30217 12.8364 5.2596 
71 1 5.25985 9.7956 5.25981 
75 1 5.25945 12.8366 8.30037 
86 1 1.61215 14.7426 3.35373 
96 1 3.35346 16.4833 3.35341 
100 1 3.35334 14.7427 1.61383 
109 1 7.10153 12.7344 5.36176 
119 1 5.36146 10.9921 5.36162 
123 1 5.36178 12.7342 7.0995 
7 1 3.11971 14.977 14.9765 
16 1 5.56639 12.4966 12.496 
23 1 4.00742 14.0878 14.0872 
32 1 4.69826 13.3939 13.3927 
39 1 0.41255 14.6406 14.6396 
43 1 3.45516 17.6817 14.6398 
53 1 3.45483 14.6408 17.6808 
64 1 8.27376 12.8049 12.8191 
68 1 5.2604 9.79147 12.8375 
78 1 5.26042 12.8374 9.79235 
87 1 1.61292 14.7426 14.7417 
91 1 3.35365 16.4852 14.7415 
101 1 3.35318 14.7425 16.4848 
112 1 7.08235 12.726 12.7336 
116 1 5.35711 10.9906 12.7339 
126 1 5.35717 12.7344 10.9894 
8 1 14.9759 3.11978 3.11998 
15 1 12.5007 5.59505 5.59498 
24 1 14.085 4.01115 4.01089 
31 1 13.3916 4.70358 4.70408 
40 1 17.681 3.45509 3.45504 
44 1 14.6407 0.412546 3.45604 
54 1 14.6407 3.45534 0.412738 
63 1 9.7946 5.25976 5.25979 
67 1 12.8364 8.30215 5.25962 
77 1 12.8362 5.25976 8.30106 
88 1 16.4844 3.35345 3.35347 
92 1 14.7427 1.61338 3.35359 
102 1 14.7426 3.35325 1.61365 
111 1 10.9934 5.36166 5.36166 
115 1 12.7343 7.10099 5.36174 
125 1 12.7344 5.36162 7.10254 
5 1 14.976 3.11904 14.9752 
14 1 12.5007 5.59398 12.5008 
21 1 14.0854 4.01085 14.0845 
30 1 13.3922 4.70247 13.3924 
37 1 17.6814 3.45513 14.6399 
47 1 14.6408 0.4133 14.6398 
51 1 14.6409 3.45512 17.6804 
62 1 9.7952 5.2598 12.8362 
72 1 12.8372 8.29563 12.8373 
76 1 12.8363 5.2597 9.79415 
85 1 16.4845 3.35336 14.7415 
95 1 14.7427 1.61212 14.7417 
99 1 14.7425 3.35332 16.484 
110 1 10.9915 5.36135 12.7346 
120 1 12.7333 7.09347 12.7339 
124 1 12.7345 5.36146 10.9927 
3 1 14.9762 14.9761 3.1201 
12 1 12.5004 12.5006 5.59378 
19 1 14.0849 14.0847 4.01039 
28 1 13.3925 13.3927 4.70376 
35 1 17.6824 14.6408 3.45594 
45 1 14.6409 17.6811 3.45584 
55 1 14.6408 14.6408 0.414248 
60 1 9.79522 12.8362 5.25983 
70 1 12.8359 9.79534 5.25981 
80 1 12.8369 12.8366 8.29633 
83 1 16.484 14.7426 3.35381 
93 1 14.7425 16.4846 3.35392 
103 1 14.7426 14.7426 1.6128 
108 1 10.9917 12.7345 5.36127 
118 1 12.7341 10.9915 5.36132 
128 1 12.7335 12.7336 7.09643 
2 1 14.9791 14.9782 14.9775 
9 1 12.4706 12.5002 12.504 
18 1 14.0881 14.0877 14.0872 
25 1 13.3893 13.4004 13.3997 
34 1 17.6816 14.6407 14.6397 
42 1 14.6406 17.6827 14.6396 
50 1 14.6407 14.6407 17.6824 
57 1 9.85769 12.974 12.8886 
65 1 12.8404 9.79329 12.8367 
73 1 12.8402 12.8367 9.78955 
82 1 16.4852 14.7424 14.7414 
90 1 14.7426 16.4842 14.7415 
98 1 14.7427 14.7426 16.4838 
105 1 11.0447 12.6885 12.7006 
113 1 12.7333 10.9814 12.7396 
121 1 12.7325 12.7378 10.9868 
129 2 9.79427 14.1492 12.8453 
130 3 9.79387 15.1664 12.8356 
ITEM: TIMESTEP
20
ITEM: NUMBER OF ATOMS
130
ITEM: BOX BOUNDS pp pp pp
0.0000000000000000e+00 1.8762000000000000e+01
0.0000000000000000e+00 1.8762000000000000e+01
0.0000000000000000e+00 1.8760999999999999e+01
ITEM: ATOMS id type x y z 
1 1 3.11894 3.11968 3.12035 
10 1 5.59565 5.59496 5.59448 
17 1 4.01379 4.00639 4.01301 
26 1 4.70099 4.70753 4.70196 
33 1 0.412999 3.45338 3.45369 
41 1 3.45325 0.414159 3.45362 
49 1 3.45364 3.45337 0.414315 
58 1 8.30142 5.26149 5.26126 
66 1 5.26154 8.30043 5.26121 
74 1 5.26115 5.26142 8.30073 
81 1 1.6122 3.35247 3.35234 
89 1 3.35175 1.6127 3.35224 
97 1 3.35209 3.35246 1.61313 
106 1 7.1026 5.36225 5.36271 
114 1 5.36304 7.10138 5.36279 
122 1 5.36272 5.36229 7.10154 
4 1 3.1191 3.11951 14.9762 
11 1 5.59432 5.59304 12.5002 
20 1 4.00598 4.01383 14.0835 
27 1 4.70786 4.7 13.3944 
36 1 0.413847 3.4538 14.6415 
46 1 3.45394 0.415256 14.6411 
56 1 3.45362 3.45378 17.6833 
59 1 8.29918 5.26103 12.8353 
69 1 5.26284 8.29885 12.8365 
79 1 5.26116 5.26109 9.79316 
84 1 1.61281 3.35218 14.7435 
94 1 3.35254 1.61433 14.7434 
104 1 3.35271 3.35249 16.4844 
107 1 7.1004 5.362 12.733 
117 1 5.36201 7.0998 12.7336 
127 1 5.3618 5.3617 10.9916 
6 1 3.11834 14.9759 3.12045 
13 1 5.59406 12.4984 5.59159 
22 1 4.01091 14.0862 4.01195 
29 1 4.70546 13.3955 4.70394 
38 1 0.413389 14.6423 3.45451 
48 1 3.45368 17.6827 3.45375 
52 1 3.45415 14.6418 0.4154 
61 1 8.29991 12.8354 5.26115 
71 1 5.26122 9.79335 5.26117 
75 1 5.26266 12.8366 8.29864 
86 1 1.61209 14.7433 3.35279 
96 1 3.35239 16.4841 3.35243 
100 1 3.35234 14.7432 1.6145 
109 1 7.101 12.7331 5.3619 
119 1 5.36199 10.9918 5.36174 
123 1 5.36202 12.7337 7.09967 
7 1 3.11881 14.9805 14.9792 
16 1 5.57434 12.4915 12.4947 
23 1 4.0049 14.0854 14.0847 
32 1 4.69201 13.3876 13.3901 
39 1 0.413111 14.641 14.6401 
43 1 3.45457 17.6851 14.6404 
53 1 3.45423 14.6412 17.684 
64 1 8.29164 12.7881 12.8102 
68 1 5.25951 9.79123 12.8359 
78 1 5.26005 12.8364 9.79216 
87 1 1.61164 14.7445 14.7433 
91 1 3.35292 16.4868 14.743 
101 1 3.35267 14.7442 16.4858 
112 1 7.10751 12.6733 12.7103 
116 1 5.34736 10.9913 12.7318 
126 1 5.34899 12.7322 10.9917 
8 1 14.9769 3.11988 3.11964 
15 1 12.5004 5.59433 5.59421 
24 1 14.0824 4.01162 4.00718 
31 1 13.3951 4.7014 4.70725 
40 1 17.6823 3.45363 3.45338 
44 1 14.6423 0.413754 3.45413 
54 1 14.6423 3.4537 0.414535 
63 1 9.79375 5.26121 5.26141 
67 1 12.8351 8.29987 5.2612 
77 1 12.8351 5.26115 8.29896 
88 1 16.484 3.35224 3.35257 
92 1 14.7437 1.61295 3.35298 
102 1 14.7439 3.352 1.6136 
111 1 10.9926 5.36248 5.36207 
115 1 12.7334 7.10073 5.36207 
125 1 12.7332 5.36267 7.10046 
5 1 14.9791 3.1197 14.9768 
14 1 12.4993 5.58657 12.5005 
21 1 14.0849 4.00584 14.0851 
30 1 13.3936 4.69941 13.3933 
37 1 17.6831 3.45373 14.641 
47 1 14.6417 0.413811 14.6407 
51 1 14.642 3.45371 17.6829 
62 1 9.79255 5.26093 12.8359 
72 1 12.8409 8.28263 12.8381 
76 1 12.8357 5.26097 9.79139 
85 1 16.4848 3.35263 14.743 
95 1 14.7437 1.6123 14.743 
99 1 14.7436 3.35274 16.4846 
110 1 10.9906 5.35931 12.7336 
120 1 12.7344 7.08446 12.7336 
124 1 12.7339 5.35924 10.9901 
3 1 14.9772 14.978 3.11976 
12 1 12.499 12.5004 5.587 
19 1 14.0905 14.0846 4.01195 
28 1 13.3908 13.3926 4.69752 
35 1 17.6827 14.6421 3.45442 
45 1 14.6423 17.6835 3.4545 
55 1 14.6418 14.6416 0.414251 
60 1 9.79298 12.8356 5.26082 
70 1 12.8352 9.79242 5.26095 
80 1 12.8398 12.8369 8.28836 
83 1 16.484 14.744 3.35289 
93 1 14.7432 16.4852 3.35311 
103 1 14.7433 14.7438 1.61281 
108 1 10.9913 12.7336 5.36002 
118 1 12.7335 10.9908 5.35995 
128 1 12.7347 12.7339 7.09088 
2 1 14.9779 14.978 14.9755 
9 1 12.4606 12.4814 12.5044 
18 1 14.0764 14.0843 14.0852 
25 1 13.3792 13.3935 13.397 
34 1 17.6816 14.6412 14.6402 
42 1 14.6415 17.6825 14.6406 
50 1 14.6416 14.6417 17.6821 
57 1 9.86699 13.0829 12.9089 
65 1 12.8457 9.77637 12.8425 
73 1 12.8423 12.8413 9.78343 
82 1 16.4835 14.7448 14.7439 
90 1 14.7455 16.4841 14.7441 
98 1 14.7456 14.7451 16.4837 
105 1 11.0349 12.7178 12.7289 
113 1 12.7317 10.9718 12.7398 
121 1 12.7285 12.7351 10.9797 
129 2 9.79829 14.1917 12.8709 
130 3 9.78712 15.1509 12.8311 
ITEM: TIMESTEP
30
ITEM: NUMBER OF ATOMS
130
ITEM: BOX BOUNDS pp pp pp
0.0000000000000000e+00 1.8762000000000000e+01
0.0000000000000000e+00 1.8762000000000000e+01
0.0000000000000000e+00 1.8760999999999999e+01
ITEM: ATOMS id type x y z 
1 1 3.11962 3.11884 3.1207 
10 1 5.59469 5.59495 5.59406 
17 1 4.00936 4.01115 4.01233 
26 1 4.70534 4.70259 4.70237 
33 1 0.413036 3.45216 3.45185 
41 1 3.45158 0.413091 3.45176 
49 1 3.45179 3.45217 0.414702 
58 1 8.30068 5.26267 5.26324 
66 1 5.26317 8.30158 5.2632 
74 1 5.263 5.26265 8.3011 
81 1 1.61311 3.35098 3.35173 
89 1 3.35087 1.61206 3.35147 
97 1 3.35145 3.35115 1.61353 
106 1 7.10181 5.36348 5.36301 
114 1 5.36366 7.1015 5.36328 
122 1 5.36314 5.36342 7.10084 
4 1 3.1188 3.12143 14.9775 
11 1 5.59329 5.59392 12.4997 
20 1 4.011 4.00938 14.0844 
27 1 4.7023 4.70368 13.3924 
36 1 0.413468 3.45215 14.6427 
46 1 3.45306 0.412985 14.6423 
56 1 3.45252 3.45181 17.6836 
59 1 8.29739 5.26254 12.8342 
69 1 5.26371 8.3019 12.8344 
79 1 5.2624 5.26272 9.7934 
84 1 1.61339 3.35179 14.7448 
94 1 3.35144 1.61268 14.7437 
104 1 3.35098 3.35224 16.4845 
107 1 7.09746 5.36229 12.7322 
117 1 5.36541 7.10216 12.7342 
127 1 5.36242 5.36172 10.991 
6 1 3.11972 14.9784 3.12163 
13 1 5.59402 12.5002 5.59486 
22 1 4.01192 14.086 4.01128 
29 1 4.70439 13.3927 4.70336 
38 1 0.413306 14.6432 3.45253 
48 1 3.45182 17.6832 3.45171 
52 1 3.45242 14.6426 0.413155 
61 1 8.2991 12.8337 5.26286 
71 1 5.26282 9.79425 5.26267 
75 1 5.26453 12.8344 8.30415 
86 1 1.61227 14.7448 3.35274 
96 1 3.35048 16.4841 3.3519 
100 1 3.35137 14.7441 1.61308 
109 1 7.09929 12.7318 5.36232 
119 1 5.36274 10.9921 5.36184 
123 1 5.36518 12.7338 7.10441 
7 1 3.12013 14.9756 14.9745 
16 1 5.59199 12.4791 12.4937 
23 1 4.00913 14.0776 14.0783 
32 1 4.69802 13.3817 13.3846 
39 1 0.411417 14.6447 14.6437 
43 1 3.45225 17.6814 14.6433 
53 1 3.45209 14.6445 17.6807 
64 1 8.31499 12.7671 12.8009 
68 1 5.25115 9.7916 12.8317 
78 1 5.25548 12.8329 9.79705 
87 1 1.61104 14.7472 14.746 
91 1 3.35086 16.4836 14.7455 
101 1 3.35071 14.7467 16.483 
112 1 7.13457 12.6241 12.6804 
116 1 5.34695 10.9919 12.7303 
126 1 5.35256 12.7271 10.9954 
8 1 14.977 3.1197 3.1197 
15 1 12.5 5.59309 5.59284 
24 1 14.0872 4.01117 4.01147 
31 1 13.3908 4.70141 4.70212 
40 1 17.6824 3.45176 3.45213 
44 1 14.6437 0.413134 3.45306 
54 1 14.6435 3.45213 0.413544 
63 1 9.79321 5.263 5.26255 
67 1 12.8339 8.30079 5.26262 
77 1 12.8343 5.263 8.29721 
88 1 16.4849 3.35158 3.35134 
92 1 14.7445 1.61334 3.35173 
102 1 14.7448 3.3512 1.61373 
111 1 10.9922 5.36252 5.3626 
115 1 12.7331 7.10064 5.36238 
125 1 12.7327 5.36289 7.09842 
5 1 14.9801 3.116 14.9797 
14 1 12.4976 5.5731 12.4972 
21 1 14.0874 4.00316 14.0886 
30 1 13.3936 4.69115 13.3931 
37 1 17.6835 3.45279 14.6426 
47 1 14.6434 0.408206 14.6427 
51 1 14.6435 3.45265 17.6828 
62 1 9.78934 5.26098 12.8352 
72 1 12.8487 8.27245 12.8423 
76 1 12.8352 5.26092 9.78885 
85 1 16.4858 3.35104 14.7445 
95 1 14.7453 1.60692 14.7444 
99 1 14.7456 3.351 16.4854 
110 1 10.9875 5.35455 12.7331 
120 1 12.7379 7.07145 12.7346 
124 1 12.7327 5.35442 10.9883 
3 1 14.9788 14.9782 3.11812 
12 1 12.4984 12.4983 5.58244 
19 1 14.0873 14.085 4.0073 
28 1 13.3932 13.3916 4.69707 
35 1 17.683 14.6439 3.45269 
45 1 14.6434 17.6829 3.45267 
55 1 14.6434 14.6439 0.409194 
60 1 9.79156 12.8343 5.26212 
70 1 12.8339 9.79309 5.26208 
80 1 12.8427 12.8393 8.2888 
83 1 16.4842 14.746 3.35156 
93 1 14.7453 16.4855 3.35216 
103 1 14.7448 14.745 1.60794 
108 1 10.9899 12.7324 5.35699 
118 1 12.7316 10.991 5.35694 
128 1 12.7374 12.7346 7.09185 
2 1 14.97 14.9711 14.9684 
9 1 12.4454 12.4794 12.5028 
18 1 14.0661 14.0769 14.0821 
25 1 13.3657 13.3854 13.3963 
34 1 17.6793 14.6452 14.6444 
42 1 14.6462 17.6775 14.6449 
50 1 14.6469 14.6462 17.6767 
57 1 9.86529 13.1221 12.9471 
65 1 12.8485 9.76507 12.8452 
73 1 12.8384 12.8381 9.78532 
82 1 16.4808 14.7447 14.7432 
90 1 14.7459 16.4782 14.7447 
98 1 14.7462 14.7465 16.4775 
105 1 11.0388 12.7696 12.74 
113 1 12.7206 10.9594 12.7421 
121 1 12.7168 12.7267 10.9792 
129 2 9.7985 14.2534 12.9028 
130 3 9.77547 15.2336 12.8259 
ITEM: TIMESTEP
40
ITEM: NUMBER OF ATOMS
130
ITEM: BOX BOUNDS pp pp pp
0.0000000000000000e+00 1.8762000000000000e+01
0.0000000000000000e+00 1.8762000000000000e+01
0.0000000000000000e+00 1.8760999999999999e+01
ITEM: ATOMS id type x y z 
1 1 3.11951 3.11915 3.12043 
10 1 5.59491 5.5955 5.59436 
17 1 4.01163 4.01144 4.01005 
26 1 4.70308 4.70258 4.7049 
33 1 0.413617 3.4517 3.45209 
41 1 3.45147 0.412404 3.45157 
49 1 3.45211 3.45157 0.414035 
58 1 8.3007 5.26314 5.26287 
66 1 5.26337 8.3025 5.26314 
74 1 5.26277 5.26301 8.30017 
81 1 1.61254 3.35118 3.35176 
89 1 3.3511 1.61136 3.35179 
97 1 3.35118 3.35125 1.61292 
106 1 7.10172 5.36328 5.36325 
114 1 5.36349 7.10363 5.36312 
122 1 5.36357 5.36332 7.10138 
4 1 3.12015 3.11697 14.9769 
11 1 5.59188 5.59465 12.5005 
20 1 4.01032 4.00963 14.0865 
27 1 4.69997 4.70243 13.3915 
36 1 0.41516 3.45266 14.6433 
46 1 3.45124 0.409104 14.644 
56 1 3.45131 3.45228 17.6825 
59 1 8.29733 5.26208 12.8343 
69 1 5.26025 8.30008 12.8342 
79 1 5.2628 5.26203 9.79286 
84 1 1.61393 3.35119 14.7445 
94 1 3.35176 1.60804 14.7443 
104 1 3.35147 3.35095 16.4836 
107 1 7.09857 5.36304 12.7332 
117 1 5.36398 7.10104 12.7324 
127 1 5.36174 5.36327 10.9918 
6 1 3.12008 14.9759 3.11869 
13 1 5.59408 12.5014 5.59726 
22 1 4.01072 14.0845 4.01081 
29 1 4.70279 13.3924 4.70447 
38 1 0.413988 14.6445 3.45258 
48 1 3.45079 17.6817 3.45171 
52 1 3.45083 14.6448 0.41001 
61 1 8.2998 12.8327 5.26285 
71 1 5.26338 9.79532 5.26271 
75 1 5.26275 12.8337 8.30498 
86 1 1.61291 14.7449 3.35158 
96 1 3.35111 16.4826 3.35103 
100 1 3.35143 14.7445 1.60897 
109 1 7.10093 12.7326 5.36431 
119 1 5.36299 10.9942 5.36414 
123 1 5.36508 12.7326 7.10611 
7 1 3.12161 14.9714 14.9695 
16 1 5.59865 12.4814 12.4932 
23 1 4.01469 14.0745 14.0776 
32 1 4.70915 13.3808 13.388 
39 1 0.412256 14.649 14.6481 
43 1 3.45034 17.6783 14.646 
53 1 3.44975 14.6469 17.6777 
64 1 8.32151 12.7651 12.799 
68 1 5.24935 9.79072 12.8326 
78 1 5.25687 12.8312 9.79733 
87 1 1.61183 14.746 14.7448 
91 1 3.35067 16.4788 14.7437 
101 1 3.35038 14.7453 16.4783 
112 1 7.13976 12.6294 12.6816 
116 1 5.34989 10.99 12.7294 
126 1 5.35825 12.7242 10.9958 
8 1 14.9775 3.11887 3.1202 
15 1 12.4997 5.59463 5.59187 
24 1 14.0851 4.00951 4.01098 
31 1 13.3924 4.70404 4.70117 
40 1 17.6833 3.4521 3.45169 
44 1 14.6435 0.412238 3.45247 
54 1 14.6434 3.45244 0.414679 
63 1 9.79293 5.2625 5.26289 
67 1 12.8339 8.30138 5.26298 
77 1 12.8347 5.26284 8.2971 
88 1 16.4844 3.3512 3.35164 
92 1 14.7449 1.61104 3.35225 
102 1 14.7448 3.35143 1.61344 
111 1 10.992 5.36277 5.36191 
115 1 12.7326 7.10254 5.36218 
125 1 12.7329 5.36299 7.09827 
5 1 14.9796 3.11313 14.9788 
14 1 12.4981 5.57415 12.4989 
21 1 14.0859 3.99933 14.0867 
30 1 13.3916 4.68808 13.3922 
37 1 17.6847 3.45234 14.6429 
47 1 14.6459 0.405314 14.6449 
51 1 14.6439 3.45239 17.6833 
62 1 9.78989 5.25943 12.8347 
72 1 12.8494 8.27374 12.8422 
76 1 12.8344 5.25932 9.78954 
85 1 16.4861 3.34976 14.745 
95 1 14.7465 1.60411 14.7457 
99 1 14.7461 3.34955 16.4846 
110 1 10.9892 5.35217 12.7321 
120 1 12.7419 7.07647 12.7362 
124 1 12.7323 5.35167 10.9889 
3 1 14.977 14.9769 3.11562 
12 1 12.4997 12.5008 5.58707 
19 1 14.0852 14.0844 4.00466 
28 1 13.3923 13.3912 4.69625 
35 1 17.6832 14.6449 3.452 
45 1 14.6446 17.6818 3.45265 
55 1 14.6467 14.6466 0.407303 
60 1 9.79242 12.8326 5.26075 
70 1 12.8324 9.79406 5.26047 
80 1 12.8412 12.8374 8.29103 
83 1 16.4845 14.7455 3.35001 
93 1 14.7454 16.483 3.35012 
103 1 14.7458 14.746 1.60637 
108 1 10.9916 12.7323 5.35894 
118 1 12.7317 10.9932 5.35863 
128 1 12.7378 12.7356 7.09337 
2 1 14.9704 14.9666 14.9665 
9 1 12.4411 12.4786 12.5032 
18 1 14.0654 14.0739 14.0804 
25 1 13.3645 13.3836 13.3953 
34 1 17.6805 14.6473 14.6459 
42 1 14.6466 17.674 14.6456 
50 1 14.6474 14.6478 17.675 
57 1 9.86813 13.1378 12.9537 
65 1 12.8397 9.76697 12.8444 
73 1 12.8332 12.8324 9.78631 
82 1 16.4805 14.742 14.741 
90 1 14.7439 16.4744 14.742 
98 1 14.7449 14.7439 16.4754 
105 1 11.0345 12.768 12.7463 
113 1 12.7128 10.963 12.7389 
121 1 12.7119 12.7228 10.9816 
129 2 9.79374 14.2775 12.9085 
130 3 9.77158 15.2641 12.8303 
ITEM: TIMESTEP
45
ITEM: NUMBER OF ATOMS
130
ITEM: BOX BOUNDS pp pp pp
0.0000000000000000e+00 1.8762000000000000e+01
0.0000000000000000e+00 1.8762000000000000e+01
0.0000000000000000e+00 1.8760999999999999e+01
ITEM: ATOMS id type x y z 
1 1 3.12069 3.11839 3.11957 
10 1 5.59393 5.59599 5.59465 
17 1 4.00839 4.01154 4.01272 
26 1 4.70561 4.70291 4.70209 
33 1 0.413666 3.45168 3.4517 
41 1 3.45056 0.411651 3.4516 
49 1 3.451 3.45185 0.413791 
58 1 8.30055 5.26288 5.26337 
66 1 5.26384 8.30332 5.26305 
74 1 5.26357 5.26263 8.30094 
81 1 1.61343 3.35073 3.3515 
89 1 3.35112 1.61067 3.35116 
97 1 3.35143 3.35051 1.61285 
106 1 7.10149 5.36403 5.36319 
114 1 5.36369 7.10378 5.36346 
122 1 5.36331 5.36404 7.10144 
4 1 3.12079 3.11584 14.9772 
11 1 5.59154 5.59419 12.4999 
20 1 4.00731 4.0099 14.0834 
27 1 4.70361 4.70086 13.3939 
36 1 0.414878 3.45238 14.6436 
46 1 3.45042 0.407359 14.6458 
56 1 3.45152 3.45151 17.6827 
59 1 8.29729 5.26257 12.8343 
69 1 5.25829 8.3 12.8334 
79 1 5.26245 5.26333 9.7931 
84 1 1.61371 3.35002 14.7447 
94 1 3.35118 1.6064 14.745 
104 1 3.35109 3.34985 16.4836 
107 1 7.09931 5.36302 12.733 
117 1 5.3614 7.10144 12.7325 
127 1 5.36211 5.36264 10.9917 
6 1 3.1197 14.974 3.11637 
13 1 5.59302 12.5012 5.59782 
22 1 4.01143 14.0864 4.01231 
29 1 4.70434 13.3936 4.70356 
38 1 0.414011 14.6455 3.45193 
48 1 3.45076 17.6809 3.45095 
52 1 3.44969 14.6469 0.408381 
61 1 8.30012 12.8323 5.26321 
71 1 5.26362 9.79583 5.26385 
75 1 5.26256 12.8324 8.30554 
86 1 1.61317 14.7447 3.35052 
96 1 3.35038 16.4819 3.35 
100 1 3.35049 14.7448 1.60766 
109 1 7.09997 12.7321 5.36507 
119 1 5.36343 10.9945 5.36476 
123 1 5.36363 12.7328 7.10692 
7 1 3.12308 14.9674 14.9682 
16 1 5.60609 12.4759 12.4939 
23 1 4.02192 14.0743 14.0756 
32 1 4.71413 13.3793 13.3872 
39 1 0.412078 14.6499 14.6486 
43 1 3.44943 17.6754 14.6458 
53 1 3.44886 14.6474 17.676 
64 1 8.32546 12.774 12.8026 
68 1 5.24902 9.79025 12.8318 
78 1 5.25851 12.8294 9.79853 
87 1 1.61118 14.7457 14.7447 
91 1 3.35093 16.4768 14.743 
101 1 3.35022 14.7444 16.4771 
112 1 7.14919 12.6261 12.679 
116 1 5.3526 10.9891 12.7299 
126 1 5.36172 12.7236 10.9961 
8 1 14.9769 3.11769 3.12092 
15 1 12.5001 5.59574 5.59127 
24 1 14.085 4.0128 4.00742 
31 1 13.392 4.70073 4.70435 
40 1 17.6831 3.4516 3.45169 
44 1 14.6447 0.411332 3.45271 
54 1 14.644 3.45244 0.414197 
63 1 9.79327 5.26285 5.26269 
67 1 12.8328 8.30279 5.2622 
77 1 12.834 5.26253 8.29691 
88 1 16.4846 3.35087 3.35145 
92 1 14.7449 1.61139 3.35175 
102 1 14.7448 3.35085 1.6134 
111 1 10.9924 5.36328 5.36198 
115 1 12.7325 7.10212 5.36238 
125 1 12.7332 5.36405 7.09918 
5 1 14.9794 3.11143 14.9789 
14 1 12.4999 5.57358 12.4977 
21 1 14.0885 3.99843 14.084 
30 1 13.3891 4.68419 13.3943 
37 1 17.684 3.45186 14.6441 
47 1 14.6475 0.40349 14.6468 
51 1 14.6447 3.45165 17.6828 
62 1 9.79083 5.25785 12.8333 
72 1 12.8485 8.27349 12.8424 
76 1 12.8336 5.25776 9.79009 
85 1 16.4861 3.34802 14.7451 
95 1 14.748 1.60151 14.7471 
99 1 14.7461 3.34809 16.4847 
110 1 10.9885 5.35259 12.7325 
120 1 12.7425 7.07383 12.7367 
124 1 12.7322 5.35189 10.9887 
3 1 14.9776 14.9755 3.11344 
12 1 12.5001 12.5005 5.58616 
19 1 14.0855 14.0856 4.00467 
28 1 13.3918 13.3919 4.69643 
35 1 17.6835 14.6457 3.45134 
45 1 14.6447 17.6811 3.45147 
55 1 14.6477 14.6484 0.405366 
60 1 9.79248 12.8321 5.26135 
70 1 12.8326 9.79425 5.26129 
80 1 12.84 12.836 8.29171 
83 1 16.4846 14.7454 3.34885 
93 1 14.7456 16.4825 3.34942 
103 1 14.7471 14.7466 1.60432 
108 1 10.9921 12.7318 5.35901 
118 1 12.731 10.9939 5.35873 
128 1 12.7383 12.7359 7.0944 
2 1 14.9696 14.964 14.9651 
9 1 12.4342 12.4803 12.5056 
18 1 14.0662 14.0717 14.0776 
25 1 13.361 13.3828 13.3954 
34 1 17.6797 14.6481 14.6469 
42 1 14.6466 17.6718 14.6453 
50 1 14.6479 14.6478 17.6735 
57 1 9.86719 13.1535 12.9575 
65 1 12.8364 9.76411 12.8426 
73 1 12.8304 12.8294 9.78836 
82 1 16.4807 14.7413 14.7407 
90 1 14.7438 16.4732 14.7412 
98 1 14.745 14.743 16.4738 
105 1 11.03 12.7798 12.7481 
113 1 12.7059 10.9612 12.7405 
121 1 12.7064 12.7203 10.9833 
129 2 9.79384 14.2927 12.9133 
130 3 9.7678 15.2801 12.8348 
ITEM: TIMESTEP
50
ITEM: NUMBER OF ATOMS
130
ITEM: BOX BOUNDS pp pp pp
0.0000000000000000e+00 1.8762000000000000e+01
0.0000000000000000e+00 1.8762000000000000e+01
0.0000000000000000e+00 1.8760999999999999e+01
ITEM: ATOMS id type x y z 
1 1 3.11976 3.11863 3.1202 
10 1 5.59479 5.59582 5.59427 
17 1 4.01117 4.01038 4.01132 
26 1 4.70291 4.70422 4.70332 
33 1 0.413959 3.45144 3.45156 
41 1 3.45058 0.411328 3.45129 
49 1 3.45112 3.45152 0.41377 
58 1 8.30067 5.26319 5.26337 
66 1 5.26396 8.30307 5.26338 
74 1 5.26343 5.26314 8.30033 
81 1 1.61287 3.35062 3.35132 
89 1 3.35095 1.61039 3.35124 
97 1 3.35119 3.35063 1.61274 
106 1 7.10166 5.36401 5.36344 
114 1 5.36374 7.10414 5.36336 
122 1 5.36352 5.36391 7.10152 
4 1 3.11975 3.11566 14.9766 
11 1 5.59231 5.59381 12.5007 
20 1 4.00977 4.00784 14.085 
27 1 4.70067 4.70181 13.3926 
36 1 0.415098 3.45203 14.644 
46 1 3.4499 0.40642 14.6461 
56 1 3.45115 3.45132 17.6822 
59 1 8.29752 5.2623 12.834 
69 1 5.25726 8.29936 12.8333 
79 1 5.26275 5.26301 9.79297 
84 1 1.61386 3.34974 14.7449 
94 1 3.35101 1.60536 14.7455 
104 1 3.35115 3.34944 16.4833 
107 1 7.09924 5.36325 12.7331 
117 1 5.3611 7.10012 12.7322 
127 1 5.36192 5.363 10.9922 
6 1 3.12048 14.9749 3.11645 
13 1 5.59375 12.5026 5.59857 
22 1 4.0112 14.0861 4.01206 
29 1 4.70377 13.3926 4.70316 
38 1 0.414036 14.6457 3.45166 
48 1 3.45036 17.6807 3.45081 
52 1 3.44924 14.6471 0.407677 
61 1 8.29993 12.832 5.26361 
71 1 5.26385 9.79569 5.26394 
75 1 5.26234 12.8322 8.3058 
86 1 1.61309 14.7447 3.35023 
96 1 3.35037 16.4817 3.34949 
100 1 3.35032 14.7451 1.60682 
109 1 7.10068 12.7321 5.3652 
119 1 5.36332 10.9948 5.36511 
123 1 5.36344 12.7326 7.1068 
7 1 3.12394 14.9674 14.9668 
16 1 5.60737 12.4769 12.4937 
23 1 4.02232 14.0732 14.0764 
32 1 4.71694 13.3791 13.387 
39 1 0.412669 14.6503 14.649 
43 1 3.44911 17.675 14.6461 
53 1 3.44849 14.6478 17.6753 
64 1 8.32672 12.7748 12.8019 
68 1 5.2489 9.78936 12.832 
78 1 5.25914 12.8293 9.79831 
87 1 1.61226 14.7454 14.7446 
91 1 3.35089 16.4754 14.7428 
101 1 3.35024 14.744 16.4756 
112 1 7.14966 12.6274 12.6807 
116 1 5.35356 10.9887 12.7298 
126 1 5.36315 12.7224 10.9967 
8 1 14.9767 3.11847 3.11967 
15 1 12.5004 5.59518 5.59237 
24 1 14.0851 4.01023 4.01026 
31 1 13.3919 4.7033 4.70149 
40 1 17.6836 3.45149 3.45155 
44 1 14.6447 0.41167 3.45229 
54 1 14.6442 3.45216 0.414535 
63 1 9.79309 5.26295 5.26284 
67 1 12.8327 8.30221 5.26249 
77 1 12.834 5.26255 8.29703 
88 1 16.4844 3.35067 3.35147 
92 1 14.7452 1.61064 3.35201 
102 1 14.745 3.35083 1.61331 
111 1 10.9922 5.3634 5.36191 
115 1 12.7322 7.10292 5.36202 
125 1 12.7329 5.36407 7.09865 
5 1 14.9803 3.11078 14.9784 
14 1 12.4989 5.57256 12.4986 
21 1 14.086 3.99642 14.0857 
30 1 13.3917 4.68532 13.3925 
37 1 17.6849 3.4515 14.6441 
47 1 14.6478 0.402597 14.6471 
51 1 14.6448 3.4514 17.6832 
62 1 9.79024 5.25817 12.8336 
72 1 12.8483 8.27255 12.8421 
76 1 12.8335 5.25772 9.78974 
85 1 16.4861 3.34777 14.7454 
95 1 14.7484 1.60119 14.7475 
99 1 14.7463 3.34775 16.4844 
110 1 10.9892 5.35189 12.7318 
120 1 12.7429 7.07454 12.7369 
124 1 12.7321 5.35119 10.9887 
3 1 14.9777 14.976 3.11397 
12 1 12.4999 12.5014 5.58703 
19 1 14.0846 14.0847 4.0033 
28 1 13.3925 13.3918 4.69668 
35 1 17.6835 14.6459 3.45105 
45 1 14.645 17.6811 3.4514 
55 1 14.6481 14.6486 0.405018 
60 1 9.7924 12.8319 5.2615 
70 1 12.8321 9.79456 5.26118 
80 1 12.8396 12.8355 8.29238 
83 1 16.4846 14.7455 3.34851 
93 1 14.7457 16.4821 3.34879 
103 1 14.7474 14.747 1.60411 
108 1 10.992 12.7317 5.35915 
118 1 12.7313 10.9942 5.359 
128 1 12.7382 12.7357 7.09443 
2 1 14.9698 14.9636 14.9641 
9 1 12.4327 12.4789 12.5053 
18 1 14.0663 14.0717 14.0785 
25 1 13.36 13.3813 13.3943 
34 1 17.6805 14.6482 14.647 
42 1 14.6468 17.6714 14.6454 
50 1 14.648 14.6479 17.6728 
57 1 9.86621 13.1609 12.9593 
65 1 12.8341 9.76515 12.8429 
73 1 12.8289 12.8283 9.78835 
82 1 16.4806 14.7411 14.7406 
90 1 14.7436 16.4719 14.7408 
98 1 14.7449 14.7425 16.473 
105 1 11.0312 12.7822 12.7498 
113 1 12.7038 10.9608 12.74 
121 1 12.7049 12.7195 10.9834 
129 2 9.79342 14.2993 12.9149 
130 3 9.76665 15.2857 12.8365 
ITEM: TIMESTEP
60
ITEM: NUMBER OF ATOMS
130
ITEM: BOX BOUNDS pp pp pp
0.0000000000000000e+00 1.8762000000000000e+01
0.0000000000000000e+00 1.8762000000000000e+01
0.0000000000000000e+00 1.8760999999999999e+01
ITEM: ATOMS id type x y z 
1 1 3.12025 3.11806 3.11975 
10 1 5.5932 5.59695 5.59453 
17 1 4.00949 4.01234 4.01096 
26 1 4.70631 4.70136 4.70256 
33 1 0.413931 3.45078 3.4509 
41 1 3.4498 0.410753 3.45056 
49 1 3.45044 3.45084 0.413745 
58 1 8.30049 5.26375 5.26388 
66 1 5.26469 8.30436 5.26409 
74 1 5.26394 5.26371 8.30018 
81 1 1.61289 3.34994 3.35115 
89 1 3.35044 1.60992 3.35098 
97 1 3.35075 3.34992 1.61261 
106 1 7.10161 5.36464 5.36356 
114 1 5.36392 7.10507 5.3635 
122 1 5.36357 5.36478 7.10123 
4 1 3.12006 3.1126 14.976 
11 1 5.59081 5.59348 12.501 
20 1 4.01095 4.0073 14.0876 
27 1 4.70115 4.69809 13.3912 
36 1 0.415161 3.45105 14.6449 
46 1 3.44828 0.403381 14.6481 
56 1 3.45057 3.45015 17.6818 
59 1 8.29767 5.26245 12.8335 
69 1 5.25432 8.29803 12.8328 
79 1 5.26309 5.2635 9.79299 
84 1 1.61409 3.34828 14.7449 
94 1 3.34953 1.60262 14.7466 
104 1 3.35065 3.34775 16.483 
107 1 7.09892 5.36307 12.7329 
117 1 5.3585 7.09865 12.732 
127 1 5.36207 5.36283 10.9921 
6 1 3.12226 14.9747 3.11332 
13 1 5.59128 12.5015 5.59979 
22 1 4.00334 14.0808 4.01415 
29 1 4.71086 13.3972 4.69989 
38 1 0.414725 14.6463 3.45022 
48 1 3.44957 17.6804 3.44958 
52 1 3.44722 14.6487 0.405081 
61 1 8.29986 12.831 5.26462 
71 1 5.26454 9.79629 5.26518 
75 1 5.26194 12.8312 8.30679 
86 1 1.61372 14.7455 3.34885 
96 1 3.35043 16.4812 3.34823 
100 1 3.34965 14.7466 1.60452 
109 1 7.10092 12.7322 5.36644 
119 1 5.36387 10.9955 5.3664 
123 1 5.36268 12.7326 7.10746 
7 1 3.12519 14.9643 14.9619 