ITEM: TIMESTEP
0
ITEM: NUMBER OF ATOMS
49
ITEM: BOX BOUNDS pp pp pp
0.0000000000000000e+00 1.1000000000000000e+01
0.0000000000000000e+00 1.1002000000000001e+01
0.0000000000000000e+00 1.1000000000000000e+01
ITEM: ATOMS id type x y z 
10 1 4.603 4.603 4.603 
11 1 3.085 3.085 3.085 
12 1 3.796 3.796 3.796 
46 1 0.726 0.725 0.725 
47 1 2.26 2.259 2.26 
48 1 1.551 1.55 1.55 
49 2 3.372 3.468 5.043 
19 1 4.546 4.545 6.226 
20 1 3.013 3.013 7.764 
21 1 3.721 3.721 7.053 
31 1 0.668 0.667 10.103 
32 1 2.187 2.187 8.589 
33 1 1.476 1.475 9.298 
16 1 4.546 6.225 4.546 
17 1 3.013 7.765 3.013 
18 1 3.721 7.053 3.722 
25 1 0.668 10.103 0.668 
26 1 2.188 8.589 2.188 
27 1 1.476 9.298 1.476 
4 1 4.608 6.169 6.169 
5 1 3.086 7.684 7.684 
6 1 3.799 6.974 6.974 
37 1 0.729 10.046 10.046 
38 1 2.259 8.509 8.508 
39 1 1.552 9.219 9.219 
13 1 6.225 4.546 4.546 
14 1 7.764 3.013 3.013 
15 1 7.053 3.721 3.722 
28 1 10.102 0.667 0.668 
29 1 8.589 2.187 2.188 
30 1 9.298 1.475 1.476 
1 1 6.168 4.608 6.169 
2 1 7.684 3.086 7.684 
3 1 6.974 3.799 6.974 
40 1 10.045 0.728 10.046 
41 1 8.508 2.259 8.508 
42 1 9.218 1.551 9.218 
7 1 6.169 6.169 4.608 
8 1 7.684 7.684 3.086 
9 1 6.974 6.974 3.799 
43 1 10.046 10.047 0.729 
44 1 8.508 8.509 2.259 
45 1 9.219 9.219 1.552 
22 1 6.229 6.229 6.229 
23 1 7.764 7.765 7.765 
24 1 7.055 7.056 7.055 
34 1 10.108 10.108 10.107 
35 1 8.59 8.59 8.59 
36 1 9.301 9.301 9.3 
ITEM: TIMESTEP
10
ITEM: NUMBER OF ATOMS
49
ITEM: BOX BOUNDS pp pp pp
0.0000000000000000e+00 1.1000000000000000e+01
0.0000000000000000e+00 1.1002000000000001e+01
0.0000000000000000e+00 1.1000000000000000e+01
ITEM: ATOMS id type x y z 
10 1 4.65862 4.65803 4.6289 
11 1 3.07564 3.06801 2.97464 
12 1 3.8555 3.84865 3.75105 
46 1 0.745088 0.744608 0.743214 
47 1 2.26199 2.26213 2.26165 
48 1 1.5436 1.54091 1.54803 
49 2 3.12906 3.2678 5.015 
19 1 4.58716 4.58259 6.31886 
20 1 3.00983 3.00949 7.78018 
21 1 3.75602 3.74384 7.18395 
31 1 0.687696 0.684794 10.0843 
32 1 2.19242 2.19244 8.58043 
33 1 1.48172 1.48155 9.29214 
16 1 4.52661 6.24246 4.52265 
17 1 2.99179 7.78758 2.99307 
18 1 3.694 7.07641 3.69368 
25 1 0.684211 10.0846 0.685871 
26 1 2.18864 8.58827 2.18853 
27 1 1.47342 9.30078 1.47385 
4 1 4.60133 6.18527 6.19775 
5 1 3.08058 7.6914 7.68598 
6 1 3.79115 6.978 6.98865 
37 1 0.746073 10.0309 10.0316 
38 1 2.2785 8.48923 8.48811 
39 1 1.55963 9.2122 9.21184 
13 1 6.24581 4.52584 4.52024 
14 1 7.79037 2.98826 2.98965 
15 1 7.07594 3.69401 3.69363 
28 1 10.0845 0.683388 0.687274 
29 1 8.58858 2.18793 2.18859 
30 1 9.30071 1.47143 1.47307 
1 1 6.18592 4.60158 6.20131 
2 1 7.69123 3.08051 7.68685 
3 1 6.97906 3.79079 6.98769 
40 1 10.0293 0.745377 10.0306 
41 1 8.48661 2.28059 8.48591 
42 1 9.21266 1.55652 9.21293 
7 1 6.1925 6.19586 4.60971 
8 1 7.6898 7.68983 3.07921 
9 1 6.98041 6.98081 3.7945 
43 1 10.0313 10.0316 0.746465 
44 1 8.48761 8.48817 2.27935 
45 1 9.21122 9.21167 1.56036 
22 1 6.24954 6.2511 6.23736 
23 1 7.77342 7.77434 7.77612 
24 1 7.06816 7.06918 7.06515 
34 1 10.0886 10.0878 10.0892 
35 1 8.58508 8.58528 8.58456 
36 1 9.29535 9.29516 9.29533 
ITEM: TIMESTEP
20
ITEM: NUMBER OF ATOMS
49
ITEM: BOX BOUNDS pp pp pp
0.0000000000000000e+00 1.1000000000000000e+01
0.0000000000000000e+00 1.1002000000000001e+01
0.0000000000000000e+00 1.1000000000000000e+01
ITEM: ATOMS id type x y z 
10 1 4.68954 4.68385 4.673 
11 1 3.09178 3.08174 2.96268 
12 1 3.80046 3.80558 3.85521 
46 1 0.734341 0.732003 0.733918 
47 1 2.26708 2.26588 2.28016 
48 1 1.55268 1.55396 1.55009 
49 2 3.0811 3.22219 4.83135 
19 1 4.59001 4.58405 6.32446 
20 1 3.00841 3.00637 7.79919 
21 1 3.77769 3.76281 7.22472 
31 1 0.674723 0.672029 10.0841 
32 1 2.18493 2.18407 8.59265 
33 1 1.46808 1.47063 9.28447 
16 1 4.53706 6.25505 4.52909 
17 1 2.98931 7.78431 2.99225 
18 1 3.69809 7.08148 3.69375 
25 1 0.668182 10.0888 0.672245 
26 1 2.18554 8.60011 2.18913 
27 1 1.4708 9.28554 1.46547 
4 1 4.60859 6.19119 6.18781 
5 1 3.07269 7.68854 7.69576 
6 1 3.79535 6.99767 6.98211 
37 1 0.737421 10.0344 10.031 
38 1 2.26661 8.49686 8.49701 
39 1 1.56801 9.21132 9.20793 
13 1 6.25807 4.53823 4.52783 
14 1 7.78564 2.98691 2.9903 
15 1 7.08079 3.69911 3.69382 
28 1 10.0881 0.667675 0.67221 
29 1 8.60051 2.18499 2.1883 
30 1 9.28705 1.4669 1.46486 
1 1 6.19373 4.60907 6.18796 
2 1 7.68828 3.07185 7.69587 
3 1 6.99985 3.79588 6.98332 
40 1 10.0326 0.737952 10.0317 
41 1 8.49679 2.26645 8.50008 
42 1 9.21171 1.56448 9.2038 
7 1 6.18448 6.18436 4.60115 
8 1 7.68642 7.6848 3.07468 
9 1 6.98652 6.9905 3.80439 
43 1 10.0298 10.0305 0.737671 
44 1 8.49383 8.49454 2.26929 
45 1 9.20762 9.20742 1.57052 
22 1 6.25612 6.25739 6.22881 
23 1 7.77864 7.7796 7.78562 
24 1 7.078 7.07909 7.06507 
34 1 10.0938 10.0996 10.0941 
35 1 8.58667 8.59364 8.58612 
36 1 9.30049 9.28766 9.30196 
ITEM: TIMESTEP
30
ITEM: NUMBER OF ATOMS
49
ITEM: BOX BOUNDS pp pp pp
0.0000000000000000e+00 1.1000000000000000e+01
0.0000000000000000e+00 1.1002000000000001e+01
0.0000000000000000e+00 1.1000000000000000e+01
ITEM: ATOMS id type x y z 
10 1 4.70493 4.69825 4.69983 
11 1 3.08675 3.07548 2.9475 
12 1 3.8017 3.80964 3.88756 
46 1 0.738021 0.735935 0.734681 
47 1 2.26147 2.26166 2.27523 
48 1 1.54603 1.5466 1.55225 
49 2 3.03984 3.1836 4.7823 
19 1 4.58849 4.58287 6.32846 
20 1 3.01537 3.01199 7.80848 
21 1 3.78023 3.76566 7.22487 
31 1 0.670411 0.669769 10.0847 
32 1 2.18331 2.18434 8.5849 
33 1 1.47358 1.47401 9.28842 
16 1 4.53877 6.26225 4.53164 
17 1 2.98808 7.78429 2.98959 
18 1 3.69848 7.08325 3.69623 
25 1 0.665941 10.0861 0.66958 
26 1 2.18112 8.59753 2.18326 
27 1 1.47055 9.29651 1.46881 
4 1 4.60938 6.19927 6.19131 
5 1 3.07528 7.68979 7.68932 
6 1 3.79852 6.99039 6.98688 
37 1 0.739862 10.0349 10.0303 
38 1 2.27048 8.49698 8.49707 
39 1 1.5634 9.20717 9.20521 
13 1 6.26607 4.53982 4.52962 
14 1 7.78518 2.98596 2.98781 
15 1 7.08454 3.69806 3.69477 
28 1 10.0856 0.663942 0.667961 
29 1 8.59735 2.17961 2.18216 
30 1 9.29842 1.46912 1.46948 
1 1 6.20279 4.61061 6.19182 
2 1 7.69013 3.07468 7.69012 
3 1 6.99183 3.79863 6.98767 
40 1 10.0342 0.73766 10.0299 
41 1 8.49715 2.26816 8.4978 
42 1 9.20786 1.5631 9.20544 
7 1 6.19074 6.19321 4.60344 
8 1 7.68782 7.68821 3.07738 
9 1 6.98535 6.98625 3.79832 
43 1 10.0298 10.0303 0.740225 
44 1 8.49496 8.49503 2.27262 
45 1 9.20367 9.20395 1.56558 
22 1 6.26027 6.2617 6.23022 
23 1 7.7807 7.78188 7.78524 
24 1 7.07794 7.07931 7.06743 
34 1 10.0959 10.0967 10.0975 
35 1 8.58878 8.58961 8.58835 
36 1 9.29702 9.29523 9.29982 
ITEM: TIMESTEP
40
ITEM: NUMBER OF ATOMS
49
ITEM: BOX BOUNDS pp pp pp
0.0000000000000000e+00 1.1000000000000000e+01
0.0000000000000000e+00 1.1002000000000001e+01
0.0000000000000000e+00 1.1000000000000000e+01
ITEM: ATOMS id type x y z 
10 1 4.7067 4.69779 4.71459 
11 1 3.10535 3.09331 2.95711 
12 1 3.80288 3.81513 3.93363 
46 1 0.731166 0.728817 0.729321 
47 1 2.25616 2.25766 2.27825 
48 1 1.54614 1.5458 1.55743 
49 2 2.9322 3.08283 4.67948 
19 1 4.59261 4.5868 6.33629 
20 1 3.02917 3.02396 7.83395 
21 1 3.77929 3.76625 7.21482 
31 1 0.671557 0.669454 10.0803 
32 1 2.18377 2.18355 8.58052 
33 1 1.4722 1.47454 9.28344 
16 1 4.55272 6.28252 4.54742 
17 1 2.98718 7.77774 2.988 
18 1 3.70393 7.0889 3.70203 
25 1 0.66458 10.0877 0.664093 
26 1 2.18031 8.59631 2.18157 
27 1 1.46881 9.29629 1.4696 
4 1 4.61685 6.20779 6.19162 
5 1 3.07737 7.6897 7.68899 
6 1 3.80075 6.99257 6.98549 
37 1 0.738045 10.0329 10.0276 
38 1 2.27062 8.49627 8.49633 
39 1 1.56376 9.20498 9.20259 
13 1 6.28818 4.55421 4.5451 
14 1 7.779 2.98458 2.98585 
15 1 7.09136 3.70325 3.69974 
28 1 10.0874 0.662543 0.663502 
29 1 8.59732 2.17809 2.18016 
30 1 9.29792 1.4666 1.46866 
1 1 6.21179 4.61894 6.19253 
2 1 7.69021 3.07654 7.69005 
3 1 6.99514 3.80144 6.98601 
40 1 10.036 0.738997 10.0282 
41 1 8.49995 2.27422 8.49816 
42 1 9.19818 1.55292 9.20026 
7 1 6.19162 6.19473 4.59947 
8 1 7.69023 7.68968 3.07918 
9 1 6.98357 6.98678 3.79418 
43 1 10.0269 10.0264 0.73794 
44 1 8.49496 8.49523 2.27294 
45 1 9.2024 9.20236 1.56391 
22 1 6.26704 6.2684 6.2354 
23 1 7.78495 7.78607 7.78866 
24 1 7.08338 7.08475 7.06975 
34 1 10.099 10.0987 10.0984 
35 1 8.59258 8.59208 8.59498 
36 1 9.30075 9.30191 9.30149 
ITEM: TIMESTEP
50
ITEM: NUMBER OF ATOMS
49
ITEM: BOX BOUNDS pp pp pp
0.0000000000000000e+00 1.1000000000000000e+01
0.0000000000000000e+00 1.1002000000000001e+01
0.0000000000000000e+00 1.1000000000000000e+01
ITEM: ATOMS id type x y z 
10 1 4.70994 4.69955 4.71166 
11 1 3.09827 3.0873 2.96821 
12 1 3.79442 3.80952 3.95903 
46 1 0.733818 0.731289 0.731903 
47 1 2.26111 2.262 2.2704 
48 1 1.54798 1.54757 1.55604 
49 2 2.89765 3.04939 4.64693 
19 1 4.58999 4.58448 6.32863 
20 1 3.03478 3.02988 7.84046 
21 1 3.77482 3.76263 7.19929 
31 1 0.669797 0.668978 10.0816 
32 1 2.18325 2.18589 8.57847 
33 1 1.47868 1.47444 9.28509 
16 1 4.55244 6.28381 4.54756 
17 1 2.98859 7.77575 2.98927 
18 1 3.70588 7.08924 3.70424 
25 1 0.666372 10.0895 0.664927 
26 1 2.18189 8.59391 2.18165 
27 1 1.46774 9.29357 1.47132 
4 1 4.62107 6.20937 6.19419 
5 1 3.07715 7.68962 7.68881 
6 1 3.80376 6.99503 6.98644 
37 1 0.740687 10.0344 10.0273 
38 1 2.26942 8.49523 8.49663 
39 1 1.56389 9.20662 9.20152 
13 1 6.29006 4.55411 4.54527 
14 1 7.77716 2.98556 2.98668 
15 1 7.092 3.70582 3.70222 
28 1 10.0898 0.662973 0.664884 
29 1 8.59479 2.17826 2.18035 
30 1 9.29616 1.46748 1.46965 
1 1 6.21345 4.62354 6.195 
2 1 7.69075 3.07736 7.69006 
3 1 6.99714 3.8046 6.98624 
40 1 10.0335 0.736571 10.0261 
41 1 8.4956 2.26824 8.49642 
42 1 9.20492 1.56112 9.20236 
7 1 6.19372 6.19709 4.60073 
8 1 7.69056 7.69078 3.07756 
9 1 6.98588 6.98823 3.79477 
43 1 10.0287 10.0282 0.737655 
44 1 8.49598 8.49616 2.2711 
45 1 9.20376 9.20359 1.56304 
22 1 6.26943 6.2708 6.23834 
23 1 7.78818 7.78926 7.79053 
24 1 7.08509 7.08656 7.07174 
34 1 10.1004 10.1 10.0994 
35 1 8.59215 8.59234 8.59515 
36 1 9.3014 9.30145 9.30219 
ITEM: TIMESTEP
60
ITEM: NUMBER OF ATOMS
49
ITEM: BOX BOUNDS pp pp pp
0.0000000000000000e+00 1.1000000000000000e+01
0.0000000000000000e+00 1.1002000000000001e+01
0.0000000000000000e+00 1.1000000000000000e+01
ITEM: ATOMS id type x y z 
10 1 4.70858 4.69638 4.69988 
11 1 3.0932 3.08428 2.98595 
12 1 3.77499 3.79492 3.99765 
46 1 0.732976 0.73071 0.731388 
47 1 2.27063 2.26927 2.25161 
48 1 1.55269 1.55025 1.55004 
49 2 2.84252 2.99772 4.61671 
19 1 4.59043 4.58539 6.32239 
20 1 3.04415 3.03332 7.84861 
21 1 3.7659 3.75772 7.17483 
31 1 0.674344 0.670541 10.0827 
32 1 2.19155 2.19027 8.58433 
33 1 1.47056 1.47897 9.27442 
16 1 4.55849 6.28888 4.55118 
17 1 2.98889 7.77365 2.99094 
18 1 3.70915 7.09062 3.70695 
25 1 0.666552 10.0879 0.666511 
26 1 2.17912 8.586 2.18408 
27 1 1.47775 9.29525 1.46941 
4 1 4.62572 6.2118 6.19585 
5 1 3.07972 7.69245 7.6888 
6 1 3.8028 6.99368 6.98744 
37 1 0.744329 10.0377 10.028 
38 1 2.26774 8.49585 8.494 
39 1 1.56521 9.20393 9.20494 
13 1 6.29612 4.55978 4.54944 
14 1 7.77481 2.98669 2.98817 
15 1 7.09484 3.70867 3.70415 
28 1 10.088 0.665654 0.665592 
29 1 8.58995 2.17652 2.18121 
30 1 9.2948 1.47186 1.46885 
1 1 6.21568 4.62721 6.19556 
2 1 7.69384 3.07836 7.69049 
3 1 6.99775 3.80594 6.9887 
40 1 10.0372 0.741209 10.0273 
41 1 8.49456 2.2657 8.49578 
42 1 9.20641 1.56192 9.20285 
7 1 6.19487 6.19977 4.60149 
8 1 7.69118 7.69289 3.07662 
9 1 6.98837 6.98942 3.79362 
43 1 10.0314 10.0304 0.739893 
44 1 8.49758 8.49773 2.26891 
45 1 9.20462 9.20355 1.56161 
22 1 6.27195 6.2736 6.24108 
23 1 7.79071 7.7922 7.79158 
24 1 7.08856 7.08957 7.07469 
34 1 10.1041 10.102 10.1008 
35 1 8.59501 8.59279 8.60019 
36 1 9.30385 9.30812 9.3018 
ITEM: TIMESTEP
70
ITEM: NUMBER OF ATOMS
49
ITEM: BOX BOUNDS pp pp pp
0.0000000000000000e+00 1.1000000000000000e+01
0.0000000000000000e+00 1.1002000000000001e+01
0.0000000000000000e+00 1.1000000000000000e+01
ITEM: ATOMS id type x y z 
10 1 4.70819 4.69606 4.69811 
11 1 3.09286 3.08449 2.98955 
12 1 3.7695 3.79066 4.00921 
46 1 0.733268 0.730703 0.731585 
47 1 2.27351 2.27057 2.24523 
48 1 1.55327 1.55121 1.54732 
49 2 2.83163 2.98782 4.61313 
19 1 4.5901 4.58522 6.32007 
20 1 3.0455 3.03554 7.84828 
21 1 3.7653 3.75614 7.17062 
31 1 0.672565 0.671679 10.0789 
32 1 2.18946 2.19176 8.58148 
33 1 1.47771 1.47919 9.28058 
16 1 4.55851 6.28811 4.55075 
17 1 2.98931 7.77284 2.99177 
18 1 3.71 7.09066 3.70782 
25 1 0.670015 10.0891 0.666563 
26 1 2.18135 8.58742 2.18207 
27 1 1.47272 9.29163 1.47157 
4 1 4.62544 6.21087 6.19649 
5 1 3.07892 7.69175 7.68868 
6 1 3.8054 6.99536 6.98741 
37 1 0.745154 10.0367 10.0293 
38 1 2.2677 8.49457 8.4951 
39 1 1.56501 9.20615 9.20278 
13 1 6.29548 4.55974 4.54893 
14 1 7.77468 2.98681 2.9882 
15 1 7.09498 3.70938 3.7052 
28 1 10.089 0.666908 0.666174 
29 1 8.58949 2.17839 2.18075 
30 1 9.29303 1.46886 1.4699 
1 1 6.21585 4.62757 6.19688 
2 1 7.69342 3.07926 7.69012 
3 1 6.99818 3.80649 6.98858 
40 1 10.0374 0.741873 10.0272 
41 1 8.49424 2.26555 8.49533 
42 1 9.20592 1.56262 9.20239 
7 1 6.19629 6.20074 4.60185 
8 1 7.69188 7.69306 3.07588 
9 1 6.98812 6.99055 3.79418 
43 1 10.032 10.0307 0.738852 
44 1 8.49742 8.4972 2.26776 
45 1 9.2061 9.20548 1.56212 
22 1 6.27263 6.27391 6.24203 
23 1 7.79185 7.79296 7.7923 
24 1 7.08873 7.09033 7.07506 
34 1 10.1045 10.1043 10.1002 
35 1 8.59528 8.59577 8.59909 
36 1 9.30507 9.30429 9.30564 
ITEM: TIMESTEP
80
ITEM: NUMBER OF ATOMS
49
ITEM: BOX BOUNDS pp pp pp
0.0000000000000000e+00 1.1000000000000000e+01
0.0000000000000000e+00 1.1002000000000001e+01
0.0000000000000000e+00 1.1000000000000000e+01
ITEM: ATOMS id type x y z 
10 1 4.70421 4.69223 4.68342 
11 1 3.09128 3.08407 3.00967 
12 1 3.7332 3.76091 4.07248 
46 1 0.730323 0.729247 0.729492 
47 1 2.29124 2.28396 2.2133 
48 1 1.56689 1.56241 1.52278 
49 2 2.76327 2.92641 4.59904 
19 1 4.59108 4.58529 6.31059 
20 1 3.04729 3.04165 7.84789 
21 1 3.75984 3.74892 7.14781 
31 1 0.681457 0.676882 10.079 
32 1 2.20065 2.19793 8.59288 
33 1 1.47522 1.48017 9.2724 
16 1 4.56253 6.28596 4.55168 
17 1 2.99111 7.77038 2.99407 
18 1 3.71422 7.09058 3.70995 
25 1 0.676018 10.0863 0.669705 
26 1 2.18055 8.58254 2.18265 
27 1 1.47365 9.28905 1.47213 
4 1 4.62883 6.21243 6.19794 
5 1 3.08129 7.69199 7.68844 
6 1 3.80842 6.99643 6.98739 
37 1 0.748978 10.0429 10.0284 
38 1 2.26521 8.49406 8.49518 
39 1 1.56514 9.20838 9.20245 
13 1 6.29332 4.56338 4.54902 
14 1 7.77337 2.98797 2.99092 
15 1 7.09556 3.71402 3.70718 
28 1 10.0889 0.670283 0.666863 
29 1 8.58421 2.17785 2.18049 
30 1 9.28981 1.47045 1.47025 
1 1 6.21654 4.63117 6.19965 
2 1 7.69231 3.08214 7.68965 
3 1 7.00066 3.811 6.98671 
40 1 10.0427 0.745495 10.0283 
41 1 8.49441 2.26284 8.49571 
42 1 9.20772 1.56225 9.20293 
7 1 6.20244 6.2038 4.60641 
8 1 7.69473 7.69521 3.0738 
9 1 6.98981 6.99468 3.79308 
43 1 10.036 10.0344 0.739168 
44 1 8.49871 8.49865 2.2642 
45 1 9.20795 9.2074 1.56053 
22 1 6.27477 6.27564 6.24513 
23 1 7.79605 7.79713 7.79481 
24 1 7.09276 7.09458 7.07845 
34 1 10.1098 10.1083 10.1015 
35 1 8.59943 8.6 8.6045 
36 1 9.31019 9.30926 9.30906 
ITEM: TIMESTEP
90
ITEM: NUMBER OF ATOMS
49
ITEM: BOX BOUNDS pp pp pp
0.0000000000000000e+00 1.1000000000000000e+01
0.0000000000000000e+00 1.1002000000000001e+01
0.0000000000000000e+00 1.1000000000000000e+01
ITEM: ATOMS id type x y z 
10 1 4.69983 4.68815 4.68169 
11 1 3.08828 3.08159 3.01255 
12 1 3.72533 3.755 4.08575 
46 1 0.733494 0.731377 0.730559 
47 1 2.29716 2.28863 2.20339 
48 1 1.56984 1.56434 1.52034 
49 2 2.75356 2.91798 4.59882 
19 1 4.59085 4.58426 6.30868 
20 1 3.04937 3.04163 7.84594 
21 1 3.75813 3.75034 7.14496 
31 1 0.676759 0.675391 10.0764 
32 1 2.19882 2.19926 8.58727 
33 1 1.48511 1.48477 9.28245 
16 1 4.56285 6.28373 4.55075 
17 1 2.99228 7.77111 2.99516 
18 1 3.71349 7.08814 3.7097 
25 1 0.675307 10.0891 0.668917 
26 1 2.18084 8.58057 2.18301 
27 1 1.47525 9.2888 1.47309 
4 1 4.63013 6.21287 6.19694 
5 1 3.08148 7.69294 7.68875 
6 1 3.80802 6.99595 6.98817 
37 1 0.750773 10.0422 10.0291 
38 1 2.26545 8.49303 8.49367 
39 1 1.56681 9.20802 9.2022 
13 1 6.29097 4.56354 4.54824 
14 1 7.77374 2.98923 2.9921 
15 1 7.09373 3.71351 3.707 
28 1 10.0907 0.670914 0.667821 
29 1 8.5831 2.17765 2.18108 
30 1 9.28916 1.47159 1.46956 
1 1 6.21734 4.63224 6.19778 
2 1 7.69411 3.08151 7.69002 
3 1 7.00048 3.81058 6.98885 
40 1 10.0421 0.746991 10.0281 
41 1 8.49286 2.26324 8.49447 
42 1 9.2079 1.56406 9.20201 
7 1 6.20186 6.2048 4.60619 
8 1 7.69334 7.69564 3.07306 
9 1 6.99234 6.99409 3.79491 
43 1 10.037 10.0348 0.740041 
44 1 8.49862 8.49915 2.26317 
45 1 9.20913 9.2075 1.56065 
22 1 6.27577 6.27687 6.24621 
23 1 7.79687 7.79785 7.79544 
24 1 7.093 7.095 7.07848 
34 1 10.1105 10.1092 10.1023 
35 1 8.59934 8.59993 8.60505 
36 1 9.31081 9.3099 9.30833 
ITEM: TIMESTEP
100
ITEM: NUMBER OF ATOMS
49
ITEM: BOX BOUNDS pp pp pp
0.0000000000000000e+00 1.1000000000000000e+01
0.0000000000000000e+00 1.1002000000000001e+01
0.0000000000000000e+00 1.1000000000000000e+01
ITEM: ATOMS id type x y z 
10 1 4.69619 4.68497 4.67995 
11 1 3.08611 3.07997 3.01682 
12 1 3.71635 3.74798 4.09764 
46 1 0.734224 0.732055 0.73089 
47 1 2.30231 2.29245 2.19444 
48 1 1.5752 1.56847 1.51343 
49 2 2.74135 2.90741 4.59955 
19 1 4.59097 4.5847 6.30718 
20 1 3.04891 3.04128 7.8447 
21 1 3.75732 3.74991 7.14196 
31 1 0.679291 0.677653 10.0775 
32 1 2.20025 2.20035 8.58959 
33 1 1.48593 1.48537 9.28325 
16 1 4.56333 6.28122 4.55004 
17 1 2.99324 7.7717 2.9961 
18 1 3.71338 7.08552 3.70997 
25 1 0.676137 10.0907 0.669448 
26 1 2.18075 8.57953 2.18261 
27 1 1.47565 9.28868 1.47364 
4 1 4.63099 6.21378 6.19616 
5 1 3.08207 7.69252 7.68859 
6 1 3.80888 6.9962 6.98759 
37 1 0.752426 10.0434 10.0296 
38 1 2.26583 8.49348 8.49311 
39 1 1.56629 9.20691 9.20241 
13 1 6.28835 4.5635 4.54751 
14 1 7.7739 2.99007 2.99313 
15 1 7.09234 3.71367 3.70694 
28 1 10.0914 0.672229 0.667312 
29 1 8.58094 2.17819 2.17911 
30 1 9.29102 1.4707 1.47308 
1 1 6.21899 4.63302 6.19658 
2 1 7.69439 3.0821 7.6896 
3 1 6.9999 3.81129 6.98904 
40 1 10.042 0.747368 10.0285 
41 1 8.49165 2.26247 8.49394 
42 1 9.20961 1.56597 9.20192 
7 1 6.20185 6.20494 4.60655 
8 1 7.69315 7.69553 3.07282 
9 1 6.99288 6.99468 3.79553 
43 1 10.0397 10.036 0.741159 
44 1 8.50021 8.49939 2.26352 
45 1 9.20792 9.20886 1.55745 
22 1 6.27619 6.27707 6.24656 
23 1 7.79718 7.7978 7.79577 
24 1 7.09382 7.09657 7.07878 
34 1 10.1125 10.1109 10.1018 
35 1 8.60094 8.6015 8.60379 
36 1 9.30983 9.30894 9.31247 
ITEM: TIMESTEP
110
ITEM: NUMBER OF ATOMS
49
ITEM: BOX BOUNDS pp pp pp
0.0000000000000000e+00 1.1000000000000000e+01
0.0000000000000000e+00 1.1002000000000001e+01
0.0000000000000000e+00 1.1000000000000000e+01
ITEM: ATOMS id type x y z 
10 1 4.67541 4.66528 4.67328 
11 1 3.07563 3.0724 3.04195 
12 1 3.67069 3.71237 4.15902 
46 1 0.742884 0.740578 0.727772 
47 1 2.33653 2.3186 2.14632 
48 1 1.59643 1.5858 1.48805 
49 2 2.67971 2.85402 4.60074 
19 1 4.59026 4.58495 6.29875 
20 1 3.04683 3.04015 7.83501 
21 1 3.75456 3.74848 7.13163 
31 1 0.683272 0.681767 10.0813 
32 1 2.20917 2.20732 8.59738 
33 1 1.49326 1.49188 9.28916 
16 1 4.56272 6.26539 4.54503 
17 1 2.99666 7.77139 3.00045 
18 1 3.71363 7.0785 3.70972 
25 1 0.683136 10.0956 0.671243 
26 1 2.18104 8.574 2.18308 
27 1 1.47915 9.28716 1.47474 
4 1 4.63608 6.21701 6.19219 
5 1 3.08393 7.69171 7.68854 
6 1 3.81227 6.99905 6.98568 
37 1 0.758269 10.048 10.0322 
38 1 2.26473 8.49276 8.49211 
39 1 1.56805 9.20778 9.20217 
13 1 6.27316 4.56253 4.54322 
14 1 7.77457 2.99412 2.99711 
15 1 7.08517 3.71428 3.70691 
28 1 10.0975 0.67686 0.669947 
29 1 8.57566 2.17746 2.18042 
30 1 9.2888 1.47473 1.47283 
1 1 6.22369 4.63761 6.19116 
2 1 7.69391 3.08414 7.69007 
3 1 7.0027 3.81371 6.98695 
40 1 10.0467 0.751625 10.0314 
41 1 8.49013 2.25975 8.49328 
42 1 9.21389 1.57069 9.20168 
7 1 6.20261 6.20473 4.60931 
8 1 7.69496 7.69716 3.07175 
9 1 6.99506 6.99668 3.79531 
43 1 10.0481 10.0425 0.743535 
44 1 8.50391 8.50157 2.26211 
45 1 9.2047 9.21079 1.5508 
22 1 6.27835 6.2799 6.2461 
23 1 7.79998 7.80162 7.79735 
24 1 7.09721 7.09898 7.08071 
34 1 10.12 10.1177 10.1061 
35 1 8.60497 8.60521 8.60784 
36 1 9.31391 9.31261 9.31566 
ITEM: TIMESTEP
120
ITEM: NUMBER OF ATOMS
49
ITEM: BOX BOUNDS pp pp pp
0.0000000000000000e+00 1.1000000000000000e+01
0.0000000000000000e+00 1.1002000000000001e+01
0.0000000000000000e+00 1.1000000000000000e+01
ITEM: ATOMS id type x y z 
10 1 4.67389 4.6639 4.67385 
11 1 3.07454 3.07137 3.0433 
12 1 3.66871 3.71083 4.16145 
46 1 0.743259 0.740744 0.727948 
47 1 2.33847 2.3203 2.144 
48 1 1.59798 1.58705 1.48636 
49 2 2.67601 2.85083 4.60011 
19 1 4.59074 4.58486 6.30008 
20 1 3.04696 3.04035 7.83462 
21 1 3.75457 3.74848 7.13111 
31 1 0.682903 0.681438 10.0805 
32 1 2.20864 2.2069 8.59711 
33 1 1.49439 1.49262 9.29165 
16 1 4.56136 6.26397 4.54453 
17 1 2.99608 7.77056 3.00057 
18 1 3.7149 7.07885 3.70947 
25 1 0.683993 10.0967 0.671148 
26 1 2.1811 8.57388 2.18342 
27 1 1.47966 9.28729 1.47478 
4 1 4.63628 6.21775 6.19151 
5 1 3.08383 7.69162 7.68835 
6 1 3.81281 6.99962 6.98554 
37 1 0.758089 10.0475 10.0326 
38 1 2.26373 8.49236 8.49238 
39 1 1.56936 9.2092 9.20248 
13 1 6.27181 4.56172 4.54273 
14 1 7.77432 2.99445 2.99717 
15 1 7.08438 3.71416 3.70697 
28 1 10.0983 0.678117 0.670127 
29 1 8.57577 2.1774 2.18046 
30 1 9.289 1.47479 1.47288 
1 1 6.22398 4.63801 6.1907 
2 1 7.6935 3.0842 7.69019 
3 1 7.0036 3.81387 6.98599 
40 1 10.0484 0.753732 10.0318 
41 1 8.49228 2.26141 8.49351 
42 1 9.21079 1.56736 9.20222 
7 1 6.20259 6.20436 4.60895 
8 1 7.69544 7.69714 3.07261 
9 1 6.99424 6.99599 3.79432 
43 1 10.0471 10.043 0.742652 
44 1 8.50206 8.50197 2.26009 
45 1 9.20816 9.21119 1.55376 
22 1 6.27846 6.27973 6.24529 
23 1 7.8 7.80174 7.79739 
24 1 7.09746 7.09903 7.0806 
34 1 10.1196 10.1171 10.1067 
35 1 8.60477 8.6049 8.60986 
36 1 9.31578 9.31467 9.3132 
ITEM: TIMESTEP
130
ITEM: NUMBER OF ATOMS
49
ITEM: BOX BOUNDS pp pp pp
0.0000000000000000e+00 1.1000000000000000e+01
0.0000000000000000e+00 1.1002000000000001e+01
0.0000000000000000e+00 1.1000000000000000e+01
ITEM: ATOMS id type x y z 
10 1 4.67357 4.6636 4.67401 
11 1 3.07438 3.07123 3.04363 
12 1 3.66828 3.71048 4.16194 
46 1 0.743429 0.740834 0.727907 
47 1 2.33889 2.32064 2.14336 
48 1 1.59814 1.58718 1.48637 
49 2 2.67541 2.85031 4.59994 
19 1 4.59079 4.58493 6.30016 
20 1 3.04683 3.04032 7.8345 
21 1 3.75474 3.74848 7.13119 
31 1 0.683028 0.681485 10.0805 
32 1 2.20873 2.20691 8.59722 
33 1 1.49437 1.4927 9.29172 
16 1 4.56132 6.26381 4.54444 
17 1 2.99617 7.77056 3.00054 
18 1 3.71473 7.07866 3.70948 
25 1 0.684009 10.0968 0.671162 
26 1 2.18112 8.57384 2.1834 
27 1 1.47969 9.28739 1.47491 
4 1 4.63637 6.21787 6.19142 
5 1 3.08387 7.69164 7.68834 
6 1 3.81279 6.99964 6.98547 
37 1 0.75809 10.0474 10.0327 
38 1 2.26369 8.49229 8.49233 
39 1 1.56951 9.20933 9.20256 
13 1 6.27154 4.5616 4.54268 
14 1 7.7743 2.9945 2.9972 
15 1 7.08422 3.71411 3.70689 
28 1 10.0984 0.678108 0.6702 
29 1 8.5757 2.17735 2.18051 
30 1 9.28914 1.47495 1.47289 
1 1 6.2241 4.63808 6.19056 
2 1 7.69356 3.08422 7.69013 
3 1 7.00358 3.81387 6.98599 
40 1 10.0486 0.754012 10.0318 
41 1 8.49262 2.26169 8.49343 
42 1 9.21021 1.56688 9.20243 
7 1 6.20252 6.20425 4.60884 
8 1 7.69548 7.69715 3.07267 
9 1 6.99424 6.99594 3.79423 
43 1 10.047 10.0432 0.742479 
44 1 8.50182 8.5021 2.25962 
45 1 9.20878 9.21129 1.5543 
22 1 6.2785 6.27975 6.2451 
23 1 7.80001 7.80177 7.79737 
24 1 7.0975 7.09903 7.08065 
34 1 10.1195 10.117 10.1069 
35 1 8.60474 8.60488 8.61009 
36 1 9.316 9.31491 9.3129 
ITEM: TIMESTEP
140
ITEM: NUMBER OF ATOMS
49
ITEM: BOX BOUNDS pp pp pp
0.0000000000000000e+00 1.1000000000000000e+01
0.0000000000000000e+00 1.1002000000000001e+01
0.0000000000000000e+00 1.1000000000000000e+01
ITEM: ATOMS id type x y z 
10 1 4.67327 4.66332 4.67413 
11 1 3.07421 3.07108 3.04393 
12 1 3.66786 3.71016 4.16244 
46 1 0.743511 0.740858 0.728022 
47 1 2.33921 2.32091 2.14292 
48 1 1.59846 1.58742 1.48597 
49 2 2.67479 2.84977 4.59979 
19 1 4.59093 4.58499 6.30035 
20 1 3.04682 3.04031 7.83449 
21 1 3.75468 3.74844 7.1311 
31 1 0.683074 0.681513 10.0805 
32 1 2.20878 2.20696 8.5973 
33 1 1.49446 1.49273 9.29183 
16 1 4.5612 6.26358 4.54439 
17 1 2.99614 7.77049 3.00055 
18 1 3.7148 7.07859 3.70942 
25 1 0.684128 10.097 0.671182 
26 1 2.18115 8.57387 2.18344 
27 1 1.47968 9.28737 1.47493 
4 1 4.63647 6.21803 6.19132 
5 1 3.08391 7.69168 7.68832 
6 1 3.81278 6.99966 6.98541 
37 1 0.758138 10.0474 10.0328 
38 1 2.26367 8.49231 8.49234 
39 1 1.56954 9.20935 9.20261 
13 1 6.27125 4.5615 4.5426 
14 1 7.77427 2.99455 2.99722 
15 1 7.08407 3.71406 3.70686 
28 1 10.0985 0.678257 0.670238 
29 1 8.57572 2.17737 2.18054 
30 1 9.28914 1.47498 1.47292 
1 1 6.22424 4.63818 6.19045 
2 1 7.69361 3.08427 7.6901 
3 1 7.00359 3.81384 6.98593 
40 1 10.0487 0.754135 10.0318 
41 1 8.4928 2.26176 8.49341 
42 1 9.20996 1.56671 9.2026 
7 1 6.20239 6.20422 4.60877 
8 1 7.69547 7.69728 3.07276 
9 1 6.99433 6.9957 3.79406 
43 1 10.0469 10.0433 0.742343 
44 1 8.50153 8.50214 2.25924 
45 1 9.20937 9.21139 1.55484 
22 1 6.27854 6.27976 6.24494 
23 1 7.80002 7.80178 7.7974 
24 1 7.09755 7.09906 7.08061 
34 1 10.1195 10.1171 10.1068 
35 1 8.6048 8.60493 8.61015 
36 1 9.31607 9.31499 9.31291 
ITEM: TIMESTEP
150
ITEM: NUMBER OF ATOMS
49
ITEM: BOX BOUNDS pp pp pp
0.0000000000000000e+00 1.1000000000000000e+01
0.0000000000000000e+00 1.1002000000000001e+01
0.0000000000000000e+00 1.1000000000000000e+01
ITEM: ATOMS id type x y z 
10 1 4.65363 4.64653 4.68336 
11 1 3.06411 3.06258 3.06152 
12 1 3.64215 3.69007 4.19344 
46 1 0.750581 0.744713 0.729661 
47 1 2.36165 2.33938 2.11149 
48 1 1.61423 1.59945 1.47049 
49 2 2.63643 2.81674 4.59138 
19 1 4.59638 4.58833 6.30859 
20 1 3.04385 3.03829 7.83002 
21 1 3.75632 3.74949 7.13263 
31 1 0.685608 0.682406 10.0822 
32 1 2.21248 2.20957 8.60277 
33 1 1.49755 1.49531 9.29687 
16 1 4.5558 6.25017 4.54087 
17 1 2.99677 7.7673 3.00008 
18 1 3.71402 7.07174 3.70782 
25 1 0.687961 10.1045 0.673623 
26 1 2.18149 8.57383 2.18479 
27 1 1.48241 9.29013 1.47744 
4 1 4.64108 6.22412 6.18467 
5 1 3.08317 7.69129 7.68682 
6 1 3.81714 7.00597 6.98277 
37 1 0.761912 10.0484 10.0379 
38 1 2.26369 8.49294 8.49249 
39 1 1.57135 9.20944 9.20465 
13 1 6.25429 4.55423 4.53763 
14 1 7.77204 2.99671 2.99773 
15 1 7.07562 3.71146 3.7044 
28 1 10.106 0.684518 0.673004 
29 1 8.57533 2.17818 2.18265 
30 1 9.29136 1.47827 1.4752 
1 1 6.2302 4.64234 6.18441 
2 1 7.69518 3.08445 7.68867 
3 1 7.0086 3.81577 6.98301 
40 1 10.048 0.757048 10.0362 
41 1 8.49429 2.26198 8.49427 
42 1 9.20946 1.56779 9.20534 
7 1 6.19749 6.19737 4.60208 
8 1 7.69759 7.69911 3.07314 
9 1 6.99415 6.99455 3.78906 
43 1 10.0503 10.0501 0.742661 
44 1 8.49462 8.50381 2.24494 
45 1 9.22783 9.2181 1.57342 
22 1 6.28151 6.28135 6.23528 
23 1 7.79964 7.80195 7.79852 
24 1 7.10027 7.10104 7.07766 
34 1 10.1231 10.1212 10.1066 
35 1 8.60707 8.60653 8.61211 
36 1 9.31835 9.31841 9.31265 
ITEM: TIMESTEP
152
ITEM: NUMBER OF ATOMS
49
ITEM: BOX BOUNDS pp pp pp
0.0000000000000000e+00 1.1000000000000000e+01
0.0000000000000000e+00 1.1002000000000001e+01
0.0000000000000000e+00 1.1000000000000000e+01
ITEM: ATOMS id type x y z 
10 1 4.65363 4.64653 4.68336 
11 1 3.06411 3.06258 3.06152 
12 1 3.64215 3.69007 4.19344 
46 1 0.750581 0.744713 0.729662 
47 1 2.36165 2.33938 2.11149 
48 1 1.61423 1.59945 1.47049 
49 2 2.63643 2.81674 4.59138 
19 1 4.59638 4.58833 6.30859 
20 1 3.04385 3.03829 7.83002 
21 1 3.75632 3.74949 7.13263 
31 1 0.685608 0.682406 10.0822 
32 1 2.21248 2.20957 8.60277 
33 1 1.49755 1.49531 9.29687 
16 1 4.5558 6.25017 4.54087 
17 1 2.99677 7.7673 3.00008 
18 1 3.71402 7.07175 3.70782 
25 1 0.68796 10.1045 0.673623 
26 1 2.18149 8.57383 2.18479 
27 1 1.48241 9.29013 1.47744 
4 1 4.64108 6.22412 6.18467 
5 1 3.08317 7.69129 7.68682 
6 1 3.81714 7.00597 6.98277 
37 1 0.761912 10.0484 10.0379 
38 1 2.26369 8.49294 8.49249 
39 1 1.57135 9.20944 9.20465 
13 1 6.25429 4.55423 4.53763 
14 1 7.77204 2.99671 2.99773 
15 1 7.07562 3.71146 3.7044 
28 1 10.106 0.684517 0.673003 
29 1 8.57533 2.17818 2.18265 
30 1 9.29136 1.47827 1.4752 
1 1 6.2302 4.64234 6.18441 
2 1 7.69518 3.08446 7.68867 
3 1 7.0086 3.81577 6.98301 
40 1 10.048 0.757048 10.0362 
41 1 8.49429 2.26198 8.49427 
42 1 9.20946 1.56779 9.20534 
7 1 6.19749 6.19737 4.60208 
8 1 7.69759 7.69911 3.07314 
9 1 6.99415 6.99455 3.78906 
43 1 10.0503 10.0501 0.742661 
44 1 8.49462 8.50381 2.24494 
45 1 9.22783 9.2181 1.57342 
22 1 6.28151 6.28135 6.23528 
23 1 7.79964 7.80195 7.79852 
24 1 7.10027 7.10104 7.07766 
34 1 10.1231 10.1212 10.1066 
35 1 8.60707 8.60653 8.61211 
36 1 9.31835 9.31841 9.31265 
ITEM: TIMESTEP
153
ITEM: NUMBER OF ATOMS
49
ITEM: BOX BOUNDS pp pp pp
0.0000000000000000e+00 1.1000000000000000e+01
0.0000000000000000e+00 1.1002000000000001e+01
0.0000000000000000e+00 1.1000000000000000e+01
ITEM: ATOMS id type x y z 
10 1 4.65363 4.64653 4.68336 
11 1 3.06411 3.06258 3.06152 
12 1 3.64215 3.69007 4.19344 
46 1 0.750581 0.744713 0.729662 
47 1 2.36165 2.33938 2.11149 
48 1 1.61423 1.59945 1.47049 
49 2 2.63643 2.81674 4.59138 
19 1 4.59638 4.58833 6.30859 
20 1 3.04385 3.03829 7.83002 
21 1 3.75632 3.74949 7.13263 
31 1 0.685608 0.682406 10.0822 
32 1 2.21248 2.20957 8.60277 
33 1 1.49755 1.49531 9.29687 
16 1 4.5558 6.25017 4.54087 
17 1 2.99677 7.7673 3.00008 
18 1 3.71402 7.07175 3.70782 
25 1 0.68796 10.1045 0.673623 
26 1 2.18149 8.57383 2.18479 
27 1 1.48241 9.29013 1.47744 
4 1 4.64108 6.22412 6.18467 
5 1 3.08317 7.69129 7.68682 
6 1 3.81714 7.00597 6.98277 
37 1 0.761912 10.0484 10.0379 
38 1 2.26369 8.49294 8.49249 
39 1 1.57135 9.20944 9.20465 
13 1 6.25429 4.55423 4.53763 
14 1 7.77204 2.99671 2.99773 
15 1 7.07562 3.71146 3.7044 
28 1 10.106 0.684517 0.673003 
29 1 8.57533 2.17818 2.18265 
30 1 9.29136 1.47827 1.4752 
1 1 6.2302 4.64234 6.18441 
2 1 7.69518 3.08446 7.68867 
3 1 7.0086 3.81577 6.98301 
40 1 10.048 0.757048 10.0362 
41 1 8.49429 2.26198 8.49427 
42 1 9.20946 1.56779 9.20534 
7 1 6.19749 6.19737 4.60208 
8 1 7.69759 7.69911 3.07314 
9 1 6.99415 6.99455 3.78906 
43 1 10.0503 10.0501 0.742661 
44 1 8.49462 8.50381 2.24494 
45 1 9.22783 9.2181 1.57342 