ITEM: TIMESTEP
0
ITEM: NUMBER OF ATOMS
41
ITEM: BOX BOUNDS pp pp pp
0.0000000000000000e+00 9.8979999999999997e+00
0.0000000000000000e+00 9.8979999999999997e+00
0.0000000000000000e+00 9.8979999999999997e+00
ITEM: ATOMS id type x y z 
1 1 1.091 1.091 1.091 
2 1 0.2 0.2 0.2 
3 1 1.982 1.982 0.2 
4 1 0.2 1.982 1.982 
5 1 1.982 0.2 1.982 
41 2 2.125 1.619 1.802 
11 1 3.566 3.566 8.515 
12 1 2.675 2.675 9.406 
13 1 4.456 4.456 9.405 
14 1 4.457 2.675 7.624 
15 1 2.675 4.457 7.624 
16 1 3.566 8.515 3.566 
17 1 2.675 9.406 2.675 
18 1 4.457 7.624 2.675 
19 1 4.456 9.405 4.456 
20 1 2.675 7.624 4.457 
31 1 1.091 6.04 6.04 
32 1 0.2 5.149 5.149 
33 1 1.982 6.931 5.149 
34 1 0.2 6.931 6.931 
35 1 1.982 5.149 6.931 
26 1 8.515 3.566 3.566 
27 1 9.406 2.675 2.675 
28 1 7.624 4.457 2.675 
29 1 7.624 2.675 4.457 
30 1 9.405 4.456 4.456 
36 1 6.04 1.091 6.04 
37 1 6.931 0.2 6.931 
38 1 5.149 0.2 5.149 
39 1 5.149 1.982 6.931 
40 1 6.931 1.982 5.149 
21 1 6.04 6.04 1.091 
22 1 5.149 6.931 1.982 
23 1 6.931 5.149 1.982 
24 1 5.149 5.149 0.2 
25 1 6.931 6.931 0.2 
6 1 8.515 8.515 8.515 
7 1 9.405 9.405 9.405 
8 1 7.624 7.624 9.406 
9 1 7.624 9.406 7.624 
10 1 9.406 7.624 7.624 
ITEM: TIMESTEP
10
ITEM: NUMBER OF ATOMS
41
ITEM: BOX BOUNDS pp pp pp
0.0000000000000000e+00 9.8979999999999997e+00
0.0000000000000000e+00 9.8979999999999997e+00
0.0000000000000000e+00 9.8979999999999997e+00
ITEM: ATOMS id type x y z 
1 1 0.930206 1.09385 1.06195 
2 1 0.167636 0.173324 0.172185 
3 1 2.03376 2.02285 0.161347 
4 1 0.0417576 1.96746 1.95086 
5 1 2.002 0.0876566 2.01244 
41 2 2.38921 1.76193 1.86164 
11 1 3.5685 3.57018 8.51067 
12 1 2.7023 2.71592 9.33244 
13 1 4.46495 4.46525 9.41459 
14 1 4.46464 2.66637 7.61595 
15 1 2.66614 4.46545 7.6152 
16 1 3.57791 8.50231 3.58325 
17 1 2.71905 9.31139 2.72617 
18 1 4.46728 7.61354 2.66398 
19 1 4.46647 9.41623 4.4668 
20 1 2.66435 7.61341 4.46762 
31 1 1.08737 6.03836 6.04153 
32 1 0.20116 5.14859 5.14929 
33 1 1.97745 6.92713 5.15267 
34 1 0.196725 6.9341 6.93478 
35 1 1.98112 5.14934 6.93094 
26 1 8.48801 3.59432 3.59515 
27 1 9.3732 2.7038 2.70457 
28 1 7.61671 4.46385 2.67135 
29 1 7.6163 2.67085 4.46396 
30 1 9.40911 4.46415 4.46399 
36 1 6.04402 1.09259 6.04165 
37 1 6.93511 0.197787 6.93474 
38 1 5.15366 0.205105 5.15299 
39 1 5.15027 1.98166 6.93062 
40 1 6.93165 1.98129 5.14955 
21 1 6.04398 6.03859 1.08917 
22 1 5.15283 6.9275 1.97844 
23 1 6.93134 5.14909 1.9805 
24 1 5.14983 5.14855 0.200511 
25 1 6.93527 6.93401 0.196877 
6 1 8.5098 8.50873 8.50914 
7 1 9.3829 9.38111 9.38123 
8 1 7.61726 7.61753 9.41259 
9 1 7.61717 9.41231 7.61719 
10 1 9.41257 7.61756 7.6175 
ITEM: TIMESTEP
20
ITEM: NUMBER OF ATOMS
41
ITEM: BOX BOUNDS pp pp pp
0.0000000000000000e+00 9.8979999999999997e+00
0.0000000000000000e+00 9.8979999999999997e+00
0.0000000000000000e+00 9.8979999999999997e+00
ITEM: ATOMS id type x y z 
1 1 0.90365 1.10544 1.08161 
2 1 0.164556 0.178249 0.174784 
3 1 2.06042 2.03222 0.196289 
4 1 -0.0223172 1.9654 1.94501 
5 1 2.02947 0.0995025 2.0252 
41 2 2.44964 1.74912 1.83461 
11 1 3.57817 3.58077 8.49533 
12 1 2.69207 2.7194 9.31376 
13 1 4.46575 4.46623 9.4142 
14 1 4.46658 2.66699 7.61322 
15 1 2.66766 4.46758 7.61276 
16 1 3.58483 8.49125 3.59121 
17 1 2.70605 9.29292 2.72547 
18 1 4.46869 7.61142 2.66575 
19 1 4.46784 9.41588 4.46857 
20 1 2.66594 7.61118 4.46976 
31 1 1.08468 6.03866 6.0419 
32 1 0.204584 5.1522 5.15314 
33 1 1.97402 6.92477 5.15561 
34 1 0.200883 6.92967 6.93066 
35 1 1.97529 5.15392 6.92655 
26 1 8.48952 3.59546 3.59641 
27 1 9.36042 2.7027 2.70155 
28 1 7.61537 4.46499 2.67522 
29 1 7.6154 2.67503 4.46486 
30 1 9.40563 4.46494 4.4649 
36 1 6.04653 1.09231 6.04215 
37 1 6.93192 0.202212 6.93055 
38 1 5.15666 0.208016 5.15521 
39 1 5.15509 1.97755 6.92743 
40 1 6.92918 1.97798 5.15283 
21 1 6.04634 6.03862 1.08855 
22 1 5.15565 6.92632 1.97607 
23 1 6.92931 5.15185 1.97736 
24 1 5.15537 5.1529 0.205126 
25 1 6.93179 6.92939 0.201334 
6 1 8.50304 8.5016 8.50207 
7 1 9.37942 9.37445 9.37476 
8 1 7.61901 7.61931 9.40781 
9 1 7.61896 9.4074 7.61919 
10 1 9.40796 7.61919 7.61924 
ITEM: TIMESTEP
30
ITEM: NUMBER OF ATOMS
41
ITEM: BOX BOUNDS pp pp pp
0.0000000000000000e+00 9.8979999999999997e+00
0.0000000000000000e+00 9.8979999999999997e+00
0.0000000000000000e+00 9.8979999999999997e+00
ITEM: ATOMS id type x y z 
1 1 0.828027 1.09819 1.08796 
2 1 0.151913 0.182924 0.176129 
3 1 2.14845 2.07842 0.286705 
4 1 -0.0893926 1.93617 1.91497 
5 1 2.09798 0.181806 2.06025 
41 2 2.5556 1.72967 1.77561 
11 1 3.58825 3.59462 8.47109 
12 1 2.65329 2.721 9.27682 
13 1 4.46703 4.46659 9.40751 
14 1 4.47304 2.67122 7.60463 
15 1 2.67471 4.47271 7.60484 
16 1 3.60726 8.45772 3.61202 
17 1 2.6595 9.23884 2.72202 
18 1 4.47886 7.6 2.66836 
19 1 4.47333 9.41457 4.47443 
20 1 2.66931 7.59917 4.48065 
31 1 1.07875 6.04246 6.04204 
32 1 0.203872 5.15442 5.15533 
33 1 1.97096 6.92301 5.15971 
34 1 0.199164 6.92825 6.9292 
35 1 1.97423 5.15652 6.92554 
26 1 8.47981 3.61019 3.61056 
27 1 9.31339 2.70399 2.69774 
28 1 7.60865 4.47251 2.6826 
29 1 7.609 2.68237 4.47257 
30 1 9.40192 4.47173 4.47249 
36 1 6.05174 1.08915 6.04236 
37 1 6.93194 0.202047 6.92865 
38 1 5.15833 0.207815 5.1547 
39 1 5.15835 1.9782 6.92864 
40 1 6.9301 1.97821 5.15444 
21 1 6.05111 6.0424 1.08974 
22 1 5.15991 6.92583 1.97426 
23 1 6.92987 5.15343 1.977 
24 1 5.1561 5.15163 0.203246 
25 1 6.93102 6.92699 0.201395 
6 1 8.49375 8.49123 8.49221 
7 1 9.37836 9.36613 9.36418 
8 1 7.61521 7.61462 9.40385 
9 1 7.61532 9.40302 7.61548 
10 1 9.40298 7.61524 7.61607 
ITEM: TIMESTEP
40
ITEM: NUMBER OF ATOMS
41
ITEM: BOX BOUNDS pp pp pp
0.0000000000000000e+00 9.8979999999999997e+00
0.0000000000000000e+00 9.8979999999999997e+00
0.0000000000000000e+00 9.8979999999999997e+00
ITEM: ATOMS id type x y z 
1 1 0.815531 1.09378 1.07871 
2 1 0.144229 0.187579 0.180641 
3 1 2.14513 2.07677 0.304686 
4 1 -0.0708187 1.92379 1.90656 
5 1 2.099 0.207756 2.06493 
41 2 2.62229 1.74887 1.79876 
11 1 3.58132 3.58647 8.47343 
12 1 2.6347 2.7187 9.28557 
13 1 4.46429 4.4634 9.39902 
14 1 4.46911 2.68233 7.60851 
15 1 2.68169 4.4742 7.6016 
16 1 3.58998 8.46192 3.59535 
17 1 2.64249 9.23759 2.72218 
18 1 4.48011 7.59874 2.67589 
19 1 4.47425 9.40987 4.47431 
20 1 2.67821 7.59652 4.48228 
31 1 1.0806 6.03847 6.04532 
32 1 0.202809 5.15519 5.15635 
33 1 1.97446 6.9272 5.15649 
34 1 0.197152 6.9285 6.92961 
35 1 1.97507 5.15651 6.92659 
26 1 8.48791 3.59923 3.59899 
27 1 9.29824 2.68871 2.68025 
28 1 7.60589 4.4779 2.68485 
29 1 7.60646 2.68484 4.47772 
30 1 9.40131 4.4745 4.4752 
36 1 6.04972 1.0906 6.04053 
37 1 6.93249 0.200108 6.92946 
38 1 5.1544 0.204096 5.15074 
39 1 5.16197 1.97554 6.92564 
40 1 6.92881 1.97817 5.15572 
21 1 6.04865 6.03579 1.08572 
22 1 5.15905 6.92749 1.97586 
23 1 6.92822 5.15479 1.9769 
24 1 5.1547 5.14945 0.201173 
25 1 6.93134 6.92727 0.199891 
6 1 8.50192 8.50192 8.50316 
7 1 9.37771 9.36121 9.3575 
8 1 7.61657 7.61521 9.39858 
9 1 7.61689 9.39772 7.61612 
10 1 9.39715 7.61629 7.61722 
ITEM: TIMESTEP
50
ITEM: NUMBER OF ATOMS
41
ITEM: BOX BOUNDS pp pp pp
0.0000000000000000e+00 9.8979999999999997e+00
0.0000000000000000e+00 9.8979999999999997e+00
0.0000000000000000e+00 9.8979999999999997e+00
ITEM: ATOMS id type x y z 
1 1 0.828467 1.07549 1.06526 
2 1 0.136911 0.221285 0.207901 
3 1 2.13459 2.05783 0.407051 
4 1 -0.00981161 1.89871 1.88403 
5 1 2.10048 0.33194 2.0585 
41 2 2.75797 1.7442 1.80058 
11 1 3.55118 3.56755 8.48941 
12 1 2.58817 2.68912 9.35184 
13 1 4.45848 4.4556 9.38488 
14 1 4.47292 2.68675 7.60385 
15 1 2.69733 4.47082 7.60069 
16 1 3.57099 8.48226 3.57561 
17 1 2.57559 9.30113 2.6832 
18 1 4.48135 7.59678 2.68451 
19 1 4.46612 9.39467 4.4638 
20 1 2.69323 7.59279 4.4817 
31 1 1.08654 6.04336 6.04675 
32 1 0.190836 5.15028 5.15427 
33 1 1.97825 6.9237 5.16126 
34 1 0.191708 6.92506 6.92991 
35 1 1.98425 5.1548 6.92839 
26 1 8.49532 3.57431 3.5713 
27 1 9.27292 2.63847 2.63156 
28 1 7.61121 4.47819 2.69742 
29 1 7.6123 2.69785 4.47644 
30 1 9.39479 4.46853 4.46842 
36 1 6.03772 1.08703 6.04409 
37 1 6.92771 0.197509 6.92505 
38 1 5.14379 0.190164 5.14 
39 1 5.15895 1.98521 6.92792 
40 1 6.93169 1.98986 5.15349 
21 1 6.03698 6.03431 1.07724 
22 1 5.16224 6.92212 1.9778 
23 1 6.9289 5.15135 1.98695 
24 1 5.1452 5.13803 0.185718 
25 1 6.92725 6.92142 0.196003 
6 1 8.50598 8.50221 8.50308 
7 1 9.3968 9.37336 9.36929 
8 1 7.61035 7.60849 9.40129 
9 1 7.61068 9.40004 7.60906 
10 1 9.39468 7.61244 7.61249 
ITEM: TIMESTEP
60
ITEM: NUMBER OF ATOMS
41
ITEM: BOX BOUNDS pp pp pp
0.0000000000000000e+00 9.8979999999999997e+00
0.0000000000000000e+00 9.8979999999999997e+00
0.0000000000000000e+00 9.8979999999999997e+00
ITEM: ATOMS id type x y z 
1 1 0.854485 1.0752 1.07124 
2 1 0.125992 0.226875 0.214429 
3 1 2.13806 2.05385 0.436772 
4 1 0.0199378 1.89345 1.88175 
5 1 2.10803 0.372742 2.05544 
41 2 2.8007 1.74733 1.79547 
11 1 3.52728 3.53986 8.51196 
12 1 2.58459 2.68995 9.37636 
13 1 4.45257 4.4491 9.38641 
14 1 4.46498 2.68368 7.61232 
15 1 2.6909 4.46696 7.6049 
16 1 3.54117 8.49558 3.54972 
17 1 2.56755 9.32085 2.68811 
18 1 4.47235 7.60544 2.68479 
19 1 4.4568 9.39004 4.45438 
20 1 2.69406 7.59969 4.47323 
31 1 1.08628 6.03808 6.04185 
32 1 0.187161 5.14844 5.15252 
33 1 1.99019 6.92395 5.15786 
34 1 0.189818 6.92535 6.92893 
35 1 1.99197 5.15304 6.92501 
26 1 8.50766 3.55564 3.55331 
27 1 9.27852 2.62628 2.61633 
28 1 7.61065 4.47787 2.69143 
29 1 7.61139 2.69124 4.47682 
30 1 9.39784 4.46161 4.46174 
36 1 6.0355 1.08924 6.03295 
37 1 6.9257 0.193648 6.92422 
38 1 5.14197 0.18503 5.1386 
39 1 5.15291 1.99332 6.92711 
40 1 6.9261 1.99283 5.15618 
21 1 6.03406 6.02726 1.08217 
22 1 5.15539 6.92257 1.98769 
23 1 6.924 5.15303 1.99012 
24 1 5.13995 5.13388 0.176392 
25 1 6.92575 6.92073 0.190867 
6 1 8.51139 8.51131 8.51093 
7 1 9.39949 9.37853 9.37304 
8 1 7.61168 7.60904 9.40179 
9 1 7.61096 9.40107 7.60985 
10 1 9.39522 7.61141 7.61298 
ITEM: TIMESTEP
68
ITEM: NUMBER OF ATOMS
41
ITEM: BOX BOUNDS pp pp pp
0.0000000000000000e+00 9.8979999999999997e+00
0.0000000000000000e+00 9.8979999999999997e+00
0.0000000000000000e+00 9.8979999999999997e+00
ITEM: ATOMS id type x y z 
1 1 0.849772 1.07236 1.06867 
2 1 0.139115 0.230242 0.221482 
3 1 2.13892 2.05572 0.442132 
4 1 0.0325653 1.88913 1.87934 
5 1 2.11057 0.381262 2.05817 
41 2 2.82057 1.75403 1.80159 
11 1 3.5214 3.53663 8.51648 
12 1 2.58077 2.69055 9.38003 
13 1 4.45025 4.44667 9.38745 
14 1 4.46275 2.6802 7.61387 
15 1 2.68764 4.46552 7.60691 
16 1 3.53467 8.50072 3.54655 
17 1 2.5623 9.32569 2.689 
18 1 4.4697 7.60772 2.68208 
19 1 4.45429 9.3902 4.4507 
20 1 2.69193 7.60131 4.47182 
31 1 1.08653 6.03716 6.04194 
32 1 0.185698 5.14645 5.14926 
33 1 1.99236 6.92134 5.15668 
34 1 0.189751 6.92578 6.92761 
35 1 1.99369 5.15191 6.92256 
26 1 8.50743 3.55208 3.55017 
27 1 9.28346 2.62085 2.61074 
28 1 7.61142 4.4758 2.69082 
29 1 7.61364 2.69055 4.47477 
30 1 9.39806 4.45776 4.45887 
36 1 6.03334 1.08803 6.03249 
37 1 6.92423 0.192962 6.92295 
38 1 5.13929 0.182633 5.13732 
39 1 5.15112 1.99458 6.92642 
40 1 6.92468 1.99522 5.1547 
21 1 6.03196 6.027 1.08125 
22 1 5.15391 6.92087 1.98974 
23 1 6.92386 5.15237 1.99102 
24 1 5.13846 5.1325 0.175302 
25 1 6.92407 6.92026 0.190356 
6 1 8.51147 8.51118 8.51079 
7 1 9.39813 9.38805 9.38052 
8 1 7.61157 7.60863 9.40226 
9 1 7.61041 9.40207 7.6096 
10 1 9.39524 7.61102 7.6136 
ITEM: TIMESTEP
70
ITEM: NUMBER OF ATOMS
41
ITEM: BOX BOUNDS pp pp pp
0.0000000000000000e+00 9.8979999999999997e+00
0.0000000000000000e+00 9.8979999999999997e+00
0.0000000000000000e+00 9.8979999999999997e+00
ITEM: ATOMS id type x y z 
1 1 0.851589 1.07272 1.06887 
2 1 0.13875 0.229775 0.221442 
3 1 2.1396 2.05637 0.44169 
4 1 0.0326512 1.88923 1.87948 
5 1 2.11115 0.381147 2.05868 
41 2 2.82022 1.75379 1.8012 
11 1 3.52133 3.53653 8.51651 
12 1 2.58022 2.68992 9.38116 
13 1 4.45012 4.44655 9.38745 
14 1 4.46265 2.68011 7.61389 
15 1 2.68756 4.4654 7.60691 
16 1 3.53466 8.50074 3.54638 
17 1 2.56184 9.32656 2.6886 
18 1 4.46986 7.60747 2.68174 
19 1 4.45429 9.39033 4.45075 
20 1 2.69185 7.60136 4.47178 
31 1 1.08652 6.03713 6.04181 
32 1 0.185726 5.14643 5.14925 
33 1 1.99243 6.92125 5.15664 
34 1 0.189719 6.92575 6.92768 
35 1 1.99372 5.15192 6.92264 
26 1 8.50753 3.5519 3.54999 
27 1 9.28333 2.62105 2.61095 
28 1 7.61141 4.47577 2.69075 
29 1 7.61358 2.6905 4.47473 
30 1 9.39806 4.45763 4.45873 
36 1 6.03323 1.08802 6.03239 
37 1 6.92419 0.192956 6.92297 
38 1 5.13911 0.182442 5.13707 
39 1 5.15099 1.99467 6.92653 
40 1 6.9247 1.99519 5.15473 
21 1 6.03191 6.02696 1.08126 
22 1 5.15346 6.92127 1.99014 
23 1 6.92381 5.15237 1.99102 
24 1 5.13842 5.13246 0.175277 
25 1 6.9241 6.92027 0.190336 
6 1 8.51154 8.5113 8.51092 
7 1 9.398 9.38805 9.38028 
8 1 7.61152 7.6086 9.40227 
9 1 7.61039 9.40208 7.60956 
10 1 9.39527 7.61102 7.61354 
ITEM: TIMESTEP
80
ITEM: NUMBER OF ATOMS
41
ITEM: BOX BOUNDS pp pp pp
0.0000000000000000e+00 9.8979999999999997e+00
0.0000000000000000e+00 9.8979999999999997e+00
0.0000000000000000e+00 9.8979999999999997e+00
ITEM: ATOMS id type x y z 
1 1 0.865573 1.07342 1.07097 
2 1 0.144313 0.229556 0.223882 
3 1 2.14269 2.05879 0.449998 
4 1 0.0427561 1.88815 1.87966 
5 1 2.11584 0.392652 2.06213 
41 2 2.83131 1.75741 1.80333 
11 1 3.51703 3.5336 8.51929 
12 1 2.5767 2.6915 9.38374 
13 1 4.44716 4.44395 9.38906 
14 1 4.45876 2.67717 7.61536 
15 1 2.68417 4.463 7.60717 
16 1 3.52868 8.504 3.54264 
17 1 2.55722 9.33056 2.6908 
18 1 4.46638 7.6084 2.67936 
19 1 4.45081 9.39094 4.44797 
20 1 2.68914 7.60197 4.47026 
31 1 1.08606 6.03531 6.03896 
32 1 0.185147 5.14417 5.14684 
33 1 1.99377 6.91914 5.15612 
34 1 0.188854 6.92553 6.92823 
35 1 1.99396 5.15213 6.92258 
26 1 8.5091 3.5475 3.54544 
27 1 9.28739 2.61742 2.60801 
28 1 7.6113 4.47419 2.68865 
29 1 7.61293 2.68867 4.47327 
30 1 9.39875 4.45389 4.455 
36 1 6.03055 1.0877 6.03054 
37 1 6.92324 0.192352 6.92269 
38 1 5.13791 0.18175 5.13477 
39 1 5.14929 1.99451 6.92668 
40 1 6.92423 1.99497 5.15463 
21 1 6.03008 6.02578 1.08118 
22 1 5.15134 6.92174 1.99071 
23 1 6.92274 5.15204 1.99111 
24 1 5.13688 5.13086 0.17454 
25 1 6.92394 6.92002 0.18966 
6 1 8.51249 8.51391 8.51304 
7 1 9.39626 9.39392 9.38488 
8 1 7.61091 7.60868 9.40198 
9 1 7.60996 9.40213 7.60928 
10 1 9.3954 7.6116 7.61358 
ITEM: TIMESTEP
90
ITEM: NUMBER OF ATOMS
41
ITEM: BOX BOUNDS pp pp pp
0.0000000000000000e+00 9.8979999999999997e+00
0.0000000000000000e+00 9.8979999999999997e+00
0.0000000000000000e+00 9.8979999999999997e+00
ITEM: ATOMS id type x y z 
1 1 0.883218 1.07335 1.07285 
2 1 0.144758 0.231578 0.226853 
3 1 2.1471 2.06222 0.458159 
4 1 0.0520594 1.88789 1.88096 
5 1 2.12171 0.404125 2.06654 
41 2 2.84064 1.76119 1.80541 
11 1 3.51348 3.53141 8.5205 
12 1 2.57369 2.6935 9.38547 
13 1 4.44456 4.44188 9.3913 
14 1 4.45465 2.67388 7.61659 
15 1 2.6805 4.46118 7.60775 
16 1 3.52339 8.50626 3.54029 
17 1 2.55344 9.33388 2.69354 
18 1 4.46192 7.6096 2.67696 
19 1 4.44856 9.39312 4.44612 
20 1 2.6863 7.60161 4.46881 
31 1 1.08429 6.03366 6.03714 
32 1 0.184003 5.14077 5.14337 
33 1 1.99377 6.91763 5.15588 
34 1 0.187528 6.9256 6.92816 
35 1 1.9934 5.15149 6.92138 
26 1 8.51022 3.54301 3.54095 
27 1 9.29175 2.61463 2.60585 
28 1 7.61121 4.47189 2.68645 
29 1 7.6129 2.6868 4.4712 
30 1 9.40004 4.45043 4.4514 
36 1 6.02869 1.08683 6.02923 
37 1 6.92219 0.191776 6.92225 
38 1 5.1352 0.180464 5.13194 
39 1 5.14716 1.99363 6.92679 
40 1 6.92298 1.99455 5.15417 
21 1 6.02887 6.02499 1.0807 
22 1 5.14989 6.92134 1.98971 
23 1 6.9218 5.15166 1.99085 
24 1 5.13513 5.12907 0.174252 
25 1 6.923 6.91994 0.188894 
6 1 8.51394 8.51719 8.51577 
7 1 9.3971 9.39746 9.38838 
8 1 7.61085 7.60892 9.4016 
9 1 7.60959 9.40211 7.60923 
10 1 9.39549 7.61247 7.61434 
ITEM: TIMESTEP
100
ITEM: NUMBER OF ATOMS
41
ITEM: BOX BOUNDS pp pp pp
0.0000000000000000e+00 9.8979999999999997e+00
0.0000000000000000e+00 9.8979999999999997e+00
0.0000000000000000e+00 9.8979999999999997e+00
ITEM: ATOMS id type x y z 
1 1 0.902081 1.07405 1.07706 
2 1 0.157749 0.231524 0.227595 
3 1 2.15552 2.06925 0.469131 
4 1 0.0671706 1.88783 1.88293 
5 1 2.13255 0.420112 2.07521 
41 2 2.85573 1.76871 1.81027 
11 1 3.50914 3.52947 8.52103 
12 1 2.56975 2.6968 9.38791 
13 1 4.44027 4.43843 9.39428 
14 1 4.44885 2.66785 7.61708 
15 1 2.67424 4.45868 7.60755 
16 1 3.51721 8.50766 3.53778 
17 1 2.54889 9.33969 2.69817 
18 1 4.45552 7.60983 2.67154 
19 1 4.44298 9.39506 4.44174 
20 1 2.6813 7.60034 4.46681 
31 1 1.07969 6.03123 6.03476 
32 1 0.182328 5.13509 5.13753 
33 1 1.99218 6.91481 5.15564 
34 1 0.184947 6.92614 6.92867 
35 1 1.99085 5.15047 6.91941 
26 1 8.5113 3.53621 3.53451 
27 1 9.29898 2.6111 2.60386 
28 1 7.61035 4.46793 2.68193 
29 1 7.61171 2.68247 4.46785 
30 1 9.40169 4.44392 4.4446 
36 1 6.02631 1.0855 6.02792 
37 1 6.92096 0.190675 6.92164 
38 1 5.13234 0.18072 5.12891 
39 1 5.14279 1.99139 6.92744 
40 1 6.92186 1.99415 5.1524 
21 1 6.0274 6.02444 1.07968 
22 1 5.14564 6.92227 1.98854 
23 1 6.921 5.1502 1.99053 
24 1 5.1325 5.12649 0.174909 
25 1 6.92225 6.92023 0.187325 
6 1 8.51604 8.52259 8.51994 
7 1 9.394 9.40554 9.39765 
8 1 7.61057 7.60961 9.40097 
9 1 7.60891 9.40212 7.60946 
10 1 9.39548 7.6144 7.61584 
ITEM: TIMESTEP
110
ITEM: NUMBER OF ATOMS
41
ITEM: BOX BOUNDS pp pp pp
0.0000000000000000e+00 9.8979999999999997e+00
0.0000000000000000e+00 9.8979999999999997e+00
0.0000000000000000e+00 9.8979999999999997e+00
ITEM: ATOMS id type x y z 
1 1 0.911092 1.07379 1.07781 
2 1 0.157816 0.23578 0.231411 
3 1 2.16003 2.07299 0.473703 
4 1 0.0751838 1.88715 1.8839 
5 1 2.13782 0.42775 2.07946 
41 2 2.86402 1.77413 1.81379 
11 1 3.50781 3.52991 8.52006 
12 1 2.5698 2.69921 9.38863 
13 1 4.43838 4.43722 9.39571 
14 1 4.44574 2.66489 7.61683 
15 1 2.67102 4.45787 7.60667 
16 1 3.51532 8.50678 3.53787 
17 1 2.54938 9.34148 2.70181 
18 1 4.45225 7.60936 2.66855 
19 1 4.44069 9.3962 4.44026 
20 1 2.6784 7.59879 4.46633 
31 1 1.07606 6.03006 6.03377 
32 1 0.182641 5.13303 5.13512 
33 1 1.99003 6.91327 5.15538 
34 1 0.182869 6.92659 6.92932 
35 1 1.98812 5.14962 6.91843 
26 1 8.51094 3.53289 3.53195 
27 1 9.30376 2.60911 2.60279 
28 1 7.61016 4.46513 2.67978 
29 1 7.61121 2.68004 4.46511 
30 1 9.40157 4.43989 4.44059 
36 1 6.02536 1.08449 6.02759 
37 1 6.9202 0.189958 6.92149 
38 1 5.13046 0.181199 5.12729 
39 1 5.14038 1.98896 6.92743 
40 1 6.92073 1.99291 5.1517 
21 1 6.02674 6.0247 1.07902 
22 1 5.14321 6.92258 1.98682 
23 1 6.91957 5.1502 1.98877 
24 1 5.13103 5.12525 0.175797 
25 1 6.92186 6.92027 0.186493 
6 1 8.51697 8.52518 8.52254 
7 1 9.39786 9.40738 9.40048 
8 1 7.6105 7.61045 9.40068 
9 1 7.60871 9.4024 7.60976 
10 1 9.39528 7.61615 7.61711 
ITEM: TIMESTEP
120
ITEM: NUMBER OF ATOMS
41
ITEM: BOX BOUNDS pp pp pp
0.0000000000000000e+00 9.8979999999999997e+00
0.0000000000000000e+00 9.8979999999999997e+00
0.0000000000000000e+00 9.8979999999999997e+00
ITEM: ATOMS id type x y z 
1 1 0.923068 1.07183 1.07995 
2 1 0.166791 0.246438 0.240464 
3 1 2.17387 2.08345 0.483775 
4 1 0.0967265 1.88688 1.88593 
5 1 2.1542 0.4445 2.09163 
41 2 2.88445 1.78747 1.82335 
11 1 3.50458 3.53138 8.51687 
12 1 2.571 2.70476 9.39211 
13 1 4.43449 4.43494 9.39866 
14 1 4.43836 2.65776 7.61537 
15 1 2.66259 4.45649 7.60347 
16 1 3.51032 8.50372 3.53896 
17 1 2.55158 9.35022 2.70922 
18 1 4.44396 7.6079 2.66165 
19 1 4.43567 9.39822 4.43738 
20 1 2.67084 7.59417 4.46572 
31 1 1.0656 6.02709 6.03219 
32 1 0.181325 5.12422 5.12634 
33 1 1.98256 6.90863 5.15476 
34 1 0.176835 6.92851 6.92969 
35 1 1.97906 5.14755 6.91541 
26 1 8.51084 3.52511 3.52461 
27 1 9.3155 2.60425 2.60161 
28 1 7.60864 4.45809 2.67295 
29 1 7.608 2.67188 4.45926 
30 1 9.40049 4.43232 4.43207 
36 1 6.02307 1.08204 6.02629 
37 1 6.9188 0.187653 6.92124 
38 1 5.12572 0.182936 5.1237 
39 1 5.13374 1.98188 6.92714 
40 1 6.91964 1.99089 5.14746 
21 1 6.02549 6.025 1.07678 
22 1 5.13702 6.92273 1.981 
23 1 6.91822 5.14747 1.986 
24 1 5.1272 5.12259 0.178418 
25 1 6.92041 6.92112 0.183842 
6 1 8.52077 8.53173 8.52775 
7 1 9.40531 9.41485 9.41098 
8 1 7.61086 7.61289 9.40068 
9 1 7.60883 9.40296 7.61186 
10 1 9.39459 7.62048 7.62144 
ITEM: TIMESTEP
130
ITEM: NUMBER OF ATOMS
41
ITEM: BOX BOUNDS pp pp pp
0.0000000000000000e+00 9.8979999999999997e+00
0.0000000000000000e+00 9.8979999999999997e+00
0.0000000000000000e+00 9.8979999999999997e+00
ITEM: ATOMS id type x y z 
1 1 0.935861 1.07629 1.08248 
2 1 0.17061 0.24275 0.242379 
3 1 2.18032 2.0876 0.488881 
4 1 0.103557 1.88796 1.88911 
5 1 2.16205 0.451607 2.09699 
41 2 2.88951 1.79162 1.82567 
11 1 3.50359 3.53242 8.51523 
12 1 2.57228 2.70742 9.39335 
13 1 4.43286 4.43403 9.39946 
14 1 4.43521 2.65506 7.61474 
15 1 2.65922 4.4558 7.60214 
16 1 3.50863 8.50227 3.53985 
17 1 2.55317 9.35422 2.71233 
18 1 4.44039 7.6073 2.65904 
19 1 4.43367 9.39874 4.43631 
20 1 2.66769 7.59214 4.46546 
31 1 1.06092 6.02597 6.03117 
32 1 0.180173 5.12106 5.123 
33 1 1.97923 6.90685 5.15429 
34 1 0.174101 6.92878 6.93027 
35 1 1.97509 5.14639 6.91439 
26 1 8.51073 3.5219 3.52088 
27 1 9.31917 2.60433 2.60249 
28 1 7.60741 4.45566 2.66931 
29 1 7.60794 2.6696 4.45545 
30 1 9.40068 4.42896 4.42867 
36 1 6.02212 1.08077 6.02596 
37 1 6.9183 0.186498 6.92132 
38 1 5.12353 0.183398 5.12212 
39 1 5.13082 1.97884 6.92697 
40 1 6.91734 1.98814 5.14728 
21 1 6.02495 6.0251 1.07587 
22 1 5.13433 6.92273 1.9784 
23 1 6.9179 5.14589 1.98499 
24 1 5.12548 5.12145 0.179376 
25 1 6.92028 6.92164 0.18245 
6 1 8.52247 8.53497 8.53113 
7 1 9.40505 9.41864 9.41255 
8 1 7.61097 7.61409 9.40084 
9 1 7.60887 9.4036 7.61262 
10 1 9.39452 7.62251 7.6228 
ITEM: TIMESTEP
134
ITEM: NUMBER OF ATOMS
41
ITEM: BOX BOUNDS pp pp pp
0.0000000000000000e+00 9.8979999999999997e+00
0.0000000000000000e+00 9.8979999999999997e+00
0.0000000000000000e+00 9.8979999999999997e+00
ITEM: ATOMS id type x y z 
1 1 0.936279 1.07631 1.08253 
2 1 0.170609 0.242707 0.242276 
3 1 2.1804 2.08766 0.488926 
4 1 0.103622 1.88802 1.8892 
5 1 2.16216 0.451682 2.09706 
41 2 2.88957 1.79172 1.82572 
11 1 3.50363 3.53248 8.51518 
12 1 2.57236 2.70748 9.39338 
13 1 4.43288 4.43406 9.39946 
14 1 4.4352 2.65501 7.61468 
15 1 2.65918 4.45579 7.6021 
16 1 3.50864 8.50222 3.5399 
17 1 2.55328 9.35429 2.7124 
18 1 4.44035 7.60727 2.65902 
19 1 4.43365 9.3987 4.43631 
20 1 2.66764 7.59209 4.46546 
31 1 1.06081 6.02595 6.03112 
32 1 0.180174 5.12117 5.12309 
33 1 1.97914 6.90683 5.15426 
34 1 0.174028 6.92876 6.93031 
35 1 1.975 5.14635 6.91439 
26 1 8.51065 3.5218 3.52078 
27 1 9.31919 2.60439 2.60255 
28 1 7.60736 4.45565 2.6692 
29 1 7.60789 2.66951 4.45544 
30 1 9.40071 4.42885 4.42861 
36 1 6.02211 1.08074 6.02596 
37 1 6.91818 0.186574 6.92122 
38 1 5.12349 0.183384 5.12211 
39 1 5.13071 1.97882 6.927 
40 1 6.91729 1.98807 5.14726 
21 1 6.02494 6.0251 1.07585 
22 1 5.13427 6.92273 1.97835 
23 1 6.91785 5.14589 1.98491 
24 1 5.12541 5.12141 0.179344 
25 1 6.9202 6.92154 0.182527 
6 1 8.52252 8.53504 8.53123 
7 1 9.40507 9.41863 9.41259 
8 1 7.61106 7.61423 9.40077 
9 1 7.60898 9.40354 7.61273 
10 1 9.39453 7.62256 7.6228 
ITEM: TIMESTEP
136
ITEM: NUMBER OF ATOMS
41
ITEM: BOX BOUNDS pp pp pp
5.7996093749999993e-06 9.8979942003906256e+00
1.9740019811073046e-06 9.8979980259980191e+00
2.0864415855641960e-06 9.8979979135584149e+00
ITEM: ATOMS id type x y z 
1 1 0.936284 1.07631 1.08253 
2 1 0.170615 0.242709 0.242278 
3 1 2.18041 2.08766 0.488927 
4 1 0.103627 1.88803 1.8892 
5 1 2.16216 0.451683 2.09706 
41 2 2.88957 1.79172 1.82572 
11 1 3.50363 3.53248 8.51517 
12 1 2.57236 2.70748 9.39338 
13 1 4.43288 4.43406 9.39946 
14 1 4.4352 2.65501 7.61468 
15 1 2.65918 4.45579 7.6021 
16 1 3.50864 8.50222 3.5399 
17 1 2.55328 9.35429 2.7124 
18 1 4.44035 7.60726 2.65902 
19 1 4.43365 9.3987 4.43631 
20 1 2.66764 7.59209 4.46546 
31 1 1.06081 6.02595 6.03112 
32 1 0.18018 5.12117 5.12309 
33 1 1.97914 6.90683 5.15426 
34 1 0.174033 6.92876 6.93031 
35 1 1.975 5.14635 6.91439 
26 1 8.51064 3.5218 3.52078 
27 1 9.31919 2.60439 2.60255 
28 1 7.60735 4.45566 2.6692 
29 1 7.60789 2.66951 4.45544 
30 1 9.4007 4.42885 4.42861 
36 1 6.02211 1.08074 6.02595 
37 1 6.91818 0.186576 6.92122 
38 1 5.12349 0.183386 5.12211 
39 1 5.13071 1.97882 6.92699 
40 1 6.91729 1.98807 5.14726 
21 1 6.02494 6.02509 1.07585 
22 1 5.13427 6.92273 1.97835 
23 1 6.91784 5.14589 1.98491 
24 1 5.12541 5.12141 0.179346 
25 1 6.92019 6.92154 0.182529 
6 1 8.52251 8.53504 8.53123 
7 1 9.40507 9.41863 9.41259 
8 1 7.61106 7.61423 9.40077 
9 1 7.60898 9.40354 7.61273 
10 1 9.39453 7.62256 7.6228 
ITEM: TIMESTEP
137
ITEM: NUMBER OF ATOMS
41
ITEM: BOX BOUNDS pp pp pp
5.7996093749999993e-06 9.8979942003906256e+00
1.9740019811073046e-06 9.8979980259980191e+00
2.0864415855641960e-06 9.8979979135584149e+00
ITEM: ATOMS id type x y z 
1 1 0.936284 1.07631 1.08253 
2 1 0.170615 0.242709 0.242278 
3 1 2.18041 2.08766 0.488927 
4 1 0.103627 1.88803 1.8892 
5 1 2.16216 0.451683 2.09706 
41 2 2.88957 1.79172 1.82572 
11 1 3.50363 3.53248 8.51517 
12 1 2.57236 2.70748 9.39338 
13 1 4.43288 4.43406 9.39946 
14 1 4.4352 2.65501 7.61468 
15 1 2.65918 4.45579 7.6021 
16 1 3.50864 8.50222 3.5399 
17 1 2.55328 9.35429 2.7124 
18 1 4.44035 7.60726 2.65902 
19 1 4.43365 9.3987 4.43631 
20 1 2.66764 7.59209 4.46546 
31 1 1.06081 6.02595 6.03112 
32 1 0.18018 5.12117 5.12309 
33 1 1.97914 6.90683 5.15426 
34 1 0.174033 6.92876 6.93031 
35 1 1.975 5.14635 6.91439 
26 1 8.51064 3.5218 3.52078 
27 1 9.31919 2.60439 2.60255 
28 1 7.60735 4.45566 2.6692 
29 1 7.60789 2.66951 4.45544 
30 1 9.4007 4.42885 4.42861 
36 1 6.02211 1.08074 6.02595 
37 1 6.91818 0.186576 6.92122 
38 1 5.12349 0.183386 5.12211 
39 1 5.13071 1.97882 6.92699 
40 1 6.91729 1.98807 5.14726 
21 1 6.02494 6.02509 1.07585 
22 1 5.13427 6.92273 1.97835 
23 1 6.91784 5.14589 1.98491 
24 1 5.12541 5.12141 0.179346 
25 1 6.92019 6.92154 0.182529 
6 1 8.52251 8.53504 8.53123 
7 1 9.40507 9.41863 9.41259 
8 1 7.61106 7.61423 9.40077 
9 1 7.60898 9.40354 7.61273 
10 1 9.39453 7.62256 7.6228 
ITEM: TIMESTEP
139
ITEM: NUMBER OF ATOMS
41
ITEM: BOX BOUNDS pp pp pp
8.2161104494094846e-06 9.8979917838895517e+00
2.7869260754247787e-06 9.8979972130739249e+00
2.9473008670762325e-06 9.8979970526991323e+00
ITEM: ATOMS id type x y z 
1 1 0.936286 1.07631 1.08253 
2 1 0.170617 0.24271 0.242279 
3 1 2.18041 2.08766 0.488928 
4 1 0.10363 1.88803 1.8892 
5 1 2.16217 0.451684 2.09706 
41 2 2.88957 1.79172 1.82572 
11 1 3.50363 3.53248 8.51517 
12 1 2.57237 2.70748 9.39338 
13 1 4.43288 4.43406 9.39946 
14 1 4.4352 2.65501 7.61468 
15 1 2.65918 4.45579 7.6021 
16 1 3.50864 8.50222 3.5399 
17 1 2.55328 9.35429 2.7124 
18 1 4.44035 7.60726 2.65902 
19 1 4.43365 9.3987 4.43631 
20 1 2.66764 7.59209 4.46546 
31 1 1.06081 6.02595 6.03112 
32 1 0.180182 5.12117 5.12309 
33 1 1.97915 6.90683 5.15426 
34 1 0.174036 6.92876 6.93031 
35 1 1.975 5.14635 6.91439 
26 1 8.51064 3.5218 3.52078 
27 1 9.31919 2.60439 2.60255 
28 1 7.60735 4.45566 2.6692 
29 1 7.60788 2.66951 4.45544 
30 1 9.4007 4.42885 4.42861 
36 1 6.02211 1.08074 6.02595 
37 1 6.91818 0.186576 6.92122 
38 1 5.12349 0.183387 5.12211 
39 1 5.13071 1.97882 6.92699 
40 1 6.91729 1.98807 5.14726 
21 1 6.02494 6.02509 1.07585 
22 1 5.13427 6.92273 1.97835 
23 1 6.91784 5.14589 1.98491 
24 1 5.12541 5.12141 0.179347 
25 1 6.92019 6.92154 0.18253 
6 1 8.52251 8.53504 8.53123 
7 1 9.40506 9.41863 9.41259 
8 1 7.61106 7.61423 9.40077 
9 1 7.60897 9.40354 7.61273 
10 1 9.39453 7.62256 7.6228 
ITEM: TIMESTEP
140
ITEM: NUMBER OF ATOMS
41
ITEM: BOX BOUNDS pp pp pp
8.2161104494094846e-06 9.8979917838895517e+00
2.7869260754247787e-06 9.8979972130739249e+00
2.9473008670762325e-06 9.8979970526991323e+00
ITEM: ATOMS id type x y z 
1 1 0.936286 1.07631 1.08253 
2 1 0.170617 0.24271 0.242279 
3 1 2.18041 2.08766 0.488928 
4 1 0.10363 1.88803 1.8892 
5 1 2.16217 0.451684 2.09706 
41 2 2.88957 1.79172 1.82572 
11 1 3.50363 3.53248 8.51517 
12 1 2.57237 2.70748 9.39338 
13 1 4.43288 4.43406 9.39946 
14 1 4.4352 2.65501 7.61468 
15 1 2.65918 4.45579 7.6021 
16 1 3.50864 8.50222 3.5399 
17 1 2.55328 9.35429 2.7124 
18 1 4.44035 7.60726 2.65902 
19 1 4.43365 9.3987 4.43631 
20 1 2.66764 7.59209 4.46546 
31 1 1.06081 6.02595 6.03112 
32 1 0.180182 5.12117 5.12309 
33 1 1.97915 6.90683 5.15426 
34 1 0.174036 6.92876 6.93031 
35 1 1.975 5.14635 6.91439 
26 1 8.51064 3.5218 3.52078 
27 1 9.31919 2.60439 2.60255 
28 1 7.60735 4.45566 2.6692 
29 1 7.60788 2.66951 4.45544 
30 1 9.4007 4.42885 4.42861 
36 1 6.02211 1.08074 6.02595 
37 1 6.91818 0.186576 6.92122 
38 1 5.12349 0.183387 5.12211 
39 1 5.13071 1.97882 6.92699 
40 1 6.91729 1.98807 5.14726 
21 1 6.02494 6.02509 1.07585 
22 1 5.13427 6.92273 1.97835 
23 1 6.91784 5.14589 1.98491 
24 1 5.12541 5.12141 0.179347 
25 1 6.92019 6.92154 0.18253 
6 1 8.52251 8.53504 8.53123 
7 1 9.40506 9.41863 9.41259 
8 1 7.61106 7.61423 9.40077 
9 1 7.60897 9.40354 7.61273 
10 1 9.39453 7.62256 7.6228 
