
     Program PWSCF v.7.1 starts on 24May2025 at 14:53:30 

     This program is part of the open-source Quantum ESPRESSO suite
     for quantum simulation of materials; please cite
         "P. Giannozzi et al., J. Phys.:Condens. Matter 21 395502 (2009);
         "P. Giannozzi et al., J. Phys.:Condens. Matter 29 465901 (2017);
         "P. Giannozzi et al., J. Chem. Phys. 152 154105 (2020);
          URL http://www.quantum-espresso.org", 
     in publications or presentations arising from this work. More details at
     http://www.quantum-espresso.org/quote

     Parallel version (MPI), running on    16 processors

     MPI processes distributed on     1 nodes
     235190 MiB available memory on the printing compute node when the environment starts

     Reading input from input.pwi
Warning: card &CELL ignored
Warning: card / ignored
Warning: card &FCP ignored
Warning: card / ignored
Warning: card &RISM ignored
Warning: card / ignored

     Current dimensions of program PWSCF are:
     Max number of different atomic species (ntypx) = 10
     Max number of k-points (npk) =  40000
     Max angular momentum in pseudopotentials (lmaxx) =  4
     file C.pbe-n-kjpaw_psl.1.0.0.UPF: wavefunction(s)  2S 2P renormalized
     file O.pbe-n-kjpaw_psl.0.1.UPF: wavefunction(s)  2P renormalized

     IMPORTANT: XC functional enforced from input :
     Exchange-correlation= PBE
                           (   1   4   3   4   0   0   0)
     Any further DFT definition will be discarded
     Please, verify this is what you really want


     gamma-point specific algorithms are used

     R & G space division:  proc/nbgrp/npool/nimage =      16
     Subspace diagonalization in iterative solution of the eigenvalue problem:
     one sub-group per band group will be used
     custom distributed-memory algorithm (size of sub-group:  2*  2 procs)


     Parallelization info
     --------------------
     sticks:   dense  smooth     PW     G-vecs:    dense   smooth      PW
     Min        1428     714    178               162768    57562    7202
     Max        1430     716    180               162782    57575    7212
     Sum       22877   11441   2869              2604423   921081  115313

     Using Slab Decomposition



     bravais-lattice index     =            0
     lattice parameter (alat)  =      26.8152  a.u.
     unit-cell volume          =   19281.6319 (a.u.)^3
     number of atoms/cell      =           65
     number of atomic types    =            2
     number of electrons       =       262.00 (up: 131.00, down: 131.00)
     number of Kohn-Sham states=          157
     kinetic-energy cutoff     =      50.0000  Ry
     charge density cutoff     =     400.0000  Ry
     scf convergence threshold =      1.0E-06
     mixing beta               =       0.3000
     number of iterations used =            8  plain     mixing
     energy convergence thresh.=      1.0E-04
     force convergence thresh. =      1.0E-03
     Exchange-correlation= PBE
                           (   1   4   3   4   0   0   0)
     nstep                     =         1000


     celldm(1)=  26.815214  celldm(2)=   0.000000  celldm(3)=   0.000000
     celldm(4)=   0.000000  celldm(5)=   0.000000  celldm(6)=   0.000000

     crystal axes: (cart. coord. in units of alat)
               a(1) = (   1.000000   0.000000   0.000000 )  
               a(2) = (   0.000000   1.000000   0.000000 )  
               a(3) = (   0.000000   0.000000   1.000000 )  

     reciprocal axes: (cart. coord. in units 2 pi/alat)
               b(1) = (  1.000000  0.000000  0.000000 )  
               b(2) = (  0.000000  1.000000  0.000000 )  
               b(3) = (  0.000000  0.000000  1.000000 )  


     PseudoPot. # 1 for C  read from file:
     /home/ana.bisette/espresso/pseudo/C.pbe-n-kjpaw_psl.1.0.0.UPF
     MD5 check sum: 5d2aebdfa2cae82b50a7e79e9516da0f
     Pseudo is Projector augmented-wave + core cor, Zval =  4.0
     Generated using "atomic" code by A. Dal Corso  v.5.1
     Shape of augmentation charge: PSQ
     Using radial grid of 1073 points,  4 beta functions with: 
                l(1) =   0
                l(2) =   0
                l(3) =   1
                l(4) =   1
     Q(r) pseudized with 0 coefficients 


     PseudoPot. # 2 for O  read from file:
     /home/ana.bisette/espresso/pseudo/O.pbe-n-kjpaw_psl.0.1.UPF
     MD5 check sum: 0234752ac141de4415c5fc33072bef88
     Pseudo is Projector augmented-wave + core cor, Zval =  6.0
     Generated using "atomic" code by A. Dal Corso  v.5.0.99 svn rev. 10869
     Shape of augmentation charge: BESSEL
     Using radial grid of 1095 points,  4 beta functions with: 
                l(1) =   0
                l(2) =   0
                l(3) =   1
                l(4) =   1
     Q(r) pseudized with 0 coefficients 


     atomic species   valence    mass     pseudopotential
        C              4.00    12.01100     C ( 1.00)
        O              6.00    15.99900     O ( 1.00)

     Starting magnetic structure 
     atomic species   magnetization
        C            0.000
        O            0.000

     No symmetry found



   Cartesian axes

     site n.     atom                  positions (alat units)
         1           C   tau(   1) = (   0.0534884   0.6478506   0.6478506  )
         2           C   tau(   2) = (   0.0039464   0.6973925   0.6973925  )
         3           C   tau(   3) = (   0.1478506   0.5534884   0.6478506  )
         4           C   tau(   4) = (   0.1973925   0.5039464   0.6973925  )
         5           C   tau(   5) = (   0.0534884   0.5534884   0.5534884  )
         6           C   tau(   6) = (   0.0039464   0.5039464   0.5039464  )
         7           C   tau(   7) = (   0.1478506   0.6478506   0.5534884  )
         8           C   tau(   8) = (   0.1973925   0.6973925   0.5039464  )
         9           C   tau(   9) = (   0.6478506   0.0534884   0.6478506  )
        10           C   tau(  10) = (   0.6973925   0.0039464   0.6973925  )
        11           C   tau(  11) = (   0.6478506   0.1478506   0.5534884  )
        12           C   tau(  12) = (   0.6973925   0.1973925   0.5039464  )
        13           C   tau(  13) = (   0.5534884   0.0534884   0.5534884  )
        14           C   tau(  14) = (   0.5039464   0.0039464   0.5039464  )
        15           C   tau(  15) = (   0.5534884   0.1478506   0.6478506  )
        16           C   tau(  16) = (   0.5039464   0.1973925   0.6973925  )
        17           C   tau(  17) = (   0.6478506   0.6478506   0.0534884  )
        18           C   tau(  18) = (   0.6973925   0.6973925   0.0039464  )
        19           C   tau(  19) = (   0.5534884   0.6478506   0.1478506  )
        20           C   tau(  20) = (   0.5039464   0.6973925   0.1973925  )
        21           C   tau(  21) = (   0.5534884   0.5534884   0.0534884  )
        22           C   tau(  22) = (   0.5039464   0.5039464   0.0039464  )
        23           C   tau(  23) = (   0.6478506   0.5534884   0.1478506  )
        24           C   tau(  24) = (   0.6973925   0.5039464   0.1973925  )
        25           C   tau(  25) = (   0.3035236   0.8978858   0.3035236  )
        26           C   tau(  26) = (   0.2539817   0.9473573   0.2539817  )
        27           C   tau(  27) = (   0.3978858   0.8034531   0.3035236  )
        28           C   tau(  28) = (   0.4473573   0.7539817   0.2539817  )
        29           C   tau(  29) = (   0.3978858   0.8978858   0.3978858  )
        30           C   tau(  30) = (   0.4473573   0.9473573   0.4473573  )
        31           C   tau(  31) = (   0.3035236   0.8034531   0.3978858  )
        32           C   tau(  32) = (   0.2539817   0.7539817   0.4473573  )
        33           C   tau(  33) = (   0.8978858   0.3035236   0.3035236  )
        34           C   tau(  34) = (   0.9473573   0.2539817   0.2539817  )
        35           C   tau(  35) = (   0.8034531   0.3035236   0.3978858  )
        36           C   tau(  36) = (   0.7539817   0.2539817   0.4473573  )
        37           C   tau(  37) = (   0.8978858   0.3978858   0.3978858  )
        38           C   tau(  38) = (   0.9473573   0.4473573   0.4473573  )
        39           C   tau(  39) = (   0.8034531   0.3978858   0.3035236  )
        40           C   tau(  40) = (   0.7539817   0.4473573   0.2539817  )
        41           C   tau(  41) = (   0.3035236   0.3035236   0.8978858  )
        42           C   tau(  42) = (   0.2539817   0.2539817   0.9473573  )
        43           C   tau(  43) = (   0.3035236   0.3978858   0.8034531  )
        44           C   tau(  44) = (   0.2539817   0.4473573   0.7539817  )
        45           C   tau(  45) = (   0.3978858   0.3978858   0.8978858  )
        46           C   tau(  46) = (   0.4473573   0.4473573   0.9473573  )
        47           C   tau(  47) = (   0.3978858   0.3035236   0.8034531  )
        48           C   tau(  48) = (   0.4473573   0.2539817   0.7539817  )
        49           C   tau(  49) = (   0.8978858   0.8978858   0.8978858  )
        50           C   tau(  50) = (   0.9473573   0.9473573   0.9473573  )
        51           C   tau(  51) = (   0.8978154   0.8034531   0.8034531  )
        52           C   tau(  52) = (   0.9473573   0.7539817   0.7539817  )
        53           C   tau(  53) = (   0.8034531   0.8034531   0.8978858  )
        54           C   tau(  54) = (   0.7539817   0.7539817   0.9473573  )
        55           C   tau(  55) = (   0.8034531   0.8978154   0.8034531  )
        56           C   tau(  56) = (   0.7539817   0.9473573   0.7539817  )
        57           C   tau(  57) = (   0.1478506   0.0534884   0.1478506  )
        58           C   tau(  58) = (   0.1973925   0.0039464   0.1973925  )
        59           C   tau(  59) = (   0.0534884   0.0534884   0.0534884  )
        60           C   tau(  60) = (   0.0039464   0.0039464   0.0039464  )
        61           C   tau(  61) = (   0.0534884   0.1478506   0.1478506  )
        62           C   tau(  62) = (   0.0039464   0.1973925   0.1973925  )
        63           C   tau(  63) = (   0.1478506   0.1478506   0.0534884  )
        64           C   tau(  64) = (   0.1973925   0.1973925   0.0039464  )
        65           O   tau(  65) = (   0.4473573   0.5424947   0.9473573  )

     number of k points=     1  Gaussian smearing, width (Ry)=  0.0001
                       cart. coord. in units 2pi/alat
        k(    1) = (   0.0000000   0.0000000   0.0000000), wk =   1.0000000

     Dense  grid:  1302212 G-vectors     FFT dimensions: ( 180, 180, 180)

     Smooth grid:   460541 G-vectors     FFT dimensions: ( 125, 125, 125)

     Estimated max dynamical RAM per process >     448.29 MB

     Estimated total dynamical RAM >       7.00 GB

     Check: negative core charge=   -0.000003
     Generating pointlists ...
     new r_m :   0.0353 (alat units)  0.9478 (a.u.) for type    1
     new r_m :   0.0366 (alat units)  0.9826 (a.u.) for type    2

     Initial potential from superposition of free atoms

     starting charge     261.9973, renormalised to     262.0000

     negative rho (up, down):  7.061E-05 7.061E-05
     Starting wfcs are  260 randomized atomic wfcs
     Checking if some PAW data can be deallocated... 

     total cpu time spent up to now is        6.0 secs

     Self-consistent Calculation

     iteration #  1     ecut=    50.00 Ry     beta= 0.30
     Davidson diagonalization with overlap
     ethr =  1.00E-02,  avg # of iterations =  2.0

     negative rho (up, down):  9.710E-05 9.698E-05

     total cpu time spent up to now is       14.1 secs

     total energy              =   -1213.26879500 Ry
     estimated scf accuracy    <       7.20955533 Ry

     total magnetization       =    -0.00 Bohr mag/cell
     absolute magnetization    =     0.09 Bohr mag/cell

     iteration #  2     ecut=    50.00 Ry     beta= 0.30
     Davidson diagonalization with overlap
     ethr =  2.75E-03,  avg # of iterations =  1.0

     negative rho (up, down):  1.531E-04 1.531E-04

     total cpu time spent up to now is       20.3 secs

     total energy              =   -1212.32453054 Ry
     estimated scf accuracy    <       3.02245911 Ry

     total magnetization       =    -0.00 Bohr mag/cell
     absolute magnetization    =     0.07 Bohr mag/cell

     iteration #  3     ecut=    50.00 Ry     beta= 0.30
     Davidson diagonalization with overlap
     ethr =  1.15E-03,  avg # of iterations =  2.0

     negative rho (up, down):  2.277E-04 2.278E-04

     total cpu time spent up to now is       26.9 secs

     total energy              =   -1211.89553778 Ry
     estimated scf accuracy    <      10.72971573 Ry

     total magnetization       =    -0.00 Bohr mag/cell
     absolute magnetization    =     0.05 Bohr mag/cell

     iteration #  4     ecut=    50.00 Ry     beta= 0.30
     Davidson diagonalization with overlap
     ethr =  1.15E-03,  avg # of iterations =  1.0

     negative rho (up, down):  2.678E-04 2.679E-04

     total cpu time spent up to now is       33.0 secs

     total energy              =   -1212.59732599 Ry
     estimated scf accuracy    <       0.47136855 Ry

     total magnetization       =    -0.00 Bohr mag/cell
     absolute magnetization    =     0.04 Bohr mag/cell

     iteration #  5     ecut=    50.00 Ry     beta= 0.30
     Davidson diagonalization with overlap
     ethr =  1.80E-04,  avg # of iterations =  2.0

     negative rho (up, down):  2.794E-04 2.796E-04

     total cpu time spent up to now is       39.6 secs

     total energy              =   -1212.63881920 Ry
     estimated scf accuracy    <       0.27957776 Ry

     total magnetization       =     0.00 Bohr mag/cell
     absolute magnetization    =     0.04 Bohr mag/cell

     iteration #  6     ecut=    50.00 Ry     beta= 0.30
     Davidson diagonalization with overlap
     ethr =  1.07E-04,  avg # of iterations =  1.0

     negative rho (up, down):  2.904E-04 2.906E-04

     total cpu time spent up to now is       45.7 secs

     total energy              =   -1212.65689515 Ry
     estimated scf accuracy    <       0.20949205 Ry

     total magnetization       =     0.00 Bohr mag/cell
     absolute magnetization    =     0.03 Bohr mag/cell

     iteration #  7     ecut=    50.00 Ry     beta= 0.30
     Davidson diagonalization with overlap
     ethr =  8.00E-05,  avg # of iterations =  1.0

     negative rho (up, down):  3.038E-04 3.041E-04

     total cpu time spent up to now is       51.8 secs

     total energy              =   -1212.66954727 Ry
     estimated scf accuracy    <       0.02602611 Ry

     total magnetization       =     0.00 Bohr mag/cell
     absolute magnetization    =     0.03 Bohr mag/cell

     iteration #  8     ecut=    50.00 Ry     beta= 0.30
     Davidson diagonalization with overlap
     ethr =  9.93E-06,  avg # of iterations = 13.5

     negative rho (up, down):  3.125E-04 3.128E-04

     total cpu time spent up to now is       59.9 secs

     total energy              =   -1212.66847105 Ry
     estimated scf accuracy    <       0.04254231 Ry

     total magnetization       =     0.00 Bohr mag/cell
     absolute magnetization    =     0.02 Bohr mag/cell

     iteration #  9     ecut=    50.00 Ry     beta= 0.30
     Davidson diagonalization with overlap
     ethr =  9.93E-06,  avg # of iterations =  1.5

     negative rho (up, down):  3.213E-04 3.217E-04

     total cpu time spent up to now is       66.1 secs

     total energy              =   -1212.67104602 Ry
     estimated scf accuracy    <       0.00783384 Ry

     total magnetization       =    -0.00 Bohr mag/cell
     absolute magnetization    =     0.02 Bohr mag/cell

     iteration # 10     ecut=    50.00 Ry     beta= 0.30
     Davidson diagonalization with overlap
     ethr =  2.99E-06,  avg # of iterations =  8.5

     negative rho (up, down):  3.272E-04 3.275E-04

     total cpu time spent up to now is       72.7 secs

     total energy              =   -1212.67109613 Ry
     estimated scf accuracy    <       0.00790628 Ry

     total magnetization       =    -0.00 Bohr mag/cell
     absolute magnetization    =     0.03 Bohr mag/cell

     iteration # 11     ecut=    50.00 Ry     beta= 0.30
     Davidson diagonalization with overlap
     ethr =  2.99E-06,  avg # of iterations =  1.5

     negative rho (up, down):  3.291E-04 3.293E-04

     total cpu time spent up to now is       78.7 secs

     total energy              =   -1212.67127084 Ry
     estimated scf accuracy    <       0.01128656 Ry

     total magnetization       =    -0.00 Bohr mag/cell
     absolute magnetization    =     0.02 Bohr mag/cell

     iteration # 12     ecut=    50.00 Ry     beta= 0.30
     Davidson diagonalization with overlap
     ethr =  2.99E-06,  avg # of iterations =  1.0

     negative rho (up, down):  3.313E-04 3.315E-04

     total cpu time spent up to now is       84.8 secs

     total energy              =   -1212.67184937 Ry
     estimated scf accuracy    <       0.00040077 Ry

     total magnetization       =     0.00 Bohr mag/cell
     absolute magnetization    =     0.03 Bohr mag/cell

     iteration # 13     ecut=    50.00 Ry     beta= 0.30
     Davidson diagonalization with overlap
     ethr =  1.53E-07,  avg # of iterations =  2.0

     negative rho (up, down):  3.320E-04 3.322E-04

     total cpu time spent up to now is       91.3 secs

     total energy              =   -1212.67187469 Ry
     estimated scf accuracy    <       0.00026544 Ry

     total magnetization       =     0.00 Bohr mag/cell
     absolute magnetization    =     0.03 Bohr mag/cell

     iteration # 14     ecut=    50.00 Ry     beta= 0.30
     Davidson diagonalization with overlap
     ethr =  1.01E-07,  avg # of iterations =  1.0

     negative rho (up, down):  3.325E-04 3.327E-04

     total cpu time spent up to now is       97.5 secs

     total energy              =   -1212.67189507 Ry
     estimated scf accuracy    <       0.00005697 Ry

     total magnetization       =    -0.00 Bohr mag/cell
     absolute magnetization    =     0.04 Bohr mag/cell

     iteration # 15     ecut=    50.00 Ry     beta= 0.30
     Davidson diagonalization with overlap
     ethr =  2.17E-08,  avg # of iterations =  3.0

     negative rho (up, down):  3.328E-04 3.329E-04

     total cpu time spent up to now is      104.2 secs

     total energy              =   -1212.67189686 Ry
     estimated scf accuracy    <       0.00004990 Ry

     total magnetization       =     0.00 Bohr mag/cell
     absolute magnetization    =     0.05 Bohr mag/cell

     iteration # 16     ecut=    50.00 Ry     beta= 0.30
     Davidson diagonalization with overlap
     ethr =  1.90E-08,  avg # of iterations =  1.0

     negative rho (up, down):  3.331E-04 3.332E-04

     total cpu time spent up to now is      110.3 secs

     total energy              =   -1212.67190144 Ry
     estimated scf accuracy    <       0.00001704 Ry

     total magnetization       =     0.00 Bohr mag/cell
     absolute magnetization    =     0.06 Bohr mag/cell

     iteration # 17     ecut=    50.00 Ry     beta= 0.30
     Davidson diagonalization with overlap
     ethr =  6.50E-09,  avg # of iterations =  1.5

     negative rho (up, down):  3.332E-04 3.333E-04

     total cpu time spent up to now is      116.7 secs

     total energy              =   -1212.67190275 Ry
     estimated scf accuracy    <       0.00001453 Ry

     total magnetization       =    -0.00 Bohr mag/cell
     absolute magnetization    =     0.08 Bohr mag/cell

     iteration # 18     ecut=    50.00 Ry     beta= 0.30
     Davidson diagonalization with overlap
     ethr =  5.55E-09,  avg # of iterations =  1.0

     negative rho (up, down):  3.333E-04 3.334E-04

     total cpu time spent up to now is      122.8 secs

     total energy              =   -1212.67190532 Ry
     estimated scf accuracy    <       0.00000267 Ry

     total magnetization       =     0.00 Bohr mag/cell
     absolute magnetization    =     0.09 Bohr mag/cell

     iteration # 19     ecut=    50.00 Ry     beta= 0.30
     Davidson diagonalization with overlap
     ethr =  1.02E-09,  avg # of iterations =  3.0

     negative rho (up, down):  3.333E-04 3.333E-04

     total cpu time spent up to now is      129.4 secs

     total energy              =   -1212.67190713 Ry
     estimated scf accuracy    <       0.00000274 Ry

     total magnetization       =     0.00 Bohr mag/cell
     absolute magnetization    =     0.11 Bohr mag/cell

     iteration # 20     ecut=    50.00 Ry     beta= 0.30
     Davidson diagonalization with overlap
     ethr =  1.02E-09,  avg # of iterations =  1.5

     negative rho (up, down):  3.333E-04 3.333E-04

     total cpu time spent up to now is      135.8 secs

     total energy              =   -1212.67190655 Ry
     estimated scf accuracy    <       0.00000222 Ry

     total magnetization       =    -0.00 Bohr mag/cell
     absolute magnetization    =     0.13 Bohr mag/cell

     iteration # 21     ecut=    50.00 Ry     beta= 0.30
     Davidson diagonalization with overlap
     ethr =  8.48E-10,  avg # of iterations =  1.0

     negative rho (up, down):  3.333E-04 3.333E-04

     total cpu time spent up to now is      141.9 secs

     total energy              =   -1212.67190542 Ry
     estimated scf accuracy    <       0.00000233 Ry

     total magnetization       =     0.00 Bohr mag/cell
     absolute magnetization    =     0.12 Bohr mag/cell

     iteration # 22     ecut=    50.00 Ry     beta= 0.30
     Davidson diagonalization with overlap
     ethr =  8.48E-10,  avg # of iterations =  1.0

     negative rho (up, down):  3.333E-04 3.334E-04

     total cpu time spent up to now is      148.0 secs

     total energy              =   -1212.67189927 Ry
     estimated scf accuracy    <       0.00000278 Ry

     total magnetization       =     0.00 Bohr mag/cell
     absolute magnetization    =     0.11 Bohr mag/cell

     iteration # 23     ecut=    50.00 Ry     beta= 0.30
     Davidson diagonalization with overlap
     ethr =  8.48E-10,  avg # of iterations =  2.0

     negative rho (up, down):  3.334E-04 3.334E-04

     Magnetic moment per site  (integrated on atomic sphere of radius R)
     atom   1 (R=0.035)  charge=  1.0951  magn= -0.0003
     atom   2 (R=0.035)  charge=  1.1677  magn=  0.0003
     atom   3 (R=0.035)  charge=  1.0999  magn= -0.0001
     atom   4 (R=0.035)  charge=  1.1661  magn=  0.0001
     atom   5 (R=0.035)  charge=  1.1003  magn=  0.0001
     atom   6 (R=0.035)  charge=  1.1683  magn= -0.0000
     atom   7 (R=0.035)  charge=  1.0951  magn=  0.0003
     atom   8 (R=0.035)  charge=  1.1677  magn= -0.0002
     atom   9 (R=0.035)  charge=  1.0961  magn=  0.0000
     atom  10 (R=0.035)  charge=  1.1667  magn=  0.0002
     atom  11 (R=0.035)  charge=  1.1000  magn=  0.0003
     atom  12 (R=0.035)  charge=  1.1653  magn=  0.0000
     atom  13 (R=0.035)  charge=  1.0961  magn=  0.0004
     atom  14 (R=0.035)  charge=  1.1672  magn=  0.0001
     atom  15 (R=0.035)  charge=  1.1006  magn=  0.0000
     atom  16 (R=0.035)  charge=  1.1662  magn=  0.0002
     atom  17 (R=0.035)  charge=  1.0944  magn=  0.0001
     atom  18 (R=0.035)  charge=  1.1686  magn=  0.0000
     atom  19 (R=0.035)  charge=  1.0944  magn= -0.0000
     atom  20 (R=0.035)  charge=  1.1685  magn= -0.0000
     atom  21 (R=0.035)  charge=  1.1180  magn= -0.0001
     atom  22 (R=0.035)  charge=  1.2425  magn=  0.0001
     atom  23 (R=0.035)  charge=  1.0965  magn= -0.0000
     atom  24 (R=0.035)  charge=  1.1667  magn=  0.0000
     atom  25 (R=0.035)  charge=  1.0968  magn=  0.0001
     atom  26 (R=0.035)  charge=  1.1674  magn= -0.0001
     atom  27 (R=0.035)  charge=  1.1014  magn=  0.0000
     atom  28 (R=0.035)  charge=  1.1670  magn= -0.0001
     atom  29 (R=0.035)  charge=  1.0976  magn= -0.0002
     atom  30 (R=0.035)  charge=  1.1676  magn= -0.0000
     atom  31 (R=0.035)  charge=  1.0999  magn= -0.0003
     atom  32 (R=0.035)  charge=  1.1665  magn=  0.0001
     atom  33 (R=0.035)  charge=  1.0960  magn=  0.0003
     atom  34 (R=0.035)  charge=  1.1689  magn= -0.0002
     atom  35 (R=0.035)  charge=  1.0963  magn= -0.0004
     atom  36 (R=0.035)  charge=  1.1693  magn=  0.0002
     atom  37 (R=0.035)  charge=  1.1016  magn= -0.0000
     atom  38 (R=0.035)  charge=  1.1690  magn=  0.0000
     atom  39 (R=0.035)  charge=  1.0988  magn=  0.0000
     atom  40 (R=0.035)  charge=  1.1681  magn= -0.0000
     atom  41 (R=0.035)  charge=  1.0966  magn= -0.0000
     atom  42 (R=0.035)  charge=  1.1689  magn= -0.0000
     atom  43 (R=0.035)  charge=  1.0948  magn=  0.0001
     atom  44 (R=0.035)  charge=  1.1691  magn= -0.0001
     atom  45 (R=0.035)  charge=  1.1136  magn= -0.0000
     atom  46 (R=0.035)  charge=  1.2114  magn= -0.0001
     atom  47 (R=0.035)  charge=  1.0969  magn= -0.0001
     atom  48 (R=0.035)  charge=  1.1693  magn=  0.0000
     atom  49 (R=0.035)  charge=  1.0976  magn=  0.0002
     atom  50 (R=0.035)  charge=  1.1676  magn= -0.0000
     atom  51 (R=0.035)  charge=  1.0997  magn=  0.0003
     atom  52 (R=0.035)  charge=  1.1665  magn= -0.0002
     atom  53 (R=0.035)  charge=  1.1018  magn= -0.0001
     atom  54 (R=0.035)  charge=  1.1674  magn=  0.0001
     atom  55 (R=0.035)  charge=  1.0970  magn= -0.0001
     atom  56 (R=0.035)  charge=  1.1678  magn=  0.0001
     atom  57 (R=0.035)  charge=  1.0961  magn=  0.0000
     atom  58 (R=0.035)  charge=  1.1667  magn= -0.0002
     atom  59 (R=0.035)  charge=  1.0961  magn= -0.0003
     atom  60 (R=0.035)  charge=  1.1672  magn= -0.0001
     atom  61 (R=0.035)  charge=  1.1000  magn= -0.0003
     atom  62 (R=0.035)  charge=  1.1653  magn=  0.0001
     atom  63 (R=0.035)  charge=  1.1006  magn=  0.0000
     atom  64 (R=0.035)  charge=  1.1662  magn= -0.0002
     atom  65 (R=0.037)  charge=  3.2396  magn=  0.0000

     total cpu time spent up to now is      154.9 secs

     End of self-consistent calculation

 ------ SPIN UP ------------


          k = 0.0000 0.0000 0.0000 ( 57657 PWs)   bands (ev):

   -29.6186 -19.6532 -19.5530 -19.4019 -19.3948 -19.3830 -19.3804 -19.3489
   -19.1738 -18.5014 -18.3630 -18.3608 -18.3561 -18.3529 -18.3408 -18.3333
   -18.3145 -18.3077 -18.0446 -17.7807 -17.7719 -17.7528 -17.7518 -17.5309
   -17.4483 -17.1144 -17.1137 -17.1075 -17.1013 -17.0985 -17.0788 -17.0635
   -17.0604 -15.7538 -15.1900 -15.0315 -14.9666 -14.9642 -14.9495 -14.9396
   -14.4964 -14.0092 -13.3035 -13.2896 -13.2877 -13.2737 -13.2714 -13.2616
   -13.2531 -13.2418 -12.7009 -12.5643 -12.4710 -12.4657 -12.4568 -12.4488
   -12.0477 -11.5503 -11.4430  -9.1862  -8.8238  -8.7865  -8.7724  -8.6504
    -8.6217  -8.5921  -8.5882  -8.5815  -8.5801  -8.5708  -8.5662  -8.5647
    -8.5248  -8.4671  -8.4536  -8.4511  -8.4419  -8.4125  -8.3108  -8.2132
    -8.1017  -8.0949  -8.0459  -7.9591  -7.6133  -7.5887  -7.3576  -7.3271
    -7.3179  -7.3023  -7.1094  -7.0583  -6.9624  -6.8759  -6.8724  -6.7683
    -6.7433  -6.7321  -6.5205  -6.3821  -6.3109  -6.1474  -6.0942  -6.0869
    -6.0616  -6.0605  -5.9137  -5.6152  -5.4503  -5.1578  -5.1111  -5.0972
    -5.0496  -4.8475  -4.8006  -4.7842  -4.6841  -4.6818  -4.5384  -4.4782
    -4.4766  -4.3168  -3.9726  -3.5670  -3.4177  -3.4044  -3.3019  -3.1341
    -3.0860  -3.0716  -2.9587  -2.9312  -2.7141  -2.6016  -2.5585  -2.5487
    -2.4880  -2.3107  -1.8906  -1.8208  -1.7884  -1.7727  -1.7516  -1.4756
    -1.2971  -1.2796  -1.1495  -0.9337  -0.6563  -0.0511   0.9267   1.0127
     1.0204   1.0341   1.0506   1.0801   1.0825

 ------ SPIN DOWN ----------


          k = 0.0000 0.0000 0.0000 ( 57657 PWs)   bands (ev):

   -29.6185 -19.6533 -19.5530 -19.4018 -19.3947 -19.3831 -19.3804 -19.3490
   -19.1738 -18.5015 -18.3630 -18.3608 -18.3561 -18.3529 -18.3408 -18.3334
   -18.3145 -18.3077 -18.0446 -17.7807 -17.7718 -17.7528 -17.7518 -17.5309
   -17.4483 -17.1144 -17.1137 -17.1075 -17.1013 -17.0985 -17.0788 -17.0634
   -17.0604 -15.7538 -15.1901 -15.0314 -14.9665 -14.9642 -14.9495 -14.9397
   -14.4965 -14.0092 -13.3035 -13.2896 -13.2877 -13.2737 -13.2714 -13.2616
   -13.2531 -13.2418 -12.7009 -12.5644 -12.4709 -12.4656 -12.4568 -12.4488
   -12.0477 -11.5501 -11.4430  -9.1862  -8.8238  -8.7865  -8.7724  -8.6504
    -8.6218  -8.5921  -8.5882  -8.5815  -8.5801  -8.5708  -8.5662  -8.5648
    -8.5248  -8.4671  -8.4536  -8.4511  -8.4419  -8.4125  -8.3108  -8.2132
    -8.1017  -8.0949  -8.0459  -7.9591  -7.6133  -7.5887  -7.3576  -7.3271
    -7.3179  -7.3024  -7.1094  -7.0583  -6.9624  -6.8758  -6.8724  -6.7683
    -6.7433  -6.7321  -6.5205  -6.3822  -6.3109  -6.1473  -6.0943  -6.0869
    -6.0615  -6.0605  -5.9137  -5.6152  -5.4503  -5.1579  -5.1110  -5.0972
    -5.0496  -4.8475  -4.8006  -4.7841  -4.6841  -4.6818  -4.5384  -4.4783
    -4.4766  -4.3168  -3.9726  -3.5670  -3.4177  -3.4044  -3.3020  -3.1341
    -3.0860  -3.0717  -2.9586  -2.9311  -2.7140  -2.6016  -2.5586  -2.5487
    -2.4879  -2.3106  -1.8906  -1.8208  -1.7884  -1.7727  -1.7516  -1.4756
    -1.2972  -1.2795  -1.1495  -0.9338  -0.6563  -0.0511   0.9267   1.0127
     1.0200   1.0273   1.0497   1.0795   1.0804

     the spin up/dw Fermi energies are    -2.9400   -2.9400 ev

!    total energy              =   -1212.67190258 Ry
     total all-electron energy =     -5018.421056 Ry
     estimated scf accuracy    <       0.00000097 Ry
     smearing contrib. (-TS)   =      -0.00000000 Ry
     internal energy E=F+TS    =   -1212.67190258 Ry

     The total energy is F=E-TS. E is the sum of the following terms:
     one-electron contribution =   -1828.73642815 Ry
     hartree contribution      =     962.55266346 Ry
     xc contribution           =    -296.12480402 Ry
     ewald contribution        =     354.01241554 Ry
     one-center paw contrib.   =    -404.37574941 Ry

     total magnetization       =     0.00 Bohr mag/cell
     absolute magnetization    =     0.05 Bohr mag/cell

     convergence has been achieved in  23 iterations

     negative rho (up, down):  3.334E-04 3.334E-04

     Forces acting on atoms (cartesian axes, Ry/au):

     atom    1 type  1   force =     0.23951495   -0.21549763   -0.21901836
     atom    2 type  1   force =    -0.23175836    0.23057915    0.22517110
     atom    3 type  1   force =    -0.22324250    0.23686469   -0.22336831
     atom    4 type  1   force =     0.24238468   -0.24691105    0.24239015
     atom    5 type  1   force =     0.19521000    0.19480193    0.19575815
     atom    6 type  1   force =    -0.21262851   -0.21444610   -0.21267543
     atom    7 type  1   force =    -0.21836874   -0.21505249    0.23958585
     atom    8 type  1   force =     0.22478082    0.23025505   -0.23148308
     atom    9 type  1   force =    -0.21726729    0.20849432   -0.22189496
     atom   10 type  1   force =     0.21979434   -0.21947957    0.21833862
     atom   11 type  1   force =    -0.21886767   -0.21894195    0.22051904
     atom   12 type  1   force =     0.23041758    0.22693734   -0.23054412
     atom   13 type  1   force =     0.21958916    0.20483756    0.21450462
     atom   14 type  1   force =    -0.21527822   -0.21258121   -0.21813629
     atom   15 type  1   force =     0.20962745   -0.20504731   -0.20991352
     atom   16 type  1   force =    -0.22094163    0.21911272    0.22099891
     atom   17 type  1   force =    -0.20419613   -0.18910991    0.22087979
     atom   18 type  1   force =     0.20596120    0.21643345   -0.21946890
     atom   19 type  1   force =     0.22102199   -0.18931022   -0.20443537
     atom   20 type  1   force =    -0.21971991    0.21661517    0.20617039
     atom   21 type  1   force =     0.38579476    0.22329946    0.38600131
     atom   22 type  1   force =    -0.01180494   -0.18626665   -0.01175106
     atom   23 type  1   force =    -0.27113125    0.20060170   -0.27115264
     atom   24 type  1   force =     0.24922398   -0.24665686    0.24918537
     atom   25 type  1   force =     0.21828016   -0.21108904    0.21948996
     atom   26 type  1   force =    -0.22072620    0.22236495   -0.21991727
     atom   27 type  1   force =    -0.21378525    0.20578203    0.20954624
     atom   28 type  1   force =     0.22212134   -0.22257554   -0.22156464
     atom   29 type  1   force =    -0.22454137   -0.20845625   -0.21324567
     atom   30 type  1   force =     0.22001908    0.21679688    0.22141561
     atom   31 type  1   force =     0.22457220    0.22323111   -0.22157567
     atom   32 type  1   force =    -0.23364404   -0.23003056    0.23281538
     atom   33 type  1   force =    -0.23949673    0.21048805    0.21629942
     atom   34 type  1   force =     0.23265807   -0.23190887   -0.22640337
     atom   35 type  1   force =     0.21702124    0.21164930   -0.24110730
     atom   36 type  1   force =    -0.22748698   -0.23305528    0.23384478
     atom   37 type  1   force =    -0.20471171   -0.18837504   -0.20501023
     atom   38 type  1   force =     0.21826454    0.21711716    0.21813987
     atom   39 type  1   force =     0.23254754   -0.23592894    0.23301368
     atom   40 type  1   force =    -0.24523107    0.25222941   -0.24531942
     atom   41 type  1   force =     0.20339965    0.19795161   -0.22027749
     atom   42 type  1   force =    -0.20906285   -0.22137890    0.22153829
     atom   43 type  1   force =     0.25875052   -0.21366837    0.25844422
     atom   44 type  1   force =    -0.24804869    0.25016346   -0.24796342
     atom   45 type  1   force =    -0.28636901   -0.31101584   -0.28584866
     atom   46 type  1   force =     0.11497071    0.05632304    0.11506118
     atom   47 type  1   force =    -0.22174926    0.19893041    0.20390867
     atom   48 type  1   force =     0.22265229   -0.22243849   -0.21002263
     atom   49 type  1   force =    -0.21242478   -0.20831479   -0.22374687
     atom   50 type  1   force =     0.22096165    0.21636665    0.21959322
     atom   51 type  1   force =    -0.22210192    0.22400371    0.22439646
     atom   52 type  1   force =     0.23328071   -0.23033329   -0.23387038
     atom   53 type  1   force =     0.21033402    0.20704389   -0.21487501
     atom   54 type  1   force =    -0.22252965   -0.22355294    0.22312186
     atom   55 type  1   force =     0.22065526   -0.21310683    0.21887700
     atom   56 type  1   force =    -0.22108753    0.22356149   -0.22171382
     atom   57 type  1   force =    -0.22164073    0.20873696   -0.21762126
     atom   58 type  1   force =     0.21833959   -0.21973276    0.21991575
     atom   59 type  1   force =     0.21410181    0.20449728    0.21946625
     atom   60 type  1   force =    -0.21787861   -0.21227177   -0.21501610
     atom   61 type  1   force =     0.22052725   -0.21886321   -0.21909837
     atom   62 type  1   force =    -0.23065152    0.22708475    0.23050459
     atom   63 type  1   force =    -0.20987047   -0.20514368    0.21021154
     atom   64 type  1   force =     0.22115694    0.21929379   -0.22118526
     atom   65 type  2   force =    -0.18969196    0.21809289   -0.18988240

     Total force =     3.104297     Total SCF correction =     0.001229

     BFGS Geometry Optimization
     Energy error            =      0.0E+00 Ry
     Gradient error          =      3.9E-01 Ry/Bohr

     number of scf cycles    =   1
     number of bfgs steps    =   0

     energy             new  =   -1212.6719025753 Ry

     new trust radius        =       0.5000000000 bohr
     new conv_thr            =       0.0000010000 Ry


ATOMIC_POSITIONS (angstrom)
C             0.8664739320        9.0963029999        9.0947231959
C            -0.0479934310        9.9994643039        9.9970376309
C             1.9978277597        7.9602847181        9.0927713058
C             2.9097616189        7.0402073286       10.0047640772
C             0.8465936392        7.9414105313        7.9418396029
C            -0.0394095856        7.0547748384        7.0555693631
C             2.0000146881        9.0965027389        7.9615057425
C             2.9018625054        9.9993188729        7.0471300882
C             9.0955089274        0.8525545089        9.0934324203
C             9.9946249998       -0.0424837548        9.9939717957
C             9.0947908108        1.9997574819        7.9529501824
C             9.9993918046        2.9028301697        7.0475514161
C             7.9525329310        0.8509136685        7.9502514233
C             7.0544014513       -0.0393883599        7.0531189922
C             7.9480629622        2.0059922126        9.0988086745
C             7.0518601963        2.8993191474        9.9951655091
C             9.1013741500        9.1081435607        0.8581120569
C             9.9884178615        9.9931169168       -0.0424789686
C             7.9531758632        9.1080536807        2.0062668009
C             7.0524084015        9.9931984585        2.8935117268
C             8.0271118642        7.9541977963        0.9322045445
C             7.1457029464        7.0674193747        0.0507271260
C             9.0713393632        7.9440129737        1.9763297676
C            10.0078305168        7.0403213891        2.9128131907
C             4.4049455646       12.6462811994        4.4054884183
C             3.5049568619       13.5427784704        3.5053198409
C             5.5500713696       11.4933374655        4.4010265225
C             6.4476691578       10.5991270347        3.5045806413
C             5.5452449400       12.6474625735        5.5503134888
C             6.4467258413       13.5402799931        6.4473524876
C             4.4077688960       11.5011671274        5.5465756940
C             3.4991604344       10.5957818555        6.4524677333
C            12.6335342471        4.4014491295        4.4040567773
C            13.5473971456        3.4999390323        3.5024094311
C            11.4983806686        4.4019701974        5.5378115589
C            10.5969231971        3.4994246189        6.4529296394
C            12.6491428046        5.5614733095        5.5540088516
C            13.5409385566        6.4454237082        6.4458826151
C            11.5053475511        5.5401351637        4.4115567128
C            10.5889611605        6.4611790960        3.4939215182
C             4.3982684545        4.3958238399       12.6421582038
C             3.5101903799        3.5046639839       13.5424075371
C             4.4231052186        5.5501238150       11.5169677743
C             3.4926968530        6.4602520743       10.5877351133
C             5.5175019544        5.5064425553       12.6127354438
C             6.3995890703        6.3732729897       13.4946296664
C             5.5464977985        4.3962630441       11.4924968621
C             6.4479074018        3.5041885326       10.6047597130
C            12.6456818350       12.6475260457       12.6406014435
C            13.5421487875       13.5400869410       13.5415347545
C            12.6403395568       11.5015138067       11.5016900381
C            13.5476765351       10.5956460187       10.5940588735
C            11.4953800133       11.4939036827       12.6445823780
C            10.5991476268       10.5986884593       13.5431181070
C            11.5000113068       12.6443757848       11.4992133747
C            10.5997947287       13.5433153749       10.5995137024
C             1.9985464978        0.8526633893        2.0003500933
C             2.8989722288       -0.0425973687        2.8996794771
C             0.8550706760        0.8507609811        0.8574777786
C            -0.0417653832       -0.0392495073       -0.0404809330
C             0.8579538680        1.9997928130        1.9996872919
C            -0.0474967762        2.9028963129        2.9044308486
C             2.0038279897        2.0059489704        0.8533250553
C             2.9002364170        2.8994003965       -0.0432491263
O             6.2628823873        7.7958615324       13.3577969334



     Writing config-only to output data dir ./pwscf.save/
     NEW-OLD atomic charge density approx. for the potential

     Check: negative core charge=   -0.000003

     negative rho (up, down):  4.069E-04 4.015E-04
     Generating pointlists ...
     new r_m :   0.0292 (alat units)  0.7837 (a.u.) for type    1

     total cpu time spent up to now is      161.7 secs

     Self-consistent Calculation

     iteration #  1     ecut=    50.00 Ry     beta= 0.30
     Davidson diagonalization with overlap
     c_bands:  1 eigenvalues not converged
     c_bands:  1 eigenvalues not converged
     ethr =  1.00E-06,  avg # of iterations = 40.0

     negative rho (up, down):  4.913E-04 4.890E-04

     total cpu time spent up to now is      198.2 secs

     total energy              =   -1212.67406181 Ry
     estimated scf accuracy    <       7.16790461 Ry

     total magnetization       =     0.00 Bohr mag/cell
     absolute magnetization    =     0.01 Bohr mag/cell

     iteration #  2     ecut=    50.00 Ry     beta= 0.30
     Davidson diagonalization with overlap
     ethr =  2.74E-03,  avg # of iterations =  1.0

     negative rho (up, down):  8.421E-04 8.411E-04

     total cpu time spent up to now is      204.3 secs

     total energy              =   -1211.91442115 Ry
     estimated scf accuracy    <       1.85543827 Ry

     total magnetization       =     0.00 Bohr mag/cell
     absolute magnetization    =     0.01 Bohr mag/cell

     iteration #  3     ecut=    50.00 Ry     beta= 0.30
     Davidson diagonalization with overlap
     ethr =  7.08E-04,  avg # of iterations =  2.0

     negative rho (up, down):  8.192E-04 8.190E-04

     total cpu time spent up to now is      211.9 secs

     total energy              =   -1212.19964719 Ry
     estimated scf accuracy    <       0.12592498 Ry

     total magnetization       =     0.00 Bohr mag/cell
     absolute magnetization    =     0.01 Bohr mag/cell

     iteration #  4     ecut=    50.00 Ry     beta= 0.30
     Davidson diagonalization with overlap
     ethr =  4.81E-05,  avg # of iterations =  7.0

     negative rho (up, down):  6.594E-04 6.593E-04

     total cpu time spent up to now is      220.5 secs

     total energy              =   -1212.22727342 Ry
     estimated scf accuracy    <       0.01344647 Ry

     total magnetization       =     0.00 Bohr mag/cell
     absolute magnetization    =     0.01 Bohr mag/cell

     iteration #  5     ecut=    50.00 Ry     beta= 0.30
     Davidson diagonalization with overlap
     ethr =  5.13E-06,  avg # of iterations = 19.0

     negative rho (up, down):  6.078E-04 6.080E-04

     total cpu time spent up to now is      230.3 secs

     total energy              =   -1212.22796532 Ry
     estimated scf accuracy    <       0.00308610 Ry

     total magnetization       =     0.00 Bohr mag/cell
     absolute magnetization    =     0.01 Bohr mag/cell

     iteration #  6     ecut=    50.00 Ry     beta= 0.30
     Davidson diagonalization with overlap
     ethr =  1.18E-06,  avg # of iterations =  3.5

     negative rho (up, down):  5.422E-04 5.422E-04

     total cpu time spent up to now is      237.5 secs

     total energy              =   -1212.22866921 Ry
     estimated scf accuracy    <       0.00036231 Ry

     total magnetization       =    -0.00 Bohr mag/cell
     absolute magnetization    =     0.00 Bohr mag/cell

     iteration #  7     ecut=    50.00 Ry     beta= 0.30
     Davidson diagonalization with overlap
     ethr =  1.38E-07,  avg # of iterations =  4.0

     negative rho (up, down):  5.142E-04 5.142E-04

     total cpu time spent up to now is      244.4 secs

     total energy              =   -1212.22864409 Ry
     estimated scf accuracy    <       0.00016037 Ry

     total magnetization       =    -0.00 Bohr mag/cell
     absolute magnetization    =     0.00 Bohr mag/cell

     iteration #  8     ecut=    50.00 Ry     beta= 0.30
     Davidson diagonalization with overlap
     ethr =  6.12E-08,  avg # of iterations =  3.0

     negative rho (up, down):  4.927E-04 4.927E-04

     total cpu time spent up to now is      252.3 secs

     total energy              =   -1212.22867619 Ry
     estimated scf accuracy    <       0.00010707 Ry

     total magnetization       =     0.00 Bohr mag/cell
     absolute magnetization    =     0.00 Bohr mag/cell

     iteration #  9     ecut=    50.00 Ry     beta= 0.30
     Davidson diagonalization with overlap
     ethr =  4.09E-08,  avg # of iterations =  2.0

     negative rho (up, down):  4.811E-04 4.812E-04

     total cpu time spent up to now is      259.7 secs

     total energy              =   -1212.22869532 Ry
     estimated scf accuracy    <       0.00000256 Ry

     total magnetization       =     0.00 Bohr mag/cell
     absolute magnetization    =     0.00 Bohr mag/cell

     iteration # 10     ecut=    50.00 Ry     beta= 0.30
     Davidson diagonalization with overlap
     ethr =  9.75E-10,  avg # of iterations =  4.0

     negative rho (up, down):  4.746E-04 4.747E-04

     total cpu time spent up to now is      268.0 secs

     total energy              =   -1212.22869655 Ry
     estimated scf accuracy    <       0.00000108 Ry

     total magnetization       =    -0.00 Bohr mag/cell
     absolute magnetization    =     0.00 Bohr mag/cell

     iteration # 11     ecut=    50.00 Ry     beta= 0.30
     Davidson diagonalization with overlap
     ethr =  4.11E-10,  avg # of iterations =  4.0

     negative rho (up, down):  4.680E-04 4.680E-04

     Magnetic moment per site  (integrated on atomic sphere of radius R)
     atom   1 (R=0.029)  charge=  0.6179  magn= -0.0000
     atom   2 (R=0.029)  charge=  0.7694  magn=  0.0000
     atom   3 (R=0.029)  charge=  0.6169  magn= -0.0000
     atom   4 (R=0.029)  charge=  0.7879  magn=  0.0000
     atom   5 (R=0.029)  charge=  0.6181  magn=  0.0000
     atom   6 (R=0.029)  charge=  0.7565  magn= -0.0000
     atom   7 (R=0.029)  charge=  0.6179  magn=  0.0000
     atom   8 (R=0.029)  charge=  0.7690  magn= -0.0000
     atom   9 (R=0.029)  charge=  0.6172  magn= -0.0000
     atom  10 (R=0.029)  charge=  0.7589  magn=  0.0000
     atom  11 (R=0.029)  charge=  0.6165  magn=  0.0000
     atom  12 (R=0.029)  charge=  0.7693  magn= -0.0000
     atom  13 (R=0.029)  charge=  0.6181  magn=  0.0000
     atom  14 (R=0.029)  charge=  0.7573  magn=  0.0000
     atom  15 (R=0.029)  charge=  0.6173  magn= -0.0000
     atom  16 (R=0.029)  charge=  0.7576  magn=  0.0000
     atom  17 (R=0.029)  charge=  0.6232  magn=  0.0000
     atom  18 (R=0.029)  charge=  0.7575  magn= -0.0000
     atom  19 (R=0.029)  charge=  0.6232  magn= -0.0000
     atom  20 (R=0.029)  charge=  0.7571  magn=  0.0000
     atom  21 (R=0.029)  charge=  0.6410  magn= -0.0000
     atom  22 (R=0.029)  charge=  0.6649  magn=  0.0000
     atom  23 (R=0.029)  charge=  0.6292  magn=  0.0000
     atom  24 (R=0.029)  charge=  0.7891  magn=  0.0000
     atom  25 (R=0.029)  charge=  0.6173  magn=  0.0000
     atom  26 (R=0.029)  charge=  0.7586  magn= -0.0000
     atom  27 (R=0.029)  charge=  0.6170  magn=  0.0000
     atom  28 (R=0.029)  charge=  0.7566  magn=  0.0000
     atom  29 (R=0.029)  charge=  0.6181  magn= -0.0000
     atom  30 (R=0.029)  charge=  0.7559  magn= -0.0000
     atom  31 (R=0.029)  charge=  0.6167  magn= -0.0000
     atom  32 (R=0.029)  charge=  0.7690  magn=  0.0000
     atom  33 (R=0.029)  charge=  0.6181  magn=  0.0000
     atom  34 (R=0.029)  charge=  0.7685  magn= -0.0000
     atom  35 (R=0.029)  charge=  0.6181  magn= -0.0000
     atom  36 (R=0.029)  charge=  0.7689  magn=  0.0000
     atom  37 (R=0.029)  charge=  0.6188  magn= -0.0000
     atom  38 (R=0.029)  charge=  0.7549  magn=  0.0000
     atom  39 (R=0.029)  charge=  0.6173  magn=  0.0000
     atom  40 (R=0.029)  charge=  0.7893  magn= -0.0000
     atom  41 (R=0.029)  charge=  0.6230  magn=  0.0000
     atom  42 (R=0.029)  charge=  0.7582  magn=  0.0000
     atom  43 (R=0.029)  charge=  0.6193  magn=  0.0000
     atom  44 (R=0.029)  charge=  0.7866  magn= -0.0000
     atom  45 (R=0.029)  charge=  0.6357  magn=  0.0000
     atom  46 (R=0.029)  charge=  0.6658  magn= -0.0000
     atom  47 (R=0.029)  charge=  0.6229  magn= -0.0000
     atom  48 (R=0.029)  charge=  0.7586  magn= -0.0000
     atom  49 (R=0.029)  charge=  0.6181  magn=  0.0000
     atom  50 (R=0.029)  charge=  0.7555  magn=  0.0000
     atom  51 (R=0.029)  charge=  0.6168  magn=  0.0000
     atom  52 (R=0.029)  charge=  0.7694  magn= -0.0000
     atom  53 (R=0.029)  charge=  0.6170  magn= -0.0000
     atom  54 (R=0.029)  charge=  0.7569  magn=  0.0000
     atom  55 (R=0.029)  charge=  0.6174  magn= -0.0000
     atom  56 (R=0.029)  charge=  0.7590  magn=  0.0000
     atom  57 (R=0.029)  charge=  0.6172  magn=  0.0000
     atom  58 (R=0.029)  charge=  0.7583  magn=  0.0000
     atom  59 (R=0.029)  charge=  0.6181  magn= -0.0000
     atom  60 (R=0.029)  charge=  0.7569  magn=  0.0000
     atom  61 (R=0.029)  charge=  0.6165  magn= -0.0000
     atom  62 (R=0.029)  charge=  0.7687  magn=  0.0000
     atom  63 (R=0.029)  charge=  0.6173  magn=  0.0000
     atom  64 (R=0.029)  charge=  0.7571  magn= -0.0000
     atom  65 (R=0.037)  charge=  3.1588  magn=  0.0000

     total cpu time spent up to now is      275.1 secs

     End of self-consistent calculation

 ------ SPIN UP ------------


          k = 0.0000 0.0000 0.0000 ( 57657 PWs)   bands (ev):

   -25.4480 -22.5771 -22.3762 -21.8133 -21.7648 -21.7300 -21.7263 -21.7052
   -21.7011 -18.2793 -18.2585 -18.2264 -18.2070 -18.1963 -18.1958 -18.1819
   -18.1729 -18.1688 -18.1484 -18.1215 -18.0968 -18.0917 -18.0854 -18.0144
   -15.5032 -15.2836 -14.4331 -14.4222 -14.3815 -14.3322 -14.3073 -14.2911
   -14.2666 -14.2399 -14.0351 -13.9686 -13.9634 -13.9524 -13.9292 -13.8292
   -13.5539 -13.3470 -13.3382 -13.3073 -13.2735 -13.2511 -13.2408 -13.2292
   -13.2060 -12.9500 -12.3859 -12.2828 -12.1428 -12.1191 -12.1152 -12.0790
   -11.7085  -9.6903  -9.6211  -9.3717  -9.2890  -9.2247  -9.1542  -9.0528
    -9.0313  -8.9827  -8.9751  -8.9486  -8.9451  -8.9012  -8.8981  -8.8745
    -8.8654  -8.8280  -8.8253  -8.7872  -8.7578  -8.7543  -8.6185  -8.5677
    -8.5275  -8.3248  -7.7513  -7.4481  -7.4299  -7.4257  -7.2319  -7.2129
    -7.2094  -7.1996  -7.1205  -7.1007  -7.0127  -6.9911  -6.9342  -6.9063
    -6.8537  -6.8353  -6.8068  -6.7560  -6.7239  -6.7166  -6.6557  -6.6540
    -6.5764  -6.4432  -6.4232  -6.3675  -6.2953  -6.2503  -6.2465  -6.2008
    -6.1561  -6.1474  -5.0583  -5.0423  -4.5581  -4.3838  -4.2406  -4.2153
    -4.1741  -4.1669  -4.0940  -4.0874  -4.0389  -4.0251  -4.0206  -3.9814
    -3.3408  -3.2948  -2.2897  -0.3929   0.3200   0.3223   0.3735   0.4903
     0.4976   0.5100   0.6195   0.6255   0.7039   0.8203   0.8798   0.9284
     0.9301   1.0862   1.0970   1.2124   1.2138   1.2423   1.3799   1.5115
     1.5431   1.6017   1.6110   1.6368   1.6517

 ------ SPIN DOWN ----------


          k = 0.0000 0.0000 0.0000 ( 57657 PWs)   bands (ev):

   -25.4480 -22.5771 -22.3762 -21.8133 -21.7648 -21.7300 -21.7264 -21.7052
   -21.7011 -18.2793 -18.2585 -18.2264 -18.2070 -18.1963 -18.1958 -18.1819
   -18.1729 -18.1688 -18.1484 -18.1214 -18.0968 -18.0917 -18.0854 -18.0144
   -15.5032 -15.2836 -14.4331 -14.4222 -14.3815 -14.3322 -14.3073 -14.2911
   -14.2666 -14.2399 -14.0351 -13.9686 -13.9634 -13.9524 -13.9292 -13.8292
   -13.5539 -13.3470 -13.3382 -13.3073 -13.2735 -13.2511 -13.2408 -13.2292
   -13.2060 -12.9500 -12.3859 -12.2828 -12.1428 -12.1191 -12.1152 -12.0790
   -11.7085  -9.6903  -9.6211  -9.3717  -9.2890  -9.2247  -9.1542  -9.0528
    -9.0313  -8.9827  -8.9751  -8.9486  -8.9451  -8.9012  -8.8981  -8.8745
    -8.8654  -8.8280  -8.8253  -8.7872  -8.7578  -8.7543  -8.6185  -8.5677
    -8.5276  -8.3248  -7.7513  -7.4481  -7.4299  -7.4257  -7.2319  -7.2129
    -7.2094  -7.1996  -7.1205  -7.1007  -7.0127  -6.9911  -6.9342  -6.9063
    -6.8537  -6.8353  -6.8068  -6.7560  -6.7239  -6.7166  -6.6557  -6.6539
    -6.5763  -6.4432  -6.4232  -6.3674  -6.2953  -6.2502  -6.2465  -6.2008
    -6.1561  -6.1473  -5.0584  -5.0423  -4.5581  -4.3838  -4.2406  -4.2153
    -4.1741  -4.1669  -4.0940  -4.0874  -4.0389  -4.0251  -4.0206  -3.9814
    -3.3408  -3.2948  -2.2897  -0.3929   0.3200   0.3223   0.3735   0.4903
     0.4976   0.5100   0.6194   0.6254   0.7039   0.8203   0.8798   0.9283
     0.9300   1.0862   1.0970   1.2124   1.2138   1.2423   1.3799   1.5115
     1.5431   1.6017   1.6110   1.6367   1.6517

     the spin up/dw Fermi energies are    -1.7255   -1.7255 ev

!    total energy              =   -1212.22869710 Ry
     total all-electron energy =     -5017.977850 Ry
     estimated scf accuracy    <       0.00000013 Ry
     smearing contrib. (-TS)   =      -0.00000000 Ry
     internal energy E=F+TS    =   -1212.22869710 Ry

     The total energy is F=E-TS. E is the sum of the following terms:
     one-electron contribution =   -1879.93239692 Ry
     hartree contribution      =     989.81670713 Ry
     xc contribution           =    -298.70934810 Ry
     ewald contribution        =     380.89766226 Ry
     one-center paw contrib.   =    -404.30132147 Ry

     total magnetization       =    -0.00 Bohr mag/cell
     absolute magnetization    =     0.00 Bohr mag/cell

     convergence has been achieved in  11 iterations

     negative rho (up, down):  4.680E-04 4.680E-04

     Forces acting on atoms (cartesian axes, Ry/au):

     atom    1 type  1   force =     0.00860989   -0.02114046   -0.02068565
     atom    2 type  1   force =     0.79953206   -0.79782542   -0.79811618
     atom    3 type  1   force =    -0.01785103    0.00756767   -0.01789165
     atom    4 type  1   force =    -0.95429315    0.95190042   -0.95427334
     atom    5 type  1   force =     0.03756816    0.03736705    0.03740377
     atom    6 type  1   force =     0.65906720    0.65884357    0.65913322
     atom    7 type  1   force =    -0.02094275   -0.02140629    0.00871344
     atom    8 type  1   force =    -0.79497658   -0.79464358    0.79639030
     atom    9 type  1   force =    -0.02543393    0.02656169   -0.02257520
     atom   10 type  1   force =    -0.70502169    0.70362677   -0.70569152
     atom   11 type  1   force =    -0.02339242   -0.02166912    0.02261913
     atom   12 type  1   force =    -0.79450267   -0.79399929    0.79280130
     atom   13 type  1   force =     0.02419547    0.02955558    0.02703842
     atom   14 type  1   force =     0.67667121    0.67667016    0.67450856
     atom   15 type  1   force =     0.02860448   -0.03026431   -0.02922010
     atom   16 type  1   force =     0.69213575   -0.69235621   -0.69594971
     atom   17 type  1   force =    -0.01342524   -0.00365642    0.03105159
     atom   18 type  1   force =    -0.68600829   -0.68583823    0.68253709
     atom   19 type  1   force =     0.03084144   -0.00337156   -0.01319080
     atom   20 type  1   force =     0.67946380   -0.68279300   -0.68296873
     atom   21 type  1   force =    -0.03070870   -0.04557542   -0.03079572
     atom   22 type  1   force =     0.15441126    0.14072022    0.15442134
     atom   23 type  1   force =     0.06224569    0.02176439    0.06219128
     atom   24 type  1   force =    -0.97939863    0.97015946   -0.97942059
     atom   25 type  1   force =     0.02433099   -0.02503519    0.02140860
     atom   26 type  1   force =     0.70149453   -0.70000975    0.70173163
     atom   27 type  1   force =    -0.02647631    0.02915617    0.02722384
     atom   28 type  1   force =    -0.68171410    0.68231571    0.68629496
     atom   29 type  1   force =    -0.02096121   -0.02678887   -0.02564377
     atom   30 type  1   force =    -0.67810494   -0.67797659   -0.67538175
     atom   31 type  1   force =     0.01960193    0.01880599   -0.02037641
     atom   32 type  1   force =     0.79652410    0.79570397   -0.79445729
     atom   33 type  1   force =    -0.00922376    0.02122520    0.02222925
     atom   34 type  1   force =    -0.79085474    0.78935745    0.78933010
     atom   35 type  1   force =     0.02207659    0.02027942   -0.00828774
     atom   36 type  1   force =     0.79423041    0.79450194   -0.79589072
     atom   37 type  1   force =    -0.03214824   -0.03740844   -0.03221404
     atom   38 type  1   force =    -0.66148944   -0.65975998   -0.66143037
     atom   39 type  1   force =     0.01308687   -0.00511309    0.01228049
     atom   40 type  1   force =     0.97349074   -0.97181785    0.97372625
     atom   41 type  1   force =     0.01260602   -0.00255580   -0.03405035
     atom   42 type  1   force =     0.69075112    0.68925074   -0.68836360
     atom   43 type  1   force =    -0.01321921   -0.01448823   -0.01260621
     atom   44 type  1   force =     0.96191227   -0.95034948    0.96173334
     atom   45 type  1   force =     0.01404138   -0.03633130    0.01406726
     atom   46 type  1   force =    -0.13817777   -0.13471699   -0.13824239
     atom   47 type  1   force =    -0.03325298   -0.00330323    0.01251336
     atom   48 type  1   force =    -0.69224834    0.69320223    0.69452349
     atom   49 type  1   force =    -0.02648032   -0.02751831   -0.02172380
     atom   50 type  1   force =    -0.67235466   -0.67491354   -0.67513095
     atom   51 type  1   force =    -0.01917627    0.01839923    0.01999770
     atom   52 type  1   force =    -0.79791122    0.79882696    0.79941545
     atom   53 type  1   force =     0.02720742    0.02851103   -0.02558443
     atom   54 type  1   force =     0.68961628    0.68581550   -0.68538473
     atom   55 type  1   force =     0.02100439   -0.02314673    0.02413900
     atom   56 type  1   force =     0.70606073   -0.70493138    0.70582393
     atom   57 type  1   force =    -0.02251910    0.02624616   -0.02520215
     atom   58 type  1   force =    -0.70158266    0.69948346   -0.70098938
     atom   59 type  1   force =     0.02718756    0.02971864    0.02433718
     atom   60 type  1   force =     0.67152302    0.67366629    0.67367381
     atom   61 type  1   force =     0.02240884   -0.02158475   -0.02323103
     atom   62 type  1   force =     0.78818989   -0.78930674   -0.78987099
     atom   63 type  1   force =    -0.02903111   -0.03003718    0.02819602
     atom   64 type  1   force =    -0.69248438   -0.68890259    0.68874250
     atom   65 type  2   force =    -0.04532566    0.08133227   -0.04535632

     Total force =     7.203891     Total SCF correction =     0.000550
     Energy error            =      4.4E-01 Ry
     Gradient error          =      9.8E-01 Ry/Bohr

     number of scf cycles    =   2
     number of bfgs steps    =   1

     energy             old  =   -1212.6719025753 Ry
     energy             new  =   -1212.2286971047 Ry

     CASE: energy            _new > energy            _old

     new trust radius        =       0.2371379461 bohr
     new conv_thr            =       0.0000010000 Ry


ATOMIC_POSITIONS (angstrom)
C             0.8099722950        9.1471389440        9.1463896810
C             0.0066784227        9.9450706251        9.9439197126
C             2.0504907214        7.9044082795        9.1454639466
C             2.8525830138        7.0984537069        9.9475841798
C             0.8005435514        7.8954567077        7.8956602060
C             0.0107495337        7.1053627256        7.1057395495
C             2.0515279287        9.1472336754        7.9049873819
C             2.8488366548        9.9450016506        7.1017370049
C             9.1467623346        0.8033706482        9.1457774973
C             9.9427754598        0.0092915293        9.9424656608
C             9.1464217491        2.0514059421        7.9009296861
C             9.9450362404        2.8492955946        7.1019368306
C             7.9007317938        0.8025924371        7.8996497297
C             7.1051856371        0.0107596005        7.1045773977
C             7.8986117953        2.0543629245        9.1483273250
C             7.1039803811        2.8476304014        9.9430318103
C             9.1495440682        9.1527546365        0.8060064592
C             9.9398315637        9.9420602124        0.0092937993
C             7.9010367210        9.1527120086        2.0544931552
C             7.1042403817        9.9420988856        2.8448760818
C             7.9361027838        7.9015213992        0.8411467399
C             7.1484877352        7.1113597243        0.0534992030
C             9.1352992929        7.8966909834        2.0402947420
C             9.9490385181        7.0985078030        2.8540303008
C             4.3534532200       12.6960771563        4.3537106825
C             3.5570262273       13.4903225231        3.5571983795
C             5.6005033632       11.4447934338        4.3515945129
C             6.3952706787       10.6516326602        3.5568477950
C             5.5982143040       12.6966374536        5.6006181945
C             6.3948232865       13.4891375555        6.3951204897
C             4.3547922581       11.4485068537        5.5988454486
C             3.5542771215       10.6500461224        6.3975465274
C            12.6900315841        4.3517949451        4.3530316896
C            13.4925130494        3.5546463917        3.5558180423
C            11.4471853035        4.3520420751        5.5946888306
C            10.6505874332        3.5544024178        6.3977655983
C            12.6974343467        5.6059110284        5.6023708160
C            13.4894498963        6.3942057162        6.3944233646
C            11.4504895279        5.5957908603        4.3565887282
C            10.6468112312        6.4016781168        3.5517924298
C             4.3502864277        4.3491270059       12.6941217189
C             3.5595083587        3.5568873223       13.4901465984
C             4.3620659062        5.6005282368       11.4560007196
C             3.5512116006        6.4012384527       10.6462297466
C             5.5850564748        5.5798112684       12.6801672132
C             6.3724674523        6.3599863697       13.4674867061
C             5.5988085046        4.3493353099       11.4443947559
C             6.3953836721        3.5566618273       10.6543041038
C            12.6957928922       12.6966675569       12.6933833850
C            13.4900238797       13.4890459956       13.4897326586
C            12.6927334544       11.4486712753       11.4487548577
C            13.4926455571       10.6499816983       10.6492289536
C            11.4457621650       11.4450619770       12.6952714463
C            10.6516424266       10.6514246545       13.4904836045
C            11.4479586759       12.6946477400       11.4475802359
C            10.6519493314       13.4905771639       10.6518160474
C             2.0508316015        0.8034222875        2.0516870034
C             2.8474658662        0.0092376450        2.8478012971
C             0.8045640056        0.8025200212        0.8057056363
C             0.0096322356        0.0108254549        0.0102414194
C             0.8059314340        2.0514226987        2.0513726526
C             0.0069139741        2.8493269647        2.8500547580
C             2.0533364858        2.0543424158        0.8037360998
C             2.8480654402        2.8476689358        0.0089285321
O             6.3076307683        7.7444133656       13.4025902395



     Writing config-only to output data dir ./pwscf.save/
     NEW-OLD atomic charge density approx. for the potential

     Check: negative core charge=   -0.000003

     negative rho (up, down):  4.277E-04 4.277E-04
     Generating pointlists ...

     total cpu time spent up to now is      282.3 secs

     Self-consistent Calculation

     iteration #  1     ecut=    50.00 Ry     beta= 0.30
     Davidson diagonalization with overlap
     c_bands:  5 eigenvalues not converged
     c_bands:  5 eigenvalues not converged
     ethr =  1.00E-06,  avg # of iterations = 20.0

     negative rho (up, down):  3.419E-04 3.419E-04

     total cpu time spent up to now is      309.2 secs

     total energy              =   -1214.61188971 Ry
     estimated scf accuracy    <       2.17537495 Ry

     total magnetization       =    -0.00 Bohr mag/cell
     absolute magnetization    =     0.00 Bohr mag/cell

     iteration #  2     ecut=    50.00 Ry     beta= 0.30
     Davidson diagonalization with overlap
     ethr =  8.30E-04,  avg # of iterations =  2.0

     negative rho (up, down):  3.058E-04 3.058E-04

     total cpu time spent up to now is      315.7 secs

     total energy              =   -1214.48571948 Ry
     estimated scf accuracy    <       0.85092497 Ry

     total magnetization       =     0.00 Bohr mag/cell
     absolute magnetization    =     0.00 Bohr mag/cell

     iteration #  3     ecut=    50.00 Ry     beta= 0.30
     Davidson diagonalization with overlap
     ethr =  3.25E-04,  avg # of iterations =  2.0

     negative rho (up, down):  2.845E-04 2.845E-04

     total cpu time spent up to now is      322.3 secs

     total energy              =   -1214.54309437 Ry
     estimated scf accuracy    <       1.63569806 Ry

     total magnetization       =    -0.00 Bohr mag/cell
     absolute magnetization    =     0.00 Bohr mag/cell

     iteration #  4     ecut=    50.00 Ry     beta= 0.30
     Davidson diagonalization with overlap
     ethr =  3.25E-04,  avg # of iterations =  1.0

     negative rho (up, down):  2.872E-04 2.872E-04

     total cpu time spent up to now is      328.5 secs

     total energy              =   -1214.62097044 Ry
     estimated scf accuracy    <       0.11238960 Ry

     total magnetization       =     0.00 Bohr mag/cell
     absolute magnetization    =     0.00 Bohr mag/cell

     iteration #  5     ecut=    50.00 Ry     beta= 0.30
     Davidson diagonalization with overlap
     ethr =  4.29E-05,  avg # of iterations =  2.0

     negative rho (up, down):  2.899E-04 2.899E-04

     total cpu time spent up to now is      335.0 secs

     total energy              =   -1214.62616978 Ry
     estimated scf accuracy    <       0.06432120 Ry

     total magnetization       =     0.00 Bohr mag/cell
     absolute magnetization    =     0.00 Bohr mag/cell

     iteration #  6     ecut=    50.00 Ry     beta= 0.30
     Davidson diagonalization with overlap
     ethr =  2.46E-05,  avg # of iterations =  5.0

     negative rho (up, down):  2.968E-04 2.968E-04

     total cpu time spent up to now is      341.9 secs

     total energy              =   -1214.63145363 Ry
     estimated scf accuracy    <       0.05688453 Ry

     total magnetization       =     0.00 Bohr mag/cell
     absolute magnetization    =     0.00 Bohr mag/cell

     iteration #  7     ecut=    50.00 Ry     beta= 0.30
     Davidson diagonalization with overlap
     ethr =  2.17E-05,  avg # of iterations =  1.0

     negative rho (up, down):  3.014E-04 3.014E-04

     total cpu time spent up to now is      347.9 secs

     total energy              =   -1214.63302401 Ry
     estimated scf accuracy    <       0.00666587 Ry

     total magnetization       =    -0.00 Bohr mag/cell
     absolute magnetization    =     0.00 Bohr mag/cell

     iteration #  8     ecut=    50.00 Ry     beta= 0.30
     Davidson diagonalization with overlap
     ethr =  2.54E-06,  avg # of iterations = 15.0

     negative rho (up, down):  3.052E-04 3.052E-04

     total cpu time spent up to now is      356.7 secs

     total energy              =   -1214.63213449 Ry
     estimated scf accuracy    <       0.02718171 Ry

     total magnetization       =    -0.00 Bohr mag/cell
     absolute magnetization    =     0.00 Bohr mag/cell

     iteration #  9     ecut=    50.00 Ry     beta= 0.30
     Davidson diagonalization with overlap
     ethr =  2.54E-06,  avg # of iterations =  2.0

     negative rho (up, down):  3.085E-04 3.085E-04

     total cpu time spent up to now is      363.2 secs

     total energy              =   -1214.63323038 Ry
     estimated scf accuracy    <       0.02068560 Ry

     total magnetization       =     0.00 Bohr mag/cell
     absolute magnetization    =     0.00 Bohr mag/cell

     iteration # 10     ecut=    50.00 Ry     beta= 0.30
     Davidson diagonalization with overlap
     ethr =  2.54E-06,  avg # of iterations =  1.0

     negative rho (up, down):  3.120E-04 3.120E-04

     total cpu time spent up to now is      369.4 secs

     total energy              =   -1214.63350298 Ry
     estimated scf accuracy    <       0.00392795 Ry

     total magnetization       =    -0.00 Bohr mag/cell
     absolute magnetization    =     0.01 Bohr mag/cell

     iteration # 11     ecut=    50.00 Ry     beta= 0.30
     Davidson diagonalization with overlap
     ethr =  1.50E-06,  avg # of iterations =  1.0

     negative rho (up, down):  3.141E-04 3.141E-04

     total cpu time spent up to now is      375.5 secs

     total energy              =   -1214.63333836 Ry
     estimated scf accuracy    <       0.01664186 Ry

     total magnetization       =     0.00 Bohr mag/cell
     absolute magnetization    =     0.02 Bohr mag/cell

     iteration # 12     ecut=    50.00 Ry     beta= 0.30
     Davidson diagonalization with overlap
     ethr =  1.50E-06,  avg # of iterations =  1.0

     negative rho (up, down):  3.147E-04 3.147E-04

     total cpu time spent up to now is      381.5 secs

     total energy              =   -1214.63351552 Ry
     estimated scf accuracy    <       0.01227427 Ry

     total magnetization       =    -0.00 Bohr mag/cell
     absolute magnetization    =     0.06 Bohr mag/cell

     iteration # 13     ecut=    50.00 Ry     beta= 0.30
     Davidson diagonalization with overlap
     ethr =  1.50E-06,  avg # of iterations =  1.0

     negative rho (up, down):  3.146E-04 3.146E-04

     total cpu time spent up to now is      387.6 secs

     total energy              =   -1214.63369194 Ry
     estimated scf accuracy    <       0.00223755 Ry

     total magnetization       =     0.00 Bohr mag/cell
     absolute magnetization    =     0.41 Bohr mag/cell

     iteration # 14     ecut=    50.00 Ry     beta= 0.30
     Davidson diagonalization with overlap
     ethr =  8.54E-07,  avg # of iterations =  1.0

     negative rho (up, down):  3.152E-04 3.150E-04

     total cpu time spent up to now is      393.3 secs

     total energy              =   -1214.63362929 Ry
     estimated scf accuracy    <       0.00178455 Ry

     total magnetization       =     0.00 Bohr mag/cell
     absolute magnetization    =     0.70 Bohr mag/cell

     iteration # 15     ecut=    50.00 Ry     beta= 0.30
     Davidson diagonalization with overlap
     ethr =  6.81E-07,  avg # of iterations =  1.0

     negative rho (up, down):  3.162E-04 3.157E-04

     total cpu time spent up to now is      399.0 secs

     total energy              =   -1214.63360387 Ry
     estimated scf accuracy    <       0.00163579 Ry

     total magnetization       =    -0.00 Bohr mag/cell
     absolute magnetization    =     0.34 Bohr mag/cell

     iteration # 16     ecut=    50.00 Ry     beta= 0.30
     Davidson diagonalization with overlap
     ethr =  6.24E-07,  avg # of iterations =  1.0

     negative rho (up, down):  3.159E-04 3.158E-04

     total cpu time spent up to now is      405.0 secs

     total energy              =   -1214.63365910 Ry
     estimated scf accuracy    <       0.00252870 Ry

     total magnetization       =    -0.00 Bohr mag/cell
     absolute magnetization    =     0.43 Bohr mag/cell

     iteration # 17     ecut=    50.00 Ry     beta= 0.30
     Davidson diagonalization with overlap
     ethr =  6.24E-07,  avg # of iterations =  1.0

     negative rho (up, down):  3.158E-04 3.161E-04

     total cpu time spent up to now is      411.1 secs

     total energy              =   -1214.63360990 Ry
     estimated scf accuracy    <       0.00430434 Ry

     total magnetization       =    -0.00 Bohr mag/cell
     absolute magnetization    =     0.31 Bohr mag/cell

     iteration # 18     ecut=    50.00 Ry     beta= 0.30
     Davidson diagonalization with overlap
     ethr =  6.24E-07,  avg # of iterations =  1.0

     negative rho (up, down):  3.163E-04 3.164E-04

     total cpu time spent up to now is      417.2 secs

     total energy              =   -1214.63362397 Ry
     estimated scf accuracy    <       0.00018201 Ry

     total magnetization       =    -0.00 Bohr mag/cell
     absolute magnetization    =     0.15 Bohr mag/cell

     iteration # 19     ecut=    50.00 Ry     beta= 0.30
     Davidson diagonalization with overlap
     ethr =  6.95E-08,  avg # of iterations =  1.0

     negative rho (up, down):  3.166E-04 3.167E-04

     total cpu time spent up to now is      423.3 secs

     total energy              =   -1214.63362944 Ry
     estimated scf accuracy    <       0.00024509 Ry

     total magnetization       =    -0.00 Bohr mag/cell
     absolute magnetization    =     0.14 Bohr mag/cell

     iteration # 20     ecut=    50.00 Ry     beta= 0.30
     Davidson diagonalization with overlap
     ethr =  6.95E-08,  avg # of iterations =  1.0

     negative rho (up, down):  3.167E-04 3.167E-04

     total cpu time spent up to now is      429.4 secs

     total energy              =   -1214.63362995 Ry
     estimated scf accuracy    <       0.00004644 Ry

     total magnetization       =     0.00 Bohr mag/cell
     absolute magnetization    =     0.04 Bohr mag/cell

     iteration # 21     ecut=    50.00 Ry     beta= 0.30
     Davidson diagonalization with overlap
     ethr =  1.77E-08,  avg # of iterations =  1.0

     negative rho (up, down):  3.167E-04 3.167E-04

     total cpu time spent up to now is      435.6 secs

     total energy              =   -1214.63363042 Ry
     estimated scf accuracy    <       0.00006746 Ry

     total magnetization       =     0.00 Bohr mag/cell
     absolute magnetization    =     0.05 Bohr mag/cell

     iteration # 22     ecut=    50.00 Ry     beta= 0.30
     Davidson diagonalization with overlap
     ethr =  1.77E-08,  avg # of iterations =  1.0

     negative rho (up, down):  3.168E-04 3.168E-04

     Magnetic moment per site  (integrated on atomic sphere of radius R)
     atom   1 (R=0.029)  charge=  0.6167  magn= -0.0000
     atom   2 (R=0.029)  charge=  0.6921  magn=  0.0000
     atom   3 (R=0.029)  charge=  0.6161  magn= -0.0000
     atom   4 (R=0.029)  charge=  0.6942  magn= -0.0000
     atom   5 (R=0.029)  charge=  0.6198  magn=  0.0000
     atom   6 (R=0.029)  charge=  0.6911  magn= -0.0000
     atom   7 (R=0.029)  charge=  0.6167  magn= -0.0000
     atom   8 (R=0.029)  charge=  0.6920  magn=  0.0000
     atom   9 (R=0.029)  charge=  0.6179  magn= -0.0000
     atom  10 (R=0.029)  charge=  0.6902  magn= -0.0000
     atom  11 (R=0.029)  charge=  0.6175  magn= -0.0000
     atom  12 (R=0.029)  charge=  0.6918  magn=  0.0000
     atom  13 (R=0.029)  charge=  0.6187  magn=  0.0000
     atom  14 (R=0.029)  charge=  0.6901  magn= -0.0000
     atom  15 (R=0.029)  charge=  0.6178  magn= -0.0000
     atom  16 (R=0.029)  charge=  0.6909  magn=  0.0000
     atom  17 (R=0.029)  charge=  0.6204  magn= -0.0000
     atom  18 (R=0.029)  charge=  0.6910  magn=  0.0000
     atom  19 (R=0.029)  charge=  0.6203  magn= -0.0000
     atom  20 (R=0.029)  charge=  0.6909  magn=  0.0000
     atom  21 (R=0.029)  charge=  0.6304  magn=  0.0000
     atom  22 (R=0.029)  charge=  0.6839  magn= -0.0000
     atom  23 (R=0.029)  charge=  0.6176  magn= -0.0000
     atom  24 (R=0.029)  charge=  0.6935  magn= -0.0000
     atom  25 (R=0.029)  charge=  0.6176  magn= -0.0000
     atom  26 (R=0.029)  charge=  0.6902  magn=  0.0000
     atom  27 (R=0.029)  charge=  0.6183  magn=  0.0000
     atom  28 (R=0.029)  charge=  0.6902  magn= -0.0000
     atom  29 (R=0.029)  charge=  0.6181  magn= -0.0000
     atom  30 (R=0.029)  charge=  0.6900  magn=  0.0000
     atom  31 (R=0.029)  charge=  0.6173  magn=  0.0000
     atom  32 (R=0.029)  charge=  0.6915  magn= -0.0000
     atom  33 (R=0.029)  charge=  0.6171  magn=  0.0000
     atom  34 (R=0.029)  charge=  0.6919  magn= -0.0000
     atom  35 (R=0.029)  charge=  0.6171  magn=  0.0000
     atom  36 (R=0.029)  charge=  0.6920  magn= -0.0000
     atom  37 (R=0.029)  charge=  0.6193  magn= -0.0000
     atom  38 (R=0.029)  charge=  0.6906  magn=  0.0000
     atom  39 (R=0.029)  charge=  0.6152  magn= -0.0000
     atom  40 (R=0.029)  charge=  0.6947  magn= -0.0000
     atom  41 (R=0.029)  charge=  0.6212  magn=  0.0000
     atom  42 (R=0.029)  charge=  0.6906  magn=  0.0000
     atom  43 (R=0.029)  charge=  0.6141  magn= -0.0000
     atom  44 (R=0.029)  charge=  0.6940  magn= -0.0000
     atom  45 (R=0.029)  charge=  0.6293  magn=  0.0000
     atom  46 (R=0.029)  charge=  0.6810  magn=  0.0001
     atom  47 (R=0.029)  charge=  0.6212  magn=  0.0000
     atom  48 (R=0.029)  charge=  0.6907  magn=  0.0000
     atom  49 (R=0.029)  charge=  0.6181  magn= -0.0000
     atom  50 (R=0.029)  charge=  0.6899  magn=  0.0000
     atom  51 (R=0.029)  charge=  0.6172  magn=  0.0000
     atom  52 (R=0.029)  charge=  0.6915  magn= -0.0000
     atom  53 (R=0.029)  charge=  0.6183  magn=  0.0000
     atom  54 (R=0.029)  charge=  0.6902  magn= -0.0000
     atom  55 (R=0.029)  charge=  0.6176  magn= -0.0000
     atom  56 (R=0.029)  charge=  0.6903  magn=  0.0000
     atom  57 (R=0.029)  charge=  0.6179  magn= -0.0000
     atom  58 (R=0.029)  charge=  0.6900  magn= -0.0000
     atom  59 (R=0.029)  charge=  0.6187  magn=  0.0000
     atom  60 (R=0.029)  charge=  0.6900  magn= -0.0000
     atom  61 (R=0.029)  charge=  0.6175  magn= -0.0000
     atom  62 (R=0.029)  charge=  0.6917  magn=  0.0000
     atom  63 (R=0.029)  charge=  0.6177  magn= -0.0000
     atom  64 (R=0.029)  charge=  0.6908  magn=  0.0000
     atom  65 (R=0.037)  charge=  3.1942  magn= -0.0002

     total cpu time spent up to now is      441.5 secs

     End of self-consistent calculation

 ------ SPIN UP ------------


          k = 0.0000 0.0000 0.0000 ( 57657 PWs)   bands (ev):

   -27.4248 -20.2861 -20.2188 -20.1387 -20.1013 -20.0711 -20.0491 -20.0309
   -19.9587 -18.2247 -18.2031 -18.1822 -18.1767 -18.1536 -18.1336 -18.1105
   -18.0754 -17.9209 -17.8377 -17.7698 -17.7606 -17.7545 -17.7144 -17.2726
   -16.6379 -16.0658 -15.9960 -15.9688 -15.9679 -15.9297 -15.9276 -15.9215
   -15.9084 -15.8989 -15.3187 -15.1589 -15.1308 -15.1150 -15.1079 -14.9987
   -14.0803 -14.0457 -13.7363 -13.7186 -13.7100 -13.7061 -13.6798 -13.6558
   -13.6493 -13.6156 -12.9346 -12.7977 -12.7305 -12.7172 -12.7072 -12.6717
   -12.2566 -10.0582  -9.9780  -9.0922  -9.0543  -9.0222  -8.9192  -8.9034
    -8.8325  -8.8187  -8.7931  -8.7893  -8.7849  -8.7797  -8.7690  -8.7608
    -8.7591  -8.7571  -8.7491  -8.7425  -8.7412  -8.7332  -8.4766  -8.4618
    -8.4113  -8.4093  -8.1092  -7.9269  -7.4621  -7.4554  -7.1911  -7.1802
    -7.1732  -7.1538  -7.0097  -6.9921  -6.8415  -6.8020  -6.7966  -6.7091
    -6.6827  -6.6301  -6.5134  -6.3747  -6.3641  -6.2381  -6.1960  -6.1599
    -6.1491  -5.7797  -5.7492  -5.5862  -5.5465  -5.5006  -5.4997  -5.4721
    -5.4436  -5.2833  -5.2640  -5.1806  -4.4405  -4.3693  -4.2809  -4.2558
    -4.2327  -4.1387  -3.8249  -3.7673  -3.6367  -3.5715  -3.5247  -3.4436
    -2.8207  -2.2747  -1.9839  -1.9817  -1.8553  -1.7917  -1.5647  -1.4287
    -1.3861  -1.3817  -1.3560  -1.1891  -0.8409  -0.7279  -0.7093  -0.6880
    -0.6765  -0.4150  -0.2296  -0.1156   0.0457   0.2893   0.5774   0.6341
     0.6579   0.7247   0.7626   1.0065   1.0820

 ------ SPIN DOWN ----------


          k = 0.0000 0.0000 0.0000 ( 57657 PWs)   bands (ev):

   -27.4248 -20.2861 -20.2188 -20.1387 -20.1013 -20.0711 -20.0491 -20.0309
   -19.9587 -18.2247 -18.2031 -18.1822 -18.1767 -18.1536 -18.1336 -18.1105
   -18.0754 -17.9209 -17.8376 -17.7698 -17.7606 -17.7545 -17.7144 -17.2726
   -16.6378 -16.0658 -15.9960 -15.9688 -15.9679 -15.9297 -15.9276 -15.9215
   -15.9084 -15.8989 -15.3187 -15.1589 -15.1308 -15.1150 -15.1079 -14.9987
   -14.0803 -14.0457 -13.7363 -13.7186 -13.7100 -13.7061 -13.6798 -13.6558
   -13.6493 -13.6156 -12.9346 -12.7977 -12.7305 -12.7172 -12.7072 -12.6717
   -12.2566 -10.0583  -9.9780  -9.0922  -9.0543  -9.0222  -8.9192  -8.9034
    -8.8325  -8.8187  -8.7931  -8.7893  -8.7849  -8.7797  -8.7690  -8.7608
    -8.7592  -8.7571  -8.7491  -8.7425  -8.7412  -8.7332  -8.4766  -8.4618
    -8.4113  -8.4093  -8.1092  -7.9269  -7.4621  -7.4554  -7.1911  -7.1802
[...]
     atom   2 (R=0.029)  charge=  0.6659  magn=  0.0000
     atom   3 (R=0.029)  charge=  0.6488  magn=  0.0000
     atom   4 (R=0.029)  charge=  0.6690  magn= -0.0000
     atom   5 (R=0.029)  charge=  0.6513  magn=  0.0000
     atom   6 (R=0.029)  charge=  0.6729  magn= -0.0000
     atom   7 (R=0.029)  charge=  0.6341  magn=  0.0000
     atom   8 (R=0.029)  charge=  0.6649  magn= -0.0000
     atom   9 (R=0.029)  charge=  0.6354  magn= -0.0000
     atom  10 (R=0.029)  charge=  0.6633  magn=  0.0000
     atom  11 (R=0.029)  charge=  0.6405  magn= -0.0000
     atom  12 (R=0.029)  charge=  0.6668  magn= -0.0000
     atom  13 (R=0.029)  charge=  0.6457  magn= -0.0000
     atom  14 (R=0.029)  charge=  0.6704  magn= -0.0000
     atom  15 (R=0.029)  charge=  0.6532  magn=  0.0000
     atom  16 (R=0.029)  charge=  0.6726  magn= -0.0000
     atom  17 (R=0.029)  charge=  0.6594  magn= -0.0000
     atom  18 (R=0.029)  charge=  0.6674  magn= -0.0000
     atom  19 (R=0.029)  charge=  0.6756  magn= -0.0000
     atom  20 (R=0.029)  charge=  0.6813  magn=  0.0000
     atom  21 (R=0.029)  charge=  0.6755  magn=  0.0000
     atom  22 (R=0.029)  charge=  0.7066  magn= -0.0000
     atom  23 (R=0.029)  charge=  0.6449  magn=  0.0000
     atom  24 (R=0.029)  charge=  0.6694  magn= -0.0000
     atom  25 (R=0.029)  charge=  0.6514  magn=  0.0000
     atom  26 (R=0.029)  charge=  0.6656  magn= -0.0000
     atom  27 (R=0.029)  charge=  0.6748  magn=  0.0000
     atom  28 (R=0.029)  charge=  0.6816  magn= -0.0000
     atom  29 (R=0.029)  charge=  0.6570  magn= -0.0000
     atom  30 (R=0.029)  charge=  0.6705  magn=  0.0000
     atom  31 (R=0.029)  charge=  0.6222  magn= -0.0000
     atom  32 (R=0.029)  charge=  0.6611  magn=  0.0000
     atom  33 (R=0.029)  charge=  0.6411  magn=  0.0000
     atom  34 (R=0.029)  charge=  0.6690  magn= -0.0000
     atom  35 (R=0.029)  charge=  0.6353  magn= -0.0000
     atom  36 (R=0.029)  charge=  0.6649  magn=  0.0000
     atom  37 (R=0.029)  charge=  0.6524  magn= -0.0000
     atom  38 (R=0.029)  charge=  0.6725  magn=  0.0000
     atom  39 (R=0.029)  charge=  0.6512  magn= -0.0000
     atom  40 (R=0.029)  charge=  0.6773  magn=  0.0000
     atom  41 (R=0.029)  charge=  0.6446  magn=  0.0000
     atom  42 (R=0.029)  charge=  0.6733  magn= -0.0000
     atom  43 (R=0.029)  charge=  0.6386  magn= -0.0000
     atom  44 (R=0.029)  charge=  0.6707  magn=  0.0000
     atom  45 (R=0.029)  charge=  0.6316  magn= -0.0000
     atom  46 (R=0.029)  charge=  0.6877  magn=  0.0000
     atom  47 (R=0.029)  charge=  0.6452  magn= -0.0000
     atom  48 (R=0.029)  charge=  0.6744  magn=  0.0000
     atom  49 (R=0.029)  charge=  0.6493  magn= -0.0000
     atom  50 (R=0.029)  charge=  0.6706  magn=  0.0000
     atom  51 (R=0.029)  charge=  0.6421  magn=  0.0000
     atom  52 (R=0.029)  charge=  0.6679  magn= -0.0000
     atom  53 (R=0.029)  charge=  0.6507  magn= -0.0000
     atom  54 (R=0.029)  charge=  0.6761  magn=  0.0000
     atom  55 (R=0.029)  charge=  0.6367  magn= -0.0000
     atom  56 (R=0.029)  charge=  0.6621  magn= -0.0000
     atom  57 (R=0.029)  charge=  0.6405  magn= -0.0000
     atom  58 (R=0.029)  charge=  0.6655  magn=  0.0000
     atom  59 (R=0.029)  charge=  0.6467  magn= -0.0000
     atom  60 (R=0.029)  charge=  0.6728  magn= -0.0000
     atom  61 (R=0.029)  charge=  0.6458  magn=  0.0000
     atom  62 (R=0.029)  charge=  0.6708  magn=  0.0000
     atom  63 (R=0.029)  charge=  0.6526  magn=  0.0000
     atom  64 (R=0.029)  charge=  0.6716  magn=  0.0000
     atom  65 (R=0.034)  charge=  2.7650  magn= -0.0000

     total cpu time spent up to now is     8844.8 secs

     End of self-consistent calculation

 ------ SPIN UP ------------


          k = 0.0000 0.0000 0.0000 ( 57657 PWs)   bands (ev):

   -26.1370 -23.7234 -23.6635 -23.3536 -22.1276 -21.8252 -20.5900 -20.5752
   -19.5230 -18.3906 -18.2238 -18.0263 -18.0225 -17.9930 -17.9465 -17.9083
   -17.8538 -17.8379 -17.7603 -17.7163 -17.6436 -17.5808 -17.4642 -17.1842
   -17.1536 -16.6754 -16.2375 -16.1956 -16.0204 -15.9004 -15.8104 -15.7311
   -15.6495 -15.3633 -15.3202 -15.2770 -15.1369 -15.0757 -14.8369 -14.5413
   -14.3708 -14.0389 -13.9134 -13.8602 -13.8553 -13.7060 -13.6462 -13.4680
   -13.1547 -13.0725 -12.8959 -12.8190 -12.6567 -12.6305 -12.1913 -11.5598
   -11.2374 -11.0719 -10.9149 -10.7351 -10.5637 -10.5528 -10.4467 -10.4105
   -10.2008 -10.1770 -10.1586  -9.9611  -9.8640  -9.7323  -9.7058  -9.5371
    -9.3538  -9.2527  -9.0950  -8.9816  -8.9183  -8.6731  -8.4400  -8.2405
    -8.1672  -8.1004  -8.0322  -7.9740  -7.7177  -7.4916  -7.4053  -7.3788
    -7.3533  -7.2997  -7.0796  -6.9808  -6.8703  -6.7835  -6.5903  -6.4844
    -6.4455  -6.3851  -6.2994  -6.2200  -6.1356  -6.0948  -6.0186  -5.9730
    -5.8671  -5.8376  -5.7295  -5.6363  -5.5686  -5.4714  -5.3694  -5.3378
    -5.1889  -5.1348  -5.0736  -5.0203  -4.8126  -4.7767  -4.6945  -4.6045
    -4.5234  -4.2487  -4.1319  -4.0076  -3.8565  -3.6534  -3.5699  -3.5177
    -3.3126  -3.1947  -2.7769  -2.5304  -1.9312  -1.5783  -1.3696  -1.0605
    -1.0141  -0.8520  -0.8214  -0.8096  -0.6068  -0.5073  -0.2547  -0.1929
    -0.1210  -0.0777  -0.0045   0.0505   0.1384   0.2403   0.3031   0.5232
     0.6335   0.8000   0.8539   1.0844   1.1189

 ------ SPIN DOWN ----------


          k = 0.0000 0.0000 0.0000 ( 57657 PWs)   bands (ev):

   -26.1370 -23.7234 -23.6635 -23.3536 -22.1276 -21.8252 -20.5900 -20.5752
   -19.5230 -18.3906 -18.2238 -18.0263 -18.0225 -17.9930 -17.9465 -17.9083
   -17.8538 -17.8379 -17.7603 -17.7163 -17.6436 -17.5808 -17.4642 -17.1842
   -17.1536 -16.6754 -16.2375 -16.1956 -16.0203 -15.9004 -15.8104 -15.7311
   -15.6495 -15.3633 -15.3202 -15.2770 -15.1369 -15.0757 -14.8369 -14.5413
   -14.3708 -14.0389 -13.9134 -13.8602 -13.8553 -13.7060 -13.6462 -13.4680
   -13.1547 -13.0725 -12.8959 -12.8190 -12.6567 -12.6305 -12.1913 -11.5598
   -11.2374 -11.0719 -10.9149 -10.7351 -10.5637 -10.5528 -10.4467 -10.4105
   -10.2008 -10.1770 -10.1586  -9.9611  -9.8640  -9.7324  -9.7058  -9.5371
    -9.3539  -9.2527  -9.0950  -8.9816  -8.9182  -8.6731  -8.4400  -8.2405
    -8.1671  -8.1004  -8.0322  -7.9740  -7.7177  -7.4916  -7.4053  -7.3788
    -7.3533  -7.2997  -7.0796  -6.9808  -6.8703  -6.7835  -6.5904  -6.4844
    -6.4455  -6.3851  -6.2994  -6.2200  -6.1356  -6.0948  -6.0186  -5.9730
    -5.8671  -5.8376  -5.7295  -5.6363  -5.5686  -5.4714  -5.3694  -5.3378
    -5.1889  -5.1348  -5.0735  -5.0203  -4.8126  -4.7766  -4.6945  -4.6045
    -4.5234  -4.2487  -4.1319  -4.0076  -3.8565  -3.6534  -3.5699  -3.5177
    -3.3125  -3.1947  -2.7769  -2.5304  -1.9311  -1.5783  -1.3696  -1.0605
    -1.0141  -0.8520  -0.8214  -0.8096  -0.6068  -0.5073  -0.2547  -0.1929
    -0.1210  -0.0776  -0.0045   0.0505   0.1384   0.2403   0.3031   0.5233
     0.6335   0.8000   0.8539   1.0844   1.1189

     the spin up/dw Fermi energies are    -2.7042   -2.7042 ev

!    total energy              =   -1216.23517403 Ry
     total all-electron energy =     -5021.984327 Ry
     estimated scf accuracy    <          5.2E-09 Ry
     smearing contrib. (-TS)   =      -0.00000000 Ry
     internal energy E=F+TS    =   -1216.23517403 Ry

     The total energy is F=E-TS. E is the sum of the following terms:
     one-electron contribution =   -1832.57431791 Ry
     hartree contribution      =     962.22375530 Ry
     xc contribution           =    -295.95563621 Ry
     ewald contribution        =     354.14408051 Ry
     one-center paw contrib.   =    -404.07305572 Ry

     total magnetization       =     0.00 Bohr mag/cell
     absolute magnetization    =     0.00 Bohr mag/cell

     convergence has been achieved in  16 iterations

     negative rho (up, down):  2.462E-04 2.462E-04

     Forces acting on atoms (cartesian axes, Ry/au):

     atom    1 type  1   force =    -0.00002095    0.00046283   -0.00011329
     atom    2 type  1   force =    -0.00023902   -0.00033702   -0.00047083
     atom    3 type  1   force =    -0.00053589    0.00021544   -0.00005713
     atom    4 type  1   force =     0.00028982    0.00079361    0.00022537
     atom    5 type  1   force =    -0.00028499    0.00018873    0.00021573
     atom    6 type  1   force =     0.00069087    0.00032262    0.00031389
     atom    7 type  1   force =    -0.00023453   -0.00026493   -0.00032434
     atom    8 type  1   force =    -0.00040625    0.00014275   -0.00025454
     atom    9 type  1   force =    -0.00015938   -0.00009305    0.00020143
     atom   10 type  1   force =     0.00019193    0.00009108    0.00016513
     atom   11 type  1   force =    -0.00006052    0.00047699    0.00021138
     atom   12 type  1   force =     0.00065803   -0.00009412   -0.00000964
     atom   13 type  1   force =     0.00003878    0.00008387   -0.00016912
     atom   14 type  1   force =    -0.00041134    0.00006833   -0.00056180
     atom   15 type  1   force =     0.00048200   -0.00017748    0.00021115
     atom   16 type  1   force =     0.00055096   -0.00038052    0.00073794
     atom   17 type  1   force =    -0.00019995   -0.00032796   -0.00024494
     atom   18 type  1   force =     0.00004048    0.00002327    0.00050233
     atom   19 type  1   force =    -0.00021773   -0.00064544    0.00067877
     atom   20 type  1   force =    -0.00026134   -0.00003226    0.00044122
     atom   21 type  1   force =     0.00046048   -0.00070558   -0.00064016
     atom   22 type  1   force =     0.00043161    0.00001064   -0.00038124
     atom   23 type  1   force =     0.00020710    0.00066792   -0.00019035
     atom   24 type  1   force =    -0.00056646    0.00057289    0.00012694
     atom   25 type  1   force =     0.00011929    0.00051711    0.00009145
     atom   26 type  1   force =     0.00038141    0.00018752    0.00001437
     atom   27 type  1   force =     0.00038161   -0.00051365    0.00052225
     atom   28 type  1   force =    -0.00007202   -0.00013653   -0.00008543
     atom   29 type  1   force =    -0.00011036    0.00056751   -0.00003614
     atom   30 type  1   force =    -0.00001226   -0.00065808    0.00026441
     atom   31 type  1   force =     0.00096533    0.00093801   -0.00002465
     atom   32 type  1   force =    -0.00011055   -0.00055354    0.00031171
     atom   33 type  1   force =     0.00027381   -0.00027685    0.00008128
     atom   34 type  1   force =    -0.00012131   -0.00030472    0.00022430
     atom   35 type  1   force =    -0.00004245   -0.00023107    0.00023760
     atom   36 type  1   force =     0.00016959   -0.00003691   -0.00013663
     atom   37 type  1   force =    -0.00043727    0.00086410   -0.00073648
     atom   38 type  1   force =    -0.00004436    0.00023824   -0.00041650
     atom   39 type  1   force =    -0.00026236   -0.00047985   -0.00009644
     atom   40 type  1   force =     0.00012930    0.00007731   -0.00007795
     atom   41 type  1   force =     0.00007908   -0.00064260    0.00030388
     atom   42 type  1   force =    -0.00045997   -0.00003132    0.00028177
     atom   43 type  1   force =     0.00001044   -0.00010807   -0.00053537
     atom   44 type  1   force =    -0.00015375    0.00014680    0.00034274
     atom   45 type  1   force =    -0.00028425    0.00085825   -0.00040901
     atom   46 type  1   force =    -0.00024552   -0.00064854   -0.00040887
     atom   47 type  1   force =    -0.00010187   -0.00022236   -0.00039735
     atom   48 type  1   force =     0.00010960    0.00013756   -0.00059706
     atom   49 type  1   force =    -0.00006321   -0.00025733    0.00015303
     atom   50 type  1   force =     0.00018249   -0.00009837    0.00065281
     atom   51 type  1   force =    -0.00009038   -0.00022473    0.00001056
     atom   52 type  1   force =    -0.00036323   -0.00039459   -0.00051079
     atom   53 type  1   force =    -0.00036454    0.00000890    0.00013517
     atom   54 type  1   force =    -0.00002091   -0.00026763    0.00024320
     atom   55 type  1   force =    -0.00010619    0.00027123    0.00069398
     atom   56 type  1   force =    -0.00014721    0.00012366    0.00071700
     atom   57 type  1   force =     0.00081658    0.00043324   -0.00019953
     atom   58 type  1   force =    -0.00013490    0.00011970    0.00015136
     atom   59 type  1   force =     0.00004488    0.00021160   -0.00005653
     atom   60 type  1   force =    -0.00039848    0.00042201   -0.00028005
     atom   61 type  1   force =    -0.00019867    0.00028913   -0.00037467
     atom   62 type  1   force =     0.00015833    0.00004013   -0.00003842
     atom   63 type  1   force =     0.00019633   -0.00039531   -0.00031889
     atom   64 type  1   force =    -0.00044747   -0.00020204    0.00002943
     atom   65 type  2   force =     0.00033172   -0.00083050   -0.00033944

     Total force =     0.005103     Total SCF correction =     0.000084
     Energy error            =      4.1E-05 Ry
     Gradient error          =      9.7E-04 Ry/Bohr

     bfgs converged in 109 scf cycles and 106 bfgs steps
     (criteria: energy <  1.0E-04 Ry, force <  1.0E-03 Ry/Bohr)

     End of BFGS Geometry Optimization

     Final energy             =   -1216.2351740323 Ry

     File ./pwscf.bfgs deleted, as requested
Begin final coordinates

ATOMIC_POSITIONS (angstrom)
C             0.9131411466        8.8598727491        9.0920962839
C             0.1592574403        9.8619556844        9.8701324655
C             2.2077642620        8.0214696462        9.2407353036
C             2.7348115565        6.8986253362        9.8062078801
C             0.7253264649        8.1396084207        7.7521446800
C             0.0368832914        7.1777838205        7.0961098103
C             2.0788805520        8.8515326374        7.9380859620
C             2.8764919688        9.8501972129        7.1787989102
C             9.1573184516        0.8099106501        8.9320592263
C            10.0411137434       -0.0116886794        9.7736651838
C             9.1427280522        1.9188656274        7.7748495184
C             9.9609104224        2.8438470858        7.0026112801
C             8.0788449713        0.7919114885        7.7925935890
C             7.0269988560        0.0794471907        7.1176232630
C             8.0629895078        1.9020001413        8.8847492067
C             7.0262273402        2.6543272150        9.4961320741
C             9.9022206787        9.1829865987        1.0126649255
C            10.7344232588       10.0744786331        0.2114981026
C             8.5928030323        9.1981813585        3.1922940074
C             7.5891426467        9.7070985695        3.7314893741
C             8.8232199075        8.7903372700        0.3184070101
C             7.7776015514        8.4288665734       -0.3069590179
C             9.7224689392        8.6205319142        2.5125032271
C            10.3446081475        7.5051303619        3.0562913361
C             4.0107905046       12.9841885204        4.9569002801
C             3.2191341957       13.6723789757        3.9643779966
C             5.4891614130       10.7763682690        4.8781324553
C             6.4868558444       10.2693644480        4.3342031803
C             4.9817660244       13.0213107006        5.9013455062
C             6.0558964130       13.7079207189        6.5573995026
C             4.4569195855       11.5294227412        5.6129090532
C             3.5566672351       10.6638967945        6.5143828361
C            12.6710406932        4.6160278091        4.4554540316
C            13.3727319465        3.6293453421        3.6422597675
C            11.4884432847        4.6420816240        5.6350205960
C            10.6692410217        3.6535132477        6.3567485246
C            12.8720587480        5.2985190416        5.8174732740
C            13.5496554553        6.2763159606        6.4618215229
C            11.4012098469        5.4424737776        4.3220367446
C            10.8443914241        6.4948509465        3.6734338231
C             3.6712990487        3.8902730673       12.2563107110
C             2.8069009665        3.2862085181       13.2180174859
C             3.7637179048        4.6947805574       10.9139159174
C             3.2439224536        5.8440221446       10.3607642831
C             5.0938519073        3.6056273059       12.2780353171
C             6.6278559470        8.2591767366       13.3259987993
C             5.0986903703        3.8884113298       10.8568761855
C             6.0751741134        3.2944278956       10.0022657306
C            12.8293290441       12.7272981268       12.4010999567
C            13.5261295183       13.5229824511       13.3763915530
C            12.8617202205       11.5857662075       11.3378250495
C            13.6748684605       10.6808119876       10.5379414624
C            11.8079102243       11.5808589569       12.4636145432
C            11.2078916728       10.7798251646       13.4839162066
C            11.6895895991       12.6667559069       11.3361234791
C            10.8014013814       13.4786589657       10.4934615245
C             1.7281563137        0.8432290695        2.1542841103
C             2.5257991412        0.1001822251        3.1139466530
C             0.5944743535        0.7762095613        1.0710695535
C            -0.0988464476       -0.0149661727        0.0899255921
C             0.5692712554        1.9211824914        2.0903981947
C            -0.1873297958        2.8324621676        2.9144104070
C             1.6843580489        1.8929295900        1.0139541230
C             2.3010473416        2.6434381356       -0.0194848181
O             5.5956771306        8.0691911864       12.7992552828
End final coordinates



     Writing all to output data dir ./pwscf.save/

     init_run     :      5.57s CPU      5.81s WALL (       1 calls)
     electrons    :   7746.23s CPU   8131.58s WALL (     110 calls)
     update_pot   :    152.19s CPU    158.04s WALL (     108 calls)
     forces       :    346.20s CPU    364.34s WALL (     110 calls)

     Called by init_run:
     wfcinit      :      2.63s CPU      2.71s WALL (       1 calls)
     potinit      :      2.46s CPU      2.59s WALL (       2 calls)
     hinit0       :      0.99s CPU      1.00s WALL (       1 calls)

     Called by electrons:
     c_bands      :   5040.16s CPU   5179.15s WALL (    1088 calls)
     sum_band     :   1186.00s CPU   1247.14s WALL (    1088 calls)
     v_of_rho     :    687.28s CPU    727.50s WALL (    1182 calls)
     newd         :    327.70s CPU    399.39s WALL (    1182 calls)
     PAW_pot      :    509.34s CPU    512.28s WALL (    1290 calls)
     mix_rho      :     96.32s CPU    104.26s WALL (    1088 calls)

     Called by c_bands:
     init_us_2    :     64.96s CPU     65.92s WALL (    4790 calls)
     init_us_2:cp :     64.91s CPU     65.91s WALL (    4790 calls)
     regterg      :   4942.32s CPU   5079.80s WALL (    2178 calls)

     Called by *egterg:
     rdiaghg      :    124.89s CPU    127.30s WALL (    9461 calls)
     h_psi        :   3137.80s CPU   3240.56s WALL (    9715 calls)
     s_psi        :    441.75s CPU    444.52s WALL (    9715 calls)
     g_psi        :      9.58s CPU      9.75s WALL (    7535 calls)

     Called by h_psi:
     h_psi:calbec :    463.32s CPU    468.31s WALL (    9715 calls)
     vloc_psi     :   2198.33s CPU   2292.85s WALL (    9715 calls)
     add_vuspsi   :    450.41s CPU    453.35s WALL (    9715 calls)

     General routines
     calbec       :    726.70s CPU    734.41s WALL (   12987 calls)
     fft          :    388.28s CPU    432.83s WALL (   25840 calls)
     ffts         :     16.56s CPU     18.74s WALL (    4540 calls)
     fftw         :   1939.77s CPU   2023.10s WALL ( 1032016 calls)
     interpolate  :     51.75s CPU     56.59s WALL (    2364 calls)

     Parallel routines

     PWSCF        :      2h20m CPU      2h27m WALL


   This run was terminated on:  17:21: 3  24May2025            

=------------------------------------------------------------------------------=
   JOB DONE.
=------------------------------------------------------------------------------=
