ITEM: TIMESTEP
0
ITEM: NUMBER OF ATOMS
81
ITEM: BOX BOUNDS pp pp pp
0.0000000000000000e+00 1.3416000000000000e+01
0.0000000000000000e+00 1.3416000000000000e+01
0.0000000000000000e+00 1.3414999999999999e+01
ITEM: ATOMS id type x y z 
21 1 1.912 1.912 1.912 
22 1 2.794 2.794 2.795 
23 1 0.386 2.099 2.099 
33 1 2.098 2.099 0.386 
37 1 2.099 0.386 2.099 
41 1 4.371 4.372 4.372 
42 1 3.489 3.489 3.489 
43 1 4.184 5.897 4.185 
53 1 4.185 4.185 5.898 
57 1 5.897 4.185 4.185 
4 1 1.912 1.912 11.079 
5 1 2.794 2.794 10.197 
6 1 2.099 0.386 10.892 
16 1 2.098 2.099 12.605 
19 1 0.386 2.099 10.892 
64 1 4.371 4.372 8.62 
65 1 3.489 3.489 9.502 
66 1 5.897 4.185 8.807 
76 1 4.185 4.185 7.094 
79 1 4.184 5.897 8.807 
10 1 1.911 11.079 1.912 
11 1 2.794 10.197 2.795 
12 1 2.099 12.605 2.099 
15 1 2.099 10.892 0.386 
18 1 0.386 10.892 2.099 
67 1 4.372 8.62 4.371 
68 1 3.489 9.502 3.489 
69 1 5.897 8.807 4.185 
74 1 4.185 8.807 5.897 
80 1 4.185 7.094 4.185 
30 1 1.911 11.079 11.079 
31 1 2.794 10.197 10.197 
32 1 0.386 10.892 10.892 
35 1 2.099 10.892 12.605 
38 1 2.099 12.605 10.892 
47 1 4.372 8.62 8.62 
48 1 3.489 9.502 9.502 
49 1 4.184 7.094 8.807 
54 1 4.184 8.807 7.094 
60 1 5.897 8.807 8.807 
7 1 11.08 1.912 1.912 
8 1 10.197 2.794 2.795 
9 1 10.893 0.386 2.099 
14 1 10.893 2.099 0.386 
20 1 12.606 2.099 2.099 
70 1 8.62 4.372 4.372 
71 1 9.502 3.489 3.489 
72 1 7.094 4.185 4.185 
75 1 8.807 4.185 5.897 
78 1 8.807 5.898 4.185 
27 1 11.08 1.912 11.079 
28 1 10.197 2.794 10.197 
29 1 12.606 2.099 10.892 
34 1 10.893 2.099 12.605 
40 1 10.893 0.386 10.892 
50 1 8.62 4.372 8.62 
51 1 9.502 3.489 9.502 
52 1 8.807 5.897 8.807 
55 1 8.807 4.185 7.094 
58 1 7.094 4.185 8.807 
24 1 11.08 11.08 1.912 
25 1 10.197 10.197 2.795 
26 1 12.606 10.892 2.099 
36 1 10.893 10.892 0.386 
39 1 10.893 12.605 2.099 
44 1 8.62 8.62 4.372 
45 1 9.502 9.502 3.489 
46 1 8.807 7.094 4.185 
56 1 8.807 8.807 5.898 
59 1 7.094 8.807 4.185 
1 1 11.08 11.079 11.079 
2 1 10.197 10.197 10.197 
3 1 10.893 12.605 10.892 
13 1 10.893 10.892 12.605 
17 1 12.606 10.892 10.892 
61 1 8.62 8.62 8.62 
62 1 9.502 9.502 9.502 
63 1 7.094 8.807 8.807 
73 1 8.807 8.807 7.094 
77 1 8.807 7.094 8.807 
81 2 9.797 11.436 11.304 
ITEM: TIMESTEP
10
ITEM: NUMBER OF ATOMS
81
ITEM: BOX BOUNDS pp pp pp
0.0000000000000000e+00 1.3416000000000000e+01
0.0000000000000000e+00 1.3416000000000000e+01
0.0000000000000000e+00 1.3414999999999999e+01
ITEM: ATOMS id type x y z 
21 1 1.91238 1.91375 1.9148 
22 1 2.79457 2.79598 2.79518 
23 1 0.386548 2.09877 2.09897 
33 1 2.09858 2.09911 0.389616 
37 1 2.09919 0.38821 2.09912 
41 1 4.37161 4.37126 4.37109 
42 1 3.48984 3.48912 3.49088 
43 1 4.18488 5.89614 4.18526 
53 1 4.18518 4.18528 5.89666 
57 1 5.89681 4.18549 4.18548 
4 1 1.91855 1.92011 11.0809 
5 1 2.79768 2.79778 10.1958 
6 1 2.09909 0.397217 10.8879 
16 1 2.09993 2.10074 12.6082 
19 1 0.39567 2.10447 10.8895 
64 1 4.37047 4.37086 8.61821 
65 1 3.49149 3.49004 9.49929 
66 1 5.89599 4.18447 8.80749 
76 1 4.18492 4.18497 7.09154 
79 1 4.18351 5.8949 8.80774 
10 1 1.91576 11.0807 1.9205 
11 1 2.79665 10.1964 2.79793 
12 1 2.10013 12.6082 2.10067 
15 1 2.09889 10.888 0.397865 
18 1 0.390411 10.8901 2.10193 
67 1 4.37049 8.61756 4.36997 
68 1 3.4912 9.50036 3.49091 
69 1 5.89547 8.80747 4.1843 
74 1 4.18389 8.80756 5.89437 
80 1 4.18452 7.09173 4.18491 
30 1 1.97058 11.0886 11.087 
31 1 2.81508 10.1911 10.1897 
32 1 0.463206 10.8772 10.8737 
35 1 2.11609 10.8902 12.6195 
38 1 2.11608 12.6194 10.8902 
47 1 4.37254 8.61322 8.61278 
48 1 3.49606 9.49023 9.49143 
49 1 4.18335 7.08893 8.80708 
54 1 4.18382 8.80713 7.08909 
60 1 5.89581 8.80878 8.80867 
7 1 11.0803 1.91524 1.91584 
8 1 10.1978 2.79625 2.79557 
9 1 10.8917 0.389656 2.10021 
14 1 10.8916 2.10198 0.392987 
20 1 12.6059 2.09945 2.09975 
70 1 8.61877 4.36957 4.37066 
71 1 9.50169 3.48921 3.4896 
72 1 7.09199 4.18518 4.18511 
75 1 8.80713 4.18464 5.89519 
78 1 8.80732 5.89521 4.18447 
27 1 11.0923 1.89433 11.0827 
28 1 10.1925 2.79084 10.1898 
29 1 12.6138 2.10087 10.8865 
34 1 10.8921 2.09946 12.6098 
40 1 10.917 0.412248 10.9338 
50 1 8.6137 4.37234 8.6145 
51 1 9.49761 3.49055 9.49745 
52 1 8.808 5.88937 8.80854 
55 1 8.80669 4.1847 7.09037 
58 1 7.09096 4.18469 8.80669 
24 1 11.084 11.0805 1.92859 
25 1 10.1937 10.1919 2.80142 
26 1 12.6114 10.8889 2.10512 
36 1 10.9123 10.9291 0.40656 
39 1 10.8922 12.6104 2.1045 
44 1 8.61487 8.6147 4.36955 
45 1 9.49748 9.49778 3.49252 
46 1 8.80681 7.09067 4.18445 
56 1 8.80804 8.80877 5.89021 
59 1 7.09136 8.80697 4.18433 
1 1 11.1736 10.9985 11.074 
2 1 10.0927 10.2036 10.1951 
3 1 10.6893 12.6489 10.869 
13 1 10.8522 10.8465 12.6496 
17 1 12.6975 10.8506 10.8667 
61 1 8.6237 8.61411 8.61501 
62 1 9.49812 9.47172 9.48029 
63 1 7.09442 8.8101 8.81034 
73 1 8.81112 8.80974 7.0898 
77 1 8.811 7.08966 8.8098 
81 2 9.6833 11.5495 11.2584 
ITEM: TIMESTEP
20
ITEM: NUMBER OF ATOMS
81
ITEM: BOX BOUNDS pp pp pp
0.0000000000000000e+00 1.3416000000000000e+01
0.0000000000000000e+00 1.3416000000000000e+01
0.0000000000000000e+00 1.3414999999999999e+01
ITEM: ATOMS id type x y z 
21 1 1.91236 1.91387 1.91453 
22 1 2.79276 2.79401 2.79753 
23 1 0.386846 2.10025 2.10082 
33 1 2.1001 2.10086 0.390355 
37 1 2.10046 0.388717 2.10101 
41 1 4.37102 4.36933 4.37063 
42 1 3.48995 3.49013 3.48732 
43 1 4.18326 5.89544 4.18358 
53 1 4.1836 4.18359 5.89497 
57 1 5.89698 4.18394 4.18391 
4 1 1.91866 1.92233 11.0812 
5 1 2.80041 2.79909 10.1994 
6 1 2.10802 0.396527 10.8882 
16 1 2.10229 2.10347 12.61 
19 1 0.395167 2.1104 10.8867 
64 1 4.37319 4.36739 8.61669 
65 1 3.49025 3.49322 9.49915 
66 1 5.8973 4.1828 8.80778 
76 1 4.18342 4.18314 7.0911 
79 1 4.18119 5.89179 8.80908 
10 1 1.9153 11.0817 1.92219 
11 1 2.79579 10.1977 2.79982 
12 1 2.10137 12.6092 2.10323 
15 1 2.10674 10.8881 0.396077 
18 1 0.389464 10.8882 2.10607 
67 1 4.37141 8.6175 4.36742 
68 1 3.48964 9.50061 3.49157 
69 1 5.8957 8.80823 4.18219 
74 1 4.18158 8.80897 5.89157 
80 1 4.18313 7.09087 4.18292 
30 1 1.97223 11.0895 11.0879 
31 1 2.82373 10.1945 10.1948 
32 1 0.469306 10.8757 10.8707 
35 1 2.12331 10.8902 12.6164 
38 1 2.12369 12.6179 10.8892 
47 1 4.37739 8.61188 8.61113 
48 1 3.50174 9.49309 9.49379 
49 1 4.18253 7.08797 8.8071 
54 1 4.18287 8.80709 7.08722 
60 1 5.90656 8.80791 8.80781 
7 1 11.0808 1.91712 1.91683 
8 1 10.1969 2.7939 2.79601 
9 1 10.8908 0.391231 2.10294 
14 1 10.8901 2.10596 0.387954 
20 1 12.6067 2.1007 2.10112 
70 1 8.61921 4.3699 4.36939 
71 1 9.50214 3.48973 3.4923 
72 1 7.09345 4.18369 4.18376 
75 1 8.80779 4.1832 5.89578 
78 1 8.80815 5.8933 4.18298 
27 1 11.0899 1.87921 11.0726 
28 1 10.1926 2.78571 10.189 
29 1 12.6204 2.09876 10.8849 
34 1 10.8945 2.09749 12.612 
40 1 10.8842 0.427385 10.9505 
50 1 8.61912 4.36646 8.61836 
51 1 9.50345 3.48222 9.5017 
52 1 8.80815 5.8925 8.80886 
55 1 8.80579 4.184 7.09357 
58 1 7.0948 4.18357 8.80665 
24 1 11.0846 11.0881 1.95117 
25 1 10.1959 10.1949 2.80312 
26 1 12.6105 10.8889 2.11189 
36 1 10.9096 10.9085 0.421871 
39 1 10.8919 12.6114 2.11158 
44 1 8.61696 8.61505 4.36615 
45 1 9.49812 9.49914 3.49295 
46 1 8.80694 7.08947 4.18256 
56 1 8.80873 8.80929 5.8961 
59 1 7.09075 8.80735 4.18219 
1 1 11.1717 10.9731 11.1203 
2 1 10.0616 10.2214 10.2079 
3 1 10.6507 12.6504 10.8725 
13 1 10.974 10.812 12.6626 
17 1 12.6599 10.8484 10.8738 
61 1 8.64129 8.62373 8.62591 
62 1 9.48098 9.46673 9.48411 
63 1 7.09652 8.80914 8.80947 
73 1 8.81315 8.80944 7.08582 
77 1 8.81274 7.08294 8.80903 
81 2 9.60878 11.6175 11.0996 
ITEM: TIMESTEP
30
ITEM: NUMBER OF ATOMS
81
ITEM: BOX BOUNDS pp pp pp
0.0000000000000000e+00 1.3416000000000000e+01
0.0000000000000000e+00 1.3416000000000000e+01
0.0000000000000000e+00 1.3414999999999999e+01
ITEM: ATOMS id type x y z 
21 1 1.9117 1.91292 1.91584 
22 1 2.79303 2.79521 2.79533 
23 1 0.386471 2.10125 2.10225 
33 1 2.10148 2.10261 0.390184 
37 1 2.10136 0.387965 2.1028 
41 1 4.37197 4.36987 4.36872 
42 1 3.48909 3.48897 3.48942 
43 1 4.18226 5.89491 4.1823 
53 1 4.18218 4.18212 5.89506 
57 1 5.89802 4.18264 4.18276 
4 1 1.92272 1.92019 11.0826 
5 1 2.79868 2.80249 10.2003 
6 1 2.11469 0.391985 10.8894 
16 1 2.10382 2.10523 12.6089 
19 1 0.396927 2.11327 10.885 
64 1 4.37388 4.36838 8.61587 
65 1 3.4936 3.49314 9.50088 
66 1 5.8995 4.18184 8.80701 
76 1 4.18296 4.18153 7.09079 
79 1 4.18067 5.89205 8.80877 
10 1 1.91531 11.0817 1.91893 
11 1 2.79413 10.1986 2.79931 
12 1 2.102 12.6079 2.10487 
15 1 2.11228 10.8898 0.39139 
18 1 0.392044 10.8874 2.10864 
67 1 4.37083 8.61722 4.36756 
68 1 3.48898 9.50128 3.49153 
69 1 5.89606 8.80837 4.18042 
74 1 4.18036 8.80903 5.89178 
80 1 4.18235 7.09091 4.18138 
30 1 1.95534 11.087 11.0835 
31 1 2.82631 10.1971 10.1976 
32 1 0.446096 10.8803 10.8733 
35 1 2.12678 10.8918 12.613 
38 1 2.12769 12.6141 10.8904 
47 1 4.38111 8.61163 8.61131 
48 1 3.50827 9.49837 9.4992 
49 1 4.18343 7.08871 8.80612 
54 1 4.18376 8.80626 7.08872 
60 1 5.91009 8.80503 8.80471 
7 1 11.0797 1.91875 1.914 
8 1 10.1982 2.79429 2.79897 
9 1 10.8906 0.397265 2.10532 
14 1 10.8906 2.10838 0.386321 
20 1 12.6064 2.10212 2.10224 
70 1 8.61963 4.36894 4.37236 
71 1 9.50098 3.48816 3.49199 
72 1 7.09378 4.18271 4.18283 
75 1 8.8071 4.18305 5.89673 
78 1 8.80859 5.89362 4.18177 
27 1 11.0919 1.86868 11.0761 
28 1 10.1936 2.78023 10.1875 
29 1 12.6232 2.09508 10.8825 
34 1 10.8962 2.0953 12.6117 
40 1 10.8536 0.427945 10.96 
50 1 8.62055 4.36603 8.61973 
51 1 9.50458 3.47825 9.50197 
52 1 8.80861 5.89141 8.80843 
55 1 8.80612 4.18258 7.09414 
58 1 7.09692 4.18196 8.80719 
24 1 11.0803 11.0911 1.94837 
25 1 10.1945 10.1978 2.80984 
26 1 12.6122 10.8897 2.12055 
36 1 10.9356 10.8744 0.444097 
39 1 10.8902 12.6169 2.11936 
44 1 8.61642 8.61439 4.36868 
45 1 9.49653 9.49642 3.49591 
46 1 8.80723 7.08929 4.18102 
56 1 8.80838 8.80815 5.89614 
59 1 7.0919 8.80742 4.18053 
1 1 11.1672 10.9603 11.1525 
2 1 10.03 10.263 10.234 
3 1 10.6399 12.6544 10.8825 
13 1 11.0515 10.8052 12.66 
17 1 12.6528 10.8505 10.8867 
61 1 8.6474 8.62293 8.62815 
62 1 9.47313 9.4717 9.50172 
63 1 7.10243 8.80809 8.80886 
73 1 8.81655 8.81024 7.08764 
77 1 8.81528 7.08402 8.80931 
81 2 9.56654 11.6282 10.9456 
ITEM: TIMESTEP
40
ITEM: NUMBER OF ATOMS
81
ITEM: BOX BOUNDS pp pp pp
0.0000000000000000e+00 1.3416000000000000e+01
0.0000000000000000e+00 1.3416000000000000e+01
0.0000000000000000e+00 1.3414999999999999e+01
ITEM: ATOMS id type x y z 
21 1 1.91203 1.91293 1.91497 
22 1 2.79385 2.79489 2.79505 
23 1 0.387185 2.10115 2.10256 
33 1 2.10117 2.10277 0.390536 
37 1 2.10101 0.387453 2.10337 
41 1 4.37149 4.37004 4.36985 
42 1 3.48896 3.48909 3.4894 
43 1 4.1826 5.89561 4.18187 
53 1 4.18255 4.18192 5.89497 
57 1 5.89748 4.18264 4.18234 
4 1 1.92324 1.91962 11.0824 
5 1 2.80047 2.79968 10.1988 
6 1 2.1163 0.393816 10.8911 
16 1 2.1045 2.10506 12.6093 
19 1 0.40058 2.11034 10.8844 
64 1 4.37442 4.36967 8.61665 
65 1 3.49365 3.4938 9.50177 
66 1 5.89963 4.18217 8.80627 
76 1 4.18318 4.18151 7.09052 
79 1 4.18171 5.89384 8.80761 
10 1 1.91636 11.0811 1.91669 
11 1 2.79499 10.1978 2.79729 
12 1 2.1021 12.6074 2.1044 
15 1 2.1132 10.8914 0.391784 
18 1 0.391532 10.8885 2.11053 
67 1 4.36983 8.61751 4.36897 
68 1 3.48872 9.50143 3.49124 
69 1 5.89436 8.808 4.18018 
74 1 4.18099 8.80797 5.89342 
80 1 4.18231 7.09133 4.18153 
30 1 1.95101 11.0852 11.0817 
31 1 2.8248 10.1974 10.1965 
32 1 0.440999 10.882 10.8753 
35 1 2.12555 10.8925 12.6112 
38 1 2.12693 12.614 10.8907 
47 1 4.38228 8.61284 8.61297 
48 1 3.51247 9.49818 9.49924 
49 1 4.18467 7.08974 8.80557 
54 1 4.18492 8.80578 7.08948 
60 1 5.90942 8.80347 8.80298 
7 1 11.0808 1.92126 1.91502 
8 1 10.1968 2.796 2.79753 
9 1 10.8902 0.397572 2.10786 
14 1 10.8912 2.1087 0.388106 
20 1 12.6072 2.1032 2.10242 
70 1 8.61908 4.36854 4.37278 
71 1 9.5012 3.48879 3.49304 
72 1 7.09314 4.18219 4.18306 
75 1 8.80683 4.18267 5.89876 
78 1 8.80862 5.89295 4.18163 
27 1 11.0914 1.87063 11.0761 
28 1 10.1959 2.77782 10.1883 
29 1 12.622 2.09278 10.8825 
34 1 10.897 2.09562 12.609 
40 1 10.85 0.417713 10.9689 
50 1 8.61949 4.36599 8.61936 
51 1 9.50401 3.47724 9.49994 
52 1 8.8095 5.88927 8.80831 
55 1 8.80653 4.18228 7.09504 
58 1 7.09582 4.1813 8.80734 
24 1 11.0827 11.0901 1.94988 
25 1 10.1931 10.1976 2.81262 
26 1 12.6131 10.891 2.12321 
36 1 10.9622 10.8569 0.437132 
39 1 10.8888 12.6189 2.11958 
44 1 8.61408 8.61296 4.37047 
45 1 9.49775 9.49708 3.49762 
46 1 8.8074 7.08857 4.18073 
56 1 8.8086 8.80767 5.89628 
59 1 7.09006 8.8073 4.18025 
1 1 11.183 10.9771 11.1646 
2 1 10.0035 10.2749 10.2331 
3 1 10.6424 12.6436 10.8848 
13 1 11.0356 10.8228 12.6541 
17 1 12.6536 10.8534 10.8907 
61 1 8.65176 8.62469 8.6334 
62 1 9.46385 9.47301 9.50557 
63 1 7.1046 8.80686 8.80826 
73 1 8.81907 8.81111 7.09098 
77 1 8.81763 7.08469 8.81066 
81 2 9.56204 11.6156 10.9069 
ITEM: TIMESTEP
50
ITEM: NUMBER OF ATOMS
81
ITEM: BOX BOUNDS pp pp pp
0.0000000000000000e+00 1.3416000000000000e+01
0.0000000000000000e+00 1.3416000000000000e+01
0.0000000000000000e+00 1.3414999999999999e+01
ITEM: ATOMS id type x y z 
21 1 1.91235 1.91267 1.91522 
22 1 2.79424 2.79422 2.79542 
23 1 0.387223 2.1014 2.10271 
33 1 2.10139 2.1029 0.390667 
37 1 2.10086 0.387351 2.10345 
41 1 4.37114 4.37054 4.36961 
42 1 3.48977 3.48838 3.4895 
43 1 4.18265 5.8959 4.18169 
53 1 4.18264 4.18181 5.89535 
57 1 5.89709 4.18259 4.18227 
4 1 1.924 1.91975 11.0826 
5 1 2.80154 2.79862 10.1991 
6 1 2.11748 0.395277 10.8918 
16 1 2.10489 2.10514 12.6086 
19 1 0.400608 2.10788 10.8841 
64 1 4.3739 4.37029 8.61631 
65 1 3.49469 3.49333 9.50121 
66 1 5.89946 4.18229 8.80609 
76 1 4.18346 4.18159 7.09077 
79 1 4.18243 5.89425 8.80694 
10 1 1.91689 11.081 1.91624 
11 1 2.79549 10.1978 2.79671 
12 1 2.10217 12.6074 2.10415 
15 1 2.11372 10.892 0.39178 
18 1 0.39299 10.8895 2.11225 
67 1 4.36875 8.61758 4.36936 
68 1 3.48918 9.50141 3.49022 
69 1 5.8939 8.80791 4.18003 
74 1 4.18124 8.80742 5.89407 
80 1 4.18213 7.09152 4.18152 
30 1 1.95099 11.0854 11.0805 
31 1 2.82562 10.1978 10.1965 
32 1 0.440988 10.8815 10.8759 
35 1 2.12519 10.893 12.6108 
38 1 2.12696 12.6142 10.8908 
47 1 4.38412 8.61333 8.61299 
48 1 3.5137 9.49749 9.4978 
49 1 4.18557 7.09079 8.80551 
54 1 4.18584 8.80559 7.09076 
60 1 5.91104 8.80268 8.8022 
7 1 11.0809 1.92195 1.91501 
8 1 10.1973 2.79735 2.79732 
9 1 10.8895 0.397765 2.10883 
14 1 10.8921 2.1091 0.388418 
20 1 12.6071 2.10399 2.10264 
70 1 8.61844 4.36807 4.37371 
71 1 9.50125 3.48975 3.49257 
72 1 7.09251 4.18185 4.1832 
75 1 8.80666 4.18243 5.89912 
78 1 8.80855 5.893 4.18165 
27 1 11.0921 1.86669 11.0767 
28 1 10.1965 2.77459 10.1883 
29 1 12.6215 2.08972 10.8826 
34 1 10.8977 2.09558 12.6093 
40 1 10.8439 0.411043 10.9726 
50 1 8.61988 4.36467 8.62004 
51 1 9.50462 3.47584 9.50007 
52 1 8.81053 5.88767 8.80853 
55 1 8.80664 4.18182 7.0961 
58 1 7.09644 4.18083 8.80725 
24 1 11.0848 11.0886 1.95104 
25 1 10.1932 10.1958 2.81533 
26 1 12.6151 10.8919 2.12656 
36 1 10.9724 10.8519 0.43667 
39 1 10.8887 12.6194 2.11979 
44 1 8.61309 8.61266 4.37162 
45 1 9.49742 9.49771 3.49974 
46 1 8.80706 7.08806 4.18093 
56 1 8.80868 8.80709 5.89766 
59 1 7.08913 8.80674 4.18043 
1 1 11.1848 10.9886 11.1663 
2 1 9.98822 10.2856 10.2343 
3 1 10.6434 12.6344 10.8882 
13 1 11.0345 10.8305 12.6539 
17 1 12.6541 10.8574 10.8932 
61 1 8.65296 8.62284 8.63435 
62 1 9.45554 9.47659 9.50839 
63 1 7.10653 8.80566 8.8079 
73 1 8.82135 8.81173 7.09165 
77 1 8.82022 7.08356 8.81239 
81 2 9.55156 11.618 10.8733 
ITEM: TIMESTEP
60
ITEM: NUMBER OF ATOMS
81
ITEM: BOX BOUNDS pp pp pp
0.0000000000000000e+00 1.3416000000000000e+01
0.0000000000000000e+00 1.3416000000000000e+01
0.0000000000000000e+00 1.3414999999999999e+01
ITEM: ATOMS id type x y z 
21 1 1.91253 1.91004 1.91804 
22 1 2.79739 2.79604 2.7908 
23 1 0.386849 2.10207 2.10305 
33 1 2.10209 2.10277 0.38976 
37 1 2.10096 0.386999 2.10388 
41 1 4.37269 4.36725 4.37143 
42 1 3.48564 3.49266 3.48987 
43 1 4.18268 5.89545 4.18138 
53 1 4.18305 4.18161 5.89416 
57 1 5.89578 4.18216 4.18208 
4 1 1.92473 1.91976 11.0817 
5 1 2.80522 2.79951 10.2005 
6 1 2.12033 0.393786 10.8932 
16 1 2.10598 2.10587 12.6107 
19 1 0.397598 2.10107 10.8836 
64 1 4.37492 4.37114 8.61632 
65 1 3.49735 3.49023 9.49961 
66 1 5.90037 4.18282 8.8052 
76 1 4.18379 4.18173 7.09159 
79 1 4.18413 5.89588 8.80563 
10 1 1.91971 11.082 1.91531 
11 1 2.79781 10.1971 2.79318 
12 1 2.10281 12.6071 2.10369 
15 1 2.11476 10.8934 0.388756 
18 1 0.397989 10.8924 2.11849 
67 1 4.36757 8.61843 4.37036 
68 1 3.48879 9.4997 3.48914 
69 1 5.89198 8.80756 4.17973 
74 1 4.1817 8.80641 5.89607 
80 1 4.1813 7.09144 4.18135 
30 1 1.95173 11.0872 11.0778 
31 1 2.82437 10.1906 10.1959 
32 1 0.441993 10.8825 10.8785 
35 1 2.12478 10.8948 12.6094 
38 1 2.12786 12.6169 10.8917 
47 1 4.38868 8.61303 8.61634 
48 1 3.5158 9.50565 9.49497 
49 1 4.1883 7.09125 8.80534 
54 1 4.18809 8.80553 7.09016 
60 1 5.9177 8.80106 8.80066 
7 1 11.0804 1.92166 1.9153 
8 1 10.1999 2.80155 2.79653 
9 1 10.8882 0.397029 2.11021 
14 1 10.8952 2.11047 0.388987 
20 1 12.6074 2.1058 2.10316 
70 1 8.61741 4.36777 4.37513 
71 1 9.50021 3.49142 3.49157 
72 1 7.0926 4.18112 4.1838 
75 1 8.80606 4.18174 5.90205 
78 1 8.80781 5.89173 4.18226 
27 1 11.0812 1.85258 11.0822 
28 1 10.1956 2.76508 10.1873 
29 1 12.6214 2.07847 10.8832 
34 1 10.9 2.09367 12.6105 
40 1 10.8533 0.396161 10.9728 
50 1 8.62221 4.35975 8.62236 
51 1 9.50963 3.46816 9.50398 
52 1 8.81459 5.88386 8.81042 
55 1 8.80697 4.18012 7.09718 
58 1 7.09607 4.17944 8.80726 
24 1 11.0901 11.0853 1.95191 
25 1 10.1981 10.1967 2.81827 
26 1 12.6168 10.8938 2.13578 
36 1 10.9917 10.8477 0.440974 
39 1 10.8899 12.6163 2.11982 
44 1 8.61033 8.61131 4.37483 
45 1 9.49632 9.49678 3.50731 
46 1 8.80573 7.088 4.18193 
56 1 8.80956 8.80602 5.90006 
59 1 7.0879 8.80533 4.18126 
1 1 11.1927 11.0113 11.1714 
2 1 9.95808 10.3087 10.2375 
3 1 10.6354 12.6191 10.9006 
13 1 11.0382 10.8488 12.6494 
17 1 12.6503 10.8703 10.9002 
61 1 8.65914 8.61939 8.63898 
62 1 9.43035 9.48653 9.514 
63 1 7.1102 8.80165 8.80684 
73 1 8.82737 8.81245 7.09382 
77 1 8.82772 7.07674 8.81727 
81 2 9.50541 11.6375 10.7832 
ITEM: TIMESTEP
70
ITEM: NUMBER OF ATOMS
81
ITEM: BOX BOUNDS pp pp pp
0.0000000000000000e+00 1.3416000000000000e+01
0.0000000000000000e+00 1.3416000000000000e+01
0.0000000000000000e+00 1.3414999999999999e+01
ITEM: ATOMS id type x y z 
21 1 1.91245 1.91262 1.9148 
22 1 2.7933 2.79626 2.79418 
23 1 0.387037 2.10208 2.10312 
33 1 2.10198 2.10236 0.390412 
37 1 2.1013 0.387082 2.10425 
41 1 4.37031 4.37048 4.37031 
42 1 3.49005 3.4909 3.48654 
43 1 4.18279 5.8952 4.18181 
53 1 4.18283 4.18124 5.89566 
57 1 5.89664 4.18156 4.18225 
4 1 1.92411 1.92007 11.0832 
5 1 2.80311 2.79869 10.1993 
6 1 2.1205 0.39553 10.8934 
16 1 2.10568 2.10565 12.6093 
19 1 0.397313 2.09885 10.8842 
64 1 4.37532 4.3705 8.61607 
65 1 3.49736 3.49144 9.50179 
66 1 5.90121 4.18274 8.80509 
76 1 4.18398 4.18171 7.09154 
79 1 4.18471 5.89549 8.80561 
10 1 1.91986 11.0804 1.91384 
11 1 2.79947 10.1985 2.79399 
12 1 2.10352 12.6072 2.10375 
15 1 2.11491 10.8937 0.388687 
18 1 0.397545 10.893 2.12024 
67 1 4.36785 8.61672 4.36948 
68 1 3.48796 9.49915 3.49001 
69 1 5.8921 8.80725 4.17991 
74 1 4.18186 8.80647 5.89579 
80 1 4.1813 7.09101 4.18144 
30 1 1.94718 11.0845 11.0775 
31 1 2.82823 10.1982 10.1943 
32 1 0.440285 10.8854 10.8798 
35 1 2.12483 10.8949 12.6083 
38 1 2.12841 12.6161 10.8917 
47 1 4.38987 8.6155 8.61372 
48 1 3.51365 9.49826 9.49669 
49 1 4.18897 7.0914 8.80539 
54 1 4.18895 8.80519 7.09174 
60 1 5.91779 8.80042 8.80063 
7 1 11.0813 1.92178 1.91589 
8 1 10.1984 2.79957 2.79698 
9 1 10.8888 0.395745 2.10973 
14 1 10.8958 2.11051 0.389405 
20 1 12.607 2.10557 2.10317 
70 1 8.6179 4.36828 4.37502 
71 1 9.50178 3.49122 3.49292 
72 1 7.0925 4.18111 4.18376 
75 1 8.80576 4.18182 5.90143 
78 1 8.80742 5.89248 4.18259 
27 1 11.0903 1.84742 11.0802 
28 1 10.1967 2.76236 10.188 
29 1 12.6192 2.07466 10.8841 
34 1 10.8996 2.09192 12.6104 
40 1 10.844 0.39362 10.979 
50 1 8.62296 4.35838 8.62274 
51 1 9.50746 3.46689 9.50369 
52 1 8.81623 5.88184 8.81156 
55 1 8.80706 4.1794 7.09805 
58 1 7.09782 4.17915 8.80727 
24 1 11.0907 11.0848 1.95108 
25 1 10.1979 10.1945 2.82044 
26 1 12.6185 10.8938 2.13722 
36 1 10.9905 10.8528 0.439045 
39 1 10.8906 12.6165 2.11953 
44 1 8.611 8.6118 4.3751 
45 1 9.49802 9.4982 3.50591 
46 1 8.80521 7.08818 4.18262 
56 1 8.8102 8.80597 5.90114 
59 1 7.08778 8.80519 4.18175 
1 1 11.1912 11.0075 11.1716 
2 1 9.95769 10.3132 10.24 
3 1 10.6344 12.6142 10.8971 
13 1 11.041 10.8512 12.648 
17 1 12.6487 10.8732 10.9013 
61 1 8.66007 8.61851 8.64003 
62 1 9.42981 9.49223 9.51782 
63 1 7.11234 8.80032 8.80643 
73 1 8.82809 8.81165 7.0951 
77 1 8.82924 7.07676 8.81827 
81 2 9.49752 11.6518 10.7657 
ITEM: TIMESTEP
80
ITEM: NUMBER OF ATOMS
81
ITEM: BOX BOUNDS pp pp pp
0.0000000000000000e+00 1.3416000000000000e+01
0.0000000000000000e+00 1.3416000000000000e+01
0.0000000000000000e+00 1.3414999999999999e+01
ITEM: ATOMS id type x y z 
21 1 1.91175 1.91415 1.91398 
22 1 2.79565 2.79033 2.79719 
23 1 0.386571 2.1032 2.10244 
33 1 2.10225 2.10337 0.389329 
37 1 2.10128 0.388775 2.10324 
41 1 4.3737 4.36942 4.36782 
42 1 3.48606 3.48958 3.49167 
43 1 4.18192 5.89477 4.18121 
53 1 4.18293 4.18197 5.89568 
57 1 5.89729 4.18177 4.1826 
4 1 1.92622 1.91908 11.0827 
5 1 2.79987 2.80233 10.1953 
6 1 2.12182 0.394515 10.8944 
16 1 2.10608 2.1058 12.6096 
19 1 0.398317 2.09215 10.8854 
64 1 4.3786 4.37163 8.61891 
65 1 3.49724 3.48927 9.50013 
66 1 5.9056 4.18303 8.8045 
76 1 4.18506 4.18147 7.09107 
79 1 4.18755 5.89664 8.80569 
10 1 1.92421 11.0843 1.91351 
11 1 2.78831 10.1939 2.80048 
12 1 2.10519 12.609 2.10318 
15 1 2.11599 10.8944 0.386608 
18 1 0.401194 10.8943 2.1247 
67 1 4.36551 8.61647 4.37223 
68 1 3.50018 9.50432 3.48273 
69 1 5.8925 8.80574 4.18066 
74 1 4.18283 8.80582 5.89576 
80 1 4.18052 7.09102 4.1815 
30 1 1.94643 11.0877 11.0744 
31 1 2.81983 10.1921 10.1871 
32 1 0.436613 10.8948 10.8824 
35 1 2.12396 10.895 12.6069 
38 1 2.12842 12.6161 10.8916 
47 1 4.39042 8.61127 8.61449 
48 1 3.52689 9.50484 9.50377 
49 1 4.19191 7.09101 8.80381 
54 1 4.1906 8.80562 7.0905 
60 1 5.92073 8.7977 8.79888 
7 1 11.0811 1.91979 1.91689 
8 1 10.1938 2.79682 2.79556 
9 1 10.8912 0.395297 2.10862 
14 1 10.8967 2.10908 0.391141 
20 1 12.6069 2.10497 2.10428 
70 1 8.61751 4.36887 4.37535 
71 1 9.50458 3.48858 3.49829 
72 1 7.09356 4.18099 4.18482 
75 1 8.80501 4.18214 5.90393 
78 1 8.8062 5.89274 4.18395 
27 1 11.0865 1.83401 11.0838 
28 1 10.1992 2.75029 10.1892 
29 1 12.621 2.06208 10.8851 
34 1 10.9021 2.08564 12.6119 
40 1 10.8205 0.389532 10.9709 
50 1 8.62512 4.35467 8.62564 
51 1 9.51118 3.45728 9.50642 
52 1 8.82131 5.87826 8.81486 
55 1 8.80681 4.17754 7.09892 
58 1 7.09984 4.17817 8.80702 
24 1 11.0927 11.0846 1.94962 
25 1 10.204 10.1912 2.81945 
26 1 12.6218 10.8942 2.14183 
36 1 10.9909 10.8668 0.438291 
39 1 10.8929 12.6147 2.11838 
44 1 8.61289 8.61162 4.37832 
45 1 9.49446 9.50199 3.50975 
46 1 8.80377 7.09071 4.18492 
56 1 8.81215 8.80491 5.90352 
59 1 7.08999 8.80471 4.18376 
1 1 11.196 10.9958 11.1737 
2 1 9.94489 10.3361 10.2465 
3 1 10.6227 12.6046 10.9009 
13 1 11.0415 10.861 12.6437 
17 1 12.6456 10.8801 10.903 
61 1 8.66703 8.61886 8.64704 
62 1 9.42313 9.50428 9.52682 
63 1 7.11514 8.79567 8.80588 
73 1 8.83062 8.80919 7.10044 
77 1 8.83477 7.07307 8.82212 
81 2 9.47 11.6906 10.6985 
ITEM: TIMESTEP
90
ITEM: NUMBER OF ATOMS
81
ITEM: BOX BOUNDS pp pp pp
0.0000000000000000e+00 1.3416000000000000e+01
0.0000000000000000e+00 1.3416000000000000e+01
0.0000000000000000e+00 1.3414999999999999e+01
ITEM: ATOMS id type x y z 
21 1 1.912 1.91333 1.91514 
22 1 2.7927 2.79408 2.79779 
23 1 0.38633 2.10316 2.10288 
33 1 2.10245 2.10373 0.389577 
37 1 2.10172 0.388821 2.10305 
41 1 4.37088 4.37005 4.37109 
42 1 3.49066 3.48725 3.49041 
43 1 4.18207 5.89491 4.18127 
53 1 4.1838 4.18204 5.8957 
57 1 5.89777 4.18147 4.18263 
4 1 1.92414 1.92067 11.0817 
5 1 2.80287 2.79875 10.1962 
6 1 2.12261 0.396019 10.8941 
16 1 2.10645 2.10615 12.6083 
19 1 0.396975 2.08921 10.8853 
64 1 4.3794 4.36983 8.61556 
65 1 3.49619 3.49438 9.50026 
66 1 5.90567 4.18304 8.80429 
76 1 4.18579 4.18223 7.09186 
79 1 4.18843 5.89475 8.80528 
10 1 1.92125 11.0819 1.91358 
11 1 2.79768 10.1974 2.79518 
12 1 2.1057 12.6089 2.10312 
15 1 2.11584 10.8949 0.387305 
18 1 0.401608 10.8951 2.1254 
67 1 4.3703 8.61685 4.3689 
68 1 3.49183 9.50114 3.48851 
69 1 5.89358 8.80516 4.18165 
74 1 4.18305 8.80629 5.89603 
80 1 4.18039 7.09071 4.18153 
30 1 1.94198 11.0843 11.0742 
31 1 2.82708 10.1964 10.1914 
32 1 0.437302 10.8974 10.8824 
35 1 2.12379 10.8953 12.6068 
38 1 2.12913 12.6164 10.8911 
47 1 4.39529 8.61458 8.61462 
48 1 3.52071 9.50038 9.49811 
49 1 4.19253 7.09103 8.80439 
54 1 4.19114 8.80493 7.09211 
60 1 5.92299 8.7957 8.7983 
7 1 11.0802 1.91997 1.91722 
8 1 10.1984 2.79834 2.79964 
9 1 10.8912 0.393627 2.10895 
14 1 10.8971 2.10804 0.390477 
20 1 12.6062 2.10522 2.10416 
70 1 8.61939 4.36854 4.3787 
71 1 9.49974 3.4887 3.49487 
72 1 7.09369 4.18112 4.18496 
75 1 8.80451 4.18218 5.90424 
78 1 8.8058 5.89403 4.18463 
27 1 11.0865 1.82978 11.0806 
28 1 10.1981 2.75135 10.1904 
29 1 12.6188 2.05763 10.8864 
34 1 10.9022 2.08329 12.6116 
40 1 10.8231 0.382674 10.9769 
50 1 8.62779 4.35369 8.62629 
51 1 9.5096 3.45516 9.50419 
52 1 8.82247 5.87792 8.81554 
55 1 8.80688 4.17755 7.10122 
58 1 7.1027 4.17798 8.80723 
24 1 11.0957 11.0822 1.94856 
25 1 10.1987 10.1955 2.82326 
26 1 12.6225 10.8943 2.14211 
36 1 10.9917 10.8696 0.435928 
39 1 10.8938 12.6143 2.11847 
44 1 8.61171 8.61473 4.38131 
45 1 9.49921 9.49697 3.50549 
46 1 8.8037 7.08971 4.18573 
56 1 8.81242 8.80412 5.90736 
59 1 7.08945 8.80413 4.18484 
1 1 11.1984 10.9964 11.1778 
2 1 9.94034 10.3438 10.2471 
3 1 10.6136 12.6012 10.8971 
13 1 11.0399 10.8644 12.6405 
17 1 12.6423 10.8812 10.9039 
61 1 8.6681 8.61804 8.64959 
62 1 9.4206 9.50839 9.52966 
63 1 7.11815 8.79449 8.80568 
73 1 8.83155 8.80854 7.10158 
77 1 8.83641 7.07325 8.82356 
81 2 9.46051 11.6994 10.6762 
ITEM: TIMESTEP
100
ITEM: NUMBER OF ATOMS
81
ITEM: BOX BOUNDS pp pp pp
0.0000000000000000e+00 1.3416000000000000e+01
0.0000000000000000e+00 1.3416000000000000e+01
0.0000000000000000e+00 1.3414999999999999e+01
ITEM: ATOMS id type x y z 
21 1 1.90921 1.91423 1.91423 
22 1 2.79765 2.79621 2.78919 
23 1 0.385966 2.10227 2.10305 
33 1 2.10157 2.10298 0.388771 
37 1 2.10269 0.388875 2.1027 
41 1 4.37758 4.36756 4.36826 
42 1 3.4843 3.49066 3.49153 
43 1 4.18154 5.89466 4.18282 
53 1 4.18454 4.18175 5.89632 
57 1 5.89767 4.18212 4.18459 
4 1 1.9229 1.91846 11.0811 
5 1 2.80757 2.8052 10.2074 
6 1 2.12379 0.396428 10.8933 
16 1 2.10487 2.10644 12.6077 
19 1 0.392857 2.07809 10.886 
64 1 4.38057 4.37376 8.61896 
65 1 3.50006 3.48733 9.49819 
66 1 5.9079 4.18274 8.80291 
76 1 4.18763 4.18202 7.09241 
79 1 4.19203 5.89698 8.80349 
10 1 1.92957 11.0861 1.91267 
11 1 2.80813 10.1993 2.78991 
12 1 2.10629 12.6086 2.10157 
15 1 2.11479 10.8962 0.386342 
18 1 0.403284 10.8947 2.12933 
67 1 4.36567 8.61577 4.37556 
68 1 3.48632 9.49704 3.49311 
69 1 5.89699 8.80476 4.18251 
74 1 4.18658 8.80446 5.89567 
80 1 4.18228 7.09052 4.18093 
30 1 1.94353 11.0888 11.074 
31 1 2.82904 10.1968 10.188 
32 1 0.433796 10.9037 10.8838 
35 1 2.12105 10.8962 12.6056 
38 1 2.12874 12.6165 10.8916 
47 1 4.39717 8.61146 8.61256 
48 1 3.51895 9.49838 9.49496 
49 1 4.1987 7.09359 8.80394 
54 1 4.19583 8.80402 7.09202 
60 1 5.93024 8.79152 8.79657 
7 1 11.0826 1.91952 1.91882 
8 1 10.1918 2.79069 2.80338 
9 1 10.8933 0.394412 2.10945 
14 1 10.8991 2.10274 0.391268 
20 1 12.6057 2.105 2.1039 
70 1 8.61498 4.37038 4.37755 
71 1 9.50667 3.4983 3.49339 
72 1 7.09458 4.18194 4.18741 
75 1 8.80415 4.1814 5.90707 
78 1 8.80414 5.89432 4.18947 
27 1 11.0791 1.8147 11.0852 
28 1 10.1959 2.73121 10.1833 
29 1 12.6151 2.04089 10.8886 
34 1 10.9021 2.07342 12.6128 
40 1 10.8306 0.352744 10.9839 
50 1 8.63067 4.35425 8.6297 
51 1 9.51315 3.45213 9.51005 
52 1 8.82899 5.87695 8.81935 
55 1 8.80887 4.17629 7.10388 
58 1 7.10501 4.17704 8.80847 
24 1 11.092 11.0843 1.94391 
25 1 10.1974 10.1882 2.81508 
26 1 12.6239 10.8938 2.14454 
36 1 10.9918 10.8821 0.430925 
39 1 10.8973 12.6145 2.1176 
44 1 8.61553 8.60985 4.38519 
45 1 9.50487 9.50148 3.51779 
46 1 8.80147 7.09096 4.19067 
56 1 8.81327 8.8019 5.91506 
59 1 7.09289 8.804 4.18912 
1 1 11.2161 10.992 11.1906 
2 1 9.92311 10.3831 10.253 
3 1 10.5772 12.5804 10.8909 
13 1 11.0398 10.8762 12.6261 
17 1 12.6283 10.8887 10.9086 
61 1 8.67936 8.62059 8.66151 
62 1 9.41666 9.53409 9.54623 
63 1 7.12542 8.78897 8.80722 
73 1 8.8359 8.80602 7.11009 
77 1 8.84397 7.07294 8.83109 
81 2 9.41249 11.7404 10.5754 
ITEM: TIMESTEP
110
ITEM: NUMBER OF ATOMS
81
ITEM: BOX BOUNDS pp pp pp
0.0000000000000000e+00 1.3416000000000000e+01
0.0000000000000000e+00 1.3416000000000000e+01
0.0000000000000000e+00 1.3414999999999999e+01
ITEM: ATOMS id type x y z 
21 1 1.911 1.9154 1.91301 
22 1 2.7944 2.79591 2.79351 
23 1 0.386155 2.10281 2.10279 
33 1 2.1011 2.10326 0.388477 
37 1 2.10256 0.389388 2.10227 
41 1 4.37159 4.36868 4.37141 
42 1 3.48955 3.49015 3.48822 
43 1 4.18286 5.89418 4.18204 
53 1 4.18554 4.18191 5.89642 
57 1 5.89821 4.18151 4.18431 
4 1 1.92163 1.92064 11.0818 
5 1 2.8058 2.80106 10.2016 
6 1 2.12397 0.396521 10.8937 
16 1 2.10443 2.10605 12.6066 
19 1 0.389837 2.07546 10.8871 
64 1 4.38242 4.37027 8.61673 
65 1 3.50095 3.49275 9.50302 
66 1 5.90977 4.18323 8.80311 
76 1 4.18825 4.18265 7.09309 
79 1 4.19347 5.89562 8.80412 
10 1 1.92563 11.0834 1.91256 
11 1 2.80119 10.196 2.793 
12 1 2.1075 12.6094 2.10179 
15 1 2.11495 10.8968 0.385197 
18 1 0.403369 10.896 2.12878 
67 1 4.3694 8.61465 4.37118 
68 1 3.49373 9.50149 3.4898 
69 1 5.897 8.80407 4.1844 
74 1 4.18645 8.80475 5.89733 
80 1 4.18144 7.09025 4.18231 
30 1 1.93155 11.0846 11.0707 
31 1 2.82566 10.1962 10.1874 
32 1 0.428794 10.9091 10.8886 
35 1 2.12005 10.8965 12.6046 
38 1 2.1287 12.6162 10.8908 
47 1 4.40246 8.61459 8.61507 
48 1 3.51956 9.50083 9.49515 
49 1 4.19893 7.09218 8.8034 