ITEM: TIMESTEP
0
ITEM: NUMBER OF ATOMS
97
ITEM: BOX BOUNDS pp pp pp
0.0000000000000000e+00 1.6524999999999999e+01
0.0000000000000000e+00 1.6526000000000000e+01
0.0000000000000000e+00 1.6526000000000000e+01
ITEM: ATOMS id type x y z 
1 1 1.813 1.813 1.813 
10 1 5.821 5.821 5.821 
17 1 3.388 3.388 3.388 
26 1 4.246 4.246 4.246 
33 1 0.284 2 2 
41 1 2 0.284 2 
49 1 2 2 0.283 
58 1 7.351 5.634 5.634 
66 1 5.634 7.351 5.634 
74 1 5.634 5.634 7.351 
81 1 2.689 2.689 2.689 
90 1 4.945 4.945 4.945 
97 2 1.813 2.913 1.813 
4 1 1.813 1.813 14.084 
11 1 5.821 5.821 10.076 
20 1 3.388 3.388 12.509 
27 1 4.246 4.246 11.651 
36 1 0.284 2 13.897 
46 1 2 0.284 13.897 
56 1 2 2 15.614 
59 1 7.351 5.634 10.263 
69 1 5.634 7.351 10.263 
79 1 5.634 5.634 8.546 
84 1 2.689 2.689 13.208 
91 1 4.945 4.945 10.952 
6 1 1.813 14.084 1.813 
13 1 5.821 10.076 5.821 
22 1 3.388 12.509 3.388 
29 1 4.246 11.651 4.246 
38 1 0.284 13.897 2 
48 1 2 15.614 2 
52 1 2 13.897 0.283 
61 1 7.351 10.263 5.634 
71 1 5.634 8.546 5.634 
75 1 5.634 10.263 7.351 
86 1 2.689 13.208 2.689 
93 1 4.945 10.952 4.945 
7 1 1.813 14.084 14.084 
16 1 5.821 10.076 10.076 
23 1 3.388 12.509 12.509 
32 1 4.246 11.651 11.651 
39 1 0.284 13.897 13.897 
43 1 2 15.614 13.897 
53 1 2 13.897 15.614 
64 1 7.351 10.263 10.263 
68 1 5.634 8.547 10.263 
78 1 5.634 10.263 8.546 
87 1 2.689 13.208 13.208 
96 1 4.945 10.952 10.952 
8 1 14.084 1.813 1.813 
15 1 10.076 5.821 5.821 
24 1 12.509 3.388 3.388 
31 1 11.651 4.246 4.246 
40 1 15.613 2 2 
44 1 13.897 0.284 2 
54 1 13.897 2 0.283 
63 1 8.547 5.634 5.634 
67 1 10.263 7.351 5.634 
77 1 10.263 5.634 7.351 
88 1 13.208 2.689 2.689 
95 1 10.952 4.945 4.945 
5 1 14.084 1.813 14.084 
14 1 10.076 5.821 10.076 
21 1 12.509 3.388 12.509 
30 1 11.651 4.246 11.651 
37 1 15.613 2 13.897 
47 1 13.897 0.284 13.897 
51 1 13.897 2 15.614 
62 1 8.546 5.634 10.263 
72 1 10.263 7.351 10.263 
76 1 10.263 5.634 8.546 
85 1 13.208 2.689 13.208 
94 1 10.952 4.945 10.952 
3 1 14.084 14.084 1.813 
12 1 10.076 10.076 5.821 
19 1 12.509 12.509 3.388 
28 1 11.651 11.651 4.246 
35 1 15.613 13.897 2 
45 1 13.897 15.614 2 
55 1 13.897 13.897 0.283 
60 1 8.547 10.263 5.634 
70 1 10.263 8.547 5.634 
80 1 10.263 10.263 7.351 
83 1 13.208 13.208 2.689 
92 1 10.952 10.952 4.945 
2 1 14.084 14.084 14.084 
9 1 10.076 10.076 10.076 
18 1 12.509 12.509 12.509 
25 1 11.651 11.651 11.651 
34 1 15.613 13.897 13.897 
42 1 13.897 15.614 13.897 
50 1 13.897 13.897 15.614 
57 1 8.546 10.263 10.263 
65 1 10.263 8.546 10.263 
73 1 10.263 10.263 8.547 
82 1 13.208 13.208 13.208 
89 1 10.952 10.952 10.952 
ITEM: TIMESTEP
10
ITEM: NUMBER OF ATOMS
97
ITEM: BOX BOUNDS pp pp pp
0.0000000000000000e+00 1.6524999999999999e+01
0.0000000000000000e+00 1.6526000000000000e+01
0.0000000000000000e+00 1.6526000000000000e+01
ITEM: ATOMS id type x y z 
1 1 1.76468 1.78212 1.76413 
10 1 5.80423 5.80491 5.80422 
17 1 3.45392 3.43531 3.45387 
26 1 4.24883 4.24639 4.24884 
33 1 0.233854 1.98639 2.00709 
41 1 2.01041 0.245883 2.0104 
49 1 2.00702 1.98627 0.233346 
58 1 7.34972 5.63381 5.63384 
66 1 5.63395 7.34953 5.63393 
74 1 5.6339 5.63382 7.34947 
81 1 2.71363 2.80311 2.71374 
90 1 4.96152 4.96232 4.96146 
97 2 1.90149 2.93367 1.90163 
4 1 1.80994 1.8103 14.0506 
11 1 5.82137 5.82146 10.0736 
20 1 3.39299 3.39301 12.5058 
27 1 4.24859 4.24859 11.6486 
36 1 0.27784 2.00082 13.8921 
46 1 2.0006 0.277513 13.8921 
56 1 2.01137 2.00307 15.5714 
59 1 7.35004 5.63495 10.2619 
69 1 5.63489 7.35031 10.262 
79 1 5.63578 5.63584 8.5431 
84 1 2.6917 2.69179 13.2008 
91 1 4.94741 4.94735 10.9487 
6 1 1.81084 14.0583 1.81047 
13 1 5.82122 10.0735 5.82127 
22 1 3.39193 12.5066 3.39196 
29 1 4.24787 11.649 4.2482 
38 1 0.279409 13.8933 2.00036 
48 1 2.00783 15.5835 2.00779 
52 1 2.00036 13.8934 0.279155 
61 1 7.34995 10.2619 5.63491 
71 1 5.63586 8.54324 5.63583 
75 1 5.63494 10.2619 7.34968 
86 1 2.69115 13.2023 2.691 
93 1 4.94723 10.9494 4.94662 
7 1 1.81287 14.0816 14.0822 
16 1 5.82112 10.0759 10.0757 
23 1 3.38884 12.5084 12.5083 
32 1 4.24635 11.6507 11.6506 
39 1 0.282516 13.8972 13.8972 
43 1 2.0007 15.6091 13.8978 
53 1 2.00046 13.8977 15.61 
64 1 7.35053 10.2623 10.2622 
68 1 5.63478 8.5458 10.2622 
78 1 5.63478 10.2623 8.54558 
87 1 2.68967 13.207 13.2071 
96 1 4.94534 10.9515 10.9517 
8 1 14.0504 1.81031 1.80955 
15 1 10.0736 5.82134 5.82123 
24 1 12.5058 3.39293 3.39303 
31 1 11.6487 4.24823 4.24837 
40 1 15.5709 2.00313 2.01134 
44 1 13.892 0.277543 2.00054 
54 1 13.8921 2.00075 0.27759 
63 1 8.54283 5.63577 5.63575 
67 1 10.262 7.35042 5.63485 
77 1 10.2621 5.63486 7.35037 
88 1 13.2008 2.69171 2.69146 
95 1 10.9491 4.94747 4.94716 
5 1 14.0811 1.8126 14.0815 
14 1 10.0757 5.82109 10.0757 
21 1 12.5083 3.38922 12.5082 
30 1 11.6504 4.24659 11.6504 
37 1 15.6086 2.00083 13.8976 
47 1 13.8971 0.281906 13.8972 
51 1 13.8976 2.00076 15.6088 
62 1 8.54583 5.6348 10.2622 
72 1 10.2622 7.35037 10.2622 
76 1 10.2622 5.63479 8.54624 
85 1 13.2064 2.68943 13.2068 
94 1 10.9514 4.94562 10.9514 
3 1 14.0819 14.0816 1.81254 
12 1 10.0759 10.076 5.82133 
19 1 12.5085 12.5082 3.38894 
28 1 11.651 11.6507 4.24632 
35 1 15.6097 13.8976 2.00047 
45 1 13.8978 15.6091 2.00065 
55 1 13.8972 13.8972 0.282269 
60 1 8.54556 10.2623 5.63482 
70 1 10.2624 8.54585 5.63476 
80 1 10.2623 10.2623 7.35118 
83 1 13.2068 13.2072 2.68932 
92 1 10.9513 10.9519 4.9452 
2 1 14.0834 14.0839 14.0838 
9 1 10.0759 10.0758 10.076 
18 1 12.5089 12.5089 12.5088 
25 1 11.651 11.6509 11.6508 
34 1 15.6124 13.8975 13.8975 
42 1 13.8975 15.6129 13.8976 
50 1 13.8975 13.8976 15.6126 
57 1 8.54642 10.2622 10.2623 
65 1 10.2622 8.54626 10.2623 
73 1 10.2623 10.2623 8.54663 
82 1 13.2076 13.2078 13.2078 
89 1 10.9518 10.9519 10.952 
ITEM: TIMESTEP
20
ITEM: NUMBER OF ATOMS
97
ITEM: BOX BOUNDS pp pp pp
0.0000000000000000e+00 1.6524999999999999e+01
0.0000000000000000e+00 1.6526000000000000e+01
0.0000000000000000e+00 1.6526000000000000e+01
ITEM: ATOMS id type x y z 
1 1 1.74927 1.78093 1.74872 
10 1 5.81546 5.81697 5.81527 
17 1 3.46762 3.45204 3.46753 
26 1 4.26725 4.25244 4.26724 
33 1 0.211476 1.97544 1.99953 
41 1 2.00873 0.236889 2.00864 
49 1 1.99955 1.97534 0.210869 
58 1 7.35451 5.63074 5.63042 
66 1 5.63027 7.35538 5.63025 
74 1 5.63045 5.63074 7.35396 
81 1 2.73187 2.8476 2.73215 
90 1 4.97658 4.97077 4.97654 
97 2 1.93726 2.9234 1.93734 
4 1 1.8082 1.80761 14.0285 
11 1 5.82337 5.82372 10.0775 
20 1 3.39787 3.39804 12.5024 
27 1 4.2515 4.25168 11.646 
36 1 0.273939 2.00208 13.8821 
46 1 2.00148 0.273204 13.8815 
56 1 2.02208 2.00106 15.5491 
59 1 7.35235 5.63457 10.2627 
69 1 5.63452 7.35283 10.2627 
79 1 5.63353 5.63349 8.54723 
84 1 2.69099 2.69091 13.1875 
91 1 4.95141 4.95104 10.9482 
6 1 1.81064 14.0488 1.81032 
13 1 5.82296 10.0786 5.82302 
22 1 3.39478 12.5047 3.39474 
29 1 4.24963 11.6478 4.24994 
38 1 0.278222 13.8869 2.00089 
48 1 2.01589 15.5744 2.01579 
52 1 2.00093 13.887 0.278123 
61 1 7.35205 10.2627 5.63462 
71 1 5.63366 8.54887 5.63359 
75 1 5.63467 10.2627 7.35176 
86 1 2.68958 13.1931 2.68939 
93 1 4.94908 10.9494 4.9486 
7 1 1.81235 14.0774 14.08 
16 1 5.82174 10.0773 10.0771 
23 1 3.39017 12.5073 12.5067 
32 1 4.24729 11.65 11.6505 
39 1 0.281728 13.8959 13.8963 
43 1 2.00243 15.605 13.8956 
53 1 2.00161 13.8953 15.6087 
64 1 7.3517 10.2623 10.2622 
68 1 5.63431 8.54775 10.2625 
78 1 5.63441 10.2624 8.54732 
87 1 2.68968 13.2044 13.2059 
96 1 4.94609 10.9518 10.9505 
8 1 14.0283 1.80754 1.80779 
15 1 10.0776 5.82362 5.8234 
24 1 12.5023 3.39811 3.39796 
31 1 11.646 4.25163 4.25176 
40 1 15.5487 2.00115 2.02204 
44 1 13.8814 0.273121 2.00136 
54 1 13.8821 2.002 0.27392 
63 1 8.54691 5.63349 5.63355 
67 1 10.2628 7.35308 5.63453 
77 1 10.2628 5.63455 7.35268 
88 1 13.1875 2.69074 2.69064 
95 1 10.9484 4.95101 4.95087 
5 1 14.0771 1.81201 14.0777 
14 1 10.077 5.82151 10.0767 
21 1 12.5065 3.39064 12.5071 
30 1 11.6496 4.24694 11.6496 
37 1 15.605 2.00269 13.8951 
47 1 13.8956 0.280325 13.8957 
51 1 13.895 2.00262 15.6051 
62 1 8.54773 5.63433 10.2625 
72 1 10.2622 7.35176 10.2623 
76 1 10.2624 5.63438 8.54811 
85 1 13.2047 2.69009 13.2042 
94 1 10.9512 4.94735 10.951 
3 1 14.0801 14.0772 1.81216 
12 1 10.0773 10.0772 5.82187 
19 1 12.507 12.5065 3.3902 
28 1 11.6506 11.65 4.24702 
35 1 15.6086 13.8952 2.00148 
45 1 13.8955 15.6048 2.0022 
55 1 13.8962 13.8959 0.281463 
60 1 8.54725 10.2625 5.63446 
70 1 10.2625 8.54777 5.63438 
80 1 10.2623 10.2623 7.35238 
83 1 13.2051 13.2059 2.68995 
92 1 10.9506 10.9517 4.94619 
2 1 14.0824 14.0821 14.0827 
9 1 10.0762 10.0762 10.0764 
18 1 12.5081 12.5079 12.5081 
25 1 11.6506 11.6506 11.6506 
34 1 15.6116 13.8971 13.897 
42 1 13.8969 15.6115 13.897 
50 1 13.8969 13.8972 15.6116 
57 1 8.54708 10.2621 10.2621 
65 1 10.262 8.54725 10.2621 
73 1 10.262 10.2621 8.54698 
82 1 13.2067 13.2074 13.2067 
89 1 10.9517 10.9513 10.9517 
ITEM: TIMESTEP
30
ITEM: NUMBER OF ATOMS
97
ITEM: BOX BOUNDS pp pp pp
0.0000000000000000e+00 1.6524999999999999e+01
0.0000000000000000e+00 1.6526000000000000e+01
0.0000000000000000e+00 1.6526000000000000e+01
ITEM: ATOMS id type x y z 
1 1 1.7393 1.78348 1.73879 
10 1 5.83424 5.83724 5.83666 
17 1 3.47271 3.45599 3.47282 
26 1 4.27599 4.25278 4.27897 
33 1 0.197464 1.96504 1.98875 
41 1 2.00286 0.238469 2.00267 
49 1 1.98889 1.96497 0.197006 
58 1 7.369 5.62714 5.62643 
66 1 5.62585 7.3724 5.6258 
74 1 5.6264 5.62712 7.36961 
81 1 2.73447 2.85865 2.73498 
90 1 4.99122 4.97511 4.98507 
97 2 1.96119 2.90561 1.9612 
4 1 1.80674 1.80407 14.0136 
11 1 5.82576 5.82647 10.0839 
20 1 3.40005 3.40042 12.4972 
27 1 4.25402 4.25422 11.646 
36 1 0.272783 2.00277 13.8715 
46 1 2.0022 0.269907 13.8697 
56 1 2.02548 1.99413 15.5342 
59 1 7.35751 5.63363 10.265 
69 1 5.6337 7.35748 10.2649 
79 1 5.62921 5.6292 8.55989 
84 1 2.68887 2.68807 13.1755 
91 1 4.95462 4.95458 10.9491 
6 1 1.81045 14.0462 1.81003 
13 1 5.82416 10.0876 5.82548 
22 1 3.39307 12.4989 3.39324 
29 1 4.24889 11.6493 4.25086 
38 1 0.27963 13.8818 2.00117 
48 1 2.01929 15.5731 2.01913 
52 1 2.00129 13.882 0.278594 
61 1 7.35572 10.265 5.63378 
71 1 5.62898 8.56249 5.62891 
75 1 5.63381 10.265 7.35592 
86 1 2.68945 13.1921 2.68884 
93 1 4.95195 10.9524 4.94841 
7 1 1.81219 14.0733 14.0812 
16 1 5.82273 10.0794 10.0776 
23 1 3.38992 12.5048 12.5066 
32 1 4.24746 11.6517 11.6497 
39 1 0.281251 13.8939 13.8952 
43 1 2.00322 15.6008 13.8906 
53 1 2.00175 13.8908 15.61 
64 1 7.35271 10.2632 10.2629 
68 1 5.63322 8.5514 10.2638 
78 1 5.63351 10.2639 8.54903 
87 1 2.69013 13.206 13.2047 
96 1 4.94664 10.9495 10.9519 
8 1 14.0134 1.80393 1.80631 
15 1 10.0852 5.82576 5.82758 
24 1 12.4967 3.40084 3.40023 
31 1 11.6468 4.25348 4.25604 
40 1 15.534 1.99418 2.0254 
44 1 13.8696 0.269977 2.00192 
54 1 13.8714 2.00264 0.271334 
63 1 8.56022 5.62916 5.62911 
67 1 10.2649 7.35703 5.6337 
77 1 10.2649 5.63372 7.35704 
88 1 13.1757 2.6877 2.68837 
95 1 10.9479 4.95588 4.95137 
5 1 14.0732 1.81041 14.0764 
14 1 10.078 5.82274 10.0788 
21 1 12.5034 3.39014 12.5065 
30 1 11.6503 4.24769 11.6509 
37 1 15.6021 2.00391 13.8898 
47 1 13.8937 0.280247 13.8939 
51 1 13.8897 2.00379 15.6033 
62 1 8.55028 5.63325 10.2641 
72 1 10.2632 7.35365 10.2632 
76 1 10.2641 5.63324 8.55018 
85 1 13.2073 2.69083 13.202 
94 1 10.9505 4.94743 10.9493 
3 1 14.0799 14.0747 1.81236 
12 1 10.0773 10.0802 5.82328 
19 1 12.5054 12.5076 3.39113 
28 1 11.649 11.6522 4.24831 
35 1 15.6088 13.8907 2.0017 
45 1 13.8904 15.6013 2.00308 
55 1 13.8951 13.894 0.280228 
60 1 8.54958 10.2639 5.63358 
70 1 10.2639 8.55204 5.63336 
80 1 10.263 10.2633 7.35194 
83 1 13.2064 13.2014 2.68803 
92 1 10.9532 10.948 4.94523 
2 1 14.0812 14.0811 14.082 
9 1 10.0764 10.0771 10.0774 
18 1 12.5072 12.5077 12.5076 
25 1 11.6504 11.6507 11.6515 
34 1 15.6111 13.896 13.8959 
42 1 13.8956 15.6105 13.8958 
50 1 13.8958 13.896 15.6123 
57 1 8.54764 10.2627 10.2628 
65 1 10.2627 8.54788 10.2629 
73 1 10.2628 10.2627 8.54866 
82 1 13.2073 13.2066 13.2068 
89 1 10.9523 10.9516 10.9504 
ITEM: TIMESTEP
40
ITEM: NUMBER OF ATOMS
97
ITEM: BOX BOUNDS pp pp pp
0.0000000000000000e+00 1.6524999999999999e+01
0.0000000000000000e+00 1.6526000000000000e+01
0.0000000000000000e+00 1.6526000000000000e+01
ITEM: ATOMS id type x y z 
1 1 1.73075 1.78034 1.73015 
10 1 5.83738 5.83791 5.83835 
17 1 3.48254 3.46512 3.48283 
26 1 4.29152 4.25723 4.29102 
33 1 0.19029 1.96007 1.98328 
41 1 1.9997 0.240559 1.99947 
49 1 1.98344 1.96002 0.189562 
58 1 7.37263 5.6293 5.62849 
66 1 5.62791 7.37604 5.62777 
74 1 5.62861 5.62936 7.37231 
81 1 2.74633 2.85944 2.74707 
90 1 4.99406 4.98394 4.99354 
97 2 1.96392 2.89521 1.96386 
4 1 1.80501 1.80099 14.0056 
11 1 5.82731 5.82803 10.0863 
20 1 3.39869 3.39909 12.4943 
27 1 4.25479 4.25489 11.647 
36 1 0.272136 2.00235 13.8651 
46 1 2.00226 0.267606 13.8625 
56 1 2.02264 1.98848 15.5267 
59 1 7.35865 5.63345 10.268 
69 1 5.6335 7.35829 10.2678 
79 1 5.62643 5.62681 8.56149 
84 1 2.68772 2.68607 13.1692 
91 1 4.95657 4.95733 10.9521 
6 1 1.81058 14.0478 1.81171 
13 1 5.82388 10.0901 5.8263 
22 1 3.39113 12.4995 3.3928 
29 1 4.2478 11.6497 4.24939 
38 1 0.280598 13.8799 2.00144 
48 1 2.01862 15.5739 2.01842 
52 1 2.00158 13.8799 0.278378 
61 1 7.35693 10.2684 5.63336 
71 1 5.62613 8.56531 5.62612 
75 1 5.63357 10.2682 7.35607 
86 1 2.68826 13.1882 2.68536 
93 1 4.95325 10.9567 4.94982 
7 1 1.81211 14.0724 14.0814 
16 1 5.8226 10.0808 10.0793 
23 1 3.39012 12.5072 12.5059 
32 1 4.24596 11.6503 11.651 
39 1 0.281194 13.8926 13.8949 
43 1 2.00337 15.5991 13.8863 
53 1 2.00165 13.8877 15.6113 
64 1 7.35349 10.2645 10.2642 
68 1 5.63197 8.55307 10.2655 
78 1 5.63241 10.2655 8.54967 
87 1 2.68793 13.2024 13.2068 
96 1 4.94804 10.9535 10.9517 
8 1 14.0055 1.80115 1.80532 
15 1 10.0862 5.82731 5.8287 
24 1 12.4942 3.3994 3.39907 
31 1 11.6469 4.25476 4.25518 
40 1 15.5265 1.98865 2.0226 
44 1 13.8622 0.266939 2.00218 
54 1 13.8647 2.00249 0.269327 
63 1 8.56304 5.62707 5.62667 
67 1 10.2677 7.35834 5.63351 
77 1 10.2678 5.63372 7.35755 
88 1 13.1689 2.68607 2.68765 
95 1 10.9518 4.95786 4.95579 
5 1 14.0742 1.81068 14.0751 
14 1 10.081 5.82416 10.0804 
21 1 12.5063 3.3905 12.5051 
30 1 11.6516 4.2475 11.6501 
37 1 15.602 2.00414 13.8857 
47 1 13.8927 0.280026 13.8928 
51 1 13.8856 2.00402 15.6027 
62 1 8.55179 5.63196 10.2659 
72 1 10.2645 7.35431 10.2646 
76 1 10.266 5.63182 8.55066 
85 1 13.203 2.68804 13.2041 
94 1 10.9495 4.94697 10.953 
3 1 14.0802 14.0736 1.8123 
12 1 10.0791 10.0808 5.82294 
19 1 12.5057 12.5076 3.3901 
28 1 11.6509 11.6502 4.24639 
35 1 15.6099 13.8874 2.00149 
45 1 13.8862 15.5982 2.003 
55 1 13.8947 13.8925 0.27951 
60 1 8.55075 10.2654 5.63267 
70 1 10.2655 8.55349 5.63229 
80 1 10.2641 10.2645 7.35172 
83 1 13.2067 13.2017 2.6878 
92 1 10.9521 10.9531 4.94758 
2 1 14.0813 14.0803 14.0825 
9 1 10.0767 10.0788 10.0782 
18 1 12.5079 12.5072 12.5083 
25 1 11.6507 11.6522 11.6509 
34 1 15.6112 13.895 13.8952 
42 1 13.8946 15.6106 13.895 
50 1 13.8951 13.8953 15.612 
57 1 8.54821 10.2638 10.2636 
65 1 10.2639 8.54828 10.2639 
73 1 10.2638 10.2639 8.54878 
82 1 13.2069 13.2078 13.2065 
89 1 10.9529 10.9508 10.9526 
ITEM: TIMESTEP
44
ITEM: NUMBER OF ATOMS
97
ITEM: BOX BOUNDS pp pp pp
0.0000000000000000e+00 1.6524999999999999e+01
0.0000000000000000e+00 1.6526000000000000e+01
0.0000000000000000e+00 1.6526000000000000e+01
ITEM: ATOMS id type x y z 
1 1 1.72318 1.77968 1.72246 
10 1 5.84248 5.84428 5.84389 
17 1 3.48986 3.47027 3.48928 
26 1 4.30373 4.26127 4.30319 
33 1 0.181506 1.95484 1.97727 
41 1 1.99642 0.237642 1.99604 
49 1 1.97749 1.9548 0.180864 
58 1 7.37482 5.63062 5.62978 
66 1 5.62965 7.37669 5.62926 
74 1 5.63014 5.63075 7.37331 
81 1 2.75454 2.85964 2.75585 
90 1 5.00025 4.99272 5.00075 
97 2 1.97116 2.88351 1.97099 
4 1 1.80419 1.79781 13.997 
11 1 5.8293 5.82978 10.0893 
20 1 3.39826 3.39803 12.4901 
27 1 4.25659 4.2567 11.6485 
36 1 0.269821 2.00203 13.8579 
46 1 2.00245 0.264155 13.8545 
56 1 2.01938 1.98267 15.5201 
59 1 7.3595 5.63324 10.2708 
69 1 5.63333 7.36052 10.2704 
79 1 5.62447 5.62529 8.56918 
84 1 2.68591 2.68436 13.163 
91 1 4.95792 4.95951 10.9536 
6 1 1.81115 14.0487 1.8117 
13 1 5.82483 10.0943 5.82701 
22 1 3.38929 12.4982 3.39219 
29 1 4.2472 11.6507 4.24999 
38 1 0.279849 13.8777 2.00189 
48 1 2.01777 15.5793 2.01768 
52 1 2.0017 13.8778 0.281503 
61 1 7.35619 10.2713 5.63323 
71 1 5.62382 8.57298 5.62402 
75 1 5.63313 10.2713 7.35599 
86 1 2.68779 13.1858 2.68259 
93 1 4.95495 10.9599 4.9493 
7 1 1.81159 14.0701 14.0826 
16 1 5.82313 10.0828 10.0794 
23 1 3.3895 12.5074 12.5063 
32 1 4.24547 11.6509 11.6512 
39 1 0.280958 13.8913 13.8945 
43 1 2.00362 15.5967 13.8817 
53 1 2.00163 13.8847 15.6097 
64 1 7.35313 10.2657 10.2654 
68 1 5.63102 8.55388 10.2676 
78 1 5.63185 10.2674 8.55175 
87 1 2.68663 13.2008 13.2075 
96 1 4.94886 10.9551 10.9528 
8 1 13.9965 1.79733 1.80344 
15 1 10.0899 5.82883 5.83028 
24 1 12.49 3.39833 3.39794 
31 1 11.6475 4.2559 4.25642 
40 1 15.5195 1.9828 2.01927 
44 1 13.8544 0.26378 2.00225 
54 1 13.8574 2.00208 0.270195 
63 1 8.5687 5.62537 5.6246 
67 1 10.2703 7.36064 5.63329 
77 1 10.2705 5.63337 7.35817 
88 1 13.1636 2.68404 2.68682 
95 1 10.9548 4.96085 4.95761 
5 1 14.0734 1.81006 14.0745 
14 1 10.0823 5.82462 10.0812 
21 1 12.5074 3.38981 12.5043 
30 1 11.6532 4.24816 11.6499 
37 1 15.6021 2.00449 13.8811 
47 1 13.8918 0.278889 13.8917 
51 1 13.8814 2.00426 15.5995 
62 1 8.55501 5.63137 10.2678 
72 1 10.266 7.35441 10.2659 
76 1 10.2684 5.63109 8.55378 
85 1 13.2011 2.68685 13.2052 
94 1 10.9479 4.94584 10.9555 
3 1 14.0814 14.0717 1.81184 
12 1 10.0799 10.083 5.82316 
19 1 12.5058 12.5075 3.38956 
28 1 11.652 11.6504 4.24519 
35 1 15.611 13.8844 2.00131 
45 1 13.8816 15.5964 2.00312 
55 1 13.8943 13.8911 0.281177 
60 1 8.55156 10.2674 5.6319 
70 1 10.2678 8.55336 5.63122 
80 1 10.2654 10.2657 7.35487 
83 1 13.2077 13.2008 2.68648 
92 1 10.952 10.9556 4.94896 
2 1 14.0815 14.0808 14.0819 
9 1 10.0774 10.0794 10.0784 
18 1 12.5086 12.5073 12.5086 
25 1 11.6508 11.6533 11.6511 
34 1 15.6109 13.8939 13.8947 
42 1 13.8937 15.6105 13.8943 
50 1 13.8943 13.8941 15.61 
57 1 8.54876 10.265 10.2646 
65 1 10.2647 8.55083 10.2649 
73 1 10.2647 10.2652 8.54697 
82 1 13.2066 13.2087 13.2067 
89 1 10.954 10.9497 10.9538 
ITEM: TIMESTEP
50
ITEM: NUMBER OF ATOMS
97
ITEM: BOX BOUNDS pp pp pp
0.0000000000000000e+00 1.6524999999999999e+01
0.0000000000000000e+00 1.6526000000000000e+01
0.0000000000000000e+00 1.6526000000000000e+01
ITEM: ATOMS id type x y z 
1 1 1.71926 1.77957 1.71873 
10 1 5.84687 5.85242 5.84666 
17 1 3.4923 3.47022 3.49195 
26 1 4.30451 4.26681 4.30415 
33 1 0.178245 1.95237 1.97313 
41 1 1.99428 0.241154 1.99398 
49 1 1.97345 1.95234 0.177808 
58 1 7.37901 5.6317 5.63047 
66 1 5.63001 7.38397 5.62999 
74 1 5.63042 5.63163 7.37956 
81 1 2.75759 2.85942 2.75924 
90 1 5.00776 4.98801 5.00744 
97 2 1.97854 2.87652 1.97834 
4 1 1.80356 1.79583 13.9926 
11 1 5.83119 5.83058 10.0928 
20 1 3.39793 3.39778 12.4878 
27 1 4.25707 4.25694 11.6484 
36 1 0.269025 2.00179 13.8533 
46 1 2.00259 0.262088 13.8497 
56 1 2.01689 1.97935 15.5149 
59 1 7.36141 5.63342 10.272 
69 1 5.63331 7.36184 10.2719 
79 1 5.62468 5.62517 8.56875 
84 1 2.68568 2.68326 13.1598 
91 1 4.95905 4.96145 10.9556 
6 1 1.81209 14.0496 1.81101 
13 1 5.82722 10.098 5.82571 
22 1 3.38893 12.4958 3.38957 
29 1 4.24877 11.6527 4.24851 
38 1 0.281192 13.8763 2.00191 
48 1 2.0169 15.5756 2.01673 
52 1 2.0018 13.8766 0.27962 
61 1 7.35756 10.2727 5.63313 
71 1 5.62384 8.57289 5.62385 
75 1 5.63271 10.2729 7.35813 
86 1 2.68648 13.1881 2.68499 
93 1 4.95196 10.96 4.95177 
7 1 1.81101 14.0692 14.0824 
16 1 5.82357 10.0833 10.0807 
23 1 3.38816 12.5056 12.5062 
32 1 4.24704 11.6524 11.6516 
39 1 0.279717 13.8899 13.8944 
43 1 2.00358 15.594 13.8791 
53 1 2.00172 13.8832 15.6124 
64 1 7.35425 10.2667 10.2658 
68 1 5.63109 8.55585 10.2687 
78 1 5.63186 10.2691 8.55081 
87 1 2.68801 13.2017 13.2081 
96 1 4.94705 10.9538 10.9521 
8 1 13.9924 1.79622 1.80281 
15 1 10.0934 5.83216 5.82985 
24 1 12.4884 3.39762 3.39826 
31 1 11.6493 4.25825 4.25629 
40 1 15.5148 1.97937 2.01667 
44 1 13.8494 0.262091 2.00228 
54 1 13.8532 2.00162 0.267683 
63 1 8.56901 5.62517 5.62466 
67 1 10.272 7.36142 5.63347 
77 1 10.2724 5.6331 7.36154 
88 1 13.1592 2.6828 2.68495 
95 1 10.9542 4.95904 4.95933 
5 1 14.0735 1.81047 14.0744 
14 1 10.0818 5.82422 10.0828 
21 1 12.5055 3.3892 12.5053 
30 1 11.651 4.24658 11.6514 
37 1 15.5991 2.00418 13.8787 
47 1 13.8908 0.278471 13.8911 
51 1 13.8784 2.00416 15.6013 
62 1 8.55353 5.63141 10.2693 
72 1 10.2668 7.35626 10.2666 
76 1 10.2698 5.63111 8.55392 
85 1 13.2044 2.68748 13.2028 
94 1 10.9522 4.94836 10.9536 
3 1 14.0816 14.069 1.81022 
12 1 10.0805 10.0831 5.82364 
19 1 12.506 12.5057 3.38797 
28 1 11.6515 11.6519 4.24706 
35 1 15.6105 13.8831 2.00165 
45 1 13.8788 15.5943 2.00336 
55 1 13.8942 13.89 0.278789 
60 1 8.55127 10.269 5.63202 
70 1 10.2686 8.55685 5.63125 
80 1 10.2658 10.2668 7.35282 
83 1 13.2079 13.2017 2.68826 
92 1 10.9523 10.954 4.94719 
2 1 14.081 14.0815 14.0815 
9 1 10.0784 10.0787 10.0784 
18 1 12.5076 12.509 12.5077 
25 1 11.652 11.651 11.6521 
34 1 15.6107 13.8935 13.8942 
42 1 13.8933 15.6097 13.8936 
50 1 13.894 13.8935 15.6117 
57 1 8.54892 10.2655 10.2653 
65 1 10.2653 8.54968 10.2654 
73 1 10.2652 10.2656 8.55038 
82 1 13.2077 13.2065 13.2078 
89 1 10.9524 10.9529 10.9525 
ITEM: TIMESTEP
60
ITEM: NUMBER OF ATOMS
97
ITEM: BOX BOUNDS pp pp pp
0.0000000000000000e+00 1.6524999999999999e+01
0.0000000000000000e+00 1.6526000000000000e+01
0.0000000000000000e+00 1.6526000000000000e+01
ITEM: ATOMS id type x y z 
1 1 1.70369 1.77686 1.70211 
10 1 5.86054 5.85828 5.85987 
17 1 3.50627 3.47938 3.50659 
26 1 4.32593 4.27145 4.3221 
33 1 0.162236 1.94312 1.957 
41 1 1.98568 0.241727 1.9854 
49 1 1.95748 1.94318 0.161447 
58 1 7.38757 5.63832 5.6359 
66 1 5.63446 7.39153 5.63433 
74 1 5.63613 5.63827 7.38672 
81 1 2.77732 2.8534 2.78103 
90 1 5.01657 5.00584 5.02028 
97 2 1.99839 2.84771 1.99803 
4 1 1.79828 1.78819 13.9738 
11 1 5.83238 5.83869 10.1016 
20 1 3.39554 3.39618 12.4811 
27 1 4.25811 4.26324 11.6539 
36 1 0.26651 1.9991 13.8366 
46 1 2.00213 0.255979 13.8316 
56 1 2.00518 1.96684 15.5002 
59 1 7.36341 5.63408 10.28 
69 1 5.63431 7.36583 10.2791 
79 1 5.62554 5.62679 8.5809 
84 1 2.68384 2.67484 13.1462 
91 1 4.96269 4.9593 10.955 
6 1 1.81088 14.0508 1.81311 
13 1 5.82694 10.1104 5.83029 
22 1 3.38752 12.4953 3.38661 
29 1 4.24743 11.6552 4.24717 
38 1 0.281032 13.8726 2.00239 
48 1 2.01356 15.582 2.013 
52 1 2.00315 13.8722 0.281627 
61 1 7.35892 10.2818 5.63239 
71 1 5.62331 8.58672 5.62313 
75 1 5.63317 10.2815 7.35811 
86 1 2.68419 13.1889 2.68456 
93 1 4.95069 10.9636 4.9509 
7 1 1.81077 14.0631 14.0842 
16 1 5.82417 10.0877 10.08 
23 1 3.39089 12.5054 12.5088 
32 1 4.24418 11.6519 11.65 
39 1 0.280473 13.8859 13.8937 
43 1 2.00398 15.589 13.8675 
53 1 2.00216 13.8777 15.6113 
64 1 7.3543 10.2697 10.2682 
68 1 5.63027 8.55975 10.2732 
78 1 5.63121 10.2741 8.55461 
87 1 2.68083 13.1958 13.2058 
96 1 4.95327 10.9584 10.9552 
8 1 13.9738 1.78753 1.79821 
15 1 10.1006 5.83297 5.8372 
24 1 12.479 3.39731 3.39324 
31 1 11.6487 4.25666 4.2608 
40 1 15.4991 1.9668 2.00471 
44 1 13.8311 0.255622 2.00188 
54 1 13.8357 1.99953 0.265595 
63 1 8.58085 5.62689 5.62554 
67 1 10.2787 7.36521 5.63413 
77 1 10.2795 5.63461 7.36297 
88 1 13.1492 2.67513 2.6878 
95 1 10.9625 4.97112 4.95969 
5 1 14.0725 1.81006 14.0715 
14 1 10.086 5.82583 10.085 
21 1 12.5075 3.3893 12.5035 
30 1 11.6499 4.24611 11.6535 
37 1 15.5994 2.00409 13.8676 
47 1 13.8885 0.278152 13.8886 
51 1 13.8676 2.00395 15.5962 
62 1 8.55963 5.63046 10.2751 
72 1 10.2696 7.35653 10.2701 
76 1 10.2747 5.6308 8.55884 
85 1 13.198 2.6826 13.2042 
94 1 10.9579 4.95117 10.953 
3 1 14.0857 14.0647 1.8129 
12 1 10.0807 10.0902 5.82506 
19 1 12.5099 12.5066 3.3931 
28 1 11.6496 11.6549 4.24501 
35 1 15.6129 13.8776 2.00177 
45 1 13.8672 15.5882 2.00349 
55 1 13.8935 13.8858 0.280571 
60 1 8.5545 10.2745 5.63133 
70 1 10.2738 8.55731 5.63036 
80 1 10.2683 10.27 7.35694 
83 1 13.2039 13.1937 2.6759 
92 1 10.9568 10.9543 4.95082 
2 1 14.081 14.0792 14.0806 
9 1 10.0782 10.082 10.0792 
18 1 12.5098 12.5046 12.5094 
25 1 11.6504 11.6553 11.6507 
34 1 15.6096 13.8901 13.893 
42 1 13.8908 15.6094 13.8916 
50 1 13.8925 13.8903 15.6097 
57 1 8.5492 10.2685 10.2673 
65 1 10.268 8.55287 10.2676 
73 1 10.2674 10.2686 8.54788 
82 1 13.2039 13.2129 13.2047 
89 1 10.9556 10.9472 10.9555 
ITEM: TIMESTEP
70
ITEM: NUMBER OF ATOMS
97
ITEM: BOX BOUNDS pp pp pp
0.0000000000000000e+00 1.6524999999999999e+01
0.0000000000000000e+00 1.6526000000000000e+01
0.0000000000000000e+00 1.6526000000000000e+01
ITEM: ATOMS id type x y z 
1 1 1.69761 1.77658 1.69588 
10 1 5.86378 5.86949 5.86352 
17 1 3.51036 3.47801 3.51032 
26 1 4.32588 4.27999 4.32389 
33 1 0.15739 1.94048 1.95 
41 1 1.98232 0.246641 1.9818 
49 1 1.95089 1.94071 0.156233 
58 1 7.39253 5.6412 5.63854 
66 1 5.63678 7.39883 5.63684 
74 1 5.63845 5.64129 7.39235 
81 1 2.78182 2.84881 2.78859 
90 1 5.02923 5.00046 5.02821 
97 2 2.00826 2.8346 2.00779 
4 1 1.79804 1.78478 13.969 
11 1 5.8367 5.83654 10.1048 
20 1 3.3965 3.39484 12.479 
27 1 4.25924 4.25891 11.6498 
36 1 0.264922 1.99808 13.8298 
46 1 2.00234 0.251713 13.8246 
56 1 1.99975 1.96275 15.4929 
59 1 7.3656 5.63478 10.2826 
69 1 5.63427 7.36721 10.2819 
79 1 5.6273 5.62865 8.58167 
84 1 2.68066 2.67513 13.1419 
91 1 4.96267 4.96861 10.9633 
6 1 1.81206 14.0519 1.81093 
13 1 5.82867 10.1129 5.82886 
22 1 3.38679 12.4951 3.38573 
29 1 4.24625 11.6556 4.24701 
38 1 0.28201 13.8715 2.00319 
48 1 2.01189 15.579 2.01156 
52 1 2.00331 13.8716 0.280107 
61 1 7.36033 10.2848 5.6326 
71 1 5.62482 8.58847 5.62469 
75 1 5.63244 10.2847 7.35987 
86 1 2.68397 13.1902 2.68438 
93 1 4.95217 10.9664 4.95099 
7 1 1.80896 14.0616 14.0834 
16 1 5.82546 10.0882 10.0823 
23 1 3.3865 12.5029 12.5065 
32 1 4.24801 11.6538 11.6529 
39 1 0.278226 13.8835 13.8937 
43 1 2.00352 15.5841 13.8633 
53 1 2.00224 13.8758 15.6137 
64 1 7.3563 10.2718 10.269 
68 1 5.63084 8.56231 10.2754 
78 1 5.63166 10.2776 8.55374 
87 1 2.68487 13.1965 13.2099 
96 1 4.94926 10.9575 10.9519 
8 1 13.9672 1.78535 1.79583 
15 1 10.1053 5.83785 5.83608 
24 1 12.4771 3.39447 3.39512 
31 1 11.6518 4.26152 4.25845 
40 1 15.4935 1.96277 1.99931 
44 1 13.8244 0.251883 2.00202 
54 1 13.8298 1.99804 0.263264 
63 1 8.58235 5.62877 5.62737 
67 1 10.2819 7.36712 5.6348 
77 1 10.2829 5.6347 7.36575 
88 1 13.1439 2.6739 2.68345 
95 1 10.9612 4.96602 4.96309 
5 1 14.071 1.80885 14.0713 
14 1 10.087 5.82768 10.0873 
21 1 12.5039 3.38652 12.5042 
30 1 11.6533 4.24768 11.6529 
37 1 15.5955 2.00324 13.8634 
47 1 13.8874 0.277913 13.8878 
51 1 13.863 2.00314 15.5975 
62 1 8.55914 5.63129 10.2776 
72 1 10.2711 7.35819 10.2711 
76 1 10.2776 5.6311 8.55909 
85 1 13.2023 2.68469 13.2028 
94 1 10.9547 4.94985 10.9548 
3 1 14.0832 14.0616 1.8086 
12 1 10.0821 10.0891 5.82603 
19 1 12.5068 12.5026 3.3864 
28 1 11.6528 11.6542 4.24876 
35 1 15.6117 13.8757 2.00209 
45 1 13.8629 15.5841 2.00319 
55 1 13.8936 13.8838 0.277082 
60 1 8.55368 10.2773 5.6317 
70 1 10.2753 8.56201 5.63098 
80 1 10.2691 10.2717 7.35445 
83 1 13.2082 13.1964 2.68365 
92 1 10.9527 10.9565 4.94886 
2 1 14.0796 14.0805 14.0804 
9 1 10.0798 10.0808 10.0797 
18 1 12.5071 12.5094 12.5074 
25 1 11.6532 11.6508 11.6531 
34 1 15.6083 13.8894 13.8926 
42 1 13.8903 15.6087 13.8907 
50 1 13.8924 13.8896 15.6095 
57 1 8.55033 10.2694 10.2683 
65 1 10.2687 8.55183 10.2689 
73 1 10.2682 10.2696 8.55185 
82 1 13.2074 13.2072 13.2074 
89 1 10.9526 10.9535 10.953 
ITEM: TIMESTEP
80
ITEM: NUMBER OF ATOMS
97
ITEM: BOX BOUNDS pp pp pp
0.0000000000000000e+00 1.6524999999999999e+01
0.0000000000000000e+00 1.6526000000000000e+01
0.0000000000000000e+00 1.6526000000000000e+01
ITEM: ATOMS id type x y z 
1 1 1.69251 1.77581 1.69045 
10 1 5.86838 5.87184 5.86811 
17 1 3.51418 3.47913 3.51411 
26 1 4.33235 4.2799 4.32902 
33 1 0.152508 1.93844 1.94408 
41 1 1.97945 0.246221 1.97873 
49 1 1.94544 1.93882 0.151167 
58 1 7.39525 5.64417 5.64118 
66 1 5.6391 7.40106 5.63901 
74 1 5.6411 5.6441 7.39511 
81 1 2.78609 2.84396 2.79745 
90 1 5.03051 5.00798 5.02887 
97 2 2.01555 2.82306 2.01496 
4 1 1.79552 1.78164 13.9617 
11 1 5.83702 5.83998 10.1085 
20 1 3.39527 3.39339 12.4749 
27 1 4.25961 4.26112 11.6518 
36 1 0.263647 1.99666 13.8244 
46 1 2.00202 0.249164 13.819 
56 1 1.9952 1.95981 15.4882 
59 1 7.36719 5.63524 10.2856 
69 1 5.63515 7.3687 10.2844 
79 1 5.62888 5.63064 8.58557 
84 1 2.68105 2.67336 13.1408 
91 1 4.96338 4.96778 10.9634 
6 1 1.81133 14.053 1.81167 
13 1 5.82825 10.1151 5.82914 
22 1 3.38587 12.4958 3.38654 
29 1 4.2452 11.6546 4.24584 
38 1 0.2822 13.8708 2.00328 
48 1 2.01038 15.5813 2.01005 
52 1 2.00348 13.8709 0.28126 
61 1 7.36032 10.288 5.63259 
71 1 5.62574 8.59153 5.62567 
75 1 5.63267 10.288 7.36036 
86 1 2.68404 13.1904 2.68164 
93 1 4.95356 10.9716 4.95218 
7 1 1.80876 14.0593 14.0843 
16 1 5.82563 10.0899 10.0817 
23 1 3.3873 12.5015 12.5081 
32 1 4.24706 11.6543 11.6514 
39 1 0.277706 13.8818 13.8934 
43 1 2.00335 15.5818 13.8596 
53 1 2.00232 13.8744 15.6129 
64 1 7.35619 10.273 10.2698 
68 1 5.63114 8.56296 10.2769 
78 1 5.63176 10.2797 8.55406 
87 1 2.6837 13.196 13.2088 
96 1 4.95077 10.957 10.9536 
8 1 13.9628 1.78074 1.79685 
15 1 10.1085 5.83971 5.83667 
24 1 12.4758 3.39337 3.39698 
31 1 11.6514 4.26269 4.25844 
40 1 15.4887 1.95961 1.99435 
44 1 13.8189 0.249438 2.00141 
54 1 13.8241 1.99683 0.26253 
63 1 8.58579 5.63078 5.62897 
67 1 10.2846 7.36873 5.63518 
77 1 10.2858 5.63526 7.36706 
88 1 13.1393 2.67316 2.67862 
95 1 10.9637 4.96563 4.96456 
5 1 14.0702 1.80916 14.0711 
14 1 10.087 5.82689 10.0877 
21 1 12.5036 3.38699 12.5047 
30 1 11.6523 4.24645 11.653 
37 1 15.5947 2.00268 13.8598 
47 1 13.8864 0.277257 13.8868 
51 1 13.8595 2.00266 15.5957 
62 1 8.56047 5.63168 10.2796 
72 1 10.2723 7.35887 10.2724 
76 1 10.2797 5.63158 8.56036 
85 1 13.2025 2.68324 13.2012 
94 1 10.9567 4.95226 10.9554 
3 1 14.0832 14.0596 1.80792 
12 1 10.0821 10.0896 5.82547 