ITEM: TIMESTEP
0
ITEM: NUMBER OF ATOMS
129
ITEM: BOX BOUNDS xy xz yz pp pp pp
0.0000000000000000e+00 2.3654499999999999e+01 7.8845000000000001e+00
0.0000000000000000e+00 1.3658086643083999e+01 0.0000000000000000e+00
0.0000000000000000e+00 2.5747000000000000e+01 0.0000000000000000e+00
ITEM: ATOMS id type x y z 
18 1 10.522 6.683 2.644 
28 1 5.247 4.273 12.803 
31 1 9.65 6.514 0.446 
62 1 9.171 5.15 12.405 
91 1 9.65 6.514 11.889 
92 1 10.81 6.18 11.007 
106 1 10.522 6.683 9.691 
127 1 10.81 6.18 1.328 
4 1 4.402 5.735 13.319 
5 1 3.307 5.568 14.201 
43 1 4.549 6.796 15.517 
52 1 9.172 5.15 25.677 
66 1 4.402 5.735 24.762 
67 1 5.003 6.76 23.881 
88 1 5.247 4.273 25.278 
107 1 3.307 5.568 23.881 
116 1 4.549 6.796 22.565 
117 1 5.003 6.76 14.201 
11 1 11.272 7.494 3.321 
12 1 10.477 8.871 4.018 
14 1 9.018 11.397 0.446 
15 1 10.114 11.565 1.328 
16 1 8.412 9.024 0.654 
19 1 10.477 8.871 5.569 
29 1 10.927 10.156 3.321 
32 1 8.77 7.648 1.328 
35 1 12.036 9.594 2.644 
45 1 9.231 8.963 3.321 
47 1 12.762 8.702 0.446 
49 1 11.224 11 0.654 
51 1 8.872 10.337 2.644 
53 1 11.272 7.494 9.014 
54 1 10.477 8.871 8.317 
56 1 9.018 11.397 11.889 
57 1 8.418 10.372 11.007 
58 1 11.224 11 11.681 
60 1 12.255 7.901 9.691 
61 1 10.477 8.871 6.766 
73 1 9.231 8.963 9.014 
75 1 12.762 8.702 11.889 
76 1 12.202 10.061 11.007 
79 1 9.224 7.617 9.691 
80 1 8.174 12.859 12.405 
89 1 10.927 10.156 9.014 
93 1 8.412 9.024 11.681 
95 1 9.951 11.095 9.691 
105 1 10.114 11.565 11.007 
109 1 8.77 7.648 11.007 
110 1 12.036 9.594 9.691 
114 1 8.872 10.337 9.691 
119 1 8.418 10.372 1.328 
120 1 12.255 7.901 2.644 
123 1 12.202 10.061 1.328 
124 1 9.224 7.617 2.644 
128 1 9.951 11.095 2.644 
6 1 5.009 8.108 13.527 
13 1 9.663 10.28 25.128 
17 1 9.204 8.965 25.162 
30 1 10.016 7.556 25.128 
34 1 11.289 7.464 25.162 
36 1 8.174 12.859 25.677 
46 1 11.752 8.777 25.128 
50 1 10.937 10.184 25.162 
55 1 9.663 10.28 12.954 
59 1 10.937 10.184 12.919 
74 1 11.752 8.777 12.954 
78 1 11.289 7.464 12.919 
90 1 10.016 7.556 12.954 
94 1 9.204 8.965 12.919 
101 1 5.009 8.108 24.555 
33 1 11.795 6.589 0.654 
77 1 11.795 6.589 11.681 
41 1 17.967 6.132 13.527 
68 1 17.967 6.132 24.554 
103 1 19.24 6.037 22.565 
126 1 19.24 6.037 15.517 
3 1 19.528 6.852 12.254 
7 1 19.987 8.167 12.289 
10 1 15.106 8.528 12.804 
22 1 19.175 9.576 12.254 
26 1 17.902 9.668 12.289 
38 1 17.439 8.356 12.254 
42 1 18.254 6.949 12.289 
44 1 20.019 11.982 12.804 
48 1 12.546 7.4 1.328 
65 1 19.528 6.852 0.081 
69 1 18.254 6.949 0.046 
82 1 17.439 8.356 0.081 
86 1 17.902 9.668 0.046 
96 1 14.084 8.604 12.405 
98 1 19.175 9.576 0.081 
102 1 19.987 8.167 0.046 
113 1 12.546 7.4 11.007 
1 1 17.919 9.638 16.194 
2 1 18.714 8.261 16.892 
8 1 18.669 10.449 15.517 
9 1 18.714 8.261 18.442 
20 1 14.084 8.604 25.677 
21 1 18.264 6.977 16.194 
23 1 19.541 10.618 13.32 
24 1 20.421 9.484 14.201 
25 1 17.396 10.544 13.527 
27 1 17.155 7.538 15.517 
37 1 19.96 8.169 16.194 
39 1 16.429 8.43 13.319 
40 1 16.644 9.732 14.201 
63 1 17.919 9.638 21.888 
64 1 18.714 8.261 21.19 
70 1 16.936 9.231 22.565 
71 1 18.714 8.261 19.64 
72 1 20.019 11.982 25.278 
81 1 19.96 8.169 21.888 
83 1 16.429 8.43 24.762 
84 1 16.989 7.071 23.881 
85 1 17.396 10.544 24.555 
87 1 19.967 9.515 22.565 
97 1 18.263 6.977 21.888 
99 1 19.541 10.618 24.762 
100 1 18.38 10.953 23.881 
104 1 15.106 8.528 25.278 
108 1 18.669 10.449 22.565 
111 1 20.421 9.484 23.881 
112 1 17.155 7.538 22.565 
115 1 16.644 9.732 23.881 
118 1 16.936 9.231 15.517 
121 1 16.989 7.071 14.201 
122 1 19.967 9.515 15.517 
125 1 18.38 10.953 14.201 
129 2 18.714 9.612 18.442 
ITEM: TIMESTEP
10
ITEM: NUMBER OF ATOMS
129
ITEM: BOX BOUNDS xy xz yz pp pp pp
0.0000000000000000e+00 2.3654499999999999e+01 7.8845000000000001e+00
0.0000000000000000e+00 1.3658086643083999e+01 0.0000000000000000e+00
0.0000000000000000e+00 2.5747000000000000e+01 0.0000000000000000e+00
ITEM: ATOMS id type x y z 
18 1 10.3929 6.74557 2.6709 
28 1 5.13595 4.50093 12.8711 
31 1 9.43644 6.48697 0.415161 
62 1 9.14332 5.26602 12.3721 
91 1 9.44116 6.48382 11.9144 
92 1 10.7564 6.16642 10.9457 
106 1 10.3961 6.74428 9.67645 
127 1 10.7382 6.14429 1.39758 
4 1 4.42486 5.79713 13.2823 
5 1 3.20817 5.60055 14.1923 
43 1 4.60065 6.88066 15.4774 
52 1 9.14479 5.2652 25.7097 
66 1 4.42402 5.79556 24.817 
67 1 5.1036 6.90055 23.913 
88 1 5.13822 4.49846 25.2116 
107 1 3.18166 5.59765 23.8918 
116 1 4.56866 6.94002 22.5769 
117 1 5.09205 6.87378 14.1597 
11 1 11.2147 7.55643 3.40202 
12 1 10.5152 8.83359 4.0744 
14 1 8.99354 11.3314 0.417544 
15 1 10.2212 11.5355 1.30884 
16 1 8.41117 8.93203 0.707201 
19 1 10.4731 8.86862 5.56215 
29 1 10.9461 10.1286 3.32401 
32 1 8.74389 7.68053 1.29438 
35 1 12.0145 9.56327 2.57823 
45 1 9.2313 8.94168 3.26682 
47 1 12.7365 8.7927 0.556503 
49 1 11.3252 10.9456 0.691443 
51 1 8.83971 10.198 2.61972 
53 1 11.2153 7.55071 8.93958 
54 1 10.5025 8.79749 8.23621 
56 1 8.9794 11.3381 11.9248 
57 1 8.33939 10.2346 11.05 
58 1 11.3406 10.9568 11.6452 
60 1 12.3339 8.08158 9.69997 
61 1 10.4724 8.86997 6.77245 
73 1 9.21919 8.94016 9.07088 
75 1 12.7574 8.79057 11.7588 
76 1 12.262 10.0617 11.0193 
79 1 9.22252 7.66202 9.76869 
80 1 8.28444 12.6318 12.3374 
89 1 10.9768 10.1451 8.97244 
93 1 8.4288 8.93733 11.6322 
95 1 10.0104 11.101 9.68208 
105 1 10.2282 11.5419 11.0409 
109 1 8.7399 7.69176 11.0402 
110 1 12.0565 9.53546 9.74247 
114 1 8.82526 10.1892 9.72842 
119 1 8.3416 10.2535 1.29161 
120 1 12.3414 8.08615 2.64177 
123 1 12.227 10.046 1.31359 
124 1 9.21834 7.66419 2.56809 
128 1 10.0443 11.0617 2.64734 
6 1 5.01332 8.18461 13.5601 
13 1 9.63188 10.2772 25.0976 
17 1 9.17293 8.93079 25.1872 
30 1 9.91454 7.688 25.0769 
34 1 11.2753 7.48423 25.1364 
36 1 8.28543 12.629 25.7454 
46 1 11.7128 8.85042 25.0685 
50 1 10.9742 10.1571 25.2067 
55 1 9.59758 10.255 12.9882 
59 1 10.9633 10.1799 12.8978 
74 1 11.6657 8.82368 13.05 
78 1 11.2716 7.45646 12.9395 
90 1 9.9436 7.72207 13.0048 
94 1 9.16827 8.93142 12.8884 
101 1 4.99706 8.17806 24.4856 
33 1 11.8078 6.60428 0.611391 
77 1 11.7858 6.60059 11.7035 
41 1 17.8741 6.18286 13.5549 
68 1 17.8815 6.18367 24.5012 
103 1 19.1522 6.07585 22.5649 
126 1 19.1842 6.03518 15.494 
3 1 19.5614 6.85644 12.2217 
7 1 20.0106 8.18672 12.3135 
10 1 15.1085 8.48534 12.8275 
22 1 19.281 9.43741 12.1917 
26 1 17.9097 9.65584 12.2632 
38 1 17.4715 8.27863 12.1929 
42 1 18.2256 6.97701 12.3345 
44 1 20.0525 11.8793 12.8303 
48 1 12.616 7.55414 1.3973 
65 1 19.5851 6.76953 0.0854249 
69 1 18.2408 6.99758 0.0228268 
82 1 17.4645 8.31218 0.125221 
86 1 17.9013 9.66489 0.0675362 
96 1 14.0795 8.64839 12.3783 
98 1 19.239 9.49344 0.129074 
102 1 20.0094 8.17424 0.0728372 
113 1 12.6098 7.54878 10.9293 
1 1 17.9442 9.56823 16.288 
2 1 18.6578 8.3239 16.8978 
8 1 18.8032 10.3993 15.5101 
9 1 18.7162 8.19144 18.4469 
20 1 14.0805 8.64421 25.7021 
21 1 18.2348 6.97807 16.2138 
23 1 19.7539 10.6645 13.2832 
24 1 20.4697 9.46738 14.1736 
25 1 17.4499 10.5499 13.5492 
27 1 17.1274 7.58044 15.4308 
37 1 19.9848 8.17953 16.1453 
39 1 16.4509 8.34674 13.4217 
40 1 16.5785 9.58914 14.2656 
63 1 17.9591 9.57316 21.8068 
64 1 18.6885 8.27533 21.1484 
70 1 16.8641 9.04951 22.5651 
71 1 18.7173 8.43531 19.684 
72 1 20.0465 11.8661 25.2457 
81 1 19.9491 8.18444 21.9373 
83 1 16.4643 8.33965 24.6673 
84 1 16.9721 7.08656 23.9038 
85 1 17.3617 10.5193 24.5973 
87 1 19.9637 9.46837 22.6255 
97 1 18.243 6.98976 21.884 
99 1 19.7466 10.6503 24.8079 
100 1 18.4673 10.9968 23.7989 
104 1 15.1087 8.48666 25.2519 
108 1 18.8033 10.3868 22.5485 
111 1 20.474 9.45005 23.9063 
112 1 17.169 7.56549 22.6373 
115 1 16.5779 9.58372 23.8171 
118 1 16.85 9.05206 15.5083 
121 1 16.9464 7.0813 14.1846 
122 1 19.968 9.50708 15.4334 
125 1 18.3776 10.9642 14.224 
129 2 18.7177 9.56426 18.5399 
ITEM: TIMESTEP
20
ITEM: NUMBER OF ATOMS
129
ITEM: BOX BOUNDS xy xz yz pp pp pp
0.0000000000000000e+00 2.3654499999999999e+01 7.8845000000000001e+00
0.0000000000000000e+00 1.3658086643083999e+01 0.0000000000000000e+00
0.0000000000000000e+00 2.5747000000000000e+01 0.0000000000000000e+00
ITEM: ATOMS id type x y z 
18 1 10.3632 6.76231 2.64176 
28 1 5.08677 4.62448 12.9018 
31 1 9.42224 6.58047 0.415783 
62 1 9.08533 5.281 12.3818 
91 1 9.46134 6.5477 11.8869 
92 1 10.6702 6.24261 10.9574 
106 1 10.378 6.75926 9.67623 
127 1 10.6384 6.16893 1.35874 
4 1 4.43499 5.83808 13.2689 
5 1 3.16327 5.63065 14.1882 
43 1 4.60827 6.9419 15.4649 
52 1 9.17021 5.27926 25.7664 
66 1 4.43741 5.8139 24.7891 
67 1 5.08896 6.96074 23.8965 
88 1 5.09447 4.6107 25.1842 
107 1 3.15097 5.64047 23.8669 
116 1 4.60082 6.95626 22.5997 
117 1 5.09149 6.94608 14.1688 
11 1 11.2323 7.56362 3.40583 
12 1 10.5157 8.81449 4.06582 
14 1 9.00885 11.2808 0.406703 
15 1 10.2576 11.48 1.32865 
16 1 8.34517 8.9132 0.689937 
19 1 10.4736 8.86593 5.56507 
29 1 10.9394 10.1215 3.32728 
32 1 8.67068 7.65976 1.30034 
35 1 12.059 9.58977 2.60535 
45 1 9.21474 8.94514 3.2574 
47 1 12.7213 8.84817 0.516753 
49 1 11.3721 10.9466 0.662074 
51 1 8.84674 10.1762 2.59351 
53 1 11.2321 7.568 8.92499 
54 1 10.5176 8.79 8.26078 
56 1 8.99571 11.2846 11.9429 
57 1 8.32495 10.1725 11.0316 
58 1 11.3771 10.9107 11.6823 
60 1 12.3058 8.09468 9.64417 
61 1 10.4701 8.86092 6.75766 
73 1 9.22149 8.9419 9.08763 
75 1 12.7201 8.84925 11.8195 
76 1 12.3107 10.0989 11.0078 
79 1 9.17769 7.68129 9.77713 
80 1 8.3363 12.5046 12.3052 
89 1 10.9438 10.1102 9.00228 
93 1 8.3551 8.90118 11.6457 
95 1 10.0513 11.0178 9.68425 
105 1 10.2742 11.508 11.021 
109 1 8.69098 7.6495 11.0515 
110 1 12.0724 9.61045 9.71565 
114 1 8.83002 10.1738 9.73697 
119 1 8.34616 10.1773 1.30672 
120 1 12.3158 8.08778 2.6708 
123 1 12.2967 10.0862 1.32904 
124 1 9.18773 7.66712 2.57214 
128 1 10.0461 11.0178 2.62926 
6 1 5.08015 8.23394 13.564 
13 1 9.63242 10.2313 25.0892 
17 1 9.14859 8.93332 25.1598 
30 1 9.91786 7.71824 25.0611 
34 1 11.269 7.52596 25.1961 
36 1 8.3396 12.4968 25.778 
46 1 11.6621 8.85956 25.0784 
50 1 10.9887 10.1372 25.1825 
55 1 9.62342 10.2417 12.9985 
59 1 10.9802 10.1322 12.8979 
74 1 11.6385 8.84704 13.009 
78 1 11.2711 7.51484 12.8859 
90 1 9.92439 7.72034 13.0125 
94 1 9.14577 8.93571 12.92 
101 1 5.05125 8.22816 24.5101 
33 1 11.7513 6.72833 0.645904 
77 1 11.7482 6.71267 11.6946 
41 1 17.8024 6.18761 13.5291 
68 1 17.8353 6.19449 24.5278 
103 1 19.1716 6.08184 22.5949 
126 1 19.1656 6.07717 15.5188 
3 1 19.565 6.89036 12.1802 
7 1 20.056 8.21033 12.2901 
10 1 15.1343 8.45845 12.842 
22 1 19.2915 9.41593 12.1755 
26 1 17.9504 9.58123 12.291 
38 1 17.5225 8.26886 12.2045 
42 1 18.1807 6.99745 12.3073 
44 1 20.1119 11.8577 12.8284 
48 1 12.5932 7.5576 1.38192 
65 1 19.6195 6.80266 0.158815 
69 1 18.2383 7.02842 0.0588256 
82 1 17.5004 8.32163 0.132213 
86 1 17.9082 9.64813 0.0187147 
96 1 14.0466 8.68179 12.359 
98 1 19.246 9.44944 0.144028 
102 1 19.9831 8.18729 0.0778773 
113 1 12.5992 7.54494 10.9431 
1 1 17.9529 9.54704 16.2864 
2 1 18.6807 8.32121 16.9318 
8 1 18.8148 10.3465 15.5323 
9 1 18.7157 8.10145 18.434 
20 1 14.0427 8.67425 25.7207 
21 1 18.2228 7.0131 16.2136 
23 1 19.7829 10.6026 13.2822 
24 1 20.524 9.48455 14.1501 
25 1 17.4606 10.4749 13.57 
27 1 17.0897 7.53453 15.4618 
37 1 19.9819 8.19763 16.1271 
39 1 16.4574 8.31413 13.402 
40 1 16.6183 9.55376 14.2765 
63 1 17.9679 9.53569 21.7975 
64 1 18.6829 8.34678 21.1505 
70 1 16.8815 9.03579 22.5354 
71 1 18.7195 8.55795 19.6205 
72 1 20.0321 11.8526 25.2003 
81 1 19.9512 8.18804 21.9307 
83 1 16.4623 8.27843 24.709 
84 1 16.8999 7.03893 23.893 
85 1 17.4268 10.4236 24.5688 
87 1 20.0244 9.46491 22.6391 
97 1 18.2338 6.99098 21.8157 
99 1 19.7713 10.5555 24.7948 
100 1 18.5551 10.9658 23.8488 
104 1 15.1431 8.45228 25.2365 
108 1 18.8258 10.3708 22.547 
111 1 20.5283 9.45941 23.9145 
112 1 17.0794 7.55279 22.6351 
115 1 16.584 9.58977 23.8117 
118 1 16.8527 9.04423 15.5306 
121 1 16.8803 7.03238 14.1985 
122 1 20.0156 9.48056 15.4162 
125 1 18.405 10.9263 14.2369 
129 2 18.7233 9.56984 18.6076 
ITEM: TIMESTEP
30
ITEM: NUMBER OF ATOMS
129
ITEM: BOX BOUNDS xy xz yz pp pp pp
0.0000000000000000e+00 2.3654499999999999e+01 7.8845000000000001e+00
0.0000000000000000e+00 1.3658086643083999e+01 0.0000000000000000e+00
0.0000000000000000e+00 2.5747000000000000e+01 0.0000000000000000e+00
ITEM: ATOMS id type x y z 
18 1 10.3593 6.76424 2.6404 
28 1 5.08588 4.63268 12.9021 
31 1 9.41342 6.60378 0.412493 
62 1 9.07315 5.28337 12.3855 
91 1 9.45504 6.55532 11.892 
92 1 10.6565 6.25179 10.957 
106 1 10.3687 6.75856 9.6699 
127 1 10.6205 6.17335 1.34513 
4 1 4.41324 5.8615 13.2714 
5 1 3.16197 5.66379 14.1975 
43 1 4.58477 6.9524 15.468 
52 1 9.19099 5.27339 25.789 
66 1 4.4231 5.83826 24.7977 
67 1 5.0837 6.97295 23.901 
88 1 5.0939 4.61819 25.1822 
107 1 3.14791 5.65856 23.8764 
116 1 4.58721 6.95199 22.6037 
117 1 5.08279 6.9579 14.1723 
11 1 11.2302 7.56607 3.39814 
12 1 10.5156 8.80429 4.06121 
14 1 9.01516 11.2705 0.407392 
15 1 10.2652 11.4721 1.32259 
16 1 8.33406 8.90055 0.680835 
19 1 10.473 8.86425 5.56138 
29 1 10.9491 10.1139 3.32949 
32 1 8.65456 7.66302 1.30114 
35 1 12.0704 9.59594 2.6062 
45 1 9.21369 8.94146 3.26325 
47 1 12.7086 8.85193 0.517133 
49 1 11.3817 10.9426 0.657984 
51 1 8.84242 10.1725 2.59782 
53 1 11.236 7.57612 8.91907 
54 1 10.517 8.79483 8.26839 
56 1 9.01019 11.2712 11.9264 
57 1 8.33617 10.1688 11.031 
58 1 11.3778 10.9269 11.6748 
60 1 12.3091 8.09712 9.65997 
61 1 10.4706 8.85945 6.76755 
73 1 9.21293 8.93967 9.08176 
75 1 12.7041 8.85283 11.8109 
76 1 12.3147 10.0923 10.999 
79 1 9.1698 7.67506 9.77388 
80 1 8.33712 12.4965 12.3049 
89 1 10.9504 10.1062 9.00625 
93 1 8.33944 8.89666 11.6549 
95 1 10.0523 11.0181 9.70333 
105 1 10.2687 11.4721 11.013 
109 1 8.67629 7.6446 11.0533 
110 1 12.0807 9.61301 9.71895 
114 1 8.83728 10.1732 9.73993 
119 1 8.33771 10.168 1.3065 
120 1 12.3111 8.08746 2.67126 
123 1 12.3044 10.0898 1.3303 
124 1 9.1779 7.66488 2.57217 
128 1 10.0475 11.023 2.63641 
6 1 5.08906 8.24081 13.5592 
13 1 9.62933 10.231 25.0796 
17 1 9.1384 8.92446 25.1578 
30 1 9.91913 7.72373 25.0583 
34 1 11.266 7.52846 25.2016 
36 1 8.33777 12.4943 25.7766 
46 1 11.6664 8.85869 25.083 
50 1 10.9992 10.1431 25.1838 
55 1 9.61775 10.239 13.0053 
59 1 10.9887 10.1336 12.9021 
74 1 11.652 8.85192 13.0043 
78 1 11.2617 7.52302 12.8878 
90 1 9.91595 7.71767 13.0089 
94 1 9.14052 8.92462 12.9232 
101 1 5.04853 8.22326 24.5232 
33 1 11.7388 6.73278 0.650035 
77 1 11.7601 6.71962 11.6866 
41 1 17.8106 6.18794 13.5315 
68 1 17.8391 6.21287 24.5365 
103 1 19.1482 6.11903 22.5682 
126 1 19.152 6.10791 15.5057 
3 1 19.5597 6.89882 12.1988 
7 1 20.0624 8.19724 12.2863 
10 1 15.1352 8.45364 12.8383 
22 1 19.2915 9.41173 12.1739 
26 1 17.9492 9.58412 12.2832 
38 1 17.528 8.2682 12.2103 
42 1 18.1917 6.99019 12.3095 
44 1 20.1259 11.8543 12.8278 
48 1 12.5851 7.57495 1.38162 
65 1 19.6048 6.82797 0.138256 
69 1 18.2438 7.02591 0.0477622 
82 1 17.5116 8.31099 0.117616 
86 1 17.9079 9.63949 0.0138639 
96 1 14.041 8.68426 12.3585 
98 1 19.2473 9.43291 0.137892 
102 1 19.9887 8.17769 0.0716913 
113 1 12.5884 7.57504 10.938 
1 1 17.9636 9.53405 16.2893 
2 1 18.6881 8.30676 16.9155 
8 1 18.8206 10.3371 15.5288 
9 1 18.7161 8.11236 18.4392 
20 1 14.0433 8.67699 25.7175 
21 1 18.2353 7.02359 16.1941 
23 1 19.7913 10.5924 13.2875 
24 1 20.5285 9.48654 14.147 
25 1 17.4788 10.4786 13.5766 
27 1 17.0971 7.52032 15.474 
37 1 19.9718 8.19416 16.1236 
39 1 16.4683 8.28886 13.4021 
40 1 16.6132 9.55118 14.2775 
63 1 17.9696 9.54453 21.8056 
64 1 18.6688 8.32504 21.1665 
70 1 16.8773 9.02929 22.5484 
71 1 18.7203 8.53978 19.6075 
72 1 20.0108 11.8545 25.1766 
81 1 19.9604 8.19185 21.9337 
83 1 16.4851 8.28439 24.7052 
84 1 16.9 7.03489 23.8896 
85 1 17.4357 10.4128 24.5491 
87 1 20.0212 9.47072 22.6393 
97 1 18.2299 7.02157 21.8644 
99 1 19.7746 10.53 24.8009 
100 1 18.5733 10.955 23.8568 
104 1 15.1419 8.45056 25.24 
108 1 18.8417 10.3572 22.5637 
111 1 20.5388 9.45675 23.9125 
112 1 17.114 7.53108 22.6085 
115 1 16.6043 9.56541 23.8226 
118 1 16.8593 9.03126 15.5481 
121 1 16.8787 7.03133 14.1987 
122 1 20.0176 9.47549 15.4181 
125 1 18.4077 10.9101 14.2389 
129 2 18.7248 9.58341 18.5936 
ITEM: TIMESTEP
40
ITEM: NUMBER OF ATOMS
129
ITEM: BOX BOUNDS xy xz yz pp pp pp
0.0000000000000000e+00 2.3654499999999999e+01 7.8845000000000001e+00
0.0000000000000000e+00 1.3658086643083999e+01 0.0000000000000000e+00
0.0000000000000000e+00 2.5747000000000000e+01 0.0000000000000000e+00
ITEM: ATOMS id type x y z 
18 1 10.3537 6.76394 2.63889 
28 1 5.08671 4.63663 12.9012 
31 1 9.40623 6.62021 0.411238 
62 1 9.062 5.28257 12.3893 
91 1 9.44823 6.56205 11.8935 
92 1 10.649 6.26449 10.9582 
106 1 10.3613 6.7604 9.66538 
127 1 10.6082 6.18464 1.34073 
4 1 4.4064 5.87455 13.2728 
5 1 3.1601 5.67474 14.1939 
43 1 4.58354 6.95752 15.4667 
52 1 9.20157 5.26631 25.8027 
66 1 4.41773 5.84794 24.7945 
67 1 5.08246 6.97842 23.8982 
88 1 5.09604 4.61976 25.1821 
107 1 3.14908 5.67172 23.8761 
116 1 4.58271 6.95886 22.6038 
117 1 5.08234 6.97011 14.1738 
11 1 11.2265 7.56776 3.39226 
12 1 10.5182 8.79724 4.05872 
14 1 9.01987 11.2584 0.40888 
15 1 10.2669 11.4599 1.32173 
16 1 8.32124 8.89633 0.67493 
19 1 10.4727 8.86243 5.56227 
29 1 10.9496 10.1084 3.32632 
32 1 8.64228 7.66073 1.30208 
35 1 12.0781 9.60054 2.6103 
45 1 9.21045 8.93959 3.26252 
47 1 12.7015 8.85811 0.516678 
49 1 11.3885 10.9425 0.653658 
51 1 8.84389 10.169 2.59803 
53 1 11.2364 7.5781 8.92066 
54 1 10.516 8.7935 8.27083 
56 1 9.01681 11.2584 11.9246 
57 1 8.33877 10.1597 11.0308 
58 1 11.3859 10.9297 11.6802 
60 1 12.311 8.10087 9.65353 
61 1 10.4707 8.8585 6.76651 
73 1 9.2085 8.93875 9.08177 
75 1 12.6963 8.86028 11.8125 
76 1 12.3214 10.0937 10.9999 
79 1 9.16362 7.67157 9.77293 
80 1 8.3356 12.4939 12.3057 
89 1 10.9498 10.1042 9.00919 
93 1 8.32709 8.88935 11.6624 
95 1 10.053 11.019 9.69765 
105 1 10.2681 11.4568 11.0148 
109 1 8.66537 7.64369 11.0521 
110 1 12.0897 9.61419 9.71559 
114 1 8.84048 10.1694 9.73992 
119 1 8.33846 10.1616 1.30685 
120 1 12.3102 8.09079 2.67612 
123 1 12.3147 10.0913 1.33183 
124 1 9.17031 7.66512 2.57287 
128 1 10.05 11.024 2.63992 
6 1 5.09982 8.24649 13.5527 
13 1 9.62959 10.2285 25.0771 
17 1 9.13036 8.92314 25.1541 
30 1 9.9185 7.7265 25.055 
34 1 11.263 7.5278 25.2045 
36 1 8.33644 12.4915 25.7756 
46 1 11.6699 8.86014 25.0848 
50 1 11.0012 10.1484 25.1826 
55 1 9.6204 10.2306 13.0078 
59 1 10.9893 10.1386 12.9022 
74 1 11.6611 8.85471 12.9986 
78 1 11.2571 7.5262 12.8839 
90 1 9.91268 7.71677 13.0087 
94 1 9.13506 8.92184 12.9248 
101 1 5.05703 8.22594 24.5292 
33 1 11.7307 6.73355 0.651773 
77 1 11.7573 6.72354 11.6853 
41 1 17.8033 6.18796 13.527 
68 1 17.8338 6.21624 24.5426 
103 1 19.1432 6.11966 22.5639 
126 1 19.1488 6.10835 15.5091 
3 1 19.5607 6.90081 12.1991 
7 1 20.0697 8.2008 12.2828 
10 1 15.1333 8.45205 12.8356 
22 1 19.2918 9.40822 12.1726 
26 1 17.9499 9.58632 12.2798 
38 1 17.5292 8.26857 12.2157 
42 1 18.1894 6.98713 12.3085 
44 1 20.1386 11.8504 12.8278 
48 1 12.5786 7.58728 1.3796 
65 1 19.6077 6.8284 0.145036 
69 1 18.2446 7.02434 0.0491151 
82 1 17.5056 8.30975 0.114987 
86 1 17.9092 9.64038 0.00791888 
96 1 14.0401 8.68593 12.3595 
98 1 19.2478 9.43035 0.141009 
102 1 19.9922 8.17677 0.074176 
113 1 12.5863 7.59118 10.9435 
1 1 17.9616 9.53426 16.2885 
2 1 18.6877 8.3107 16.9175 
8 1 18.8273 10.333 15.5313 
9 1 18.7166 8.11876 18.4322 
20 1 14.0464 8.67912 25.7142 
21 1 18.2378 7.02597 16.1913 
23 1 19.7983 10.5857 13.288 
24 1 20.5367 9.49187 14.145 
25 1 17.4813 10.4691 13.5786 
27 1 17.0883 7.51767 15.4785 
37 1 19.9767 8.19326 16.1216 
39 1 16.4744 8.28252 13.4049 
40 1 16.6169 9.53858 14.2727 
63 1 17.969 9.5474 21.8113 
64 1 18.6666 8.32571 21.1719 
70 1 16.8757 9.02694 22.5426 
71 1 18.7205 8.55353 19.6119 
72 1 19.9959 11.8621 25.1592 
81 1 19.9718 8.19427 21.9344 
83 1 16.492 8.2802 24.704 
84 1 16.8897 7.03561 23.8898 
85 1 17.4487 10.4146 24.547 
87 1 20.0296 9.47084 22.6374 
97 1 18.2305 7.02728 21.8645 
99 1 19.7823 10.5108 24.8043 
100 1 18.5858 10.9469 23.8621 
104 1 15.143 8.44841 25.2412 
108 1 18.8493 10.3587 22.5712 
111 1 20.552 9.45686 23.9122 
112 1 17.1053 7.5252 22.6049 
115 1 16.6076 9.54666 23.8306 
118 1 16.8617 9.02402 15.5541 
121 1 16.8711 7.02905 14.199 
122 1 20.0226 9.47628 15.4181 
125 1 18.4124 10.9006 14.2404 
129 2 18.7264 9.56416 18.5951 
ITEM: TIMESTEP
50
ITEM: NUMBER OF ATOMS
129
ITEM: BOX BOUNDS xy xz yz pp pp pp
0.0000000000000000e+00 2.3654499999999999e+01 7.8845000000000001e+00
0.0000000000000000e+00 1.3658086643083999e+01 0.0000000000000000e+00
0.0000000000000000e+00 2.5747000000000000e+01 0.0000000000000000e+00
ITEM: ATOMS id type x y z 
18 1 10.3246 6.77128 2.63964 
28 1 5.08465 4.66102 12.9008 
31 1 9.37527 6.66033 0.398993 
62 1 9.02338 5.29101 12.3991 
91 1 9.41882 6.57697 11.8986 
92 1 10.6198 6.30094 10.9619 
106 1 10.3406 6.77408 9.65497 
127 1 10.5724 6.21967 1.33147 
4 1 4.39593 5.91229 13.2751 
5 1 3.14782 5.70524 14.1885 
43 1 4.57661 6.96578 15.4611 
52 1 9.22902 5.25646 25.8466 
66 1 4.41139 5.87407 24.7925 
67 1 5.08387 6.99811 23.8993 
88 1 5.09795 4.63638 25.1778 
107 1 3.14183 5.70831 23.8776 
116 1 4.56891 6.96819 22.6052 
117 1 5.0842 7.00758 14.1713 
11 1 11.2202 7.56477 3.38227 
12 1 10.5168 8.78082 4.05721 
14 1 9.02841 11.2251 0.408494 
15 1 10.2787 11.4253 1.31962 
16 1 8.28622 8.88509 0.654693 
19 1 10.4727 8.85475 5.56339 
29 1 10.9511 10.0929 3.32002 
32 1 8.59757 7.65179 1.29676 
35 1 12.1075 9.61448 2.62286 
45 1 9.20391 8.93221 3.26464 
47 1 12.6893 8.88349 0.509767 
49 1 11.4107 10.9351 0.645831 
51 1 8.85237 10.1615 2.59655 
53 1 11.2355 7.58153 8.92288 
54 1 10.5106 8.78639 8.27172 
56 1 9.02538 11.2206 11.9267 
57 1 8.34181 10.1268 11.0365 
58 1 11.4092 10.9312 11.6945 
60 1 12.313 8.11861 9.64109 
61 1 10.4707 8.85472 6.76466 
73 1 9.20194 8.93139 9.0779 
75 1 12.6852 8.889 11.8191 
76 1 12.3502 10.1034 10.9998 
79 1 9.13745 7.66339 9.77092 
80 1 8.33685 12.4714 12.305 
89 1 10.9503 10.0928 9.01566 
93 1 8.29079 8.86768 11.6809 
95 1 10.0526 11.013 9.68711 
105 1 10.2751 11.4193 11.0167 
109 1 8.62654 7.63688 11.0515 
110 1 12.1151 9.62244 9.70391 
114 1 8.85036 10.1615 9.74261 
119 1 8.3371 10.1365 1.30452 
120 1 12.308 8.1097 2.68404 
123 1 12.3488 10.1017 1.33277 
124 1 9.14165 7.66228 2.57239 
128 1 10.0535 11.0145 2.64611 
6 1 5.13137 8.26854 13.5322 
13 1 9.62888 10.2182 25.0736 
17 1 9.10276 8.92262 25.1468 
30 1 9.91291 7.73694 25.0473 
34 1 11.2557 7.52596 25.2104 
36 1 8.33723 12.4704 25.7751 
46 1 11.6708 8.86206 25.0894 
50 1 11.0071 10.162 25.1768 
55 1 9.62283 10.2124 13.0133 
59 1 10.9972 10.156 12.9033 
74 1 11.6651 8.85702 12.9904 
78 1 11.2512 7.52335 12.8744 
90 1 9.91441 7.72269 13.0113 
94 1 9.10993 8.91113 12.9297 
101 1 5.08276 8.23075 24.5478 
33 1 11.7131 6.74557 0.656502 
77 1 11.7449 6.74497 11.6749 
41 1 17.7794 6.1936 13.515 
68 1 17.8184 6.23501 24.5582 
103 1 19.1376 6.12585 22.5533 
126 1 19.1455 6.11668 15.51 
3 1 19.5634 6.91211 12.1998 
7 1 20.0951 8.20861 12.272 
10 1 15.1321 8.44293 12.8286 
22 1 19.2939 9.40207 12.1661 
26 1 17.9559 9.59158 12.2709 
38 1 17.5276 8.27092 12.2301 
42 1 18.185 6.97535 12.304 
44 1 20.1862 11.8371 12.8274 
48 1 12.5554 7.61892 1.37636 
65 1 19.6174 6.82501 0.164141 
69 1 18.2515 7.02304 0.0543174 
82 1 17.4996 8.30938 0.113201 
86 1 17.9141 9.64326 -0.00161331 
96 1 14.0417 8.69729 12.3652 
98 1 19.2534 9.42611 0.149129 
102 1 20.0028 8.16779 0.0796248 
113 1 12.5796 7.63252 10.9484 
1 1 17.9625 9.53186 16.2941 
2 1 18.6927 8.32098 16.9144 
8 1 18.8449 10.3211 15.5383 
9 1 18.7184 8.11283 18.4474 
20 1 14.0485 8.69 25.7077 
21 1 18.2394 7.03827 16.1898 
23 1 19.8213 10.5689 13.2859 
24 1 20.5719 9.50437 14.1408 
25 1 17.498 10.4396 13.581 
27 1 17.0628 7.5 15.4947 
37 1 19.984 8.20138 16.1279 
39 1 16.4819 8.25742 13.4031 
40 1 16.6258 9.49648 14.271 
63 1 17.9715 9.5558 21.835 
64 1 18.6681 8.3498 21.1764 
70 1 16.8747 9.00906 22.5321 
71 1 18.7207 8.55247 19.6109 
72 1 19.9613 11.876 25.1101 
81 1 19.9828 8.20258 21.9283 
83 1 16.5067 8.25583 24.709 
84 1 16.8581 7.02768 23.8864 
85 1 17.4683 10.4074 24.5395 
87 1 20.0621 9.47162 22.636 
97 1 18.2338 7.04643 21.8669 
99 1 19.8143 10.4638 24.8198 
100 1 18.6229 10.9173 23.8736 
104 1 15.1398 8.43621 25.2482 
108 1 18.8744 10.3523 22.574 
111 1 20.594 9.46484 23.9179 
112 1 17.0762 7.51119 22.5903 
115 1 16.6288 9.51326 23.8378 
118 1 16.8645 9.00072 15.5657 
121 1 16.841 7.01834 14.2017 
122 1 20.0449 9.47681 15.4165 
125 1 18.4303 10.8684 14.2423 
129 2 18.7326 9.57501 18.577 
ITEM: TIMESTEP
60
ITEM: NUMBER OF ATOMS
129
ITEM: BOX BOUNDS xy xz yz pp pp pp
0.0000000000000000e+00 2.3654499999999999e+01 7.8845000000000001e+00
0.0000000000000000e+00 1.3658086643083999e+01 0.0000000000000000e+00
0.0000000000000000e+00 2.5747000000000000e+01 0.0000000000000000e+00
ITEM: ATOMS id type x y z 
18 1 10.3175 6.77622 2.64266 
28 1 5.08255 4.67293 12.9014 
31 1 9.36492 6.661 0.393605 
62 1 9.00988 5.2967 12.4018 
91 1 9.40949 6.57932 11.9018 
92 1 10.6122 6.30777 10.9617 
106 1 10.3362 6.77975 9.65569 
127 1 10.569 6.23273 1.33473 
4 1 4.3973 5.9183 13.2758 
5 1 3.14147 5.71033 14.1866 
43 1 4.57768 6.97123 15.4587 
52 1 9.22627 5.25804 25.8528 
66 1 4.41215 5.87772 24.7943 
67 1 5.08451 7.00118 23.8981 
88 1 5.09764 4.64406 25.1751 
107 1 3.13762 5.71521 23.8785 
116 1 4.56977 6.97262 22.607 
117 1 5.08698 7.01453 14.169 
11 1 11.2197 7.56436 3.38186 
12 1 10.5153 8.77726 4.05799 
14 1 9.02807 11.2205 0.408253 
15 1 10.2836 11.4208 1.31933 
16 1 8.2789 8.88213 0.651768 
19 1 10.473 8.85172 5.56214 
29 1 10.952 10.0881 3.31948 
32 1 8.58467 7.64863 1.29345 
35 1 12.1148 9.62235 2.62528 
45 1 9.20212 8.93052 3.26404 
47 1 12.6923 8.89017 0.50847 
49 1 11.4151 10.9321 0.646956 
51 1 8.85122 10.1569 2.59426 
53 1 11.2357 7.58151 8.92388 
54 1 10.5111 8.78171 8.26906 
56 1 9.02493 11.214 11.9292 
57 1 8.33733 10.1203 11.0375 
58 1 11.4125 10.9295 11.6903 
60 1 12.3117 8.12249 9.64067 
61 1 10.4705 8.85298 6.76371 
73 1 9.20063 8.93028 9.07871 
75 1 12.6899 8.89563 11.821 
76 1 12.3573 10.1113 10.9971 
79 1 9.12659 7.66458 9.7703 
80 1 8.33947 12.4588 12.3039 
89 1 10.9506 10.089 9.01596 
93 1 8.28317 8.86216 11.6833 
95 1 10.0545 11.0084 9.69204 
105 1 10.2806 11.4157 11.0176 
109 1 8.61342 7.63222 11.0513 
110 1 12.1195 9.63086 9.70313 
114 1 8.84848 10.157 9.74529 
119 1 8.33413 10.1307 1.30385 
120 1 12.3045 8.11254 2.6838 
123 1 12.3573 10.1062 1.33425 
124 1 9.12851 7.66237 2.56883 
128 1 10.0563 11.0085 2.64379 
6 1 5.1382 8.27445 13.5292 
13 1 9.62877 10.2156 25.0743 
17 1 9.09674 8.92265 25.1439 
30 1 9.90791 7.73717 25.0467 
34 1 11.2521 7.52828 25.2076 
36 1 8.33905 12.4599 25.7756 
46 1 11.6666 8.86219 25.0875 
50 1 11.0075 10.1616 25.172 
55 1 9.62246 10.2087 13.0119 
59 1 10.9986 10.1546 12.9078 
74 1 11.6617 8.85893 12.9927 
78 1 11.2511 7.52589 12.8763 
90 1 9.90968 7.72177 13.0104 
94 1 9.10589 8.90788 12.9341 
101 1 5.08857 8.23363 24.5511 
33 1 11.7105 6.75129 0.6579 
77 1 11.7407 6.75313 11.6689 
41 1 17.7762 6.1967 13.5165 
68 1 17.8163 6.23874 24.5558 
103 1 19.1351 6.13154 22.5549 
126 1 19.1441 6.12214 15.5059 
3 1 19.5631 6.91763 12.1997 
7 1 20.0997 8.21244 12.2677 
10 1 15.1343 8.43797 12.8285 
22 1 19.2959 9.40103 12.1639 
26 1 17.9583 9.59129 12.2704 
38 1 17.5282 8.27062 12.2308 
42 1 18.1846 6.97559 12.3006 
44 1 20.203 11.8319 12.8272 
48 1 12.5513 7.62525 1.37763 
65 1 19.6177 6.82457 0.166296 
69 1 18.253 7.02647 0.0589926 
82 1 17.5069 8.30897 0.117442 
86 1 17.9171 9.64135 0.000884974 
96 1 14.0444 8.7027 12.3672 
98 1 19.2584 9.42544 0.150564 
102 1 20.007 8.1673 0.0816624 
113 1 12.576 7.6367 10.9442 
1 1 17.9617 9.53013 16.293 
2 1 18.6932 8.32354 16.9236 
8 1 18.8475 10.3153 15.5395 
9 1 18.7187 8.12236 18.4436 
20 1 14.0479 8.69382 25.7073 
21 1 18.2401 7.04129 16.1892 
23 1 19.8277 10.5674 13.2837 
24 1 20.5834 9.50688 14.1424 
25 1 17.5029 10.4288 13.5838 
27 1 17.0578 7.49192 15.4981 
37 1 19.9859 8.20117 16.1274 
39 1 16.4796 8.24935 13.4023 
40 1 16.6305 9.48821 14.2721 
63 1 17.9715 9.55529 21.8365 
64 1 18.6689 8.35664 21.1783 
70 1 16.877 9.00747 22.5345 
71 1 18.7206 8.56236 19.605 
72 1 19.963 11.875 25.1031 
81 1 19.9862 8.20394 21.9296 
83 1 16.5014 8.24738 24.712 
84 1 16.8523 7.02355 23.8855 
85 1 17.4686 10.4025 24.5375 
87 1 20.0741 9.47311 22.6394 
97 1 18.2321 7.05108 21.8674 
99 1 19.8246 10.4642 24.8257 
100 1 18.6264 10.9033 23.8714 
104 1 15.1392 8.43202 25.2488 
108 1 18.8836 10.3482 22.5718 
111 1 20.6053 9.46681 23.9212 
112 1 17.0692 7.50389 22.5857 
115 1 16.6338 9.51045 23.8327 
118 1 16.8686 8.99557 15.5679 
121 1 16.8303 7.01526 14.2033 
122 1 20.0528 9.47689 15.4148 
125 1 18.4377 10.8604 14.2396 
129 2 18.7348 9.56044 18.5767 
ITEM: TIMESTEP
70
ITEM: NUMBER OF ATOMS
129
ITEM: BOX BOUNDS xy xz yz pp pp pp
0.0000000000000000e+00 2.3654499999999999e+01 7.8845000000000001e+00
0.0000000000000000e+00 1.3658086643083999e+01 0.0000000000000000e+00
0.0000000000000000e+00 2.5747000000000000e+01 0.0000000000000000e+00
ITEM: ATOMS id type x y z 
18 1 10.3105 6.7816 2.64493 
28 1 5.08193 4.682 12.9013 
31 1 9.35561 6.66318 0.39012 
62 1 8.99659 5.30083 12.4048 
91 1 9.40123 6.58248 11.9033 
92 1 10.6053 6.31496 10.9626 
106 1 10.3308 6.78491 9.656 
127 1 10.5644 6.24258 1.33571 
4 1 4.39684 5.92504 13.2762 
5 1 3.13773 5.7152 14.1852 
43 1 4.57876 6.97457 15.4556 
52 1 9.22368 5.25761 25.8585 
66 1 4.41276 5.88196 24.7952 
67 1 5.08605 7.0047 23.8991 
88 1 5.09861 4.64921 25.1732 
107 1 3.13411 5.72055 23.8783 
116 1 4.56993 6.97403 22.608 
117 1 5.08987 7.02133 14.1675 
11 1 11.2181 7.56476 3.38175 
12 1 10.5148 8.77323 4.05805 
14 1 9.02908 11.2153 0.409301 
15 1 10.2873 11.4157 1.31853 
16 1 8.27119 8.87917 0.648696 
19 1 10.4731 8.84895 5.56128 
29 1 10.952 10.0826 3.31836 
32 1 8.57315 7.64595 1.29123 
35 1 12.1208 9.62649 2.62704 
45 1 9.20153 8.92922 3.26318 
47 1 12.6945 8.89584 0.507264 
49 1 11.4186 10.9294 0.64644 
51 1 8.8499 10.1544 2.59178 
53 1 11.2349 7.58261 8.92462 
54 1 10.5113 8.77885 8.26846 
56 1 9.02535 11.2066 11.9293 