ITEM: TIMESTEP
0
ITEM: NUMBER OF ATOMS
162
ITEM: BOX BOUNDS xy xz yz pp pp pp
-6.7755000000000001e+00 1.3552000000000000e+01 -6.7755000000000001e+00
0.0000000000000000e+00 1.1735510246683001e+01 0.0000000000000000e+00
0.0000000000000000e+00 2.2149999999999999e+01 0.0000000000000000e+00
ITEM: ATOMS id type x y z 
8 1 -2.486 5.297 9.849 
87 1 3.001 4.231 10.696 
90 1 2.733 5.481 9.824 
109 1 -2.486 5.297 0.765 
158 1 2.733 5.481 0.79 
11 1 4.24 4.139 20.131 
14 1 3.031 4.094 19.728 
18 1 1.299 5.827 18.554 
33 1 2.266 4.151 20.924 
43 1 4.343 3.96 21.647 
47 1 3.32 5.732 17.88 
52 1 4.24 4.139 12.633 
76 1 2.552 4.924 14.209 
85 1 4.343 3.96 11.117 
89 1 3.32 5.732 14.883 
91 1 1.036 5.037 11.84 
102 1 3.031 4.094 13.035 
105 1 1.299 5.827 14.209 
114 1 2.266 4.151 11.84 
150 1 2.552 4.924 18.554 
156 1 3.001 4.231 22.068 
159 1 1.036 5.037 20.924 
5 1 -5.049 10.63 8.653 
9 1 -3.317 8.897 7.479 
19 1 -1.707 7.414 10.572 
21 1 -2.66 8.795 10.993 
23 1 -3.31 7.532 6.805 
25 1 -4.284 10.573 9.849 
32 1 1.503 6.367 0.79 
36 1 -1.869 7.426 9.056 
38 1 -2.209 6.086 8.653 
54 1 0.3 8.576 10.696 
57 1 1.291 8.001 9.824 
60 1 -1.707 7.414 0.042 
65 1 -3.31 7.532 3.808 
78 1 -1.869 7.426 1.558 
80 1 -2.566 8.842 1.961 
84 1 -4.57 9.799 3.135 
99 1 -3.054 9.687 0.765 
100 1 -2.96 6.142 3.135 
107 1 -5.049 10.63 1.961 
110 1 -3.317 8.897 3.135 
111 1 0.642 5.929 10.696 
113 1 1.503 6.367 9.824 
119 1 -4.284 10.573 0.765 
127 1 -2.209 6.086 1.961 
131 1 -2.318 6.148 10.993 
138 1 1.291 8.001 0.79 
142 1 -2.566 8.842 8.653 
145 1 -4.57 9.799 7.479 
151 1 -5.019 10.493 10.993 
154 1 -3.054 9.687 9.849 
155 1 -2.96 6.142 7.479 
161 2 -0.278 9.335 9.734 
162 3 -0.278 10.311 9.734 
12 1 2.53 7.1 17.202 
17 1 0.468 9.427 20.924 
24 1 -3.52 8.357 11.865 
27 1 -0.31 7.31 21.647 
29 1 0.642 5.929 22.068 
31 1 1.292 7.192 17.88 
44 1 -0.148 7.298 20.131 
46 1 0.191 8.638 19.728 
51 1 -0.31 7.31 11.117 
53 1 2.53 7.1 15.561 
56 1 1.292 7.192 14.883 
63 1 -2.318 6.148 21.771 
66 1 -3.309 6.723 20.899 
70 1 -0.148 7.298 12.633 
72 1 0.548 5.882 13.035 
92 1 0.942 8.582 14.209 
95 1 -5.019 10.493 21.771 
98 1 -4.751 9.243 20.899 
104 1 0.468 9.427 11.84 
116 1 -2.66 8.795 21.771 
118 1 -3.52 8.357 20.899 
122 1 0.191 8.638 13.035 
133 1 -3.309 6.723 11.865 
136 1 0.3 8.576 22.068 
147 1 0.548 5.882 19.728 
153 1 -4.751 9.243 11.865 
160 1 0.942 8.582 18.554 
1 1 7.976 4.694 10.572 
4 1 9.274 4.77 10.993 
20 1 8.034 4.861 9.056 
42 1 9.55 5.41 7.479 
67 1 10.043 4.578 0.765 
77 1 7.976 4.694 0.042 
94 1 8.035 4.861 1.558 
96 1 9.278 4.635 1.961 
121 1 4.688 5.417 10.696 
130 1 9.55 5.41 3.135 
134 1 10.043 4.578 9.849 
152 1 9.278 4.635 8.653 
45 1 4.688 5.417 22.068 
55 1 4.788 5.329 13.035 
106 1 9.274 4.77 21.771 
137 1 4.788 5.329 19.728 
2 1 7.294 10.585 9.056 
3 1 9.004 7.624 6.127 
6 1 8.556 6.347 6.805 
16 1 2.314 8.72 0.79 
22 1 7.166 6.156 8.653 
26 1 7.226 8.565 7.479 
35 1 7.191 10.764 10.572 
37 1 6.846 9.307 10.993 
39 1 8.214 8.992 6.805 
41 1 6.677 7.002 9.849 
48 1 3.775 6.213 0.79 
61 1 7.294 10.585 1.558 
62 1 9.004 7.624 4.487 
64 1 6.747 9.395 1.961 
68 1 7.437 6.931 3.135 
71 1 4.29 8.493 10.696 
74 1 3.567 7.818 9.824 
81 1 8.556 6.347 3.808 
83 1 6.47 8.606 0.765 
93 1 7.191 10.764 0.042 
97 1 8.214 8.992 3.808 
101 1 2.261 9.954 10.696 
103 1 2.314 8.72 9.824 
117 1 7.166 6.156 1.961 
120 1 7.226 8.565 3.135 
123 1 3.775 6.213 9.824 
129 1 6.677 7.002 0.765 
132 1 6.747 9.395 8.653 
135 1 7.437 6.931 7.479 
141 1 7.244 6.231 10.993 
144 1 6.47 8.606 9.849 
148 1 3.567 7.818 0.79 
7 1 9.22 6.004 11.865 
10 1 3.558 10.029 21.647 
13 1 2.261 9.954 22.068 
15 1 2.978 8.376 17.88 
28 1 3.5 9.862 20.131 
30 1 4.369 8.568 19.728 
34 1 4.308 6.159 18.554 
40 1 7.76 8.511 11.865 
49 1 4.857 7.722 20.924 
50 1 1.984 9.314 18.554 
58 1 1.491 10.146 11.84 
59 1 4.097 7.793 14.209 
69 1 3.558 10.029 11.117 
73 1 2.978 8.376 14.883 
75 1 5.064 6.118 11.84 
79 1 7.244 6.231 21.771 
82 1 7.967 6.906 20.899 
86 1 3.5 9.862 12.633 
88 1 2.256 10.089 13.035 
108 1 9.22 6.004 20.899 
112 1 4.369 8.568 13.035 
115 1 4.308 6.159 14.209 
124 1 4.857 7.722 11.84 
125 1 1.984 9.314 14.209 
126 1 6.846 9.307 21.771 
128 1 7.76 8.511 20.899 
139 1 1.491 10.146 20.924 
140 1 4.097 7.793 18.554 
143 1 7.967 6.906 11.865 
146 1 4.29 8.493 22.068 
149 1 5.064 6.118 20.924 
157 1 2.256 10.089 19.728 
ITEM: TIMESTEP
10
ITEM: NUMBER OF ATOMS
162
ITEM: BOX BOUNDS xy xz yz pp pp pp
-6.7755000000000001e+00 1.3552000000000000e+01 -6.7755000000000001e+00
0.0000000000000000e+00 1.1735510246683001e+01 0.0000000000000000e+00
0.0000000000000000e+00 2.2149999999999999e+01 0.0000000000000000e+00
ITEM: ATOMS id type x y z 
8 1 -2.42794 5.37438 9.83552 
87 1 2.97461 4.3051 10.6365 
90 1 2.67359 5.48225 9.78919 
109 1 -2.42563 5.37494 0.778226 
158 1 2.66541 5.45117 0.846576 
11 1 4.28395 4.20886 20.1116 
14 1 2.91329 4.12596 19.7187 
18 1 1.35656 5.85172 18.5964 
33 1 2.11572 4.25421 20.8992 
43 1 4.32263 4.13551 21.5753 
47 1 3.24064 5.7981 17.8677 
52 1 4.26587 4.22199 12.6246 
76 1 2.4394 4.90415 14.1751 
85 1 4.28615 4.1697 11.1803 
89 1 3.25599 5.80069 14.9135 
91 1 0.968914 5.09135 11.8681 
102 1 2.92465 4.14429 13.0698 
105 1 1.33077 5.85432 14.1811 
114 1 2.12722 4.24309 11.8606 
150 1 2.42448 4.8761 18.5888 
156 1 2.98654 4.29446 22.1209 
159 1 0.963824 5.11041 20.905 
5 1 -4.93253 10.5832 8.63093 
9 1 -3.35588 8.87625 7.52045 
19 1 -1.77974 7.52154 10.562 
21 1 -2.61963 8.75478 10.9292 
23 1 -3.29536 7.53233 6.82621 
25 1 -4.13741 10.4701 9.82 
32 1 1.58309 6.34011 0.775853 
36 1 -1.90339 7.54126 9.04931 
38 1 -2.15728 6.20905 8.65317 
54 1 0.222422 8.6449 10.5651 
57 1 1.43243 7.92115 9.75404 
60 1 -1.76164 7.52981 0.0494517 
65 1 -3.29154 7.53543 3.78758 
78 1 -1.89367 7.53808 1.55876 
80 1 -2.55757 8.79366 1.87797 
84 1 -4.45643 9.82607 3.10262 
99 1 -2.98259 9.61753 0.784679 
100 1 -2.92124 6.23735 3.16898 
107 1 -4.93515 10.5835 1.98216 
110 1 -3.35104 8.8843 3.09842 
111 1 0.564126 5.95652 10.7727 
113 1 1.51181 6.35346 9.81714 
119 1 -4.13632 10.4691 0.795701 
127 1 -2.15641 6.20944 1.95997 
131 1 -2.34903 6.1999 10.9972 
138 1 1.362 8.00037 0.833726 
142 1 -2.56804 8.7903 8.72749 
145 1 -4.45266 9.83082 7.51527 
151 1 -4.97982 10.446 11.0436 
154 1 -2.98379 9.6121 9.82874 
155 1 -2.92554 6.23819 7.44574 
161 2 -0.245841 9.32519 9.79873 
162 3 -0.301631 10.3315 9.69531 
12 1 2.58195 7.07967 17.0923 
17 1 0.409461 9.34823 20.9113 
24 1 -3.61264 8.39217 11.8548 
27 1 -0.256243 7.19134 21.6426 
29 1 0.601754 5.97386 22.0093 
31 1 1.27132 7.19237 17.8934 
44 1 -0.115033 7.17836 20.1318 
46 1 0.136595 8.51562 19.7326 
51 1 -0.280383 7.15836 11.16 
53 1 2.58387 7.06832 15.6334 
56 1 1.29706 7.18393 14.8552 
63 1 -2.31832 6.20973 21.7612 
66 1 -3.37669 6.72604 20.8538 
70 1 -0.116682 7.17972 12.6146 
72 1 0.547422 5.92766 12.9677 
92 1 0.899788 8.45641 14.2692 
95 1 -4.98186 10.4383 21.7163 
98 1 -4.68583 9.27409 20.8503 
104 1 0.424106 9.35199 11.9029 
116 1 -2.6109 8.75522 21.8348 
118 1 -3.59541 8.39162 20.9065 
122 1 0.140732 8.53 13.0334 
133 1 -3.37781 6.72082 11.9081 
136 1 0.301012 8.516 22.079 
147 1 0.558512 5.927 19.7781 
153 1 -4.67571 9.28813 11.9181 
160 1 0.905295 8.49336 18.5201 
1 1 7.88294 4.9527 10.5303 
4 1 9.18302 4.77911 11.0146 
20 1 7.86008 4.95411 9.05387 
42 1 9.44857 5.43447 7.44262 
67 1 9.97398 4.57345 0.746517 
77 1 7.88423 4.95254 0.0845788 
94 1 7.8625 4.94993 1.55693 
96 1 9.19723 4.6556 1.99173 
121 1 4.69077 5.44988 10.6913 
130 1 9.44471 5.4283 3.17521 
134 1 9.97083 4.57087 9.86756 
152 1 9.1981 4.65773 8.6166 
45 1 4.65872 5.42778 22.0559 
55 1 4.81542 5.47937 13.0767 
106 1 9.18361 4.77976 21.7492 
137 1 4.81675 5.49408 19.6766 
2 1 7.26558 10.508 9.04148 
3 1 8.94913 7.65666 6.03557 
6 1 8.52306 6.39856 6.85645 
16 1 2.34682 8.70567 0.835795 
22 1 7.14738 6.20097 8.6871 
26 1 7.18152 8.39507 7.55361 
35 1 7.21594 10.597 10.4986 
37 1 6.84228 9.29202 10.9814 
39 1 8.27434 8.92024 6.78777 
41 1 6.73184 7.00771 9.82173 
48 1 3.69984 6.37265 0.849897 
61 1 7.26377 10.498 1.56966 
62 1 8.94277 7.65804 4.57819 
64 1 6.72281 9.24286 2.00565 
68 1 7.41567 6.97951 3.0425 
71 1 4.29051 8.54606 10.7597 
74 1 3.67809 7.73838 9.83657 
81 1 8.52465 6.40188 3.7606 
83 1 6.54929 8.43477 0.785847 
93 1 7.2145 10.5819 0.115112 
97 1 8.27428 8.92427 3.82885 
101 1 2.33795 9.93232 10.6631 
103 1 2.3342 8.70061 9.77318 
117 1 7.14451 6.19874 1.92095 
120 1 7.17454 8.40235 3.05495 
123 1 3.82153 6.33311 9.80848 
129 1 6.73398 7.01059 0.788354 
132 1 6.71678 9.24033 8.59698 
135 1 7.41955 6.98206 7.57804 
141 1 7.23647 6.16445 10.9089 
144 1 6.54581 8.43139 9.82406 
148 1 3.62853 7.78875 0.784477 
7 1 9.18609 6.01876 11.9168 
10 1 3.65168 9.76856 21.6097 
13 1 2.34718 9.93894 22.0887 
15 1 2.99991 8.33641 17.922 
28 1 3.6728 9.76819 20.1299 
30 1 4.39436 8.52893 19.7776 
34 1 4.33589 6.31675 18.6298 
40 1 7.84082 8.35253 11.9377 
49 1 4.79532 7.71813 20.8999 
50 1 2.08917 9.28949 18.5196 
58 1 1.55987 10.1625 11.8368 
59 1 4.11864 7.75538 14.1259 
69 1 3.65671 9.76553 11.152 
73 1 3.01003 8.28897 14.8502 
75 1 4.98435 6.29386 11.86 
79 1 7.23686 6.17093 21.8532 
82 1 7.90441 6.93382 20.9017 
86 1 3.67699 9.77464 12.6275 
88 1 2.34504 10.0806 13.0618 
108 1 9.18684 6.02284 20.8482 
112 1 4.38861 8.52793 12.9916 
115 1 4.35444 6.31756 14.1352 
124 1 4.79527 7.72202 11.8697 
125 1 2.09778 9.31522 14.278 
126 1 6.85881 9.28782 21.7887 
128 1 7.81429 8.35807 20.8406 
139 1 1.56152 10.1479 20.9458 
140 1 4.13505 7.74292 18.6439 
143 1 7.90658 6.91673 11.8678 
146 1 4.29801 8.55024 21.9916 
149 1 4.98329 6.28961 20.9092 
157 1 2.33428 10.0672 19.6919 
ITEM: TIMESTEP
20
ITEM: NUMBER OF ATOMS
162
ITEM: BOX BOUNDS xy xz yz pp pp pp
-6.7755000000000001e+00 1.3552000000000000e+01 -6.7755000000000001e+00
0.0000000000000000e+00 1.1735510246683001e+01 0.0000000000000000e+00
0.0000000000000000e+00 2.2149999999999999e+01 0.0000000000000000e+00
ITEM: ATOMS id type x y z 
8 1 -2.43025 5.39082 9.82933 
87 1 2.95093 4.33237 10.6482 
90 1 2.65732 5.51574 9.78482 
109 1 -2.42574 5.40017 0.778436 
158 1 2.66172 5.45344 0.846361 
11 1 4.27727 4.22233 20.1223 
14 1 2.8882 4.14514 19.7037 
18 1 1.31845 5.86293 18.5783 
33 1 2.09806 4.27615 20.9135 
43 1 4.3038 4.18182 21.5644 
47 1 3.25087 5.78301 17.8459 
52 1 4.26731 4.22935 12.6282 
76 1 2.44985 4.92286 14.1849 
85 1 4.28663 4.18265 11.1855 
89 1 3.26709 5.78457 14.9264 
91 1 0.965334 5.10763 11.8627 
102 1 2.89019 4.15081 13.0651 
105 1 1.29539 5.84798 14.1811 
114 1 2.10069 4.26921 11.853 
150 1 2.43937 4.90553 18.5868 
156 1 2.95562 4.28186 22.1059 
159 1 0.966389 5.1238 20.9195 
5 1 -4.90477 10.5713 8.61903 
9 1 -3.31657 8.8674 7.50584 
19 1 -1.78263 7.5181 10.5566 
21 1 -2.62598 8.76264 10.9551 
23 1 -3.30663 7.53135 6.82662 
25 1 -4.11706 10.4545 9.83164 
32 1 1.60272 6.36511 0.776373 
36 1 -1.88822 7.55591 9.06418 
38 1 -2.15732 6.22663 8.63686 
54 1 0.210929 8.64166 10.5618 
57 1 1.4629 7.8679 9.74552 
60 1 -1.76582 7.53281 0.0561692 
65 1 -3.30952 7.53176 3.78114 
78 1 -1.88294 7.55818 1.54935 
80 1 -2.54558 8.78926 1.89216 
84 1 -4.46504 9.79899 3.10597 
99 1 -2.97615 9.60614 0.767985 
100 1 -2.93608 6.28142 3.17436 
107 1 -4.90305 10.5695 1.99459 
110 1 -3.31242 8.86489 3.10737 
111 1 0.560587 5.94499 10.7436 
113 1 1.52535 6.38284 9.823 
119 1 -4.1166 10.4534 0.784594 
127 1 -2.16153 6.22848 1.97503 
131 1 -2.35414 6.21561 11.0118 
138 1 1.36473 7.98587 0.82333 
142 1 -2.55078 8.78817 8.72073 
145 1 -4.46509 9.80053 7.50748 
151 1 -4.97218 10.4445 11.0311 
154 1 -2.98215 9.60557 9.84455 
155 1 -2.93309 6.27676 7.43695 
161 2 -0.247552 9.34133 9.79826 
162 3 -0.308921 10.3352 9.68124 
12 1 2.55415 7.08128 17.1416 
17 1 0.407613 9.32272 20.9127 
24 1 -3.61485 8.36511 11.8564 
27 1 -0.250899 7.19151 21.632 
29 1 0.610939 5.95894 22.0282 
31 1 1.27923 7.19582 17.8973 
44 1 -0.124847 7.16297 20.1434 
46 1 0.141637 8.49281 19.7151 
51 1 -0.285772 7.15719 11.1608 
53 1 2.572 7.07115 15.6135 
56 1 1.28043 7.19311 14.8644 
63 1 -2.33515 6.22921 21.7512 
66 1 -3.38452 6.7364 20.8658 
70 1 -0.120372 7.16222 12.6089 
72 1 0.536734 5.92359 12.9667 
92 1 0.923504 8.44833 14.2606 
95 1 -4.97107 10.4463 21.7364 
98 1 -4.68382 9.27448 20.844 
104 1 0.446619 9.33992 11.9232 
116 1 -2.62375 8.76053 21.8102 
118 1 -3.61925 8.36519 20.9117 
122 1 0.151644 8.51874 13.0464 
133 1 -3.39556 6.73799 11.9047 
136 1 0.314846 8.4952 22.0866 
147 1 0.536072 5.92789 19.7856 
153 1 -4.68833 9.27113 11.9192 
160 1 0.914474 8.45122 18.5172 
1 1 7.86635 4.94224 10.5193 
4 1 9.15188 4.796 11.0197 
20 1 7.83962 4.94324 9.06098 
42 1 9.46426 5.44802 7.43899 
67 1 9.97036 4.57484 0.765531 
77 1 7.86634 4.94123 0.0932534 
94 1 7.84255 4.94111 1.55071 
96 1 9.17614 4.66898 1.99434 
121 1 4.69377 5.48206 10.6803 
130 1 9.46583 5.44916 3.17276 
134 1 9.96474 4.56782 9.84871 
152 1 9.17326 4.66662 8.61786 
45 1 4.65467 5.48375 22.0651 
55 1 4.82522 5.50991 13.064 
106 1 9.15587 4.79941 21.7438 
137 1 4.82036 5.51048 19.6961 
2 1 7.25974 10.4988 9.04864 
3 1 8.97611 7.65435 6.07225 
6 1 8.5153 6.38834 6.81662 
16 1 2.36163 8.69534 0.851747 
22 1 7.11362 6.18628 8.70808 
26 1 7.18326 8.42504 7.5383 
35 1 7.23304 10.5439 10.4943 
37 1 6.87805 9.24213 10.9943 
39 1 8.27151 8.93256 6.76739 
41 1 6.72201 6.99619 9.83306 
48 1 3.6924 6.35811 0.831254 
61 1 7.262 10.4971 1.56316 
62 1 8.97943 7.65735 4.53813 
64 1 6.70739 9.21772 1.98959 
68 1 7.39527 6.96336 3.05598 
71 1 4.3106 8.51979 10.7456 
74 1 3.65391 7.74753 9.82314 
81 1 8.51801 6.38941 3.79668 
83 1 6.54716 8.43029 0.785055 
93 1 7.23286 10.5416 0.114653 
97 1 8.27353 8.9322 3.84681 
101 1 2.3729 9.906 10.6733 
103 1 2.36569 8.67359 9.76493 
117 1 7.11062 6.18505 1.90343 
120 1 7.18211 8.42695 3.07755 
123 1 3.81129 6.3292 9.79895 
129 1 6.7224 6.99503 0.779392 
132 1 6.70799 9.21841 8.62089 
135 1 7.39883 6.96648 7.56258 
141 1 7.21929 6.19805 10.9335 
144 1 6.54784 8.43184 9.82869 
148 1 3.5991 7.79276 0.800688 
7 1 9.16724 6.02525 11.9322 
10 1 3.66961 9.78052 21.5968 
13 1 2.37951 9.92457 22.0956 
15 1 3.02142 8.33392 17.8932 
28 1 3.69052 9.78268 20.1399 
30 1 4.42523 8.53881 19.7882 
34 1 4.33207 6.29856 18.6174 
40 1 7.83458 8.36711 11.9077 
49 1 4.81069 7.72538 20.9125 
50 1 2.0709 9.2762 18.518 
58 1 1.55877 10.1436 11.8555 
59 1 4.13113 7.76618 14.1499 
69 1 3.6534 9.77796 11.157 
73 1 3.01496 8.32206 14.8654 
75 1 4.98927 6.30693 11.8752 
79 1 7.21878 6.19608 21.8307 
82 1 7.93382 6.93108 20.8893 
86 1 3.68526 9.7865 12.6163 
88 1 2.36671 10.0577 13.0734 
108 1 9.17382 6.03141 20.8364 
112 1 4.42406 8.54528 12.976 
115 1 4.34596 6.29696 14.152 
124 1 4.81019 7.72683 11.8554 
125 1 2.08827 9.27847 14.2702 
126 1 6.87959 9.24077 21.773 
128 1 7.83686 8.36643 20.8575 
139 1 1.56361 10.1483 20.9203 
140 1 4.1437 7.7615 18.6235 
143 1 7.93172 6.93334 11.8777 
146 1 4.31512 8.52562 22.0103 
149 1 4.97892 6.29252 20.9065 
157 1 2.3596 10.0539 19.6976 
ITEM: TIMESTEP
30
ITEM: NUMBER OF ATOMS
162
ITEM: BOX BOUNDS xy xz yz pp pp pp
-6.7755000000000001e+00 1.3552000000000000e+01 -6.7755000000000001e+00
0.0000000000000000e+00 1.1735510246683001e+01 0.0000000000000000e+00
0.0000000000000000e+00 2.2149999999999999e+01 0.0000000000000000e+00
ITEM: ATOMS id type x y z 
8 1 -2.44983 5.41584 9.8231 
87 1 2.94887 4.35831 10.6543 
90 1 2.65674 5.52781 9.76611 
109 1 -2.44218 5.42463 0.783621 
158 1 2.6449 5.44035 0.84853 
11 1 4.26495 4.24355 20.1149 
14 1 2.8709 4.16742 19.7098 
18 1 1.28311 5.84831 18.5686 
33 1 2.08173 4.28097 20.8993 
43 1 4.27617 4.23394 21.5609 
47 1 3.24412 5.79684 17.8236 
52 1 4.25917 4.25327 12.6387 
76 1 2.43889 4.92556 14.1875 
85 1 4.28548 4.20922 11.1904 
89 1 3.23975 5.8036 14.9388 
91 1 0.943468 5.12167 11.8485 
102 1 2.87123 4.16276 13.053 
105 1 1.29482 5.84558 14.2025 
114 1 2.0743 4.28846 11.8553 
150 1 2.43777 4.93714 18.5753 
156 1 2.9475 4.28724 22.1146 
159 1 0.949224 5.13453 20.9249 
5 1 -4.8946 10.5627 8.63807 
9 1 -3.31477 8.87199 7.48651 
19 1 -1.78211 7.53178 10.5703 
21 1 -2.61783 8.75649 10.9707 
23 1 -3.29313 7.54574 6.81477 
25 1 -4.09534 10.4456 9.82473 
32 1 1.60355 6.38356 0.791358 
36 1 -1.87263 7.56922 9.06429 
38 1 -2.15453 6.24679 8.6398 
54 1 0.218534 8.62621 10.5644 
57 1 1.45046 7.87174 9.74725 
60 1 -1.76941 7.54566 0.0484748 
65 1 -3.29411 7.54981 3.79807 
78 1 -1.86372 7.5736 1.54909 
80 1 -2.52511 8.80061 1.89612 
84 1 -4.44727 9.79857 3.11396 
99 1 -2.96075 9.59156 0.76275 
100 1 -2.93494 6.28458 3.17136 
107 1 -4.89475 10.5627 1.97151 
110 1 -3.31587 8.87116 3.12613 
111 1 0.52706 5.95178 10.7289 
113 1 1.50811 6.38193 9.80968 
119 1 -4.09413 10.4433 0.789205 
127 1 -2.15241 6.25071 1.96889 
131 1 -2.36351 6.22944 11.0155 
138 1 1.3733 7.97571 0.821882 
142 1 -2.53023 8.79433 8.71976 
145 1 -4.45039 9.79499 7.49884 
151 1 -4.96369 10.4401 11.0399 
154 1 -2.96483 9.58791 9.85321 
155 1 -2.93569 6.28461 7.4407 
161 2 -0.242462 9.35106 9.80901 
162 3 -0.317408 10.3362 9.66381 
12 1 2.56467 7.07437 17.1538 
17 1 0.423545 9.29794 20.906 
24 1 -3.62382 8.3393 11.8676 
27 1 -0.246289 7.178 21.6427 
29 1 0.593984 5.96333 22.0475 
31 1 1.28181 7.17613 17.8839 
44 1 -0.147398 7.14895 20.1384 
46 1 0.135519 8.4733 19.7218 
51 1 -0.280394 7.16026 11.1447 
53 1 2.56401 7.06722 15.6205 
56 1 1.28243 7.17613 14.8808 
63 1 -2.3427 6.24656 21.7498 
66 1 -3.39387 6.75145 20.8662 
70 1 -0.137505 7.15477 12.6044 
72 1 0.519612 5.9179 12.9739 
92 1 0.931088 8.44496 14.2631 
95 1 -4.96259 10.4319 21.7249 
98 1 -4.66153 9.28722 20.8413 
104 1 0.451634 9.31339 11.9169 
116 1 -2.61177 8.76189 21.7913 
118 1 -3.62168 8.34144 20.8992 
122 1 0.149898 8.49216 13.0488 
133 1 -3.40564 6.74915 11.9013 
136 1 0.324636 8.47628 22.0891 
147 1 0.51126 5.92047 19.7893 
153 1 -4.66319 9.28577 11.9261 
160 1 0.915429 8.44281 18.5165 
1 1 7.82991 4.94666 10.5159 
4 1 9.1354 4.8117 11.0025 
20 1 7.81078 4.94049 9.06462 
42 1 9.444 5.46383 7.44346 
67 1 9.95334 4.59644 0.771938 
77 1 7.83019 4.94504 0.0953395 
94 1 7.81296 4.94222 1.54922 
96 1 9.15198 4.69259 1.99915 
121 1 4.68947 5.50438 10.6845 
130 1 9.43898 5.46308 3.17 
134 1 9.94641 4.58952 9.84026 
152 1 9.15015 4.6902 8.61156 
45 1 4.64094 5.51269 22.0835 
55 1 4.81959 5.53334 13.0626 
106 1 9.13992 4.8158 21.7605 
137 1 4.81303 5.52696 19.6993 
2 1 7.26839 10.479 9.04162 
3 1 8.96744 7.64433 6.0735 
6 1 8.5071 6.39134 6.80647 
16 1 2.3684 8.69825 0.86928 
22 1 7.08254 6.17497 8.6977 
26 1 7.19266 8.40945 7.53274 
35 1 7.25262 10.499 10.4801 
37 1 6.89341 9.20766 11.0105 
39 1 8.29405 8.91792 6.75214 
41 1 6.70231 6.98569 9.83708 
48 1 3.70201 6.35188 0.835983 
61 1 7.27035 10.4765 1.57276 
62 1 8.96816 7.64271 4.53944 
64 1 6.71523 9.1911 1.99462 
68 1 7.37839 6.96416 3.0659 
71 1 4.32999 8.51654 10.7362 
74 1 3.65421 7.75406 9.79635 
81 1 8.51044 6.3916 3.80708 
83 1 6.54609 8.39901 0.795315 
93 1 7.2522 10.5004 0.12999 
97 1 8.29597 8.91571 3.86006 
101 1 2.38001 9.87978 10.6868 
103 1 2.3879 8.65768 9.75335 
117 1 7.08187 6.1725 1.91614 
120 1 7.19215 8.41079 3.07947 
123 1 3.81436 6.33508 9.77981 
129 1 6.70129 6.9852 0.776288 
132 1 6.71351 9.19547 8.61859 
135 1 7.38162 6.96452 7.54834 
141 1 7.2068 6.20272 10.953 
144 1 6.54511 8.4007 9.81761 
148 1 3.59495 7.80341 0.817894 
7 1 9.15868 6.0221 11.9506 
10 1 3.70564 9.77873 21.5953 
13 1 2.39286 9.90843 22.0765 
15 1 3.02453 8.33227 17.8793 
28 1 3.72423 9.7784 20.1384 
30 1 4.45005 8.5466 19.7689 
34 1 4.33578 6.31341 18.6078 
40 1 7.83393 8.36934 11.9123 
49 1 4.83034 7.74327 20.9098 
50 1 2.09519 9.26132 18.5222 
58 1 1.58441 10.1204 11.8554 
59 1 4.15619 7.75949 14.1343 
69 1 3.68813 9.77227 11.1624 
73 1 3.04458 8.33213 14.889 
75 1 4.99385 6.32739 11.8814 
79 1 7.20695 6.20238 21.8097 
82 1 7.93828 6.91848 20.8737 
86 1 3.71691 9.78075 12.6147 
88 1 2.39072 10.0348 13.0955 
108 1 9.16534 6.02722 20.8192 
112 1 4.44896 8.54863 13.0021 
115 1 4.33948 6.32882 14.16 
124 1 4.83501 7.7332 11.8596 
125 1 2.08799 9.26389 14.2531 
126 1 6.89702 9.20575 21.7576 
128 1 7.83124 8.37192 20.8519 
139 1 1.58077 10.1263 20.9186 
140 1 4.15438 7.76818 18.6248 
143 1 7.93405 6.92238 11.8952 
146 1 4.32683 8.52121 22.0302 
149 1 4.98652 6.32222 20.892 
157 1 2.38199 10.03 19.6902 
ITEM: TIMESTEP
40
ITEM: NUMBER OF ATOMS
162
ITEM: BOX BOUNDS xy xz yz pp pp pp
-6.7755000000000001e+00 1.3552000000000000e+01 -6.7755000000000001e+00
0.0000000000000000e+00 1.1735510246683001e+01 0.0000000000000000e+00
0.0000000000000000e+00 2.2149999999999999e+01 0.0000000000000000e+00
ITEM: ATOMS id type x y z 
8 1 -2.45435 5.42594 9.82545 
87 1 2.94154 4.36767 10.6553 
90 1 2.65685 5.53179 9.76385 
109 1 -2.44685 5.43559 0.782617 
158 1 2.64165 5.44458 0.858663 
11 1 4.26133 4.25152 20.1125 
14 1 2.86638 4.16944 19.7111 
18 1 1.28517 5.85113 18.562 
33 1 2.07712 4.28567 20.9056 
43 1 4.27469 4.24047 21.5504 
47 1 3.24196 5.79702 17.8262 
52 1 4.25096 4.26238 12.6391 
76 1 2.4302 4.9308 14.1886 
85 1 4.28033 4.21822 11.1942 
89 1 3.24645 5.79665 14.9366 
91 1 0.930362 5.1274 11.8443 
102 1 2.8664 4.17145 13.0527 
105 1 1.28608 5.84614 14.2021 
114 1 2.07408 4.29315 11.8518 
150 1 2.42514 4.93326 18.5746 
156 1 2.94378 4.29499 22.1144 
159 1 0.941986 5.13514 20.9278 
5 1 -4.884 10.5527 8.63462 
9 1 -3.30227 8.8742 7.48996 
19 1 -1.7807 7.53502 10.5708 
21 1 -2.61464 8.75671 10.9749 
23 1 -3.29707 7.53863 6.81721 
25 1 -4.09414 10.4391 9.82884 
32 1 1.5969 6.38055 0.797148 
36 1 -1.86753 7.57626 9.06521 
38 1 -2.15348 6.25423 8.63836 
54 1 0.221865 8.62482 10.5642 
57 1 1.45221 7.87296 9.74551 
60 1 -1.76899 7.55229 0.0483407 
65 1 -3.29722 7.53814 3.79388 
78 1 -1.85781 7.58288 1.54887 
80 1 -2.52036 8.80223 1.90538 
84 1 -4.44481 9.79042 3.11294 
99 1 -2.95534 9.59112 0.760208 
100 1 -2.93563 6.28882 3.16796 
107 1 -4.88251 10.5524 1.97917 
110 1 -3.30108 8.87489 3.12135 
111 1 0.520245 5.9527 10.7208 
113 1 1.50164 6.38276 9.80445 
119 1 -4.09205 10.4377 0.785156 
127 1 -2.15355 6.25791 1.97278 
131 1 -2.36722 6.23128 11.013 
138 1 1.37908 7.97847 0.826126 
142 1 -2.52645 8.79613 8.71055 
145 1 -4.44586 9.78971 7.50044 
151 1 -4.96095 10.4305 11.0373 
154 1 -2.96136 9.58757 9.85547 
155 1 -2.93542 6.28793 7.44192 
161 2 -0.239097 9.35533 9.81506 
162 3 -0.32229 10.3393 9.65456 
12 1 2.56941 7.07144 17.1524 
17 1 0.427979 9.28796 20.9065 
24 1 -3.61562 8.34442 11.874 
27 1 -0.248176 7.17095 21.6406 
29 1 0.59064 5.96302 22.0513 
31 1 1.27708 7.18703 17.8936 
44 1 -0.155324 7.1394 20.1401 
46 1 0.137431 8.46605 19.7158 
51 1 -0.282522 7.1581 11.1443 
53 1 2.57351 7.06628 15.6193 
56 1 1.28256 7.18514 14.8733 
63 1 -2.3474 6.25015 21.7523 
66 1 -3.3977 6.7471 20.8634 
70 1 -0.143172 7.14602 12.6024 
72 1 0.51422 5.91781 12.9824 
92 1 0.926733 8.43702 14.2628 
95 1 -4.95982 10.4297 21.729 
98 1 -4.66003 9.28085 20.8305 
104 1 0.458947 9.30369 11.9168 
116 1 -2.60734 8.76086 21.7883 
118 1 -3.61494 8.34445 20.8931 
122 1 0.151408 8.48908 13.0499 
133 1 -3.40939 6.74416 11.9045 
136 1 0.328312 8.47428 22.087 
147 1 0.504303 5.91995 19.7827 
153 1 -4.66186 9.28149 11.9336 
160 1 0.916693 8.43616 18.5194 
1 1 7.81946 4.94625 10.5187 
4 1 9.12321 4.81908 11.004 
20 1 7.7989 4.9427 9.05986 
42 1 9.44454 5.46774 7.44384 
67 1 9.94851 4.60573 0.778103 
77 1 7.82009 4.94427 0.0933516 
94 1 7.80153 4.94362 1.5522 
96 1 9.13934 4.69836 1.99638 
121 1 4.68962 5.51496 10.677 
130 1 9.44463 5.46836 3.16814 
134 1 9.94041 4.59777 9.83401 
152 1 9.13655 4.69527 8.61402 
45 1 4.63469 5.52272 22.0796 
55 1 4.81597 5.53935 13.0695 
106 1 9.12781 4.82391 21.7607 
137 1 4.81392 5.53935 19.6968 
2 1 7.27189 10.47 9.03727 
3 1 8.96556 7.65099 6.07435 
6 1 8.50604 6.39392 6.80909 
16 1 2.37282 8.70054 0.872141 
22 1 7.0709 6.17359 8.69244 
26 1 7.19557 8.40659 7.5265 
35 1 7.25851 10.4858 10.4747 
37 1 6.90003 9.20252 11.0044 
39 1 8.28984 8.92467 6.75371 
41 1 6.69599 6.97615 9.83438 
48 1 3.69381 6.35712 0.847698 
61 1 7.2723 10.468 1.57443 
62 1 8.96662 7.65087 4.53884 
64 1 6.71529 9.18487 1.99179 
68 1 7.37657 6.95395 3.06764 
71 1 4.3362 8.51494 10.7308 
74 1 3.66277 7.75537 9.78967 
81 1 8.50535 6.39438 3.80368 
83 1 6.5459 8.39661 0.795032 
93 1 7.258 10.4861 0.136275 
97 1 8.29093 8.92467 3.85801 
101 1 2.3959 9.86757 10.6874 
103 1 2.38727 8.65072 9.7504 
117 1 7.07009 6.17267 1.92168 
120 1 7.19589 8.4057 3.0877 
123 1 3.81296 6.33632 9.77482 
129 1 6.69461 6.97329 0.779017 
132 1 6.71466 9.18675 8.62147 
135 1 7.3777 6.95498 7.5468 
141 1 7.20103 6.20369 10.9567 
144 1 6.5465 8.3993 9.81865 
148 1 3.59719 7.80732 0.823643 
7 1 9.15245 6.01871 11.9529 
10 1 3.71548 9.77987 21.5967 
13 1 2.40695 9.89997 22.0779 
15 1 3.0283 8.33079 17.8829 
28 1 3.73339 9.77901 20.137 
30 1 4.46396 8.55044 19.7671 
34 1 4.33342 6.31932 18.6032 
40 1 7.83882 8.36895 11.9233 
49 1 4.83759 7.7489 20.9098 
50 1 2.0905 9.25467 18.5214 
58 1 1.58825 10.1077 11.8647 
59 1 4.15801 7.77125 14.1441 
69 1 3.69465 9.77033 11.1569 
73 1 3.03378 8.32731 14.889 
75 1 4.99953 6.32916 11.8825 
79 1 7.20022 6.20224 21.8067 
82 1 7.93663 6.91708 20.8666 
86 1 3.72837 9.77936 12.6219 
88 1 2.40213 10.0305 13.0878 
108 1 9.16114 6.02424 20.8167 
112 1 4.4631 8.55623 12.9996 
115 1 4.33967 6.31921 14.1649 
124 1 4.84229 7.75105 11.8634 
125 1 2.0963 9.25944 14.259 
126 1 6.90175 9.20123 21.7608 
128 1 7.84064 8.36705 20.8415 
139 1 1.58505 10.118 20.9108 
140 1 4.15729 7.76959 18.6183 
143 1 7.93208 6.91665 11.9013 
146 1 4.33309 8.5205 22.0327 
149 1 4.98513 6.32649 20.895 
157 1 2.39586 10.0248 19.694 
ITEM: TIMESTEP
50
ITEM: NUMBER OF ATOMS
162
ITEM: BOX BOUNDS xy xz yz pp pp pp
-6.7755000000000001e+00 1.3552000000000000e+01 -6.7755000000000001e+00
0.0000000000000000e+00 1.1735510246683001e+01 0.0000000000000000e+00
0.0000000000000000e+00 2.2149999999999999e+01 0.0000000000000000e+00
ITEM: ATOMS id type x y z 
8 1 -2.47337 5.44968 9.82034 
87 1 2.93685 4.39721 10.6545 
90 1 2.64922 5.55132 9.74889 
109 1 -2.46372 5.46215 0.788241 
158 1 2.63093 5.45289 0.880585 
11 1 4.24906 4.281 20.0981 
14 1 2.84881 4.18651 19.7117 
18 1 1.26706 5.85231 18.5541 
33 1 2.06372 4.29779 20.9145 
43 1 4.2553 4.27686 21.538 
47 1 3.23212 5.79606 17.8307 
52 1 4.23397 4.28879 12.6411 
76 1 2.40873 4.92846 14.1942 
85 1 4.26987 4.24657 11.2034 
89 1 3.23215 5.79783 14.9369 
91 1 0.90289 5.13758 11.8367 
102 1 2.84511 4.18739 13.0422 
105 1 1.27755 5.84997 14.2128 
114 1 2.05557 4.31839 11.8466 
150 1 2.40879 4.92997 18.5711 
156 1 2.93028 4.31374 22.116 
159 1 0.918742 5.14161 20.9314 
5 1 -4.87026 10.5422 8.64202 
9 1 -3.29541 8.86873 7.47663 
19 1 -1.77701 7.54394 10.5733 
21 1 -2.6057 8.75782 10.9885 
23 1 -3.30039 7.54384 6.81116 
25 1 -4.08137 10.4274 9.83891 
32 1 1.58136 6.38271 0.815959 
36 1 -1.85062 7.59487 9.06459 
38 1 -2.14736 6.27284 8.64343 
54 1 0.231288 8.61411 10.5603 
57 1 1.44803 7.87192 9.73945 
60 1 -1.7637 7.5644 0.0484879 
65 1 -3.30098 7.5465 3.80104 
78 1 -1.83766 7.60364 1.55208 
80 1 -2.49887 8.8167 1.91132 
84 1 -4.42081 9.79689 3.12058 
99 1 -2.93286 9.58218 0.759898 
100 1 -2.93246 6.28547 3.16417 
107 1 -4.87201 10.5418 1.9683 
110 1 -3.29401 8.86831 3.13668 
111 1 0.498898 5.95392 10.7028 
113 1 1.48379 6.38124 9.78704 
119 1 -4.07932 10.4266 0.775786 
127 1 -2.14345 6.27921 1.96698 
131 1 -2.38234 6.24565 11.0187 
138 1 1.38869 7.97647 0.833472 
142 1 -2.50785 8.80694 8.70341 
145 1 -4.42167 9.79549 7.49353 
151 1 -4.94853 10.4124 11.0415 
154 1 -2.93971 9.5762 9.85709 
155 1 -2.9329 6.28534 7.44556 
161 2 -0.227326 9.37142 9.8352 
162 3 -0.33857 10.3482 9.62441 
12 1 2.57197 7.06288 17.1479 
17 1 0.446189 9.26236 20.9003 
24 1 -3.60215 8.34037 11.8935 
27 1 -0.253065 7.15836 21.6407 
29 1 0.580092 5.95806 22.064 
31 1 1.2873 7.18195 17.8867 
44 1 -0.178604 7.12175 20.1374 
46 1 0.125578 8.44336 19.723 
51 1 -0.288222 7.15334 11.1373 
53 1 2.57704 7.06091 15.6174 
56 1 1.29123 7.1778 14.885 
63 1 -2.36248 6.26882 21.7493 
66 1 -3.40735 6.74862 20.856 
70 1 -0.160967 7.13045 12.6049 
72 1 0.493011 5.91093 12.9882 
92 1 0.926768 8.4421 14.2608 
95 1 -4.94795 10.4074 21.721 
98 1 -4.6479 9.271 20.811 
104 1 0.475367 9.2782 11.9183 
116 1 -2.5963 8.76681 21.7748 
118 1 -3.59847 8.34337 20.8738 
122 1 0.147631 8.46941 13.0466 
133 1 -3.41928 6.74199 11.9107 
136 1 0.343997 8.45524 22.0903 
147 1 0.484077 5.90646 19.7746 
153 1 -4.64962 9.2721 11.9563 
160 1 0.914559 8.4375 18.5218 
1 1 7.78118 4.94379 10.5193 
4 1 9.09696 4.83179 10.9917 
20 1 7.7598 4.94517 9.05804 
42 1 9.43282 5.47701 7.44881 
67 1 9.92722 4.63489 0.783097 
77 1 7.7826 4.94226 0.092931 
94 1 7.76211 4.9463 1.55367 
96 1 9.10959 4.71812 1.99805 
121 1 4.68126 5.54087 10.6798 
130 1 9.43168 5.47678 3.16262 
134 1 9.91723 4.62671 9.82898 
152 1 9.10533 4.71327 8.6119 
45 1 4.61767 5.54989 22.0786 
55 1 4.81228 5.56768 13.0718 
106 1 9.10288 4.83887 21.7721 
137 1 4.8094 5.56197 19.69 
2 1 7.28503 10.4438 9.02284 
3 1 8.95986 7.65754 6.07093 
6 1 8.5003 6.39741 6.80812 
16 1 2.38394 8.70413 0.886001 
22 1 7.032 6.16059 8.67837 
26 1 7.19711 8.39039 7.51907 
35 1 7.27698 10.4495 10.4625 
37 1 6.91443 9.17474 11.002 
39 1 8.30787 8.92184 6.75423 
41 1 6.67402 6.95509 9.83422 
48 1 3.68034 6.36827 0.872145 
61 1 7.28655 10.4439 1.59133 
62 1 8.96003 7.6571 4.53955 
64 1 6.72209 9.15745 2.00096 
68 1 7.35959 6.94427 3.07833 
71 1 4.35663 8.51243 10.7252 
74 1 3.68057 7.76181 9.76836 
81 1 8.50149 6.39769 3.80521 
83 1 6.54765 8.37852 0.791383 
93 1 7.27903 10.4486 0.150945 
97 1 8.30904 8.91921 3.85894 
101 1 2.41891 9.83622 10.6965 
103 1 2.40222 8.63495 9.74079 
117 1 7.03217 6.15959 1.93397 
120 1 7.19727 8.3893 3.09423 
123 1 3.81257 6.34851 9.75464 
129 1 6.67103 6.95304 0.779521 
132 1 6.72118 9.15999 8.61084 
135 1 7.36087 6.94505 7.53444 
141 1 7.1836 6.20577 10.9672 
144 1 6.54757 8.38157 9.82199 
148 1 3.6073 7.81406 0.839729 
7 1 9.14118 6.01512 11.9667 
10 1 3.75375 9.78273 21.5963 
13 1 2.43109 9.8849 22.0658 
15 1 3.0333 8.32728 17.8852 
28 1 3.77289 9.77687 20.1365 
30 1 4.50075 8.56205 19.7526 
34 1 4.33224 6.33255 18.5904 
40 1 7.85099 8.35679 11.9477 
49 1 4.86071 7.77309 20.9103 
50 1 2.10166 9.24904 18.5267 
58 1 1.61476 10.0717 11.8699 