ITEM: TIMESTEP
0
ITEM: NUMBER OF ATOMS
130
ITEM: BOX BOUNDS xy xz yz pp pp pp
0.0000000000000000e+00 2.3654499999999999e+01 7.8845000000000001e+00
0.0000000000000000e+00 1.3658086643083999e+01 0.0000000000000000e+00
0.0000000000000000e+00 2.5747000000000000e+01 0.0000000000000000e+00
ITEM: ATOMS id type x y z 
18 1 10.522 6.683 2.644 
28 1 5.247 4.273 12.803 
31 1 9.65 6.514 0.446 
62 1 9.171 5.15 12.405 
91 1 9.65 6.514 11.889 
92 1 10.81 6.18 11.007 
106 1 10.522 6.683 9.691 
127 1 10.81 6.18 1.328 
4 1 4.402 5.735 13.319 
5 1 3.307 5.568 14.201 
43 1 4.549 6.796 15.517 
52 1 9.172 5.15 25.677 
66 1 4.402 5.735 24.762 
67 1 5.003 6.76 23.881 
88 1 5.247 4.273 25.278 
107 1 3.307 5.568 23.881 
116 1 4.549 6.796 22.565 
117 1 5.003 6.76 14.201 
11 1 11.272 7.494 3.321 
12 1 10.477 8.871 4.018 
14 1 9.018 11.397 0.446 
15 1 10.114 11.565 1.328 
16 1 8.412 9.024 0.654 
19 1 10.477 8.871 5.569 
29 1 10.927 10.156 3.321 
32 1 8.77 7.648 1.328 
35 1 12.036 9.594 2.644 
45 1 9.231 8.963 3.321 
47 1 12.762 8.702 0.446 
49 1 11.224 11 0.654 
51 1 8.872 10.337 2.644 
53 1 11.272 7.494 9.014 
54 1 10.477 8.871 8.317 
56 1 9.018 11.397 11.889 
57 1 8.418 10.372 11.007 
58 1 11.224 11 11.681 
60 1 12.255 7.901 9.691 
61 1 10.477 8.871 6.766 
73 1 9.231 8.963 9.014 
75 1 12.762 8.702 11.889 
76 1 12.202 10.061 11.007 
79 1 9.224 7.617 9.691 
80 1 8.174 12.859 12.405 
89 1 10.927 10.156 9.014 
93 1 8.412 9.024 11.681 
95 1 9.951 11.095 9.691 
105 1 10.114 11.565 11.007 
109 1 8.77 7.648 11.007 
110 1 12.036 9.594 9.691 
114 1 8.872 10.337 9.691 
119 1 8.418 10.372 1.328 
120 1 12.255 7.901 2.644 
123 1 12.202 10.061 1.328 
124 1 9.224 7.617 2.644 
128 1 9.951 11.095 2.644 
6 1 5.009 8.108 13.527 
13 1 9.663 10.28 25.128 
17 1 9.204 8.965 25.162 
30 1 10.016 7.556 25.128 
34 1 11.289 7.464 25.162 
36 1 8.174 12.859 25.677 
46 1 11.752 8.777 25.128 
50 1 10.937 10.184 25.162 
55 1 9.663 10.28 12.954 
59 1 10.937 10.184 12.919 
74 1 11.752 8.777 12.954 
78 1 11.289 7.464 12.919 
90 1 10.016 7.556 12.954 
94 1 9.204 8.965 12.919 
101 1 5.009 8.108 24.555 
33 1 11.795 6.589 0.654 
77 1 11.795 6.589 11.681 
41 1 17.967 6.132 13.527 
68 1 17.967 6.132 24.554 
103 1 19.24 6.037 22.565 
126 1 19.24 6.037 15.517 
3 1 19.528 6.852 12.254 
7 1 19.987 8.167 12.289 
10 1 15.106 8.528 12.804 
22 1 19.175 9.576 12.254 
26 1 17.902 9.668 12.289 
38 1 17.439 8.356 12.254 
42 1 18.254 6.949 12.289 
44 1 20.019 11.982 12.804 
48 1 12.546 7.4 1.328 
65 1 19.528 6.852 0.081 
69 1 18.254 6.949 0.046 
82 1 17.439 8.356 0.081 
86 1 17.902 9.668 0.046 
96 1 14.084 8.604 12.405 
98 1 19.175 9.576 0.081 
102 1 19.987 8.167 0.046 
113 1 12.546 7.4 11.007 
1 1 17.919 9.638 16.194 
2 1 18.714 8.261 16.892 
8 1 18.669 10.449 15.517 
9 1 18.714 8.261 18.442 
20 1 14.084 8.604 25.677 
21 1 18.264 6.977 16.194 
23 1 19.541 10.618 13.32 
24 1 20.421 9.484 14.201 
25 1 17.396 10.544 13.527 
27 1 17.155 7.538 15.517 
37 1 19.96 8.169 16.194 
39 1 16.429 8.43 13.319 
40 1 16.644 9.732 14.201 
63 1 17.919 9.638 21.888 
64 1 18.714 8.261 21.19 
70 1 16.936 9.231 22.565 
71 1 18.714 8.261 19.64 
72 1 20.019 11.982 25.278 
81 1 19.96 8.169 21.888 
83 1 16.429 8.43 24.762 
84 1 16.989 7.071 23.881 
85 1 17.396 10.544 24.555 
87 1 19.967 9.515 22.565 
97 1 18.263 6.977 21.888 
99 1 19.541 10.618 24.762 
100 1 18.38 10.953 23.881 
104 1 15.106 8.528 25.278 
108 1 18.669 10.449 22.565 
111 1 20.421 9.484 23.881 
112 1 17.155 7.538 22.565 
115 1 16.644 9.732 23.881 
118 1 16.936 9.231 15.517 
121 1 16.989 7.071 14.201 
122 1 19.967 9.515 15.517 
125 1 18.38 10.953 14.201 
129 2 17.396 11.894 13.527 
130 3 17.396 12.87 13.527 
ITEM: TIMESTEP
10
ITEM: NUMBER OF ATOMS
130
ITEM: BOX BOUNDS xy xz yz pp pp pp
0.0000000000000000e+00 2.3654499999999999e+01 7.8845000000000001e+00
0.0000000000000000e+00 1.3658086643083999e+01 0.0000000000000000e+00
0.0000000000000000e+00 2.5747000000000000e+01 0.0000000000000000e+00
ITEM: ATOMS id type x y z 
18 1 10.4166 6.76632 2.63434 
28 1 5.10701 4.56625 12.8859 
31 1 9.35978 6.4835 0.394141 
62 1 9.12045 5.27868 12.3724 
91 1 9.35768 6.46404 11.9426 
92 1 10.7818 6.18323 10.9113 
106 1 10.4067 6.77619 9.71082 
127 1 10.7943 6.17859 1.40841 
4 1 4.45592 5.82141 13.2335 
5 1 3.19054 5.57475 14.231 
43 1 4.57451 6.94801 15.4395 
52 1 9.11929 5.26088 25.7036 
66 1 4.4566 5.78197 24.8361 
67 1 5.12042 6.97238 23.883 
88 1 5.10901 4.56143 25.1925 
107 1 3.17053 5.59811 23.872 
116 1 4.609 6.95516 22.5922 
117 1 5.11609 6.94922 14.2063 
11 1 11.2732 7.55056 3.39692 
12 1 10.4865 8.8127 4.13771 
14 1 8.96765 11.3227 0.370823 
15 1 10.2266 11.5537 1.35223 
16 1 8.4097 8.96306 0.717083 
19 1 10.4709 8.86545 5.55287 
29 1 10.9431 10.1551 3.35302 
32 1 8.69025 7.65846 1.28777 
35 1 12.0269 9.61544 2.5711 
45 1 9.25402 8.95007 3.28137 
47 1 12.7364 8.7255 0.547735 
49 1 11.307 11.0095 0.672629 
51 1 8.85047 10.1814 2.57558 
53 1 11.3333 7.5777 8.99375 
54 1 10.4828 8.83643 8.21233 
56 1 8.97436 11.3524 11.9543 
57 1 8.28311 10.1752 11.0093 
58 1 11.3434 10.9567 11.6915 
60 1 12.2537 8.04008 9.59595 
61 1 10.4708 8.86836 6.78778 
73 1 9.26044 8.93513 9.05717 
75 1 12.7299 8.77533 11.7458 
76 1 12.2982 10.0601 11.005 
79 1 9.21542 7.67159 9.77307 
80 1 8.32907 12.5434 12.3156 
89 1 10.9583 10.1321 8.98547 
93 1 8.36479 8.94713 11.5579 
95 1 10.0356 11.0236 9.70566 
105 1 10.2627 11.5311 10.9999 
109 1 8.67617 7.65125 11.014 
110 1 12.0264 9.61813 9.72017 
114 1 8.8463 10.17 9.75409 
119 1 8.29589 10.1787 1.3288 
120 1 12.3163 8.07201 2.68472 
123 1 12.2435 10.0663 1.21921 
124 1 9.18534 7.67166 2.55954 
128 1 10.0309 11.0142 2.62193 
6 1 4.99436 8.15167 13.5636 
13 1 9.62672 10.2811 25.1379 
17 1 9.14256 9.00138 25.1352 
30 1 10.019 7.71826 25.0364 
34 1 11.2277 7.50236 25.152 
36 1 8.32158 12.553 25.7628 
46 1 11.6822 8.79742 25.0513 
50 1 11.0424 10.1265 25.2675 
55 1 9.62729 10.3412 12.9995 
59 1 10.9926 10.1458 12.8909 
74 1 11.5737 8.79567 13.0484 
78 1 11.3833 7.45231 12.9192 
90 1 9.97406 7.76586 13.0673 
94 1 9.10437 8.96346 13.02 
101 1 5.00708 8.15877 24.5108 
33 1 11.7616 6.61483 0.691552 
77 1 11.7652 6.61017 11.6582 
41 1 17.8787 6.11428 13.5561 
68 1 17.9044 6.15881 24.5486 
103 1 19.1361 6.10282 22.5746 
126 1 19.1653 6.11765 15.4985 
3 1 19.5677 6.87289 12.301 
7 1 20.051 8.10029 12.2838 
10 1 15.1438 8.4608 12.854 
22 1 19.1792 9.41437 12.1633 
26 1 17.9854 9.57028 12.2338 
38 1 17.512 8.37182 12.1397 
42 1 18.149 6.99489 12.4272 
44 1 20.0813 11.8673 12.8278 
48 1 12.5845 7.57203 1.38344 
65 1 19.5779 6.82951 0.0912045 
69 1 18.3426 7.09549 -0.0378034 
82 1 17.5173 8.32763 0.175775 
86 1 17.966 9.69163 0.0938474 
96 1 14.0463 8.6842 12.354 
98 1 19.1506 9.41711 0.122349 
102 1 19.9047 8.02858 0.0741258 
113 1 12.5853 7.57407 10.9515 
1 1 17.8782 9.56238 16.2525 
2 1 18.6929 8.32663 17.0114 
8 1 18.7977 10.3719 15.5519 
9 1 18.7214 8.26752 18.4303 
20 1 14.0429 8.67404 25.7294 
21 1 18.2114 6.99273 16.2022 
23 1 19.8075 10.6729 13.2974 
24 1 20.497 9.46908 14.1365 
25 1 17.4236 10.708 13.6292 
27 1 17.1888 7.48629 15.4138 
37 1 19.9486 8.18262 16.1469 
39 1 16.447 8.41811 13.4538 
40 1 16.6102 9.57441 14.277 
63 1 17.9648 9.6016 21.7552 
64 1 18.6934 8.30597 21.0859 
70 1 16.8278 9.02954 22.4948 
71 1 18.7187 8.26534 19.6601 
72 1 20.0778 11.8923 25.2579 
81 1 19.9397 8.19952 21.9451 
83 1 16.4419 8.35331 24.674 
84 1 16.9527 7.05274 23.9424 
85 1 17.4138 10.5328 24.5348 
87 1 19.977 9.45761 22.6431 
97 1 18.2338 6.99733 21.8525 
99 1 19.8178 10.6122 24.8088 
100 1 18.4377 10.9747 23.7842 
104 1 15.1297 8.4539 25.2312 
108 1 18.817 10.3597 22.587 
111 1 20.4693 9.46032 23.942 
112 1 17.1804 7.4972 22.6397 
115 1 16.565 9.60729 23.8363 
118 1 16.8957 9.04932 15.5753 
121 1 16.9943 7.08878 14.0839 
122 1 20.0195 9.43674 15.4379 
125 1 18.4397 10.8541 14.244 
129 2 17.3093 11.858 13.4756 
130 3 17.3816 12.8805 13.5193 
ITEM: TIMESTEP
20
ITEM: NUMBER OF ATOMS
130
ITEM: BOX BOUNDS xy xz yz pp pp pp
0.0000000000000000e+00 2.3654499999999999e+01 7.8845000000000001e+00
0.0000000000000000e+00 1.3658086643083999e+01 0.0000000000000000e+00
0.0000000000000000e+00 2.5747000000000000e+01 0.0000000000000000e+00
ITEM: ATOMS id type x y z 
18 1 10.3955 6.77298 2.65038 
28 1 5.08777 4.62676 12.8925 
31 1 9.3911 6.50395 0.445117 
62 1 9.07368 5.28672 12.3765 
91 1 9.39796 6.51661 11.9101 
92 1 10.6965 6.22323 10.9333 
106 1 10.3933 6.76543 9.70812 
127 1 10.7046 6.21264 1.4075 
4 1 4.45365 5.82816 13.3012 
5 1 3.18585 5.60291 14.2217 
43 1 4.58371 6.97011 15.4641 
52 1 9.07663 5.27714 25.7073 
66 1 4.45824 5.78322 24.7669 
67 1 5.10784 6.99414 23.8858 
88 1 5.09441 4.60983 25.1842 
107 1 3.16304 5.64472 23.884 
116 1 4.5957 6.9641 22.5871 
117 1 5.11278 6.96007 14.1887 
11 1 11.25 7.58068 3.41434 
12 1 10.5239 8.79392 4.09071 
14 1 8.98116 11.2797 0.413395 
15 1 10.232 11.5275 1.34113 
16 1 8.37455 8.9068 0.677222 
19 1 10.4697 8.86105 5.56458 
29 1 10.9563 10.1183 3.32002 
32 1 8.66661 7.64819 1.278 
35 1 12.0349 9.61291 2.57048 
45 1 9.23269 8.92877 3.25929 
47 1 12.6987 8.77484 0.492071 
49 1 11.3447 11.0304 0.685956 
51 1 8.84014 10.1569 2.59086 
53 1 11.3327 7.58604 8.95691 
54 1 10.4985 8.84059 8.23817 
56 1 8.99712 11.29 11.9199 
57 1 8.31568 10.1542 11.0212 
58 1 11.3814 10.94 11.6896 
60 1 12.2773 8.0584 9.58136 
61 1 10.4678 8.8669 6.77683 
73 1 9.23633 8.92846 9.06668 
75 1 12.7096 8.82851 11.7799 
76 1 12.3044 10.0776 10.9936 
79 1 9.18073 7.66548 9.78824 
80 1 8.34829 12.4904 12.3069 
89 1 10.953 10.1289 8.98101 
93 1 8.34775 8.89955 11.6375 
95 1 10.0363 11.0214 9.71503 
105 1 10.2688 11.4791 11.0186 
109 1 8.63922 7.65794 11.0412 
110 1 12.0595 9.64874 9.7212 
114 1 8.8467 10.1544 9.75224 
119 1 8.30986 10.1656 1.31229 
120 1 12.3052 8.13027 2.69618 
123 1 12.248 10.0842 1.24091 
124 1 9.16199 7.68302 2.54418 
128 1 10.0406 11.0131 2.63534 
6 1 5.04424 8.2119 13.5373 
13 1 9.64761 10.2369 25.128 
17 1 9.11384 8.9866 25.1598 
30 1 10.0043 7.75306 24.9975 
34 1 11.2025 7.47379 25.1715 
36 1 8.33893 12.4981 25.7685 
46 1 11.7139 8.80129 25.0651 
50 1 11.0612 10.1673 25.2583 
55 1 9.60992 10.2666 13.0116 
59 1 10.9829 10.1458 12.8895 
74 1 11.6004 8.82025 13.0328 
78 1 11.2766 7.46577 12.8855 
90 1 9.97009 7.80293 13.0779 
94 1 9.13707 8.9493 12.9539 
101 1 5.03902 8.20826 24.5071 
33 1 11.7539 6.66967 0.692248 
77 1 11.7677 6.67939 11.6837 
41 1 17.8523 6.11541 13.5433 
68 1 17.8721 6.20199 24.5516 
103 1 19.1506 6.11999 22.5683 
126 1 19.1494 6.12021 15.5058 
3 1 19.5318 6.89069 12.261 
7 1 20.0938 8.14448 12.2777 
10 1 15.1389 8.46159 12.8551 
22 1 19.2017 9.38616 12.1311 
26 1 18.0119 9.51151 12.1775 
38 1 17.5238 8.38504 12.15 
42 1 18.1353 6.9455 12.3896 
44 1 20.1268 11.8588 12.8252 
48 1 12.5812 7.5604 1.39102 
65 1 19.5894 6.79512 0.15091 
69 1 18.3629 7.11166 -0.0207043 
82 1 17.5678 8.38153 0.151782 
86 1 17.8516 9.73458 0.0422766 
96 1 14.0419 8.69609 12.3545 
98 1 19.1684 9.38994 0.173847 
102 1 19.9118 8.01026 0.0914869 
113 1 12.5643 7.56187 10.9371 
1 1 17.9257 9.55822 16.2985 
2 1 18.6706 8.32663 16.9587 
8 1 18.8169 10.3207 15.5594 
9 1 18.7246 8.27062 18.4357 
20 1 14.0471 8.68191 25.7288 
21 1 18.2383 7.00482 16.1996 
23 1 19.8101 10.6122 13.3237 
24 1 20.5201 9.48819 14.1317 
25 1 17.4025 10.7228 13.7248 
27 1 17.1514 7.50576 15.4414 
37 1 19.9594 8.19631 16.1407 
39 1 16.4767 8.39259 13.4189 
40 1 16.6397 9.59557 14.2977 
63 1 17.9362 9.5638 21.7819 
64 1 18.6555 8.32985 21.1262 
70 1 16.8864 9.02519 22.5259 
71 1 18.72 8.26722 19.6486 
72 1 20.1183 11.8727 25.2557 
81 1 19.9632 8.20176 21.9555 
83 1 16.4805 8.3041 24.6926 
84 1 16.9346 7.03722 23.9204 
85 1 17.4152 10.4689 24.5208 
87 1 20.0145 9.44698 22.6622 
97 1 18.2367 7.01092 21.874 
99 1 19.7584 10.5806 24.7526 
100 1 18.5355 10.9067 23.816 
104 1 15.1323 8.44479 25.2323 
108 1 18.8083 10.3526 22.5598 
111 1 20.5086 9.47025 23.9609 
112 1 17.1448 7.52254 22.6271 
115 1 16.6008 9.58017 23.7933 
118 1 16.8799 9.0077 15.5459 
121 1 16.9452 7.06007 14.1071 
122 1 20.0373 9.44839 15.4206 
125 1 18.4789 10.8435 14.253 
129 2 17.2841 11.8584 13.4745 
130 3 17.3713 12.8702 13.5091 
ITEM: TIMESTEP
30
ITEM: NUMBER OF ATOMS
130
ITEM: BOX BOUNDS xy xz yz pp pp pp
0.0000000000000000e+00 2.3654499999999999e+01 7.8845000000000001e+00
0.0000000000000000e+00 1.3658086643083999e+01 0.0000000000000000e+00
0.0000000000000000e+00 2.5747000000000000e+01 0.0000000000000000e+00
ITEM: ATOMS id type x y z 
18 1 10.3699 6.77614 2.66879 
28 1 5.09389 4.62808 12.8897 
31 1 9.41099 6.5106 0.472712 
62 1 9.0544 5.3015 12.376 
91 1 9.42289 6.54322 11.8909 
92 1 10.6492 6.25273 10.9596 
106 1 10.3748 6.77367 9.69513 
127 1 10.6648 6.23799 1.39151 
4 1 4.43235 5.85289 13.3149 
5 1 3.18795 5.61789 14.2159 
43 1 4.58471 6.9803 15.4692 
52 1 9.05236 5.27848 25.7044 
66 1 4.45713 5.8041 24.7547 
67 1 5.0929 6.99857 23.8798 
88 1 5.10899 4.59468 25.1881 
107 1 3.16329 5.668 23.874 
116 1 4.5905 6.97188 22.5941 
117 1 5.10767 6.97427 14.1853 
11 1 11.245 7.58574 3.41733 
12 1 10.5287 8.79278 4.07766 
14 1 8.99496 11.2547 0.420402 
15 1 10.2351 11.514 1.34431 
16 1 8.35982 8.88979 0.668824 
19 1 10.4704 8.85826 5.56535 
29 1 10.9485 10.1106 3.31622 
32 1 8.6622 7.64582 1.26991 
35 1 12.0545 9.61165 2.57746 
45 1 9.2159 8.92611 3.25062 
47 1 12.6821 8.79345 0.477894 
49 1 11.3542 11.0312 0.675558 
51 1 8.8403 10.1495 2.593 
53 1 11.3358 7.59141 8.95902 
54 1 10.4983 8.83902 8.25043 
56 1 9.00727 11.2552 11.9167 
57 1 8.33076 10.1456 11.0267 
58 1 11.3934 10.9381 11.6931 
60 1 12.2751 8.06414 9.58379 
61 1 10.466 8.86669 6.77518 
73 1 9.23093 8.92497 9.07423 
75 1 12.6983 8.83528 11.7929 
76 1 12.3047 10.0847 10.9917 
79 1 9.1762 7.65637 9.7934 
80 1 8.34043 12.4957 12.3102 
89 1 10.9487 10.1259 8.99058 
93 1 8.33446 8.8812 11.6617 
95 1 10.0384 11.0242 9.70681 
105 1 10.2691 11.4544 11.0185 
109 1 8.64619 7.64296 11.0572 
110 1 12.0763 9.64651 9.71505 
114 1 8.85039 10.1514 9.74733 
119 1 8.31673 10.1494 1.31039 
120 1 12.3098 8.13059 2.68298 
123 1 12.2586 10.0937 1.23822 
124 1 9.16157 7.6738 2.53859 
128 1 10.0387 11.022 2.64839 
6 1 5.06306 8.23164 13.5315 
13 1 9.64852 10.2333 25.1372 
17 1 9.11504 8.96564 25.1595 
30 1 10.0011 7.75641 24.9929 
34 1 11.1989 7.48209 25.177 
36 1 8.33222 12.4981 25.7643 
46 1 11.7108 8.80096 25.0755 
50 1 11.0757 10.1686 25.2526 
55 1 9.61514 10.2502 13.0049 
59 1 10.9884 10.1354 12.8909 
74 1 11.6192 8.83054 13.0145 
78 1 11.258 7.49285 12.88 
90 1 9.9531 7.7802 13.0606 
94 1 9.12914 8.93969 12.9433 
101 1 5.03662 8.21758 24.5329 
33 1 11.7484 6.69365 0.692407 
77 1 11.7602 6.68941 11.6888 
41 1 17.8368 6.11366 13.539 
68 1 17.8575 6.20487 24.5506 
103 1 19.1541 6.11356 22.5591 
126 1 19.1501 6.10726 15.5214 
3 1 19.5348 6.89043 12.2547 
7 1 20.095 8.14678 12.2819 
10 1 15.136 8.47105 12.8504 
22 1 19.2216 9.38591 12.1226 
26 1 18.018 9.49255 12.1316 
38 1 17.5329 8.37884 12.1447 
42 1 18.1332 6.93499 12.3836 
44 1 20.1479 11.8479 12.8267 
48 1 12.5743 7.56976 1.39293 
65 1 19.5778 6.86545 0.157926 
69 1 18.3376 7.07919 0.00315729 
82 1 17.5548 8.37069 0.140229 
86 1 17.8956 9.72118 0.0258022 
96 1 14.0392 8.69296 12.3577 
98 1 19.1804 9.38511 0.128482 
102 1 19.9326 8.06899 0.091813 
113 1 12.5627 7.58471 10.9342 
1 1 17.9305 9.54274 16.3085 
2 1 18.6638 8.32382 16.9457 
8 1 18.8422 10.3153 15.5725 
9 1 18.7246 8.27066 18.4389 
20 1 14.0479 8.68338 25.7213 
21 1 18.2433 7.01947 16.1933 
23 1 19.8038 10.5975 13.3232 
24 1 20.5344 9.48873 14.1279 
25 1 17.3904 10.7419 13.7645 
27 1 17.1291 7.50678 15.4521 
37 1 19.978 8.19496 16.1322 
39 1 16.4802 8.38537 13.418 
40 1 16.643 9.5856 14.295 
63 1 17.941 9.55616 21.7814 
64 1 18.656 8.33485 21.1381 
70 1 16.8739 9.02 22.5246 
71 1 18.7202 8.26985 19.6453 
72 1 20.13 11.8376 25.2496 
81 1 19.9722 8.20388 21.9577 
83 1 16.5073 8.30142 24.7021 
84 1 16.9232 7.03509 23.9113 
85 1 17.4125 10.4568 24.5252 
87 1 20.0225 9.45196 22.6673 
97 1 18.2397 7.01983 21.883 
99 1 19.7373 10.5602 24.7819 
100 1 18.5579 10.8808 23.8383 
104 1 15.139 8.44751 25.237 
108 1 18.8384 10.3506 22.5373 
111 1 20.5113 9.47392 23.962 
112 1 17.1263 7.51884 22.6181 
115 1 16.6105 9.55583 23.8107 
118 1 16.8861 9.00165 15.5456 
121 1 16.9384 7.0585 14.1063 
122 1 20.0412 9.45375 15.4203 
125 1 18.4887 10.8448 14.2532 
129 2 17.273 11.8569 13.482 
130 3 17.3654 12.8652 13.5012 
ITEM: TIMESTEP
40
ITEM: NUMBER OF ATOMS
130
ITEM: BOX BOUNDS xy xz yz pp pp pp
0.0000000000000000e+00 2.3654499999999999e+01 7.8845000000000001e+00
0.0000000000000000e+00 1.3658086643083999e+01 0.0000000000000000e+00
0.0000000000000000e+00 2.5747000000000000e+01 0.0000000000000000e+00
ITEM: ATOMS id type x y z 
18 1 10.34 6.7863 2.69985 
28 1 5.09547 4.65396 12.8916 
31 1 9.3993 6.50903 0.493529 
62 1 9.00911 5.31013 12.389 
91 1 9.41692 6.59457 11.9071 
92 1 10.6121 6.282 10.9684 
106 1 10.3515 6.79056 9.67898 
127 1 10.6214 6.26435 1.39192 
4 1 4.41735 5.88663 13.3184 
5 1 3.17648 5.63528 14.2256 
43 1 4.58205 6.97822 15.4678 
52 1 9.0004 5.28805 25.6962 
66 1 4.44811 5.83555 24.7518 
67 1 5.0773 6.98107 23.9058 
88 1 5.09978 4.64126 25.169 
107 1 3.18079 5.69179 23.8831 
116 1 4.58055 6.97136 22.5911 
117 1 5.10451 7.00033 14.1805 
11 1 11.244 7.58849 3.41766 
12 1 10.5188 8.78775 4.07346 
14 1 9.00698 11.226 0.427838 
15 1 10.242 11.4973 1.35496 
16 1 8.32879 8.86834 0.647286 
19 1 10.4715 8.85294 5.56497 
29 1 10.9492 10.0945 3.30061 
32 1 8.64057 7.62189 1.25728 
35 1 12.0741 9.61879 2.57776 
45 1 9.20933 8.92262 3.25296 
47 1 12.6792 8.81896 0.468162 
49 1 11.3698 11.0451 0.671598 
51 1 8.84198 10.1484 2.5924 
53 1 11.3373 7.60203 8.95998 
54 1 10.4958 8.83187 8.25302 
56 1 9.01381 11.2217 11.924 
57 1 8.34065 10.1179 11.0371 
58 1 11.4087 10.9334 11.6936 
60 1 12.2718 8.07713 9.5849 
61 1 10.4627 8.86443 6.77638 
73 1 9.22751 8.9212 9.07731 
75 1 12.6879 8.85465 11.811 
76 1 12.3264 10.092 10.9866 
79 1 9.16027 7.64747 9.78107 
80 1 8.34013 12.4735 12.3075 
89 1 10.9532 10.1145 8.99689 
93 1 8.29624 8.86365 11.6902 
95 1 10.0357 11.019 9.69918 
105 1 10.2749 11.4266 11.0205 
109 1 8.63238 7.61792 11.0769 
110 1 12.0978 9.64911 9.70748 
114 1 8.85396 10.1525 9.74457 
119 1 8.32019 10.1216 1.30472 
120 1 12.3046 8.14525 2.68017 
123 1 12.2769 10.1038 1.23305 
124 1 9.14484 7.66622 2.54522 
128 1 10.0313 11.022 2.66008 
6 1 5.09913 8.25413 13.5194 
13 1 9.65789 10.2177 25.1479 
17 1 9.11561 8.94799 25.1542 
30 1 10.0016 7.75948 24.978 
34 1 11.1949 7.48104 25.1788 
36 1 8.33025 12.4729 25.7625 
46 1 11.7044 8.80609 25.0645 
50 1 11.0902 10.1796 25.2544 
55 1 9.62124 10.2278 13.0091 
59 1 10.9973 10.1395 12.8939 
74 1 11.6625 8.84882 12.9901 
78 1 11.2486 7.51835 12.8729 
90 1 9.90713 7.72875 13.027 
94 1 9.11643 8.92058 12.9391 
101 1 5.06704 8.2317 24.5615 
33 1 11.7304 6.73046 0.694323 
77 1 11.7472 6.73429 11.6836 
41 1 17.8181 6.10361 13.5382 
68 1 17.8457 6.22574 24.5627 
103 1 19.1568 6.11617 22.541 
126 1 19.159 6.10302 15.5322 
3 1 19.5342 6.89067 12.2574 
7 1 20.105 8.14444 12.2818 
10 1 15.1317 8.4875 12.84 
22 1 19.2366 9.37856 12.1068 
26 1 18.0316 9.47466 12.0336 
38 1 17.5594 8.36518 12.1356 
42 1 18.1234 6.92036 12.3824 
44 1 20.1911 11.8207 12.8304 
48 1 12.5744 7.59943 1.38001 
65 1 19.528 6.97229 0.151999 
69 1 18.3131 7.0245 0.0347888 
82 1 17.5332 8.34001 0.12643 
86 1 17.8981 9.67801 -0.00745984 
96 1 14.0334 8.69304 12.3645 
98 1 19.2384 9.39357 0.135674 
102 1 19.9797 8.12026 0.0951299 
113 1 12.5557 7.61125 10.9445 
1 1 17.9423 9.53814 16.3125 
2 1 18.6769 8.32764 16.9423 
8 1 18.8629 10.3055 15.5916 
9 1 18.7246 8.27038 18.4413 
20 1 14.0564 8.68598 25.7046 
21 1 18.2449 7.03034 16.1754 
23 1 19.798 10.5713 13.3154 
24 1 20.5595 9.50446 14.1237 
25 1 17.3735 10.769 13.8354 
27 1 17.1014 7.49987 15.4553 
37 1 19.9868 8.19698 16.1309 
39 1 16.4874 8.38578 13.4038 
40 1 16.6516 9.56959 14.2993 
63 1 17.949 9.54904 21.7969 
64 1 18.6638 8.35083 21.1463 
70 1 16.8706 9.01453 22.521 
71 1 18.7207 8.27614 19.6455 
72 1 20.1692 11.8291 25.2657 
81 1 19.9804 8.2047 21.9506 
83 1 16.5256 8.27173 24.7229 
84 1 16.8971 7.03355 23.9022 
85 1 17.4229 10.4418 24.5319 
87 1 20.0522 9.4605 22.6596 
97 1 18.2427 7.03068 21.8933 
99 1 19.7474 10.5246 24.8048 
100 1 18.5682 10.8385 23.8203 
104 1 15.1537 8.44899 25.2484 
108 1 18.8498 10.3569 22.5294 
111 1 20.546 9.46698 23.9481 
112 1 17.0956 7.51078 22.6046 
115 1 16.616 9.5156 23.8169 
118 1 16.8994 8.9823 15.5453 
121 1 16.9298 7.05648 14.1038 
122 1 20.0695 9.45463 15.4181 
125 1 18.5076 10.8442 14.2756 
129 2 17.2476 11.8584 13.4995 
130 3 17.352 12.8568 13.4826 
ITEM: TIMESTEP
50
ITEM: NUMBER OF ATOMS
130
ITEM: BOX BOUNDS xy xz yz pp pp pp
0.0000000000000000e+00 2.3654499999999999e+01 7.8845000000000001e+00
0.0000000000000000e+00 1.3658086643083999e+01 0.0000000000000000e+00
0.0000000000000000e+00 2.5747000000000000e+01 0.0000000000000000e+00
ITEM: ATOMS id type x y z 
18 1 10.338 6.78694 2.69994 
28 1 5.09553 4.65995 12.892 
31 1 9.39251 6.50727 0.492531 
62 1 8.9988 5.30427 12.3943 
91 1 9.41124 6.5919 11.9147 
92 1 10.6143 6.28823 10.9625 
106 1 10.3522 6.791 9.67982 
127 1 10.6201 6.26849 1.39608 
4 1 4.41739 5.88902 13.3193 
5 1 3.17474 5.63503 14.2276 
43 1 4.58384 6.97821 15.4666 
52 1 8.99061 5.29119 25.6948 
66 1 4.45047 5.8362 24.7492 
67 1 5.07891 6.98805 23.9016 
88 1 5.10296 4.64167 25.1691 
107 1 3.17522 5.69481 23.8781 
116 1 4.58215 6.97269 22.596 
117 1 5.10524 7.00456 14.181 
11 1 11.244 7.58997 3.41712 
12 1 10.5189 8.78627 4.07422 
14 1 9.00805 11.2227 0.428565 
15 1 10.2437 11.4956 1.3557 
16 1 8.32518 8.86439 0.645163 
19 1 10.4711 8.8521 5.56472 
29 1 10.9486 10.0928 3.29927 
32 1 8.63423 7.61997 1.25892 
35 1 12.0751 9.61985 2.57586 
45 1 9.2077 8.92277 3.25204 
47 1 12.6802 8.82191 0.463235 
49 1 11.3721 11.0472 0.674193 
51 1 8.84054 10.1463 2.59154 
53 1 11.3359 7.60271 8.9605 
54 1 10.4967 8.82995 8.25259 
56 1 9.01501 11.218 11.9255 
57 1 8.33927 10.1152 11.037 
58 1 11.4084 10.9314 11.6935 
60 1 12.2722 8.07825 9.58618 
61 1 10.4625 8.86365 6.7757 
73 1 9.22633 8.92144 9.07683 
75 1 12.691 8.85694 11.808 
76 1 12.3332 10.0941 10.9857 
79 1 9.15211 7.64812 9.78383 
80 1 8.34088 12.4668 12.3068 
89 1 10.9545 10.1134 8.99764 
93 1 8.29012 8.85996 11.6905 
95 1 10.0372 11.0166 9.70091 
105 1 10.2765 11.4239 11.0204 
109 1 8.61893 7.62532 11.0662 
110 1 12.0991 9.65136 9.70627 
114 1 8.85224 10.1502 9.74747 
119 1 8.31982 10.1156 1.30381 
120 1 12.3038 8.14761 2.67926 
123 1 12.2795 10.1081 1.23299 
124 1 9.13914 7.66693 2.54611 
128 1 10.0317 11.0199 2.65956 
6 1 5.10374 8.257 13.5167 
13 1 9.65976 10.2157 25.1488 
17 1 9.11416 8.94635 25.1525 
30 1 9.99994 7.75852 24.9756 
34 1 11.1946 7.48316 25.175 
36 1 8.33036 12.4664 25.7624 
46 1 11.7066 8.80869 25.0638 
50 1 11.0912 10.1805 25.2542 
55 1 9.62272 10.2231 13.0106 
59 1 10.9987 10.1427 12.8945 
74 1 11.6637 8.85124 12.9901 
78 1 11.2454 7.52152 12.8772 
90 1 9.90694 7.72821 13.0298 
94 1 9.11334 8.91909 12.9415 
101 1 5.07278 8.23133 24.5671 
33 1 11.7245 6.73238 0.698969 
77 1 11.7436 6.73428 11.6792 
41 1 17.815 6.10319 13.5384 
68 1 17.8451 6.22511 24.5661 
103 1 19.1552 6.11664 22.5433 
126 1 19.1588 6.10509 15.5318 
3 1 19.532 6.8924 12.2567 
7 1 20.1069 8.14482 12.2827 
10 1 15.1329 8.48955 12.8387 
22 1 19.2407 9.38048 12.1042 
26 1 18.0368 9.46951 12.0144 
38 1 17.5577 8.36292 12.1347 
42 1 18.124 6.9179 12.3829 
44 1 20.199 11.8147 12.8309 
48 1 12.5721 7.60412 1.38124 
65 1 19.5232 6.98079 0.168094 
69 1 18.3043 7.03147 0.0333412 
82 1 17.5275 8.32654 0.128564 
86 1 17.9077 9.66991 -0.00827613 
96 1 14.0336 8.69603 12.3658 
98 1 19.2449 9.40407 0.139181 
102 1 19.9842 8.13375 0.0855714 
113 1 12.5558 7.61988 10.9436 
1 1 17.943 9.5363 16.3124 
2 1 18.6771 8.32814 16.9439 
8 1 18.869 10.3038 15.5942 
9 1 18.725 8.2705 18.4419 
20 1 14.0574 8.68751 25.7025 
21 1 18.245 7.03126 16.1741 
23 1 19.7979 10.5678 13.3134 
24 1 20.5637 9.50557 14.123 
25 1 17.3727 10.7718 13.8461 
27 1 17.1013 7.49758 15.4545 
37 1 19.9897 8.19605 16.1299 
39 1 16.4899 8.38719 13.4008 
40 1 16.6538 9.56775 14.3008 
63 1 17.9479 9.55091 21.7979 
64 1 18.6646 8.35104 21.1458 
70 1 16.8736 9.01159 22.5208 
71 1 18.7207 8.2773 19.6462 
72 1 20.175 11.8201 25.2664 
81 1 19.983 8.20536 21.952 
83 1 16.5226 8.26398 24.7193 
84 1 16.8889 7.03695 23.9036 
85 1 17.4272 10.432 24.5316 
87 1 20.0565 9.4621 22.6583 
97 1 18.2427 7.03522 21.8929 
99 1 19.7547 10.5262 24.7989 
100 1 18.5754 10.8347 23.8275 
104 1 15.156 8.44611 25.25 
108 1 18.8547 10.3513 22.5286 
111 1 20.5475 9.47166 23.9491 
112 1 17.0922 7.50772 22.6008 
115 1 16.6153 9.5122 23.8179 
118 1 16.9019 8.97977 15.5465 
121 1 16.9268 7.05748 14.1021 
122 1 20.0739 9.45599 15.4182 
125 1 18.5089 10.845 14.2795 
129 2 17.2425 11.8581 13.5034 
130 3 17.3488 12.8561 13.4784 
ITEM: TIMESTEP
60
ITEM: NUMBER OF ATOMS
130
ITEM: BOX BOUNDS xy xz yz pp pp pp
0.0000000000000000e+00 2.3654499999999999e+01 7.8845000000000001e+00
0.0000000000000000e+00 1.3658086643083999e+01 0.0000000000000000e+00
0.0000000000000000e+00 2.5747000000000000e+01 0.0000000000000000e+00
ITEM: ATOMS id type x y z 
18 1 10.3259 6.79362 2.70601 
28 1 5.09762 4.68532 12.8934 
31 1 9.36571 6.50005 0.495394 
62 1 8.96189 5.31351 12.4057 
91 1 9.38022 6.58734 11.9241 
92 1 10.5929 6.31494 10.9656 
106 1 10.3401 6.80476 9.67935 
127 1 10.606 6.28478 1.40747 
4 1 4.41319 5.90157 13.3252 
5 1 3.16692 5.63885 14.2311 
43 1 4.59226 6.98018 15.4632 
52 1 8.94245 5.30203 25.6875 
66 1 4.44957 5.84958 24.7437 
67 1 5.08362 6.99882 23.9075 
88 1 5.10786 4.66401 25.1616 
107 1 3.16323 5.71162 23.8796 
116 1 4.58159 6.97706 22.606 
117 1 5.11068 7.02156 14.1791 
11 1 11.2421 7.5948 3.41523 
12 1 10.5182 8.78057 4.07589 
14 1 9.01221 11.2059 0.432921 
15 1 10.2495 11.4903 1.35963 
16 1 8.30933 8.84549 0.633878 
19 1 10.4692 8.84804 5.56472 
29 1 10.9469 10.0846 3.29435 
32 1 8.6059 7.61138 1.26547 
35 1 12.0796 9.62854 2.56873 
45 1 9.201 8.92097 3.25093 
47 1 12.6843 8.83627 0.449786 
49 1 11.3816 11.0565 0.678311 
51 1 8.83306 10.1393 2.5864 
53 1 11.331 7.60675 8.96203 
54 1 10.4969 8.82341 8.25156 
56 1 9.02046 11.1975 11.9326 
57 1 8.33071 10.0988 11.0426 
58 1 11.4155 10.9245 11.6904 
60 1 12.2696 8.08816 9.58435 
61 1 10.4616 8.85958 6.77563 
73 1 9.2233 8.92021 9.07635 
75 1 12.699 8.8744 11.8027 
76 1 12.3587 10.1043 10.982 
79 1 9.12791 7.64852 9.78471 
80 1 8.34243 12.4387 12.3047 
89 1 10.9566 10.1062 8.99966 
93 1 8.26786 8.8482 11.6936 
95 1 10.0392 11.0052 9.70579 
105 1 10.2824 11.4119 11.0219 
109 1 8.58847 7.62363 11.0607 
110 1 12.1091 9.65938 9.70263 
114 1 8.84829 10.1413 9.75644 
119 1 8.31718 10.0921 1.29919 
120 1 12.3022 8.15743 2.67895 
123 1 12.2935 10.1227 1.23019 
124 1 9.11445 7.66643 2.54832 
128 1 10.0298 11.0117 2.65799 
6 1 5.12602 8.26834 13.5073 
13 1 9.66621 10.2036 25.1516 
17 1 9.10993 8.93921 25.1488 
30 1 9.99974 7.76163 24.9608 
34 1 11.1938 7.48979 25.1654 
36 1 8.32919 12.4379 25.7609 
46 1 11.7079 8.81476 25.0556 
50 1 11.096 10.186 25.2577 
55 1 9.62658 10.2014 13.0132 
59 1 11.0056 10.1504 12.9013 
74 1 11.6588 8.85381 12.9847 
78 1 11.2404 7.52886 12.8843 
90 1 9.90217 7.72226 13.0243 
94 1 9.09682 8.90758 12.9474 
101 1 5.10536 8.24013 24.5747 
33 1 11.7019 6.74903 0.711013 
77 1 11.729 6.7565 11.6715 
41 1 17.805 6.09929 13.5417 
68 1 17.8365 6.23016 24.5645 
103 1 19.1495 6.12554 22.5457 
126 1 19.1595 6.10965 15.5296 
3 1 19.5277 6.89855 12.2575 
7 1 20.1149 8.14446 12.2827 
10 1 15.1386 8.49971 12.8346 
22 1 19.2499 9.37915 12.092 
26 1 18.0508 9.45246 11.9226 
38 1 17.5678 8.36116 12.127 
42 1 18.1231 6.90747 12.3849 
44 1 20.2363 11.7869 12.8326 
48 1 12.5598 7.62259 1.37783 
65 1 19.5069 7.02281 0.211822 
69 1 18.2956 7.03931 0.0375283 
82 1 17.5103 8.30756 0.136609 
86 1 17.9364 9.63058 -0.00459065 
96 1 14.0367 8.71208 12.3714 
98 1 19.2638 9.4286 0.154845 
102 1 19.9924 8.16517 0.0672553 
113 1 12.5537 7.6389 10.9439 
1 1 17.9528 9.5306 16.3136 
2 1 18.6833 8.32868 16.9475 
8 1 18.8906 10.2969 15.6052 
9 1 18.7266 8.2714 18.4447 
20 1 14.0598 8.6945 25.6969 
21 1 18.247 7.03664 16.1703 
23 1 19.7967 10.5515 13.3084 
24 1 20.582 9.51158 14.1202 
25 1 17.3703 10.785 13.8934 
27 1 17.098 7.4887 15.4496 
37 1 19.9968 8.19462 16.1266 
39 1 16.5019 8.39384 13.3885 
40 1 16.6635 9.56139 14.3086 
63 1 17.9506 9.55252 21.801 
64 1 18.6714 8.36054 21.1463 
70 1 16.881 8.99853 22.5196 
71 1 18.7209 8.28253 19.6491 
72 1 20.2135 11.8137 25.2806 
81 1 19.9913 8.20587 21.9528 
83 1 16.5133 8.2419 24.7122 
84 1 16.8664 7.02334 23.9005 
85 1 17.4482 10.3937 24.5279 
87 1 20.0826 9.46558 22.6506 
97 1 18.2422 7.04681 21.8932 
99 1 19.7863 10.5277 24.7891 
100 1 18.5906 10.816 23.8342 
104 1 15.1594 8.43234 25.2553 
108 1 18.8661 10.3399 22.5317 
111 1 20.5757 9.47131 23.9457 
112 1 17.0759 7.496 22.5902 
115 1 16.6158 9.49392 23.8195 
118 1 16.9111 8.96817 15.5507 
121 1 16.9163 7.05879 14.0953 
122 1 20.097 9.45695 15.4198 
125 1 18.518 10.8486 14.2985 
129 2 17.2187 11.8569 13.5217 
130 3 17.3331 12.8524 13.4578 
ITEM: TIMESTEP
70
ITEM: NUMBER OF ATOMS
130
ITEM: BOX BOUNDS xy xz yz pp pp pp
0.0000000000000000e+00 2.3654499999999999e+01 7.8845000000000001e+00
0.0000000000000000e+00 1.3658086643083999e+01 0.0000000000000000e+00
0.0000000000000000e+00 2.5747000000000000e+01 0.0000000000000000e+00
ITEM: ATOMS id type x y z 
18 1 10.2973 6.81151 2.72207 
28 1 5.11421 4.71621 12.8892 
31 1 9.32263 6.47809 0.528888 
62 1 8.88133 5.32151 12.4314 
91 1 9.33028 6.60543 11.9175 
92 1 10.5532 6.34683 10.9788 
106 1 10.3055 6.83197 9.68421 
127 1 10.5595 6.3112 1.40424 
4 1 4.40569 5.92426 13.3379 
5 1 3.15602 5.64914 14.2306 
43 1 4.60596 6.9818 15.4561 
52 1 8.83966 5.3096 25.6715 
66 1 4.42056 5.90779 24.7763 
67 1 5.10515 7.00442 23.9295 
88 1 5.10472 4.73542 25.1378 
107 1 3.158 5.71886 23.8943 
116 1 4.58017 6.98253 22.6242 
117 1 5.12857 7.03914 14.1736 
11 1 11.2395 7.60018 3.4081 
12 1 10.5089 8.77889 4.07262 
14 1 9.01949 11.1719 0.441102 
15 1 10.254 11.4804 1.36297 
16 1 8.27778 8.81767 0.622609 
19 1 10.4659 8.83941 5.56474 
29 1 10.9412 10.0737 3.2838 
32 1 8.55795 7.59565 1.27008 
35 1 12.0878 9.64136 2.56521 