LAMMPS (3 Mar 2020)
Reading data file ...
  orthogonal box = (0 0 0) to (16.114 16.113 16.112)
  2 by 2 by 2 MPI processor grid
  reading atoms ...
  201 atoms
  read_data CPU = 0.0138989 secs
WARNING: Using 'neigh_modify every 1 delay 0 check yes' setting during minimization (../min.cpp:190)
WARNING: Total cutoff < 2*bond cutoff. May need to use an increased neighbor list skin. (../pair_reaxc.cpp:413)
Neighbor list info ...
  update every 1 steps, delay 0 steps, check yes
  max neighbors/atom: 2000, page size: 100000
  master list distance cutoff = 9.5
  ghost atom cutoff = 9.5
  binsize = 4.75, bins = 4 4 4
  2 neighbor lists, perpetual/occasional/extra = 2 0 0
  (1) pair reax/c, perpetual
      attributes: half, newton off, ghost
      pair build: half/bin/newtoff/ghost
      stencil: half/ghost/bin/3d/newtoff
      bin: standard
  (2) fix qeq/reax, perpetual, copy from (1)
      attributes: half, newton off, ghost
      pair build: copy
      stencil: none
      bin: none
Setting up cg style minimization ...
  Unit style    : real
  Current step  : 0
Per MPI rank memory allocation (min/avg/max) = 25.32 | 25.49 | 25.69 Mbytes
Step Temp E_pair E_mol TotEng Press 
       0            0   -38960.954            0   -38960.954     35409.51 
      77            0   -39035.593            0   -39035.593    16771.293 
Loop time of 3.08551 on 8 procs for 77 steps with 201 atoms

99.3% CPU use with 8 MPI tasks x no OpenMP threads

Minimization stats:
  Stopping criterion = energy tolerance
  Energy initial, next-to-last, final = 
        -38960.9535382     -39035.5932064     -39035.5933183
  Force two-norm initial, final = 492.259 55.3376
  Force max component initial, final = 143.151 14.1904
  Final line search alpha, max atom move = 0.00222981 0.0316419
  Iterations, force evaluations = 77 355

MPI task timing breakdown:
Section |  min time  |  avg time  |  max time  |%varavg| %total
---------------------------------------------------------------
Pair    | 2.3958     | 2.4316     | 2.5172     |   2.7 | 78.81
Neigh   | 0          | 0          | 0          |   0.0 |  0.00
Comm    | 0.019569   | 0.10504    | 0.14093    |  12.9 |  3.40
Output  | 0.00028993 | 0.00034654 | 0.00049621 |   0.0 |  0.01
Modify  | 0.54284    | 0.54296    | 0.54315    |   0.0 | 17.60
Other   |            | 0.005545   |            |       |  0.18

Nlocal:    25.125 ave 29 max 22 min
Histogram: 1 0 3 0 0 3 0 0 0 1
Nghost:    964.875 ave 972 max 958 min
Histogram: 1 0 2 0 0 2 0 2 0 1
Neighs:    4311.75 ave 4853 max 3866 min
Histogram: 1 0 3 0 0 3 0 0 0 1

Total # of neighbors = 34494
Ave neighs/atom = 171.612
Neighbor list builds = 0
Dangerous builds = 0
WARNING: Using 'neigh_modify every 1 delay 0 check yes' setting during minimization (../min.cpp:190)
WARNING: Total cutoff < 2*bond cutoff. May need to use an increased neighbor list skin. (../pair_reaxc.cpp:413)
Setting up cg style minimization ...
  Unit style    : real
  Current step  : 77
Per MPI rank memory allocation (min/avg/max) = 25.32 | 25.49 | 25.69 Mbytes
Step Temp E_pair E_mol TotEng Press 
      77            0   -39035.593            0   -39035.593    16771.293 
     119            0   -39038.654            0   -39038.654     17593.15 
Loop time of 1.97117 on 8 procs for 42 steps with 201 atoms

99.2% CPU use with 8 MPI tasks x no OpenMP threads

Minimization stats:
  Stopping criterion = energy tolerance
  Energy initial, next-to-last, final = 
        -39035.5933183     -39038.6543748     -39038.6544089
  Force two-norm initial, final = 55.3376 21.5684
  Force max component initial, final = 14.1904 8.012
  Final line search alpha, max atom move = 0.00471328 0.0377628
  Iterations, force evaluations = 42 228

MPI task timing breakdown:
Section |  min time  |  avg time  |  max time  |%varavg| %total
---------------------------------------------------------------
Pair    | 1.5302     | 1.5622     | 1.6251     |   2.3 | 79.25
Neigh   | 0          | 0          | 0          |   0.0 |  0.00
Comm    | 0.010445   | 0.073288   | 0.10536    |  10.7 |  3.72
Output  | 0.00016747 | 0.00019834 | 0.00028388 |   0.0 |  0.01
Modify  | 0.33226    | 0.33231    | 0.33237    |   0.0 | 16.86
Other   |            | 0.003142   |            |       |  0.16

Nlocal:    25.125 ave 29 max 22 min
Histogram: 1 0 3 0 0 3 0 0 0 1
Nghost:    963.75 ave 970 max 959 min
Histogram: 1 1 1 1 1 1 1 0 0 1
Neighs:    4308.5 ave 4851 max 3860 min
Histogram: 1 0 3 0 0 3 0 0 0 1

Total # of neighbors = 34468
Ave neighs/atom = 171.483
Neighbor list builds = 0
Dangerous builds = 0
WARNING: Using 'neigh_modify every 1 delay 0 check yes' setting during minimization (../min.cpp:190)
WARNING: Total cutoff < 2*bond cutoff. May need to use an increased neighbor list skin. (../pair_reaxc.cpp:413)
Setting up cg style minimization ...
  Unit style    : real
  Current step  : 119
WARNING: Energy due to 3 extra global DOFs will be included in minimizer energies
Per MPI rank memory allocation (min/avg/max) = 25.32 | 25.49 | 25.69 Mbytes
Step Temp E_pair E_mol TotEng Press Volume 
     119            0   -39038.654            0   -39038.654     17593.15    4183.3983 
     154            0   -39039.744            0   -39039.744   -449.47727    4188.7208 
Loop time of 0.504265 on 8 procs for 35 steps with 201 atoms

98.8% CPU use with 8 MPI tasks x no OpenMP threads

Minimization stats:
  Stopping criterion = energy tolerance
  Energy initial, next-to-last, final = 
        -39038.6544089     -39039.7434635     -39039.7438136
  Force two-norm initial, final = 1859.78 65.8448
  Force max component initial, final = 1094.32 37.4846
  Final line search alpha, max atom move = 2.27203e-06 8.51661e-05
  Iterations, force evaluations = 35 62

MPI task timing breakdown:
Section |  min time  |  avg time  |  max time  |%varavg| %total
---------------------------------------------------------------
Pair    | 0.42087    | 0.43051    | 0.44621    |   1.1 | 85.37
Neigh   | 0          | 0          | 0          |   0.0 |  0.00
Comm    | 0.003492   | 0.019168   | 0.028782   |   5.4 |  3.80
Output  | 0.00016318 | 0.00023246 | 0.00035117 |   0.0 |  0.05
Modify  | 0.052076   | 0.052109   | 0.052132   |   0.0 | 10.33
Other   |            | 0.002251   |            |       |  0.45

Nlocal:    25.125 ave 29 max 22 min
Histogram: 1 0 3 0 0 3 0 0 0 1
Nghost:    963.75 ave 970 max 959 min
Histogram: 1 1 1 1 1 1 1 0 0 1
Neighs:    4308 ave 4849 max 3860 min
Histogram: 1 0 3 0 0 3 0 0 0 1

Total # of neighbors = 34464
Ave neighs/atom = 171.463
Neighbor list builds = 0
Dangerous builds = 0
WARNING: Using 'neigh_modify every 1 delay 0 check yes' setting during minimization (../min.cpp:190)
WARNING: Total cutoff < 2*bond cutoff. May need to use an increased neighbor list skin. (../pair_reaxc.cpp:413)
Setting up cg style minimization ...
  Unit style    : real
  Current step  : 154
Per MPI rank memory allocation (min/avg/max) = 25.32 | 25.49 | 25.69 Mbytes
Step Temp E_pair E_mol TotEng Press 
     154            0   -39039.744            0   -39039.744   -449.47727 
     193            0    -39040.33            0    -39040.33    12200.928 
Loop time of 2.04994 on 8 procs for 39 steps with 201 atoms

99.3% CPU use with 8 MPI tasks x no OpenMP threads

Minimization stats:
  Stopping criterion = energy tolerance
  Energy initial, next-to-last, final = 
        -39039.7438136     -39040.3296253     -39040.3296254
  Force two-norm initial, final = 42.3934 30.1589
  Force max component initial, final = 7.8439 13.3718
  Final line search alpha, max atom move = 0.00255016 0.0341001
  Iterations, force evaluations = 39 238

MPI task timing breakdown:
Section |  min time  |  avg time  |  max time  |%varavg| %total
---------------------------------------------------------------
Pair    | 1.5949     | 1.6325     | 1.6908     |   2.2 | 79.63
Neigh   | 0          | 0          | 0          |   0.0 |  0.00
Comm    | 0.010619   | 0.068933   | 0.10651    |  10.7 |  3.36
Output  | 0.00015645 | 0.00018699 | 0.00027476 |   0.0 |  0.01
Modify  | 0.34504    | 0.34514    | 0.34524    |   0.0 | 16.84
Other   |            | 0.003221   |            |       |  0.16

Nlocal:    25.125 ave 29 max 22 min
Histogram: 1 0 3 0 0 3 0 0 0 1
Nghost:    963.75 ave 970 max 959 min
Histogram: 1 1 1 1 1 1 1 0 0 1
Neighs:    4304.75 ave 4843 max 3859 min
Histogram: 1 0 3 0 0 3 0 0 0 1

Total # of neighbors = 34438
Ave neighs/atom = 171.333
Neighbor list builds = 0
Dangerous builds = 0
WARNING: Using 'neigh_modify every 1 delay 0 check yes' setting during minimization (../min.cpp:190)
WARNING: Total cutoff < 2*bond cutoff. May need to use an increased neighbor list skin. (../pair_reaxc.cpp:413)
Setting up cg style minimization ...
  Unit style    : real
  Current step  : 193
WARNING: Energy due to 3 extra global DOFs will be included in minimizer energies
Per MPI rank memory allocation (min/avg/max) = 25.32 | 25.49 | 25.69 Mbytes
Step Temp E_pair E_mol TotEng Press Volume 
     193            0    -39040.33            0    -39040.33    12200.928    4188.7208 
     210            0   -39040.635            0   -39040.635     474.5567    4190.8498 
Loop time of 0.254237 on 8 procs for 17 steps with 201 atoms

99.2% CPU use with 8 MPI tasks x no OpenMP threads

Minimization stats:
  Stopping criterion = energy tolerance
  Energy initial, next-to-last, final = 
        -39040.3296254      -39040.634782     -39040.6351122
  Force two-norm initial, final = 1291.99 66.4909
  Force max component initial, final = 776.929 39.2425
  Final line search alpha, max atom move = 2.7684e-06 0.000108639
  Iterations, force evaluations = 17 31

MPI task timing breakdown:
Section |  min time  |  avg time  |  max time  |%varavg| %total
---------------------------------------------------------------
Pair    | 0.21309    | 0.21833    | 0.22554    |   0.8 | 85.88
Neigh   | 0          | 0          | 0          |   0.0 |  0.00
Comm    | 0.0013566  | 0.0085549  | 0.013805   |   4.1 |  3.36
Output  | 4.0515e-05 | 4.8509e-05 | 7.1694e-05 |   0.0 |  0.02
Modify  | 0.026208   | 0.026217   | 0.026233   |   0.0 | 10.31
Other   |            | 0.001085   |            |       |  0.43

Nlocal:    25.125 ave 29 max 22 min
Histogram: 1 0 3 0 0 3 0 0 0 1
Nghost:    964.875 ave 970 max 959 min
Histogram: 1 0 0 1 1 2 1 1 0 1
Neighs:    4306.5 ave 4844 max 3860 min
Histogram: 1 0 3 0 0 3 0 0 0 1

Total # of neighbors = 34452
Ave neighs/atom = 171.403
Neighbor list builds = 0
Dangerous builds = 0
WARNING: Using 'neigh_modify every 1 delay 0 check yes' setting during minimization (../min.cpp:190)
WARNING: Total cutoff < 2*bond cutoff. May need to use an increased neighbor list skin. (../pair_reaxc.cpp:413)
Setting up cg style minimization ...
  Unit style    : real
  Current step  : 210
Per MPI rank memory allocation (min/avg/max) = 25.32 | 25.49 | 25.69 Mbytes
Step Temp E_pair E_mol TotEng Press 
     210            0   -39040.635            0   -39040.635     474.5567 
     222            0   -39040.794            0   -39040.794    14374.269 
Loop time of 0.829857 on 8 procs for 12 steps with 201 atoms

99.0% CPU use with 8 MPI tasks x no OpenMP threads

Minimization stats:
  Stopping criterion = energy tolerance
  Energy initial, next-to-last, final = 
        -39040.6351122     -39040.7941326     -39040.7943835
  Force two-norm initial, final = 40.5626 5.28401
  Force max component initial, final = 9.21506 1.49427
  Final line search alpha, max atom move = 0.000410601 0.000613548
  Iterations, force evaluations = 12 96

MPI task timing breakdown:
Section |  min time  |  avg time  |  max time  |%varavg| %total
---------------------------------------------------------------
Pair    | 0.64928    | 0.66223    | 0.68917    |   1.6 | 79.80
Neigh   | 0          | 0          | 0          |   0.0 |  0.00
Comm    | 0.0044094  | 0.031313   | 0.044288   |   7.4 |  3.77
Output  | 4.0065e-05 | 4.764e-05  | 6.8919e-05 |   0.0 |  0.01
Modify  | 0.13489    | 0.13492    | 0.13494    |   0.0 | 16.26
Other   |            | 0.001348   |            |       |  0.16

Nlocal:    25.125 ave 29 max 22 min
Histogram: 1 0 3 0 0 3 0 0 0 1
Nghost:    963.75 ave 970 max 957 min
Histogram: 1 0 0 1 2 2 0 1 0 1
Neighs:    4305 ave 4843 max 3857 min
Histogram: 1 0 3 0 0 3 0 0 0 1

Total # of neighbors = 34440
Ave neighs/atom = 171.343
Neighbor list builds = 0
Dangerous builds = 0
WARNING: Total cutoff < 2*bond cutoff. May need to use an increased neighbor list skin. (../pair_reaxc.cpp:413)
Setting up Verlet run ...
  Unit style    : real
  Current step  : 0
  Time step     : 0.25
Per MPI rank memory allocation (min/avg/max) = 24.19 | 24.37 | 24.57 Mbytes
Step Temp TotEng KinEng PotEng Press 
       0          300   -38861.946     178.8486   -39040.794    16325.085 
     200    207.70324   -38803.697    123.82478   -38927.522    -10585.57 
     400    245.67274   -38710.232    146.46075   -38856.692    -38107.65 
     600    342.57512    -38638.92    204.23027   -38843.151    854.15678 
     800    314.33929   -38663.542    187.39714    -38850.94    32582.111 
    1000    250.79566   -38695.649    149.51485   -38845.164    11093.996 
    1200     301.6841   -38658.158     179.8526   -38838.011     6258.743 
    1400    316.25672   -38655.767    188.54024   -38844.307    2270.4839 
    1600     306.5922     -38683.1    182.77862   -38865.878    666.12042 
    1800    307.65238   -38667.715    183.41066   -38851.126    24893.439 
    2000    311.80421    -38652.67    185.88582   -38838.556   -10386.758 
    2200    330.25701   -38666.344    196.88669   -38863.231    37788.476 
    2400     266.0315    -38678.62    158.59787   -38837.218   -25277.008 
    2600    278.39643   -38674.394    165.96938   -38840.364     16934.29 
    2800    323.98107   -38651.126    193.14521   -38844.272   -21719.623 
    3000    274.90045   -38686.014     163.8852   -38849.899   -17357.015 
    3200    295.95669   -38674.924    176.43813   -38851.362    18369.221 
    3400      327.766   -38649.705    195.40164   -38845.106    -228.4636 
    3600    302.88601   -38676.603    180.56913   -38857.172    -1212.787 
    3800    310.90784   -38668.716    185.35144   -38854.068    3563.9179 
    4000    310.98915    -38646.72    185.39992    -38832.12    26461.734 
    4200    302.12588   -38670.869    180.11597   -38850.985    -39206.65 
    4400    308.26295     -38671.9    183.77466   -38855.675   -36287.318 
    4600    343.65116   -38623.808    204.87177    -38828.68    142.88782 
    4800    305.49946   -38656.115    182.12717   -38838.243   -11537.608 
    5000     293.0785   -38673.842    174.72227   -38848.564    32748.556 
    5200    308.51137   -38656.178    183.92276     -38840.1   -26732.516 
    5400    326.28756   -38653.249    194.52025    -38847.77   -18898.271 
    5600      314.841   -38676.163    187.69624   -38863.859    50579.304 
    5800    298.02438   -38656.045    177.67082   -38833.716    30869.466 
    6000    329.63381   -38627.307    196.51516   -38823.822    6983.9935 
    6200    312.15542   -38668.766     186.0952   -38854.861    5352.9763 
    6400    290.60824   -38675.593    173.24959   -38848.842    134.26582 
    6600    295.80821   -38648.273    176.34961   -38824.623   -17524.159 
    6800    285.41776   -38677.657    170.15522   -38847.812   -8067.6461 
    7000    290.69363   -38678.208     173.3005   -38851.509   -139.10335 
    7200    300.81905   -38656.984    179.33689   -38836.321   -4442.8413 
    7400    307.08452   -38671.774    183.07212   -38854.846   -14665.874 
    7600    292.90015   -38670.877    174.61594   -38845.493   -12157.876 
    7800    302.81503   -38662.742    180.52682   -38843.269   -40050.907 
    8000    307.17114   -38652.198    183.12376   -38835.322   -6875.0961 
    8200    274.33635   -38688.512    163.54891   -38852.061    13173.111 
    8400     306.3413    -38662.91    182.62904   -38845.539    12339.503 
    8600    301.59602   -38667.466    179.80009   -38847.266    12223.045 
    8800    285.08223   -38684.792    169.95519   -38854.747   -14031.358 
    9000    285.44973   -38691.352    170.17428   -38861.526   -12891.056 
    9200    292.18953   -38666.586     174.1923   -38840.778    3756.8889 
    9400    312.72938    -38665.97    186.43737   -38852.407   -18649.259 
    9600    304.62775   -38696.268    181.60749   -38877.876   -11391.148 
    9800    308.86814   -38658.245    184.13545    -38842.38   -8289.9521 
   10000    280.62783   -38672.116    167.29965   -38839.416    34222.611 
   10200    290.40029   -38675.336    173.12562   -38848.462   -39697.333 
   10400    325.10911   -38642.338     193.8177   -38836.156    42423.704 
   10600     303.7754   -38672.185    181.09936   -38853.284   -5496.2284 
   10800    304.47572   -38675.357    181.51685   -38856.874   -16086.095 
   11000    312.29896   -38640.055    186.18077   -38826.236   -57417.142 
   11200    313.59111   -38663.479    186.95111    -38850.43     9208.816 
   11400    314.98428   -38675.894    187.78166   -38863.676   -20398.128 
   11600    302.26638   -38651.853    180.19973   -38832.053    12932.637 
   11800    326.37493   -38635.657    194.57233    -38830.23   -4584.1998 
   12000    294.23664    -38671.49    175.41271   -38846.903    4649.9705 
   12200    310.53635   -38673.038    185.12997   -38858.168    16121.423 
   12400    326.61917   -38637.761    194.71794   -38832.479   -19684.817 
   12600    316.43753   -38671.368    188.64803   -38860.016   -1145.9413 
   12800    285.87693     -38670.9    170.42896   -38841.329   -38122.697 
   13000    315.44545   -38646.287    188.05659   -38834.344    4974.2823 
   13200    293.20553   -38666.048      174.798   -38840.846   -18655.417 
   13400     282.1836   -38681.688    168.22714   -38849.915   -4312.7784 
   13600    319.94156   -38646.696    190.73701   -38837.433    3637.5796 
   13800     304.4814   -38657.909    181.52024    -38839.43   -18474.529 
   14000    265.76177   -38677.541    158.43707   -38835.978   -21287.823 
   14200    303.51594    -38658.33    180.94467   -38839.275   -8543.6169 
   14400    297.27721   -38650.032    177.22538   -38827.258    4958.0947 
   14600    280.93897   -38678.122    167.48514   -38845.607   -9057.4222 
   14800     324.7588   -38662.003    193.60886   -38855.612   -17895.821 
   15000    344.24085   -38636.826    205.22332   -38842.049    17069.863 
   15200    297.97558   -38675.304    177.64172   -38852.946   -29582.681 
   15400    318.75041   -38668.967    190.02688   -38858.994    16741.586 
   15600    332.78337   -38640.825     198.3928   -38839.218    468.90129 
   15800    304.55905   -38672.319    181.56654   -38853.885     3918.064 
   16000    296.66721   -38671.882    176.86172   -38848.744    14214.542 
   16200    298.78505   -38648.086    178.12429   -38826.211   -10646.959 
   16400    275.26775   -38686.167    164.10417   -38850.271    17014.671 
   16600    267.13791   -38672.714    159.25748   -38831.971    -18440.23 
   16800    284.34932    -38658.82    169.51826   -38828.338    11054.763 
   17000    311.34324   -38670.305    185.61101   -38855.916    17213.695 
   17200      312.242   -38672.676    186.14682   -38858.823   -8124.2765 
   17400      315.166   -38670.669       187.89   -38858.559     -3164.85 
   17600    321.41632   -38638.834     191.6162   -38830.451   -1573.2688 
   17800    286.61824   -38681.425    170.87091   -38852.296   -8609.9608 
   18000    298.50564   -38666.763    177.95772   -38844.721    2675.4495 
   18200    287.65017   -38659.385     171.4861   -38830.871    19258.188 
   18400    260.54731   -38702.627    155.32841   -38857.955    21586.397 
   18600    302.82944   -38667.325    180.53541    -38847.86    41871.234 
   18800    306.66744   -38659.802    182.82348   -38842.625   -8343.6566 
   19000    263.50373   -38691.504    157.09091   -38848.595   -4582.1253 
   19200    314.77326   -38672.787    187.65586   -38860.443   -17084.981 
   19400    313.25649   -38664.303    186.75162   -38851.055   -5407.1337 
   19600    295.01488   -38673.123    175.87666       -38849   -3670.6308 
   19800     289.6196   -38683.037     172.6602   -38855.697     2321.124 
   20000    288.85744   -38664.748    172.20583   -38836.954   -13104.643 
   20200    300.97844   -38659.989    179.43191   -38839.421     13804.66 
   20400    279.29893   -38693.689    166.50741   -38860.197    2056.2956 
   20600    305.21942   -38663.409    181.96022    -38845.37    1656.7858 
   20800    305.29165   -38668.539    182.00328   -38850.542     -13393.7 
   21000    283.89415   -38695.532    169.24691   -38864.779   -3801.1365 
   21200    302.54657   -38689.854    180.36677    -38870.22   -17936.408 
   21400      315.628   -38665.128    188.16542   -38853.293    9361.1858 
   21600    281.66412   -38673.569    167.91745   -38841.486    13765.311 
   21800    277.50779   -38692.542     165.4396   -38857.982    -22453.44 
   22000    313.58103   -38657.911    186.94509   -38844.856    48002.765 
   22200    333.76571   -38660.544    198.97844   -38859.522   -1497.2293 
   22400    278.93574   -38689.368    166.29089   -38855.659    1509.9425 
   22600    317.48717   -38669.385    189.27379   -38858.659   -1938.8174 
   22800    300.20609   -38671.382    178.97147   -38850.353    25114.094 
   23000    312.52537   -38656.674    186.31575    -38842.99    792.42397 
   23200    310.90539    -38660.98    185.34998    -38846.33   -5048.9135 
   23400    288.08022   -38682.409    171.74248   -38854.151    13267.031 
   23600    300.68174   -38649.075    179.25503    -38828.33   -30984.407 
   23800    320.18215   -38648.525    190.88043   -38839.406   -1174.4288 
   24000    291.98282   -38675.865    174.06907   -38849.934    16545.731 
   24200    309.56992   -38664.541    184.55383   -38849.094    35145.061 
   24400    325.37512   -38643.923    193.97629   -38837.899    4771.1842 
   24600    291.52088   -38673.235    173.79367   -38847.028   -22601.297 
   24800     321.1655   -38667.531    191.46667   -38858.997   -7599.3182 
   25000    312.36961   -38636.791    186.22289   -38823.013   -1084.1818 
   25200     290.5819   -38671.087    173.23389   -38844.321    17379.187 
   25400    306.32584   -38674.088    182.61983   -38856.707   -12757.755 
   25600    316.31666   -38659.489    188.57598   -38848.065    3235.3021 
   25800    295.08288   -38660.615     175.9172   -38836.532   -21138.907 
   26000    284.61467    -38680.98    169.67645   -38850.656   -2659.4404 
   26200    299.57184   -38669.383    178.59335   -38847.976   -3450.3464 
   26400    267.75707   -38674.153    159.62659    -38833.78   -24246.006 
   26600    273.04601   -38678.967    162.77966   -38841.746    17459.059 
   26800    313.75508   -38651.401    187.04886    -38838.45   -14143.391 
   27000    276.60699   -38689.318    164.90258   -38854.221    4094.8856 
   27200    300.67152   -38676.498    179.24894   -38855.746   -17150.457 
   27400    297.52294   -38661.738    177.37187    -38839.11   -23591.738 
   27600    307.94067   -38678.727    183.58253   -38862.309   -7021.8711 
   27800    294.15907   -38690.885    175.36646   -38866.251    4526.5504 
   28000    297.04704   -38661.676    177.08816   -38838.764   -8058.4651 
   28200    293.41915   -38670.356    174.92535   -38845.281   -14177.917 
   28400    287.98437   -38700.878    171.68534   -38872.563   -34329.393 
   28600    280.91172   -38694.107     167.4689   -38861.576   -11137.152 
   28800    312.10714   -38664.108    186.06642   -38850.174    13648.889 
   29000    318.62072   -38668.475    189.94957   -38858.425   -656.44498 
   29200    266.53945   -38694.669    158.90069   -38853.569    13261.772 
   29400    292.96502   -38653.134    174.65461   -38827.789   -32191.144 
   29600    321.90911   -38669.681    191.90998   -38861.591   -8595.1923 
   29800     289.3795   -38681.906    172.51707   -38854.423    -9205.137 
   30000    308.85286   -38668.559    184.12634   -38852.686   -3099.0113 
   30200    300.06733   -38666.415    178.88875   -38845.304    15117.842 
   30400    303.01213   -38661.961    180.64432   -38842.606    -18444.24 
   30600    287.18438   -38678.921    171.20841    -38850.13    3813.5902 
   30800    289.87567   -38676.381    172.81286   -38849.194   -8709.5729 
   31000    310.16808   -38650.887    184.91043   -38835.798    3423.6521 
   31200    280.11957   -38676.958    166.99665   -38843.955    12932.979 
   31400    303.31517   -38677.043    180.82498   -38857.868    17294.863 
   31600     336.1822   -38644.876    200.41906   -38845.295    9380.6697 
   31800     285.9076   -38677.547    170.44725   -38847.994   -5824.7423 
   32000    289.35508   -38675.585    172.50251   -38848.088    20558.811 
   32200    313.84027   -38651.106    187.09964   -38838.206   -16258.958 
   32400    271.63506    -38674.66     161.9385   -38836.598   -3649.2371 
   32600    300.14434   -38682.684    178.93466   -38861.618     33428.61 
   32800    323.29455   -38650.025    192.73593   -38842.761    13114.482 
   33000    299.62152   -38669.171    178.62297   -38847.794   -4090.0272 
   33200    288.58903   -38674.654    172.04581     -38846.7    15943.417 
   33400    324.69483   -38666.508    193.57072   -38860.078   -26450.996 
   33600     299.5251   -38669.645    178.56548    -38848.21    18950.073 
   33800    302.06042    -38671.61    180.07695   -38851.687    -7750.686 
   34000    296.52152   -38665.407    176.77486   -38842.181    17917.661 
   34200    296.03317    -38656.45    176.48373   -38832.934   -16315.779 
   34400    270.81373   -38692.024    161.44886   -38853.472   -22337.008 
   34600    300.51492   -38676.901    179.15558   -38856.057   -2086.5593 
   34800    294.60036   -38668.789    175.62954   -38844.419   -9935.2833 
   35000    288.21222   -38666.549    171.82118    -38838.37   -4352.7485 
   35200    302.84027   -38649.018    180.54187   -38829.559    36714.364 
   35400    279.84384   -38683.602    166.83227   -38850.434   -5259.1192 
   35600    283.23917   -38677.004    168.85643   -38845.861    993.45587 
   35800    312.33083   -38664.577    186.19978   -38850.776    12421.586 
   36000    268.70614   -38671.741    160.19239   -38831.934     64034.08 
   36200    288.92485   -38678.815    172.24602   -38851.061   -9449.7619 
   36400    285.52487   -38677.459    170.21908   -38847.678   -1480.2332 
   36600    292.62386   -38657.348    174.45123   -38831.799   -17334.258 
   36800    294.74952   -38689.165    175.71847   -38864.884     -25460.9 
   37000    284.86483   -38686.626    169.82559   -38856.452   -31345.146 
   37200    300.46356    -38664.29    179.12496   -38843.415   -674.35814 
   37400    285.93242   -38679.871    170.46205   -38850.333   -18162.532 
   37600     297.8515   -38693.353    177.56775   -38870.921    6150.8736 
   37800    300.59019   -38658.287    179.20045   -38837.487    10371.477 
   38000    301.96056   -38676.081    180.01741   -38856.098   -17068.101 
   38200    279.84888   -38681.862    166.83527   -38848.697   -20673.129 
   38400    319.18182   -38660.641    190.28407   -38850.925     6610.135 
   38600    287.07497   -38680.545    171.14319   -38851.688   -20528.871 
   38800     299.9915   -38656.881    178.84353   -38835.725    24116.643 
   39000    317.31931   -38650.675    189.17372   -38839.849   -10756.965 
   39200    303.02777   -38670.186    180.65365    -38850.84   -25488.757 
   39400    304.66509   -38671.788    181.62975   -38853.418   -16112.141 
   39600    344.51076   -38667.624    205.38423   -38873.008   -17666.587 
   39800    321.15205   -38661.648    191.45865   -38853.106    1739.3925 
   40000    272.83544   -38668.082    162.65412   -38830.736     15048.47 
   40200     301.4648    -38684.55    179.72186   -38864.272    10021.755 
   40400    306.42972   -38648.508    182.68176    -38831.19    2016.3574 
   40600    287.86598   -38675.248    171.61476   -38846.863    -24601.29 
   40800    287.52748   -38682.094    171.41296   -38853.507   -20518.872 
   41000    292.74361   -38658.955    174.52262   -38833.477    21480.669 
   41200    299.28962   -38670.978     178.4251   -38849.403    4509.4753 
   41400    304.97474   -38684.096    181.81435    -38865.91    -15920.18 
   41600    294.62192   -38669.222     175.6424   -38844.864    28054.456 
   41800    313.88195   -38662.821    187.12449   -38849.945    -14012.76 
   42000    280.11741   -38699.566    166.99536   -38866.562    14360.859 
   42200    280.87992   -38669.307    167.44994   -38836.757    61762.247 
   42400    297.36896   -38661.596    177.28008   -38838.876    28513.919 
   42600    280.21581   -38700.408    167.05402   -38867.462    -876.8805 
   42800    289.04658   -38685.482    172.31859     -38857.8   -3688.0881 
   43000    328.34679   -38658.628    195.74788   -38854.376    28277.847 
   43200    288.68167   -38674.535    172.10104   -38846.636   -20268.432 
   43400    300.14679    -38690.83    178.93611   -38869.766    22970.082 
   43600    313.36883   -38664.873    186.81859   -38851.692   -11309.365 
   43800    309.96101   -38666.554    184.78698   -38851.341   -12760.006 
   44000    279.41073   -38697.387    166.57406   -38863.961   -31728.753 
   44200    305.47078   -38666.834    182.11008   -38848.944   -10758.466 
   44400    280.73118   -38667.067    167.36126   -38834.428    18810.575 
   44600     277.8962   -38693.488    165.67116   -38859.159    929.37165 
   44800    266.95761   -38692.578    159.14998   -38851.728    4283.9279 
   45000    282.49415   -38673.341    168.41228   -38841.753   -16354.364 
   45200    319.11231   -38652.141    190.24263   -38842.384    1698.6641 
   45400    284.79333   -38689.233    169.78296   -38859.016   -10402.716 
   45600    311.49259   -38666.517    185.70005   -38852.217   -16214.231 
   45800     307.8059   -38660.373    183.50218   -38843.875   -18898.959 
   46000    296.60378   -38670.035     176.8239   -38846.859    -18488.77 
   46200    279.47549   -38675.327    166.61267    -38841.94    257.69574 
   46400    341.66753   -38652.926     203.6892   -38856.615   -194.30156 
   46600    281.16688   -38676.248    167.62101   -38843.869      1862.97 
   46800    294.09259   -38688.293    175.32683   -38863.619    -10936.21 
   47000    314.63999   -38672.992    187.57641   -38860.568   -13104.595 
   47200    304.19012   -38661.583    181.34659    -38842.93   -2828.6432 
   47400    307.33257   -38649.756       183.22   -38832.976    10489.109 
   47600    328.62084   -38684.334    195.91126   -38880.245    689.15017 
   47800    299.75266   -38679.816    178.70115   -38858.517    56005.944 
   48000    309.68273   -38663.126    184.62108   -38847.747    1690.1363 
   48200    294.93235   -38672.834    175.82746   -38848.661    4077.8192 
   48400    303.46458   -38652.718    180.91406   -38833.633    34584.444 
   48600    278.08593   -38673.111    165.78427   -38838.895   -41944.837 
   48800      282.616   -38686.176    168.48492   -38854.661   -4477.0639 
   49000    327.88184   -38650.217     195.4707   -38845.688    22589.861 
   49200    312.39553   -38682.268    186.23835   -38868.507    21346.706 
   49400    283.54773   -38673.809    169.04038   -38842.849    25697.489 
   49600    290.20738   -38663.317    173.01062   -38836.328    21144.364 
   49800    343.04803   -38672.887    204.51221   -38877.399    3348.2493 
   50000    301.94391   -38679.686    180.00749   -38859.693   -41510.007 
   50200    291.56326   -38652.347    173.81894   -38826.166     9045.216 
   50400    300.43184   -38670.612    179.10605   -38849.718    15571.763 
   50600    285.51014    -38682.93     170.2103    -38853.14    9520.3638 
   50800    320.86644   -38652.079    191.28838   -38843.367   -25771.091 
   51000    281.02333   -38686.437    167.53543   -38853.973   -137.10043 
   51200    313.01761   -38683.359    186.60921   -38869.968    20809.056 
   51400    305.38511   -38652.994      182.059   -38835.053    2823.1849 
   51600    276.93248   -38672.431    165.09662   -38837.527    11060.119 
   51800    292.71325   -38675.354    174.50452   -38849.859   -8489.2805 
   52000    329.57398   -38656.667    196.47949   -38853.147    11064.318 
   52200    321.54905   -38640.305    191.69533       -38832   -12601.745 
   52400    273.07859   -38680.836    162.79908   -38843.635   -1333.7537 
   52600    306.65331   -38667.345    182.81506    -38850.16   -22785.494 
   52800    341.93645    -38627.89    203.84952    -38831.74   -11150.604 
   53000    281.90237   -38668.551    168.05948   -38836.611    18863.133 
   53200    292.74969   -38670.462    174.52624   -38844.988   -26614.626 
   53400    285.89374   -38672.109    170.43899   -38842.548   -640.24031 
   53600    316.13189   -38656.758    188.46583   -38845.223   -36769.469 
   53800     305.8716   -38665.207    182.34903   -38847.556    35332.339 
   54000     279.3449   -38691.308    166.53482   -38857.843   -27087.431 
   54200    296.78432   -38652.292    176.93154   -38829.223   -25728.096 
   54400    313.71387   -38669.981    187.02429   -38857.005    -25755.92 
   54600    292.11685   -38677.238    174.14897   -38851.387    21195.116 
   54800    333.10523   -38641.183    198.58468   -38839.767    7188.8235 
   55000    296.91591   -38672.222    177.00998   -38849.232   -10426.825 
   55200    301.81213   -38670.259    179.92892   -38850.188    24997.252 
   55400    335.28278   -38632.766    199.88286   -38832.649    17739.466 
   55600    285.40977   -38663.404    170.15046   -38833.554   -24057.992 
   55800    304.29706   -38674.345    181.41035   -38855.756   -8173.2105 
   56000    314.35821   -38679.436    187.40842   -38866.844    12946.179 
   56200    314.92538   -38646.728    187.74655   -38834.475    30957.748 
   56400    296.95129   -38678.687    177.03108   -38855.718    6816.2609 
   56600    307.38577   -38664.119    183.25172    -38847.37   -27464.495 
   56800    285.71004   -38669.169    170.32947   -38839.498   -11790.819 
   57000    264.89005   -38697.892    157.91738   -38855.809   -12922.402 
   57200    299.28638   -38669.631    178.42317   -38848.054   -148.08481 
   57400    305.95781   -38658.542    182.40042   -38840.942   -10347.408 
   57600    282.52085   -38693.974     168.4282   -38862.403   -13115.234 
   57800    293.85057   -38674.249    175.18255   -38849.432    32554.519 
   58000    301.90041    -38658.11    179.98156   -38838.092   -1225.8685 
   58200    315.60011    -38665.31     188.1488   -38853.459   -28086.465 
   58400    281.25291    -38682.55     167.6723   -38850.222    11393.713 
   58600     285.7488    -38678.72    170.35258   -38849.073   -31225.695 
   58800    326.90181   -38650.376    194.88644   -38845.262    3035.0375 
   59000    285.17585   -38684.139    170.01101    -38854.15    25624.074 
   59200    302.41151   -38676.938    180.28625   -38857.225   -12768.373 
   59400    342.02039   -38645.003    203.89957   -38848.902   -21710.621 
   59600    281.42505   -38681.407    167.77492   -38849.182    25675.799 
   59800    283.35407   -38678.907    168.92493   -38847.832     42211.91 
   60000    308.48973   -38653.121    183.90986   -38837.031   -31165.959 
   60200    306.26253   -38683.092    182.58209   -38865.674   -10247.078 
   60400    270.05877    -38685.12    160.99878   -38846.119    6408.3964 
   60600    313.22871    -38665.31    186.73506   -38852.045    36616.661 
   60800    287.96252    -38663.19    171.67231   -38834.862    21688.773 
   61000    327.72624   -38634.982    195.37793    -38830.36    16082.906 
   61200    277.90671    -38672.07    165.67742   -38837.748     10322.95 
   61400    297.31156   -38680.115    177.24586   -38857.361     14989.27 
   61600    313.69571   -38642.465    187.01346   -38829.478   -33630.059 
   61800    310.31715   -38666.408     184.9993   -38851.407    25546.499 
   62000    321.62774   -38669.152    191.74224   -38860.895    26286.032 
   62200    299.47687   -38651.375    178.53673   -38829.911   -12839.324 
   62400    302.19372   -38660.897    180.15642   -38841.054     -32406.4 
   62600    309.33677   -38675.849    184.41483   -38860.264   -16676.005 
   62800    300.57425   -38653.291    179.19095   -38832.482    -9993.775 
   63000    287.36811   -38648.897    171.31795   -38820.215   -7289.1105 
   63200    299.87261   -38673.124    178.77266   -38851.897    24701.965 
   63400    294.90657   -38659.306     175.8121   -38835.118   -5197.2114 
   63600    314.43842   -38639.546    187.45624   -38827.002    2285.0307 
   63800    286.90531   -38679.655    171.04205   -38850.697   -36652.987 
   64000    317.62451   -38663.312    189.35567   -38852.668    32766.869 
   64200    322.78805   -38627.834    192.43397   -38820.268    6495.1352 
   64400    298.26099   -38667.265    177.81187   -38845.077   -18783.146 
   64600    327.37333   -38661.759    195.16754   -38856.926   -97.702102 
   64800    291.22354   -38677.314    173.61641    -38850.93    1820.1799 
   65000      298.927   -38682.241    178.20892    -38860.45   -2097.8865 
   65200    285.89097   -38661.954    170.43733   -38832.391    14697.165 
   65400    322.98002   -38663.878    192.54842   -38856.427    11294.652 
   65600    283.60882   -38696.507     169.0768   -38865.584   -1607.5297 
   65800    310.76455   -38666.425    185.26602   -38851.691   -17499.824 
   66000    296.91306   -38662.148    177.00829   -38839.156   -15983.208 
   66200    299.56136   -38682.034     178.5871   -38860.621    51094.763 
   66400    295.25559   -38681.882    176.02016   -38857.902    -15863.09 
   66600    315.76411   -38652.299    188.24657   -38840.546    2612.8445 
   66800    274.52648   -38682.637    163.66226   -38846.299    31126.863 
   67000    295.57804   -38681.994     176.2124   -38858.207   -558.65898 
   67200    319.04224   -38648.585    190.20086   -38838.786   -16409.209 
   67400    293.65385   -38678.121    175.06527   -38853.187     22018.64 
   67600     285.6331   -38680.246     170.2836   -38850.529    -3743.241 
   67800    307.32498   -38652.558    183.21548   -38835.773    5488.2602 
   68000      291.778   -38671.776    173.94696   -38845.723    30510.943 
   68200    277.52136   -38681.235    165.44769   -38846.683    2481.5195 
   68400    305.53693   -38677.144    182.14951   -38859.293    8865.7756 
   68600    327.11152    -38652.89    195.01146   -38847.902   -17973.587 
   68800    279.53547   -38690.171    166.64843   -38856.819    36111.569 
   69000     301.5671   -38685.835    179.78285   -38865.618   -10128.464 
   69200    304.31729   -38663.295    181.42241   -38844.717    11411.249 
   69400    294.00545   -38657.457    175.27488   -38832.731    31111.484 
   69600    293.39567   -38672.827    174.91135   -38847.739   -32586.441 
   69800     296.5595   -38665.126    176.79751   -38841.923   -11873.165 
   70000     276.4595   -38682.255    164.81465    -38847.07    43692.445 
   70200    294.09468   -38677.736    175.32808   -38853.064    5330.3761 
   70400    308.16041   -38653.117    183.71353    -38836.83    15281.824 
   70600    299.72079   -38679.788    178.68215    -38858.47    32114.498 
   70800    259.73768   -38712.708    154.84574   -38867.554    3725.4523 
   71000    300.38583   -38681.515    179.07862   -38860.593   -1374.9918 
   71200     292.0954   -38660.394    174.13618    -38834.53   -1219.0815 
   71400    311.18068   -38652.128     185.5141   -38837.642   -36161.279 
   71600    279.05652   -38684.845     166.3629   -38851.208    -2877.217 
   71800    297.07506   -38653.592    177.10486   -38830.697    730.01127 
   72000    305.73778   -38650.624    182.26925   -38832.893   -17981.168 
   72200    297.53556   -38670.585     177.3794   -38847.965     15357.82 
   72400    312.02067   -38666.249    186.01487   -38852.264   -16734.801 
   72600    317.27595   -38652.117    189.14787   -38841.265    2593.1184 
   72800    279.32493   -38681.692    166.52291   -38848.215   -40909.144 
   73000    307.23015   -38668.288    183.15895   -38851.447    -14926.41 
   73200    301.16437   -38658.693    179.54276   -38838.235   -14066.133 
   73400    284.29057   -38670.944    169.48324   -38840.427   -17174.573 
   73600    285.13407   -38682.758     169.9861   -38852.744    571.02366 
   73800    331.15716   -38651.388    197.42332   -38848.811   -30511.221 
   74000    304.84609   -38669.737    181.73766   -38851.475   -20291.634 
   74200    306.64114   -38672.849     182.8078   -38855.657    4592.5428 
   74400    314.41261   -38652.366    187.44086   -38839.807    22355.767 
   74600    300.91753   -38655.404     179.3956     -38834.8   -4905.9762 
   74800    302.38828   -38669.384     180.2724   -38849.657   -11045.479 
   75000    325.25105    -38667.89    193.90232   -38861.792   -16910.038 
   75200    286.15881   -38653.368    170.59701   -38823.965    8579.7346 
   75400    288.59535   -38687.319    172.04958   -38859.369    14758.501 
   75600    301.48157    -38672.89    179.73186   -38852.622    -5701.449 
   75800    313.29994   -38659.029    186.77752   -38845.807    10664.082 
   76000    300.31509   -38677.266    179.03645   -38856.303    12356.472 
   76200    305.55378   -38656.865    182.15956   -38839.024    3424.7885 
   76400    314.98269   -38641.935    187.78071   -38829.716   -30182.382 
   76600    299.78031   -38670.001    178.71763   -38848.719    4636.9012 
   76800    294.72373   -38687.312    175.70309   -38863.015    23597.839 
   77000    309.24893   -38670.012    184.36246   -38854.374   -15271.006 
   77200    311.04388   -38646.883    185.43254   -38832.315    26834.735 
   77400    299.08507   -38686.402    178.30316   -38864.705    -33613.97 
   77600     295.0777   -38672.022    175.91411   -38847.936    30331.769 
   77800    308.97859   -38657.444     184.2013   -38841.645    11821.657 
   78000    305.30978   -38668.697    182.01409   -38850.711    1377.3523 
   78200     301.7039   -38673.958     179.8644   -38853.822   -39418.327 
   78400    311.34946   -38655.098    185.61472   -38840.713   -3281.8026 
   78600    302.12305   -38663.707    180.11428   -38843.821   -18925.414 
   78800    300.84786   -38686.235    179.35406   -38865.589    4690.1583 
   79000    347.01703   -38655.276    206.87837   -38862.154   -24320.366 
   79200    297.80994   -38655.091    177.54297   -38832.634   -12862.046 
   79400      285.798   -38681.503    170.38191   -38851.885    10509.838 
   79600    313.85512   -38670.408     187.1085   -38857.516    3381.5427 
   79800    334.13011   -38647.859    199.19568   -38847.055    11862.167 
   80000    318.02796   -38667.212    189.59619   -38856.808    12339.156 
   80200    266.50602   -38701.345    158.88076   -38860.225   -14752.315 
   80400    289.36372   -38684.564    172.50766   -38857.072    9085.7919 
   80600     297.5366   -38665.629    177.38002   -38843.009    12816.634 
   80800    316.58645   -38660.574    188.73681   -38849.311   -7300.4275 
   81000    291.50894   -38675.543    173.78655    -38849.33    27601.747 
   81200    289.94437   -38687.057    172.85382   -38859.911   -19978.422 
   81400    300.32936   -38648.449    179.04496   -38827.494    8050.3567 
   81600    282.26913   -38673.352    168.27813    -38841.63    11304.108 
   81800    319.45796   -38674.109     190.4487   -38864.557   -40929.525 
   82000    290.27224   -38665.798    173.04928   -38838.847   -11963.567 
   82200    294.13163    -38690.72    175.35011    -38866.07    11942.407 
   82400    320.29894   -38683.099    190.95006   -38874.049    14888.031 
   82600    307.19082   -38660.752     183.1355   -38843.887   -22936.953 
   82800    305.48721    -38668.78    182.11987     -38850.9   -6126.0197 
   83000    267.17229   -38704.213    159.27797   -38863.491    3119.9939 
   83200    287.77593   -38675.852    171.56108   -38847.413   -13415.201 
   83400    297.35145   -38656.901    177.26964    -38834.17   -4754.2183 
   83600    299.01409   -38677.277    178.26084   -38855.537    2585.8929 
   83800    290.45362   -38677.883    173.15741   -38851.041   -8.2139422 
   84000    317.27931    -38657.77    189.14987    -38846.92    10517.395 
   84200     267.9396   -38689.431    159.73541   -38849.167   -28135.916 
   84400    299.82023   -38666.222    178.74143   -38844.963    18705.333 
   84600     330.6494   -38663.388    197.12061   -38860.508    18585.299 
   84800    299.56965   -38676.253    178.59204   -38854.845   -5478.3865 
   85000    345.43438   -38645.175    205.93485    -38851.11    23424.744 
   85200    322.46421   -38654.573    192.24091   -38846.814   -889.26696 
   85400    296.00459   -38671.943    176.46669    -38848.41   -49029.772 
   85600    276.36256   -38675.783    164.75686    -38840.54   -5692.9837 
   85800    333.44697   -38647.404    198.78841   -38846.192   -6654.8745 
   86000    295.81874   -38676.096    176.35589   -38852.452   -15032.852 
   86200    291.44932     -38672.5    173.75101   -38846.251   -3057.9143 
   86400    334.70183   -38644.708    199.53652   -38844.244    10189.791 
   86600    321.83241   -38652.611    191.86425   -38844.475   -21888.837 
   86800    308.40736   -38673.591    183.86075   -38857.451    4165.9762 
   87000    289.63879   -38673.093    172.67164   -38845.765     15504.57 
   87200    301.47259    -38647.38     179.7265   -38827.106    21876.917 
   87400    302.01453   -38676.069    180.04959   -38856.119    7791.3539 
   87600    288.50929   -38678.749    171.99828   -38850.748    27588.235 
   87800    306.50278   -38656.271    182.72531   -38838.997    26812.798 
   88000    283.14365   -38682.109    168.79949   -38850.908    46279.093 
   88200    264.90693    -38687.86    157.92745   -38845.788    -1237.795 
   88400    330.62143   -38656.817    197.10394   -38853.921    3815.5819 
   88600    285.90735   -38678.846     170.4471   -38849.293   -5526.7273 
   88800    293.89301   -38685.882    175.20785    -38861.09    10903.108 
   89000    311.25843    -38669.21    185.56045    -38854.77    13565.982 
   89200    281.81174   -38660.883    168.00545   -38828.888   -12290.501 
   89400    307.91805   -38680.293    183.56904   -38863.862   -15580.829 
   89600    298.71704   -38670.323    178.08375   -38848.407    8662.5656 
   89800    295.85126   -38648.497    176.37528   -38824.872    6796.3459 
   90000    302.52264   -38680.332    180.35251   -38860.685    -23654.94 
   90200    304.20778   -38674.324    181.35712   -38855.681   -8659.6451 
   90400    319.62661   -38655.508    190.54924   -38846.058    3678.8947 
   90600    299.33231    -38669.22    178.45055    -38847.67   -20953.524 
   90800    279.29465   -38670.116    166.50486    -38836.62     8418.726 
   91000    300.21303   -38683.328     178.9756   -38862.303    73308.296 
   91200    286.15557   -38670.102    170.59508   -38840.697   -11342.368 
   91400    318.01674   -38650.405     189.5895   -38839.995   -4598.5982 
   91600    313.37872   -38687.358    186.82449   -38874.183    11106.576 
   91800    294.34452   -38669.727    175.47702   -38845.204   -3642.6634 
   92000    297.41652   -38655.169    177.30843   -38832.478    31438.671 
   92200    282.11607   -38688.308    168.18689   -38856.495   -14795.483 
   92400    279.40721    -38671.12    166.57197   -38837.692   -20459.343 
   92600    336.89608   -38659.352    200.84464   -38860.197   -9686.0601 
   92800    284.54187   -38671.628    169.63305   -38841.261   -14057.351 
   93000    320.18184   -38668.903    190.88025   -38859.784    15250.886 
   93200    296.50007   -38681.547    176.76208   -38858.309     17303.89 
   93400    300.10021   -38670.456    178.90834   -38849.364    14075.871 
   93600    320.83418   -38649.187    191.26915   -38840.456    5931.2743 
   93800    298.80174   -38685.648    178.13425   -38863.782    4999.8414 
   94000    286.05508   -38674.862    170.53517   -38845.397   -12128.112 
   94200    323.26362   -38658.064    192.71749   -38850.781    16165.956 
   94400    290.71161   -38681.254    173.31122   -38854.565    28163.409 
   94600     281.8899   -38685.075    168.05205   -38853.127    17682.285 
   94800    304.46537   -38655.045    181.51069   -38836.555   -7599.6943 
   95000    286.40829   -38674.865    170.74574   -38845.611   -49645.343 
   95200    288.64159   -38686.136    172.07715   -38858.213   -33732.943 
   95400     296.5324   -38661.388    176.78135    -38838.17   -4042.0181 
   95600     294.7565   -38667.456    175.72263   -38843.179   -26643.453 
   95800    272.33061   -38700.393    162.35316   -38862.746    25707.026 
   96000    292.00488   -38666.701    174.08222   -38840.783    -3361.806 
   96200    282.16399   -38676.886    168.21545   -38845.101    15028.292 
   96400    288.34892   -38692.363    171.90267   -38864.266   -9147.7052 
   96600    283.60504    -38658.89    169.07455   -38827.965   -15488.526 
   96800    280.12757   -38676.987    167.00141   -38843.989    35039.141 
   97000    277.81508   -38698.766    165.62279   -38864.388   -7986.8757 
   97200    298.09344   -38668.003    177.71198   -38845.715   -4282.3287 
   97400    324.21537   -38666.597    193.28489   -38859.882   -3392.9902 
   97600    278.27332   -38700.514    165.89598    -38866.41   -16963.584 
   97800    313.00463   -38668.112    186.60147   -38854.714   -2368.1242 
   98000    302.65683   -38662.892    180.43251   -38843.325    11126.498 
   98200    285.80665   -38690.547    170.38707   -38860.934   -15366.069 
   98400    316.91474   -38656.926    188.93253   -38845.859   -4167.7544 
   98600    294.35711   -38665.908    175.48453   -38841.392   -14001.169 
   98800    309.15417   -38688.842    184.30597   -38873.148   -28619.835 
   99000     279.7922   -38648.063    166.80148   -38814.864   -12749.956 
   99200    292.83608   -38665.514    174.57774   -38840.092    16581.241 
   99400    307.72398   -38677.417    183.45335   -38860.871     17316.72 
   99600    288.86035   -38672.251    172.20757   -38844.458    8434.0083 
   99800    331.65989   -38627.575    197.72303   -38825.298    15680.481 
  100000    331.94701   -38652.667     197.8942   -38850.562   -7552.0235 
  100200    280.48665    -38673.31    167.21548   -38840.526   -10252.413 
  100400    284.09635    -38685.31    169.36745   -38854.677   -15094.082 
  100600    313.04362   -38665.472    186.62471   -38852.097   -12021.258 
  100800    291.63112   -38656.021     173.8594    -38829.88   -5973.2386 
  101000    282.14201   -38692.349    168.20235   -38860.551   -2879.2644 
  101200    316.83201   -38649.995    188.88321   -38838.878   -48335.128 
  101400    321.69567   -38656.488    191.78274    -38848.27    27424.751 
  101600    301.75769   -38685.122    179.89647   -38865.018    44.103682 
  101800    309.40242    -38657.27    184.45397   -38841.724   -20041.439 
  102000     320.6195   -38656.585    191.14116   -38847.726   -32889.907 
  102200    290.63571   -38680.079    173.26597   -38853.345     41527.03 
  102400    296.73632   -38674.918    176.90292   -38851.821   -2654.1749 
  102600    320.97766   -38659.133    191.35469   -38850.488    -4810.918 
  102800    334.62007   -38623.023    199.48777   -38822.511   -33171.547 
  103000     316.3506   -38662.147    188.59621   -38850.743   -28164.147 
  103200    296.45873   -38683.148    176.73743   -38859.885   -11866.031 
  103400    318.01584   -38664.576    189.58896   -38854.165    -11819.75 
  103600    339.97279   -38650.451    202.67886    -38853.13    5500.8339 
  103800    278.09073    -38684.22    165.78713   -38850.007   -13647.841 
  104000    300.62508   -38673.181    179.22125   -38852.402   -23588.034 
  104200    334.79967   -38653.705    199.59484     -38853.3    14579.131 
  104400    279.52674   -38682.861    166.64323   -38849.504   -8731.7465 
  104600    296.09676   -38671.119    176.52164   -38847.641   -6536.8761 
  104800    302.10705   -38648.356    180.10475   -38828.461    18083.084 
  105000    282.58403    -38688.54    168.46586   -38857.006   -31813.944 
  105200    312.01897   -38664.589    186.01386   -38850.603    -11845.63 
  105400    311.93111   -38656.796    185.96148   -38842.758    13789.068 
  105600    297.50825   -38667.978    177.36312   -38845.341   -34928.123 
  105800    325.56967   -38660.803    194.09227   -38854.895    27842.345 
  106000    293.77845   -38649.257    175.13955   -38824.397   -21159.383 
  106200    297.73696   -38682.797    177.49947   -38860.297   -26075.813 
  106400    305.87242    -38671.79    182.34952    -38854.14   -16975.989 
  106600    294.61094   -38662.869    175.63585   -38838.504   -19652.343 
  106800    307.36956   -38684.947    183.24205   -38868.189   -9024.9666 
  107000    289.47594   -38668.885    172.57456    -38841.46    22369.744 
  107200    290.83416   -38659.671    173.38428   -38833.055    8791.3258 
  107400    275.90106     -38683.8    164.48173   -38848.281    11546.465 
  107600    295.71442   -38647.063     176.2937   -38823.356   -4323.4863 
  107800    286.21742   -38663.159    170.63195   -38833.791   -4350.6173 
  108000    306.33226    -38678.68    182.62366   -38861.304   -4315.5321 
  108200    302.36841   -38668.641    180.26056   -38848.901   -11051.673 
  108400    320.16606   -38641.977    190.87084   -38832.848   -10333.474 
  108600    296.42337   -38646.283    176.71635   -38822.999   -18578.212 
  108800    290.97448   -38675.199    173.46793   -38848.667   -33028.529 
  109000    271.54145   -38672.031     161.8827   -38833.914    4946.0541 
  109200    316.55496   -38646.548    188.71804   -38835.266   -14951.141 
  109400    295.57065   -38678.948    176.20799   -38855.156   -16665.802 
  109600    288.63094   -38673.142     172.0708   -38845.213   -26140.764 
  109800    321.71785   -38649.967    191.79596   -38841.763   -1290.9778 
  110000    312.97101   -38646.368    186.58143   -38832.949    1354.2231 
  110200    302.02139   -38676.697    180.05368   -38856.751   -15569.142 
  110400    297.14499   -38664.239    177.14656   -38841.386   -24614.966 
  110600     326.7624   -38638.869    194.80333   -38833.673    993.05431 
  110800    250.97072   -38681.688    149.61921   -38831.308   -4204.2447 
  111000    304.36825   -38662.294    181.45279   -38843.747    25985.792 
  111200    302.96702   -38648.531    180.61743   -38829.148   -12707.739 
  111400     275.9644   -38681.781    164.51949     -38846.3    3113.3167 
  111600    299.04405   -38671.752     178.2787   -38850.031   -16161.262 
  111800    313.59196   -38653.852    186.95162   -38840.804    7938.7297 
  112000    316.44115   -38676.906    188.65019   -38865.556    2903.9396 
  112200    305.73202   -38668.726    182.26582   -38850.992   -6749.7549 
  112400    292.52181   -38674.573    174.39039   -38848.963    19897.578 
  112600    306.26626   -38636.894    182.58431   -38819.479   -11786.017 
  112800    306.90501   -38658.992    182.96511   -38841.957    -20827.38 
  113000     302.5663   -38670.157    180.37853   -38850.535    21493.551 
  113200    305.83239   -38702.096    182.32565   -38884.422   -6440.5417 
  113400    283.69219   -38672.692     169.1265   -38841.819    12524.645 
  113600    294.09372   -38667.219    175.32751   -38842.547    9632.1649 
  113800    331.38318   -38676.415    197.55806   -38873.973   -13240.215 
  114000    273.42781   -38694.342    163.00727    -38857.35    7800.3195 
  114200     306.6866   -38658.573     182.8349   -38841.408   -15581.982 
  114400    287.33686   -38671.949    171.29932   -38843.248   -9038.5626 
  114600    260.68574   -38706.327    155.41093   -38861.738   -5495.5754 
  114800    284.66112   -38666.489    169.70415   -38836.193    8035.0871 
  115000    307.80982   -38665.264    183.50452   -38848.769   -6803.7259 
  115200    293.53908   -38685.198    174.99685   -38860.194    37289.064 
  115400    315.18164   -38679.013    187.89932   -38866.913    7739.4398 
  115600    306.34875   -38651.873    182.63349   -38834.507    4668.6341 
  115800    280.73277   -38683.456    167.36221   -38850.818   -4871.8361 
  116000    315.71389   -38674.778    188.21662   -38862.995   -5074.8495 
  116200    302.47425   -38661.951    180.32366   -38842.275   -14667.113 
  116400    328.34139   -38629.203    195.74466   -38824.948    35401.271 
  116600    298.25875   -38669.838    177.81053   -38847.648    26472.352 
  116800    290.84793   -38672.185    173.39249   -38845.578    10522.892 
  117000    310.34316   -38638.929     185.0148   -38823.943    21460.272 
  117200    314.64984   -38676.999    187.58228   -38864.582   -18798.428 
  117400    294.53105   -38672.329    175.58822   -38847.917    20055.829 
  117600    313.59062   -38640.013    186.95081   -38826.964    11060.676 
  117800     294.7937   -38681.328     175.7448   -38857.073   -2533.1292 
  118000    304.21446   -38666.285     181.3611   -38847.646   -2707.0749 
  118200     300.6286   -38659.353    179.22335   -38838.577    12428.835 
  118400    289.05675   -38691.548    172.32465   -38863.873    27175.768 
  118600    294.40112   -38673.681    175.51077   -38849.192    48539.194 
  118800    323.72263   -38653.638    192.99113   -38846.629    30480.175 
  119000    277.74221   -38682.016    165.57936   -38847.595   -7874.5312 
  119200    281.93778    -38678.63    168.08059   -38846.711   -8177.1948 
  119400    331.26534    -38653.97    197.48781   -38851.458   -19345.895 
  119600    298.10621   -38674.024     177.7196   -38851.744    3078.0553 
  119800    305.92647   -38682.763    182.38174   -38865.145   -27637.828 
  120000    304.39324   -38654.522    181.46769    -38835.99   -9653.0427 
  120200    311.43894    -38667.25    185.66806   -38852.918    30980.777 
  120400    309.87321   -38685.111    184.73464   -38869.846    6708.2994 
  120600    288.86278   -38664.134    172.20902   -38836.343    24635.495 
  120800    312.98531   -38663.714    186.58995   -38850.304   -4914.8868 
  121000    303.94359   -38668.612    181.19962   -38849.811   -28431.023 
  121200    279.81949   -38697.315    166.81775   -38864.132   -2814.1711 
  121400    282.49816   -38673.221    168.41467   -38841.636    32221.088 
  121600    310.55105   -38660.232    185.13874   -38845.371   -7880.0526 
  121800    290.45831   -38691.033    173.16021   -38864.194    14942.736 
  122000    295.91658   -38675.192    176.41423   -38851.607   -26589.842 
  122200    301.11982    -38665.87     179.5162   -38845.386    9174.3113 
  122400    308.51285   -38672.733    183.92364   -38856.657   -38059.695 
  122600     305.8197   -38671.845    182.31809   -38854.163   -17063.876 
  122800    315.19002   -38645.824    187.90432   -38833.728   -10353.215 
  123000    318.91345   -38677.693    190.12408   -38867.817    28251.484 
  123200    291.52652   -38675.345    173.79704   -38849.142    14913.913 
  123400    311.64882   -38652.642    185.79318   -38838.435    14528.238 
  123600    313.93563   -38661.385     187.1565   -38848.542    -13046.05 
  123800    276.85789   -38683.137    165.05216   -38848.189   -19243.248 
  124000    302.63266   -38683.818    180.41809   -38864.236   -28590.995 
  124200    316.70092   -38653.299    188.80506   -38842.104   -24480.445 
  124400    263.11746   -38679.531    156.86063   -38836.392   -5959.4526 
  124600    285.69389   -38692.204    170.31985   -38862.524   -19570.926 
  124800    300.61327   -38654.543    179.21421   -38833.757    10770.322 
  125000    281.75884    -38678.66    167.97392   -38846.634    -1194.431 
  125200    319.78482   -38671.913    190.64356   -38862.556   -16436.718 
  125400    310.17116   -38649.127    184.91226   -38834.039   -4153.7971 
  125600    295.54063    -38675.17     176.1901    -38851.36   -6436.3781 
  125800    286.35833   -38675.162    170.71596   -38845.878    15262.267 
  126000    310.96897   -38661.428    185.38789   -38846.816    8159.4922 
  126200    288.72871   -38683.178    172.12909   -38855.307    23951.525 
  126400    269.94365    -38686.37    160.93015     -38847.3   -20542.265 
  126600    288.03742   -38667.245    171.71696   -38838.962      22159.1 
  126800    290.93019   -38668.867    173.44152   -38842.309    24030.151 
  127000    254.89982   -38697.174    151.96159   -38849.135    31855.981 
  127200    312.51727   -38664.142    186.31092   -38850.453   -2677.1368 
  127400    297.16829   -38665.959    177.16044   -38843.119   -7393.9947 
  127600    310.68901   -38675.882    185.22098   -38861.103   -27529.775 
  127800    287.73401    -38681.55    171.53609   -38853.086   -7065.1225 
  128000    311.00619   -38652.224    185.41008   -38837.634    5280.9443 
  128200    291.29871   -38671.386    173.66122   -38845.047   -5211.1237 
  128400    300.55572    -38671.22     179.1799     -38850.4     8937.618 
  128600    281.07992   -38662.928    167.56917   -38830.497   -7308.0859 
  128800    297.99223   -38646.831    177.65165   -38824.482        41107 
  129000    289.71912   -38676.228    172.71954   -38848.947   -13672.661 
  129200    292.99005   -38669.743    174.66954   -38844.413    11083.563 
  129400    305.92106   -38640.818    182.37851   -38823.197   -73.024023 
  129600    296.75035   -38664.233    176.91128   -38841.144    1298.7825 
  129800    306.83349   -38673.263    182.92247   -38856.185    -15256.79 
  130000    327.01327   -38645.611    194.95289   -38840.564    7657.1576 
  130200    298.52923   -38666.507    177.97179   -38844.479    27935.739 
  130400     272.8732   -38676.335    162.67664   -38839.011    16000.273 
  130600    310.85528   -38657.775    185.32011   -38843.095    45498.196 
  130800    279.05634   -38696.042    166.36279   -38862.404   -4602.7728 
  131000    305.76846   -38674.168    182.28754   -38856.456    1617.9371 
  131200    280.62011   -38655.453    167.29505   -38822.748   -14822.384 
  131400    293.81795   -38690.744     175.1631   -38865.907    3701.3241 
  131600    303.04848    -38681.11    180.66599   -38861.776    25418.472 
  131800    312.85158    -38664.42    186.51022    -38850.93   -14269.635 
  132000    308.81007   -38668.579    184.10083    -38852.68    12376.127 
  132200    259.55685   -38693.805    154.73793   -38848.543     13923.38 
  132400    287.48186   -38660.207    171.38576   -38831.593   -16336.591 
  132600    333.10201   -38659.502    198.58276   -38858.085   -8602.2759 
  132800    269.50859   -38699.585    160.67078   -38860.255   -7841.4439 
  133000    288.02005   -38679.796    171.70661   -38851.503   -4972.0336 
  133200    286.06126   -38661.837    170.53886   -38832.376    6592.0117 
  133400    278.65818   -38661.854    166.12542   -38827.979   -21659.115 
  133600    268.86352   -38681.814    160.28621     -38842.1   -9205.2906 
  133800    294.78786   -38665.858    175.74132     -38841.6    26195.847 
  134000    311.42427    -38652.65    185.65932   -38838.309   -5446.7292 
  134200    312.18853   -38667.594    186.11494   -38853.709   -2239.2227 
  134400    303.41953   -38667.248    180.88719   -38848.135    -9818.915 
  134600    285.70458   -38674.755    170.32621   -38845.081      -3103.7 
  134800    283.57776   -38672.061    169.05828   -38841.119   -2588.2495 
  135000    331.04979   -38642.125    197.35931   -38839.484   -15105.279 
  135200    311.67355   -38667.503    185.80793   -38853.311   -3657.9003 
  135400    285.90934   -38673.072    170.44829    -38843.52    9229.3566 
  135600    333.44689   -38636.494    198.78837   -38835.283    15427.242 
  135800    297.77343   -38667.354    177.52121   -38844.875     7801.651 
  136000    273.57875   -38674.984    163.09726   -38838.082   -21267.448 
  136200    307.85103   -38653.273    183.52909   -38836.802   -1690.2283 
  136400    297.98906   -38677.283    177.64976   -38854.932   -14409.501 
  136600    290.93028   -38683.458    173.44158     -38856.9    25532.218 
  136800    309.48379   -38663.429    184.50248   -38847.932   -11664.585 
  137000    293.85302   -38660.162      175.184   -38835.346   -37515.281 
  137200    287.18376   -38689.626    171.20805   -38860.834   -26474.524 
  137400    316.69304   -38648.105    188.80036   -38836.905    -15248.34 
  137600    309.13156   -38663.888    184.29249   -38848.181    11751.295 
  137800    295.40989   -38678.359    176.11215   -38854.471    15532.984 
  138000    275.84824   -38653.734    164.45024   -38818.184    7155.9845 
  138200    310.40946   -38642.504    185.05432   -38827.558    23203.698 
  138400    275.17775   -38674.076    164.05052   -38838.126   -8299.8294 
  138600    295.45107   -38674.497     176.1367   -38850.634    1372.9265 
  138800    317.70513   -38646.718    189.40373   -38836.122   -9715.2082 
  139000    276.40437   -38683.611    164.78178   -38848.393    5101.9806 
  139200    312.85934   -38669.378    186.51485   -38855.892     11756.08 
  139400    316.41862   -38662.218    188.63676   -38850.854    10419.367 
  139600    265.24279   -38701.512    158.12767   -38859.639   -15537.244 
  139800    304.02832   -38668.208    181.25013   -38849.458     3965.885 
  140000    300.57487   -38662.064    179.19132   -38841.255    27342.429 
  140200    266.43573   -38696.329    158.83886   -38855.168    16537.789 
  140400    310.79584   -38670.376    185.28467   -38855.661   -59126.428 
  140600    306.65015   -38661.364    182.81317   -38844.178    1988.5835 
  140800    308.83918   -38666.656    184.11819   -38850.774   -6979.9708 
  141000    277.86094   -38688.196    165.65014   -38853.846   -32110.702 
  141200    297.24921   -38663.691    177.20868     -38840.9   -51763.535 
  141400    282.34886   -38664.189    168.32566   -38832.515    39721.257 
  141600    273.67718   -38696.791    163.15594   -38859.947   -34320.048 
  141800    279.99898   -38664.621    166.92476   -38831.545   -22192.595 
  142000    283.22198   -38665.349    168.84619   -38834.195    2058.8467 
  142200    292.48207   -38687.456     174.3667   -38861.823   -8232.8895 
  142400    293.59682   -38688.284    175.03127   -38863.315    15918.237 
  142600    333.32455   -38659.541    198.71544   -38858.256    687.40934 
  142800    317.88983   -38671.163    189.51384   -38860.677    6211.9553 
  143000    285.62518   -38690.752    170.27888   -38861.031   -32328.016 
  143200    282.45456   -38664.539    168.38868   -38832.927   -32258.671 
  143400    317.85236   -38666.257     189.4915   -38855.748   -12709.169 
  143600    261.33004   -38693.074    155.79504   -38848.869    26875.286 
  143800     287.3754   -38672.886    171.32229   -38844.209   -26281.324 
  144000    310.45127   -38658.524    185.07925   -38843.603   -16467.182 
  144200    277.12938   -38682.378    165.21401   -38847.592    28147.132 
  144400    273.62803   -38686.244    163.12663   -38849.371   -10411.996 
  144600    309.21842   -38656.592    184.34427   -38840.936    37991.142 
  144800    284.03208   -38679.061    169.32913    -38848.39   -28298.915 
  145000    303.28782   -38681.317    180.80868   -38862.126     12617.32 
  145200    327.87806   -38650.148    195.46844   -38845.616    19998.823 
  145400    279.28075   -38685.037    166.49658   -38851.534   -10131.751 
  145600    306.97557   -38680.119    183.00717   -38863.126   -5325.2232 
  145800    304.81746   -38663.601    181.72059   -38845.321   -36316.443 
  146000    327.44342   -38632.941    195.20933   -38828.151    46924.849 
  146200    314.19487   -38663.296    187.31104   -38850.607     1811.629 
  146400    297.50701    -38677.25    177.36238   -38854.612   -22553.594 
  146600    315.36858   -38658.742    188.01077   -38846.753    -12189.58 
  146800    301.70282   -38642.093    179.86376   -38821.957   -5481.7655 
  147000    289.73967   -38675.128    172.73178   -38847.859   -30218.839 
  147200    311.61248   -38665.326    185.77153   -38851.097    3918.7033 
  147400    316.14863   -38648.167     188.4758   -38836.643   -19797.677 
  147600    300.79369   -38678.543    179.32177   -38857.864    31768.695 
  147800    286.98885   -38680.841    171.09185   -38851.933   -17717.342 
  148000    306.66854   -38647.131    182.82413   -38829.955    6164.8479 
  148200    303.87563   -38677.133    181.15911   -38858.293    7149.6946 
  148400    292.22033   -38658.092    174.21066   -38832.302   -5453.9747 
  148600    336.46367   -38648.361    200.58686   -38848.947   -3570.8274 
  148800    295.32839   -38669.273    176.06357   -38845.337   -10158.404 
  149000    275.16605   -38685.137    164.04354    -38849.18   -28236.732 
  149200    305.09179   -38651.726    181.88413   -38833.611   -8404.3033 
  149400    308.48063   -38668.718    183.90443   -38852.623    12317.518 
  149600     281.3861   -38680.759    167.75171   -38848.511    22387.374 
  149800    299.38806   -38653.978    178.48379   -38832.462    15961.913 
  150000    314.21512   -38666.077    187.32312     -38853.4    20778.595 
  150200    302.57772   -38665.031    180.38534   -38845.416   -9250.2901 
  150400    306.22147   -38648.116    182.55761   -38830.674    9911.4247 
  150600    305.33321   -38666.782    182.02806    -38848.81    16073.914 
  150800     284.1413   -38682.834    169.39425   -38852.228    9855.7555 
  151000    313.19537   -38642.197    186.71518   -38828.912   -20651.534 
  151200    284.12208   -38663.059    169.38279   -38832.442    2374.5541 
  151400    293.78447   -38677.442    175.14314   -38852.586    29100.427 
  151600    325.89945   -38652.435    194.28887   -38846.724   -10336.801 
  151800    315.36695   -38648.895     188.0098   -38836.904   -38849.539 
  152000    267.41324   -38678.531    159.42161   -38837.952   -25784.938 
  152200     305.7791   -38659.577    182.29388   -38841.871    13296.823 
  152400    345.73931   -38634.532    206.11664   -38840.649    -31849.73 
  152600     291.9585   -38663.345    174.05457     -38837.4   -34232.764 
  152800    280.01618   -38674.321    166.93501   -38841.256      24014.2 
  153000    327.57691   -38645.585    195.28891   -38840.874     12852.24 
  153200     286.2498   -38663.754    170.65125   -38834.405    10292.792 
  153400     289.0115   -38677.191    172.29768   -38849.489   -19743.774 
  153600    286.95685   -38648.691    171.07277   -38819.764    8134.6612 
  153800    310.07636   -38651.319    184.85575   -38836.175     25920.61 
  154000    291.01682   -38666.541    173.49318   -38840.034    7726.1346 
  154200    311.10965   -38678.702    185.47175   -38864.173   -27893.525 
  154400    290.05377   -38688.268    172.91904   -38861.187    5122.4021 
  154600     325.6674   -38653.335    194.15053   -38847.485    20132.077 
  154800    310.53845   -38663.998    185.13123   -38849.129   -24601.937 
  155000    267.11121   -38701.249    159.24156    -38860.49    19990.385 
  155200    302.54528   -38678.205    180.36601   -38858.571   -15569.565 
  155400    296.37517   -38654.025    176.68762   -38830.713   -20795.659 
  155600    303.87002   -38670.821    181.15576   -38851.977    17949.178 
  155800    281.41075    -38682.26     167.7664   -38850.027    3346.2427 
  156000    325.23635   -38655.417    193.89355    -38849.31   -31513.912 
  156200     297.9467   -38664.439     177.6245   -38842.064   -11395.921 
  156400    244.13026   -38669.771    145.54118   -38815.312    8019.2442 
  156600    318.38365   -38669.203    189.80824   -38859.011   -404.11064 
  156800    318.86089   -38642.398    190.09275   -38832.491   -13503.536 
  157000    320.13872   -38645.103    190.85454   -38835.957   -21325.071 
  157200    296.78804   -38671.094    176.93375   -38848.027   -33863.258 
  157400    282.75417   -38669.325     168.5673   -38837.892    -38922.15 
  157600    314.97396   -38644.274    187.77551   -38832.049    30979.713 
  157800    291.42729   -38674.964    173.73788   -38848.701    1617.1391 
  158000    264.26635   -38672.072    157.54556   -38829.617    -24220.97 
  158200    310.04006   -38649.311     184.8341   -38834.145    -15170.42 
  158400    333.01696   -38648.852    198.53206   -38847.384   -19749.345 
  158600    281.88105   -38675.182    168.04677   -38843.229   -27374.794 
  158800     308.3181   -38656.566    183.80754   -38840.373    -1728.827 
  159000     323.2266   -38649.313    192.69542   -38842.009   -538.80931 
  159200    310.10041   -38684.184    184.87008   -38869.054   -9960.7293 
  159400    318.78293    -38654.94    190.04627   -38844.987    28697.717 
  159600    307.76621   -38663.449    183.47852   -38846.927    19603.075 
  159800    259.54278   -38711.665    154.72955   -38866.395    16947.348 
  160000    290.95161   -38683.186     173.4543    -38856.64   -31022.389 
  160200    340.26395   -38656.049    202.85244   -38858.901   -10752.116 
  160400    276.72762   -38683.631    164.97449   -38848.606   -4917.5869 
  160600    270.98494   -38688.262    161.55093   -38849.813    7879.1758 
  160800    289.89248   -38670.707    172.82288   -38843.529    20883.777 
  161000    334.57137   -38659.911    199.45874    -38859.37   -10982.268 
  161200    282.60996   -38678.569    168.48132    -38847.05    11424.473 
  161400    299.41264   -38688.477    178.49844   -38866.976   -16762.025 
  161600    274.28442   -38653.893    163.51795   -38817.411    10981.738 
  161800    285.88228   -38666.192    170.43215   -38836.624   -40175.215 
  162000    295.52909   -38686.377    176.18322    -38862.56    3688.3889 
  162200    290.82469    -38658.78    173.37863   -38832.158    27551.636 
  162400    345.84768   -38662.479    206.18125    -38868.66    10818.783 
  162600    306.70907   -38666.758    182.84829   -38849.607    15165.299 
  162800    286.71483   -38674.147    170.92849   -38845.076   -35289.891 
  163000    301.45719   -38674.249    179.71732   -38853.967    16986.013 
  163200     321.9722   -38654.022     191.9476    -38845.97     25616.31 
  163400    316.69431   -38647.239    188.80112    -38836.04   -40090.993 
  163600    267.07542   -38685.268    159.22022   -38844.488    40796.384 
  163800    309.76509   -38657.999    184.67018   -38842.669   -21016.538 
  164000     331.9879   -38653.841    197.91857   -38851.759   -38336.546 
  164200    292.20184     -38671.1    174.19964   -38845.299      21535.5 
  164400    318.40149   -38668.255    189.81887   -38858.074    -327.5945 
  164600    314.07019   -38641.312    187.23672   -38828.549   -1759.5466 
  164800     297.2013   -38675.085    177.18012   -38852.265   -3791.0926 
  165000    292.56308   -38674.358      174.415   -38848.773    1603.6732 
  165200    306.58003    -38642.13    182.77136   -38824.901   -8223.3186 
  165400    338.83727   -38633.387    202.00191   -38835.389   -29169.995 
  165600    293.27451   -38668.229    174.83912   -38843.068    9563.2271 
  165800    290.59891   -38677.811    173.24403   -38851.055   -25911.159 
  166000    314.49496   -38645.369    187.48994   -38832.859    3934.6947 
  166200    303.15775    -38665.83    180.73113   -38846.561   -692.18193 
  166400    272.27092   -38682.784    162.31758   -38845.101   -4296.9093 
  166600    292.25622   -38660.689    174.23206   -38834.921    23412.871 
  166800    297.21396    -38659.16    177.18767   -38836.348    -19565.91 
  167000    314.54153   -38661.338    187.51771   -38848.856   -7295.4165 
  167200    289.38185   -38684.907    172.51846   -38857.425    16579.595 
  167400    295.42797   -38648.149    176.12293   -38824.272   -28894.578 
  167600    298.28564   -38663.544    177.82657    -38841.37    11082.086 
  167800    301.51739   -38679.326    179.75321   -38859.079   -8080.5962 
  168000    304.07563   -38661.482    181.27834    -38842.76    33043.263 
  168200    296.65332   -38647.491    176.85344   -38824.344   -8649.8511 
  168400    273.82068   -38681.272    163.24149   -38844.514   -16700.752 
  168600    319.24278   -38674.291    190.32042   -38864.611   -27246.487 
  168800    280.83095   -38666.711    167.42074   -38834.132   -4235.9029 
  169000    338.15489   -38626.174     201.5951   -38827.769    34332.834 
  169200    288.66941   -38666.931    172.09373   -38839.024    35565.535 
  169400    291.27253    -38681.76    173.64562   -38855.405   -26242.742 
  169600    285.00228   -38685.543    169.90753   -38855.451   -3844.0818 
  169800    307.42133   -38654.104    183.27292   -38837.377    12279.377 
  170000    272.18603   -38681.715    162.26697   -38843.982    5179.2639 
  170200    284.62738   -38683.711    169.68403   -38853.395   -12310.918 
  170400    309.15933   -38664.743    184.30905   -38849.052    5945.7198 
  170600    277.45233   -38672.408    165.40654   -38837.815   -28726.974 
  170800    275.84968   -38703.848     164.4511   -38868.299    13405.574 
  171000    278.41163    -38671.75    165.97844   -38837.728    4806.8071 
  171200    314.76019   -38661.028    187.64807   -38848.676    1087.7085 
  171400    302.18279   -38673.104     180.1499   -38853.254    44697.367 
  171600    292.54949   -38689.688    174.40689   -38864.095    4548.7898 
  171800    284.85946   -38654.481    169.82239   -38824.303   -26152.707 
  172000    303.03522   -38666.986    180.65809   -38847.644   -8390.1149 
  172200    274.24952   -38693.199    163.49714   -38856.696    7228.5604 
  172400    293.71246   -38672.179    175.10021   -38847.279   -14063.688 
  172600    311.18506   -38665.365    185.51671   -38850.882    49876.229 
  172800    315.14931   -38638.087    187.88005   -38825.967    3035.4519 
  173000    298.99239   -38667.024     178.2479   -38845.272    25312.978 
  173200    317.65003    -38672.14    189.37088   -38861.511    10114.051 
  173400    324.17297   -38640.653    193.25961   -38833.913    23477.761 
  173600    301.28552   -38663.581    179.61498   -38843.196   -1856.6873 
  173800    309.67697   -38671.758    184.61764   -38856.375    14650.662 
  174000    325.81725   -38648.724    194.23987   -38842.964     42177.85 
  174200    291.57983   -38687.552    173.82882   -38861.381    19556.963 
  174400    284.67425   -38671.759    169.71198   -38841.471   -32474.897 
  174600    345.36564   -38640.068    205.89388   -38845.962   -30789.819 
  174800    329.18548   -38634.211    196.24788   -38830.459   -27604.714 
  175000     296.2565   -38673.861    176.61687   -38850.478    32968.551 
  175200    283.70553    -38683.04    169.13446   -38852.174     13071.71 
  175400    287.31254   -38649.634    171.28482   -38820.919   -19454.462 
  175600    307.75036   -38674.208    183.46907   -38857.677      37664.3 
  175800    285.77807   -38680.628    170.37003   -38850.998   -8619.5115 
  176000    296.55824   -38662.848    176.79676   -38839.644   -10283.915 
  176200    329.82543   -38634.857    196.62939   -38831.487   -19946.156 
  176400    283.10959   -38673.152    168.77918   -38841.932   -5020.0296 
  176600    292.10501    -38682.17    174.14191   -38856.312   -9026.6497 
  176800    336.36634   -38643.166    200.52883   -38843.695   -24680.677 
  177000    287.36892   -38666.975    171.31844   -38838.293   -22157.533 
  177200    279.79267    -38678.66    166.80176   -38845.462   -12546.081 
  177400    298.11655   -38669.649    177.72576   -38847.374   -25833.986 
  177600    295.88343   -38670.676    176.39446   -38847.071   -20859.131 
  177800    281.27772   -38658.591    167.68709   -38826.278   -30063.642 
  178000     323.7998   -38650.164    193.03714   -38843.202   -25255.831 
  178200    293.11492   -38679.741    174.74398   -38854.485   -42326.003 
  178400    315.24544   -38655.465    187.93735   -38843.403    1409.4135 
  178600      335.296   -38656.405    199.89074   -38856.295    4339.8897 
  178800    292.44694   -38665.633    174.34576   -38839.979   -24263.644 
  179000    288.86106   -38682.129    172.20799   -38854.337    10411.628 
  179200    322.77145   -38666.383    192.42408   -38858.808    4991.5542 
  179400    301.79916   -38655.797     179.9212   -38835.718   -4191.4601 
[...]
  950000    272.21631   -38702.495    162.28502    -38864.78    24442.461 
  950200    308.28565   -38670.255    183.78819   -38854.044     6524.861 
  950400    330.39643   -38659.261     196.9698   -38856.231   -2809.1984 
  950600    300.07024   -38691.463    178.89048   -38870.353   -16054.114 
  950800    286.22773    -38669.91     170.6381   -38840.548   -7003.4045 
  951000    297.20273   -38662.147    177.18098   -38839.328    -21422.23 
  951200    298.56893   -38685.416    177.99546   -38863.411   -6176.8963 
  951400    300.51822   -38673.493    179.15755   -38852.651    1339.4509 
  951600    302.81853   -38655.645     180.5289   -38836.174    28575.059 
  951800    286.54834   -38689.716    170.82923   -38860.545   -6991.6936 
  952000    289.10085   -38682.829    172.35094    -38855.18   -14257.335 
  952200    297.61124   -38665.822    177.42451   -38843.246    5752.9902 
  952400    297.00073   -38660.452    177.06055   -38837.513   -19654.077 
  952600    325.39366   -38649.404    193.98734   -38843.391   -11101.607 
  952800    303.81251   -38681.239    181.12148    -38862.36   -12974.227 
  953000    286.94599    -38660.51     171.0663   -38831.576   -28145.474 
  953200    312.97013   -38647.069     186.5809    -38833.65    3676.3979 
  953400    279.22285   -38678.862    166.46206   -38845.324    21968.097 
  953600    305.49561   -38667.086    182.12488   -38849.211    12761.334 
  953800    358.39132   -38628.415    213.65929   -38842.075    79.319811 
  954000     306.6406   -38661.912    182.80748    -38844.72   -3476.4693 
  954200    275.18951   -38675.454    164.05753   -38839.512    -113.9061 
  954400     291.2583   -38684.161    173.63713   -38857.798    10268.594 
  954600    330.24574   -38649.328    196.87996   -38846.208   -4742.8907 
  954800    285.11801   -38669.579    169.97653   -38839.556   -320.65463 
  955000    277.31926   -38686.755    165.32721   -38852.082   -8412.8771 
  955200    327.28094   -38659.672    195.11246   -38854.785   -6283.3852 
  955400     293.4786    -38663.78    174.96079   -38838.741    14173.366 
  955600    268.86983   -38705.281    160.28998    -38865.57   -15237.073 
  955800    274.53236   -38676.541    163.66576   -38840.206   -8217.8572 
  956000    284.66375   -38662.289    169.70571   -38831.995   -8047.6254 
  956200    262.75661   -38679.042    156.64551   -38835.687    2859.4135 
  956400    296.63662   -38687.513    176.84348   -38864.356    32150.925 
  956600    310.55714   -38652.208    185.14237    -38837.35   -40590.953 
  956800    304.54907   -38672.061    181.56059   -38853.622    11062.355 
  957000    295.68808   -38693.922      176.278     -38870.2    619.38742 
  957200    289.95942     -38666.4    172.86279   -38839.263    2787.8247 
  957400    292.13507    -38661.41    174.15983    -38835.57    -12720.46 
  957600     284.0676   -38692.029    169.35031   -38861.379    31123.594 
  957800    319.37709   -38659.842    190.40049   -38850.242    -12132.26 
  958000    294.53193   -38669.049    175.58874   -38844.638    679.55267 
  958200    316.01768   -38667.583    188.39774   -38855.981   -15613.385 
  958400    328.03134   -38633.907    195.55982   -38829.467   -9569.7042 
  958600    279.45587    -38677.05    166.60098   -38843.651   -9631.7559 
  958800    292.60449   -38668.926    174.43968   -38843.366   -9698.9839 
  959000    309.82817   -38636.895    184.70779   -38821.603   -40879.605 
  959200    300.86643   -38666.482    179.36513   -38845.847     779.2972 
  959400    297.02672   -38682.555    177.07604   -38859.631    -393.2124 
  959600    292.48276   -38655.274    174.36711   -38829.641    8035.5491 
  959800    322.19607   -38656.501    192.08106   -38848.582    11204.404 
  960000    316.19388   -38675.143    188.50278   -38863.646    22929.768 
  960200    295.27015   -38667.032    176.02885   -38843.061    23360.918 
  960400    294.86902   -38664.239    175.78971   -38840.028    6094.0106 
  960600    289.14827   -38673.049    172.37922   -38845.429    318.62789 
  960800    283.39781   -38677.027    168.95101   -38845.978    17038.498 
  961000    299.28689   -38648.457    178.42348   -38826.881    26090.961 
  961200    302.18733   -38652.415     180.1526   -38832.567    18238.695 
  961400    303.25424   -38684.229    180.78866   -38865.018   -32854.407 
  961600    312.79005   -38659.378    186.47355   -38845.852    3645.0451 
  961800    323.16948   -38659.005    192.66137   -38851.666     2701.298 
  962000    251.27798   -38687.386    149.80238   -38837.189   -15103.104 
  962200    299.15273    -38682.56    178.34349   -38860.904    10814.081 
  962400    299.91291   -38662.665    178.79668   -38841.462    -26905.14 
  962600    283.11541   -38660.237    168.78265    -38829.02   -45390.775 
  962800    292.98802   -38693.146    174.66833   -38867.814   -6257.1073 
  963000    321.61012   -38658.553    191.73174   -38850.285    11731.389 
  963200    303.38574   -38664.384    180.86705   -38845.251   -10484.836 
  963400    261.75749   -38687.457    156.04987   -38843.507    4845.4052 
  963600    304.21644   -38678.817    181.36229    -38860.18   -4142.8706 
  963800    279.98125   -38662.104    166.91418   -38829.018   -33024.001 
  964000    300.64474   -38667.688    179.23297   -38846.921    27019.859 
  964200    270.98507   -38689.029      161.551    -38850.58   -14229.909 
  964400    302.28608   -38653.488    180.21148     -38833.7    18972.406 
  964600     294.5308   -38669.089    175.58808   -38844.677    37681.446 
  964800    342.78965   -38653.237    204.35817   -38857.595   -2244.9219 
  965000    287.30625   -38654.594    171.28107   -38825.875    1207.8406 
  965200    272.52549   -38681.967    162.46934   -38844.436   -24428.383 
  965400    319.63584   -38664.054    190.55475   -38854.609    11071.408 
  965600    320.91922   -38655.077    191.31985   -38846.397    43238.209 
  965800    291.45748   -38681.824    173.75588   -38855.579    16829.185 
  966000    309.00043   -38663.219    184.21432   -38847.434     39474.56 
  966200    317.46208   -38643.191    189.25883   -38832.449   -21786.712 
  966400    298.01782   -38686.247    177.66691   -38863.914   -12309.549 
  966600    276.33258    -38662.51    164.73898   -38827.249    18512.621 
  966800    329.24364   -38646.894    196.28255   -38843.177    3606.3014 
  967000    277.11144    -38678.16    165.20331   -38843.364    -11498.11 
  967200     274.9698   -38663.861    163.92655   -38827.788   -19349.703 
  967400    322.18578   -38644.351    192.07492   -38836.426    14131.271 
  967600    300.31857   -38681.579    179.03852   -38860.618   -18734.008 
  967800      312.759    -38658.33    186.45503   -38844.785   -52006.335 
  968000     283.7656   -38655.862    169.17027   -38825.032   -43364.654 
  968200     291.6353   -38685.196    173.86189   -38859.058    8452.5463 
  968400    319.33913   -38654.796    190.37786   -38845.174   -20088.016 
  968600    303.40803   -38666.398    180.88034   -38847.278   -16456.326 
  968800     266.8525   -38685.049    159.08732   -38844.137   -12828.084 
  969000    311.39019   -38655.159      185.639   -38840.798   -14974.726 
  969200    299.74139    -38661.61    178.69443   -38840.304    3030.5049 
  969400    286.24691   -38672.909    170.64954   -38843.559   -13995.579 
  969600    273.11536    -38702.19      162.821   -38865.011    21020.068 
  969800    286.84294   -38669.339    171.00486   -38840.344   -23088.124 
  970000    315.13537    -38666.33    187.87174   -38854.202    21503.938 
  970200    274.12344   -38690.657    163.42198   -38854.079    2608.0707 
  970400    310.11641   -38674.643    184.87962   -38859.523     8068.095 
  970600    325.12587    -38657.53    193.82769   -38851.358   -9901.1039 
  970800     288.6199   -38690.351    172.06422   -38862.415   -21482.953 
  971000    260.39142   -38683.697    155.23548   -38838.933   -25069.969 
  971200    308.47585   -38666.535    183.90158   -38850.437   -20433.791 
  971400    291.17147   -38672.136    173.58537   -38845.722   -3941.5074 
  971600    272.24709   -38688.127    162.30337    -38850.43   -9879.8643 
  971800    319.09796    -38653.94    190.23408   -38844.174    -1153.669 
  972000    297.28533   -38674.251    177.23022   -38851.481   -7722.2926 
  972200    259.64618   -38686.485    154.79119   -38841.276    500.73123 
  972400    313.29945   -38646.649    186.77723   -38833.426   -10018.728 
  972600    303.95828    -38671.81    181.20838   -38853.019    43501.777 
  972800    279.73421   -38680.033    166.76691     -38846.8   -8573.7304 
  973000    311.62426   -38643.271    185.77854   -38829.049    18844.492 
  973200    296.08119   -38674.484    176.51236   -38850.997   -22299.392 
  973400    307.44854   -38679.994    183.28914   -38863.283   -16190.412 
  973600    301.11735   -38657.446    179.51472   -38836.961   -13065.904 
  973800    310.49536   -38672.065    185.10554   -38857.171   -36936.806 
  974000    307.05945   -38683.819    183.05718   -38866.877    1060.8156 
  974200    300.37209    -38654.51    179.07043   -38833.581    -31688.52 
  974400    289.18642   -38681.836    172.40196   -38854.238    5989.1061 
  974600     294.6715   -38684.631    175.67196   -38860.303    9961.7683 
  974800    314.17682   -38664.611    187.30028   -38851.911   -9771.4654 
  975000      306.383   -38672.327     182.6539   -38854.981   -30555.162 
  975200    290.09601   -38673.639    172.94422   -38846.583   -18045.057 
  975400    313.08247   -38653.519    186.64788   -38840.167    39958.279 
  975600    296.91959   -38687.375    177.01218   -38864.387    -21463.39 
  975800    289.17493   -38676.594    172.39511   -38848.989   -966.49807 
  976000    320.19542   -38663.932    190.88835   -38854.821    12512.532 
  976200    297.26152   -38673.466    177.21602   -38850.682   -13164.294 
  976400    265.78478   -38706.807    158.45079   -38865.257    25970.247 
  976600    288.74104   -38675.959    172.13644   -38848.096     2508.631 
  976800    308.06589   -38658.703    183.65718    -38842.36   -11293.536 
  977000    275.75863   -38692.298    164.39682   -38856.694    26767.161 
  977200    300.27052   -38676.311    179.00988   -38855.321   -15845.003 
  977400    290.77273   -38668.262    173.34766    -38841.61    3565.5314 
  977600    304.08669    -38660.22    181.28493   -38841.505   -17296.502 
  977800    276.95986    -38689.51    165.11295   -38854.623    10441.018 
  978000    316.03874   -38658.009    188.41029   -38846.419     -7671.96 
  978200    285.91372   -38663.594     170.4509   -38834.045   -39928.124 
  978400    286.21577   -38676.288    170.63097   -38846.919     11615.11 
  978600    283.76212    -38677.88     169.1682   -38847.048     26088.99 
  978800    333.13776    -38651.92    198.60408   -38850.524   -7762.0753 
  979000    278.86561   -38681.353    166.24908   -38847.603   -13118.208 
  979200    296.66079   -38675.974    176.85789   -38852.831    10646.586 
  979400    316.55761   -38663.414    188.71962   -38852.133   -8973.0854 
  979600    296.40204   -38667.854    176.70363   -38844.557   -13917.561 
  979800    275.52378   -38691.174    164.25681   -38855.431    31318.688 
  980000    312.78958   -38652.616    186.47327    -38839.09   -13799.069 
  980200    308.04417   -38662.069    183.64423   -38845.713   -4117.1194 
  980400    274.79287   -38690.472    163.82107   -38854.293   -22293.554 
  980600    285.47518   -38676.493    170.18946   -38846.683   -17003.814 
  980800    308.54231   -38650.799     183.9412    -38834.74    6836.2159 
  981000    268.58176   -38679.111    160.11824   -38839.229    27035.918 
  981200    316.21477   -38682.295    188.51523    -38870.81   -12770.868 
  981400    295.17918   -38668.856    175.97461    -38844.83    14556.831 
  981600     303.4375   -38659.401    180.89791   -38840.299    1911.4162 
  981800     258.3576   -38689.911    154.02299   -38843.934   -12528.603 
  982000    290.36912   -38663.183    173.10704    -38836.29    11866.225 
  982200     313.2879   -38655.465    186.77035   -38842.236   -2794.0817 
  982400    290.87834   -38684.501    173.41062   -38857.911    26080.321 
  982600    299.55982   -38675.297    178.58618   -38853.883    14964.293 
  982800    301.64311   -38670.179    179.82816   -38850.007   -4202.2835 
  983000    311.50343   -38654.196    185.70651   -38839.903    30600.846 
  983200    304.29878   -38667.983    181.41137   -38849.395   -27899.038 
  983400    286.19007   -38684.415    170.61565    -38855.03   -7063.7449 
  983600    308.88575   -38661.323    184.14595   -38845.469   -8650.6623 
  983800    285.90462   -38662.447    170.44547   -38832.892    3172.7247 
  984000     281.1813   -38685.869    167.62961   -38853.499    4110.9761 
  984200    292.89784   -38685.411    174.61457   -38860.025   -18761.743 
  984400    309.66153   -38659.505    184.60844   -38844.113   -6156.9915 
  984600     292.6688   -38675.054    174.47802   -38849.532    -13399.15 
  984800    285.86594   -38694.812    170.42241   -38865.235   -20803.947 
  985000    329.85575   -38654.523    196.64747    -38851.17    17458.775 
  985200    290.71268    -38666.75    173.31186   -38840.062   -10178.808 
  985400    279.21639   -38693.125     166.4582   -38859.584   -4856.8557 
  985600    316.11986   -38657.067    188.45865   -38845.525   -28088.334 
  985800    303.11554   -38653.263    180.70597   -38833.969    367.44509 
  986000    278.57935   -38686.065    166.07842   -38852.144    -15860.62 
  986200    304.76328   -38663.461    181.68829   -38845.149   -445.95595 
  986400      313.038   -38658.239    186.62136    -38844.86    -14287.08 
  986600    312.74866   -38665.397    186.44887   -38851.846    42388.801 
  986800    276.47943   -38687.806    164.82653   -38852.632   -14828.026 
  987000    286.31562   -38683.314     170.6905   -38854.004    25848.963 
  987200    333.87077     -38652.6    199.04107   -38851.641     4057.101 
  987400    284.73985   -38676.642    169.75108   -38846.393   -31096.225 
  987600    267.39159    -38697.09     159.4087   -38856.499   -12160.122 
  987800    281.27649   -38671.909    167.68636   -38839.596    11646.628 
  988000    313.63273    -38654.02    186.97592   -38840.996   -2924.8315 
  988200    275.59473   -38676.267    164.29911   -38840.566      2169.58 
  988400    279.99875   -38682.922    166.92462   -38849.847   -19213.152 
  988600    309.56683   -38647.875    184.55199   -38832.427    6014.4164 
  988800    285.64282    -38670.47     170.2894    -38840.76    38712.583 
  989000    310.26612   -38673.668    184.96887   -38858.636    30483.141 
  989200    339.76366   -38637.225    202.55419   -38839.779    15906.608 
  989400    306.01915   -38667.563    182.43699       -38850    10491.987 
  989600    279.51833   -38670.065    166.63821   -38836.703    23290.739 
  989800    330.23917   -38642.222    196.87605   -38839.098    29104.424 
  990000    327.39969   -38649.691    195.18326   -38844.874    -13809.23 
  990200    277.61559   -38670.855    165.50387   -38836.359   -2622.5497 
  990400    298.34677   -38663.217    177.86301    -38841.08   -9395.8648 
  990600    306.79277   -38656.026    182.89819   -38838.924    45313.421 
  990800    286.73836   -38681.719    170.94252   -38852.662    10191.694 
  991000     290.5988   -38657.278    173.24397   -38830.522    7421.8715 
  991200    291.19651   -38653.556     173.6003   -38827.156      10674.4 
  991400    313.73406   -38671.128    187.03633   -38858.165    29689.471 
  991600    305.43768   -38670.112    182.09034   -38852.202   -14405.371 
  991800     306.7521   -38661.626    182.87395     -38844.5   -36700.613 
  992000    296.02869   -38686.499    176.48106    -38862.98    32287.128 
  992200    267.80837   -38692.764    159.65718   -38852.421   -1016.5176 
  992400    284.50387   -38659.094     169.6104   -38828.704    6566.7743 
  992600    301.80332   -38667.842    179.92368   -38847.765    6322.8018 
  992800    284.78223   -38689.773    169.77635   -38859.549   -8136.3922 
  993000    279.57268   -38671.217    166.67061   -38837.887   -3888.0238 
  993200    309.06513   -38663.785    184.25289   -38848.038     26202.13 
  993400    310.18292   -38639.517    184.91927   -38824.437   -7426.3079 
  993600    286.44158   -38675.579    170.76559   -38846.345    18088.677 
  993800    320.53663   -38666.855    191.09176   -38857.946   -30395.187 
  994000      312.344   -38646.431    186.20763   -38832.639    23673.378 
  994200     307.4108   -38667.444    183.26664    -38850.71     3095.222 
  994400    294.71422   -38677.751    175.69742   -38853.448    1457.6528 
  994600    325.62375    -38648.76    194.12451   -38842.885   -5558.3785 
  994800     314.0301   -38632.815    187.21281   -38820.028    65967.883 
  995000    291.40419   -38667.658    173.72411   -38841.382   -19355.755 
  995200    284.12623   -38670.064    169.38527   -38839.449    26548.744 
  995400    295.85516   -38651.701    176.37761   -38828.079   -17816.153 
  995600    301.19054   -38675.277    179.55836   -38854.835    22971.815 
  995800    282.45293   -38679.155    168.38771   -38847.543   -9110.4732 
  996000    319.79299   -38640.243    190.64843   -38830.891    15804.843 
  996200    293.50563   -38673.544     174.9769   -38848.521   -2009.8809 
  996400    313.60924   -38664.612    186.96192   -38851.574   -15008.919 
  996600    313.51327   -38644.366     186.9047   -38831.271   -24234.739 
  996800     295.7976   -38663.559    176.34329   -38839.902   -2985.7162 
  997000    297.65681   -38683.153    177.45168   -38860.605   -17351.183 
  997200    304.19082   -38657.787    181.34701   -38839.134    27753.878 
  997400     302.1698   -38659.629    180.14215   -38839.771   -18211.335 
  997600    295.69458    -38677.31    176.28187   -38853.592    17276.489 
  997800    331.21425    -38663.08    197.45735   -38860.538   -439.85196 
  998000    311.61303   -38663.796    185.77185   -38849.568    11516.109 
  998200    323.99555   -38671.994    193.15384   -38865.148   -21439.446 
  998400    291.17651   -38653.732    173.58837   -38827.321   -20842.618 
  998600    326.35176   -38659.456    194.55852   -38854.014    7685.1973 
  998800     281.7087   -38684.565    167.94402   -38852.509    511.36413 
  999000    285.89067   -38658.299    170.43715   -38828.736    3503.8249 
  999200    360.38336   -38609.673    214.84687    -38824.52    13972.693 
  999400    322.45721   -38650.485    192.23674   -38842.722   -934.16062 
  999600     281.2965   -38683.883    167.69829   -38851.581    21884.567 
  999800    300.26781   -38662.745    179.00826   -38841.753   -27389.994 
 1000000    309.14708   -38653.453    184.30174   -38837.755   -13370.503 
Loop time of 7952.73 on 8 procs for 1000000 steps with 201 atoms

Performance: 2.716 ns/day, 8.836 hours/ns, 125.743 timesteps/s
99.2% CPU use with 8 MPI tasks x no OpenMP threads

MPI task timing breakdown:
Section |  min time  |  avg time  |  max time  |%varavg| %total
---------------------------------------------------------------
Pair    | 6768.4     | 6890.2     | 7132.6     | 130.1 | 86.64
Neigh   | 0          | 0          | 0          |   0.0 |  0.00
Comm    | 41.839     | 284.18     | 406.16     | 640.8 |  3.57
Output  | 0.098724   | 0.10859    | 0.17029    |   7.1 |  0.00
Modify  | 772.73     | 772.98     | 773.27     |   0.6 |  9.72
Other   |            | 5.254      |            |       |  0.07

Nlocal:    25.125 ave 29 max 22 min
Histogram: 1 0 3 0 0 3 0 0 0 1
Nghost:    963.75 ave 970 max 957 min
Histogram: 1 0 0 1 2 2 0 1 0 1
Neighs:    4305.5 ave 4844 max 3858 min
Histogram: 1 0 3 0 0 3 0 0 0 1

Total # of neighbors = 34444
Ave neighs/atom = 171.363
Neighbor list builds = 0
Dangerous builds = 0

Please see the log.cite file for references relevant to this simulation

Total wall time: 2:12:41
