ITEM: TIMESTEP
0
ITEM: NUMBER OF ATOMS
49
ITEM: BOX BOUNDS pp pp pp
0.0000000000000000e+00 1.1000000000000000e+01
0.0000000000000000e+00 1.1002000000000001e+01
0.0000000000000000e+00 1.1000000000000000e+01
ITEM: ATOMS id type x y z 
10 1 4.603 4.603 4.603 
11 1 3.085 3.085 3.085 
12 1 3.796 3.796 3.796 
46 1 0.726 0.725 0.725 
47 1 2.26 2.259 2.26 
48 1 1.551 1.55 1.55 
19 1 4.546 4.545 6.226 
20 1 3.013 3.013 7.764 
21 1 3.721 3.721 7.053 
31 1 0.668 0.667 10.103 
32 1 2.187 2.187 8.589 
33 1 1.476 1.475 9.298 
16 1 4.546 6.225 4.546 
17 1 3.013 7.765 3.013 
18 1 3.721 7.053 3.722 
25 1 0.668 10.103 0.668 
26 1 2.188 8.589 2.188 
27 1 1.476 9.298 1.476 
4 1 4.608 6.169 6.169 
5 1 3.086 7.684 7.684 
6 1 3.799 6.974 6.974 
37 1 0.729 10.046 10.046 
38 1 2.259 8.509 8.508 
39 1 1.552 9.219 9.219 
13 1 6.225 4.546 4.546 
14 1 7.764 3.013 3.013 
15 1 7.053 3.721 3.722 
28 1 10.102 0.667 0.668 
29 1 8.589 2.187 2.188 
30 1 9.298 1.475 1.476 
49 2 8.048 2.352 4.161 
1 1 6.168 4.608 6.169 
2 1 7.684 3.086 7.684 
3 1 6.974 3.799 6.974 
40 1 10.045 0.728 10.046 
41 1 8.508 2.259 8.508 
42 1 9.218 1.551 9.218 
7 1 6.169 6.169 4.608 
8 1 7.684 7.684 3.086 
9 1 6.974 6.974 3.799 
43 1 10.046 10.047 0.729 
44 1 8.508 8.509 2.259 
45 1 9.219 9.219 1.552 
22 1 6.229 6.229 6.229 
23 1 7.764 7.765 7.765 
24 1 7.055 7.056 7.055 
34 1 10.108 10.108 10.107 
35 1 8.59 8.59 8.59 
36 1 9.301 9.301 9.3 
ITEM: TIMESTEP
10
ITEM: NUMBER OF ATOMS
49
ITEM: BOX BOUNDS pp pp pp
0.0000000000000000e+00 1.1000000000000000e+01
0.0000000000000000e+00 1.1002000000000001e+01
0.0000000000000000e+00 1.1000000000000000e+01
ITEM: ATOMS id type x y z 
10 1 4.57631 4.60053 4.59873 
11 1 3.08541 3.07745 3.07778 
12 1 3.77683 3.79275 3.79237 
46 1 0.728307 0.733372 0.73343 
47 1 2.27221 2.26892 2.26928 
48 1 1.5601 1.563 1.56405 
19 1 4.53784 4.5367 6.2349 
20 1 3.00189 3.00128 7.77487 
21 1 3.70688 3.70815 7.06759 
31 1 0.6755 0.672776 10.0942 
32 1 2.19102 2.19173 8.58434 
33 1 1.4837 1.48133 9.29129 
16 1 4.53502 6.23578 4.53707 
17 1 3.0015 7.7761 3.00128 
18 1 3.70635 7.06818 3.70808 
25 1 0.677611 10.0955 0.67399 
26 1 2.19178 8.58576 2.19225 
27 1 1.48287 9.29027 1.48188 
4 1 4.60039 6.17664 6.17857 
5 1 3.08187 7.68884 7.68858 
6 1 3.79057 6.98101 6.98143 
37 1 0.737085 10.0384 10.0377 
38 1 2.26865 8.49936 8.49825 
39 1 1.56496 9.20621 9.2065 
13 1 6.22481 4.5559 4.53714 
14 1 7.82541 2.96956 2.89396 
15 1 7.07514 3.66475 3.81784 
28 1 10.1003 0.669093 0.674243 
29 1 8.62165 2.16416 2.11663 
30 1 9.30237 1.47284 1.45924 
49 2 7.99165 2.40624 4.22447 
1 1 6.17046 4.6028 6.19404 
2 1 7.6919 3.07801 7.68417 
3 1 6.97793 3.79479 6.99403 
40 1 10.0372 0.735796 10.0438 
41 1 8.49865 2.26809 8.49611 
42 1 9.20504 1.56492 9.20884 
7 1 6.17095 6.19588 4.60151 
8 1 7.69254 7.6847 3.0779 
9 1 6.97791 6.99413 3.79392 
43 1 10.0375 10.0444 0.73762 
44 1 8.49868 8.49681 2.2687 
45 1 9.20431 9.20897 1.56647 
22 1 6.23805 6.23782 6.2386 
23 1 7.77464 7.77496 7.77432 
24 1 7.06765 7.0699 7.07016 
34 1 10.1011 10.0995 10.0973 
35 1 8.58474 8.58549 8.58576 
36 1 9.29474 9.29352 9.29187 
ITEM: TIMESTEP
20
ITEM: NUMBER OF ATOMS
49
ITEM: BOX BOUNDS pp pp pp
0.0000000000000000e+00 1.1000000000000000e+01
0.0000000000000000e+00 1.1002000000000001e+01
0.0000000000000000e+00 1.1000000000000000e+01
ITEM: ATOMS id type x y z 
10 1 4.58687 4.60195 4.59774 
11 1 3.08314 3.08048 3.08142 
12 1 3.78581 3.79245 3.791 
46 1 0.733881 0.735985 0.736717 
47 1 2.27179 2.27 2.2709 
48 1 1.56366 1.56318 1.56336 
19 1 4.53576 4.53549 6.23788 
20 1 3.00036 3.00093 7.77602 
21 1 3.70722 3.70649 7.06813 
31 1 0.675802 0.672059 10.091 
32 1 2.18939 2.18911 8.58552 
33 1 1.48132 1.48056 9.29401 
16 1 4.53053 6.23946 4.53619 
17 1 3.00048 7.77702 2.9992 
18 1 3.70409 7.07008 3.70875 
25 1 0.679002 10.0932 0.673135 
26 1 2.1896 8.58728 2.19035 
27 1 1.4816 9.29309 1.47925 
4 1 4.59958 6.17736 6.17945 
5 1 3.082 7.68775 7.68754 
6 1 3.79281 6.98037 6.98111 
37 1 0.73857 10.0366 10.0358 
38 1 2.26969 8.49816 8.49742 
39 1 1.56547 9.20629 9.20566 
13 1 6.21781 4.56649 4.54164 
14 1 7.82553 2.9836 2.84608 
15 1 7.1081 3.60014 3.90212 
28 1 10.1052 0.66261 0.671013 
29 1 8.62249 2.16457 2.10093 
30 1 9.3136 1.4667 1.43518 
49 2 7.93902 2.46565 4.24696 
1 1 6.16953 4.60446 6.18303 
2 1 7.68797 3.082 7.68654 
3 1 6.97886 3.79298 6.98467 
40 1 10.0352 0.737327 10.039 
41 1 8.49844 2.2684 8.49736 
42 1 9.20678 1.56371 9.20693 
7 1 6.17079 6.18667 4.59882 
8 1 7.68988 7.68733 3.08097 
9 1 6.97887 6.98658 3.79149 
43 1 10.0346 10.0386 0.739702 
44 1 8.49813 8.49781 2.2692 
45 1 9.20627 9.20706 1.56547 
22 1 6.23808 6.23907 6.24244 
23 1 7.77524 7.77645 7.77593 
24 1 7.06822 7.06866 7.06905 
34 1 10.1003 10.0981 10.096 
35 1 8.58533 8.58578 8.58833 
36 1 9.29737 9.29684 9.29054 
ITEM: TIMESTEP
30
ITEM: NUMBER OF ATOMS
49
ITEM: BOX BOUNDS pp pp pp
0.0000000000000000e+00 1.1000000000000000e+01
0.0000000000000000e+00 1.1002000000000001e+01
0.0000000000000000e+00 1.1000000000000000e+01
ITEM: ATOMS id type x y z 
10 1 4.59876 4.60325 4.59746 
11 1 3.08348 3.08313 3.0861 
12 1 3.79209 3.79418 3.78869 
46 1 0.743678 0.733486 0.734476 
47 1 2.27146 2.27085 2.27119 
48 1 1.56776 1.56482 1.5666 
19 1 4.5331 4.53716 6.24015 
20 1 3.00041 3.00093 7.77615 
21 1 3.70747 3.70752 7.06787 
31 1 0.674317 0.671677 10.0963 
32 1 2.18945 2.19186 8.59003 
33 1 1.48059 1.47388 9.28556 
16 1 4.52585 6.24393 4.54244 
17 1 2.99916 7.77874 3.00125 
18 1 3.70523 7.06729 3.70521 
25 1 0.677462 10.0948 0.669432 
26 1 2.18849 8.58855 2.18845 
27 1 1.4807 9.29414 1.47877 
4 1 4.60218 6.17478 6.17637 
5 1 3.08346 7.68647 7.68609 
6 1 3.79322 6.97952 6.98108 
37 1 0.738678 10.0362 10.0348 
38 1 2.26923 8.49915 8.4984 
39 1 1.56536 9.20577 9.20498 
13 1 6.21251 4.57055 4.54731 
14 1 7.80548 3.01322 2.81959 
15 1 7.13118 3.56316 3.93389 
28 1 10.1143 0.653783 0.664019 
29 1 8.61076 2.18897 2.09016 
30 1 9.31434 1.46517 1.42095 
49 2 7.92653 2.46563 4.30106 
1 1 6.16792 4.60678 6.17122 
2 1 7.68363 3.08608 7.68674 
3 1 6.97888 3.79301 6.9769 
40 1 10.0378 0.734416 10.0291 
41 1 8.49832 2.2696 8.49825 
42 1 9.20475 1.56425 9.20315 
7 1 6.17002 6.17465 4.59691 
8 1 7.68844 7.68713 3.08308 
9 1 6.97782 6.98353 3.79055 
43 1 10.038 10.0295 0.735946 
44 1 8.49826 8.49927 2.27018 
45 1 9.20663 9.20502 1.56396 
22 1 6.23554 6.24116 6.24533 
23 1 7.7749 7.77533 7.77507 
24 1 7.06658 7.06866 7.0689 
34 1 10.1056 10.1026 10.0941 
35 1 8.58809 8.58877 8.58305 
36 1 9.29215 9.2907 9.29966 
ITEM: TIMESTEP
40
ITEM: NUMBER OF ATOMS
49
ITEM: BOX BOUNDS pp pp pp
0.0000000000000000e+00 1.1000000000000000e+01
0.0000000000000000e+00 1.1002000000000001e+01
0.0000000000000000e+00 1.1000000000000000e+01
ITEM: ATOMS id type x y z 
10 1 4.60293 4.60517 4.59532 
11 1 3.08378 3.08492 3.08581 
12 1 3.79419 3.79352 3.79254 
46 1 0.761637 0.726152 0.726307 
47 1 2.27438 2.27655 2.27629 
48 1 1.57391 1.56364 1.56601 
19 1 4.529 4.54046 6.24183 
20 1 2.99731 2.99748 7.77841 
21 1 3.70556 3.70709 7.07 
31 1 0.673842 0.672024 10.094 
32 1 2.19127 2.18824 8.58298 
33 1 1.48193 1.48454 9.29424 
16 1 4.52379 6.24815 4.54256 
17 1 2.99945 7.77652 2.99875 
18 1 3.70165 7.07205 3.71126 
25 1 0.677937 10.0978 0.676139 
26 1 2.18587 8.59091 2.19129 
27 1 1.48499 9.29171 1.46941 
4 1 4.60085 6.1726 6.17779 
5 1 3.08321 7.68369 7.68861 
6 1 3.7961 6.98182 6.97527 
37 1 0.74082 10.0328 10.0286 
38 1 2.27242 8.49623 8.49307 
39 1 1.56746 9.20425 9.20669 
13 1 6.20917 4.57479 4.54874 
14 1 7.79235 3.02977 2.82716 
15 1 7.1453 3.53382 3.98316 
28 1 10.1235 0.639186 0.655335 
29 1 8.58693 2.21886 2.03273 
30 1 9.32189 1.48517 1.39541 
49 2 7.91272 2.46063 4.37852 
1 1 6.16911 4.60742 6.16746 
2 1 7.68249 3.08725 7.68501 
3 1 6.9754 3.79608 6.97818 
40 1 10.0453 0.725739 10.011 
41 1 8.49332 2.27441 8.49497 
42 1 9.20474 1.56544 9.19709 
7 1 6.16848 6.16988 4.5954 
8 1 7.68594 7.68697 3.08461 
9 1 6.97873 6.97993 3.78995 
43 1 10.0452 10.0102 0.727678 
44 1 8.49491 8.49899 2.27264 
45 1 9.20641 9.19876 1.5674 
22 1 6.23234 6.24533 6.24545 
23 1 7.7757 7.77563 7.77658 
24 1 7.06531 7.06963 7.06984 
34 1 10.1008 10.1013 10.0971 
35 1 8.58442 8.58278 8.58601 
36 1 9.29529 9.29668 9.28633 
ITEM: TIMESTEP
50
ITEM: NUMBER OF ATOMS
49
ITEM: BOX BOUNDS pp pp pp
0.0000000000000000e+00 1.1000000000000000e+01
0.0000000000000000e+00 1.1002000000000001e+01
0.0000000000000000e+00 1.1000000000000000e+01
ITEM: ATOMS id type x y z 
10 1 4.60335 4.6044 4.59682 
11 1 3.08552 3.08572 3.08785 
12 1 3.79393 3.79505 3.79149 
46 1 0.762712 0.726942 0.727776 
47 1 2.27197 2.27512 2.27566 
48 1 1.57562 1.56308 1.56426 
19 1 4.52935 4.53906 6.2424 
20 1 3.00048 2.99956 7.77582 
21 1 3.70566 3.70917 7.06876 
31 1 0.674186 0.672728 10.094 
32 1 2.18999 2.1891 8.58615 
33 1 1.48119 1.47986 9.29131 
16 1 4.52302 6.24824 4.54243 
17 1 2.99863 7.77735 2.99849 
18 1 3.70185 7.07181 3.71128 
25 1 0.679109 10.0966 0.670372 
26 1 2.18791 8.58887 2.18902 
27 1 1.4833 9.29337 1.47511 
4 1 4.60118 6.17372 6.17634 
5 1 3.08435 7.68551 7.68615 
6 1 3.79354 6.97894 6.9802 
37 1 0.741206 10.033 10.0303 
38 1 2.2717 8.49709 8.49583 
39 1 1.56653 9.20485 9.2041 
13 1 6.21014 4.57182 4.54978 
14 1 7.78853 3.02988 2.83398 
15 1 7.1461 3.53264 3.98537 
28 1 10.1278 0.640188 0.653535 
29 1 8.5866 2.23081 2.03067 
30 1 9.31776 1.47832 1.38832 
49 2 7.91233 2.45954 4.38409 
1 1 6.16706 4.60823 6.1669 
2 1 7.68137 3.08823 7.68445 
3 1 6.97515 3.79653 6.97734 
40 1 10.0446 0.726834 10.0101 
41 1 8.49475 2.27331 8.49769 
42 1 9.20633 1.56343 9.19586 
7 1 6.16895 6.17059 4.59519 
8 1 7.68556 7.68691 3.08496 
9 1 6.97758 6.97839 3.79077 
43 1 10.0448 10.0095 0.729058 
44 1 8.49519 8.50022 2.27344 
45 1 9.20828 9.19833 1.56401 
22 1 6.23342 6.24529 6.24599 
23 1 7.77486 7.77429 7.77512 
24 1 7.06381 7.0692 7.06984 
34 1 10.1021 10.1019 10.0931 
35 1 8.58611 8.58554 8.5849 
36 1 9.29463 9.29392 9.29056 
ITEM: TIMESTEP
60
ITEM: NUMBER OF ATOMS
49
ITEM: BOX BOUNDS pp pp pp
0.0000000000000000e+00 1.1000000000000000e+01
0.0000000000000000e+00 1.1002000000000001e+01
0.0000000000000000e+00 1.1000000000000000e+01
ITEM: ATOMS id type x y z 
10 1 4.60371 4.60501 4.59646 
11 1 3.08582 3.08632 3.08804 
12 1 3.79462 3.7954 3.79236 
46 1 0.763379 0.727185 0.728004 
47 1 2.27097 2.27517 2.27601 
48 1 1.57726 1.56203 1.56287 
19 1 4.52898 4.53871 6.24262 
20 1 3.0009 2.99986 7.77552 
21 1 3.70566 3.70959 7.06858 
31 1 0.673439 0.673459 10.0926 
32 1 2.18859 2.1895 8.58622 
33 1 1.48287 1.47794 9.29192 
16 1 4.52286 6.24829 4.54262 
17 1 2.99843 7.77755 2.99881 
18 1 3.70201 7.0716 3.71125 
25 1 0.680057 10.0956 0.669051 
26 1 2.18896 8.58845 2.18812 
27 1 1.48198 9.29352 1.47676 
4 1 4.6006 6.17465 6.17622 
5 1 3.08413 7.68622 7.68628 
6 1 3.79352 6.97796 6.98047 
37 1 0.741699 10.0331 10.0303 
38 1 2.27237 8.49658 8.49611 
39 1 1.56601 9.20515 9.20289 
13 1 6.21039 4.5704 4.55091 
14 1 7.78873 3.02816 2.83965 
15 1 7.14738 3.52994 3.99028 
28 1 10.1295 0.639101 0.653779 
29 1 8.58467 2.23671 2.02496 
30 1 9.31307 1.48244 1.38096 
49 2 7.91205 2.45766 4.39117 
1 1 6.16639 4.6086 6.16661 
2 1 7.68068 3.08869 7.68443 
3 1 6.97522 3.79701 6.97701 
40 1 10.0447 0.72709 10.0101 
41 1 8.4946 2.27345 8.49941 
42 1 9.20804 1.56173 9.19352 
7 1 6.16915 6.17049 4.59499 
8 1 7.68563 7.68658 3.08539 
9 1 6.97673 6.97869 3.79031 
43 1 10.0449 10.0099 0.729256 
44 1 8.49541 8.50204 2.27397 
45 1 9.20947 9.19575 1.56182 
22 1 6.23315 6.24575 6.24596 
23 1 7.77431 7.77433 7.77508 
24 1 7.06412 7.06862 7.06951 
34 1 10.1015 10.1008 10.0925 
35 1 8.58623 8.58533 8.5854 
36 1 9.29522 9.29493 9.29 
ITEM: TIMESTEP
70
ITEM: NUMBER OF ATOMS
49
ITEM: BOX BOUNDS pp pp pp
0.0000000000000000e+00 1.1000000000000000e+01
0.0000000000000000e+00 1.1002000000000001e+01
0.0000000000000000e+00 1.1000000000000000e+01
ITEM: ATOMS id type x y z 
10 1 4.60416 4.6054 4.59638 
11 1 3.08578 3.08669 3.08833 
12 1 3.79507 3.79544 3.79216 
46 1 0.763924 0.726461 0.727274 
47 1 2.27124 2.27479 2.27578 
48 1 1.5771 1.56194 1.56287 
19 1 4.52847 4.53873 6.24264 
20 1 3.00097 2.99982 7.77551 
21 1 3.70538 3.70988 7.06879 
31 1 0.67458 0.672731 10.0923 
32 1 2.1896 2.18881 8.58632 
33 1 1.48124 1.47906 9.2912 
16 1 4.52297 6.24837 4.54261 
17 1 2.99831 7.77754 2.9991 
18 1 3.70189 7.07185 3.71138 
25 1 0.680256 10.0951 0.668667 
26 1 2.18893 8.58808 2.18799 
27 1 1.48258 9.29367 1.47664 
4 1 4.59993 6.17449 6.17669 
5 1 3.08389 7.68551 7.68675 
6 1 3.79387 6.97932 6.97985 
37 1 0.741902 10.033 10.0294 
38 1 2.27234 8.49643 8.49569 
39 1 1.56675 9.20491 9.20302 
13 1 6.21065 4.56944 4.55211 
14 1 7.79026 3.02485 2.84602 
15 1 7.14897 3.52627 3.99747 
28 1 10.1295 0.639404 0.653353 
29 1 8.58066 2.24367 2.01608 
30 1 9.3103 1.48767 1.37476 
49 2 7.91231 2.45479 4.39894 
1 1 6.16606 4.60913 6.16648 
2 1 7.68054 3.08907 7.68465 
3 1 6.9748 3.79718 6.97729 
40 1 10.0456 0.726328 10.0091 
41 1 8.49485 2.27317 8.49891 
42 1 9.208 1.56183 9.19387 
7 1 6.16895 6.17011 4.59473 
8 1 7.68536 7.68689 3.08529 
9 1 6.97697 6.97847 3.79032 
43 1 10.0458 10.0095 0.72819 
44 1 8.49594 8.50176 2.27354 
45 1 9.20974 9.19632 1.56181 
22 1 6.23314 6.24601 6.2454 
23 1 7.77451 7.77406 7.77516 
24 1 7.06334 7.06902 7.06939 
34 1 10.1013 10.1003 10.0917 
35 1 8.58619 8.58538 8.58492 
36 1 9.29514 9.29433 9.29013 
ITEM: TIMESTEP
80
ITEM: NUMBER OF ATOMS
49
ITEM: BOX BOUNDS pp pp pp
0.0000000000000000e+00 1.1000000000000000e+01
0.0000000000000000e+00 1.1002000000000001e+01
0.0000000000000000e+00 1.1000000000000000e+01
ITEM: ATOMS id type x y z 
10 1 4.6069 4.60566 4.59597 
11 1 3.08579 3.08728 3.08824 
12 1 3.795 3.79598 3.79201 
46 1 0.762985 0.725042 0.725817 
47 1 2.27196 2.27347 2.27508 
48 1 1.57718 1.56063 1.56199 
19 1 4.52635 4.54035 6.24254 
20 1 3.00077 3.00056 7.77634 
21 1 3.70524 3.70934 7.06759 
31 1 0.676156 0.672143 10.0909 
32 1 2.18986 2.18894 8.58492 
33 1 1.48247 1.47895 9.29133 
16 1 4.52431 6.24852 4.54192 
17 1 2.99778 7.77828 3.00018 
18 1 3.70161 7.07165 3.71214 
25 1 0.680878 10.095 0.667393 
26 1 2.19009 8.58781 2.1873 
27 1 1.4822 9.29204 1.47606 
4 1 4.59882 6.1754 6.1765 
5 1 3.0842 7.68601 7.68707 
6 1 3.79288 6.97823 6.98019 
37 1 0.743331 10.0321 10.0269 
38 1 2.2736 8.49556 8.49492 
39 1 1.56728 9.2046 9.20189 
13 1 6.21275 4.56515 4.55591 
14 1 7.79696 3.00999 2.87166 
15 1 7.15537 3.51148 4.02632 
28 1 10.1267 0.645092 0.648466 
29 1 8.5643 2.27347 1.98036 
30 1 9.29996 1.5044 1.35976 
49 2 7.91651 2.44084 4.42381 
1 1 6.16486 4.61026 6.16726 
2 1 7.68012 3.09061 7.68586 
3 1 6.97293 3.79771 6.9787 
40 1 10.0473 0.724878 10.0075 
41 1 8.4954 2.27263 8.49846 
42 1 9.20856 1.56136 9.19193 
7 1 6.16963 6.1672 4.59263 
8 1 7.68491 7.68808 3.08452 
9 1 6.97776 6.97865 3.78988 
43 1 10.0475 10.0117 0.725636 
44 1 8.49825 8.50195 2.27201 
45 1 9.21172 9.19703 1.56017 
22 1 6.23254 6.24838 6.24331 
23 1 7.77382 7.77339 7.77553 
24 1 7.06246 7.06968 7.06823 
34 1 10.1015 10.098 10.0909 
35 1 8.58572 8.58485 8.58327 
36 1 9.29491 9.29254 9.28967 
ITEM: TIMESTEP
89
ITEM: NUMBER OF ATOMS
49
ITEM: BOX BOUNDS pp pp pp
0.0000000000000000e+00 1.1000000000000000e+01
0.0000000000000000e+00 1.1002000000000001e+01
0.0000000000000000e+00 1.1000000000000000e+01
ITEM: ATOMS id type x y z 
10 1 4.6069 4.60569 4.59582 
11 1 3.08552 3.08741 3.08838 
12 1 3.79546 3.79573 3.79165 
46 1 0.762522 0.725059 0.725864 
47 1 2.2717 2.27309 2.27478 
48 1 1.57725 1.56069 1.56198 
19 1 4.52645 4.53991 6.24218 
20 1 3.00098 3.00012 7.77594 
21 1 3.70479 3.71021 7.06829 
31 1 0.676912 0.671992 10.0916 
32 1 2.19014 2.18888 8.58545 
33 1 1.48192 1.47892 9.29041 
16 1 4.52434 6.2482 4.54193 
17 1 2.99763 7.77795 3.00055 
18 1 3.70217 7.07201 3.71188 
25 1 0.680433 10.0949 0.667362 
26 1 2.18948 8.58737 2.18726 
27 1 1.48324 9.29294 1.47591 
4 1 4.59889 6.17538 6.17643 
5 1 3.08414 7.68565 7.68708 
6 1 3.7932 6.97868 6.97996 
37 1 0.743276 10.0321 10.027 
38 1 2.2734 8.49571 8.49508 
39 1 1.5674 9.20462 9.20188 
13 1 6.21295 4.56497 4.55614 
14 1 7.79711 3.0095 2.87265 
15 1 7.15547 3.51114 4.02724 
28 1 10.1267 0.645114 0.649539 
29 1 8.56399 2.27358 1.98088 
30 1 9.29919 1.5063 1.35767 
49 2 7.91709 2.44003 4.42372 
1 1 6.16451 4.61022 6.16733 
2 1 7.67949 3.09035 7.68599 
3 1 6.97388 3.79839 6.97857 
40 1 10.0471 0.725024 10.0075 
41 1 8.49503 2.27302 8.49797 
42 1 9.20868 1.56126 9.19206 
7 1 6.16983 6.16709 4.59306 
8 1 7.68505 7.68843 3.08492 
9 1 6.97763 6.97814 3.78895 
43 1 10.0474 10.0121 0.725804 
44 1 8.4985 8.50195 2.27187 
45 1 9.21152 9.1971 1.56023 
22 1 6.23242 6.24835 6.24296 
23 1 7.7735 7.77319 7.77523 
24 1 7.06247 7.06958 7.06824 
34 1 10.1015 10.0975 10.0912 
35 1 8.58563 8.58471 8.58354 
36 1 9.29512 9.29272 9.28914 
ITEM: TIMESTEP
90
ITEM: NUMBER OF ATOMS
49
ITEM: BOX BOUNDS pp pp pp
0.0000000000000000e+00 1.1000000000000000e+01
0.0000000000000000e+00 1.1002000000000001e+01
0.0000000000000000e+00 1.1000000000000000e+01
ITEM: ATOMS id type x y z 
10 1 4.60692 4.60568 4.59581 
11 1 3.08553 3.0874 3.08837 
12 1 3.79544 3.79574 3.79166 
46 1 0.762523 0.725059 0.725862 
47 1 2.27171 2.27308 2.27478 
48 1 1.57723 1.5607 1.56198 
19 1 4.52645 4.53991 6.24218 
20 1 3.00098 3.00011 7.77594 
21 1 3.70478 3.71022 7.0683 
31 1 0.676921 0.671992 10.0916 
32 1 2.19015 2.18888 8.58546 
33 1 1.48189 1.47892 9.29039 
16 1 4.52434 6.24821 4.54193 
17 1 2.99763 7.77795 3.00056 
18 1 3.70217 7.072 3.71186 
25 1 0.680448 10.0949 0.667362 
26 1 2.18949 8.58739 2.18726 
27 1 1.48321 9.29292 1.47591 
4 1 4.59889 6.17537 6.17644 
5 1 3.08414 7.68564 7.68709 
6 1 3.79319 6.97869 6.97993 
37 1 0.74327 10.0321 10.027 
38 1 2.27339 8.49571 8.49508 
39 1 1.56741 9.20462 9.20189 
13 1 6.21295 4.56497 4.55614 
14 1 7.79711 3.00949 2.87266 
15 1 7.15547 3.51114 4.02726 
28 1 10.1267 0.645118 0.649546 
29 1 8.56399 2.27358 1.98088 
30 1 9.29918 1.50632 1.35764 
49 2 7.9171 2.44002 4.42372 
1 1 6.16452 4.61023 6.16733 
2 1 7.6795 3.09036 7.68599 
3 1 6.97386 3.79837 6.97857 
40 1 10.0471 0.725028 10.0075 
41 1 8.49503 2.27302 8.49798 
42 1 9.20868 1.56125 9.19205 
7 1 6.16983 6.16708 4.59304 
8 1 7.68504 7.68842 3.08491 
9 1 6.97765 6.97815 3.78898 
43 1 10.0474 10.0121 0.725811 
44 1 8.49851 8.50195 2.27188 
45 1 9.2115 9.1971 1.56022 
22 1 6.23242 6.24835 6.24296 
23 1 7.77351 7.77318 7.77523 
24 1 7.06246 7.06959 7.06824 
34 1 10.1016 10.0975 10.0912 
35 1 8.58564 8.58471 8.58352 
36 1 9.2951 9.29272 9.28917 
ITEM: TIMESTEP
100
ITEM: NUMBER OF ATOMS
49
ITEM: BOX BOUNDS pp pp pp
0.0000000000000000e+00 1.1000000000000000e+01
0.0000000000000000e+00 1.1002000000000001e+01
0.0000000000000000e+00 1.1000000000000000e+01
ITEM: ATOMS id type x y z 
10 1 4.60704 4.60548 4.5955 
11 1 3.08532 3.08745 3.08834 
12 1 3.79573 3.79553 3.79145 
46 1 0.761763 0.725318 0.726008 
47 1 2.27195 2.2729 2.27466 
48 1 1.57692 1.56076 1.56203 
19 1 4.52642 4.53968 6.24188 
20 1 3.00123 2.99984 7.7757 
21 1 3.70448 3.71106 7.06849 
31 1 0.676732 0.671823 10.0917 
32 1 2.19019 2.18866 8.5854 
33 1 1.48179 1.47909 9.29054 
16 1 4.52477 6.24797 4.54175 
17 1 2.99759 7.77796 3.00084 
18 1 3.70241 7.0718 3.71177 
25 1 0.680636 10.0949 0.667432 
26 1 2.18944 8.58741 2.1871 
27 1 1.48315 9.29299 1.4758 
4 1 4.59888 6.17543 6.17622 
5 1 3.0843 7.68546 7.68705 
6 1 3.79326 6.97864 6.97965 
37 1 0.743184 10.0322 10.027 
38 1 2.27346 8.49572 8.49506 
39 1 1.56739 9.20455 9.20186 
13 1 6.21351 4.56434 4.5563 
14 1 7.79736 3.0085 2.87485 
15 1 7.15589 3.51016 4.02919 
28 1 10.1259 0.646022 0.649988 
29 1 8.56333 2.27438 1.98094 
30 1 9.29785 1.50909 1.35456 
49 2 7.91835 2.43826 4.42367 
1 1 6.16454 4.61019 6.16744 
2 1 7.67943 3.09036 7.68604 
3 1 6.97377 3.79862 6.97901 
40 1 10.0472 0.724953 10.0077 
41 1 8.49539 2.27273 8.4981 
42 1 9.2088 1.56109 9.19211 
7 1 6.17014 6.16664 4.59265 
8 1 7.68505 7.68858 3.08486 
9 1 6.97778 6.97798 3.78877 
43 1 10.047 10.0131 0.726101 
44 1 8.4986 8.5018 2.27187 
45 1 9.21157 9.19727 1.56013 
22 1 6.23239 6.24838 6.24254 
23 1 7.77343 7.77307 7.7752 
24 1 7.06232 7.06972 7.06805 
34 1 10.1016 10.0977 10.0912 
35 1 8.58563 8.58453 8.58365 
36 1 9.29518 9.29289 9.28884 
ITEM: TIMESTEP
110
ITEM: NUMBER OF ATOMS
49
ITEM: BOX BOUNDS pp pp pp
0.0000000000000000e+00 1.1000000000000000e+01
0.0000000000000000e+00 1.1002000000000001e+01
0.0000000000000000e+00 1.1000000000000000e+01
ITEM: ATOMS id type x y z 
10 1 4.60734 4.60521 4.59531 
11 1 3.08539 3.08735 3.08823 
12 1 3.79553 3.7956 3.79145 
46 1 0.76124 0.725424 0.726149 
47 1 2.27196 2.27274 2.27453 
48 1 1.57681 1.5607 1.56199 
19 1 4.52623 4.54006 6.24189 
20 1 3.00113 3.00027 7.7758 
21 1 3.70476 3.7105 7.06812 
31 1 0.676991 0.671856 10.0919 
32 1 2.19012 2.18874 8.58543 
33 1 1.48197 1.47884 9.29045 
16 1 4.52507 6.24774 4.54147 
17 1 2.99763 7.77788 3.00088 
18 1 3.70235 7.07193 3.71187 
25 1 0.680376 10.095 0.667415 
26 1 2.18942 8.58739 2.18702 
27 1 1.48317 9.29303 1.47579 
4 1 4.59891 6.17543 6.17604 
5 1 3.08436 7.68539 7.68695 
6 1 3.79333 6.97857 6.97965 
37 1 0.74313 10.0322 10.0271 
38 1 2.27346 8.49573 8.49506 
39 1 1.56742 9.20454 9.20187 
13 1 6.2138 4.56397 4.55648 
14 1 7.79752 3.00788 2.87619 
15 1 7.15614 3.50955 4.03049 
28 1 10.1253 0.64683 0.64982 
29 1 8.56271 2.27549 1.97991 
30 1 9.29744 1.5097 1.3545 
49 2 7.91914 2.43712 4.42371 
1 1 6.16446 4.61038 6.16766 
2 1 7.67939 3.09051 7.6863 
3 1 6.97375 3.79846 6.97892 
40 1 10.047 0.725042 10.0078 
41 1 8.49532 2.27283 8.49788 
42 1 9.2087 1.56117 9.19199 
7 1 6.17039 6.16632 4.59242 
8 1 7.68507 7.68867 3.08479 
9 1 6.9779 6.97794 3.78866 
43 1 10.0469 10.0136 0.726147 
44 1 8.49894 8.50175 2.27157 
45 1 9.21155 9.19775 1.56015 
22 1 6.23231 6.24842 6.24228 
23 1 7.7733 7.77306 7.77516 
24 1 7.06232 7.06963 7.06792 
34 1 10.1017 10.0975 10.0913 
35 1 8.58567 8.58462 8.58348 
36 1 9.29513 9.29261 9.28912 
ITEM: TIMESTEP
120
ITEM: NUMBER OF ATOMS
49
ITEM: BOX BOUNDS pp pp pp
0.0000000000000000e+00 1.1000000000000000e+01
0.0000000000000000e+00 1.1002000000000001e+01
0.0000000000000000e+00 1.1000000000000000e+01
ITEM: ATOMS id type x y z 
10 1 4.60734 4.60521 4.5953 
11 1 3.08538 3.08735 3.08823 
12 1 3.79554 3.79559 3.79144 
46 1 0.761225 0.72543 0.726149 
47 1 2.27198 2.27273 2.27452 
48 1 1.57678 1.56071 1.562 
19 1 4.52624 4.54003 6.24187 
20 1 3.00115 3.00023 7.77579 
21 1 3.70472 3.71058 7.06815 
31 1 0.676989 0.671856 10.0919 
32 1 2.19012 2.18874 8.58543 
33 1 1.48197 1.47884 9.29045 
16 1 4.52508 6.24775 4.54149 
17 1 2.99761 7.7779 3.00092 
18 1 3.7024 7.07188 3.71181 
25 1 0.680378 10.0951 0.667415 
26 1 2.18943 8.58739 2.18701 
27 1 1.48315 9.29303 1.4758 
4 1 4.5989 6.17544 6.17602 
5 1 3.08436 7.68539 7.68695 
6 1 3.79334 6.97856 6.97966 
37 1 0.743117 10.0322 10.0271 
38 1 2.27345 8.49571 8.49506 
39 1 1.56744 9.20456 9.20186 
13 1 6.21381 4.56394 4.55649 
14 1 7.79753 3.00784 2.87626 
15 1 7.15616 3.5095 4.03057 
28 1 10.1253 0.64688 0.649804 
29 1 8.56268 2.27555 1.97986 
30 1 9.29741 1.50975 1.35447 
49 2 7.91919 2.43706 4.42372 
1 1 6.16446 4.61038 6.16767 
2 1 7.67939 3.09051 7.6863 
3 1 6.97374 3.79846 6.97893 
40 1 10.047 0.725021 10.0078 
41 1 8.49532 2.27281 8.49785 
42 1 9.20872 1.5612 9.19204 
7 1 6.17039 6.16631 4.5924 
8 1 7.68507 7.68868 3.08478 
9 1 6.97792 6.97793 3.78865 
43 1 10.0469 10.0137 0.726156 
44 1 8.49896 8.50176 2.27156 
45 1 9.21155 9.19775 1.56015 
22 1 6.23232 6.24843 6.24226 
23 1 7.77329 7.77306 7.77516 
24 1 7.06233 7.06964 7.06792 
34 1 10.1017 10.0975 10.0913 
35 1 8.58568 8.58462 8.58347 
36 1 9.29513 9.2926 9.28912 
ITEM: TIMESTEP
122
ITEM: NUMBER OF ATOMS
49
ITEM: BOX BOUNDS pp pp pp
0.0000000000000000e+00 1.1000000000000000e+01
0.0000000000000000e+00 1.1002000000000001e+01
0.0000000000000000e+00 1.1000000000000000e+01
ITEM: ATOMS id type x y z 
10 1 4.60734 4.60521 4.5953 
11 1 3.08538 3.08735 3.08823 
12 1 3.79554 3.79559 3.79144 
46 1 0.761225 0.72543 0.726149 
47 1 2.27198 2.27273 2.27452 
48 1 1.57678 1.56071 1.562 
19 1 4.52624 4.54003 6.24187 
20 1 3.00115 3.00023 7.77579 
21 1 3.70472 3.71058 7.06815 
31 1 0.676988 0.671856 10.0919 
32 1 2.19012 2.18874 8.58543 
33 1 1.48197 1.47884 9.29045 
16 1 4.52508 6.24775 4.54149 
17 1 2.99761 7.7779 3.00092 
18 1 3.7024 7.07188 3.71181 
25 1 0.680378 10.0951 0.667415 
26 1 2.18943 8.58739 2.18701 
27 1 1.48315 9.29303 1.4758 
4 1 4.5989 6.17544 6.17602 
5 1 3.08436 7.68539 7.68695 
6 1 3.79334 6.97856 6.97966 
37 1 0.743117 10.0322 10.0271 
38 1 2.27345 8.49571 8.49506 
39 1 1.56744 9.20456 9.20186 
13 1 6.21381 4.56394 4.55649 
14 1 7.79753 3.00784 2.87626 
15 1 7.15616 3.5095 4.03057 
28 1 10.1253 0.646881 0.649804 
29 1 8.56267 2.27555 1.97986 
30 1 9.29741 1.50975 1.35447 
49 2 7.91919 2.43705 4.42372 
1 1 6.16446 4.61038 6.16767 
2 1 7.67939 3.09051 7.6863 
3 1 6.97374 3.79846 6.97893 
40 1 10.047 0.725021 10.0078 
41 1 8.49532 2.27281 8.49785 
42 1 9.20872 1.5612 9.19204 
7 1 6.17039 6.16631 4.5924 
8 1 7.68507 7.68868 3.08478 
9 1 6.97792 6.97793 3.78865 
43 1 10.0469 10.0137 0.726156 
44 1 8.49896 8.50176 2.27156 
45 1 9.21155 9.19775 1.56015 
22 1 6.23232 6.24843 6.24226 
23 1 7.77329 7.77306 7.77516 
24 1 7.06233 7.06964 7.06792 
34 1 10.1017 10.0975 10.0913 
35 1 8.58568 8.58462 8.58347 
36 1 9.29513 9.2926 9.28912 
ITEM: TIMESTEP
130
ITEM: NUMBER OF ATOMS
49
ITEM: BOX BOUNDS pp pp pp
-3.6051178048342254e-03 1.1003605117804835e+01
-3.4161867756162582e-03 1.1005416186775618e+01
-4.4000000000000003e-03 1.1004400000000004e+01
ITEM: ATOMS id type x y z 
10 1 4.60687 4.60474 4.59465 
11 1 3.08382 3.08588 3.08632 
12 1 3.79439 3.7945 3.79005 
46 1 0.758049 0.7224 0.722267 
47 1 2.26985 2.2707 2.27191 
48 1 1.57414 1.55821 1.5588 
19 1 4.52567 4.5395 6.24239 
20 1 2.99954 2.9987 7.77758 
21 1 3.7036 3.70952 7.06935 
31 1 0.673748 0.668765 10.0956 
32 1 2.18793 2.18665 8.58792 
33 1 1.47936 1.47638 9.29345 
16 1 4.52451 6.24814 4.54079 
17 1 2.99599 7.7793 2.99897 
18 1 3.70129 7.07278 3.71041 
25 1 0.677136 10.098 0.663468 
26 1 2.18723 8.58934 2.18434 
27 1 1.48054 9.29534 1.4726 
4 1 4.59839 6.17577 6.17647 
5 1 3.0828 7.68672 7.68867 
6 1 3.79219 6.97952 6.98086 
37 1 0.739933 10.0351 10.0308 
38 1 2.27131 8.4976 8.49748 
39 1 1.5648 9.20692 9.20487 
13 1 6.2142 4.56343 4.55587 
14 1 7.79904 3.00627 2.87419 
15 1 7.15716 3.50835 4.02948 
28 1 10.1284 0.643796 0.645834 
29 1 8.56469 2.27353 1.977 
30 1 9.29987 1.50734 1.35118 
49 2 7.92078 2.43515 4.42285 
1 1 6.16482 4.60991 6.1681 
2 1 7.6808 3.08905 7.68803 
3 1 6.97472 3.79737 6.98014 
40 1 10.0501 0.721989 10.0114 
41 1 8.49731 2.27078 8.50027 
42 1 9.2112 1.5587 9.19505 
7 1 6.17075 6.16662 4.59174 
8 1 7.68647 7.69001 3.08287 
9 1 6.97893 6.97887 3.78725 
43 1 10.05 10.0166 0.722275 
44 1 8.50095 8.50365 2.26895 
45 1 9.21404 9.2001 1.55694 
22 1 6.23273 6.24883 6.24279 
23 1 7.77475 7.77445 7.77695 
24 1 7.0633 7.07056 7.06912 
34 1 10.1048 10.1004 10.0951 
35 1 8.58773 8.58657 8.58596 
36 1 9.29759 9.29492 9.29213 
ITEM: TIMESTEP
140
ITEM: NUMBER OF ATOMS
49
ITEM: BOX BOUNDS pp pp pp
-4.0739162649951564e-03 1.1004073916264995e+01
-2.4855261241853175e-03 1.1004485526124183e+01
-9.4627807442156063e-03 1.1009462780744224e+01
ITEM: ATOMS id type x y z 
10 1 4.60743 4.6055 4.59444 
11 1 3.08378 3.08646 3.0843 
12 1 3.79405 3.79457 3.7882 
46 1 0.757084 0.722705 0.717375 
47 1 2.26926 2.27088 2.26859 
48 1 1.5735 1.5586 1.55488 
19 1 4.52612 4.54019 6.24254 
20 1 2.99967 2.99947 7.77934 
21 1 3.70372 3.71012 7.07048 
31 1 0.67268 0.668937 10.1005 
32 1 2.18745 2.18704 8.59094 
33 1 1.47928 1.47724 9.29672 
16 1 4.52499 6.24746 4.5404 
17 1 2.99611 7.77858 2.99703 
18 1 3.70145 7.0722 3.70905 
25 1 0.676065 10.0979 0.658346 
26 1 2.18676 8.58898 2.18108 
27 1 1.48043 9.29451 1.46915 
4 1 4.59896 6.17502 6.17642 
5 1 3.0828 7.68615 7.69051 
6 1 3.7918 6.9795 6.98241 
37 1 0.738976 10.0349 10.0355 
38 1 2.27069 8.49744 8.50058 
39 1 1.56419 9.20659 9.2086 
13 1 6.21372 4.56404 4.55591 
14 1 7.79928 3.00656 2.87204 
15 1 7.15683 3.50915 4.02865 
28 1 10.1293 0.644113 0.64071 
29 1 8.5651 2.274 1.97352 
30 1 9.29986 1.50832 1.34746 
49 2 7.92095 2.43572 4.42172 
1 1 6.16421 4.61069 6.16812 
2 1 7.68077 3.08964 7.68988 
3 1 6.9751 3.79746 6.98173 
40 1 10.051 0.722275 10.0161 
41 1 8.49789 2.27099 8.50334 
42 1 9.21184 1.55906 9.19872 
7 1 6.17022 6.16582 4.5915 
8 1 7.68649 7.68947 3.08085 
9 1 6.97927 6.97883 3.78539 
43 1 10.0509 10.0164 0.717378 
44 1 8.50158 8.50347 2.26561 
45 1 9.21464 9.19979 1.55303 
22 1 6.23226 6.24817 6.24294 
23 1 7.77459 7.77372 7.77871 
24 1 7.06315 7.07001 7.07025 
34 1 10.1058 10.1003 10.1 
35 1 8.58817 8.58621 8.58901 
36 1 9.29771 9.29407 9.29535 
ITEM: TIMESTEP
150
ITEM: NUMBER OF ATOMS
49
ITEM: BOX BOUNDS pp pp pp
-5.4536345930535218e-03 1.1005453634593055e+01
-2.8057277969044440e-03 1.1004805727796903e+01
-1.3522763292166734e-02 1.1013522763292178e+01
ITEM: ATOMS id type x y z 
10 1 4.60764 4.606 4.59427 
11 1 3.08335 3.08647 3.08262 
12 1 3.79337 3.79426 3.78681 
46 1 0.755362 0.721997 0.713379 
47 1 2.26803 2.27028 2.26576 
48 1 1.57238 1.55817 1.55184 
19 1 4.52631 4.54061 6.2426 
20 1 2.99944 2.99975 7.78058 
21 1 3.70344 3.71018 7.07153 
31 1 0.670952 0.668041 10.1045 
32 1 2.18652 2.18665 8.59336 
33 1 1.47839 1.47728 9.29934 
16 1 4.52523 6.24702 4.54015 
17 1 2.9959 7.77829 2.99563 
18 1 3.70116 7.07214 3.70788 
25 1 0.674279 10.0987 0.654234 
26 1 2.1858 8.58936 2.17851 
27 1 1.47958 9.29445 1.4663 
4 1 4.59929 6.17451 6.17629 
5 1 3.08235 7.68613 7.69197 
6 1 3.79119 6.97977 6.98368 
37 1 0.73731 10.0356 10.0394 
38 1 2.26948 8.49806 8.50322 
39 1 1.56302 9.20692 9.21146 
13 1 6.2135 4.56429 4.55591 
14 1 7.79988 3.00628 2.87044 
15 1 7.15703 3.50921 4.02794 
28 1 10.131 0.643361 0.636549 
29 1 8.56592 2.27378 1.97078 
30 1 9.30061 1.5084 1.34441 
49 2 7.92149 2.43567 4.42073 
1 1 6.16385 4.61121 6.16824 
2 1 7.68121 3.08966 7.69133 
3 1 6.97557 3.79716 6.9831 
40 1 10.0526 0.721531 10.0199 
41 1 8.49909 2.27039 8.50593 
42 1 9.21288 1.55868 9.20162 
7 1 6.16984 6.16541 4.59129 
8 1 7.68689 7.68944 3.07915 
9 1 6.97988 6.97916 3.78401 
43 1 10.0524 10.0172 0.713386 
44 1 8.50278 8.50405 2.26279 
45 1 9.21572 9.20018 1.54997 