ITEM: TIMESTEP
0
ITEM: NUMBER OF ATOMS
161
ITEM: BOX BOUNDS xy xz yz pp pp pp
-6.7755000000000001e+00 1.3552000000000000e+01 -6.7755000000000001e+00
0.0000000000000000e+00 1.1735510246683001e+01 0.0000000000000000e+00
0.0000000000000000e+00 2.2149999999999999e+01 0.0000000000000000e+00
ITEM: ATOMS id type x y z 
8 1 -2.486 5.297 9.849 
87 1 3.001 4.231 10.696 
90 1 2.733 5.481 9.824 
109 1 -2.486 5.297 0.765 
158 1 2.733 5.481 0.79 
11 1 4.24 4.139 20.131 
14 1 3.031 4.094 19.728 
18 1 1.299 5.827 18.554 
33 1 2.266 4.151 20.924 
43 1 4.343 3.96 21.647 
47 1 3.32 5.732 17.88 
52 1 4.24 4.139 12.633 
76 1 2.552 4.924 14.209 
85 1 4.343 3.96 11.117 
89 1 3.32 5.732 14.883 
91 1 1.036 5.037 11.84 
102 1 3.031 4.094 13.035 
105 1 1.299 5.827 14.209 
114 1 2.266 4.151 11.84 
150 1 2.552 4.924 18.554 
156 1 3.001 4.231 22.068 
159 1 1.036 5.037 20.924 
5 1 -5.049 10.63 8.653 
9 1 -3.317 8.897 7.479 
19 1 -1.707 7.414 10.572 
21 1 -2.66 8.795 10.993 
23 1 -3.31 7.532 6.805 
25 1 -4.284 10.573 9.849 
32 1 1.503 6.367 0.79 
36 1 -1.869 7.426 9.056 
38 1 -2.209 6.086 8.653 
54 1 0.3 8.576 10.696 
57 1 1.291 8.001 9.824 
60 1 -1.707 7.414 0.042 
65 1 -3.31 7.532 3.808 
78 1 -1.869 7.426 1.558 
80 1 -2.566 8.842 1.961 
84 1 -4.57 9.799 3.135 
99 1 -3.054 9.687 0.765 
100 1 -2.96 6.142 3.135 
107 1 -5.049 10.63 1.961 
110 1 -3.317 8.897 3.135 
111 1 0.642 5.929 10.696 
113 1 1.503 6.367 9.824 
119 1 -4.284 10.573 0.765 
127 1 -2.209 6.086 1.961 
131 1 -2.318 6.148 10.993 
138 1 1.291 8.001 0.79 
142 1 -2.566 8.842 8.653 
145 1 -4.57 9.799 7.479 
151 1 -5.019 10.493 10.993 
154 1 -3.054 9.687 9.849 
155 1 -2.96 6.142 7.479 
12 1 2.53 7.1 17.202 
17 1 0.468 9.427 20.924 
24 1 -3.52 8.357 11.865 
27 1 -0.31 7.31 21.647 
29 1 0.642 5.929 22.068 
31 1 1.292 7.192 17.88 
44 1 -0.148 7.298 20.131 
46 1 0.191 8.638 19.728 
51 1 -0.31 7.31 11.117 
53 1 2.53 7.1 15.561 
56 1 1.292 7.192 14.883 
63 1 -2.318 6.148 21.771 
66 1 -3.309 6.723 20.899 
70 1 -0.148 7.298 12.633 
72 1 0.548 5.882 13.035 
92 1 0.942 8.582 14.209 
95 1 -5.019 10.493 21.771 
98 1 -4.751 9.243 20.899 
104 1 0.468 9.427 11.84 
116 1 -2.66 8.795 21.771 
118 1 -3.52 8.357 20.899 
122 1 0.191 8.638 13.035 
133 1 -3.309 6.723 11.865 
136 1 0.3 8.576 22.068 
147 1 0.548 5.882 19.728 
153 1 -4.751 9.243 11.865 
160 1 0.942 8.582 18.554 
1 1 7.976 4.694 10.572 
4 1 9.274 4.77 10.993 
20 1 8.034 4.861 9.056 
42 1 9.55 5.41 7.479 
67 1 10.043 4.578 0.765 
77 1 7.976 4.694 0.042 
94 1 8.035 4.861 1.558 
96 1 9.278 4.635 1.961 
121 1 4.688 5.417 10.696 
130 1 9.55 5.41 3.135 
134 1 10.043 4.578 9.849 
152 1 9.278 4.635 8.653 
45 1 4.688 5.417 22.068 
55 1 4.788 5.329 13.035 
106 1 9.274 4.77 21.771 
137 1 4.788 5.329 19.728 
2 1 7.294 10.585 9.056 
3 1 9.004 7.624 6.127 
6 1 8.556 6.347 6.805 
16 1 2.314 8.72 0.79 
22 1 7.166 6.156 8.653 
26 1 7.226 8.565 7.479 
35 1 7.191 10.764 10.572 
37 1 6.846 9.307 10.993 
39 1 8.214 8.992 6.805 
41 1 6.677 7.002 9.849 
48 1 3.775 6.213 0.79 
61 1 7.294 10.585 1.558 
62 1 9.004 7.624 4.487 
64 1 6.747 9.395 1.961 
68 1 7.437 6.931 3.135 
71 1 4.29 8.493 10.696 
74 1 3.567 7.818 9.824 
81 1 8.556 6.347 3.808 
83 1 6.47 8.606 0.765 
93 1 7.191 10.764 0.042 
97 1 8.214 8.992 3.808 
101 1 2.261 9.954 10.696 
103 1 2.314 8.72 9.824 
117 1 7.166 6.156 1.961 
120 1 7.226 8.565 3.135 
123 1 3.775 6.213 9.824 
129 1 6.677 7.002 0.765 
132 1 6.747 9.395 8.653 
135 1 7.437 6.931 7.479 
141 1 7.244 6.231 10.993 
144 1 6.47 8.606 9.849 
148 1 3.567 7.818 0.79 
161 2 7.294 10.585 7.706 
7 1 9.22 6.004 11.865 
10 1 3.558 10.029 21.647 
13 1 2.261 9.954 22.068 
15 1 2.978 8.376 17.88 
28 1 3.5 9.862 20.131 
30 1 4.369 8.568 19.728 
34 1 4.308 6.159 18.554 
40 1 7.76 8.511 11.865 
49 1 4.857 7.722 20.924 
50 1 1.984 9.314 18.554 
58 1 1.491 10.146 11.84 
59 1 4.097 7.793 14.209 
69 1 3.558 10.029 11.117 
73 1 2.978 8.376 14.883 
75 1 5.064 6.118 11.84 
79 1 7.244 6.231 21.771 
82 1 7.967 6.906 20.899 
86 1 3.5 9.862 12.633 
88 1 2.256 10.089 13.035 
108 1 9.22 6.004 20.899 
112 1 4.369 8.568 13.035 
115 1 4.308 6.159 14.209 
124 1 4.857 7.722 11.84 
125 1 1.984 9.314 14.209 
126 1 6.846 9.307 21.771 
128 1 7.76 8.511 20.899 
139 1 1.491 10.146 20.924 
140 1 4.097 7.793 18.554 
143 1 7.967 6.906 11.865 
146 1 4.29 8.493 22.068 
149 1 5.064 6.118 20.924 
157 1 2.256 10.089 19.728 
ITEM: TIMESTEP
10
ITEM: NUMBER OF ATOMS
161
ITEM: BOX BOUNDS xy xz yz pp pp pp
-6.7755000000000001e+00 1.3552000000000000e+01 -6.7755000000000001e+00
0.0000000000000000e+00 1.1735510246683001e+01 0.0000000000000000e+00
0.0000000000000000e+00 2.2149999999999999e+01 0.0000000000000000e+00
ITEM: ATOMS id type x y z 
8 1 -2.41046 5.37098 9.83072 
87 1 2.96312 4.34585 10.6392 
90 1 2.62502 5.52495 9.79093 
109 1 -2.4165 5.37691 0.779139 
158 1 2.62491 5.52951 0.825276 
11 1 4.26867 4.22405 20.143 
14 1 2.9122 4.15595 19.6917 
18 1 1.29695 5.85161 18.6397 
33 1 2.11477 4.25052 20.9135 
43 1 4.30847 4.16212 21.5543 
47 1 3.3245 5.80399 17.7832 
52 1 4.26813 4.23105 12.6201 
76 1 2.43268 4.96255 14.1663 
85 1 4.30789 4.15478 11.205 
89 1 3.32188 5.80697 14.9788 
91 1 0.980318 5.09017 11.852 
102 1 2.91085 4.1546 13.0779 
105 1 1.29915 5.84529 14.1207 
114 1 2.114 4.25045 11.8458 
150 1 2.4305 4.95624 18.598 
156 1 2.96268 4.34007 22.1255 
159 1 0.979934 5.08763 20.9096 
5 1 -4.84017 10.5915 8.55522 
9 1 -3.27232 8.87871 7.5231 
19 1 -1.76199 7.52505 10.5557 
21 1 -2.57917 8.73837 10.8994 
23 1 -3.30303 7.53831 6.86225 
25 1 -4.12293 10.4667 9.80101 
32 1 1.53681 6.36361 0.788524 
36 1 -1.88527 7.52911 9.08864 
38 1 -2.1556 6.21925 8.66106 
54 1 0.310029 8.50245 10.677 
57 1 1.35502 7.94346 9.7807 
60 1 -1.76122 7.51888 0.0568132 
65 1 -3.29225 7.56381 3.72701 
78 1 -1.89192 7.54145 1.53727 
80 1 -2.55103 8.78269 1.89792 
84 1 -4.44304 9.77185 3.09774 
99 1 -2.99583 9.63277 0.779592 
100 1 -2.92672 6.25932 3.18812 
107 1 -4.94036 10.5774 1.98767 
110 1 -3.31123 8.8373 3.06112 
111 1 0.576388 5.96836 10.7945 
113 1 1.536 6.36309 9.82692 
119 1 -4.12765 10.475 0.770837 
127 1 -2.16134 6.21094 1.94812 
131 1 -2.3235 6.21552 11.0176 
138 1 1.35521 7.94365 0.833404 
142 1 -2.51783 8.76278 8.75074 
145 1 -4.4247 9.71271 7.5005 
151 1 -4.93162 10.4404 11.0585 
154 1 -2.98862 9.64617 9.85566 
155 1 -2.93586 6.27435 7.41602 
12 1 2.6022 7.04282 17.1199 
17 1 0.391896 9.3529 20.9131 
24 1 -3.55963 8.36304 11.8618 
27 1 -0.254712 7.2065 21.6265 
29 1 0.573562 5.97226 21.9675 
31 1 1.26819 7.15713 17.9298 
44 1 -0.116995 7.18242 20.1583 
46 1 0.140666 8.50297 19.7355 
51 1 -0.257176 7.20861 11.1222 
53 1 2.60634 7.04018 15.6408 
56 1 1.26725 7.15527 14.8391 
63 1 -2.32316 6.21044 21.758 
66 1 -3.37114 6.78251 20.8545 
70 1 -0.12799 7.17702 12.6143 
72 1 0.537728 5.935 12.9704 
92 1 0.911828 8.48393 14.2591 
95 1 -4.98659 10.38 21.7137 
98 1 -4.64432 9.19724 20.8638 
104 1 0.38891 9.35827 11.8459 
116 1 -2.59151 8.75547 21.8725 
118 1 -3.5525 8.36198 20.8982 
122 1 0.139653 8.51566 13.0363 
133 1 -3.38389 6.78775 11.9079 
136 1 0.309622 8.50343 22.0843 
147 1 0.529031 5.95074 19.7952 
153 1 -4.64254 9.19796 11.8859 
160 1 0.911615 8.4781 18.5044 
1 1 7.87761 4.93825 10.5328 
4 1 9.16904 4.80166 11.0162 
20 1 7.86408 4.91759 9.08357 
42 1 9.47429 5.43356 7.431 
67 1 9.96472 4.56944 0.761359 
77 1 7.86366 4.93854 0.077392 
94 1 7.86067 4.93046 1.54866 
96 1 9.19991 4.67365 2.01143 
121 1 4.69097 5.47101 10.6679 
130 1 9.46258 5.44646 3.17883 
134 1 9.95845 4.5623 9.8627 
152 1 9.19476 4.66853 8.60316 
45 1 4.68994 5.46584 22.0957 
55 1 4.80719 5.45802 13.0691 
106 1 9.1788 4.79555 21.7372 
137 1 4.80987 5.46074 19.6932 
2 1 7.204 10.6 9.09799 
3 1 8.96834 7.67523 6.08066 
6 1 8.53233 6.34884 6.83142 
16 1 2.35478 8.67956 0.842789 
22 1 7.15129 6.18155 8.72544 
26 1 7.22677 8.446 7.46727 
35 1 7.23833 10.5362 10.5332 
37 1 6.80558 9.27025 11.0542 
39 1 8.18396 8.92463 6.8589 
41 1 6.70368 7.00027 9.83364 
48 1 3.8067 6.31107 0.800159 
61 1 7.26709 10.4913 1.53682 
62 1 8.94017 7.7035 4.52216 
64 1 6.72488 9.26987 1.99343 
68 1 7.41158 6.97802 3.05543 
71 1 4.29478 8.539 10.7758 
74 1 3.62041 7.75127 9.81455 
81 1 8.54931 6.35523 3.77265 
83 1 6.54085 8.44335 0.77444 
93 1 7.22834 10.5629 0.142833 
97 1 8.19273 8.92942 3.90502 
101 1 2.34865 9.92157 10.6632 
103 1 2.35821 8.67949 9.77195 
117 1 7.15098 6.17517 1.89124 
120 1 7.19405 8.42133 3.06219 
123 1 3.80713 6.31509 9.81614 
129 1 6.70085 7.04011 0.809269 
132 1 6.63956 9.18802 8.59377 
135 1 7.41705 6.88769 7.55822 
141 1 7.24134 6.17589 10.9141 
144 1 6.52762 8.41268 9.79689 
148 1 3.6212 7.75278 0.803753 
161 2 7.18928 10.7654 7.70678 
7 1 9.15915 6.05777 11.9182 
10 1 3.67468 9.78897 21.6225 
13 1 2.35039 9.92404 22.1029 
15 1 2.98593 8.35843 17.9075 
28 1 3.6747 9.80026 20.1292 
30 1 4.386 8.54047 19.7973 
34 1 4.33463 6.30382 18.6255 
40 1 7.72391 8.38458 11.8869 
49 1 4.83073 7.68476 20.8808 
50 1 2.08521 9.26573 18.5093 
58 1 1.58103 10.1623 11.8372 
59 1 4.12604 7.74927 14.1288 
69 1 3.67684 9.79385 11.1459 
73 1 2.98648 8.35899 14.8591 
75 1 4.99081 6.28612 11.8472 
79 1 7.23714 6.17249 21.8548 
82 1 7.91239 6.97033 20.8823 
86 1 3.66956 9.79274 12.6312 
88 1 2.33538 10.0417 13.093 
108 1 9.17665 6.0425 20.8445 
112 1 4.3842 8.54608 12.9648 
115 1 4.3302 6.30262 14.14 
124 1 4.82837 7.68462 11.88 
125 1 2.08484 9.26621 14.2526 
126 1 6.84194 9.26287 21.7393 
128 1 7.72979 8.41403 20.8858 
139 1 1.57531 10.1603 20.9253 
140 1 4.12305 7.75155 18.633 
143 1 7.92545 6.96472 11.8639 
146 1 4.29705 8.54469 21.9875 
149 1 4.99214 6.28397 20.9179 
157 1 2.32835 10.0411 19.6685 
ITEM: TIMESTEP
20
ITEM: NUMBER OF ATOMS
161
ITEM: BOX BOUNDS xy xz yz pp pp pp
-6.7755000000000001e+00 1.3552000000000000e+01 -6.7755000000000001e+00
0.0000000000000000e+00 1.1735510246683001e+01 0.0000000000000000e+00
0.0000000000000000e+00 2.2149999999999999e+01 0.0000000000000000e+00
ITEM: ATOMS id type x y z 
8 1 -2.42304 5.39701 9.84729 
87 1 2.95682 4.33906 10.6491 
90 1 2.64452 5.53548 9.7806 
109 1 -2.42605 5.39127 0.7677 
158 1 2.64198 5.53491 0.836646 
11 1 4.25644 4.23015 20.1327 
14 1 2.87994 4.17505 19.6883 
18 1 1.28105 5.87048 18.6203 
33 1 2.10425 4.26734 20.9043 
43 1 4.29148 4.18429 21.5816 
47 1 3.30379 5.80414 17.7974 
52 1 4.25429 4.2349 12.6255 
76 1 2.44336 4.97635 14.1892 
85 1 4.28816 4.1867 11.1796 
89 1 3.30394 5.80678 14.9682 
91 1 0.962311 5.09187 11.8491 
102 1 2.88117 4.16999 13.075 
105 1 1.28225 5.87344 14.1436 
114 1 2.10773 4.26389 11.8597 
150 1 2.44638 4.9767 18.5756 
156 1 2.95625 4.34261 22.1108 
159 1 0.96448 5.09453 20.9129 
5 1 -4.83873 10.5855 8.57415 
9 1 -3.23661 8.86057 7.52857 
19 1 -1.75168 7.50799 10.5678 
21 1 -2.587 8.77 10.9469 
23 1 -3.30533 7.55399 6.85144 
25 1 -4.12319 10.4537 9.80189 
32 1 1.50765 6.3809 0.781937 
36 1 -1.85852 7.53524 9.07214 
38 1 -2.15561 6.22405 8.64352 
54 1 0.320449 8.49897 10.679 
57 1 1.3688 7.94552 9.7859 
60 1 -1.75297 7.51238 0.0563241 
65 1 -3.30446 7.5577 3.75312 
78 1 -1.86972 7.54557 1.54587 
80 1 -2.52833 8.79707 1.89926 
84 1 -4.46211 9.75664 3.11572 
99 1 -2.98056 9.62936 0.776526 
100 1 -2.92009 6.26986 3.1786 
107 1 -4.89648 10.5557 1.99514 
110 1 -3.30276 8.84835 3.06698 
111 1 0.579284 5.94819 10.7465 
113 1 1.5081 6.37919 9.83036 
119 1 -4.12381 10.4606 0.78151 
127 1 -2.15611 6.23024 1.96562 
131 1 -2.33986 6.22211 11.01 
138 1 1.36942 7.94504 0.828455 
142 1 -2.50866 8.7905 8.7328 
145 1 -4.41328 9.72266 7.51379 
151 1 -4.96282 10.3897 11.0362 
154 1 -2.96674 9.63592 9.84492 
155 1 -2.9249 6.27201 7.43404 
12 1 2.58783 7.03262 17.1496 
17 1 0.407518 9.33029 20.9211 
24 1 -3.52767 8.35341 11.8604 
27 1 -0.264522 7.21289 21.6332 
29 1 0.578922 5.9472 22.0165 
31 1 1.29217 7.16064 17.9218 
44 1 -0.143463 7.1811 20.1432 
46 1 0.142577 8.49536 19.72 
51 1 -0.264384 7.21159 11.1321 
53 1 2.58951 7.03068 15.6152 
56 1 1.29241 7.16145 14.8403 
63 1 -2.33705 6.22507 21.755 
66 1 -3.38607 6.77653 20.8615 
70 1 -0.143624 7.18041 12.6222 
72 1 0.514979 5.92759 12.9751 
92 1 0.905743 8.44513 14.2557 
95 1 -4.97665 10.3857 21.7233 
98 1 -4.66223 9.1872 20.8524 
104 1 0.407313 9.331 11.8411 
116 1 -2.59651 8.77681 21.8227 
118 1 -3.52434 8.34738 20.9036 
122 1 0.140483 8.49569 13.0437 
133 1 -3.38826 6.77686 11.9037 
136 1 0.320221 8.49743 22.0837 
147 1 0.514622 5.92633 19.7927 
153 1 -4.66613 9.19483 11.8983 
160 1 0.906923 8.44338 18.5073 
1 1 7.85684 4.92608 10.5318 
4 1 9.15976 4.81916 11.0172 
20 1 7.84787 4.9236 9.06782 
42 1 9.47312 5.43618 7.43161 
67 1 9.95579 4.58322 0.76328 
77 1 7.85683 4.94507 0.0869667 
94 1 7.84513 4.93554 1.5445 
96 1 9.17382 4.6768 1.99521 
121 1 4.69495 5.48624 10.6644 
130 1 9.46446 5.451 3.18022 
134 1 9.95901 4.57737 9.85725 
152 1 9.17349 4.67319 8.61706 
45 1 4.69297 5.48651 22.099 
55 1 4.82329 5.50316 13.0621 
106 1 9.15444 4.82237 21.7382 
137 1 4.8242 5.50456 19.703 
2 1 7.19966 10.5659 9.07136 
3 1 8.96404 7.66581 6.06613 
6 1 8.51629 6.36362 6.82639 
16 1 2.3687 8.66173 0.842276 
22 1 7.13071 6.17636 8.71627 
26 1 7.2166 8.43719 7.48501 
35 1 7.25771 10.5181 10.5602 
37 1 6.85037 9.23754 11.0336 
39 1 8.15172 8.90046 6.8408 
41 1 6.69995 6.99756 9.83278 
48 1 3.7968 6.33835 0.815549 
61 1 7.27501 10.4939 1.5554 
62 1 8.94089 7.7065 4.50095 
64 1 6.70715 9.2188 1.98518 
68 1 7.41254 6.94593 3.056 
71 1 4.30737 8.5084 10.762 
74 1 3.61945 7.75962 9.82051 
81 1 8.52415 6.38699 3.78958 
83 1 6.53689 8.43024 0.797585 
93 1 7.25109 10.5267 0.107125 
97 1 8.21998 8.93291 3.88759 
101 1 2.37867 9.89522 10.6687 
103 1 2.37011 8.66191 9.77148 
117 1 7.12368 6.18314 1.89913 
120 1 7.18545 8.42559 3.08107 
123 1 3.7966 6.33794 9.79942 
129 1 6.70814 7.00969 0.792144 
132 1 6.6558 9.16058 8.62311 
135 1 7.41692 6.88778 7.55575 
141 1 7.21818 6.21398 10.9252 
144 1 6.53672 8.42242 9.78958 
148 1 3.62004 7.76095 0.794759 
161 2 7.18744 10.8011 7.69069 
7 1 9.15684 6.07368 11.9252 
10 1 3.68483 9.78669 21.6087 
13 1 2.37691 9.89558 22.0983 
15 1 3.01406 8.32578 17.886 
28 1 3.69207 9.78969 20.1409 
30 1 4.40826 8.54131 19.7862 
34 1 4.33868 6.30013 18.6064 
40 1 7.7298 8.38881 11.891 
49 1 4.82886 7.71346 20.8986 
50 1 2.07295 9.26047 18.5051 
58 1 1.57699 10.1428 11.8419 
59 1 4.12499 7.7795 14.1299 
69 1 3.68798 9.78942 11.1556 
73 1 3.01317 8.32641 14.8761 
75 1 4.9981 6.29501 11.8739 
79 1 7.22346 6.21515 21.8355 
82 1 7.91476 6.96384 20.8944 
86 1 3.68543 9.78504 12.6216 
88 1 2.36087 10.0416 13.0742 
108 1 9.16439 6.06174 20.8463 
112 1 4.40744 8.54069 12.974 
115 1 4.33957 6.30085 14.1578 
124 1 4.8251 7.7162 11.8647 
125 1 2.07525 9.26184 14.2541 
126 1 6.8367 9.23989 21.7366 
128 1 7.7386 8.38607 20.8735 
139 1 1.57386 10.1416 20.9253 
140 1 4.12666 7.77765 18.633 
143 1 7.91449 6.95945 11.8703 
146 1 4.30688 8.51008 22.0064 
149 1 4.99598 6.29292 20.8903 
157 1 2.35707 10.044 19.687 
ITEM: TIMESTEP
30
ITEM: NUMBER OF ATOMS
161
ITEM: BOX BOUNDS xy xz yz pp pp pp
-6.7755000000000001e+00 1.3552000000000000e+01 -6.7755000000000001e+00
0.0000000000000000e+00 1.1735510246683001e+01 0.0000000000000000e+00
0.0000000000000000e+00 2.2149999999999999e+01 0.0000000000000000e+00
ITEM: ATOMS id type x y z 
8 1 -2.44507 5.4168 9.83799 
87 1 2.93984 4.36476 10.6534 
90 1 2.6449 5.54003 9.77453 
109 1 -2.44481 5.41967 0.77096 
158 1 2.64429 5.54139 0.841526 
11 1 4.24223 4.25429 20.123 
14 1 2.86715 4.20701 19.6962 
18 1 1.26264 5.86746 18.6084 
33 1 2.07731 4.28645 20.8968 
43 1 4.27114 4.22149 21.578 
47 1 3.3097 5.8019 17.7948 
52 1 4.23969 4.25612 12.6393 
76 1 2.43371 4.99503 14.1999 
85 1 4.27117 4.22114 11.1843 
89 1 3.30901 5.80087 14.969 
91 1 0.936706 5.11246 11.8315 
102 1 2.86784 4.20661 13.0675 
105 1 1.26447 5.86941 14.1553 
114 1 2.07871 4.28459 11.864 
150 1 2.43295 4.99692 18.5633 
156 1 2.94112 4.36521 22.1103 
159 1 0.93694 5.11369 20.9322 
5 1 -4.82258 10.5688 8.57062 
9 1 -3.22167 8.85602 7.52902 
19 1 -1.75061 7.51649 10.5642 
21 1 -2.57177 8.80026 10.9682 
23 1 -3.30445 7.55706 6.8522 
25 1 -4.1145 10.421 9.79006 
32 1 1.49571 6.38872 0.787687 
36 1 -1.83635 7.56054 9.07039 
38 1 -2.15352 6.24408 8.64027 
54 1 0.32775 8.48344 10.6739 
57 1 1.37438 7.93394 9.78717 
60 1 -1.7519 7.5232 0.0590933 
65 1 -3.29639 7.56684 3.76468 
78 1 -1.8505 7.56052 1.54186 
80 1 -2.49526 8.81411 1.91092 
84 1 -4.44772 9.73571 3.12262 
99 1 -2.95504 9.61112 0.756083 
100 1 -2.92892 6.28479 3.16706 
107 1 -4.88435 10.5221 1.98769 
110 1 -3.2856 8.8542 3.07536 
111 1 0.559012 5.92738 10.7162 
113 1 1.49481 6.38857 9.82635 
119 1 -4.09595 10.4395 0.78627 
127 1 -2.14936 6.24727 1.97387 
131 1 -2.34836 6.24251 11.0173 
138 1 1.37331 7.93456 0.826091 
142 1 -2.48065 8.8049 8.73111 
145 1 -4.40777 9.70153 7.52028 
151 1 -4.95224 10.3631 11.0245 
154 1 -2.94577 9.60641 9.84534 
155 1 -2.93127 6.28663 7.44651 
12 1 2.58891 7.03342 17.155 
17 1 0.425509 9.30384 20.9148 
24 1 -3.51266 8.33723 11.8644 
27 1 -0.266026 7.20126 21.6308 
29 1 0.556262 5.92791 22.0472 
31 1 1.28668 7.14857 17.9068 
44 1 -0.166163 7.16507 20.1447 
46 1 0.13773 8.47453 19.7106 
51 1 -0.267072 7.20006 11.1342 
53 1 2.58727 7.03366 15.6079 
56 1 1.28554 7.14965 14.8578 
63 1 -2.34579 6.24113 21.7508 
66 1 -3.3913 6.78933 20.8633 
70 1 -0.164473 7.16437 12.6207 
72 1 0.479547 5.91168 12.9839 
92 1 0.918655 8.42866 14.2451 
95 1 -4.9593 10.3592 21.7233 
98 1 -4.66241 9.18274 20.8456 
104 1 0.426465 9.30522 11.85 
116 1 -2.57525 8.79611 21.7923 
118 1 -3.51199 8.33456 20.8994 
122 1 0.136674 8.47506 13.0527 
133 1 -3.39291 6.78833 11.9013 
136 1 0.328102 8.48207 22.089 
147 1 0.479934 5.91163 19.7807 
153 1 -4.66174 9.1748 11.9156 
160 1 0.917772 8.42691 18.5177 
1 1 7.8095 4.9352 10.5316 
4 1 9.13178 4.86313 11.0197 
20 1 7.82006 4.9256 9.0745 
42 1 9.46626 5.4456 7.44416 
67 1 9.94774 4.60718 0.76558 
77 1 7.81444 4.94848 0.0804364 
94 1 7.81383 4.93937 1.54444 
96 1 9.15191 4.69471 1.99921 
121 1 4.68545 5.51558 10.6669 
130 1 9.45849 5.46391 3.17075 
134 1 9.95194 4.60442 9.84568 
152 1 9.15555 4.68824 8.62141 
45 1 4.6859 5.51406 22.0983 
55 1 4.81631 5.52848 13.0584 
106 1 9.13217 4.85629 21.7442 
137 1 4.81685 5.52823 19.7037 
2 1 7.18931 10.552 9.04609 
3 1 8.9662 7.65627 6.06316 
6 1 8.51888 6.37514 6.82139 
16 1 2.38414 8.65348 0.845983 
22 1 7.09897 6.16227 8.70082 
26 1 7.21149 8.4272 7.48835 
35 1 7.27428 10.4859 10.5684 
37 1 6.85257 9.21488 11.0275 
39 1 8.14022 8.88724 6.83367 
41 1 6.68741 6.97445 9.83111 
48 1 3.79899 6.34216 0.829682 
61 1 7.28825 10.474 1.56965 
62 1 8.93838 7.70329 4.48684 
64 1 6.7123 9.19619 1.97974 
68 1 7.38777 6.93734 3.06537 
71 1 4.32332 8.50572 10.7515 
74 1 3.6263 7.77168 9.80027 
81 1 8.5179 6.39831 3.79933 
83 1 6.5248 8.40676 0.803899 
93 1 7.26997 10.4916 0.118609 
97 1 8.21055 8.94647 3.88261 
101 1 2.40391 9.86291 10.6751 
103 1 2.38397 8.65392 9.76899 
117 1 7.08611 6.16986 1.91801 
120 1 7.18255 8.41269 3.09825 
123 1 3.80039 6.34157 9.78515 
129 1 6.69318 6.98834 0.777391 
132 1 6.66544 9.13098 8.62393 
135 1 7.40118 6.88433 7.552 
141 1 7.21146 6.2125 10.9302 
144 1 6.53551 8.40871 9.79021 
148 1 3.62594 7.77077 0.814607 
161 2 7.20422 10.8504 7.70308 
7 1 9.14927 6.06746 11.9198 
10 1 3.72656 9.78845 21.6119 
13 1 2.40228 9.86393 22.0913 
15 1 3.02196 8.31436 17.8754 
28 1 3.72321 9.78474 20.1401 
30 1 4.44474 8.553 19.772 
34 1 4.34569 6.31209 18.5919 
40 1 7.74328 8.37578 11.913 
49 1 4.84094 7.73766 20.9096 
50 1 2.08178 9.24559 18.5118 
58 1 1.58586 10.1157 11.8452 
59 1 4.14719 7.78652 14.1422 
69 1 3.72866 9.79217 11.152 
73 1 3.02337 8.31599 14.8886 
75 1 5.00811 6.31744 11.8808 
79 1 7.2097 6.21661 21.8268 
82 1 7.90812 6.95294 20.8746 
86 1 3.71845 9.78362 12.6199 
88 1 2.38112 10.0212 13.0768 
108 1 9.15202 6.06839 20.8416 
112 1 4.44411 8.55289 12.9919 
115 1 4.34566 6.31403 14.1722 
124 1 4.84115 7.73497 11.8529 
125 1 2.08187 9.24598 14.2483 
126 1 6.84725 9.2099 21.7366 
128 1 7.73602 8.38138 20.8578 
139 1 1.58393 10.1161 20.9192 
140 1 4.14717 7.78709 18.6216 
143 1 7.90129 6.95127 11.8887 
146 1 4.32232 8.50604 22.0132 
149 1 5.00724 6.31695 20.8819 
157 1 2.38056 10.0234 19.6863 
ITEM: TIMESTEP
40
ITEM: NUMBER OF ATOMS
161
ITEM: BOX BOUNDS xy xz yz pp pp pp
-6.7755000000000001e+00 1.3552000000000000e+01 -6.7755000000000001e+00
0.0000000000000000e+00 1.1735510246683001e+01 0.0000000000000000e+00
0.0000000000000000e+00 2.2149999999999999e+01 0.0000000000000000e+00
ITEM: ATOMS id type x y z 
8 1 -2.4542 5.45476 9.83977 
87 1 2.92714 4.39472 10.6629 
90 1 2.6333 5.56429 9.75596 
109 1 -2.45782 5.45349 0.778204 
158 1 2.63203 5.56291 0.858094 
11 1 4.2259 4.29152 20.1147 
14 1 2.84039 4.24268 19.6949 
18 1 1.23419 5.86643 18.5955 
33 1 2.05644 4.3157 20.9059 
43 1 4.25839 4.24826 21.564 
47 1 3.3121 5.80584 17.795 
52 1 4.22596 4.2915 12.6447 
76 1 2.41422 5.00792 14.2064 
85 1 4.25689 4.24816 11.1999 
89 1 3.31299 5.80536 14.9687 
91 1 0.898981 5.12061 11.8292 
102 1 2.83804 4.24093 13.0677 
105 1 1.23588 5.86667 14.1663 
114 1 2.05945 4.31452 11.8578 
150 1 2.41746 5.00659 18.5572 
156 1 2.92721 4.39715 22.1014 
159 1 0.898879 5.12308 20.934 
5 1 -4.83037 10.5493 8.56393 
9 1 -3.20405 8.85267 7.53101 
19 1 -1.75014 7.55028 10.5673 
21 1 -2.53829 8.79829 10.9791 
23 1 -3.30552 7.56084 6.8493 
25 1 -4.10536 10.3831 9.78563 
32 1 1.48075 6.38513 0.807619 
36 1 -1.80229 7.57679 9.06859 
38 1 -2.13805 6.2683 8.64746 
54 1 0.336494 8.46544 10.676 
57 1 1.37945 7.92872 9.78349 
60 1 -1.75101 7.54974 0.0496851 
65 1 -3.29875 7.56559 3.76592 
78 1 -1.82662 7.58395 1.54922 
80 1 -2.45527 8.83052 1.91168 
84 1 -4.43086 9.72823 3.12741 
99 1 -2.91543 9.60298 0.753258 
100 1 -2.92941 6.29442 3.16267 
107 1 -4.85646 10.4914 1.98641 
110 1 -3.25701 8.85453 3.08761 
111 1 0.519413 5.93066 10.6998 
113 1 1.48085 6.38445 9.80628 
119 1 -4.0774 10.4118 0.777775 
127 1 -2.13763 6.26935 1.96762 
131 1 -2.35587 6.25641 11.015 
138 1 1.37915 7.9278 0.830665 
142 1 -2.44281 8.81841 8.71729 
145 1 -4.40465 9.67506 7.51465 
151 1 -4.93668 10.3258 11.0201 
154 1 -2.9288 9.60757 9.85129 
155 1 -2.93322 6.28744 7.45152 
12 1 2.59968 7.01064 17.1531 
17 1 0.438949 9.26692 20.9065 
24 1 -3.49546 8.33754 11.883 
27 1 -0.267038 7.17601 21.6373 
29 1 0.519463 5.92822 22.0656 
31 1 1.28741 7.15054 17.9025 
44 1 -0.191405 7.14078 20.1391 
46 1 0.127935 8.45068 19.7152 
51 1 -0.266541 7.17378 11.1274 
53 1 2.59977 7.01063 15.6114 
56 1 1.28525 7.14993 14.8603 
63 1 -2.35346 6.25982 21.7491 
66 1 -3.39608 6.79314 20.8568 
70 1 -0.190499 7.14035 12.6256 
72 1 0.442708 5.89517 12.9899 
92 1 0.921392 8.41407 14.2429 
95 1 -4.94846 10.3344 21.7307 
98 1 -4.65089 9.1559 20.8244 
104 1 0.439881 9.26771 11.857 
116 1 -2.53714 8.79431 21.7735 
118 1 -3.49832 8.34097 20.8789 
122 1 0.128635 8.45138 13.0488 
133 1 -3.3972 6.79542 11.9062 
136 1 0.335521 8.46473 22.0878 
147 1 0.44068 5.89419 19.777 
153 1 -4.64305 9.15679 11.9298 
160 1 0.922344 8.41365 18.5202 
1 1 7.76513 4.90893 10.5358 
4 1 9.10514 4.87844 11.0061 
20 1 7.78772 4.92207 9.06375 
42 1 9.45601 5.45771 7.45183 
67 1 9.92294 4.63891 0.770769 
77 1 7.76755 4.92834 0.0777691 
94 1 7.77705 4.94817 1.55217 
96 1 9.11726 4.71557 1.98836 
121 1 4.6724 5.54113 10.6702 
130 1 9.44521 5.47831 3.16394 
134 1 9.92468 4.63443 9.85396 
152 1 9.11929 4.70245 8.62481 
45 1 4.67002 5.54089 22.0958 
55 1 4.81585 5.55747 13.0642 
106 1 9.10171 4.88419 21.7541 
137 1 4.81575 5.55547 19.6998 
2 1 7.18129 10.5147 9.02801 
3 1 8.95953 7.67234 6.06012 
6 1 8.51482 6.38002 6.82284 
16 1 2.39883 8.64283 0.850074 
22 1 7.05538 6.13883 8.67973 
26 1 7.19541 8.40904 7.47685 
35 1 7.28737 10.4486 10.5435 
37 1 6.8655 9.19179 11.0473 
39 1 8.13997 8.87549 6.83164 
41 1 6.66116 6.95114 9.82836 
48 1 3.79994 6.3553 0.849852 
61 1 7.3009 10.4419 1.57396 
62 1 8.92638 7.72956 4.48538 
64 1 6.71141 9.16719 1.98656 
68 1 7.36696 6.92697 3.08062 
71 1 4.34914 8.50409 10.7357 
74 1 3.64733 7.77802 9.77298 
81 1 8.51287 6.4026 3.79021 
83 1 6.51552 8.38591 0.79912 
93 1 7.29116 10.4541 0.138882 
97 1 8.20959 8.94389 3.88019 
101 1 2.43403 9.83431 10.6866 
103 1 2.39838 8.64251 9.76455 
117 1 7.04268 6.15594 1.93019 
120 1 7.16205 8.39509 3.10875 
123 1 3.79793 6.35555 9.764 
129 1 6.66653 6.96618 0.792946 
132 1 6.67912 9.09673 8.64845 
135 1 7.38475 6.87182 7.53902 
141 1 7.18126 6.22162 10.9474 
144 1 6.52259 8.37822 9.7938 
148 1 3.64747 7.77919 0.840719 
161 2 7.25775 10.9586 7.71137 
7 1 9.13065 6.08531 11.9294 
10 1 3.77655 9.81398 21.6128 
13 1 2.433 9.83437 22.0774 
15 1 3.0264 8.30977 17.8774 
28 1 3.75302 9.77314 20.1376 
30 1 4.48737 8.56896 19.7528 
34 1 4.36386 6.33171 18.5759 
40 1 7.73692 8.36863 11.9271 
49 1 4.86375 7.75754 20.8989 
50 1 2.09854 9.2291 18.5198 
58 1 1.61248 10.0817 11.8485 
59 1 4.1692 7.79731 14.1566 
69 1 3.7775 9.81392 11.1488 
73 1 3.02684 8.31003 14.887 
75 1 5.01679 6.33918 11.8777 
79 1 7.1867 6.21867 21.8095 
82 1 7.8879 6.94619 20.845 
86 1 3.75248 9.77268 12.6272 
88 1 2.41978 9.99789 13.0701 
108 1 9.13534 6.08058 20.8354 
112 1 4.48606 8.56758 13.0076 
115 1 4.36267 6.3316 14.1875 
124 1 4.86514 7.75818 11.8665 
125 1 2.09841 9.23058 14.2433 
126 1 6.85763 9.18682 21.7389 
128 1 7.73959 8.36723 20.8355 
139 1 1.61105 10.0828 20.9165 
140 1 4.16705 7.79649 18.6061 
143 1 7.89049 6.93882 11.9188 
146 1 4.34737 8.50069 22.0286 
149 1 5.01585 6.34029 20.8853 
157 1 2.41984 9.99724 19.6906 
ITEM: TIMESTEP
50
ITEM: NUMBER OF ATOMS
161
ITEM: BOX BOUNDS xy xz yz pp pp pp
-6.7755000000000001e+00 1.3552000000000000e+01 -6.7755000000000001e+00
0.0000000000000000e+00 1.1735510246683001e+01 0.0000000000000000e+00
0.0000000000000000e+00 2.2149999999999999e+01 0.0000000000000000e+00
ITEM: ATOMS id type x y z 
8 1 -2.46338 5.46042 9.83691 
87 1 2.92074 4.40355 10.66 
90 1 2.63263 5.56762 9.75266 
109 1 -2.46488 5.46152 0.777806 
158 1 2.63271 5.56699 0.861144 
11 1 4.21852 4.30192 20.1141 
14 1 2.83465 4.24983 19.6982 
18 1 1.22349 5.86438 18.5949 
33 1 2.04923 4.3246 20.9049 
43 1 4.25002 4.26132 21.5629 
47 1 3.31597 5.80393 17.7975 
52 1 4.21834 4.30139 12.6498 
76 1 2.40939 5.01531 14.2108 
85 1 4.24969 4.26117 11.2007 
89 1 3.31521 5.80353 14.9659 
91 1 0.8866 5.12273 11.8253 
102 1 2.83389 4.24923 13.0651 
105 1 1.22468 5.86559 14.1686 
114 1 2.04935 4.32401 11.8586 
150 1 2.40974 5.01579 18.5527 
156 1 2.92054 4.40449 22.1025 
159 1 0.885892 5.12369 20.9391 
5 1 -4.82612 10.5483 8.55571 
9 1 -3.20312 8.84713 7.52671 
19 1 -1.74842 7.55211 10.5639 
21 1 -2.53701 8.80568 10.9839 
23 1 -3.30477 7.55697 6.85349 
25 1 -4.10828 10.3747 9.77863 
32 1 1.47149 6.38828 0.812043 
36 1 -1.79349 7.5826 9.0666 
38 1 -2.13926 6.27435 8.64467 
54 1 0.341344 8.4576 10.6748 
57 1 1.38092 7.92392 9.78216 
60 1 -1.74891 7.55177 0.0545211 
65 1 -3.2997 7.56841 3.7648 
78 1 -1.81655 7.58883 1.5477 
80 1 -2.44599 8.83602 1.91625 
84 1 -4.42365 9.71957 3.12994 
99 1 -2.90492 9.60145 0.74836 
100 1 -2.93023 6.29679 3.15933 
107 1 -4.85161 10.4834 1.98251 
110 1 -3.24668 8.85691 3.08685 
111 1 0.516759 5.9229 10.6931 
113 1 1.47167 6.38838 9.80221 
119 1 -4.0683 10.4012 0.777761 
127 1 -2.13822 6.27713 1.9711 
131 1 -2.359 6.26659 11.0187 
138 1 1.38105 7.92439 0.831849 
142 1 -2.42938 8.82401 8.71591 
145 1 -4.40394 9.66824 7.51449 
151 1 -4.93364 10.3184 11.0152 
154 1 -2.91984 9.60239 9.85224 
155 1 -2.93383 6.29592 7.45525 
12 1 2.59996 7.01085 17.1542 
17 1 0.447584 9.25975 20.9062 
24 1 -3.4837 8.33557 11.8867 
27 1 -0.268396 7.17336 21.6338 
29 1 0.515702 5.92304 22.0717 
31 1 1.28774 7.14681 17.9023 
44 1 -0.201486 7.13527 20.1385 
46 1 0.128448 8.44245 19.7117 
51 1 -0.268782 7.17339 11.131 
53 1 2.59916 7.01065 15.6093 
56 1 1.28786 7.14752 14.8612 
63 1 -2.3583 6.26596 21.7474 
66 1 -3.39846 6.79879 20.8547 
70 1 -0.200635 7.13525 12.6266 
72 1 0.431304 5.88967 12.9928 
92 1 0.922662 8.41321 14.2399 
95 1 -4.94096 10.3231 21.7272 
98 1 -4.64947 9.1538 20.8209 
104 1 0.447837 9.26002 11.8578 
116 1 -2.53492 8.80253 21.7674 
118 1 -3.48891 8.33577 20.8746 
122 1 0.129044 8.4433 13.052 
133 1 -3.39917 6.79719 11.9083 
136 1 0.340986 8.45773 22.0891 
147 1 0.429893 5.89031 19.7712 
153 1 -4.64477 9.1504 11.9356 
160 1 0.922311 8.41283 18.5238 
1 1 7.74429 4.8983 10.5397 
4 1 9.09153 4.89489 11.008 
20 1 7.7791 4.92498 9.07113 
42 1 9.45349 5.46392 7.45623 
67 1 9.91738 4.65134 0.772072 
77 1 7.7459 4.91359 0.073911 
94 1 7.771 4.95059 1.54935 
96 1 9.10582 4.72442 1.99125 
121 1 4.67031 5.54935 10.6673 
130 1 9.44177 5.48387 3.15773 
134 1 9.92265 4.64654 9.84848 
152 1 9.11238 4.70753 8.62412 
45 1 4.67046 5.54995 22.0963 
55 1 4.81752 5.56488 13.065 
106 1 9.09202 4.8969 21.7569 
137 1 4.81794 5.56438 19.6984 
2 1 7.16824 10.507 9.02031 
3 1 8.96295 7.67227 6.06095 
6 1 8.51134 6.38205 6.82103 
16 1 2.40676 8.63896 0.849431 
22 1 7.04094 6.13246 8.67151 
26 1 7.19076 8.40276 7.47436 
35 1 7.29365 10.4344 10.5502 
37 1 6.86332 9.18382 11.0443 
39 1 8.13497 8.87054 6.83367 
41 1 6.65637 6.94164 9.83002 
48 1 3.79881 6.35671 0.85326 
61 1 7.30862 10.4313 1.58182 
62 1 8.92704 7.72661 4.48117 
64 1 6.70891 9.16093 1.98526 
68 1 7.35816 6.92236 3.08362 
71 1 4.3569 8.50649 10.7361 
74 1 3.65268 7.78354 9.76924 
81 1 8.50885 6.41 3.79249 
83 1 6.51316 8.37902 0.801297 
93 1 7.29867 10.4413 0.141888 
97 1 8.20626 8.94564 3.87617 
101 1 2.44761 9.82504 10.6878 
103 1 2.40738 8.63891 9.76483 
117 1 7.03031 6.15009 1.93975 
120 1 7.16026 8.39095 3.11565 
123 1 3.79847 6.35731 9.76101 
129 1 6.65987 6.96029 0.786047 
132 1 6.68686 9.08965 8.64492 
135 1 7.37788 6.86949 7.53597 
141 1 7.17611 6.21855 10.9501 
144 1 6.51954 8.36764 9.80057 
148 1 3.65231 7.78334 0.845569 
161 2 7.29169 10.9835 7.72897 
7 1 9.1249 6.08387 11.9271 
10 1 3.79314 9.81702 21.6152 
13 1 2.44655 9.82494 22.0758 
15 1 3.03219 8.3038 17.8742 
28 1 3.76186 9.77338 20.1408 
30 1 4.50065 8.57277 19.7461 
34 1 4.36676 6.33578 18.57 
40 1 7.74265 8.36377 11.935 
49 1 4.87021 7.7649 20.9017 
50 1 2.1008 9.22508 18.5251 
58 1 1.61854 10.0685 11.853 
59 1 4.17654 7.80145 14.1622 
69 1 3.794 9.81728 11.1475 
73 1 3.03127 8.30409 14.8891 
75 1 5.01928 6.34723 11.8801 
79 1 7.17683 6.22316 21.81 
82 1 7.88241 6.9412 20.8406 
86 1 3.7631 9.77373 12.622 
88 1 2.42788 9.98951 13.0717 