LAMMPS (3 Mar 2020)
Reading data file ...
  triclinic box = (0 0 0) to (13.552 11.7355 22.15) with tilt (-6.7755 0 0)
  2 by 2 by 2 MPI processor grid
  reading atoms ...
  161 atoms
  read_data CPU = 0.0132616 secs
WARNING: Using 'neigh_modify every 1 delay 0 check yes' setting during minimization (../min.cpp:190)
WARNING: Total cutoff < 2*bond cutoff. May need to use an increased neighbor list skin. (../pair_reaxc.cpp:413)
Neighbor list info ...
  update every 1 steps, delay 0 steps, check yes
  max neighbors/atom: 2000, page size: 100000
  master list distance cutoff = 9.5
  ghost atom cutoff = 9.5
  binsize = 4.75, bins = 5 3 5
  2 neighbor lists, perpetual/occasional/extra = 2 0 0
  (1) pair reax/c, perpetual
      attributes: half, newton off, ghost
      pair build: half/bin/newtoff/ghost
      stencil: half/ghost/bin/3d/newtoff
      bin: standard
  (2) fix qeq/reax, perpetual, copy from (1)
      attributes: half, newton off, ghost
      pair build: copy
      stencil: none
      bin: none
Setting up cg style minimization ...
  Unit style    : real
  Current step  : 0
Per MPI rank memory allocation (min/avg/max) = 22.39 | 23.34 | 24.29 Mbytes
Step Temp E_pair E_mol TotEng Press 
       0            0   -25271.812            0   -25271.812    84312.418 
     290            0   -29236.907            0   -29236.907     41044.71 
Loop time of 56.0186 on 8 procs for 290 steps with 161 atoms

99.9% CPU use with 8 MPI tasks x no OpenMP threads

Minimization stats:
  Stopping criterion = energy tolerance
  Energy initial, next-to-last, final = 
        -25271.8115588     -29236.9064066     -29236.9066226
  Force two-norm initial, final = 4957.5 109.432
  Force max component initial, final = 1193.2 41.4695
  Final line search alpha, max atom move = 3.37699e-05 0.00140042
  Iterations, force evaluations = 290 1840

MPI task timing breakdown:
Section |  min time  |  avg time  |  max time  |%varavg| %total
---------------------------------------------------------------
Pair    | 40.426     | 42.912     | 44.723     |  24.0 | 76.60
Neigh   | 0.0043451  | 0.0047095  | 0.0050764  |   0.5 |  0.01
Comm    | 0.58557    | 2.3867     | 4.8641     | 101.4 |  4.26
Output  | 0.004698   | 0.0060311  | 0.0083323  |   1.5 |  0.01
Modify  | 10.614     | 10.616     | 10.622     |   0.1 | 18.95
Other   |            | 0.09302    |            |       |  0.17

Nlocal:    20.125 ave 32 max 4 min
Histogram: 2 0 1 0 1 0 0 0 1 3
Nghost:    873.375 ave 918 max 821 min
Histogram: 1 3 0 0 0 0 0 0 0 4
Neighs:    2731.62 ave 4295 max 580 min
Histogram: 2 0 0 1 1 0 0 0 1 3

Total # of neighbors = 21853
Ave neighs/atom = 135.733
Neighbor list builds = 1
Dangerous builds = 0
WARNING: Using 'neigh_modify every 1 delay 0 check yes' setting during minimization (../min.cpp:190)
WARNING: Total cutoff < 2*bond cutoff. May need to use an increased neighbor list skin. (../pair_reaxc.cpp:413)
Setting up cg style minimization ...
  Unit style    : real
  Current step  : 290
Per MPI rank memory allocation (min/avg/max) = 22.39 | 23.34 | 24.29 Mbytes
Step Temp E_pair E_mol TotEng Press 
     290            0   -29236.907            0   -29236.907     41044.71 
     338            0    -29247.58            0    -29247.58    38293.011 
Loop time of 10.3101 on 8 procs for 48 steps with 161 atoms

99.9% CPU use with 8 MPI tasks x no OpenMP threads

Minimization stats:
  Stopping criterion = energy tolerance
  Energy initial, next-to-last, final = 
        -29236.9066226     -29247.5796744      -29247.579897
  Force two-norm initial, final = 109.432 104.561
  Force max component initial, final = 41.4695 23.2653
  Final line search alpha, max atom move = 0.000445816 0.010372
  Iterations, force evaluations = 48 335

MPI task timing breakdown:
Section |  min time  |  avg time  |  max time  |%varavg| %total
---------------------------------------------------------------
Pair    | 7.5022     | 7.9497     | 8.2996     |  10.3 | 77.11
Neigh   | 0          | 0          | 0          |   0.0 |  0.00
Comm    | 0.083481   | 0.43142    | 0.87717    |  44.2 |  4.18
Output  | 0.00076557 | 0.00092531 | 0.0012192  |   0.0 |  0.01
Modify  | 1.9106     | 1.9109     | 1.9118     |   0.0 | 18.53
Other   |            | 0.01716    |            |       |  0.17

Nlocal:    20.125 ave 32 max 4 min
Histogram: 2 0 1 1 0 0 0 0 1 3
Nghost:    875.875 ave 919 max 827 min
Histogram: 2 2 0 0 0 0 0 0 0 4
Neighs:    2733.25 ave 4307 max 583 min
Histogram: 2 0 0 1 1 0 0 0 1 3

Total # of neighbors = 21866
Ave neighs/atom = 135.814
Neighbor list builds = 0
Dangerous builds = 0
WARNING: Using 'neigh_modify every 1 delay 0 check yes' setting during minimization (../min.cpp:190)
WARNING: Total cutoff < 2*bond cutoff. May need to use an increased neighbor list skin. (../pair_reaxc.cpp:413)
Setting up cg style minimization ...
  Unit style    : real
  Current step  : 338
WARNING: Energy due to 3 extra global DOFs will be included in minimizer energies
Per MPI rank memory allocation (min/avg/max) = 22.39 | 23.34 | 24.29 Mbytes
Step Temp E_pair E_mol TotEng Press Volume 
     338            0    -29247.58            0    -29247.58    38293.011    3522.7279 
     520            0   -29282.926            0   -29282.926    8974.6485    3535.3124 
Loop time of 7.67275 on 8 procs for 182 steps with 161 atoms

99.8% CPU use with 8 MPI tasks x no OpenMP threads

Minimization stats:
  Stopping criterion = linesearch alpha is zero
  Energy initial, next-to-last, final = 
         -29247.579897     -29282.9257615     -29282.9257615
  Force two-norm initial, final = 4412.86 900.15
  Force max component initial, final = 3938.48 579.179
  Final line search alpha, max atom move = 1.06822e-14 6.18691e-12
  Iterations, force evaluations = 182 274

MPI task timing breakdown:
Section |  min time  |  avg time  |  max time  |%varavg| %total
---------------------------------------------------------------
Pair    | 6.071      | 6.4692     | 6.7501     |   9.6 | 84.31
Neigh   | 0          | 0          | 0          |   0.0 |  0.00
Comm    | 0.074164   | 0.35355    | 0.75024    |  41.0 |  4.61
Output  | 0.0029093  | 0.0035679  | 0.0049532  |   1.1 |  0.05
Modify  | 0.81046    | 0.8107     | 0.81145    |   0.0 | 10.57
Other   |            | 0.03573    |            |       |  0.47

Nlocal:    20.125 ave 32 max 4 min
Histogram: 2 0 1 1 0 0 0 0 1 3
Nghost:    873.875 ave 918 max 823 min
Histogram: 2 2 0 0 0 0 0 0 0 4
Neighs:    2728.25 ave 4294 max 588 min
Histogram: 2 0 0 1 1 0 0 0 1 3

Total # of neighbors = 21826
Ave neighs/atom = 135.565
Neighbor list builds = 0
Dangerous builds = 0
WARNING: Using 'neigh_modify every 1 delay 0 check yes' setting during minimization (../min.cpp:190)
WARNING: Total cutoff < 2*bond cutoff. May need to use an increased neighbor list skin. (../pair_reaxc.cpp:413)
Setting up cg style minimization ...
  Unit style    : real
  Current step  : 520
Per MPI rank memory allocation (min/avg/max) = 22.39 | 23.34 | 24.29 Mbytes
Step Temp E_pair E_mol TotEng Press 
     520            0   -29282.926            0   -29282.926    8974.6485 
     588            0   -29294.582            0   -29294.582    35046.017 
Loop time of 17.2212 on 8 procs for 68 steps with 161 atoms

99.9% CPU use with 8 MPI tasks x no OpenMP threads

Minimization stats:
  Stopping criterion = linesearch alpha is zero
  Energy initial, next-to-last, final = 
        -29282.9257615     -29294.5824734     -29294.5824734
  Force two-norm initial, final = 384.264 22.3648
  Force max component initial, final = 41.9797 3.43203
  Final line search alpha, max atom move = 1.27058e-11 4.36067e-11
  Iterations, force evaluations = 68 575

MPI task timing breakdown:
Section |  min time  |  avg time  |  max time  |%varavg| %total
---------------------------------------------------------------
Pair    | 12.566     | 13.353     | 13.993     |  14.7 | 77.54
Neigh   | 0          | 0          | 0          |   0.0 |  0.00
Comm    | 0.13631    | 0.77351    | 1.5605     |  60.9 |  4.49
Output  | 0.0010628  | 0.0012763  | 0.0017844  |   0.6 |  0.01
Modify  | 3.0653     | 3.0658     | 3.0676     |   0.0 | 17.80
Other   |            | 0.02756    |            |       |  0.16

Nlocal:    20.125 ave 32 max 4 min
Histogram: 2 0 1 1 0 0 0 0 1 3
Nghost:    861.125 ave 911 max 805 min
Histogram: 1 2 1 0 0 0 0 0 1 3
Neighs:    2709.38 ave 4259 max 577 min
Histogram: 2 0 0 1 1 0 0 0 1 3

Total # of neighbors = 21675
Ave neighs/atom = 134.627
Neighbor list builds = 0
Dangerous builds = 0
WARNING: Using 'neigh_modify every 1 delay 0 check yes' setting during minimization (../min.cpp:190)
WARNING: Total cutoff < 2*bond cutoff. May need to use an increased neighbor list skin. (../pair_reaxc.cpp:413)
Setting up cg style minimization ...
  Unit style    : real
  Current step  : 588
WARNING: Energy due to 3 extra global DOFs will be included in minimizer energies
Per MPI rank memory allocation (min/avg/max) = 22.39 | 23.34 | 24.29 Mbytes
Step Temp E_pair E_mol TotEng Press Volume 
     588            0   -29294.582            0   -29294.582    35046.017    3535.3124 
     608            0   -29297.117            0   -29297.117    400.08749    3536.7467 
Loop time of 1.61009 on 8 procs for 20 steps with 161 atoms

99.8% CPU use with 8 MPI tasks x no OpenMP threads

Minimization stats:
  Stopping criterion = energy tolerance
  Energy initial, next-to-last, final = 
        -29294.5824734      -29297.116698      -29297.116915
  Force two-norm initial, final = 3984.29 787.255
  Force max component initial, final = 3531.52 446.536
  Final line search alpha, max atom move = 8.7406e-10 3.90299e-07
  Iterations, force evaluations = 20 58

MPI task timing breakdown:
Section |  min time  |  avg time  |  max time  |%varavg| %total
---------------------------------------------------------------
Pair    | 1.2802     | 1.3592     | 1.4281     |   4.7 | 84.42
Neigh   | 0          | 0          | 0          |   0.0 |  0.00
Comm    | 0.0099295  | 0.078521   | 0.15763    |  19.5 |  4.88
Output  | 0.00029528 | 0.00034661 | 0.00047225 |   0.0 |  0.02
Modify  | 0.1649     | 0.16497    | 0.16511    |   0.0 | 10.25
Other   |            | 0.00709    |            |       |  0.44

Nlocal:    20.125 ave 32 max 4 min
Histogram: 2 0 1 1 0 0 0 0 1 3
Nghost:    861.125 ave 911 max 805 min
Histogram: 1 2 1 0 0 0 0 0 1 3
Neighs:    2710.88 ave 4260 max 579 min
Histogram: 2 0 0 1 1 0 0 0 1 3

Total # of neighbors = 21687
Ave neighs/atom = 134.702
Neighbor list builds = 0
Dangerous builds = 0
WARNING: Using 'neigh_modify every 1 delay 0 check yes' setting during minimization (../min.cpp:190)
WARNING: Total cutoff < 2*bond cutoff. May need to use an increased neighbor list skin. (../pair_reaxc.cpp:413)
Setting up cg style minimization ...
  Unit style    : real
  Current step  : 608
Per MPI rank memory allocation (min/avg/max) = 22.39 | 23.34 | 24.29 Mbytes
Step Temp E_pair E_mol TotEng Press 
     608            0   -29297.117            0   -29297.117    400.08749 
     612            0   -29299.279            0   -29299.279    30745.823 
Loop time of 2.49703 on 8 procs for 4 steps with 161 atoms

99.0% CPU use with 8 MPI tasks x no OpenMP threads

Minimization stats:
  Stopping criterion = linesearch alpha is zero
  Energy initial, next-to-last, final = 
         -29297.116915     -29299.2789369     -29299.2789369
  Force two-norm initial, final = 501.534 63.1312
  Force max component initial, final = 55.9107 11.6976
  Final line search alpha, max atom move = 1.94792e-12 2.2786e-11
  Iterations, force evaluations = 4 86

MPI task timing breakdown:
Section |  min time  |  avg time  |  max time  |%varavg| %total
---------------------------------------------------------------
Pair    | 1.8995     | 2.0226     | 2.1133     |   5.7 | 81.00
Neigh   | 0          | 0          | 0          |   0.0 |  0.00
Comm    | 0.023069   | 0.11312    | 0.23567    |  24.2 |  4.53
Output  | 0.00015497 | 0.00017324 | 0.00022195 |   0.0 |  0.01
Modify  | 0.35684    | 0.35689    | 0.35716    |   0.0 | 14.29
Other   |            | 0.004261   |            |       |  0.17

Nlocal:    20.125 ave 32 max 4 min
Histogram: 2 0 1 1 0 0 0 0 1 3
Nghost:    859.875 ave 908 max 805 min
Histogram: 1 2 1 0 0 0 0 0 0 4
Neighs:    2708.62 ave 4257 max 579 min
Histogram: 2 0 0 1 1 0 0 0 1 3

Total # of neighbors = 21669
Ave neighs/atom = 134.59
Neighbor list builds = 0
Dangerous builds = 0
WARNING: Total cutoff < 2*bond cutoff. May need to use an increased neighbor list skin. (../pair_reaxc.cpp:413)
Setting up Verlet run ...
  Unit style    : real
  Current step  : 0
  Time step     : 0.25
Per MPI rank memory allocation (min/avg/max) = 21.28 | 22.23 | 23.18 Mbytes
Step Temp TotEng KinEng PotEng Press 
       0          300     -29156.2    143.07888   -29299.279     32595.11 
     200    295.91481   -29217.898    141.13053   -29359.029   -23666.164 
     400    357.56516   -29231.769    170.53341   -29402.302   -12340.036 
     600    289.04513   -29264.586    137.85418    -29402.44     30738.12 
     800    257.08305   -29288.797    122.61052   -29411.408    -24670.25 
    1000    300.83896   -29253.633    143.47901   -29397.112    9147.8648 
    1200    242.51847   -29260.411    115.66424   -29376.076    2616.5334 
    1400    286.84333   -29240.334    136.80407   -29377.138   -28140.622 
    1600     301.0635   -29218.754     143.5861    -29362.34    4941.9397 
    1800    237.16139   -29236.124    113.10929   -29349.233    11441.706 
    2000    343.12207   -29213.285    163.64508    -29376.93    1942.1575 
    2200    294.61332   -29218.395    140.50981   -29358.904   -19332.171 
    2400    291.97221   -29201.414    139.25019   -29340.664    -19065.34 
    2600    296.32229   -29190.553    141.32487   -29331.878   -15564.589 
    2800    326.17809   -29195.068    155.56399   -29350.632   -2804.5279 
    3000    254.30842   -29212.348    121.28722   -29333.635    4758.3341 
    3200    290.77675   -29186.088    138.68004   -29324.769   -13955.761 
    3400    277.24083    -29202.14    132.22436   -29334.364     3868.478 
    3600    340.20476   -29163.608    162.25372   -29325.861   -12056.369 
    3800     290.7612   -29185.946    138.67263   -29324.619    7599.7243 
    4000    318.07401   -29207.757    151.69892   -29359.455   -1103.9856 
    4200    285.85922   -29219.246    136.33473   -29355.581    16039.088 
    4400    323.61851   -29213.389    154.34325   -29367.732   -8120.4856 
    4600    273.69572   -29225.975    130.53359   -29356.508   -12682.876 
    4800    330.76458   -29195.935    157.75142   -29353.686    11195.087 
    5000    292.00165   -29233.338    139.26423   -29372.602   -19631.765 
    5200    301.30872   -29243.857    143.70305    -29387.56    32888.126 
    5400    319.47866   -29230.403    152.36883   -29382.771    41252.066 
    5600    330.28341    -29241.88    157.52194   -29399.402   -20570.285 
    5800    280.99549   -29261.004    134.01507   -29395.019     28254.79 
    6000    321.06891   -29237.573    153.12727     -29390.7   -11679.402 
    6200    298.50675   -29272.432    142.36671   -29414.799    8867.7312 
    6400    295.16814    -29267.16    140.77443   -29407.934    27185.679 
    6600    298.06027   -29267.128    142.15377   -29409.282    4194.1611 
    6800    283.27366   -29282.992     135.1016   -29418.093     -13261.2 
    7000    294.59154   -29248.062    140.49943   -29388.561    10623.941 
    7200    308.18869   -29233.165    146.98431   -29380.149   -35228.068 
    7400    336.09571   -29209.468      160.294   -29369.762   -38110.621 
    7600    303.07746   -29243.263    144.54661   -29387.809    12168.782 
    7800    309.63565   -29248.927    147.67441   -29396.602     15197.26 
    8000     280.3259   -29269.836    133.69572   -29403.532     8705.054 
    8200    310.55746   -29247.044    148.11405   -29395.158    12315.156 
    8400    290.72895   -29268.675    138.65724   -29407.332     14461.19 
    8600    296.82302   -29266.794    141.56369   -29408.357   -16442.723 
    8800    289.82944   -29237.657    138.22824   -29375.885   -1041.8848 
    9000    301.14068   -29221.523    143.62291   -29365.146    12136.851 
    9200     295.9479   -29253.506    141.14632   -29394.653    26553.247 
    9400    293.90863   -29256.921    140.17373   -29397.094    -3980.838 
    9600    299.11647   -29260.928     142.6575   -29403.586    7693.7943 
    9800    306.66815   -29231.024    146.25912   -29377.283    5198.9188 
   10000    287.63038   -29232.862    137.17945   -29370.042   -1872.0369 
   10200    253.74362    -29255.07    121.01785   -29376.087    1313.7179 
   10400    333.38284    -29228.71    159.00015   -29387.711    1644.4474 
   10600    304.12335   -29256.571    145.04543   -29401.616   -11477.505 
   10800     279.3488   -29267.968    133.22971   -29401.198    326.82175 
   11000    294.79163   -29228.592    140.59486   -29369.186   -21570.761 
   11200    295.05308   -29217.027    140.71955   -29357.747   -447.02732 
   11400    312.82295   -29244.293    149.19452   -29393.487   -20844.085 
   11600    304.91205   -29261.012    145.42159   -29406.434   -8115.8001 
   11800    268.84333   -29292.873    128.21934   -29421.092    27097.767 
   12000    289.44909   -29264.394    138.04684   -29402.441   -1310.7865 
   12200    300.87836   -29245.636     143.4978   -29389.134    15740.963 
   12400    296.87479   -29220.927    141.58838   -29362.515   -21702.306 
   12600    334.45538   -29226.056    159.51168   -29385.568   -9688.2994 
   12800    273.23541   -29264.724    130.31406   -29395.038    35760.113 
   13000    298.58467   -29260.086    142.40387    -29402.49   -14097.976 
   13200     281.3255   -29231.255    134.17246   -29365.428    26388.591 
   13400    296.64244   -29215.322    141.47756     -29356.8    -3480.429 
   13600    356.99547   -29203.879    170.26171   -29374.141    18159.348 
   13800    303.65672   -29244.247    144.82288    -29389.07   -16730.533 
   14000    287.49418   -29269.218    137.11449   -29406.333    15482.078 
   14200    298.60168   -29243.273    142.41198   -29385.685    27321.707 
   14400    280.74656   -29240.547    133.89635   -29374.444    12117.426 
   14600    295.14451   -29225.793    140.76315   -29366.556    22901.699 
   14800    310.43062   -29215.724    148.05356   -29363.777   -14742.839 
   15000    299.54675   -29246.211    142.86272   -29389.074    22373.934 
   15200    298.28876   -29255.486    142.26274   -29397.749    16106.046 
   15400    303.25616    -29252.99    144.63184   -29397.622   -11109.099 
   15600    307.46338   -29222.474    146.63839   -29369.112   -6576.7897 
   15800    259.73379   -29248.466    123.87473    -29372.34    33055.572 
   16000    284.31567   -29246.305    135.59856   -29381.903     6873.903 
   16200    316.05068   -29244.163    150.73393   -29394.897    29816.826 
   16400     271.8484   -29274.653    129.65255   -29404.306    1741.2845 
   16600     284.8922   -29253.503    135.87352   -29389.377   -19068.675 
   16800    298.16495   -29229.771    142.20369   -29371.975    12338.751 
   17000    323.89491   -29224.608    154.47507   -29379.083   -16258.851 
   17200     293.7373   -29238.162    140.09201   -29378.254   -2017.0855 
   17400    292.91393   -29247.885    139.69932   -29387.585    5008.2972 
   17600    285.98243   -29276.671    136.39349   -29413.064    4969.8026 
   17800    346.68029   -29247.043    165.34209   -29412.385    11373.805 
   18000    314.26226     -29235.5    149.88098   -29385.381    11597.716 
   18200    334.49523   -29213.361    159.53068   -29372.892    -4900.702 
   18400    306.98985    -29248.87    146.41255   -29395.283    30956.139 
   18600    291.45492   -29254.021    139.00348   -29393.024   -2236.2099 
   18800    294.61801   -29222.505    140.51205   -29363.017   -10899.862 
   19000    311.74543    -29238.04    148.68062    -29386.72    12875.224 
   19200    305.95594   -29242.762    145.91945   -29388.682   -3539.0121 
   19400    303.35542   -29210.551    144.67918    -29355.23   -37490.449 
   19600    313.40884   -29238.186    149.47395    -29387.66    81006.734 
   19800     289.5911   -29254.641    138.11457   -29392.755    16988.341 
   20000    304.41029   -29257.812    145.18228   -29402.995    -6335.464 
   20200    316.67991   -29227.698    151.03402   -29378.732   -12280.104 
   20400    293.48508   -29243.376    139.97173   -29383.348    15824.661 
   20600    307.18718   -29246.686    146.50666   -29393.193    -13296.86 
   20800    281.84995   -29259.638    134.42259   -29394.061   -452.33602 
   21000    270.85493   -29272.256    129.17873   -29401.434    7133.0814 
   21200    309.94561   -29248.183    147.82224   -29396.005     31440.59 
   21400    301.44207   -29232.932    143.76665   -29376.699    7861.5754 
   21600    337.31435   -29219.973     160.8752   -29380.848   -12406.955 
   21800    288.07893   -29255.253    137.39337   -29392.646    6557.1861 
   22000    284.65523   -29249.409    135.76051   -29385.169   -17061.195 
   22200    318.95909   -29222.722    152.12103   -29374.843    -21271.56 
   22400    304.03354   -29238.202    145.00259   -29383.204    14591.315 
   22600    308.94684   -29246.315    147.34589   -29393.661    -13150.19 
   22800    284.87512   -29274.836    135.86538   -29410.702     13857.03 
   23000    314.62209   -29247.502    150.05259   -29397.555     15630.21 
   23200    315.32668   -29250.339    150.38863   -29400.727    4286.9166 
   23400    291.10117   -29245.004    138.83477   -29383.839    -14317.66 
   23600    323.24447   -29220.671    154.16486   -29374.836   -14665.957 
   23800    304.56692   -29249.453    145.25698    -29394.71   -18401.095 
   24000    307.95021   -29247.915    146.87057   -29394.786   -47872.211 
   24200    324.38635   -29233.571    154.70946   -29388.281    26419.381 
   24400    327.03202   -29199.612    155.97125   -29355.583    9814.1287 
   24600    312.60228   -29222.172    149.08928   -29371.261   -11526.875 
   24800    293.72915   -29240.042    140.08813    -29380.13   -4185.7528 
   25000    264.22557   -29268.112      126.017   -29394.129    10407.709 
   25200    290.57706   -29258.195     138.5848    -29396.78   -8589.0621 
   25400    285.84901   -29232.591    136.32986   -29368.921    12016.042 
   25600    305.87258   -29217.035    145.87969   -29362.914    6248.9139 
   25800    360.89347   -29226.173    172.12078   -29398.294    3228.9288 
   26000     287.9165   -29247.774     137.3159    -29385.09   -20406.506 
   26200     308.4652   -29241.533    147.11619    -29388.65    13219.514 
   26400    291.43596   -29217.575    138.99444   -29356.569   -16940.922 
   26600    286.77744   -29233.208    136.77265   -29369.981    -7049.778 
   26800    289.77904   -29238.023    138.20421   -29376.227   -21860.176 
   27000    316.96184   -29218.333    151.16849   -29369.501    30900.995 
   27200    285.95984   -29244.313    136.38271   -29380.696   -26586.752 
   27400    275.95192   -29243.379    131.60964   -29374.989    16130.149 
   27600    315.61066   -29213.142    150.52407   -29363.666   -1148.8607 
   27800    297.00216   -29238.725    141.64912   -29380.374   -9190.5643 
   28000    303.76498   -29246.666    144.87451   -29391.541    8259.4131 
   28200    262.17386   -29274.291    125.03847   -29399.329    50.121716 
   28400    279.44774   -29273.488     133.2769   -29406.765   -16006.652 
   28600    280.91067   -29237.215    133.97461    -29371.19   -57911.056 
   28800    297.79776   -29225.078    142.02857   -29367.106    8789.9917 
   29000     303.8382   -29257.282    144.90943   -29402.191    15997.279 
   29200    296.65766   -29251.386    141.48482   -29392.871     37581.88 
   29400      298.821   -29247.196    142.51658   -29389.712   -8021.2812 
   29600    264.17495   -29243.282    125.99286   -29369.275   -20032.298 
   29800    305.65426    -29236.28    145.77557   -29382.055    19384.125 
   30000    298.39015   -29246.925     142.3111   -29389.236    24561.305 
   30200    278.35081    -29267.04    132.75374   -29399.794   -33612.066 
   30400    333.93116   -29234.087    159.26166   -29393.349   -53680.504 
   30600    300.05767   -29247.383    143.10639   -29390.489    10887.152 
   30800     301.1673   -29248.012     143.6356   -29391.648    50332.858 
   31000    296.88482   -29237.875    141.59316   -29379.468    15809.633 
   31200    285.71218   -29247.743     136.2646   -29384.007   -894.79276 
   31400    285.77369   -29269.305    136.29393   -29405.599    2431.9907 
   31600    313.67371   -29244.898    149.60028   -29394.498    3362.4341 
   31800    303.01189   -29235.453    144.51534   -29379.969   -10835.768 
   32000    268.58965   -29264.804    128.09836   -29392.903    -16206.36 
   32200    312.14586   -29232.639     148.8716   -29381.511    1818.5337 
   32400    281.31206   -29251.642    134.16605   -29385.808    45111.189 
   32600    281.57856   -29260.868    134.29315   -29395.161    7511.6124 
   32800    315.08937   -29224.591    150.27545   -29374.866    2442.4065 
   33000    294.50785   -29239.937    140.45952   -29380.397    20804.851 
   33200    337.50437   -29246.586    160.96583   -29407.551    7326.0361 
   33400    318.20156   -29219.762    151.75974   -29371.521    8320.8209 
   33600    293.54731   -29249.829     140.0014   -29389.831   -9415.2315 
   33800    298.34761   -29253.836    142.29081   -29396.126   -3803.4858 
   34000    325.34285   -29216.771    155.16564   -29371.937    40899.032 
   34200    314.17561   -29231.475    149.83965   -29381.315    -13541.91 
   34400    278.02608   -29250.902    132.59887   -29383.501    -10025.05 
   34600    295.80902    -29244.56    141.08008    -29385.64   -1584.2323 
   34800    325.70911   -29230.014    155.34032   -29385.354     34023.68 
   35000    306.01506   -29256.779    145.94764   -29402.726   -26778.807 
   35200    311.44187   -29234.627    148.53585   -29383.163   -27308.415 
   35400    317.51259   -29227.266    151.43116   -29378.697    33659.591 
   35600    311.64447   -29246.776    148.63247   -29395.408   -3162.8442 
   35800    264.76601   -29273.775    126.27475   -29400.049   -16791.908 
   36000    271.88269   -29252.987     129.6689   -29382.656    17326.507 
   36200    305.15783   -29234.586    145.53881   -29380.125   -16766.735 
   36400    296.73489   -29230.859    141.52165   -29372.381    8650.8178 
   36600    273.73263   -29254.431     130.5512   -29384.982    16357.467 
   36800    322.65431   -29232.029    153.88339   -29385.913    18215.466 
   37000    298.85172   -29247.069    142.53123     -29389.6    34581.679 
   37200    290.37126   -29253.344    138.48665    -29391.83   -31754.226 
   37400    303.17413   -29235.442    144.59272   -29380.034   -7315.9628 
   37600    268.19368   -29264.354    127.90951   -29392.264   -3292.1297 
   37800    322.28745    -29237.51    153.70843   -29391.218    26862.695 
   38000    310.16324   -29242.323    147.92603   -29390.249   -46543.604 
   38200    296.27829   -29252.315    141.30389   -29393.619    23128.802 
   38400    338.29157   -29214.326    161.34126   -29375.667   -20129.319 
   38600    293.49323    -29240.95    139.97561   -29380.926   -11096.418 
   38800    297.97693   -29227.943    142.11402   -29370.057   -20975.515 
   39000    315.82764   -29241.172    150.62755     -29391.8    5834.6963 
   39200    283.84006   -29249.228    135.37173     -29384.6    4101.4064 
   39400    309.74412   -29225.824    147.72614    -29373.55   -5475.9721 
   39600    290.82958   -29242.724    138.70524   -29381.429    4825.5496 
   39800    297.68969   -29248.975    141.97703   -29390.952    28455.475 
   40000    312.69888   -29227.195    149.13535   -29376.331    4054.9611 
   40200    304.57015   -29244.881    145.25852    -29390.14    20496.295 
   40400    290.23756   -29246.178    138.42288     -29384.6   -18098.563 
   40600     311.4031   -29213.009    148.51736   -29361.526    34901.494 
   40800    279.51841   -29240.615    133.31061   -29373.926    51335.754 
   41000    297.66914    -29231.76    141.96723   -29373.728   -5587.6252 
   41200    333.83767   -29223.838    159.21707   -29383.055    46556.438 
   41400     321.9823   -29245.429    153.56289   -29398.992   -909.88665 
   41600    310.47932   -29222.518    148.07678   -29370.594   -14468.011 
   41800    301.43906   -29211.551    143.76521   -29355.316   -11921.295 
   42000    303.97535   -29246.023    144.97485   -29390.998    7026.3425 
   42200     291.4589   -29239.651    139.00538   -29378.656   -27443.473 
   42400     308.6226   -29248.376    147.19126   -29395.568    5079.7272 
   42600    293.52034   -29225.876    139.98854   -29365.864   -34087.603 
   42800    330.22158   -29221.569    157.49245   -29379.062   -36853.322 
   43000    298.03723   -29241.827    142.14278    -29383.97   -32043.093 
   43200    307.97869   -29235.862    146.88415   -29382.746   -51039.426 
   43400    312.46792   -29221.256     149.0252   -29370.282   -15887.884 
   43600    284.65956   -29233.784    135.76257   -29369.547    6980.4246 
   43800    282.20167   -29245.744    134.59033   -29380.334   -19572.013 
   44000    315.40645   -29214.566    150.42667   -29364.992    18543.576 
   44200    291.78412   -29246.343    139.16049   -29385.504   -16955.966 
   44400    312.80608   -29243.166    149.18648   -29392.353    14961.829 
   44600    329.43383   -29212.583    157.11675   -29369.699    411.65211 
   44800    302.48712   -29248.309    144.26506   -29392.574    6380.7838 
   45000    323.51053   -29240.026    154.29175   -29394.318    4228.7046 
   45200    303.56435   -29243.307    144.77883   -29388.086   -21347.097 
   45400    272.43496    -29259.23     129.9323   -29389.163   -20717.257 
   45600    309.66372   -29229.748     147.6878   -29377.436   -15738.366 
   45800    267.56618   -29241.167    127.61023   -29368.777    34280.958 
   46000    277.61301   -29266.043    132.40186   -29398.445   -20630.656 
   46200     303.3963   -29240.257    144.69868   -29384.956    3529.3864 
   46400    317.67687   -29243.142     151.5095   -29394.651    8481.3065 
   46600     282.2063   -29270.361    134.59254   -29404.954   -11986.076 
   46800    280.90779   -29288.766    133.97324   -29422.739     -5328.33 
   47000    291.06789   -29255.132     138.8189   -29393.951    -272.7648 
   47200    317.21016   -29245.128    151.28692   -29396.415    14422.672 
   47400    281.76848   -29274.671    134.38373   -29409.054   -3378.0872 
   47600    287.98937   -29252.165    137.35066   -29389.515   -5028.8188 
   47800    299.15104   -29233.169    142.67399   -29375.843    31382.906 
   48000    313.95287   -29239.094    149.73342   -29388.827    6902.9459 
   48200    283.03866   -29258.356    134.98952   -29393.345    7378.5373 
   48400    300.70165   -29235.778    143.41352   -29379.192    27424.357 
   48600    291.27227   -29248.636    138.91637   -29387.553   -21283.277 
   48800    285.14199   -29257.351    135.99266   -29393.343   -31.621787 
   49000     327.7674    -29237.53    156.32198   -29393.852    2602.6664 
   49200     300.0188   -29241.372    143.08785    -29384.46    -23439.59 
   49400    297.92375   -29261.201    142.08866    -29403.29   -62172.619 
   49600    291.36849   -29250.477    138.96226    -29389.44    48454.931 
   49800    265.92811   -29244.331    126.82899    -29371.16   -8173.1224 
   50000    329.46445   -29236.927    157.13135   -29394.058   -3535.7881 
   50200    288.89383   -29234.661    137.78202   -29372.443   -684.12864 
   50400    290.15118   -29262.539    138.38169    -29400.92    15939.059 
   50600    301.99997   -29233.187    144.03273    -29377.22   -8873.7216 
   50800    304.02316   -29248.202    144.99765     -29393.2    16061.075 
   51000     288.7098   -29252.301    137.69425   -29389.995   -34782.236 
   51200    317.16422   -29222.437      151.265   -29373.702    2759.9171 
   51400    301.13749   -29250.951    143.62138   -29394.572    23564.322 
   51600    293.52027   -29242.934    139.98851   -29382.922    35100.618 
   51800    306.34513   -29217.567    146.10506   -29363.672    36070.446 
   52000    308.06396   -29246.551    146.92482   -29393.475    -15717.48 
   52200    278.55528   -29237.954    132.85126   -29370.806   -38254.447 
   52400    311.99507   -29214.629    148.79969   -29363.429    15882.122 
   52600    286.46704   -29237.457    136.62461   -29374.081   -29035.349 
   52800    289.45754   -29249.635    138.05087   -29387.686    31419.328 
   53000    320.08651    -29226.02    152.65873   -29378.679    18412.021 
   53200    302.18481    -29244.08    144.12089   -29388.201   -6769.8163 
   53400    299.53824   -29247.692    142.85866   -29390.551   -7782.2155 
   53600    337.83857   -29212.465    161.12521    -29373.59    23272.931 
   53800    318.56325   -29207.538    151.93224    -29359.47    4322.3261 
   54000    280.44276   -29237.715    133.75146   -29371.467    18623.036 
   54200    278.58965   -29255.791    132.86765   -29388.659   -10002.071 
   54400    261.13378   -29240.625    124.54243   -29365.168   -19058.693 
   54600    324.68068   -29218.688    154.84983   -29373.538    13693.034 
   54800    272.11782   -29249.967    129.78105   -29379.748    16800.869 
   55000    280.35544   -29244.263    133.70981   -29377.973    43882.481 
   55200    299.72437    -29233.85    142.94743   -29376.798    -2229.957 
   55400    268.81829   -29254.908     128.2074   -29383.115   -37688.895 
   55600    287.77216   -29258.546    137.24706   -29395.793    35367.573 
   55800    296.76025   -29242.867    141.53375   -29384.401    711.44795 
   56000    291.93471   -29248.437    139.23231   -29387.669    -7641.267 
   56200    344.69297   -29224.912    164.39428   -29389.306   -34212.158 
   56400    311.57907   -29244.165    148.60129   -29392.767    55146.269 
   56600    285.18593   -29251.893    136.01361   -29387.906   -1336.1179 
   56800    306.20121   -29224.738    146.03642   -29370.775    3718.3293 
   57000    306.03251   -29240.226    145.95597   -29386.182   -18433.311 
   57200    284.96501   -29245.299    135.90825   -29381.208      46107.6 
   57400    301.68958   -29216.748    143.88469   -29360.632    12527.301 
   57600    321.04148   -29223.987    153.11419   -29377.101   -1576.8635 
   57800    273.15606   -29242.693    130.27621   -29372.969   -14984.004 
   58000      298.631   -29246.336    142.42596   -29388.762    215.95085 
   58200    320.31268   -29218.795     152.7666   -29371.561   -16356.683 
   58400    285.60764   -29249.518    136.21474   -29385.733   -2737.4892 
   58600    298.29176   -29236.403    142.26417   -29378.667    15475.054 
   58800    314.90463   -29215.511    150.18734   -29365.698     5665.531 
   59000    278.16262   -29248.708    132.66399   -29381.372    41391.791 
   59200    310.16707   -29251.759    147.92786   -29399.687   -3340.2494 
   59400    366.21721   -29220.751    174.65983   -29395.411     24121.96 
   59600    291.01151   -29255.196    138.79201   -29393.988   -31850.055 
   59800    296.65484   -29242.685    141.48347   -29384.169    3893.9894 
   60000    312.73262   -29241.038    149.15145    -29390.19    17598.852 
   60200    275.04769   -29266.528    131.17839   -29397.706   -29416.438 
   60400    302.68098   -29244.325    144.35752   -29388.682   -11069.164 
   60600    287.67142   -29249.543    137.19902   -29386.742   -7993.5473 
   60800    256.52142   -29271.547    122.34266    -29393.89    276.76489 
   61000    283.67083    -29244.65    135.29102   -29379.941   -7236.4965 
   61200    309.51792   -29237.771    147.61826   -29385.389    14506.539 
   61400    295.80304   -29266.369    141.07723   -29407.446    49208.325 
   61600    318.37691    -29240.66    151.84337   -29392.503    -20873.36 
   61800    286.99278   -29237.417    136.87535   -29374.292   -55727.454 
   62000    294.75222   -29244.002    140.57606   -29384.578     22201.62 
   62200    291.07057   -29257.588    138.82017   -29396.408    -18193.09 
   62400    281.76889   -29238.376    134.38393   -29372.759   -12415.795 
   62600    295.52486    -29232.56    140.94456   -29373.505    23868.877 
   62800    304.68282   -29259.139    145.31226   -29404.451   -48866.351 
   63000    287.09022   -29247.483    136.92182   -29384.405     12525.59 
   63200    290.37786   -29228.853     138.4898   -29367.342   -34157.595 
   63400    272.63974    -29260.47    130.02997     -29390.5    29633.527 
   63600    336.21625   -29243.948    160.35149   -29404.299   -8048.0982 
   63800     306.1412   -29236.473     146.0078    -29382.48   -13709.423 
   64000    278.88225   -29245.913     133.0072   -29378.921    17799.475 
   64200    280.06382   -29257.946    133.57073   -29391.517    1748.6281 
   64400    333.25762   -29230.677    158.94042   -29389.617    553.75725 
   64600    323.56963   -29233.241    154.31994   -29387.561    1039.7552 
   64800    276.86268   -29258.527    132.04401   -29390.571   -12667.626 
   65000    311.93004   -29244.442    148.76867    -29393.21    50678.766 
   65200    325.66572   -29229.526    155.31962   -29384.846    11343.935 
   65400    279.56689   -29263.216    133.33373   -29396.549   -203.01682 
   65600    307.45392   -29245.834    146.63388   -29392.468    23826.276 
   65800    308.24236   -29235.096    147.00991   -29382.106   -21311.755 
   66000    279.56459   -29252.691    133.33263   -29386.024   -11121.331 
   66200     262.3747   -29277.203    125.13426   -29402.337    23614.499 
   66400    282.02063   -29241.985    134.50399   -29376.489    47.351517 
   66600    321.39857   -29226.496    153.28449   -29379.781     -23359.5 
   66800    298.50792   -29252.769    142.36726   -29395.136   -12657.805 
   67000     270.4888    -29244.66    129.00412   -29373.664    36014.599 
   67200     281.7005   -29234.406    134.35131   -29368.757    2431.2009 
   67400     283.2763   -29255.278    135.10286   -29390.381    535.67562 
   67600     264.0787   -29271.894    125.94695   -29397.841    17910.432 
   67800    318.04393   -29243.767    151.68457   -29395.451   -23713.173 
   68000    320.93719   -29237.598    153.06445   -29390.662     39188.02 
   68200    242.77331    -29267.81    115.78578   -29383.596    33022.292 
   68400    339.88851   -29231.667    162.10289    -29393.77    20212.117 
   68600    302.65558   -29239.291    144.34541   -29383.636    19344.667 
   68800    263.15059   -29251.194    125.50431   -29376.698     20512.39 
   69000    278.94651   -29219.535    133.03785   -29352.573   -26016.737 
   69200    300.13894   -29239.833    143.14515   -29382.979    5611.1141 
   69400    286.79979   -29242.236    136.78331   -29379.019    44800.076 
   69600    325.93229   -29238.088    155.44676   -29393.535    32008.396 
   69800    324.13546   -29221.281     154.5898    -29375.87    -3247.771 
   70000    290.87075   -29252.199    138.72487   -29390.924    18064.126 
   70200    291.46702   -29238.352    139.00925   -29377.362     6063.149 
   70400    293.30523    -29231.28    139.88595   -29371.166    6948.5616 
   70600    316.34417   -29239.735     150.8739   -29390.609   -3537.2285 
   70800    269.96099   -29247.872    128.75239   -29376.625    17303.322 
   71000    315.34118   -29216.992    150.39555   -29367.388   -37987.766 
   71200    298.95264   -29231.363    142.57937   -29373.942    22042.396 
   71400    267.53777   -29271.353    127.59668   -29398.949   -43400.266 
   71600    287.64727   -29264.382     137.1875    -29401.57    -14818.98 
   71800    300.82323   -29229.246     143.4715   -29372.717   -2297.1756 
   72000    305.67509   -29223.448     145.7855   -29369.233   -11429.013 
   72200    282.71038   -29252.531    134.83295   -29387.364    47784.411 
   72400    300.70074   -29233.103    143.41308   -29376.516   -9979.1977 
   72600    294.91198   -29232.278    140.65226    -29372.93    15986.793 
   72800    254.31195   -29246.874     121.2889   -29368.163   -18441.394 
   73000    294.17002   -29242.648    140.29839   -29382.946   -4138.1877 
   73200    332.80977   -29222.961    158.72683   -29381.688    21254.753 
   73400    269.11038   -29250.768    128.34671   -29379.115    28847.236 
   73600    262.38997   -29266.407    125.14154   -29391.548   -25907.467 
   73800    274.21275    -29231.39    130.78018    -29362.17    -15184.38 
   74000    287.50573   -29226.411       137.12   -29363.531     26389.09 
   74200    273.25433   -29256.483    130.32308   -29386.806    -2070.083 
   74400      294.825   -29241.285    140.61077   -29381.896    5200.6158 
   74600    286.94164   -29234.831    136.85096   -29371.682    40691.479 
   74800    315.19571    -29231.35    150.32616   -29381.676   -8815.6502 
   75000    296.64255   -29246.128    141.47761   -29387.605   -21546.324 
   75200    277.09384   -29227.915    132.15426   -29360.069   -1821.7329 
   75400    312.20245   -29222.235    148.89859   -29371.134   -15552.631 
   75600    274.85252   -29239.265     131.0853    -29370.35    4154.4599 
   75800    299.25292   -29235.151    142.72258   -29377.873    39337.308 
   76000    289.07825   -29232.015    137.86998   -29369.885    31343.529 
   76200    294.54052   -29219.397     140.4751   -29359.872   -6264.2038 
   76400    294.51813   -29247.789    140.46442   -29388.253   -22404.923 
   76600    303.82872   -29240.361    144.90491   -29385.266   -10579.507 
   76800     314.8029   -29222.959    150.13882   -29373.098     -11057.7 
   77000     265.6116   -29233.813    126.67803   -29360.491     36115.03 
   77200    283.52925   -29236.281     135.2235   -29371.505    31434.014 
   77400    337.26951   -29212.479    160.85381   -29373.333   -31654.878 
   77600    281.38421   -29237.735    134.20046   -29371.935    26628.733 
   77800    293.75764    -29237.48    140.10172   -29377.582    34489.572 
   78000    325.33909   -29227.362    155.16385   -29382.526    -389.6266 
   78200    294.36334   -29231.786    140.39059   -29372.177   -35033.086 
   78400    318.46116    -29242.64    151.88356   -29394.524   -25031.811 
   78600    275.43139   -29264.151    131.36139   -29395.513    32981.792 
   78800    307.36914   -29231.559    146.59344   -29378.153   -22926.922 
   79000    290.79061   -29237.698    138.68665   -29376.385    21516.871 
   79200     280.3836   -29261.401    133.72324   -29395.125    36791.594 
   79400    304.72759   -29225.933    145.33361   -29371.267   -50517.574 
   79600      326.342   -29238.391    155.64216   -29394.033   -26658.707 
   79800    264.99198    -29255.33    126.38252   -29381.713   -18134.671 
   80000    313.92974    -29218.88    149.72239   -29368.603    10532.876 
   80200    314.08447   -29244.676    149.79618   -29394.472   -47566.643 
   80400    287.94366   -29240.187    137.32886   -29377.516   -10013.979 
   80600    335.91613   -29212.836    160.20835   -29373.044   -33631.161 
   80800    270.34346   -29238.696     128.9348   -29367.631   -1822.0942 
   81000    323.02854   -29229.611    154.06188   -29383.673    13367.424 
   81200    329.25536   -29204.521    157.03163   -29361.553    -14659.41 
   81400    297.01715   -29229.476    141.65627   -29371.133   -8291.0559 
   81600    272.77046   -29230.352    130.09231   -29360.444    9642.5958 
   81800    354.01413   -29201.466    168.83982   -29370.305    4334.5866 
   82000    271.34457    -29238.33    129.41226   -29367.742    -11652.15 
   82200    297.16553   -29237.105    141.72704   -29378.832   -42025.319 
   82400    324.11961   -29228.366    154.58224   -29382.949    6366.6139 
   82600    302.53511   -29255.172    144.28795    -29399.46   -2727.5514 
   82800    273.98413   -29240.971    130.67114   -29371.643   -6172.0278 
   83000    292.33962    -29227.87    139.42542   -29367.295    24442.017 
   83200    284.13751   -29247.667    135.51359   -29383.181    7038.0606 
   83400    284.89959   -29241.392    135.87705   -29377.269    -408.2272 
   83600    327.74921   -29222.278     156.3133   -29378.591    10211.649 
   83800    298.33016    -29252.34    142.28249   -29394.622    26333.136 
   84000    291.93737   -29245.756    139.23357    -29384.99    31607.774 
   84200    314.12967   -29230.667    149.81774   -29380.485   -25854.294 
   84400    343.06507   -29199.608    163.61789   -29363.226    2148.1757 
   84600    297.34828   -29234.375     141.8142   -29376.189   -4570.7702 
   84800    298.75413   -29241.636    142.48469   -29384.121   -39363.688 
   85000    352.05325   -29210.405    167.90462    -29378.31    15059.155 
   85200    282.31297    -29232.39    134.64342   -29367.033    11905.953 
   85400    304.05484   -29232.164    145.01275   -29377.177   -23919.381 
   85600    312.47685   -29235.479    149.02946   -29384.509   -18985.423 
   85800    282.42846   -29255.325    134.69849   -29390.023    25891.189 
   86000    322.46969   -29223.423    153.79534   -29377.219    1513.3764 
   86200    331.26915   -29237.395    157.99206   -29395.387    22208.509 
   86400    290.61483   -29244.503    138.60282   -29383.106    15127.057 
   86600    305.46396   -29237.234    145.68481   -29382.919   -11630.017 
   86800    331.71231   -29203.065    158.20342   -29361.269   -30872.465 
   87000    300.87334    -29233.11     143.4954   -29376.606   -35501.017 
   87200    333.45673   -29234.204    159.03539   -29393.239   -10724.551 
   87400    348.38781   -29202.964    166.15646   -29369.121   -33783.525 
   87600    277.44114   -29233.552    132.31989   -29365.872    -27927.84 
   87800    296.51591   -29238.805    141.41722   -29380.222    18498.907 
   88000    303.19406    -29228.31    144.60222   -29372.913    12682.887 
   88200    335.24766   -29212.719    159.88954   -29372.608   -4907.8051 
   88400    291.76437   -29244.349    139.15106     -29383.5    59058.508 
   88600    316.15951   -29227.869    150.78583   -29378.654   -13934.764 
   88800    315.12046   -29218.172    150.29028   -29368.462    418.61982 
   89000    307.80733   -29232.331    146.80243   -29379.134    1616.9001 
   89200    281.59154   -29248.093    134.29934   -29382.393    11737.319 
   89400    340.42178   -29217.434    162.35723   -29379.791     8676.314 
   89600    295.78611    -29237.13    141.06915   -29378.199   -15595.258 
   89800    282.31554   -29244.449    134.64464   -29379.093   -33584.243 
   90000    317.90932   -29238.104    151.62037   -29389.724    34781.512 
   90200    271.80831   -29255.606    129.63343    -29385.24   -487.36938 
   90400    289.80982   -29236.575    138.21888   -29374.794   -26594.913 
   90600    305.58449   -29230.701    145.74229   -29376.443   -7392.0844 
   90800     261.9306   -29247.235    124.92246   -29372.158    -587.2714 
   91000    287.06988   -29252.621    136.91212   -29389.533       -27577 
   91200    307.04178   -29228.027    146.43732   -29374.465    43846.955 
   91400    284.02192   -29249.276    135.45846   -29384.735   -16801.509 
   91600    283.34156   -29252.276    135.13398    -29387.41    24257.494 
   91800    307.46797   -29225.968    146.64058   -29372.608    -8632.441 
   92000     286.6451   -29246.486    136.70954   -29383.196    6692.9936 
   92200    278.37993   -29237.734    132.76763   -29370.501    5921.6562 
   92400    304.12916   -29220.147     145.0482   -29365.196   -848.63552 
   92600    293.49575   -29241.903    139.97681   -29381.879    9073.3355 
   92800    244.78551   -29273.118    116.74546   -29389.863    2167.8943 
   93000    282.15989   -29246.549    134.57041    -29381.12    52150.954 
   93200    289.55244   -29229.169    138.09613   -29367.265    394.49845 
   93400    274.88884   -29255.043    131.10263   -29386.145   -21124.118 
   93600    301.18505   -29242.887    143.64407   -29386.531    17950.817 
   93800    326.65436    -29223.11    155.79113   -29378.901    24647.406 
   94000    274.13345   -29249.555    130.74236   -29380.297    -13754.24 
   94200    290.26819   -29233.234     138.4375   -29371.671   -21690.626 
   94400    314.53805   -29221.187    150.01251   -29371.199   -35669.972 
   94600    284.52906   -29230.789    135.70033   -29366.489   -21028.228 
   94800    302.42371   -29231.984    144.23482   -29376.219    34008.808 
   95000    294.02713   -29248.325    140.23025   -29388.555    41166.409 
   95200    286.15014   -29231.453    136.47347   -29367.927   -23267.179 
   95400    325.04324   -29217.119    155.02275   -29372.142    21324.614 
   95600    261.74893   -29240.058    124.83581   -29364.893    8659.1375 
   95800    288.01608   -29235.799     137.3634   -29373.162    16131.726 
   96000    305.62869   -29214.577    145.76337   -29360.341    26516.224 
   96200    302.90888   -29212.911    144.46621   -29357.377    6057.5617 
   96400    293.08531   -29241.793    139.78106   -29381.574   -4561.3681 
   96600    322.74195   -29220.155    153.92519    -29374.08    17939.601 
   96800    314.75637   -29219.713    150.11663   -29369.829   -15708.564 
   97000    312.03629   -29235.647    148.81934   -29384.466    54998.459 
   97200    303.38836   -29232.412    144.69489   -29377.107   -56331.427 
   97400     308.8159   -29223.654    147.28345   -29370.937    5063.6061 
   97600    308.71299   -29252.483    147.23437   -29399.718   -5155.3486 
   97800    322.01408   -29226.358    153.57805   -29379.936     17550.49 
   98000    307.32876   -29228.879    146.57419   -29375.453    24590.004 
   98200    282.52612   -29245.755    134.74507     -29380.5   -25871.324 
   98400     325.2948   -29207.439    155.14272   -29362.582    11564.884 
   98600    316.57038   -29232.711    150.98179   -29383.693    21101.198 
   98800    287.46595   -29241.024    137.10102   -29378.125    37293.261 
   99000    285.93904   -29230.093    136.37279   -29366.466   -26842.287 
   99200     323.1707   -29224.884    154.12967   -29379.014   -18330.331 
   99400    292.76155   -29251.905    139.62665   -29391.532   -66365.727 
   99600     305.5581   -29230.453     145.7297   -29376.183    41306.056 
   99800    345.67912   -29219.046    164.86461   -29383.911    11035.847 
  100000    267.46996   -29243.556    127.56434   -29371.121   -31050.672 
  100200    285.61291   -29250.237    136.21725   -29386.454   -18647.569 
  100400    313.51146   -29237.678     149.5229   -29387.201     2160.742 
  100600    307.09012   -29222.473    146.46037   -29368.933    217.10934 
  100800    275.55199   -29252.032     131.4189   -29383.451   -26235.566 
  101000    313.52351   -29231.028    149.52865   -29380.557    12068.621 
  101200    320.87224   -29227.152    153.03347   -29380.185    9708.1108 
  101400    284.83041    -29258.86    135.84405   -29394.704   -28754.431 
  101600    297.09155   -29230.453    141.69176   -29372.145    3797.5824 
  101800    316.12772   -29219.177    150.77067   -29369.948    29119.853 
  102000    288.36539   -29240.915    137.52999   -29378.445   -77.633655 
  102200    305.22871   -29237.501    145.57261   -29383.074   -24594.389 
  102400    308.83355   -29219.323    147.29186   -29366.615    16618.185 
  102600    311.29645   -29236.674    148.46649   -29385.141    -4171.396 
  102800    258.44193   -29264.471    123.25861    -29387.73    20540.914 
  103000    282.80892   -29233.963    134.87995   -29368.843   -41869.352 
  103200    306.28883   -29226.681    146.07821   -29372.759   -21589.806 
  103400    300.09834   -29251.019    143.12578   -29394.145   -5477.8208 
  103600    318.54685   -29236.379    151.92443   -29388.304   -41827.302 
  103800    286.69171   -29228.177    136.73177   -29364.908     14844.65 
  104000    305.06991   -29252.011    145.49687   -29397.508   -21512.649 
  104200    284.14342   -29240.982    135.51641   -29376.499   -25611.507 
  104400    305.31815   -29238.321    145.61526   -29383.936   -11201.747 
  104600    295.61608    -29243.71    140.98806   -29384.698    33872.627 
  104800    290.75035   -29248.891    138.66745   -29387.559    8213.1628 
  105000    296.11212   -29230.425    141.22464   -29371.649   -16767.649 
  105200    286.19505   -29229.445    136.49489    -29365.94    26002.328 
  105400    286.14272   -29252.694    136.46994   -29389.164   -20354.806 
  105600     297.0304   -29233.642    141.66259   -29375.304   -14634.614 
  105800    311.20853   -29227.163    148.42456   -29375.587   -19531.927 
  106000     286.8214    -29258.25    136.79362   -29395.043   -18728.697 
  106200    284.59084   -29240.754     135.7298   -29376.484    2178.2821 
  106400    314.01626   -29232.211    149.76365   -29381.975   -3399.4832 
  106600     287.5755   -29260.484    137.15327   -29397.638    20366.777 
  106800    292.48867   -29256.389    139.49651   -29395.886    48971.961 
  107000    280.24993   -29241.398    133.65949   -29375.057    41081.703 
  107200     346.1563    -29226.57    165.09219   -29391.662   -2149.6259 
  107400    305.86293   -29228.092    145.87509   -29373.967   -13447.146 
  107600    282.92643   -29252.556    134.93599   -29387.492   -25651.563 
  107800     304.7846   -29225.493     145.3608   -29370.854    36483.646 
  108000    311.37713   -29225.896    148.50497   -29374.401   -51114.103 
  108200    304.47754   -29246.863    145.21436   -29392.077    6888.0675 
  108400    267.93582   -29269.711    127.78653   -29397.497   -29027.217 
  108600    319.02633   -29229.832     152.1531   -29381.985    59162.883 
  108800    319.78145   -29224.906    152.51324   -29377.419   -1142.4248 
  109000    292.09571   -29251.425    139.30909   -29390.734    35636.163 
  109200     328.9932   -29224.981     156.9066   -29381.888   -15791.104 
  109400    323.36597   -29230.903     154.2228   -29385.126   -35682.301 
  109600    298.74619   -29249.496     142.4809   -29391.977   -26293.455 
  109800    298.86078   -29228.932    142.53555   -29371.467   -49602.547 
  110000    333.58466   -29210.764     159.0964    -29369.86    29386.377 
  110200    264.77332    -29237.32    126.27824   -29363.598    10716.268 
  110400    315.22891   -29251.732      150.342   -29402.074   -34345.004 
  110600    315.83145   -29222.806    150.62937   -29373.436   -17979.512 
  110800    291.32175   -29233.222    138.93997   -29372.162   -21251.771 
  111000    334.91656   -29250.732    159.73162   -29410.464    13085.103 
  111200    308.33458   -29238.694    147.05389   -29385.748    8495.4434 
  111400    352.52336   -29219.131    168.12883    -29387.26    12452.254 
  111600    322.37243   -29213.797    153.74895   -29367.546    436.18646 
  111800    287.86633   -29243.153    137.29198   -29380.444    21716.404 
  112000    283.89971   -29231.276    135.40018   -29366.677    15750.125 
  112200    309.89176   -29215.155    147.79655   -29362.952     14090.03 
  112400    283.85584   -29239.406    135.37926   -29374.786    20531.787 
  112600    300.24326    -29233.17     143.1949   -29376.365   -36047.466 
  112800    340.28541   -29209.716    162.29219   -29372.008    16955.828 
  113000    304.59802   -29229.918    145.27181    -29375.19   -69920.685 
  113200    289.61903   -29238.888    138.12789   -29377.016    16957.401 
  113400     315.0221    -29206.06    150.24337   -29356.303   -26390.855 
  113600    277.80052   -29239.781    132.49129   -29372.272    38096.364 
  113800     293.2995    -29239.36    139.88322   -29379.243   -4617.4808 
  114000    292.70841   -29220.623    139.60131   -29360.224    40860.401 
  114200    276.35615   -29248.198    131.80243       -29380    10882.584 
  114400    314.50347   -29239.511    149.99602   -29389.507    7934.5606 
  114600    327.70266   -29220.692     156.2911   -29376.983    15647.995 
  114800    314.05794   -29235.087    149.78353   -29384.871   -15681.673 
  115000    291.56661    -29259.92    139.05675   -29398.976    10062.636 
  115200    309.87891    -29253.06    147.79043    -29400.85    16323.306 
  115400    306.22333   -29231.373    146.04697    -29377.42   -901.39322 
  115600    324.00074   -29237.246    154.52554   -29391.772   -7992.8356 
  115800    271.71512   -29253.968    129.58899   -29383.557   -33952.975 
  116000    316.61434   -29219.155    151.00276   -29370.158   -68903.171 
  116200    280.00093   -29234.259    133.54073     -29367.8    34788.003 
  116400    276.01153   -29259.933    131.63807   -29391.571   -16831.903 
  116600    284.96553   -29247.825     135.9085   -29383.733    15988.062 
  116800    313.72039   -29227.735    149.62254   -29377.358    -5042.423 
  117000    280.28265   -29256.106    133.67509   -29389.781   -16855.868 
  117200    296.61822   -29250.558    141.46601   -29392.024     38228.63 
  117400    268.11287   -29241.753    127.87097   -29369.624    17794.779 
  117600    262.92125   -29245.945    125.39493    -29371.34   -18599.143 
  117800    310.01664    -29241.75    147.85611   -29389.606   -5006.4502 
  118000    306.59936   -29238.406    146.22631   -29384.632   -12111.414 
  118200    287.56441   -29263.031    137.14798   -29400.179    1120.0143 
  118400    310.69448   -29229.673     148.1794   -29377.852     10692.33 
  118600    309.24471   -29242.542    147.48796    -29390.03   -5548.9309 
  118800      289.837   -29252.622    138.23185   -29390.854    40945.495 
  119000    312.04207   -29215.095     148.8221   -29363.917    17337.834 
  119200      313.715    -29230.37    149.61997    -29379.99   -13549.942 
  119400    278.79759   -29249.311    132.96682   -29382.277   -23037.826 
  119600     287.6329   -29216.777    137.18064   -29353.957    4762.0039 
  119800    292.26454   -29230.119    139.38961   -29369.509   -13886.653 
  120000    279.67352   -29240.822    133.38458   -29374.206   -30002.101 
  120200    308.54817   -29213.189    147.15576   -29360.345   -17403.424 
  120400    299.45875    -29234.48    142.82075   -29377.301   -25284.056 
  120600     303.1619    -29242.81    144.58689   -29387.397   -7557.9481 
  120800    308.28153   -29229.078    147.02859   -29376.107   -21096.121 
  121000    284.33851   -29240.568    135.60946   -29376.178    10541.561 
  121200    297.60994   -29255.189    141.93899   -29397.128    41145.517 
  121400    317.31036   -29221.281     151.3347   -29372.616    21583.686 
  121600      297.803   -29240.821    142.03107   -29382.852    14687.932 
  121800     291.4786   -29243.533    139.01477   -29382.548    44.056499 
  122000    349.14703   -29208.838    166.51856   -29375.356   -53794.883 
  122200    307.56001   -29237.635    146.68448    -29384.32   -51425.022 
  122400    301.90871   -29230.935     143.9892   -29374.924     42149.79 
  122600     338.0173    -29220.24    161.21046   -29381.451     51603.63 
  122800    304.56532   -29249.095    145.25622   -29394.351   -18169.642 
  123000    307.48816    -29224.29    146.65021    -29370.94   -26528.342 
  123200    303.57862   -29253.455    144.78563   -29398.241   -18906.841 
  123400     285.6819   -29244.099    136.25016   -29380.349   -34402.435 
  123600     308.9109     -29226.1    147.32875   -29373.429   -27467.207 
  123800    275.44158    -29259.61    131.36625   -29390.976    21183.805 
  124000    297.39664    -29249.13    141.83726   -29390.967    9605.4943 
  124200    294.19436   -29235.994       140.31   -29376.304    -41981.12 
  124400    310.23045   -29223.989    147.95809   -29371.947   -19828.319 
  124600    314.36874   -29228.934    149.93176   -29378.866    20150.294 
  124800    280.72938   -29252.206    133.88815   -29386.094     10854.94 
  125000    316.71168   -29222.944    151.04918   -29373.994    18595.393 
  125200    329.61635    -29229.53     157.2038   -29386.734   -16464.047 
  125400    278.07887   -29246.565    132.62405   -29379.189   -8322.4591 
  125600    312.11186   -29211.137    148.85539   -29359.992    9514.1439 
  125800    310.96448   -29230.236    148.30817   -29378.544   -36905.564 
  126000    260.43948   -29240.264     124.2113   -29364.476    29682.639 
  126200     321.5644   -29200.747    153.36359    -29354.11   -2356.3334 
  126400    332.69826   -29217.754    158.67365   -29376.427   -30844.728 
  126600    319.55452   -29238.723    152.40501   -29391.128   -28189.795 
  126800    290.17642   -29214.893    138.39373   -29353.286   -11657.725 
  127000    313.99496   -29217.781    149.75349   -29367.534   -129.69523 
  127200    299.77649   -29234.638    142.97228    -29377.61   -25743.229 
  127400     328.5899   -29226.092    156.71425   -29382.807   -25642.582 
  127600    341.73448   -29200.976    162.98329   -29363.959   -13365.828 
  127800    312.86202   -29234.682    149.21316   -29383.895    -12956.45 
  128000    289.56665   -29245.782    138.10291   -29383.885   -36920.992 
  128200    283.27081   -29252.742    135.10023   -29387.843   -7386.3559 
  128400    319.40346   -29227.575    152.33297   -29379.908    4084.6966 
  128600     311.1544   -29239.838    148.39875   -29388.237   -17243.177 
  128800    282.59765   -29251.911    134.77919    -29386.69    22215.183 
  129000    323.37962   -29229.124    154.22931   -29383.354   -23352.296 
  129200    305.48084   -29237.708    145.69286   -29383.401   -15124.387 
  129400    280.01044   -29255.515    133.54527    -29389.06    23949.657 
  129600    296.40845   -29226.335    141.36597   -29367.701    20854.024 
  129800    285.80152   -29237.938    136.30721   -29374.245    39504.734 
  130000    285.40011   -29256.179    136.11576   -29392.295    29211.741 
  130200    280.19465   -29240.823    133.63312   -29374.457    48245.384 
  130400    282.11463   -29226.182    134.54882   -29360.731   -26568.012 
  130600    276.72957   -29255.122    131.98052   -29387.103   -54951.817 
  130800    305.79611    -29240.35    145.84322   -29386.193    319.05624 
  131000    304.17177   -29233.445    145.06852   -29378.513   -42703.214 
  131200    292.45602   -29233.428    139.48093   -29372.909    14678.217 
  131400    304.04944   -29244.682    145.01018   -29389.692    2652.7744 
  131600    279.26608   -29253.418    133.19026   -29386.609   -13457.528 
  131800     311.5898     -29223.9     148.6064   -29372.506    7933.8522 
  132000    255.12895    -29248.47    121.67855   -29370.149    27316.425 
  132200    286.78766   -29245.614    136.77753   -29382.392    49853.645 
  132400     298.1159   -29233.015     142.1803   -29375.195   -42271.029 
  132600    355.16312   -29211.289    169.38781   -29380.677   -2768.5682 
  132800    302.35362   -29236.028     144.2014   -29380.229   -15340.301 
  133000    298.37421   -29237.153    142.30349   -29379.456    14632.576 
  133200    320.28727   -29211.532    152.75448   -29364.287   -50859.613 
  133400    319.02491   -29224.004    152.15242   -29376.156    15242.082 
  133600    282.77073   -29240.772    134.86173   -29375.634   -28303.186 
  133800    258.49284   -29256.888    123.28289   -29380.171    36687.868 
  134000    307.40022   -29228.422    146.60827    -29375.03   -13372.165 
  134200     306.9423   -29241.929    146.38987   -29388.319   -4948.1262 
  134400    263.15625   -29252.563    125.50701    -29378.07   -5840.1092 
  134600    306.04922   -29223.881    145.96393   -29369.845    10595.844 
  134800    283.63978   -29249.792    135.27621   -29385.068   -704.28505 
  135000    329.76964   -29224.736    157.27691   -29382.012    5456.4053 
  135200    300.81973   -29226.162    143.46984   -29369.632    22793.904 
  135400    310.86046   -29244.764    148.25856   -29393.023    8526.2321 
  135600    300.35886   -29227.288    143.25003   -29370.538   -50772.312 
  135800    298.79329   -29224.246    142.50337    -29366.75     18363.64 
  136000    302.76419   -29239.048    144.39721   -29383.446    19221.961 
  136200    291.95995   -29220.032    139.24435   -29359.277    7851.1966 
  136400    320.10918   -29202.633    152.66955   -29355.303   -37579.255 
  136600    314.10131   -29237.801    149.80421   -29387.605     23774.08 
  136800    297.26155   -29216.582    141.77284   -29358.355    30535.992 
  137000    311.08374   -29235.606    148.36505   -29383.971   -35351.055 
  137200     273.4798   -29240.081    130.43061   -29370.512    37229.131 
  137400     330.5923    -29218.37    157.66925   -29376.039    -7219.129 
  137600    265.28991   -29255.525    126.52461   -29382.049    14808.348 
  137800    296.41768   -29234.056    141.37037   -29375.427    35632.284 
  138000    310.02952   -29229.891    147.86226   -29377.753    10315.622 
  138200    258.06992   -29266.679    123.08118    -29389.76   -3306.0194 
  138400    302.40543   -29245.894     144.2261    -29390.12    26417.763 
  138600    306.45847   -29239.472    146.15912   -29385.632    10849.449 
  138800    286.12442   -29247.194    136.46121   -29383.655    5006.2963 
  139000    277.78523   -29248.905      132.484   -29381.389   -34199.864 
  139200     312.7746   -29230.127    149.17147   -29379.299   -34222.496 
  139400    290.18641   -29221.732    138.39849    -29360.13   -8532.3311 
  139600    301.74098   -29250.029    143.90921   -29393.938   -37268.647 
  139800    314.80713   -29223.202    150.14084   -29373.343     49753.85 
  140000    316.21726   -29223.767    150.81337   -29374.581   -4096.3589 
  140200    298.99788   -29232.353    142.60094   -29374.954   -13119.177 
  140400    290.43206    -29227.27    138.51565   -29365.785    41548.242 
  140600    328.30101   -29210.362    156.57647   -29366.938   -42.435687 
  140800    308.97025   -29244.547    147.35706   -29391.904   -51874.855 
  141000    288.29091     -29234.6    137.49447   -29372.094    620.75357 
  141200     326.6627   -29216.651    155.79511   -29372.446    35102.404 
  141400    274.63773   -29250.816    130.98286   -29381.799   -21765.823 
  141600    320.74915   -29231.957    152.97476   -29384.932    28814.982 
  141800    283.76242   -29239.675     135.3347    -29375.01   -3441.4207 
  142000    295.37454   -29254.331    140.87286   -29395.204    26107.898 
  142200    318.43202   -29222.941    151.86966    -29374.81   -18569.772 
  142400    299.57958   -29234.178    142.87837   -29377.056    -13944.63 
  142600    285.09662   -29243.347    135.97102   -29379.318    11753.183 
  142800    298.12816   -29224.775    142.18615   -29366.961   -16468.076 
  143000    284.73293   -29244.493    135.79756   -29380.291   -1277.3215 
  143200    308.87388   -29241.431     147.3111   -29388.743   -11195.636 
  143400    317.74243   -29226.309    151.54077    -29377.85    -15954.02 
  143600    286.49043   -29243.651    136.63577   -29380.287    7204.9929 
  143800    338.02402   -29215.392    161.21366   -29376.606    14328.566 
  144000    330.20962   -29228.698    157.48674   -29386.185    14956.798 
  144200     301.4955   -29230.427    143.79213   -29374.219   -34603.239 
  144400    338.57652   -29221.036    161.47717   -29382.513    8954.1234 
  144600    283.97416   -29253.311    135.43569   -29388.747    7147.2299 
  144800    251.69096   -29228.557    120.03887   -29348.596    19006.643 
  145000    300.75239   -29235.611    143.43772   -29379.049   -12487.884 
  145200    293.47962   -29247.368    139.96912   -29387.337   -26911.267 
  145400    285.86378   -29238.153     136.3369    -29374.49   -17552.689 
  145600     327.3645   -29239.768    156.12982   -29395.898    72209.329 
  145800    250.84564   -29259.927    119.63571   -29379.563   -33095.269 
  146000    317.08931   -29226.439    151.22928   -29377.668   -27714.421 
  146200    287.91029   -29248.577    137.31294    -29385.89   -36501.754 
  146400    285.88714   -29247.211    136.34804   -29383.559   -13945.256 
  146600     297.2306   -29234.479    141.75807   -29376.237   -25640.925 
  146800    309.14594   -29233.073    147.44085   -29380.514    24589.774 
  147000    261.96601   -29257.736    124.93935   -29382.676    28370.688 
  147200    291.45479   -29225.901    139.00342   -29364.904   -5611.7425 
  147400    298.81192   -29239.869    142.51225   -29382.381   -15214.075 
  147600    316.01834   -29249.954     150.7185   -29400.673     -2110.35 
  147800    324.87383   -29217.682    154.94195   -29372.624   -724.82335 
  148000    278.38043   -29247.792    132.76787    -29380.56    4598.7938 
  148200    285.13667   -29243.327    135.99012   -29379.317    -234.7771 
  148400    306.41379   -29231.848    146.13781   -29377.986    41373.904 
  148600    310.21559   -29227.106      147.951   -29375.057   -16317.553 
  148800    291.45688   -29253.422    139.00442   -29392.427    26070.765 
  149000    335.12117   -29226.298    159.82921   -29386.128    51579.289 
  149200    296.30118   -29225.396    141.31481    -29366.71    145.44555 
  149400    307.17709   -29240.947    146.50185   -29387.449   -2055.3857 
  149600    287.42731   -29243.443     137.0826   -29380.526    13264.334 
  149800    306.43296   -29215.696    146.14695   -29361.843   -49114.616 
  150000    286.45371   -29235.532    136.61826    -29372.15    39410.297 
  150200    294.50506   -29243.437    140.45818   -29383.895   -20953.196 
  150400    312.58272     -29226.3    149.07995    -29375.38    28985.369 
  150600    290.49197   -29231.358    138.54422   -29369.902    66783.122 
  150800    280.14664   -29247.775    133.61023   -29381.386    36320.842 
  151000    307.81958   -29225.642    146.80827    -29372.45    4172.8538 
  151200    284.71834   -29224.115    135.79061   -29359.906    26190.007 
  151400    283.04312   -29246.261    134.99164   -29381.252    19050.493 
  151600    281.61422   -29236.241    134.31016   -29370.551    14432.231 
  151800    309.26511   -29227.654    147.49769   -29375.152   -27361.502 
  152000    277.39978   -29239.988    132.30017   -29372.288   -20494.084 
  152200    283.15528   -29254.139    135.04513   -29389.184     12315.05 
  152400    299.12782   -29223.564    142.66291   -29366.227   -11899.943 
  152600    304.05346   -29243.741     145.0121   -29388.754    6351.8349 
  152800    301.07245   -29239.569    143.59036    -29383.16   -45844.921 
  153000    307.00781   -29219.555    146.42112   -29365.976   -9375.0213 
  153200    299.29422   -29245.843    142.74227   -29388.585   -30151.175 
  153400    308.01345   -29236.327    146.90074   -29383.228   -13820.156 
  153600    309.00813   -29216.544    147.37512    -29363.92    -54.58822 
  153800    312.70327   -29237.104    149.13745   -29386.241    32826.614 
  154000    315.70744   -29239.093    150.57022   -29389.663    13302.377 
  154200    307.11715    -29219.27    146.47326   -29365.743    -11398.71 
  154400    295.78779   -29247.754    141.06995   -29388.824   -17254.439 
  154600     307.8899   -29245.846    146.84181   -29392.688   -6658.2294 
  154800    331.42781     -29214.7    158.06774   -29372.768   -3710.1531 
  155000    320.90572   -29237.478    153.04944   -29390.527   -6835.8889 
  155200    278.20986   -29255.081    132.68652   -29387.767    30581.549 
  155400    303.96962   -29242.269    144.97211   -29387.241    1206.4769 
  155600    323.49899   -29235.625    154.28625   -29389.911   -21871.513 
  155800    305.10812   -29257.679     145.5151   -29403.195    2432.4738 
  156000    302.48586   -29237.319    144.26446   -29381.584    11141.418 
  156200    283.91655   -29259.813    135.40821   -29395.221   -8457.4973 
  156400    290.40029    -29254.79     138.5005   -29393.291   -17317.636 
  156600    292.74583   -29238.289    139.61915   -29377.908   -28563.171 
  156800    300.60126   -29247.048    143.36564   -29390.414    12134.285 
  157000    302.06473   -29263.317    144.06361    -29407.38   -28127.219 
  157200    312.17113   -29233.853    148.88366   -29382.737    18427.593 
  157400    305.72431   -29243.833    145.80898   -29389.642   -2980.7362 
  157600    259.91234   -29275.515    123.95989   -29399.475   -26396.667 
  157800    279.51863     -29251.9    133.31071   -29385.211   -23200.491 
  158000    321.59899   -29236.328    153.38008   -29389.708    36471.147 
  158200    309.55025   -29248.496    147.63368    -29396.13   -10715.606 
  158400    296.30328   -29260.221    141.31581   -29401.537    39537.336 
  158600    288.40216   -29239.224    137.54753   -29376.771    37799.971 
  158800     299.2089   -29244.808    142.70158   -29387.509   -44678.515 
  159000    292.91859    -29268.87    139.70155   -29408.571    2397.5611 
  159200    307.14369    -29233.51    146.48592   -29379.995   -14920.612 
  159400    305.40479   -29232.797    145.65659   -29378.454    26725.782 
  159600    284.04773   -29250.441    135.47077   -29385.912    5151.0094 
  159800    278.96006   -29220.103    133.04431   -29353.147    22051.752 
  160000    311.80376   -29232.028    148.70844   -29380.737   -3839.0971 
  160200    294.60873   -29240.431    140.50762   -29380.938    27186.575 
  160400    290.65866   -29228.188    138.62372   -29366.811   -5556.1749 
  160600    339.43064   -29218.756    161.88452   -29380.641    41913.932 
  160800    279.23336   -29251.707    133.17466   -29384.882   -20230.597 
  161000    333.79018   -29227.694    159.19442   -29386.888   -28370.452 
  161200    288.52514   -29232.132    137.60618   -29369.738   -2303.3219 
  161400    318.93393   -29238.071    152.10903    -29390.18   -23964.657 
  161600    284.47376   -29223.171    135.67396   -29358.845    18199.436 
  161800    324.58661   -29224.422    154.80496   -29379.227     9590.344 
  162000    277.03812   -29246.901    132.12768   -29379.028    44326.293 
  162200    322.29685   -29214.394    153.71291   -29368.106    9479.4683 
  162400    297.80133   -29226.352    142.03027   -29368.383    -19120.35 
  162600    287.86049   -29241.784    137.28919   -29379.074    38800.364 
  162800    327.66447   -29205.893    156.27289   -29362.166    35163.455 
  163000    338.35551   -29230.732    161.37176   -29392.104      2326.76 
  163200    287.78885   -29241.472    137.25502   -29378.727   -9387.6483 
  163400    320.77101   -29245.382    152.98519   -29398.367     7464.719 
  163600    271.87816   -29252.908    129.66674   -29382.575    27513.543 
  163800    301.51342   -29229.273    143.80068   -29373.073    34443.919 
  164000    267.62166   -29261.242    127.63669   -29388.878    50183.951 
  164200    310.37425   -29247.469    148.02667   -29395.495   -9407.9102 
  164400     322.5133   -29237.571    153.81614   -29391.387   -15019.356 
  164600    298.33548   -29244.412    142.28502   -29386.697   -21323.151 
  164800     280.9968   -29244.166    134.01569   -29378.182   -22669.748 
  165000    339.08537   -29211.844    161.71985   -29373.563    17918.242 
  165200     293.6857   -29245.088     140.0674   -29385.156    58468.145 
  165400    313.68299   -29240.723     149.6047   -29390.328    17561.246 
  165600    341.03147   -29230.912    162.64801   -29393.561    59841.177 
  165800    281.04648   -29261.336    134.03939   -29395.375    4784.7364 
  166000    308.97762   -29240.474    147.36057   -29387.835   -6488.6541 
  166200    310.87299   -29239.347    148.26453   -29387.611    3879.9951 
  166400    297.56081   -29255.366    141.91556   -29397.281   -12903.415 
  166600    294.40572   -29269.728    140.41081   -29410.139    116.03394 
  166800    264.05251   -29276.071    125.93446   -29402.005    69116.928 
  167000     310.0956   -29248.364    147.89377   -29396.258   -25745.626 
  167200     287.5709   -29249.722    137.15108   -29386.873   -15073.926 
  167400    281.10653   -29270.798    134.06803   -29404.866    9307.2429 
  167600    276.80157   -29236.865    132.01486    -29368.88   -8704.4595 
  167800    301.14706   -29241.646    143.62595   -29385.272   -75471.556 
  168000    272.86273   -29262.088    130.13632   -29392.224    45565.809 
  168200    330.87865   -29225.529    157.80582   -29383.335   -42392.407 
  168400      285.331   -29243.569     136.0828   -29379.652    23689.878 
  168600    271.42119   -29252.842     129.4488   -29382.291    504.37861 
  168800    313.87012   -29221.995    149.69395   -29371.689     41007.82 
  169000    282.46337   -29249.005    134.71515   -29383.721    26775.067 
  169200    297.96917   -29249.481    142.11032   -29391.592   -4702.6707 
  169400    297.02637   -29240.652    141.66067   -29382.313   -31667.228 
  169600    311.15666   -29244.195    148.39982   -29392.595    2119.4344 
  169800    302.25268   -29242.415    144.15325   -29386.569    37670.682 
  170000    314.72189   -29223.988    150.10019   -29374.088   -4908.9684 
  170200    287.21415   -29231.685    136.98093   -29368.666   -16811.366 
  170400    270.75333   -29246.489    129.13028   -29375.619   -14973.935 
  170600    312.09226   -29212.957    148.84604   -29361.803    13158.256 
  170800    342.54395   -29216.519    163.36935   -29379.888    3034.4794 
  171000    302.73703   -29238.037    144.38425   -29382.421    -32152.49 
  171200    267.24599   -29235.395    127.45752   -29362.853    54385.468 
  171400    316.32581   -29212.475    150.86514   -29363.341   -3126.7099 
  171600    314.23901   -29233.131    149.86989   -29383.001    12942.119 
  171800    288.74527   -29240.208    137.71117    -29377.92   -11377.857 
  172000    255.48718   -29270.609     121.8494   -29392.459    28302.659 
  172200    329.78294   -29239.136    157.28325   -29396.419   -4155.5642 
  172400    310.65244   -29246.839    148.15935   -29394.998   -12213.747 
  172600    277.21099    -29260.03    132.21013    -29392.24    23547.105 
  172800    307.87379   -29227.728    146.83412   -29374.562    53975.011 
  173000    292.65229   -29249.387    139.57454   -29388.961    22127.102 
  173200    277.77417    -29258.67    132.47873   -29391.148    14935.746 
  173400    317.84596   -29225.109    151.59015   -29376.699   -21811.372 
  173600    294.88124   -29244.922    140.63759    -29385.56   -12419.174 
  173800    288.86198   -29235.225    137.76683   -29372.992   -40407.612 
  174000      327.332   -29218.506    156.11432   -29374.621     33950.96 
  174200    295.35904   -29237.065    140.86547   -29377.931    22543.543 
  174400    316.26828   -29234.236    150.83771   -29385.074   -31271.344 
  174600    285.08361    -29254.59    135.96481   -29390.555   -3825.6689 
  174800    291.41628   -29250.838    138.98505   -29389.823   -28116.796 
  175000    293.71951   -29237.099    140.08353   -29377.183   -28966.694 
  175200    289.69775   -29252.847    138.16543   -29391.012    17843.267 
  175400    257.20011     -29275.6    122.66635   -29398.266    3305.2184 
  175600    315.60289   -29242.755    150.52036   -29393.275    3318.9651 
  175800    314.27846   -29231.635     149.8887   -29381.524    24580.522 
  176000    275.21434   -29256.122    131.25787    -29387.38   -7456.7963 
  176200    307.74741   -29244.993    146.77385   -29391.767    28397.223 
  176400    304.67263   -29230.448     145.3074   -29375.755    15403.017 
  176600    312.84031   -29239.966    149.20281   -29389.169    31575.388 
  176800    270.13287   -29254.554    128.83436   -29383.388   -38142.809 
  177000    299.48322   -29221.674    142.83242   -29364.507   -21342.369 
  177200    299.57333   -29232.653    142.87539   -29375.528   -1319.6948 
  177400      274.628   -29254.178    130.97823   -29385.157     36641.31 
  177600    317.40142   -29220.136    151.37814   -29371.514   -14111.841 
  177800    305.99272   -29244.908    145.93699   -29390.845   -37263.793 
  178000    280.35232   -29243.014    133.70832   -29376.722   -18167.532 
  178200    291.47204   -29220.019    139.01165    -29359.03   -6216.4531 
  178400    320.40795   -29249.451    152.81204   -29402.263    -15076.05 
  178600    297.72338   -29245.257    141.99309    -29387.25    18585.082 
  178800    303.88085   -29221.863    144.92978   -29366.793    19139.539 
  179000    283.07927    -29245.58    135.00889   -29380.588    560.39951 
  179200    312.23327   -29246.645    148.91329   -29395.558    8694.7646 
[...]
  950000    302.14862   -29237.631    144.10362   -29381.735     57785.04 
  950200    304.58483   -29234.782    145.26552   -29380.047    5451.9628 
  950400    268.27481   -29263.787     127.9482   -29391.735    32879.542 
  950600    295.90648   -29235.152    141.12656   -29376.279    24630.004 
  950800    293.38449   -29233.347    139.92375   -29373.271    30529.469 
  951000    257.56889   -29264.785    122.84223   -29387.627    24349.834 
  951200    277.54118   -29253.206     132.3676   -29385.574   -29220.581 
  951400    309.65797   -29235.521    147.68505   -29383.206   -3921.7742 
  951600    293.17701   -29232.433     139.8248   -29372.257   -12144.389 
  951800    280.62963   -29263.048    133.84058   -29396.889   -1780.0308 
  952000    298.84466   -29233.303    142.52786    -29375.83    -28825.49 
  952200    319.19811   -29239.167    152.23503   -29391.402    8587.5783 
  952400    282.23012   -29257.459     134.6039   -29392.063   -7374.3203 
  952600     284.7168   -29239.798    135.78987   -29375.588    -18027.23 
  952800    288.84413   -29234.699    137.75832   -29372.457    27315.524 
  953000    281.54519   -29258.967    134.27724   -29393.244   -39995.311 
  953200    283.71618    -29247.63    135.31265   -29382.942    -2443.089 
  953400    279.65626   -29236.754    133.37635    -29370.13   -18732.757 
  953600    309.55635   -29256.745    147.63659   -29404.381   -9485.3932 
  953800    275.21133   -29254.727    131.25643   -29385.983   -26435.984 
  954000    303.12048   -29233.472    144.56713   -29378.039    3174.6871 
  954200    286.19747   -29261.252    136.49605   -29397.748   -13573.929 
  954400    299.73425    -29252.58    142.95214   -29395.532   -7123.1388 
  954600    290.91364   -29232.077    138.74533   -29370.822    46559.917 
  954800    260.58287   -29252.769    124.27969   -29377.049    40861.947 
  955000    294.52459   -29247.356     140.4675   -29387.823    -31276.28 
  955200    322.26819   -29223.559    153.69924   -29377.258   -33345.104 
  955400    282.55665   -29251.996    134.75963   -29386.756   -12697.388 
  955600    273.19491   -29243.435    130.29474   -29373.729   -22604.122 
  955800    312.42112    -29230.76    149.00288   -29379.763   -32752.854 
  956000    320.93032    -29211.57    153.06117   -29364.632    7182.6469 
  956200    309.10242   -29242.149     147.4201   -29389.569   -10683.154 
  956400     299.3699   -29243.739    142.77837   -29386.517    18903.776 
  956600    346.50505   -29209.299    165.25852   -29374.557   -22629.081 
  956800    291.94881   -29247.813    139.23903   -29387.052    27940.712 
  957000    301.43883   -29241.548     143.7651   -29385.313   -4383.4625 
  957200    304.35183   -29234.701     145.1544   -29379.856    26.880132 
  957400    297.64866    -29249.37    141.95746   -29391.328    17256.332 
  957600    297.38271   -29246.423    141.83062   -29388.253   -28233.382 
  957800    310.91901   -29221.061    148.28648   -29369.348    -4197.615 
  958000    293.01314   -29253.307    139.74664   -29393.053    17289.855 
  958200     291.2108   -29255.083    138.88705    -29393.97   -22063.052 
  958400    334.98746   -29230.961    159.76544   -29390.726    19305.081 
  958600    286.72587   -29251.408    136.74805   -29388.156    12059.301 
  958800    307.09738   -29260.371    146.46383   -29406.835   -18199.142 
  959000    312.34901   -29231.887    148.96849   -29380.856   -23011.355 
  959200    293.05448   -29243.207    139.76636   -29382.973    39992.479 
  959400    290.06195   -29257.942    138.33913   -29396.281    792.62245 
  959600    293.56582   -29264.605    140.01023   -29404.615    26354.882 
  959800    295.77944   -29233.957    141.06597   -29375.023     14061.23 
  960000     282.5683   -29252.646    134.76519   -29387.411   -382.49875 
  960200    283.68027    -29261.73    135.29552   -29397.026   -9228.0482 
  960400    312.33959   -29244.304      148.964   -29393.268   -2566.3175 
  960600    293.01319   -29235.714    139.74666   -29375.461    -14061.61 
  960800    285.46162   -29237.733     136.1451   -29373.878   -843.94932 
  961000    299.88328   -29254.611    143.02322   -29397.634   -1902.6727 
  961200     297.9834   -29253.419    142.11711   -29395.536    5771.3683 
  961400    325.03192   -29227.248    155.01735   -29382.265    24662.748 
  961600    276.53879   -29253.361    131.88954   -29385.251    26797.272 
  961800    318.37865   -29240.572     151.8442   -29392.416    9177.7894 
  962000     301.2545   -29226.084    143.67719   -29369.761   -6453.2061 
  962200    307.06438   -29250.306     146.4481   -29396.754    24583.296 
  962400    308.23826     -29220.2    147.00795   -29367.208    20327.792 
  962600    340.79565    -29227.92    162.53553   -29390.456     2528.445 
  962800    308.28959   -29246.913    147.03243   -29393.945   -24131.543 
  963000    282.85322   -29245.294    134.90108   -29380.195    2753.8023 
  963200    309.52835   -29234.447    147.62324    -29382.07   -21486.843 
  963400    299.57027   -29221.548    142.87393   -29364.422    23306.502 
  963600    282.55531   -29247.296    134.75899   -29382.055    16634.081 
  963800    287.88667   -29250.644    137.30167   -29387.946    -20268.75 
  964000    320.94506   -29218.204     153.0682   -29371.272    -7363.494 
  964200     297.4202   -29244.409     141.8485   -29386.258    2150.6906 
  964400    306.01744   -29241.539    145.94878   -29387.487    117.30676 
  964600    332.68931   -29213.212    158.66938   -29371.881    19500.036 
  964800    315.87707   -29236.957    150.65113   -29387.608    19216.334 
  965000     275.7308   -29250.884    131.50418   -29382.388    23145.504 
  965200    268.99899   -29263.155    128.29358   -29391.449     49162.33 
  965400    326.22683    -29231.55    155.58723   -29387.137    -73476.22 
  965600    291.44232   -29251.262    138.99747    -29390.26    1214.6252 
  965800    279.71296   -29257.944    133.40339   -29391.347    30170.459 
  966000    321.03667   -29246.046    153.11189   -29399.158    -27730.24 
  966200    289.29524   -29241.262    137.97347   -29379.236   -5094.5053 
  966400    281.86017   -29266.507    134.42746   -29400.934    55393.165 
  966600    310.71859   -29236.772     148.1909   -29384.963   -24607.758 
  966800    307.14209   -29246.458    146.48516   -29392.943   -17171.132 
  967000    283.36507   -29254.137    135.14519   -29389.282    17460.607 
  967200     318.6898   -29231.741     151.9926   -29383.734    1596.9358 
  967400    289.91776   -29237.283    138.27036   -29375.553    384.22056 
  967600    268.23102   -29259.702    127.92731   -29387.629    745.49815 
  967800    337.45752   -29229.087    160.94348    -29390.03   -28306.494 
  968000    290.66078   -29239.419    138.62473   -29378.044    20412.755 
  968200    283.69641   -29248.063    135.30322   -29383.366   -33674.697 
  968400    326.40221   -29228.487    155.67088   -29384.158    15135.311 
  968600    279.28167    -29249.14     133.1977   -29382.338   -24345.836 
  968800    288.54047   -29250.407    137.61349    -29388.02    9612.4255 
  969000    308.79908   -29239.101    147.27542   -29386.377    3918.7983 
  969200    286.12174   -29243.687    136.45993   -29380.147    15622.582 
  969400    312.85402   -29241.106    149.20935   -29390.316    20674.755 
  969600    323.38184   -29226.714    154.23037   -29380.945    13252.793 
  969800    306.71852   -29253.457    146.28314    -29399.74    18941.222 
  970000     312.4283   -29235.319    149.00631   -29384.325    5731.9354 
  970200    323.98941   -29231.026    154.52014   -29385.546   -8061.0314 
  970400    287.49703   -29245.006    137.11585   -29382.122    17384.406 
  970600    283.89636   -29259.057    135.39858   -29394.455   -27049.214 
  970800    302.18752   -29228.496    144.12217   -29372.618    47102.291 
  971000    316.72314   -29233.758    151.05464   -29384.813    30079.074 
  971200    271.10143   -29258.796     129.2963   -29388.092    4238.3428 
  971400    306.95802    -29244.01    146.39737   -29390.408    25332.972 
  971600    267.36626   -29231.338    127.51488   -29358.853    38679.348 
  971800    313.67084   -29255.423    149.59891   -29405.022     5202.989 
  972000    314.34671   -29252.259    149.92125   -29402.181    4951.8758 
  972200    294.43582   -29227.274    140.42516   -29367.699      28986.8 
  972400    301.93473   -29244.138    144.00161   -29388.139   -8950.3641 
  972600    304.43666   -29248.998    145.19486   -29394.193   -26995.147 
  972800     311.8181   -29216.472    148.71528   -29365.187   -2009.2504 
  973000    319.97667   -29231.226    152.60635   -29383.832    -20546.17 
  973200    289.22644   -29245.134    137.94065   -29383.074   -4957.8818 
  973400    316.39516   -29215.365    150.89822   -29366.263    36321.387 
  973600    317.93185   -29224.816    151.63111   -29376.447    35599.133 
  973800     297.6743   -29241.748    141.96969   -29383.717   -27956.738 
  974000    279.71891   -29256.687    133.40623   -29390.093   -21185.939 
  974200    334.06859   -29227.549     159.3272   -29386.876   -9110.8204 
  974400    308.91334   -29242.643    147.32992   -29389.973     11973.02 
  974600    275.48472   -29254.255    131.38682   -29385.641    29355.818 
  974800      313.429   -29239.583    149.48357   -29389.067   -28597.306 
  975000    324.56861   -29238.609    154.79638   -29393.405   -25549.264 
  975200    304.54379   -29253.657    145.24595   -29398.903     -3844.61 
  975400    304.53501   -29234.526    145.24176   -29379.767    16669.525 
  975600    322.84271   -29236.661    153.97325   -29390.634    24624.459 
  975800    299.27384   -29256.028    142.73255   -29398.761    53934.255 
  976000    300.54958   -29234.967    143.34099   -29378.308   -3499.6622 
  976200    331.18615     -29229.5    157.95248   -29387.452   -16927.312 
  976400    298.18848   -29254.078    142.21492   -29396.293     11569.86 
  976600    330.71016   -29234.173    157.72547   -29391.899   -17907.401 
  976800    312.34126   -29226.677    148.96479   -29375.641   -12524.867 
  977000    276.51805   -29246.691    131.87965   -29378.571    17004.393 
  977200    306.54645   -29239.607    146.20108   -29385.808   -19289.153 
  977400    335.70702   -29218.757    160.10862   -29378.865   -23241.458 
  977600    309.51602   -29242.014    147.61735   -29389.631   -30135.247 
  977800    289.73832   -29247.954    138.18479   -29386.139    6078.4674 
  978000    345.71419   -29212.487    164.88133   -29377.368   -44544.437 
  978200    303.46021   -29244.415    144.72916   -29389.144   -13215.763 
  978400    296.02339   -29241.398    141.18232   -29382.581      6130.97 
  978600    310.68193   -29234.392    148.17341   -29382.566   -48627.957 
  978800    295.19715   -29247.943    140.78826   -29388.731    24423.601 
  979000    291.52207   -29257.293    139.03551   -29396.328   -13548.305 
  979200    329.28591   -29224.562     157.0462   -29381.608   -9979.9036 
  979400    304.50185   -29243.421    145.22595   -29388.647    21094.727 
  979600    279.47509   -29264.814    133.28994   -29398.104   -31300.398 
  979800    292.62595   -29262.722    139.56198   -29402.284   -11349.923 
  980000    306.40145   -29234.606    146.13193   -29380.738    114.23969 
  980200    293.30466   -29238.003    139.88568   -29377.888    10183.972 
  980400    288.70158   -29260.128    137.69033   -29397.819    2483.0717 
  980600    326.58218   -29227.226    155.75671   -29382.983    36912.708 
  980800    289.75273   -29250.696    138.19166   -29388.888   -18494.407 
  981000    277.61868   -29258.288    132.40457   -29390.693    14749.672 
  981200    336.15328   -29224.442    160.32145   -29384.763    31609.954 
  981400    297.23655   -29254.238    141.76091   -29395.999   -18841.572 
  981600    318.27545   -29247.041    151.79498   -29398.836    -30092.62 
  981800    347.83595   -29204.209    165.89326   -29370.102   -11344.894 
  982000    334.06373   -29212.837    159.32488   -29372.162   -24311.868 
  982200    297.16388   -29243.255    141.72625   -29384.981    -22974.44 
  982400     287.9297    -29253.57     137.3222   -29390.892     13226.01 
  982600    312.81542   -29218.149    149.19093    -29367.34   -39054.982 
  982800    312.30438   -29244.449    148.94721   -29393.396   -14105.214 
  983000    295.63315   -29246.886     140.9962   -29387.882    26714.152 
  983200    324.12178    -29230.48    154.58327   -29385.063   -1303.0708 
  983400    303.94716    -29210.62     144.9614   -29355.582     14019.58 
  983600    287.89896   -29244.235    137.30754   -29381.542   -9558.4932 
  983800    285.84494    -29240.39    136.32791   -29376.718    18661.321 
  984000    324.33579   -29213.234    154.68534    -29367.92    28698.135 
  984200    291.55876    -29247.45      139.053   -29386.503   -13072.981 
  984400    291.28088   -29237.415    138.92047   -29376.335    23663.601 
  984600    336.64187   -29219.101    160.55448   -29379.655    24528.886 
  984800    292.82806   -29250.665    139.65837   -29390.324   -474.74296 
  985000    307.26546   -29239.222      146.544   -29385.766    35580.898 
  985200    298.90477   -29219.633    142.55654    -29362.19   -5048.3053 
  985400    282.21716   -29242.946    134.59772   -29377.543   -27794.432 
  985600    310.70136   -29245.902    148.18268   -29394.085   -17769.484 
  985800    281.41208   -29251.204    134.21375   -29385.418    33819.827 
  986000    303.04258   -29222.422    144.52998   -29366.952    49322.991 
  986200     286.4599   -29240.644    136.62121   -29377.265    42502.953 
  986400    293.41267   -29247.618    139.93719   -29387.555    13654.765 
  986600    282.88459    -29224.04    134.91604   -29358.956   -3806.6451 
  986800    258.94817   -29254.412    123.50005   -29377.912    51684.105 
  987000    280.69388   -29244.239    133.87122    -29378.11    -9449.572 
  987200    328.67519   -29231.586    156.75493   -29388.341    10964.855 
  987400    277.83049   -29261.384    132.50559    -29393.89   -1816.8637 
  987600    250.40713   -29295.026    119.42657   -29414.452   -5537.3815 
  987800    279.36941   -29261.242    133.23954   -29394.482   -39555.293 
  988000     319.3102   -29238.778    152.28849   -29391.067   -34206.848 
  988200    283.76138       -29245    135.33421   -29380.334    48908.613 
  988400    265.08504   -29264.658     126.4269   -29391.084   -54910.741 
  988600    309.43737   -29232.425    147.57985   -29380.005   -15206.761 
  988800    271.87403   -29242.998    129.66477   -29372.663    871.48399 
  989000    274.51675   -29268.175    130.92517   -29399.101   -52382.593 
  989200    276.74648   -29253.456    131.98859   -29385.445   -13955.805 
  989400    317.30969   -29235.608    151.33439   -29386.943    28465.149 
  989600     290.7548   -29250.124    138.66957   -29388.794   -19762.772 
  989800    287.34822    -29263.87    137.04487   -29400.915   -35662.215 
  990000    320.03196   -29228.983    152.63272   -29381.616    7317.4306 
  990200    295.98785   -29249.939    141.16537   -29391.104   -24509.691 
  990400    279.60884   -29249.874    133.35373   -29383.227     30817.57 
  990600     339.3262   -29225.786    161.83471    -29387.62   -20010.257 
  990800    302.66121   -29253.028    144.34809   -29397.376   -25777.031 
  991000    312.77663   -29233.093    149.17244   -29382.266    -28212.08 
  991200    341.31877   -29224.098    162.78502   -29386.883   -2775.8779 
  991400     291.4947   -29248.888    139.02245    -29387.91   -11288.783 
  991600    294.72046   -29255.014    140.56091   -29395.575    9769.7679 
  991800    339.07772   -29221.357     161.7162   -29383.074    36335.884 
  992000    304.66207   -29245.347    145.30236   -29390.649    48589.226 
  992200    309.31067    -29253.53    147.51942   -29401.049    1406.4788 
  992400    277.27248   -29236.349    132.23946   -29368.589     34938.76 
  992600    340.52711   -29207.432    162.40746    -29369.84   -11107.475 
  992800     336.6467   -29222.789    160.55678   -29383.345    20952.283 
  993000    310.18936   -29245.555    147.93849   -29393.493   -51380.962 
  993200    306.15425   -29251.393    146.01403   -29397.407   -34070.185 
  993400    319.35297   -29219.644    152.30889   -29371.953    4645.5121 
  993600    309.66118   -29244.427    147.68658   -29392.113   -23111.403 
  993800    315.35125   -29245.644    150.40035   -29396.044    27000.654 
  994000    279.49197   -29244.477    133.29799   -29377.775   -14315.855 
  994200    326.08665   -29213.167    155.52038   -29368.687   -8987.1425 
  994400    300.15384    -29248.19    143.15225   -29391.343   -23457.892 
  994600    287.98486   -29248.886    137.34851   -29386.235   -127.01469 
  994800    329.88745   -29212.135    157.33309   -29369.468   -11484.116 
  995000     317.3892    -29239.88    151.37231   -29391.253   -7817.4365 
  995200    296.23445   -29251.668    141.28298   -29392.951   -8441.3067 
  995400    339.39897   -29235.108    161.86942   -29396.978   -15817.753 
  995600    319.63124   -29228.839     152.4416   -29381.281    -36092.96 
  995800    263.05233     -29249.7    125.45744   -29375.157    21034.973 
  996000     288.3298   -29233.329    137.51302   -29370.842    9239.9624 
  996200     345.6136   -29205.382    164.83336   -29370.215    18434.804 
  996400    290.59188    -29247.94    138.59187   -29386.532    -1272.799 
  996600    296.90965   -29238.688      141.605   -29380.293   -5887.2901 
  996800    332.22698   -29220.662    158.44888   -29379.111    22791.634 
  997000    292.63339   -29253.653    139.56553   -29393.219   -20447.342 
  997200    298.44593   -29242.828     142.3377   -29385.166   -18673.158 
  997400     320.4173    -29214.07     152.8165   -29366.887    20389.266 
  997600      290.229   -29243.395     138.4188   -29381.814    21046.327 
  997800    306.27443   -29247.866    146.07135   -29393.937    1765.8913 
  998000    307.17564   -29223.366    146.50116   -29369.867    -9802.386 
  998200     274.8999   -29262.588     131.1079   -29393.696   -15058.378 
  998400    299.08783    -29244.37    142.64384   -29387.014   -11047.369 
  998600    299.32219   -29233.068    142.75561   -29375.824   -35922.061 
  998800    256.07108   -29271.312    122.12788   -29393.439    16244.814 
  999000    276.23231   -29248.373    131.74337   -29380.117   -12481.618 
  999200    278.00008   -29232.895    132.58647   -29365.481    70243.438 
  999400    284.36756    -29258.66    135.62331   -29394.283   -8415.3573 
  999600    283.77737   -29251.536    135.34183   -29386.878    30138.916 
  999800    271.84245   -29240.343    129.64971   -29369.992   -26454.902 
 1000000    283.63947   -29252.139    135.27606   -29387.415   -17844.885 
Loop time of 22853.7 on 8 procs for 1000000 steps with 161 atoms

Performance: 0.945 ns/day, 25.393 hours/ns, 43.757 timesteps/s
99.8% CPU use with 8 MPI tasks x no OpenMP threads

MPI task timing breakdown:
Section |  min time  |  avg time  |  max time  |%varavg| %total
---------------------------------------------------------------
Pair    | 18178      | 18922      | 20121      | 374.8 | 82.80
Neigh   | 3.4361     | 3.4788     | 3.5484     |   1.8 |  0.02
Comm    | 149.77     | 1343.2     | 2093.8     |1405.8 |  5.88
Output  | 0.49622    | 0.52023    | 0.65483    |   7.1 |  0.00
Modify  | 2555       | 2562.3     | 2569.1     |  11.7 | 11.21
Other   |            | 22.01      |            |       |  0.10

Nlocal:    20.125 ave 34 max 4 min
Histogram: 1 0 2 0 0 1 0 2 0 2
Nghost:    752.375 ave 768 max 735 min
Histogram: 1 0 1 0 0 3 2 0 0 1
Neighs:    2167.38 ave 3501 max 465 min
Histogram: 1 0 2 0 0 1 0 2 0 2

Total # of neighbors = 17339
Ave neighs/atom = 107.696
Neighbor list builds = 937
Dangerous builds = 0

Please see the log.cite file for references relevant to this simulation

Total wall time: 6:22:29
