LAMMPS (3 Mar 2020)
# Alpha
clear
units		real
dimension 3
boundary        p p p
atom_style	charge
newton on
read_data       O_30.lmp
  triclinic box = (0 0 0) to (15.77 13.6581 25.747) with tilt (7.8845 0 0)
  2 by 2 by 2 MPI processor grid
  reading atoms ...
  129 atoms
  read_data CPU = 0.0147429 secs

timestep 0.25

# ---------- Define Interatomic Potential ---------------------
pair_style      reax/c NULL checkqeq no
pair_coeff      * * ffield.reax C O
fix             2 all qeq/reax 1 0.0 10.0 1.0e-6 reax/c

#------------ Equilibration of the system -------------------------
reset_timestep 0

dump 1 all custom 10 min.lammpstrj id type x y z

minimize 1.0e-8 1.0e-8 100000 100000
WARNING: Using 'neigh_modify every 1 delay 0 check yes' setting during minimization (../min.cpp:190)
WARNING: Total cutoff < 2*bond cutoff. May need to use an increased neighbor list skin. (../pair_reaxc.cpp:413)
Neighbor list info ...
  update every 1 steps, delay 0 steps, check yes
  max neighbors/atom: 2000, page size: 100000
  master list distance cutoff = 9.5
  ghost atom cutoff = 9.5
  binsize = 4.75, bins = 5 3 6
  2 neighbor lists, perpetual/occasional/extra = 2 0 0
  (1) pair reax/c, perpetual
      attributes: half, newton off, ghost
      pair build: half/bin/newtoff/ghost
      stencil: half/ghost/bin/3d/newtoff
      bin: standard
  (2) fix qeq/reax, perpetual, copy from (1)
      attributes: half, newton off, ghost
      pair build: copy
      stencil: none
      bin: none
Per MPI rank memory allocation (min/avg/max) = 16.24 | 16.8 | 17.37 Mbytes
Step Temp E_pair E_mol TotEng Press 
       0            0   -19469.404            0   -19469.404    62047.852 
     308            0   -21961.078            0   -21961.078     6294.201 
Loop time of 31.0752 on 8 procs for 308 steps with 129 atoms

99.7% CPU use with 8 MPI tasks x no OpenMP threads

Minimization stats:
  Stopping criterion = linesearch alpha is zero
  Energy initial, next-to-last, final = 
        -19469.4041452     -21961.0783911     -21961.0783911
  Force two-norm initial, final = 5176.46 23.8143
  Force max component initial, final = 1201.25 4.95421
  Final line search alpha, max atom move = 1.87986e-11 9.31323e-11
  Iterations, force evaluations = 308 2050

MPI task timing breakdown:
Section |  min time  |  avg time  |  max time  |%varavg| %total
---------------------------------------------------------------
Pair    | 19.015     | 21.695     | 23.458     |  34.6 | 69.82
Neigh   | 0          | 0          | 0          |   0.0 |  0.00
Comm    | 0.24426    | 1.9982     | 4.6934     | 114.2 |  6.43
Output  | 0.0053003  | 0.0067492  | 0.0095735  |   1.6 |  0.02
Modify  | 7.2819     | 7.2836     | 7.2895     |   0.1 | 23.44
Other   |            | 0.09136    |            |       |  0.29

Nlocal:    16.125 ave 38 max 2 min
Histogram: 2 1 1 1 1 0 0 0 0 2
Nghost:    464.5 ave 506 max 412 min
Histogram: 2 0 2 0 0 0 0 0 0 4
Neighs:    1156.75 ave 2515 max 173 min
Histogram: 2 1 1 0 2 0 0 0 0 2

Total # of neighbors = 9254
Ave neighs/atom = 71.7364
Neighbor list builds = 0
Dangerous builds = 0

###
min_style cg
minimize 1.0e-8 1.0e-8 100000 100000
WARNING: Using 'neigh_modify every 1 delay 0 check yes' setting during minimization (../min.cpp:190)
WARNING: Total cutoff < 2*bond cutoff. May need to use an increased neighbor list skin. (../pair_reaxc.cpp:413)
Per MPI rank memory allocation (min/avg/max) = 16.24 | 16.8 | 17.37 Mbytes
Step Temp E_pair E_mol TotEng Press 
     308            0   -21961.078            0   -21961.078     6294.201 
     309            0   -21961.078            0   -21961.078     6294.201 
Loop time of 0.824033 on 8 procs for 1 steps with 129 atoms

99.7% CPU use with 8 MPI tasks x no OpenMP threads

Minimization stats:
  Stopping criterion = linesearch alpha is zero
  Energy initial, next-to-last, final = 
        -21961.0783911     -21961.0783911     -21961.0783911
  Force two-norm initial, final = 23.8143 23.8143
  Force max component initial, final = 4.95421 4.95421
  Final line search alpha, max atom move = 1.87986e-11 9.31323e-11
  Iterations, force evaluations = 1 57

MPI task timing breakdown:
Section |  min time  |  avg time  |  max time  |%varavg| %total
---------------------------------------------------------------
Pair    | 0.57506    | 0.63623    | 0.67853    |   4.6 | 77.21
Neigh   | 0          | 0          | 0          |   0.0 |  0.00
Comm    | 0.0063128  | 0.04835    | 0.10992    |  16.6 |  5.87
Output  | 0          | 0          | 0          |   0.0 |  0.00
Modify  | 0.13691    | 0.13698    | 0.13715    |   0.0 | 16.62
Other   |            | 0.002475   |            |       |  0.30

Nlocal:    16.125 ave 41 max 0 min
Histogram: 2 2 0 1 1 0 0 0 1 1
Nghost:    472.875 ave 514 max 422 min
Histogram: 1 2 0 1 0 0 0 0 0 4
Neighs:    1123.5 ave 2655 max 0 min
Histogram: 1 2 1 0 1 1 0 0 1 1

Total # of neighbors = 8988
Ave neighs/atom = 69.6744
Neighbor list builds = 0
Dangerous builds = 0

###
fix 1 all box/relax aniso 0.0
min_style cg
minimize 1.0e-8 1.0e-8 100000 100000
WARNING: Using 'neigh_modify every 1 delay 0 check yes' setting during minimization (../min.cpp:190)
WARNING: Total cutoff < 2*bond cutoff. May need to use an increased neighbor list skin. (../pair_reaxc.cpp:413)
Per MPI rank memory allocation (min/avg/max) = 16.24 | 16.8 | 17.37 Mbytes
Step Temp E_pair E_mol TotEng Press Volume 
     309            0   -21961.078            0   -21961.078     6294.201    5545.5955 
     404            0    -21964.35            0    -21964.35   -2102.4415    5555.2718 
Loop time of 2.24293 on 8 procs for 95 steps with 129 atoms

99.7% CPU use with 8 MPI tasks x no OpenMP threads

Minimization stats:
  Stopping criterion = linesearch alpha is zero
  Energy initial, next-to-last, final = 
        -21961.0783911      -21964.349714      -21964.349714
  Force two-norm initial, final = 1088.6 318.154
  Force max component initial, final = 818.833 192.77
  Final line search alpha, max atom move = 8.83787e-14 1.70367e-11
  Iterations, force evaluations = 95 161

MPI task timing breakdown:
Section |  min time  |  avg time  |  max time  |%varavg| %total
---------------------------------------------------------------
Pair    | 1.5992     | 1.7764     | 1.889      |   7.6 | 79.20
Neigh   | 0          | 0          | 0          |   0.0 |  0.00
Comm    | 0.019721   | 0.13201    | 0.31005    |  28.0 |  5.89
Output  | 0.0017971  | 0.0022455  | 0.003031   |   0.8 |  0.10
Modify  | 0.31507    | 0.31529    | 0.31563    |   0.0 | 14.06
Other   |            | 0.01702    |            |       |  0.76

Nlocal:    16.125 ave 41 max 0 min
Histogram: 2 2 0 1 1 0 0 0 1 1
Nghost:    472.875 ave 514 max 422 min
Histogram: 1 2 0 1 0 0 0 0 0 4
Neighs:    1123.5 ave 2655 max 0 min
Histogram: 1 2 1 0 1 1 0 0 1 1

Total # of neighbors = 8988
Ave neighs/atom = 69.6744
Neighbor list builds = 0
Dangerous builds = 0

unfix 1
###
min_style cg
minimize 1.0e-8 1.0e-8 100000 100000
WARNING: Using 'neigh_modify every 1 delay 0 check yes' setting during minimization (../min.cpp:190)
WARNING: Total cutoff < 2*bond cutoff. May need to use an increased neighbor list skin. (../pair_reaxc.cpp:413)
Per MPI rank memory allocation (min/avg/max) = 16.24 | 16.8 | 17.37 Mbytes
Step Temp E_pair E_mol TotEng Press 
     404            0    -21964.35            0    -21964.35   -2102.4415 
     468            0   -21969.659            0   -21969.659    4886.9258 
Loop time of 6.64762 on 8 procs for 64 steps with 129 atoms

99.7% CPU use with 8 MPI tasks x no OpenMP threads

Minimization stats:
  Stopping criterion = energy tolerance
  Energy initial, next-to-last, final = 
         -21964.349714     -21969.6585666     -21969.6586362
  Force two-norm initial, final = 115.45 176.845
  Force max component initial, final = 18.8274 91.813
  Final line search alpha, max atom move = 0.000354081 0.0325092
  Iterations, force evaluations = 64 428

MPI task timing breakdown:
Section |  min time  |  avg time  |  max time  |%varavg| %total
---------------------------------------------------------------
Pair    | 4.2632     | 4.7085     | 4.988      |  11.8 | 70.83
Neigh   | 0          | 0          | 0          |   0.0 |  0.00
Comm    | 0.056089   | 0.33439    | 0.78238    |  44.3 |  5.03
Output  | 0.0010359  | 0.0012444  | 0.0017272  |   0.6 |  0.02
Modify  | 1.5837     | 1.584      | 1.585      |   0.0 | 23.83
Other   |            | 0.01953    |            |       |  0.29

Nlocal:    16.125 ave 41 max 0 min
Histogram: 2 2 0 1 1 0 0 0 1 1
Nghost:    474.375 ave 514 max 425 min
Histogram: 1 1 1 1 0 0 0 0 0 4
Neighs:    1117.38 ave 2640 max 0 min
Histogram: 1 2 1 0 1 1 0 0 1 1

Total # of neighbors = 8939
Ave neighs/atom = 69.2946
Neighbor list builds = 0
Dangerous builds = 0

###
fix 1 all box/relax aniso 0.0
min_style cg
minimize 1.0e-8 1.0e-8 100000 100000
WARNING: Using 'neigh_modify every 1 delay 0 check yes' setting during minimization (../min.cpp:190)
WARNING: Total cutoff < 2*bond cutoff. May need to use an increased neighbor list skin. (../pair_reaxc.cpp:413)
Per MPI rank memory allocation (min/avg/max) = 16.24 | 16.8 | 17.37 Mbytes
Step Temp E_pair E_mol TotEng Press Volume 
     468            0   -21969.659            0   -21969.659    4886.9258    5555.2718 
     531            0    -21971.15            0    -21971.15    1264.2631     5559.895 
Loop time of 1.87726 on 8 procs for 63 steps with 129 atoms

99.6% CPU use with 8 MPI tasks x no OpenMP threads

Minimization stats:
  Stopping criterion = linesearch alpha is zero
  Energy initial, next-to-last, final = 
        -21969.6586362     -21971.1502516     -21971.1502516
  Force two-norm initial, final = 837.584 204.348
  Force max component initial, final = 685.189 126.555
  Final line search alpha, max atom move = 2.07845e-13 2.63038e-11
  Iterations, force evaluations = 63 135

MPI task timing breakdown:
Section |  min time  |  avg time  |  max time  |%varavg| %total
---------------------------------------------------------------
Pair    | 1.3533     | 1.4915     | 1.5853     |   6.7 | 79.45
Neigh   | 0          | 0          | 0          |   0.0 |  0.00
Comm    | 0.013391   | 0.10658    | 0.24594    |  25.0 |  5.68
Output  | 0.0012867  | 0.0015619  | 0.0021002  |   0.6 |  0.08
Modify  | 0.26357    | 0.26377    | 0.26397    |   0.0 | 14.05
Other   |            | 0.01381    |            |       |  0.74

Nlocal:    16.125 ave 42 max 0 min
Histogram: 2 2 0 1 1 0 0 0 1 1
Nghost:    474.375 ave 514 max 424 min
Histogram: 1 1 1 1 0 0 0 0 0 4
Neighs:    1115.12 ave 2695 max 0 min
Histogram: 1 2 1 0 1 1 0 0 1 1

Total # of neighbors = 8921
Ave neighs/atom = 69.155
Neighbor list builds = 0
Dangerous builds = 0

unfix 1
###
min_style cg
minimize 1.0e-8 1.0e-8 100000 100000
WARNING: Using 'neigh_modify every 1 delay 0 check yes' setting during minimization (../min.cpp:190)
WARNING: Total cutoff < 2*bond cutoff. May need to use an increased neighbor list skin. (../pair_reaxc.cpp:413)
Per MPI rank memory allocation (min/avg/max) = 16.24 | 16.8 | 17.37 Mbytes
Step Temp E_pair E_mol TotEng Press 
     531            0    -21971.15            0    -21971.15    1264.2631 
     583            0   -21974.447            0   -21974.447    3964.3345 
Loop time of 6.3197 on 8 procs for 52 steps with 129 atoms

99.7% CPU use with 8 MPI tasks x no OpenMP threads

Minimization stats:
  Stopping criterion = energy tolerance
  Energy initial, next-to-last, final = 
        -21971.1502516     -21974.4468473     -21974.4468991
  Force two-norm initial, final = 96.8264 37.3179
  Force max component initial, final = 17.6543 11.8542
  Final line search alpha, max atom move = 6.55856e-05 0.000777464
  Iterations, force evaluations = 52 409

MPI task timing breakdown:
Section |  min time  |  avg time  |  max time  |%varavg| %total
---------------------------------------------------------------
Pair    | 4.0833     | 4.5031     | 4.7829     |  11.5 | 71.26
Neigh   | 0          | 0          | 0          |   0.0 |  0.00
Comm    | 0.049146   | 0.32763    | 0.75013    |  42.6 |  5.18
Output  | 0.00092201 | 0.0011586  | 0.0016054  |   0.6 |  0.02
Modify  | 1.4688     | 1.4691     | 1.4701     |   0.0 | 23.25
Other   |            | 0.01875    |            |       |  0.30

Nlocal:    16.125 ave 42 max 0 min
Histogram: 2 2 0 1 1 0 0 0 1 1
Nghost:    474.375 ave 514 max 424 min
Histogram: 1 1 1 1 0 0 0 0 0 4
Neighs:    1112.12 ave 2691 max 0 min
Histogram: 1 2 1 0 1 1 0 0 1 1

Total # of neighbors = 8897
Ave neighs/atom = 68.969
Neighbor list builds = 0
Dangerous builds = 0

undump 1
#############
#----------- Thermo ------------
reset_timestep 0
thermo  200

thermo_style    custom step temp etotal ke pe press
velocity all create 300 12345 mom yes rot yes
fix 1 all npt temp 300 300 25.0 iso 0.0 0.0 250.0

variable vpe equal pe
variable vtemp equal temp
variable vstep equal step

fix output all print 2500 "${vstep} ${vtemp} ${vpe}" file temp-tpdh-Pt.dat screen no

dump 1 all custom 2500 thermo-tpdh-Pt.lammpstrj id type x y z

run 1000000
WARNING: Total cutoff < 2*bond cutoff. May need to use an increased neighbor list skin. (../pair_reaxc.cpp:413)
Per MPI rank memory allocation (min/avg/max) = 15.13 | 15.57 | 16.26 Mbytes
Step Temp TotEng KinEng PotEng Press 
       0          300   -21859.984    114.46311   -21974.447    4905.4259 
     200    216.91451   -21818.413    82.762363   -21901.175   -7387.9953 
     400    297.17564   -21762.955    113.38549   -21876.341    5317.6816 
     600     329.4004    -21750.22    125.68064   -21875.901   -13774.671 
     800    272.39098   -21774.657    103.92906   -21878.587    11988.483 
    1000    296.81487   -21745.563    113.24784    -21858.81    11071.158 
    1200    303.55412   -21749.927    115.81916   -21865.746    713.78129 
    1400    294.55526   -21768.846     112.3857   -21881.232   -5712.8965 
    1600    317.43317   -21756.317    121.11462   -21877.432    14103.014 
    1800    338.07736   -21736.036    128.99128   -21865.027   -28614.995 
    2000    280.38738   -21762.496    106.98004   -21869.476     3502.447 
    2200    283.91604   -21747.955    108.32637   -21856.282   -1725.5593 
    2400    288.41929   -21775.041    110.04456   -21885.085   -2713.5533 
    2600    297.09156   -21768.828    113.35341   -21882.182    2587.8665 
    2800    279.24711   -21748.338    106.54497   -21854.883   -23106.281 
    3000    294.85872   -21750.468    112.50148   -21862.969   -2039.3465 
    3200    303.24111   -21758.736    115.69973   -21874.436   -5398.5511 
    3400    268.26569   -21781.349    102.35508   -21883.704   -9696.5678 
    3600    280.65813   -21780.104    107.08334   -21887.188   -3749.5564 
    3800    292.91148   -21752.308    111.75852   -21864.067    2002.3056 
    4000    330.51871   -21751.629    126.10733   -21877.737   -29569.307 
    4200    323.89257   -21744.969    123.57916   -21868.548   -12283.248 
    4400    329.91669   -21781.871    125.87763   -21907.748   -6803.7645 
    4600    315.22207   -21824.399    120.27099    -21944.67   -9361.0999 
    4800    267.96929   -21849.247    102.24199   -21951.489    90.160769 
    5000     300.8459   -21828.186    114.78585   -21942.972     20076.34 
    5200    295.54109   -21830.757    112.76184   -21943.519    4633.4762 
    5400    314.70069   -21841.295    120.07206   -21961.367    12127.143 
    5600    301.23301   -21839.938    114.93355   -21954.872   -10478.224 
    5800    292.75228   -21839.839    111.69778   -21951.537    13985.162 
    6000    268.33455   -21862.776    102.38135   -21965.157   -13664.276 
    6200     302.4639   -21834.422    115.40319   -21949.826    9685.8841 
    6400     302.7927   -21843.009    115.52864   -21958.537    -13209.04 
    6600    271.44006   -21855.018    103.56624   -21958.584   -1519.7292 
    6800    337.77454   -21824.337    128.87574   -21953.213   -17409.442 
    7000    280.42916   -21853.932    106.99598   -21960.928    17938.002 
    7200    304.76289   -21849.013    116.28035   -21965.293   -7168.7314 
    7400    313.20877   -21823.411    119.50283   -21942.913    6416.6164 
    7600    333.35568   -21838.078    127.18976   -21965.268   -6829.7807 
    7800    305.79756   -21854.616    116.67513   -21971.291   -6943.5214 
    8000    306.62383   -21830.043    116.99039   -21947.033   -1762.8371 
    8200    313.48031   -21841.023    119.60643   -21960.629    10780.238 
    8400    271.90953   -21848.102    103.74536   -21951.847    33972.551 
    8600    338.84203   -21829.861    129.28304   -21959.144   -5549.6156 
    8800    310.72459   -21850.813    118.55501   -21969.368    198.47759 
    9000    284.04199   -21865.487    108.37443   -21973.861   -14140.962 
    9200    289.18698   -21835.326    110.33747   -21945.663    7064.6783 
    9400    297.47007   -21848.755    113.49783   -21962.252   -16580.058 
    9600    282.00273   -21854.885    107.59636   -21962.482    -7803.715 
    9800    329.94353   -21835.139    125.88787   -21961.027   -8306.4402 
   10000    270.90291       -21861    103.36129   -21964.361    3546.2687 
   10200    314.62554   -21839.741    120.04339   -21959.784   -15643.997 
   10400    327.93809   -21839.547    125.12271    -21964.67   -5788.3731 
   10600    286.38673   -21851.919    109.26905   -21961.188   -10068.153 
   10800    317.34354    -21847.08    121.08043    -21968.16   -4444.0355 
   11000    298.63127   -21830.038    113.94088   -21943.979    16160.213 
   11200    281.53994   -21857.229    107.41978   -21964.649   -11740.943 
   11400    302.25705   -21845.076    115.32427   -21960.401    37577.734 
   11600    313.86933   -21839.142    119.75486   -21958.897   -22600.574 
   11800    284.32169   -21849.124    108.48115   -21957.605    14213.911 
   12000    278.49438   -21846.295    106.25777   -21952.552    17424.125 
   12200    313.19131   -21831.603    119.49617   -21951.099   -3889.5268 
   12400    268.11764   -21858.712    102.29859   -21961.011    3961.3516 
   12600    301.36637   -21850.568    114.98444   -21965.552   -931.08926 
   12800    297.62903   -21827.357    113.55848   -21940.916     3266.182 
   13000    314.07349   -21836.704    119.83276   -21956.537     12434.67 
   13200    317.97509   -21852.381    121.32139   -21973.702   -1667.4877 
   13400    287.01055   -21844.122    109.50706   -21953.629     10291.33 
   13600    293.83301   -21837.657    112.11013   -21949.767   -13747.978 
   13800    291.52774   -21857.514    111.23057   -21968.745    36415.656 
   14000    305.63323   -21847.595    116.61243   -21964.208   -10235.635 
   14200     314.5396    -21837.38     120.0106    -21957.39    15897.496 
   14400    300.34787   -21855.336    114.59583   -21969.932    12948.957 
   14600    306.36744   -21852.859    116.89256   -21969.751    18097.411 
   14800    321.16438   -21835.706    122.53824   -21958.244    1778.3952 
   15000    286.74488   -21854.161     109.4057   -21963.567    6690.2911 
   15200     270.4428   -21865.352    103.18574   -21968.538   -8492.1438 
   15400    367.11946   -21831.837    140.07211   -21971.909     20354.83 
   15600    288.92192   -21851.709    110.23634   -21961.945    17644.525 
   15800    302.42186   -21850.556    115.38715   -21965.943    15327.141 
   16000    282.58345   -21829.449    107.81793   -21937.267   -15649.955 
   16200    289.24496   -21846.027    110.35959   -21956.387    11318.419 
   16400    273.46354   -21849.493    104.33829   -21953.832   -2027.0015 
   16600    303.91114   -21824.444    115.95538   -21940.399   -1763.8303 
   16800    299.60194   -21843.827    114.31123   -21958.138   -14220.811 
   17000    257.30202   -21848.414    98.171959   -21946.586   -12127.167 
   17200    311.42513   -21825.895    118.82229   -21944.717   -15522.938 
   17400    323.21798   -21835.002    123.32178   -21958.324    3749.3114 
   17600    281.49778   -21848.421     107.4037   -21955.824   -23970.949 
   17800    312.85927   -21849.599    119.36948   -21968.968   -19921.791 
   18000    297.03687   -21856.944    113.33254   -21970.276    1056.9859 
   18200      306.433   -21835.768    116.91758   -21952.685    40158.516 
   18400    264.92074   -21853.067    101.07884   -21954.146   -3000.8969 
   18600     303.4044   -21857.148    115.76203    -21972.91    34307.317 
   18800    295.63654   -21839.143    112.79826   -21951.941    29974.734 
   19000    287.27908   -21859.824    109.60952   -21969.434   -11793.548 
   19200    275.61177   -21854.849    105.15793   -21960.007    11341.401 
   19400    304.04483   -21838.262    116.00639   -21954.268   -3004.7992 
   19600    287.76101   -21854.934     109.7934   -21964.728    3354.7499 
   19800    292.87564   -21847.918    111.74485   -21959.663   -2274.8294 
   20000    329.93755   -21833.299    125.88559   -21959.185   -13512.346 
   20200    302.92162   -21853.003    115.57783   -21968.581    5605.2431 
   20400     290.0195   -21852.897    110.65511   -21963.552   -10648.627 
   20600    314.74093   -21824.313    120.08741     -21944.4    -20815.37 
   20800    261.63589   -21856.389    99.825522   -21956.215   -18140.816 
   21000    308.83121    -21840.05     117.8326   -21957.882     9200.653 
   21200    318.73082    -21830.12    121.60973    -21951.73    773.72916 
   21400    307.59539   -21859.879    117.36108    -21977.24    16297.059 
   21600    286.26148   -21840.941    109.22126   -21950.162    23721.193 
   21800     292.2127   -21839.427    111.49191   -21950.919    10462.101 
   22000    266.63466    -21865.37    101.73277   -21967.103    11027.797 
   22200    322.54441    -21842.03    123.06479   -21965.095    16506.335 
   22400    303.51736   -21854.526    115.80513   -21970.331    206.08221 
   22600    263.54773   -21870.376    100.55497   -21970.931    6470.1237 
   22800    293.91193   -21848.232    112.14024   -21960.373    6658.1272 
   23000    321.20239   -21837.693    122.55274   -21960.246    13187.679 
   23200    263.53917   -21861.578    100.55171    -21962.13    14269.685 
   23400    259.49636   -21867.087    99.009197   -21966.096    12277.859 
   23600    291.54536   -21848.625    111.23729   -21959.862   -908.29888 
   23800    315.30025   -21827.244    120.30082   -21947.545   -18299.783 
   24000    318.76397   -21833.276    121.62238   -21954.898   -14399.526 
   24200    275.43369   -21856.884    105.08998   -21961.974   -15952.311 
   24400    336.52905   -21838.558    128.40053   -21966.958   -16957.262 
   24600    301.89894   -21847.879    115.18763   -21963.066   -20769.366 
   24800    281.90794   -21859.304    107.56019   -21966.864   -7306.4351 
   25000    320.46838   -21832.538    122.27269   -21954.811   -19999.808 
   25200    272.15962   -21848.084    103.84078   -21951.925   -17277.807 
   25400     284.1735   -21849.201     108.4246   -21957.625   -11844.542 
   25600     288.8323   -21838.133    110.20214   -21948.335    12056.914 
   25800    284.49482   -21835.415     108.5472   -21943.962   -7959.0004 
   26000    266.51667   -21856.103    101.68775   -21957.791   -3031.3232 
   26200    301.22339   -21827.735    114.92988   -21942.665   -2340.1724 
   26400    286.12619   -21842.232    109.16964   -21951.401    6818.3385 
   26600    293.52425   -21854.368    111.99233   -21966.361   -5236.0907 
   26800    324.56688   -21834.685    123.83644   -21958.522    35453.786 
   27000    322.80869   -21836.317    123.16562   -21959.483      7903.64 
   27200    283.39521   -21852.102    108.12765    -21960.23   -14087.276 
   27400    318.68332   -21839.092    121.59161   -21960.684    4811.4275 
   27600    336.39752   -21822.095    128.35035   -21950.446    8364.6145 
   27800    305.13959   -21852.001    116.42409   -21968.425    11873.181 
   28000    300.35155   -21849.943    114.59724    -21964.54   -13572.429 
   28200    316.30283   -21824.339    120.68335   -21945.022    15114.708 
   28400    268.82851   -21855.652    102.56982   -21958.222    9292.7866 
   28600    291.91585   -21845.925    111.37865   -21957.304    9151.0484 
   28800    321.94221   -21828.585    122.83502    -21951.42   -6524.9395 
   29000    282.25165   -21852.676    107.69134   -21960.367   -11144.101 
   29200    318.35046   -21838.657    121.46461   -21960.121    906.97938 
   29400    291.09913   -21846.046    111.06704   -21957.113    7493.5414 
   29600    291.23501   -21860.254    111.11888   -21971.373    11119.467 
   29800    330.36852   -21831.352    126.05002   -21957.403    41052.901 
   30000    325.83553   -21841.117    124.32049   -21965.438    17574.674 
   30200    297.32608   -21856.004    113.44289   -21969.447    23030.261 
   30400    316.75075   -21829.257    120.85425   -21950.111    8305.9219 
   30600    268.92392   -21845.667    102.60622   -21948.274   -8107.0461 
   30800    302.20746   -21849.545    115.30535    -21964.85    20883.699 
   31000    311.83925    -21836.41     118.9803   -21955.391    8148.5422 
   31200    271.67488   -21843.722    103.65584   -21947.378    4325.2427 
   31400    280.31389    -21859.07      106.952   -21966.022   -7848.2574 
   31600      295.845   -21837.929    112.87779   -21950.807   -13436.156 
   31800    282.35546   -21837.328    107.73094   -21945.059    6500.4088 
   32000     249.0764   -21868.324    95.033528   -21963.357   -10940.012 
   32200    301.30123   -21846.668    114.95958   -21961.628   -18890.055 
   32400    305.60354   -21833.253     116.6011   -21949.854   -9527.1146 
   32600    271.35699   -21859.682    103.53455   -21963.217   -4026.7786 
   32800    265.22254   -21845.563    101.19398   -21946.757   -4147.8435 
   33000    343.41218   -21836.084    131.02675    -21967.11    6768.4505 
   33200    281.27786   -21851.542    107.31979   -21958.862    16122.001 
   33400     304.3232   -21845.069     116.1126   -21961.181   -26210.137 
   33600    327.90875   -21808.487    125.11152   -21933.599   -20848.118 
   33800     309.9882   -21846.682    118.27404   -21964.956   -4511.8505 
   34000    284.66935   -21857.577    108.61379   -21966.191   -191.11704 
   34200    324.93048   -21832.042    123.97517   -21956.017   -25974.788 
   34400    343.76906   -21842.077    131.16291    -21973.24   -29045.064 
   34600    269.35193   -21857.215    102.76953   -21959.985    17487.095 
   34800    665.14412   -21821.016    253.78154   -22074.798   -14901.906 
   35000    414.46813   -21978.193     158.1377   -22136.331   -12269.225 
   35200    274.56484   -22087.938    104.75848   -22192.696   -8406.2453 
   35400    282.99401   -22107.399    107.97458   -22215.373    8409.6837 
   35600     341.3548   -22083.171    130.24177   -22213.413   -20041.102 
   35800    292.03221   -22105.139    111.42305   -22216.562   -9853.4017 
   36000     280.9925   -22098.807    107.21091   -22206.018    2461.9275 
   36200    288.68017   -22101.637    110.14409   -22211.781    23419.266 
   36400    277.67916   -22106.866    105.94673   -22212.813   -4331.9209 
   36600    294.27335    -22085.88    112.27814   -22198.158    9851.0761 
   36800    266.92682   -22113.396    101.84424    -22215.24    11109.664 
   37000    283.74834   -22102.438    108.26239     -22210.7   -23987.317 
   37200    322.57365   -22088.892    123.07594   -22211.968    4559.8308 
   37400    280.73501   -22094.469    107.11267   -22201.582   -13660.002 
   37600    248.05093   -22117.213    94.642265   -22211.856   -22768.262 
   37800    324.09161   -22092.173    123.65511   -22215.828   -16954.489 
   38000    296.72481   -22103.848    113.21348   -22217.061    26714.603 
   38200    265.02286   -22115.643     101.1178    -22216.76    10341.562 
   38400    318.84383   -22089.624    121.65285   -22211.277    2997.9861 
   38600     293.7451   -22116.169    112.07659   -22228.245   -6513.3941 
   38800    337.39732   -22094.771    128.73182   -22223.503   -775.61067 
   39000    295.85231   -22100.819    112.88058     -22213.7    8324.7839 
   39200    312.05906   -22107.151    119.06416   -22226.215   -22983.271 
   39400    341.76865   -22088.379    130.39967   -22218.779   -1357.1238 
   39600    315.68087   -22094.732    120.44604   -22215.178     28161.82 
   39800    280.78482   -22111.605    107.13167   -22218.737    7910.0665 
   40000    307.87548    -22095.86    117.46794   -22213.328    1212.9791 
   40200    290.60517   -22104.101    110.87857   -22214.979   -13057.369 
   40400    279.88873   -22116.024    106.78978   -22222.813   -19145.918 
   40600    289.22693   -22096.558    110.35271    -22206.91   -15415.097 
   40800    269.40805   -22124.185    102.79094   -22226.975    930.25953 
   41000    307.44271   -22109.867    117.30283    -22227.17   -9254.4957 
   41200    287.14256   -22104.714    109.55743   -22214.272    28014.958 
   41400    290.89986    -22106.57      110.991   -22217.561    14026.869 
   41600    286.93164   -22105.526    109.47695   -22215.003    28993.841 
   41800    342.65258   -22083.394    130.73693    -22214.13     18600.72 
   42000    283.71469   -22115.775    108.24955   -22224.024    27017.451 
   42200    306.56574   -22102.042    116.96822   -22219.011   -12045.376 
   42400    316.52923   -22099.206    120.76973   -22219.976    1621.4914 
   42600    262.84245   -22122.649    100.28588   -22222.935   -2377.4437 
   42800    334.07803   -22099.646    127.46536   -22227.111   -4833.3885 
   43000    295.25742   -22112.581     112.6536   -22225.235    19373.436 
   43200    307.60404   -22108.836    117.36438   -22226.201    22475.901 
   43400    323.54442   -22104.407    123.44633   -22227.853   -2153.1205 
   43600    317.33232   -22082.795    121.07614   -22203.871    7790.9616 
   43800     312.8294   -22107.108    119.35808   -22226.466    -8991.344 
   44000    292.88759   -22100.076    111.74941   -22211.826     4876.654 
   44200    321.35591   -22077.004    122.61132   -22199.615   -6543.0755 
   44400    285.08706   -22107.625    108.77317   -22216.398    2481.1981 
   44600    273.40286   -22099.186    104.31514   -22203.502   -2609.3106 
   44800     379.6446   -22072.256      144.851   -22217.107    -7061.863 
   45000    313.63367    -22106.95    119.66495   -22226.614    11338.963 
   45200    301.41195   -22108.905    115.00182   -22223.907     -8565.28 
   45400    319.58823   -22086.143    121.93687    -22208.08    1378.9637 
   45600    281.31258   -22107.564    107.33304   -22214.897    14404.177 
   45800    284.24059   -22099.137     108.4502   -22207.587    12105.517 
   46000    331.31949   -22087.408    126.41286   -22213.821   -2982.7466 
   46200    276.44205   -22115.156    105.47472   -22220.631    3600.0333 
   46400    313.12935   -22098.141    119.47253   -22217.614    18890.105 
   46600    298.96811   -22094.604     114.0694   -22208.674    21078.778 
   46800    277.21268   -22115.949    105.76875   -22221.717   -42.918513 
   47000    283.53782   -22125.604    108.18206   -22233.786    4497.6489 
   47200    299.34854   -22100.067    114.21454   -22214.281   -14138.126 
   47400    278.27371   -22117.727    106.17358   -22223.901   -8004.0286 
   47600    301.30367   -22107.733    114.96051   -22222.693    35556.782 
   47800    317.35291   -22094.271      121.084   -22215.355   -1540.2331 
   48000     280.6508   -22116.764    107.08054   -22223.845    13458.723 
   48200    299.71307   -22106.734    114.35363   -22221.087    7278.8643 
   48400     306.9677   -22099.853    117.12159   -22216.975   -32165.942 
   48600    268.17565   -22105.143    102.32073   -22207.464    18667.546 
   48800    297.64535    -22121.27     113.5647   -22234.834   -381.23797 
   49000    330.60131   -22088.918    126.13884   -22215.057    20936.836 
   49200    295.07114   -22106.829    112.58253   -22219.411    -17055.56 
   49400    303.10601   -22119.608    115.64818   -22235.256   -21011.234 
   49600    291.73072   -22122.527    111.30801   -22233.835    7502.6959 
   49800    296.05292   -22097.595    112.95712   -22210.553    21694.423 
   50000     284.5383   -22118.924    108.56379   -22227.488   -6358.7927 
   50200    287.80891   -22113.081    109.81167   -22222.893   -15187.346 
   50400    282.97216   -22096.051    107.96624   -22204.017    2253.6552 
   50600    301.67467   -22088.032    115.10206   -22203.134   -10244.965 
   50800    288.43387   -22116.827    110.05012   -22226.877   -2734.0358 
   51000    333.61177     -22094.6    127.28746   -22221.888   -4009.5735 
   51200    299.82016   -22097.715    114.39449    -22212.11   -4791.6283 
   51400    277.31024   -22117.332    105.80597   -22223.138   -3954.4037 
   51600    308.04011   -22118.161    117.53076   -22235.692   -11813.001 
   51800    306.65328   -22105.863    117.00162   -22222.864    2271.3258 
   52000    308.90796   -22117.669    117.86188   -22235.531   -6069.4406 
   52200    265.92482   -22126.312    101.46194   -22227.774   -3845.6774 
   52400    305.93106   -22102.239    116.72606   -22218.965   -3408.8034 
   52600    306.24336   -22093.323    116.84522   -22210.168   -25482.941 
   52800    273.46695    -22107.61    104.33959    -22211.95   -37415.599 
   53000    307.85541   -22115.493    117.46029   -22232.953   -7683.8366 
   53200    323.33666   -22091.103    123.36706    -22214.47    17726.224 
   53400    261.82937   -22125.717    99.899343   -22225.617    7443.0648 
   53600    317.69046   -22101.934    121.21279   -22223.147   -4195.8529 
   53800     305.7827   -22094.993    116.66946   -22211.663   -1233.4136 
   54000    287.70987   -22120.103    109.77389   -22229.877    9533.0355 
   54200    267.09569    -22105.34    101.90868   -22207.249   -18174.495 
   54400     280.4448   -22099.565    107.00194   -22206.567    1721.8953 
   54600    309.65971   -22098.799    118.14871   -22216.948    9191.4872 
   54800    311.91683     -22100.3     119.0099    -22219.31   -3040.4109 
   55000    262.00958   -22120.951    99.968101   -22220.919    15748.604 
   55200    300.74809   -22102.468    114.74853   -22217.216   -15378.387 
   55400    319.33906   -22098.373     121.8418   -22220.214   -3713.3616 
   55600    305.13882   -22105.986    116.42379    -22222.41   -8797.2519 
   55800    313.76224   -22098.359      119.714   -22218.073     4838.392 
   56000    317.20905   -22088.139    121.02911   -22209.168    2819.6362 
   56200    271.83827   -22113.187    103.71818   -22216.905    2084.9342 
   56400    289.60456   -22092.849    110.49679   -22203.345    26367.157 
   56600    314.24727   -22092.126    119.89906   -22212.025    425.94133 
   56800    276.92632   -22107.269    105.65949   -22212.928    7455.6998 
   57000    289.95658   -22115.353     110.6311   -22225.984   -4222.9408 
   57200    284.29304   -22088.642    108.47021   -22197.112    4320.7231 
   57400    275.32053    -22111.95    105.04681   -22216.996    11709.152 
   57600    313.09282   -22106.093    119.45859   -22225.551    29823.468 
   57800    329.34104   -22086.881    125.65799   -22212.539    5444.9343 
   58000    320.72808   -22093.976    122.37177   -22216.348    10118.549 
   58200    284.76097   -22110.405    108.64875   -22219.053   -10626.787 
   58400    337.64836   -22084.856     128.8276   -22213.684    4679.6209 
   58600    333.57254   -22096.062     127.2725   -22223.334   -5237.8327 
   58800    279.94879   -22106.976    106.81269   -22213.789   -8351.8499 
   59000    325.93115   -22090.313    124.35697    -22214.67    3554.1848 
   59200    306.05571   -22102.201    116.77362   -22218.975    13882.758 
   59400    281.22623    -22115.31    107.30009    -22222.61   -10603.321 
   59600    307.87992   -22088.062    117.46964   -22205.531    -10913.43 
   59800     343.3779   -22072.986    131.01367       -22204    8920.0803 
   60000     278.0393   -22112.955    106.08414   -22219.039    4335.2485 
   60200    304.04865   -22104.044    116.00784   -22220.051   -19816.065 
   60400    325.59442   -22090.022    124.22849   -22214.251   -7897.7262 
   60600    334.86951   -22103.251    127.76735   -22231.019   -2975.3363 
   60800    315.86546   -22102.624    120.51647   -22223.141   -4364.8677 
   61000    275.92589   -22114.645    105.27778   -22219.923    11668.922 
   61200    284.93092   -22128.771    108.71359   -22237.484    13482.517 
   61400    308.35071   -22099.312    117.64927   -22216.961    10861.697 
   61600    286.10676   -22118.535    109.16223   -22227.697   -20944.234 
   61800    291.31365   -22105.232    111.14888   -22216.381    1556.7063 
   62000    312.95813    -22097.54     119.4072   -22216.947   -29325.689 
   62200    281.86409   -22118.221    107.54347   -22225.765   -14894.096 
   62400    308.21222   -22084.049    117.59643   -22201.645    6177.7596 
   62600    289.23435   -22093.945    110.35554     -22204.3   -3480.4352 
   62800    250.31808   -22112.377    95.507285   -22207.885    -8952.686 
   63000    329.45526   -22086.535    125.70158   -22212.236    18722.494 
   63200    288.32886   -22090.875    110.01006   -22200.885    22008.039 
   63400    286.57452   -22110.709     109.3407    -22220.05   -40968.226 
   63600    321.24395   -22103.549     122.5686   -22226.117    -20626.84 
   63800    332.99149   -22094.802     127.0508   -22221.853   -9818.5872 
   64000    269.74588    -22120.17    102.91984    -22223.09   -13524.788 
   64200    294.10504    -22097.41    112.21392   -22209.624   -15194.862 
   64400    320.59643   -22093.626    122.32154   -22215.947   -15554.518 
   64600    293.57363   -22109.213    112.01117   -22221.224    24287.623 
   64800    260.27536   -22118.864    99.306421    -22218.17   -678.59765 
   65000    303.73898   -22093.107    115.88969   -22208.997   -5936.8741 
   65200    290.95095   -22114.484     111.0105   -22225.495   -5781.1872 
   65400    278.31478   -22116.851    106.18925   -22223.041    16119.377 
   65600    273.43338   -22105.709    104.32678   -22210.036   -7368.4779 
   65800    334.91353     -22084.6    127.78414   -22212.384    18462.598 
   66000    300.24964   -22108.531    114.55835    -22223.09   -2546.9432 
   66200    299.96062   -22107.398    114.44808   -22221.846    6245.7639 
   66400    323.44718   -22079.579    123.40923   -22202.988    3078.4666 
   66600    310.50624   -22091.093     118.4717   -22209.564   -4071.1721 
   66800    321.07644   -22105.799    122.50469   -22228.303   -24522.994 
   67000    275.37592   -22123.025    105.06794   -22228.093   -703.89303 
   67200    320.47472   -22101.193    122.27511   -22223.468    21576.381 
   67400    303.97535   -22097.329    115.97988   -22213.309   -8166.9416 
   67600    268.71176   -22129.075    102.52528     -22231.6   -70.011461 
   67800    262.52937   -22114.462    100.16642   -22214.628    12840.064 
   68000    306.61502   -22091.672    116.98703   -22208.659    6254.0363 
   68200    301.80499   -22096.423    115.15179   -22211.574   -7932.0618 
   68400    285.07682   -22111.134    108.76926   -22219.903    3781.8083 
   68600    292.34522   -22090.926    111.54247   -22202.469    15691.127 
   68800     302.8999   -22097.609    115.56954   -22213.179   -14477.517 
   69000    276.87575   -22102.818     105.6402   -22208.458    18757.135 
   69200    317.18014   -22093.267    121.01808   -22214.285   -12893.969 
   69400    338.07623   -22084.836    128.99085   -22213.827    -6503.183 
   69600    281.38712   -22107.306    107.36148   -22214.667   -9284.7328 
   69800    305.79241   -22102.715    116.67316   -22219.388    10075.229 
   70000    318.88519   -22082.954    121.66863   -22204.623   -10148.512 
   70200    266.48738   -22109.849    101.67658   -22211.526   -3836.6955 
   70400    296.62373   -22097.125    113.17491     -22210.3    41832.471 
   70600    300.03996   -22089.039    114.47835   -22203.518    3257.6811 
   70800    310.51621   -22100.038     118.4755   -22218.513    7326.1622 
   71000    270.98683   -22116.443    103.39331   -22219.837     6776.523 
   71200    306.38054   -22096.908    116.89756   -22213.805    17155.035 
   71400    299.27792   -22099.336     114.1876   -22213.523   -15866.889 
   71600    281.05054   -22112.761    107.23306   -22219.994    2935.5131 
   71800    306.07224   -22102.825    116.77993   -22219.605   -1758.7111 
   72000    352.43051    -22071.53    134.46764   -22205.998   -911.19059 
   72200    337.02864   -22092.847    128.59115   -22221.438    2952.6436 
   72400    317.80365   -22100.137    121.25598   -22221.393    11272.213 
   72600    299.54748   -22110.901    114.29045   -22225.191    10708.578 
   72800    303.60122   -22088.038    115.83713   -22203.875   -8243.8798 
   73000    296.41185   -22101.137    113.09407   -22214.231    -15618.37 
   73200    280.11977   -22107.181    106.87793   -22214.059   -26952.839 
   73400    319.54624   -22094.726    121.92085   -22216.647   -15437.471 
   73600    296.69873    -22105.19    113.20353   -22218.394    14730.789 
   73800    286.08204   -22120.868    109.15279   -22230.021   -10618.874 
   74000    299.76271   -22093.059    114.37257   -22207.432    6439.7041 
   74200    274.37929   -22098.396    104.68769   -22203.084   -5659.2058 
   74400    244.03145   -22129.458    93.108659   -22222.567   -10019.452 
   74600    280.08848   -22106.206    106.86599   -22213.072    12776.518 
   74800     312.9566   -22098.446    119.40662   -22217.853    5080.8085 
   75000    289.64776   -22098.623    110.51327   -22209.136     5537.266 
   75200     290.1972   -22109.848    110.72291   -22220.571    7397.7951 
   75400    331.73102   -22081.827    126.56988   -22208.397   -4443.6867 
   75600    302.80856   -22093.933    115.53469   -22209.468    7713.8271 
   75800    299.98074   -22096.903    114.45576   -22211.359   -11261.619 
   76000    325.33546   -22071.182    124.12969   -22195.312    10369.127 
   76200    293.66016   -22100.792    112.04418   -22212.836   -7346.8195 
   76400    293.04514   -22090.773    111.80952   -22202.583   -4059.5094 
   76600    338.38573    -22066.48    129.10894   -22195.589    20512.401 
   76800    313.12963   -22108.476    119.47263   -22227.948   -12907.474 
   77000    295.68095   -22105.599     112.8152   -22218.414   -8137.8732 
   77200    304.80419   -22090.848    116.29612   -22207.144    5380.2819 
   77400    302.86647   -22102.468    115.55679   -22218.025    183.46892 
   77600    251.33184   -22119.947    95.894078   -22215.841   -2030.7836 
   77800    319.93412    -22097.72    122.06884   -22219.789    5143.2111 
   78000    292.40924   -22109.023     111.5669    -22220.59   -1878.7505 
   78200    262.58551   -22122.159    100.18784   -22222.347    19925.701 
   78400    294.56423   -22092.311    112.38912     -22204.7   -3033.6369 
   78600    288.12074   -22108.432    109.93065   -22218.363    13284.202 
   78800    281.80231    -22116.85    107.51989   -22224.369    1809.3583 
   79000    333.70714   -22089.384    127.32385   -22216.708    10220.683 
   79200    322.80318   -22109.349    123.16351   -22232.513    -15142.77 
   79400    320.59473   -22160.226     122.3209   -22282.547    15659.621 
   79600    319.37261   -22193.916     121.8546    -22315.77    4464.4613 
   79800    296.65844   -22188.868    113.18815   -22302.056    11727.831 
   80000    291.64522   -22174.286    111.27539   -22285.562    11226.322 
   80200    293.29395     -22189.7    111.90445   -22301.604   -2456.4573 
   80400    316.27583   -22184.119    120.67305   -22304.792     5245.817 
   80600    303.29292   -22166.292     115.7195   -22282.011   -10794.266 
   80800    313.76925   -22183.103    119.71668    -22302.82    575.68064 
   81000    286.15582   -22190.059    109.18095    -22299.24    17901.675 
   81200     314.1046   -22158.597    119.84463   -22278.442     3276.482 
   81400    311.78815   -22190.538     118.9608   -22309.499    818.49438 
   81600    284.09181   -22190.901    108.39344   -22299.295   -16553.558 
   81800    320.00231   -22173.074    122.09486   -22295.169   -16018.314 
   82000    275.62107   -22200.713    105.16148   -22305.874    -10376.07 
   82200    301.97656   -22196.857    115.21725   -22312.074   -3906.5678 
   82400    272.96463   -22219.732    104.14793    -22323.88    26437.442 
   82600    285.98475   -22205.297    109.11567   -22314.413   -8334.0339 
   82800    308.33871   -22197.343    117.64469   -22314.988    27581.999 
   83000    300.34621   -22214.357     114.5952   -22328.952   -1047.3018 
   83200    250.64738   -22231.891    95.632924   -22327.524    2156.2496 
   83400    311.95677   -22205.989    119.02514   -22325.014    7547.6818 
   83600    311.11098   -22202.115    118.70243   -22320.817   -8259.8067 
   83800    283.41954   -22218.132    108.13694   -22326.269   -2237.0391 
   84000    335.77844   -22196.113    128.11414   -22324.228    5230.3492 
   84200    288.70971   -22192.909    110.15537   -22303.065    12027.225 
   84400    301.87916   -22221.655    115.18009   -22336.835   -10488.939 
   84600    298.01985   -22210.429    113.70759   -22324.136   -14076.576 
   84800    274.08049    -22201.32    104.57368   -22305.894    15338.616 
   85000    279.93718   -22223.282    106.80826   -22330.091   -15919.232 
   85200    268.39841   -22222.146    102.40572   -22324.551    -19752.93 
   85400    283.31279   -22202.561    108.09621   -22310.657    16754.792 
   85600     321.7734    -22204.65    122.77061   -22327.421    6466.0519 
   85800    290.17696   -22223.209    110.71519   -22333.925     19444.19 
   86000    293.02551   -22193.858    111.80204    -22305.66    13255.226 
   86200    314.75337   -22207.647    120.09216   -22327.739    12230.234 
   86400    287.54704   -22211.024    109.71176   -22320.735   -1814.5127 
   86600    326.26481   -22184.952    124.48428   -22309.436   -7743.7886 
   86800    288.24999   -22208.983    109.97996   -22318.963    30968.363 
   87000    293.46931    -22189.75    111.97136   -22301.722    11787.425 
   87200    330.59859   -22189.574    126.13781   -22315.712    8128.6378 
   87400    319.43174   -22205.359    121.87716   -22327.237   -4858.4384 
   87600    280.42891   -22206.735    106.99588   -22313.731    23830.129 
   87800    343.99935   -22187.693    131.25078   -22318.944   -21072.166 
   88000    276.64145   -22216.695     105.5508   -22322.246   -20708.389 
   88200    305.48582   -22210.167    116.55618   -22326.723   -14139.087 
   88400    310.03715   -22196.544    118.29272   -22314.836    12112.579 
   88600     281.3945   -22207.463    107.36429   -22314.827    11879.468 
   88800    298.96132   -22216.735     114.0668   -22330.802    11408.154 
   89000    333.92387   -22188.772    127.40654   -22316.179    1198.1563 
   89200    284.37593   -22202.638    108.50184    -22311.14   -29408.879 
   89400    311.32457   -22202.429    118.78392   -22321.213     14659.57 
   89600    303.09917   -22196.699    115.64557   -22312.344    -17305.31 
   89800    342.02388   -22176.912    130.49705   -22307.409   -18341.755 
   90000    306.96773   -22201.321     117.1216   -22318.443    16580.236 
   90200    295.60966    -22200.58      112.788   -22313.368   -21587.313 
   90400     340.9173   -22171.761    130.07484   -22301.836   -14867.914 
   90600    314.68513   -22196.885    120.06612   -22316.951    -12815.37 
   90800    311.46698   -22207.596    118.83826   -22326.434   -2570.3019 
   91000    279.55399   -22196.874    106.66206   -22303.536   -20682.109 
   91200    310.72535   -22189.188     118.5553   -22307.744    9784.4905 
   91400    292.78731   -22215.621    111.71115   -22327.332   -13919.396 
   91600    330.25735   -22196.476    126.00761   -22322.484   -18721.106 
   91800    338.08196    -22198.89    128.99304   -22327.883   -1714.4074 
   92000    304.86611   -22201.626    116.31974   -22317.945   -13659.768 
   92200    288.17839   -22221.042    109.95264   -22330.995   -20826.326 
   92400    286.62687   -22204.517    109.36067   -22313.878    9889.3566 
   92600    278.80321   -22192.293    106.37561   -22298.669    4397.0123 
   92800    295.34227   -22219.627    112.68598   -22332.313   -5388.1359 
   93000    308.53804   -22212.195    117.72074   -22329.916   -3024.2325 
   93200    311.80982     -22192.6    118.96907   -22311.569    -19666.05 
   93400    324.69264   -22200.849    123.88443   -22324.733    12009.504 
   93600    306.42228    -22203.24    116.91349   -22320.153    4036.7144 
   93800    315.17624   -22198.418     120.2535   -22318.672   -20306.447 
   94000    275.48796   -22215.347    105.11069   -22320.458   -7616.1939 
   94200      287.663   -22212.211      109.756   -22321.967   -4878.7524 
   94400    325.94418   -22194.477    124.36194   -22318.839    558.51353 
   94600     313.2963   -22213.612    119.53623   -22333.148    5367.3799 
   94800    341.79589   -22183.592    130.41006   -22314.002    1567.8218 
   95000    328.57339   -22198.451     125.3651   -22323.816    1443.8552 
   95200    309.52738   -22210.117    118.09822   -22328.215    8354.2136 
   95400    318.86207   -22193.538    121.65981   -22315.198   -20759.974 
   95600    330.60271   -22182.082    126.13938   -22308.222   -9834.9718 
   95800    272.30673   -22216.017    103.89691   -22319.914   -14071.885 
   96000       335.65   -22196.896    128.06514   -22324.961   -11167.155 
   96200    304.56672   -22203.656    116.20551   -22319.862    20466.642 
   96400    284.21312   -22218.628    108.43972   -22327.068   -22723.487 
   96600    330.32518   -22193.347    126.03349    -22319.38    11979.169 
   96800    301.81476   -22204.588    115.15552   -22319.744   -3138.7304 
   97000    304.57064   -22210.262      116.207   -22326.469    951.53685 
   97200    252.62238   -22218.686    96.386474   -22315.073   -5314.2532 
   97400    320.08463   -22195.874    122.12627       -22318    5402.7266 
   97600    289.36925   -22199.932    110.40701   -22310.339   -18639.593 
   97800    275.05189   -22220.227    104.94431   -22325.171     11574.55 
   98000    278.05805   -22199.724    106.09129   -22305.815   -7974.1804 
   98200    271.56289   -22204.124    103.61311   -22307.737   -14370.987 
   98400    298.18224   -22211.067    113.76955   -22324.837   -27887.514 
   98600    280.73971   -22229.859    107.11446   -22336.973     58.90265 
   98800    301.29449   -22203.904    114.95701   -22318.861    13866.516 
   99000    303.92805    -22198.39    115.96183   -22314.351   -5138.2424 
   99200    285.08161   -22222.594    108.77109   -22331.365    16095.085 
   99400     349.5563   -22196.388      133.371   -22329.759    7805.2282 
   99600    285.82327   -22201.999    109.05406   -22311.053    22127.992 
   99800    274.43177   -22215.201    104.70771   -22319.909    14696.092 
  100000    307.59119   -22185.954    117.35948   -22303.313   -14453.556 
  100200    278.80049   -22206.541    106.37457   -22312.915    4523.6855 
  100400    253.21781   -22206.275    96.613655   -22302.888    35394.602 
  100600    284.07641   -22199.609    108.38756   -22307.996    14932.378 
  100800    299.38718     -22205.4    114.22929   -22319.629     8559.163 
  101000    321.25263   -22202.453    122.57191   -22325.025    17413.274 
  101200    304.77891   -22195.442    116.28647   -22311.729   -15851.109 
  101400    297.04639   -22217.207    113.33617   -22330.543     -4510.73 
  101600    296.36804   -22210.583    113.07735   -22323.661   -2760.3889 
  101800    310.09661   -22190.275     118.3154   -22308.591   -2624.3826 
  102000    286.40013   -22215.088    109.27416   -22324.362    4741.1921 
  102200    314.63561   -22205.117    120.04723   -22325.164   -13649.831 
  102400    348.66837   -22191.254    133.03222   -22324.286    -4251.829 
  102600    317.11884   -22207.636    120.99469   -22328.631   -9269.6294 
  102800    283.20063   -22210.964    108.05341   -22319.018   -6202.2737 
  103000    290.34466   -22195.396    110.77917   -22306.175   -3121.0021 
  103200    296.24085   -22211.555    113.02883   -22324.584    24445.121 
  103400    264.95769    -22222.76    101.09293   -22323.853    3318.5004 
  103600    315.53486   -22196.491    120.39033   -22316.881    22273.719 
  103800    292.55992   -22211.464    111.62439   -22323.088      7823.84 
  104000    272.97436   -22219.268    104.15164   -22323.419   -3258.1409 
  104200     350.0767   -22191.148    133.56955   -22324.718   -4609.1907 
  104400    285.63771    -22213.74    108.98327   -22322.723    10621.025 
  104600    286.68007   -22208.902    109.38097   -22318.283    2572.5829 
  104800    314.98382   -22206.059    120.18009   -22326.239   -14904.974 
  105000     295.8344   -22213.496    112.87375    -22326.37   -22886.161 
  105200    286.14911    -22222.05    109.17839   -22331.228    4516.9755 
  105400    321.51704   -22195.875     122.6728   -22318.548   -20640.895 
  105600    300.24287    -22212.48    114.55577   -22327.036    26979.039 
  105800    267.67512    -22217.86    102.12975    -22319.99    20162.076 
  106000    279.22055   -22205.121    106.53484   -22311.655    11213.106 
  106200    330.40454   -22193.508    126.06377   -22319.571   -28699.805 
  106400    260.65238   -22228.647    99.450269   -22328.097   -22404.871 
  106600    286.81146   -22210.734     109.4311   -22320.165    9874.4498 
  106800    308.06052   -22199.594    117.53855   -22317.133    12765.759 
  107000    275.21584   -22216.809    105.00686   -22321.816   -3108.6491 
  107200    281.52431   -22213.249    107.41382   -22320.663    23612.616 
  107400    291.83568   -22199.099    111.34806   -22310.447    38547.797 
  107600    285.88929   -22217.556    109.07925   -22326.635    13407.158 
  107800    287.81309   -22218.095    109.81327   -22327.908    25564.513 
  108000    279.78877   -22199.584    106.75164   -22306.335    24015.744 
  108200    299.90504   -22213.656    114.42687   -22328.083   -25127.758 
  108400    313.65775   -22215.019    119.67414   -22334.693    27850.713 
  108600    334.62843    -22190.28    127.67536   -22317.955    4901.2518 
  108800    278.51471   -22212.471    106.26553   -22318.737    23057.893 
  109000    276.25837   -22233.303    105.40464   -22338.708   -10228.177 
  109200    257.59094   -22197.878    98.282195    -22296.16   -16324.499 
  109400    291.81421    -22194.16    111.33987     -22305.5    4165.9004 
  109600    258.48325   -22217.755     98.62265   -22316.377   -2082.1327 
  109800    326.88394   -22185.654     124.7205   -22310.375    14356.953 
  110000    282.00277   -22201.243    107.59638    -22308.84   -6734.3382 
  110200    299.66577   -22212.896    114.33558   -22327.232     12460.49 
  110400    270.36918   -22221.586    103.15765   -22324.744   -5815.9411 
  110600     324.5728   -22194.024     123.8387   -22317.862   -3986.3808 
  110800    301.97001   -22213.675    115.21475    -22328.89   -16678.495 
  111000    304.88792   -22205.208    116.32806   -22321.536   -21649.526 
  111200    316.11028   -22194.251    120.60988   -22314.861    18001.066 
  111400    273.11372   -22215.695    104.20481     -22319.9    7604.0182 
  111600    320.00003   -22194.094    122.09399   -22316.188   -20688.966 
  111800    303.65461    -22191.71     115.8575   -22307.567    3536.5825 
  112000    310.82295   -22212.421    118.59254   -22331.013   -23028.509 
  112200    315.14444   -22198.063    120.24137   -22318.304   -6943.8295 
  112400    327.68329   -22193.444    125.02549    -22318.47     5497.146 
  112600    294.34135   -22217.329    112.30408   -22329.633   -17383.222 
  112800     319.2224   -22192.505    121.79729   -22314.303   -18641.186 
  113000    280.39306   -22211.098     106.9822    -22318.08    -10007.96 
  113200    295.98219   -22213.303    112.93014   -22326.233    4427.2067 
  113400    323.36026   -22192.542    123.37607   -22315.918    12475.558 
  113600    275.05829   -22218.325    104.94675   -22323.272    5649.1637 
  113800    296.88904   -22211.168    113.27614   -22324.445    32846.784 
  114000    327.01869   -22193.527    124.77192   -22318.299    10821.055 
  114200    284.33545   -22208.653    108.48639    -22317.14   -19028.548 
  114400    304.60533   -22217.772    116.22024   -22333.993   -25810.372 
  114600    297.82427   -22223.633    113.63297   -22337.266   -5421.1836 
  114800    294.58137   -22199.289    112.39566   -22311.685    11329.358 
  115000    291.56687   -22208.801     111.2455   -22320.047   -16423.237 
  115200     276.4677   -22226.365     105.4845    -22331.85    -775.5118 
  115400    297.34453   -22195.705    113.44993   -22309.155   -17304.589 
  115600    268.86283   -22202.459    102.58292   -22305.042    6196.3077 
  115800       246.01   -22230.108     93.86356   -22323.972   -17764.785 
  116000    268.15304   -22211.397     102.3121   -22313.709   -5180.4609 
  116200    276.44313   -22203.787    105.47513   -22309.262   -11541.834 
  116400    316.74914   -22210.772    120.85364   -22331.626    2823.1329 
  116600    298.17939   -22221.933    113.76846   -22335.701   -2847.9705 
  116800    283.01361   -22195.758    107.98206    -22303.74    640.75671 
  117000    312.09226   -22206.641    119.07683   -22325.718    8419.1361 
  117200    284.38426   -22214.452    108.50502   -22322.957   -751.72328 
  117400    326.43046   -22199.447    124.54748   -22323.994    13657.609 
  117600     335.5643   -22186.281    128.03244   -22314.313    143.55343 
  117800    311.23458   -22210.819    118.74959   -22329.568    518.63064 
  118000      327.097   -22207.058     124.8018    -22331.86    4869.8883 
  118200     303.7329   -22178.848    115.88737   -22294.735   -13719.926 
  118400     328.3872   -22196.942    125.29406   -22322.236   -9046.7058 
  118600    306.92945   -22207.567      117.107   -22324.674     24326.44 
  118800    250.31532    -22228.41    95.506231   -22323.916   -3550.1871 
  119000    283.92822   -22207.152    108.33102   -22315.483   -1766.4572 
  119200    351.19523   -22199.964    133.99632    -22333.96   -19091.091 
  119400    305.96951   -22224.117    116.74074   -22340.858   -3372.0942 
  119600    252.72515   -22226.921    96.425685   -22323.347   -15545.772 
  119800    302.98323   -22205.371    115.60134   -22320.973    13464.597 
  120000    307.31283   -22192.617    117.25327    -22309.87   -7451.0971 
  120200    300.71495   -22209.243    114.73589   -22323.979   -14317.772 
  120400    261.43776   -22214.825    99.749928   -22314.574   -9344.6235 
  120600    313.24444   -22195.718    119.51644   -22315.234     771.2461 
  120800    271.70035   -22207.386    103.66555   -22311.052   -644.03946 
  121000    288.53423   -22204.237    110.08841   -22314.325   -4199.3878 
  121200      307.723    -22186.58    117.40977    -22303.99    9871.1824 
  121400     297.1201   -22212.982     113.3643   -22326.346    22365.103 
  121600    303.87491   -22204.626    115.94155   -22320.568    12606.788 
  121800    350.94795   -22166.697    133.90198   -22300.599    16699.907 
  122000    328.50689   -22182.361    125.33973     -22307.7    4046.0975 
  122200    286.55929   -22212.686    109.33489   -22322.021    25568.711 
  122400    304.81475   -22203.743    116.30014   -22320.043    12972.561 
  122600    333.71722   -22182.218     127.3277   -22309.546   -25704.456 
  122800    290.42636   -22213.884    110.81035   -22324.694   -8025.1656 
  123000    300.84021   -22194.297    114.78368   -22309.081    6644.0097 
  123200    311.74672    -22193.65    118.94499   -22312.595   -3034.4479 
  123400    260.26114   -22216.155    99.300995   -22315.456    2463.3599 
  123600    283.17858   -22194.686      108.045   -22302.731   -9351.4954 
  123800    304.61507   -22206.603    116.22396   -22322.827    22162.333 
  124000    272.80992   -22217.307     104.0889   -22321.396    5855.5423 
  124200     305.8374   -22193.513    116.69033   -22310.203    7265.8623 
  124400    313.31057   -22203.514    119.54167   -22323.056   -32364.461 
  124600    270.07449   -22225.612    103.04522   -22328.657   -11076.756 
  124800    294.37763   -22203.012    112.31792    -22315.33    7640.6607 
  125000     310.3288   -22205.738    118.40399   -22324.142    12849.705 
  125200    303.38719   -22219.731    115.75547   -22335.486    12398.175 
  125400    337.79067   -22197.325     128.8819   -22326.207    5452.4585 
  125600    307.82616   -22208.258    117.44913   -22325.707   -7484.4273 
  125800     292.4581   -22219.274    111.58554    -22330.86    3203.7392 
  126000    311.88379   -22197.076    118.99729   -22316.074   -9087.0608 
  126200    327.93323    -22199.47    125.12085   -22324.591   -10136.354 
  126400    283.46448   -22218.017    108.15408   -22326.171     11519.08 
  126600     304.8645   -22188.279    116.31912   -22304.598    2557.8986 
  126800    270.30729   -22207.575    103.13404    -22310.71    4014.9233 
  127000    277.96154   -22209.756    106.05447   -22315.811    6610.2048 
  127200    306.44033   -22197.213    116.92037   -22314.133   -12827.928 
  127400    288.99495   -22211.966     110.2642    -22322.23   -18280.039 
  127600    287.57571   -22217.573     109.7227   -22327.296    18611.311 
  127800    295.69303   -22192.888    112.81981   -22305.708   -11343.669 
  128000    307.46366   -22207.313    117.31082   -22324.624    -5757.588 
  128200    295.90476   -22207.611    112.90059   -22320.512   -8875.6942 
  128400    312.85303    -22205.07     119.3671   -22324.437   -21360.037 
  128600     266.7666   -22224.003    101.78311   -22325.786    -6899.046 
  128800    307.36765   -22200.512    117.27419   -22317.787   -8009.0697 
  129000    334.38961   -22198.529    127.58424   -22326.113   -2923.6253 
  129200    281.51324   -22230.091     107.4096     -22337.5   -40.459672 
  129400    283.05915   -22210.238    107.99943   -22318.238    11758.269 
  129600    346.53916   -22188.437    132.21983   -22320.656   -12693.872 
  129800     286.5926    -22222.93     109.3476   -22332.278   -10638.365 
  130000    326.00339   -22219.311    124.38453   -22343.696   -3920.6757 
  130200    302.26584   -22197.985    115.32762   -22313.313   -9069.1878 
  130400    291.53257   -22230.979    111.23241   -22342.211    6910.2551 
  130600    261.13448   -22214.855    99.634211   -22314.489   -17445.976 
  130800     294.0791   -22205.091    112.20403   -22317.295   -14318.165 
  131000    263.99121   -22229.702    100.72418   -22330.426     728.7714 
  131200    285.14838   -22228.239    108.79656   -22337.035   -6692.8134 
  131400    316.01725   -22211.844    120.57439   -22332.419   -6047.2474 
  131600    314.05053    -22203.25      119.824   -22323.074    4797.2604 
  131800    279.45617   -22231.185    106.62474    -22337.81    9046.9531 
  132000    307.92943   -22212.591    117.48853   -22330.079   -16134.431 
  132200     333.0804   -22209.348    127.08472   -22336.433   -2115.4654 
  132400    313.67709   -22218.194    119.68152   -22337.876   -14196.289 
  132600    298.43261   -22203.942    113.86508   -22317.807   -15303.686 
  132800    275.79372   -22201.423    105.22735   -22306.651   -5739.4667 
  133000    342.20775   -22217.444    130.56721   -22348.011    4601.6862 
  133200    303.93303   -22203.977    115.96373   -22319.941   -6226.5451 
  133400    297.35741   -22192.537    113.45484   -22305.992    4618.0775 
  133600    292.91522   -22214.174    111.75995   -22325.934    1123.7979 
  133800    300.41088   -22217.448    114.61988   -22332.068    18684.606 
  134000    333.99144   -22187.069    127.43233   -22314.501   -8301.3119 
  134200    282.38373   -22215.732    107.74173   -22323.473    14115.777 
  134400    340.00264   -22210.195    129.72586   -22339.921    3815.5752 
  134600    288.55204   -22211.776    110.09521   -22321.871   -5230.0974 
  134800     284.8885    -22220.15    108.69741   -22328.847    2311.2011 
  135000    321.49128   -22205.122    122.66297   -22327.785   -11428.959 
  135200     314.6871   -22211.867    120.06688   -22331.934    3483.1164 
  135400    263.08346   -22230.621    100.37783   -22330.999    31428.079 
  135600    324.87341   -22205.012     123.9534   -22328.966     19085.07 
  135800    296.59408   -22222.519     113.1636   -22335.683   -714.18654 
  136000    292.64328   -22229.454     111.6562    -22341.11    6923.1056 
  136200     290.7991   -22210.294    110.95256   -22321.247   -11785.468 
  136400    308.19226   -22225.313    117.58881   -22342.902   -3509.5697 
  136600    277.91957   -22229.649    106.03846   -22335.688   -13300.304 
  136800     287.9525   -22206.066    109.86646   -22315.933    2695.7312 
  137000    283.51879   -22225.088     108.1748   -22333.263     5279.531 
  137200    291.56046   -22246.405    111.24305   -22357.648   -16739.116 
  137400    304.31554   -22212.209    116.10967   -22328.319    2359.6486 
  137600    338.55427   -22206.987    129.17324    -22336.16      13683.3 
  137800    301.81144   -22231.561    115.15425   -22346.715     1423.776 
  138000    315.17857   -22217.741    120.25439   -22337.996   -14934.427 
  138200    311.07835   -22214.541    118.68998   -22333.231   -4446.1632 
  138400    300.64336   -22225.638    114.70858   -22340.347   -18871.427 
  138600    309.18469   -22224.054    117.96746   -22342.022   -8549.5892 
  138800    316.93888   -22206.931    120.92603   -22327.857   -3839.6873 
  139000    290.73311   -22228.624    110.92738   -22339.551   -1318.8488 
  139200    292.91504   -22237.287    111.75988   -22349.047    1538.7171 
  139400    287.78311   -22207.906    109.80183   -22317.708   -1750.3416 
  139600    304.89646   -22201.879    116.33132    -22318.21   -32565.477 
  139800    292.34557   -22228.386    111.54261   -22339.928     5763.983 
  140000     299.1477   -22214.847    114.13792   -22328.985   -13712.231 
  140200    316.28556   -22204.383    120.67676    -22325.06    2670.2621 
  140400    282.37164   -22223.167    107.73712   -22330.904    24444.445 
  140600    300.92315   -22222.358    114.81533   -22337.173   -16540.648 
  140800     318.2771   -22199.508    121.43662   -22320.944   -19748.931 
  141000    295.82873   -22223.559    112.87158    -22336.43   -12246.112 
  141200    285.14145   -22222.803    108.79392   -22331.597   -14142.218 
  141400    326.37727   -22210.987    124.52719   -22335.514    19413.881 
  141600    306.76915   -22217.684    117.04583    -22334.73    1968.8339 
  141800    287.10857   -22222.864    109.54446   -22332.408   -30546.277 
  142000    327.96703   -22202.453    125.13375   -22327.587    21582.424 
  142200    274.28585   -22226.191    104.65203   -22330.843    4578.8472 
  142400    283.21371   -22216.509     108.0584   -22324.568    8382.7575 
  142600    302.49438   -22202.217    115.41482   -22317.632    8573.0769 
  142800    285.80032   -22221.598    109.04531   -22330.643    15026.036 
  143000    303.37139   -22202.963    115.74944   -22318.712   -10445.459 
  143200    314.93703   -22205.076    120.16224   -22325.238     3795.485 
  143400     290.2704   -22222.969    110.75084   -22333.719   -28051.276 
  143600    270.01243   -22217.289    103.02154   -22320.311   -53.226251 
  143800    319.50698   -22194.127    121.90587   -22316.033    14048.348 
  144000    322.86073   -22218.349    123.18547   -22341.535    10252.432 
  144200    293.19257   -22222.028    111.86577   -22333.894    4499.2245 
  144400    315.93537    -22192.06    120.54315   -22312.603    21476.582 
  144600    327.81619   -22196.531     125.0762   -22321.607   -11687.405 
  144800    310.12968    -22215.97    118.32802   -22334.298    21766.851 
  145000    279.60581   -22225.759    106.68183   -22332.441    5621.2907 
  145200    304.84291   -22197.258    116.31089   -22313.568   -27161.897 
  145400    283.31132   -22216.794    108.09564   -22324.889     6145.348 
  145600     301.0693    -22216.88    114.87109   -22331.751   -11274.997 
  145800    324.00773   -22209.746     123.6231   -22333.369   -3288.6628 
  146000    291.91493   -22209.047     111.3783   -22320.425     16894.22 
  146200    277.62108   -22233.163    105.92457   -22339.087    2944.6781 
  146400    324.27912   -22206.994    123.72665    -22330.72    11754.442 
  146600    286.47891   -22213.706    109.30422    -22323.01   -15543.544 
  146800    288.26236   -22228.191    109.98469   -22338.175    410.73075 
  147000    333.94838   -22198.264     127.4159    -22325.68   -5236.5041 
  147200     297.8516   -22216.034     113.6434   -22329.678    18170.387 
  147400    289.67397   -22223.427    110.52327    -22333.95   -2594.1402 
  147600    277.66006   -22217.931    105.93944    -22323.87   -1540.1265 
  147800    312.12041   -22203.089    119.08757   -22322.177   -207.80028 
  148000    331.08151   -22189.505    126.32206   -22315.827   -16415.855 
  148200    293.25158   -22218.619    111.88829   -22330.507   -12319.377 
  148400    293.35147   -22217.643     111.9264   -22329.569     13659.28 
  148600    302.74108   -22193.359    115.50895   -22308.868   -6980.8407 
  148800    266.43765   -22222.295     101.6576   -22323.952   -5433.3998 
  149000    310.06257    -22212.92    118.30242   -22331.223   -2531.3256 
  149200    314.43305   -22194.688    119.96995   -22314.658    8898.6736 
  149400    324.21183   -22221.618    123.70098   -22345.319   -6238.2398 
  149600    288.91554   -22216.461     110.2339   -22326.695    -13180.56 
  149800    289.57221   -22200.926    110.48445   -22311.411    12335.316 
  150000    273.00127   -22230.846    104.16191   -22335.008   -26049.771 
  150200    334.62977   -22225.192    127.67587   -22352.868    16723.879 
  150400    292.09239   -22226.753    111.44601   -22338.199    6524.8044 
  150600    267.54876   -22237.164    102.08154   -22339.246    3554.1254 
  150800    287.34152   -22242.758    109.63334   -22352.391    1365.8152 
  151000    312.34781   -22217.149    119.17433   -22336.324    21186.166 
  151200    296.46422   -22238.534    113.11405   -22351.648    19668.415 
  151400    294.08267    -22254.05    112.20539   -22366.255    13874.684 
  151600    270.00616   -22225.856    103.01915   -22328.875    10297.785 
  151800    306.78247   -22220.872    117.05092   -22337.923    5015.1916 
  152000     292.6285   -22247.966    111.65056   -22359.616   -1875.4771 
  152200    312.43242   -22216.778    119.20662   -22335.985   -21297.368 
  152400    316.20692    -22229.82    120.64675   -22350.467    7914.9338 
  152600    304.32745    -22243.36    116.11422   -22359.474   -11678.543 
  152800     348.9171   -22211.115    133.12711   -22344.242    11090.387 
  153000    294.31429   -22229.452    112.29376   -22341.746   -2385.2378 
  153200    301.86859   -22233.548    115.17605   -22348.724    15737.108 
  153400    320.74517   -22224.692    122.37829    -22347.07   -3187.1277 
  153600    301.22058   -22222.879    114.92881   -22337.808   -1525.1965 
  153800    294.77657   -22245.036    112.47014   -22357.506   -10490.774 
  154000    308.90064   -22229.564    117.85909   -22347.423    12616.942 
  154200    320.84783   -22233.796    122.41746   -22356.213   -5154.8649 
  154400    291.81879    -22250.19    111.34162   -22361.532    15740.647 
  154600     343.3696   -22223.655     131.0105   -22354.665   -10945.286 
  154800    291.21938   -22240.662    111.11292   -22351.775    14159.056 
  155000    256.34553   -22258.083    97.807019    -22355.89   -9680.2611 
  155200    297.67514   -22236.445    113.57607   -22350.022   -6168.6247 
  155400    316.41307   -22224.376    120.72541   -22345.101   -6570.2891 
  155600    271.55544   -22247.922    103.61026   -22351.532    11419.061 
  155800    307.92935   -22226.139     117.4885   -22343.627    19058.229 
  156000    323.29311   -22232.855    123.35045   -22356.206    10072.479 
  156200    300.15426   -22239.501    114.52196   -22354.023   -11721.638 
  156400    302.20308   -22232.948    115.30368   -22348.251    1717.5694 
  156600    360.90491   -22203.077    137.70099   -22340.778   -7169.5119 
  156800    316.79959   -22222.482    120.87288   -22343.355    19318.104 
  157000    270.72606   -22238.075    103.29382   -22341.369   -4844.0789 
  157200    285.93166   -22238.128    109.09542   -22347.224   -4517.8895 
  157400    316.93022   -22215.419    120.92272   -22336.342   -872.02016 
  157600    284.40615   -22242.131    108.51337   -22350.644   -12177.183 
  157800    281.20358   -22234.558    107.29145   -22341.849   -17673.931 
  158000    323.67685   -22216.442    123.49686   -22339.939   -15332.785 
  158200    323.93698   -22206.197    123.59611   -22329.793   -13795.786 
  158400    285.17363   -22235.989     108.8062   -22344.795   -1089.8673 
  158600    296.71394   -22233.314    113.20933   -22346.523    -1521.173 
  158800    298.80791   -22219.938    114.00827   -22333.947    7290.4942 
  159000    280.55084   -22236.231     107.0424   -22343.273   -7927.7934 
  159200    310.30121   -22239.171    118.39347   -22357.565   -5996.0912 
  159400    319.73729    -22217.58    121.99374   -22339.573   -22390.473 
  159600    285.56443   -22239.973    108.95531   -22348.928   -7612.4444 
  159800    296.98677   -22233.922    113.31343   -22347.235   -6352.9312 
  160000    312.53346   -22216.869    119.24517   -22336.114   -7017.1068 
  160200    306.20836   -22237.881    116.83187   -22354.712     13394.77 
  160400    293.50008   -22237.369     111.9831   -22349.352    18173.113 
  160600    316.14104   -22230.595    120.62162   -22351.216     11522.83 
  160800    271.91281   -22243.891    103.74662   -22347.638   -8906.4681 
  161000    302.71613   -22233.691    115.49943    -22349.19    1676.3948 
  161200    330.59692   -22221.072    126.13717    -22347.21   -5401.2848 
  161400    310.44294   -22236.428    118.44754   -22354.875    15923.518 
  161600     302.0055   -22236.536    115.22829   -22351.764    2185.1187 
  161800    281.87848   -22234.568    107.54895   -22342.117   -1936.2498 
  162000     340.3894   -22204.497    129.87343   -22334.371    32736.457 
  162200     301.1189   -22236.231    114.89002   -22351.121     11664.68 
  162400    299.79333   -22233.845    114.38425    -22348.23   -1874.7555 
  162600    324.58009   -22209.216    123.84148   -22333.057     -13226.8 
  162800    324.15784   -22239.804    123.68038   -22363.485   -4007.6974 
  163000    277.60697   -22233.805    105.91919   -22339.724   -15763.844 
  163200    309.90797   -22208.639    118.24343   -22326.882     28566.66 
  163400    291.09585   -22241.519    111.06578   -22352.585   -4281.6128 
  163600     297.8121    -22227.42    113.62833   -22341.049   -14005.027 
  163800    305.56013   -22224.727    116.58454   -22341.311   -4299.1543 
  164000    275.39642   -22251.147    105.07577   -22356.223   -17371.313 
  164200    316.33381   -22231.344    120.69517    -22352.04   -8888.2278 
  164400    263.92722   -22232.938    100.69976   -22333.638   -2337.0107 
  164600     256.9119   -22245.917    98.023114    -22343.94    5312.4039 
  164800    302.95047   -22219.862    115.58884   -22335.451    9693.0587 
  165000    320.23156   -22227.799    122.18233   -22349.982   -7316.1868 
  165200    290.86071   -22239.423    110.97607   -22350.399    446.79632 
  165400    309.94696   -22234.168    118.25831   -22352.426   -19425.626 
  165600    321.19928   -22223.643    122.55156   -22346.195    14981.708 
  165800    364.12317   -22224.354     138.9289   -22363.282    15876.041 
  166000    316.55573   -22252.017    120.77984   -22372.796   -15166.566 
  166200    311.40816   -22236.289    118.81582   -22355.105    10712.368 
  166400    310.34038   -22226.564    118.40841   -22344.972    8138.5404 
  166600    284.11811   -22252.748    108.40347   -22361.151    18181.946 
  166800    330.19988   -22238.222    125.98568   -22364.208    4856.1549 
  167000    329.83801   -22233.162    125.84761    -22359.01   -13939.239 
  167200    255.95808   -22258.326    97.659188   -22355.985   -16486.502 
  167400    298.86843   -22231.562    114.03136   -22345.593    23263.761 
  167600     266.7819   -22253.794    101.78895   -22355.583    506.09081 
  167800    292.99299   -22251.608    111.78963   -22363.398    3173.5599 
  168000    335.40824   -22238.785     127.9729   -22366.757   -7173.4637 
  168200    271.28647   -22267.623    103.50764   -22371.131    8615.2169 
  168400    315.16669   -22250.879    120.24986   -22371.129   -10703.793 
  168600     304.8481   -22247.647    116.31287    -22363.96   -9653.1304 
  168800    307.60654   -22248.452    117.36533   -22365.818    2498.9114 
  169000    269.31724   -22263.032    102.75629   -22365.788   -8090.1914 
  169200    302.43708   -22257.357    115.39296    -22372.75   -12084.813 
  169400    331.10343   -22236.573    126.33042   -22362.903    23868.711 
  169600    294.21341   -22256.208    112.25527   -22368.464    4074.2933 
  169800    305.50137   -22252.479    116.56212   -22369.042    1521.8676 
  170000    294.89091   -22246.518    112.51377   -22359.032    9994.8871 
  170200     256.7522   -22277.836    97.962182   -22375.798     12455.77 
  170400     283.0795   -22261.343     108.0072    -22369.35   -15936.833 
  170600    306.70296   -22243.859    117.02058    -22360.88   -7384.2522 
  170800    290.75848   -22251.669    110.93706   -22362.606    13768.963 
  171000    270.88883   -22262.182    103.35592   -22365.538   -28059.715 
  171200    309.10375   -22237.426    117.93658   -22355.362   -12329.786 
  171400    291.75803   -22255.561    111.31843    -22366.88   -10329.686 
  171600    292.76109   -22255.772    111.70115   -22367.473   -23862.223 
  171800    323.68383   -22227.184    123.49952   -22350.683    190.16928 
  172000    316.86557   -22254.223    120.89806   -22375.121   -5815.1913 
  172200    310.64692   -22244.984    118.52537    -22363.51   -5040.3364 
  172400    307.02336   -22229.231    117.14282   -22346.374   -4735.1165 
  172600    315.26224   -22243.665    120.28632   -22363.951   -6534.3594 
  172800    301.76242   -22261.158    115.13555   -22376.293   -379.64127 
  173000    348.74866   -22231.507    133.06285    -22364.57     1236.477 
  173200    352.23706   -22236.461    134.39383   -22370.855   -27507.273 
  173400    273.84642   -22248.046    104.48437    -22352.53   -5958.0108 
  173600    289.62406   -22235.546    110.50423    -22346.05   -9990.0432 
  173800    341.07406   -22237.129    130.13465   -22367.264    5639.1489 
  174000    268.16856   -22258.299    102.31802   -22360.617    48692.119 
  174200    327.79335   -22240.645    125.06748   -22365.713    12106.898 
  174400    253.37508   -22251.799     96.67366   -22348.473   -24317.473 
  174600    286.89245   -22261.808      109.462    -22371.27    11018.524 
  174800    299.63619   -22236.967     114.3243   -22351.291   -16966.437 
  175000    310.92821   -22246.423    118.63269   -22365.055   -1615.8292 
  175200     257.0868   -22269.084    98.089844   -22367.173   -4393.7123 
  175400    294.57298   -22265.113    112.39246   -22377.505    6206.9334 
  175600    322.08393   -22243.242    122.88909   -22366.131    6439.3339 
  175800    321.77051   -22248.148    122.76951   -22370.917   -25144.503 
  176000    282.07471   -22264.796    107.62382   -22372.419    5204.3697 
  176200     321.3342   -22235.654    122.60304   -22358.257    2973.9413 
  176400    305.65488   -22252.836    116.62069   -22369.457    3534.0972 
  176600    283.73802   -22258.918    108.25845   -22367.176    -14964.39 
  176800    314.30877   -22239.429    119.92253   -22359.351    9125.6306 
  177000    346.24058   -22219.306    132.10591   -22351.412   -4615.7535 
  177200    281.56931    -22249.08    107.43099   -22356.511   -6860.8251 
  177400     297.2961   -22246.928    113.43145   -22360.359   -3993.8593 
  177600    343.07314   -22221.899    130.89739   -22352.797    9917.8217 
  177800    293.99381   -22254.262    112.17148   -22366.433     -6077.23 
[...]
  950000    277.93444   -22545.472    106.04413   -22651.516    8299.5778 
  950200    283.28459   -22520.768    108.08545   -22628.854    -622.1289 
  950400    344.44491   -22519.538    131.42078   -22650.959   -21711.211 
  950600    297.56083   -22532.005    113.53245   -22645.538   -10129.023 
  950800    262.95702   -22534.551    100.32959   -22634.881     2814.469 
  951000     295.6776   -22533.732    112.81392   -22646.546   -994.16428 
  951200     301.4443   -22558.394    115.01417   -22673.409    17065.856 
  951400    321.00812   -22532.984    122.47862   -22655.462       8913.4 
  951600    298.86411   -22533.872    114.02972   -22647.902   -2559.1064 
  951800    253.90109   -22551.433     96.87436   -22648.307    13984.503 
  952000    295.14229   -22549.037    112.60968   -22661.646   -7538.5652 
  952200    325.51241   -22533.668     124.1972   -22657.865   -3319.6359 
  952400    294.34294   -22549.072    112.30469   -22661.377    5217.1925 
  952600    282.70682   -22555.594      107.865   -22663.459   -18823.817 
  952800    323.05814   -22528.681    123.26079   -22651.941    -11051.05 
  953000    281.77942   -22549.672    107.51116   -22657.184   -1371.1118 
  953200     277.3881   -22553.548    105.83568   -22659.384   -2933.5743 
  953400    318.83783   -22524.108    121.65056   -22645.758    5832.6971 
  953600     284.6077   -22541.739    108.59027   -22650.329    9909.2009 
  953800    296.57899   -22549.511    113.15784   -22662.669     30241.53 
  954000    345.84008   -22521.119     131.9531   -22653.072   -19889.881 
  954200    275.38278   -22547.604    105.07056   -22652.674   -4485.3197 
  954400     316.5192    -22537.88     120.7659   -22658.646   -18482.245 
  954600    343.24458   -22514.053     130.9628   -22645.015    21978.868 
  954800    305.10541   -22536.725    116.41104   -22653.136   -6633.4558 
  955000    277.74382   -22543.298     105.9714   -22649.269    21220.593 
  955200    326.04356   -22509.948    124.39986   -22634.348    6025.8189 
  955400    302.82921   -22533.641    115.54257   -22649.184   -5342.9615 
  955600    312.23186   -22535.149    119.13009   -22654.279   -5822.5389 
  955800    291.59347   -22546.171    111.25565   -22657.426    17780.398 
  956000    308.42998    -22548.62    117.67951   -22666.299    6646.1758 
  956200    308.70858   -22526.625    117.78581   -22644.411   -6054.3453 
  956400    309.22636   -22536.108    117.98336   -22654.091    1572.3452 
  956600    257.50808   -22556.879    98.250581    -22655.13    1353.0907 
  956800    300.40216   -22528.966    114.61655   -22643.583    31394.536 
  957000    309.02406   -22535.073    117.90618    -22652.98    8510.9327 
  957200    274.56652   -22559.326    104.75912   -22664.085    11658.728 
  957400    312.82075   -22528.735    119.35478    -22648.09   -34846.569 
  957600    305.48335   -22530.224    116.55524   -22646.779    26929.435 
  957800    270.69396   -22555.081    103.28157   -22658.363   -12290.641 
  958000    299.18024    -22537.64    114.15033    -22651.79     11205.12 
  958200    298.11921   -22530.618     113.7455   -22644.364    16784.477 
  958400     309.9319   -22551.604    118.25256   -22669.857   -4176.3329 
  958600    310.61216   -22517.214    118.51211   -22635.726   -22813.822 
  958800    307.04615   -22537.829    117.15152    -22654.98     8876.848 
  959000    293.98158   -22550.292    112.16682   -22662.459   -4060.9087 
  959200    322.58035   -22517.425     123.0785   -22640.504   -34069.387 
  959400    293.66706   -22535.985    112.04681   -22648.032   -14429.585 
  959600    271.46674   -22544.311    103.57642   -22647.887     2251.972 
  959800    323.17337   -22520.623    123.30476   -22643.928    2294.9686 
  960000     311.8231   -22529.016    118.97413    -22647.99    6498.9496 
  960200     286.7307   -22542.023    109.40029   -22651.423    5178.5889 
  960400    336.46093   -22520.062    128.37454   -22648.437    17843.464 
  960600    329.36389   -22538.064    125.66671   -22663.731    4096.5552 
  960800    301.64238   -22542.386    115.08975   -22657.475   -796.69946 
  961000    300.77693   -22524.522    114.75954   -22639.282   -17439.034 
  961200     285.2282   -22545.757    108.82702   -22654.584   -9107.6933 
  961400    293.59221   -22544.826    112.01825   -22656.845   -5254.0002 
  961600    317.68276   -22521.477    121.20985   -22642.687    17827.561 
  961800    320.23889   -22537.791    122.18513   -22659.976   -19615.611 
  962000    274.66285   -22553.442    104.79588   -22658.238   -8286.3195 
  962200    303.36739   -22522.892    115.74791    -22638.64    10576.782 
  962400    333.68414   -22532.118    127.31508   -22659.434   -15694.524 
  962600    289.45043   -22548.651    110.43798   -22659.089    -6480.244 
  962800    318.01211   -22536.817    121.33551   -22658.152   -18268.055 
  963000    319.17244    -22530.37    121.77823   -22652.148   -1053.3169 
  963200    297.99968   -22510.266     113.6999   -22623.966   -17336.799 
  963400    314.24724   -22533.475    119.89905   -22653.374   -316.95401 
  963600    303.16661   -22536.273     115.6713   -22651.944   -835.30233 
  963800    341.54332   -22508.688     130.3137   -22639.002   -23084.722 
  964000    302.42967   -22534.595    115.39013   -22649.985   -2457.7398 
  964200    309.62383    -22538.62    118.13502   -22656.755    6620.9771 
  964400    337.22176    -22515.95    128.66483   -22644.615    31483.671 
  964600    296.42007   -22545.912    113.09721   -22659.009    758.98222 
  964800    300.49174   -22538.662    114.65072   -22653.313   -7054.8286 
  965000    296.74702   -22524.192    113.22195   -22637.414   -20937.824 
  965200    258.54429   -22552.893     98.64594   -22651.539   -2693.4242 
  965400     328.7758   -22531.872    125.44233   -22657.314   -10889.863 
  965600    274.68508   -22553.464    104.80436   -22658.269   -8781.4351 
  965800    283.72634   -22547.183    108.25399   -22655.437   -15825.275 
  966000    277.34889   -22533.783    105.82072   -22639.604   -13316.635 
  966200    309.20099   -22538.038    117.97369   -22656.012   -1725.8834 
  966400    276.60501   -22558.588    105.53689   -22664.125   -16991.824 
  966600    338.95858   -22531.474    129.32751   -22660.801    23949.795 
  966800    332.40686   -22535.755    126.82774   -22662.583   -21548.714 
  967000    262.40109   -22565.136    100.11748   -22665.253     10494.24 
  967200    264.84124   -22545.268     101.0485   -22646.316   -2343.5398 
  967400    330.75593    -22528.77    126.19784   -22654.968   -13768.567 
  967600     290.2884   -22558.944    110.75771   -22669.701   -874.77297 
  967800    275.83714   -22546.716    105.24392    -22651.96    11863.389 
  968000    315.26794   -22533.616    120.28849   -22653.904   -15015.769 
  968200    303.21213   -22526.604    115.68868   -22642.293   -6481.2104 
  968400    311.41628   -22526.182    118.81891   -22645.001    3154.2601 
  968600    275.73126   -22543.851    105.20352   -22649.055    15461.124 
  968800    327.07217   -22520.077    124.79232   -22644.869   -11112.639 
  969000     332.3768   -22524.481    126.81627   -22651.297    5586.3518 
  969200    283.21711   -22549.992     108.0597   -22658.052    2547.4983 
  969400    328.73913   -22529.073    125.42834   -22654.501   -880.93221 
  969600    321.81069   -22523.614    122.78484   -22646.398    31251.744 
  969800    291.98158   -22535.866    111.40373    -22647.27   -2089.6254 
  970000    299.16004   -22532.078    114.14263   -22646.221    20102.188 
  970200    331.31364   -22521.699    126.41063   -22648.109   -16595.268 
  970400    285.30441   -22543.849     108.8561   -22652.705    6083.1297 
  970600    305.88365   -22543.936    116.70798   -22660.644     -11773.1 
  970800    334.30094   -22518.581    127.55041   -22646.131    11181.261 
  971000    303.83169   -22543.548    115.92506   -22659.473   -20933.579 
  971200    315.89641   -22542.063    120.52828   -22662.592    21786.921 
  971400    296.49373   -22534.753    113.12531   -22647.878   -1474.8233 
  971600    281.93277   -22541.078    107.56967   -22648.647   -14138.525 
  971800    281.30416   -22560.227    107.32983   -22667.557   -19482.227 
  972000    303.21061   -22532.247     115.6881   -22647.935    3877.4423 
  972200    300.35119   -22532.124     114.5971   -22646.722   -12655.806 
  972400    251.23475   -22563.855    95.857032   -22659.712    37581.955 
  972600    273.61857   -22541.553    104.39744    -22645.95    14711.316 
  972800    307.69863   -22534.246    117.40047   -22651.647    11083.248 
  973000    305.96669   -22545.894    116.73966   -22662.633   -11566.986 
  973200    293.61093   -22542.913     112.0254   -22654.939   -14944.649 
  973400     317.4084    -22520.67    121.10517   -22641.775   -28706.848 
  973600    282.04906   -22551.978    107.61404   -22659.592     22508.42 
  973800    294.85406   -22539.891    112.49971   -22652.391    76.313298 
  974000    322.39839   -22529.202    123.00907   -22652.211   -5632.7541 
  974200    296.74195   -22561.551    113.22002   -22674.771   -11399.766 
  974400    316.99312   -22544.261    120.94672   -22665.208   -3899.9648 
  974600    316.06023   -22526.277    120.59079   -22646.868    31277.835 
  974800    278.71506    -22543.03    106.34197   -22649.372   -2620.7426 
  975000    259.35731   -22547.197    98.956145   -22646.154   -8750.8246 
  975200    324.99007   -22522.926    123.99791   -22646.924    8928.9264 
  975400    332.81929   -22532.142     126.9851   -22659.127   -16529.621 
  975600    266.25563   -22560.515    101.58815   -22662.103    20114.064 
  975800    297.76705   -22533.398    113.61114   -22647.009    5611.2795 
  976000    304.58788   -22539.654    116.21358   -22655.868    8163.3779 
  976200    277.94533   -22546.914    106.04829   -22652.962    2157.5307 
  976400    326.63973    -22520.97    124.62733   -22645.598    12818.183 
  976600    313.60426   -22540.458    119.65372   -22660.112   -1272.9163 
  976800    287.58456   -22557.864    109.72607    -22667.59    11991.121 
  977000    331.80385   -22521.046    126.59767   -22647.643   -7474.7338 
  977200    289.92092   -22547.386     110.6175   -22658.003    7650.8037 
  977400    302.59642   -22536.412    115.45376   -22651.865    -439.9985 
  977600    295.70248   -22528.172    112.82342   -22640.995   -13644.779 
  977800    310.05768   -22546.497    118.30055   -22664.798    22480.438 
  978000    267.66086   -22556.871    102.12431   -22658.996   -2908.0537 
  978200    297.66965   -22529.247    113.57397   -22642.821   -26058.331 
  978400    315.09062    -22535.35    120.22084   -22655.571   -63.594584 
  978600    288.89349   -22557.131    110.22549   -22667.357    27683.395 
  978800    323.86604   -22524.097    123.56904   -22647.667   -18854.509 
  979000    302.06426   -22539.731    115.25071   -22654.981   -18023.387 
  979200    301.98007   -22552.889    115.21859   -22668.108     5193.179 
  979400    350.39155   -22524.238    133.68968   -22657.928    35107.688 
  979600    313.94545   -22545.793    119.78391   -22665.577   -5302.7294 
  979800    274.39057   -22531.933    104.69199   -22636.625    4136.0456 
  980000    336.33649   -22518.117    128.32706   -22646.444    10369.864 
  980200    309.68434   -22534.071    118.15811   -22652.229   -26977.924 
  980400    285.37612    -22537.75    108.88346   -22646.633   -10190.424 
  980600     295.5599   -22555.605    112.76901   -22668.374   -21499.057 
  980800    311.40129   -22532.716     118.8132   -22651.529    7345.9989 
  981000     298.7906   -22536.002    114.00167   -22650.004    13899.448 
  981200     286.0437   -22534.115    109.13817   -22643.253   -1221.8533 
  981400    351.83836   -22513.946    134.24171   -22648.188   -8004.2663 
  981600    268.96563    -22539.25    102.62214   -22641.873   -9423.2162 
  981800    293.32085   -22528.405    111.91472    -22640.32    -10268.75 
  982000     345.5564   -22506.743    131.84486   -22638.588   -19119.901 
  982200    280.62049   -22536.694    107.06898   -22643.763    8397.7596 
  982400     277.5979    -22532.51    105.91572   -22638.426   -12602.199 
  982600     331.9933   -22521.106    126.66995   -22647.776   -2487.4866 
  982800    256.81303    -22552.53    97.985391   -22650.516    4683.9963 
  983000    293.81224   -22533.433    112.10221   -22645.536   -22067.882 
  983200    295.24976   -22528.111    112.65068   -22640.761     6528.202 
  983400    303.91604   -22537.333    115.95725   -22653.291    3627.5963 
  983600    253.88205   -22562.375    96.867093   -22659.242     10122.28 
  983800    283.97181   -22546.428    108.34765   -22654.776    16200.629 
  984000    289.14295   -22539.185    110.32067   -22649.506   -10938.578 
  984200    310.85448    -22518.65    118.60456   -22637.254     2604.555 
  984400    313.61905   -22533.599    119.65937   -22653.258    35856.246 
  984600    298.30819   -22542.726    113.81761   -22656.543   -2721.7004 
  984800    326.67574   -22522.403    124.64107   -22647.045    1866.9099 
  985000    306.58155   -22541.089    116.97426   -22658.064   -25696.939 
  985200    290.07721   -22544.091    110.67713   -22654.768    -10921.52 
  985400    315.02848   -22524.333    120.19713    -22644.53    3591.3339 
  985600    312.68291   -22532.617    119.30219   -22651.919    11512.065 
  985800    301.62922   -22538.829    115.08472   -22653.914     23015.82 
  986000    243.97563   -22566.977    93.087361   -22660.064   -4344.5912 
  986200    284.17335    -22541.46    108.42455   -22649.885    7918.9957 
  986400    310.18673   -22526.103    118.34979   -22644.452   -8329.3831 
  986600    301.29172   -22533.302    114.95595   -22648.258   -22386.235 
  986800    285.90357   -22550.655     109.0847    -22659.74   -4750.5923 
  987000    332.55456    -22525.04    126.88409   -22651.924   -2699.8398 
  987200    305.81495   -22531.885    116.68176   -22648.566   -5555.5687 
  987400    296.39847   -22539.189    113.08896   -22652.278     18773.82 
  987600    310.22003    -22539.45    118.36249   -22657.813   -2277.5479 
  987800    343.61509   -22525.572    131.10417   -22656.677    13267.589 
  988000    312.33619   -22542.429     119.1699   -22661.599   -11353.082 
  988200    285.86584   -22542.985    109.07031   -22652.055    30287.414 
  988400    295.06762   -22521.036    112.58119   -22633.617   -22038.405 
  988600    298.64731   -22544.053    113.94699       -22658    7378.1843 
  988800    286.79503   -22543.367    109.42483   -22652.792    16763.958 
  989000    321.18501   -22522.932    122.54611   -22645.478    -9814.047 
  989200    271.77731   -22545.065    103.69492    -22648.76    3487.1024 
  989400    284.88484   -22538.392    108.69601   -22647.088    9770.1461 
  989600     289.4475   -22537.098    110.43687   -22647.535    59.664822 
  989800    294.46168   -22536.518       112.35   -22648.868   -8342.0415 
  990000     289.4432   -22542.566    110.43523   -22653.001    31631.797 
  990200    303.69584   -22535.859    115.87323   -22651.733    -11758.44 
  990400    336.31357    -22518.03    128.31832   -22646.349   -6510.7681 
  990600    319.52401   -22544.679    121.91237   -22666.592    14754.154 
  990800    287.40352   -22546.609      109.657   -22656.266   -3347.3386 
  991000    356.60524   -22515.318    136.06048   -22651.378   -2726.4787 
  991200    270.42483   -22543.588    103.17889   -22646.767    28779.245 
  991400     308.7207    -22542.59    117.79043   -22660.381   -1081.9777 
  991600    330.72436    -22524.15    126.18579   -22650.335   -16731.471 
  991800    295.01314   -22540.277     112.5604   -22652.837   -19356.959 
  992000    314.20942   -22549.706    119.88462   -22669.591   -1504.9106 
  992200    298.33407   -22525.384    113.82748   -22639.211    6935.8443 
  992400     312.8961   -22537.069    119.38353   -22656.452    9913.4888 
  992600    285.76266   -22555.305    109.03094   -22664.336     14300.53 
  992800    285.16551   -22551.284     108.8031   -22660.087    7830.9494 
  993000    279.43839   -22531.823    106.61795   -22638.441    10211.986 
  993200    296.83216   -22549.295    113.25444   -22662.549    4214.0488 
  993400    285.65149   -22548.972    108.98852   -22657.961   -3186.8082 
  993600    315.30081   -22530.994    120.30103   -22651.295   -2360.4304 
  993800    287.62793   -22538.866    109.74262   -22648.608    16177.113 
  994000     270.1588   -22546.227    103.07739   -22649.304    30052.779 
  994200     301.5945   -22520.808    115.07148    -22635.88   -10763.554 
  994400    313.41788   -22530.485    119.58261   -22650.068    18360.696 
  994600    287.75642    -22551.55    109.79165   -22661.341   -1963.3861 
  994800      300.749   -22533.249    114.74888   -22647.997   -4566.9367 
  995000     304.7241   -22528.537    116.26556   -22644.802    8805.7674 
  995200     247.7133   -22556.029    94.513447   -22650.543   -14793.805 
  995400    301.45387   -22532.888    115.01782   -22647.906   -7886.8549 
  995600    293.03622    -22534.25    111.80612   -22646.056   -4680.0902 
  995800    270.42602   -22562.346    103.17934   -22665.526   -13444.977 
  996000    283.38538   -22538.211     108.1239   -22646.335     16386.57 
  996200    325.44015   -22529.057    124.16963   -22653.227   -5788.7375 
  996400    274.95999   -22561.324    104.90925   -22666.234   -13516.546 
  996600    281.23073   -22546.445    107.30181   -22653.747   -9977.5788 
  996800    320.46599   -22530.105    122.27177   -22652.377     19906.73 
  997000    306.69736   -22550.491    117.01844   -22667.509   -26036.971 
  997200    289.00958   -22555.239    110.26978   -22665.509    29124.027 
  997400    282.92028   -22538.174    107.94645   -22646.121    5128.8256 
  997600    329.43733   -22523.284    125.69473   -22648.978    34431.451 
  997800    308.26488   -22537.336    117.61652   -22654.953   -13730.214 
  998000     273.6703   -22549.388    104.41717   -22653.805    20713.231 
  998200    325.76436   -22528.921    124.29333   -22653.214   -3407.1134 
  998400    307.78293    -22538.27    117.43263   -22655.703    11778.977 
  998600    250.46154    -22558.48     95.56202   -22654.042   -6565.9008 
  998800    309.44955   -22549.413    118.06852   -22667.482   -11332.076 
  999000    304.81084   -22534.463    116.29865   -22650.762   -12007.182 
  999200    310.55854   -22540.842    118.49165   -22659.334    15997.735 
  999400    303.13261   -22547.474    115.65833   -22663.132   -14445.471 
  999600    312.18813   -22520.735    119.11341   -22639.849     14476.25 
  999800    307.96081   -22533.523     117.5005   -22651.023    19.903881 
 1000000    295.81018   -22537.107    112.86451   -22649.971    18381.373 
Loop time of 14312.1 on 8 procs for 1000000 steps with 129 atoms

Performance: 1.509 ns/day, 15.902 hours/ns, 69.871 timesteps/s
99.6% CPU use with 8 MPI tasks x no OpenMP threads

MPI task timing breakdown:
Section |  min time  |  avg time  |  max time  |%varavg| %total
---------------------------------------------------------------
Pair    | 10143      | 11600      | 12043      | 558.5 | 81.05
Neigh   | 1.616      | 1.6786     | 1.744      |   3.7 |  0.01
Comm    | 276.99     | 718.82     | 2177.5     |2245.2 |  5.02
Output  | 0.4134     | 0.44592    | 0.61639    |   9.7 |  0.00
Modify  | 1969.8     | 1971.5     | 1975.3     |   3.9 | 13.78
Other   |            | 19.96      |            |       |  0.14

Nlocal:    16.125 ave 42 max 7 min
Histogram: 4 2 0 0 0 0 0 1 0 1
Nghost:    517.625 ave 547 max 484 min
Histogram: 1 1 0 1 0 1 1 1 0 2
Neighs:    1043.62 ave 2518 max 482 min
Histogram: 4 2 0 0 0 0 0 1 0 1

Total # of neighbors = 8349
Ave neighs/atom = 64.7209
Neighbor list builds = 787
Dangerous builds = 0

unfix 1
unfix output
undump 1

Please see the log.cite file for references relevant to this simulation

Total wall time: 3:59:21
