ITEM: TIMESTEP
0
ITEM: NUMBER OF ATOMS
50
ITEM: BOX BOUNDS pp pp pp
0.0000000000000000e+00 1.1000000000000000e+01
0.0000000000000000e+00 1.1002000000000001e+01
0.0000000000000000e+00 1.1000000000000000e+01
ITEM: ATOMS id type x y z 
10 1 4.603 4.603 4.603 
11 1 3.085 3.085 3.085 
12 1 3.796 3.796 3.796 
46 1 0.726 0.725 0.725 
47 1 2.26 2.259 2.26 
48 1 1.551 1.55 1.55 
49 2 1.845 2.088 3.54 
50 3 1.845 2.088 4.516 
19 1 4.546 4.545 6.226 
20 1 3.013 3.013 7.764 
21 1 3.721 3.721 7.053 
31 1 0.668 0.667 10.103 
32 1 2.187 2.187 8.589 
33 1 1.476 1.475 9.298 
16 1 4.546 6.225 4.546 
17 1 3.013 7.765 3.013 
18 1 3.721 7.053 3.722 
25 1 0.668 10.103 0.668 
26 1 2.188 8.589 2.188 
27 1 1.476 9.298 1.476 
4 1 4.608 6.169 6.169 
5 1 3.086 7.684 7.684 
6 1 3.799 6.974 6.974 
37 1 0.729 10.046 10.046 
38 1 2.259 8.509 8.508 
39 1 1.552 9.219 9.219 
13 1 6.225 4.546 4.546 
14 1 7.764 3.013 3.013 
15 1 7.053 3.721 3.722 
28 1 10.102 0.667 0.668 
29 1 8.589 2.187 2.188 
30 1 9.298 1.475 1.476 
1 1 6.168 4.608 6.169 
2 1 7.684 3.086 7.684 
3 1 6.974 3.799 6.974 
40 1 10.045 0.728 10.046 
41 1 8.508 2.259 8.508 
42 1 9.218 1.551 9.218 
7 1 6.169 6.169 4.608 
8 1 7.684 7.684 3.086 
9 1 6.974 6.974 3.799 
43 1 10.046 10.047 0.729 
44 1 8.508 8.509 2.259 
45 1 9.219 9.219 1.552 
22 1 6.229 6.229 6.229 
23 1 7.764 7.765 7.765 
24 1 7.055 7.056 7.055 
34 1 10.108 10.108 10.107 
35 1 8.59 8.59 8.59 
36 1 9.301 9.301 9.3 
ITEM: TIMESTEP
10
ITEM: NUMBER OF ATOMS
50
ITEM: BOX BOUNDS pp pp pp
0.0000000000000000e+00 1.1000000000000000e+01
0.0000000000000000e+00 1.1002000000000001e+01
0.0000000000000000e+00 1.1000000000000000e+01
ITEM: ATOMS id type x y z 
10 1 4.61149 4.61345 4.61606 
11 1 3.12655 3.11784 3.0523 
12 1 3.82307 3.81966 3.79544 
46 1 0.775515 0.771997 0.754968 
47 1 2.21711 2.24123 2.38808 
48 1 1.51959 1.51727 1.49334 
49 2 1.86573 2.08806 3.49634 
50 3 1.82379 2.07698 4.52839 
19 1 4.54594 4.54726 6.23943 
20 1 3.00949 3.01188 7.76453 
21 1 3.72119 3.71792 7.05648 
31 1 0.654368 0.652478 10.0648 
32 1 2.19388 2.19228 8.59 
33 1 1.47163 1.47237 9.28024 
16 1 4.54792 6.23759 4.54854 
17 1 3.01307 7.76323 3.01331 
18 1 3.71925 7.05745 3.71973 
25 1 0.653372 10.065 0.653902 
26 1 2.19536 8.58924 2.19556 
27 1 1.47208 9.28116 1.47203 
4 1 4.60785 6.16661 6.16278 
5 1 3.08546 7.68359 7.68143 
6 1 3.80232 6.97409 6.97632 
37 1 0.738787 10.0578 10.0581 
38 1 2.26481 8.50175 8.50215 
39 1 1.55976 9.21253 9.21168 
13 1 6.23832 4.54848 4.54711 
14 1 7.76392 3.01291 3.01143 
15 1 7.05636 3.71874 3.72188 
28 1 10.0642 0.652161 0.654161 
29 1 8.58911 2.19388 2.19581 
30 1 9.28085 1.47143 1.47159 
1 1 6.16645 4.61009 6.16541 
2 1 7.68395 3.08796 7.6845 
3 1 6.97266 3.79736 6.97203 
40 1 10.0578 0.739605 10.0584 
41 1 8.50194 2.26713 8.50119 
42 1 9.21033 1.55434 9.21136 
7 1 6.1637 6.16414 4.60672 
8 1 7.68166 7.68232 3.08485 
9 1 6.97586 6.97562 3.80352 
43 1 10.0582 10.0592 0.739359 
44 1 8.50151 8.50179 2.26522 
45 1 9.21279 9.21315 1.559 
22 1 6.22776 6.22982 6.22944 
23 1 7.76615 7.76895 7.76919 
24 1 7.05809 7.057 7.0558 
34 1 10.0989 10.097 10.0958 
35 1 8.59236 8.58964 8.58909 
36 1 9.29975 9.30353 9.30324 
ITEM: TIMESTEP
20
ITEM: NUMBER OF ATOMS
50
ITEM: BOX BOUNDS pp pp pp
0.0000000000000000e+00 1.1000000000000000e+01
0.0000000000000000e+00 1.1002000000000001e+01
0.0000000000000000e+00 1.1000000000000000e+01
ITEM: ATOMS id type x y z 
10 1 4.61802 4.62015 4.62229 
11 1 3.13986 3.12522 3.02704 
12 1 3.83447 3.82701 3.76079 
46 1 0.800914 0.791472 0.740709 
47 1 2.18526 2.22904 2.46231 
48 1 1.51342 1.51548 1.5114 
49 2 1.87323 2.08073 3.51241 
50 3 1.80515 2.06704 4.50442 
19 1 4.54464 4.54231 6.23186 
20 1 3.01112 3.00858 7.76679 
21 1 3.72034 3.72457 7.05939 
31 1 0.658999 0.657729 10.0392 
32 1 2.18912 2.1891 8.58882 
33 1 1.46417 1.46344 9.27597 
16 1 4.54625 6.23262 4.54708 
17 1 3.01241 7.76697 3.01265 
18 1 3.72405 7.05762 3.72439 
25 1 0.656182 10.0412 0.65669 
26 1 2.188 8.5911 2.19009 
27 1 1.46356 9.27897 1.46067 
4 1 4.6142 6.17107 6.16828 
5 1 3.09247 7.67846 7.68014 
6 1 3.80311 6.9692 6.9649 
37 1 0.743815 10.0509 10.0549 
38 1 2.25733 8.50675 8.50526 
39 1 1.56182 9.21937 9.2213 
13 1 6.23293 4.54555 4.54718 
14 1 7.76744 3.00939 3.01199 
15 1 7.06005 3.72499 3.72188 
28 1 10.0402 0.655438 0.656389 
29 1 8.59092 2.18781 2.18972 
30 1 9.27796 1.46231 1.46178 
1 1 6.16965 4.61002 6.1675 
2 1 7.67754 3.08904 7.67676 
3 1 6.9703 3.81085 6.97078 
40 1 10.0499 0.742984 10.0561 
41 1 8.50477 2.25717 8.50511 
42 1 9.21996 1.56028 9.22058 
7 1 6.16896 6.16948 4.61483 
8 1 7.68053 7.67971 3.09448 
9 1 6.96437 6.96642 3.79948 
43 1 10.0575 10.0589 0.748333 
44 1 8.505 8.50529 2.25747 
45 1 9.22029 9.22111 1.5628 
22 1 6.23715 6.23728 6.23627 
23 1 7.76772 7.76762 7.76595 
24 1 7.05407 7.05639 7.05843 
34 1 10.1094 10.1112 10.1082 
35 1 8.58804 8.59084 8.59132 
36 1 9.30543 9.30087 9.29891 
ITEM: TIMESTEP
30
ITEM: NUMBER OF ATOMS
50
ITEM: BOX BOUNDS pp pp pp
0.0000000000000000e+00 1.1000000000000000e+01
0.0000000000000000e+00 1.1002000000000001e+01
0.0000000000000000e+00 1.1000000000000000e+01
ITEM: ATOMS id type x y z 
10 1 4.61638 4.61683 4.6168 
11 1 3.14339 3.1285 3.01925 
12 1 3.83819 3.82837 3.75572 
46 1 0.808758 0.797583 0.739315 
47 1 2.18206 2.22801 2.46816 
48 1 1.51256 1.51684 1.51945 
49 2 1.87004 2.07576 3.52313 
50 3 1.79848 2.0632 4.50596 
19 1 4.54422 4.54307 6.23353 
20 1 3.01148 3.0104 7.76816 
21 1 3.72052 3.72265 7.05777 
31 1 0.655366 0.654535 10.038 
32 1 2.19161 2.19137 8.58455 
33 1 1.46662 1.46578 9.26965 
16 1 4.54577 6.2355 4.54697 
17 1 3.0119 7.77008 3.01212 
18 1 3.7208 7.05866 3.72154 
25 1 0.651907 10.0405 0.651301 
26 1 2.19113 8.58747 2.19086 
27 1 1.46446 9.27258 1.46587 
4 1 4.61473 6.16809 6.16718 
5 1 3.08898 7.6796 7.6798 
6 1 3.80393 6.97189 6.96949 
37 1 0.744397 10.0532 10.0579 
38 1 2.26311 8.50322 8.50225 
39 1 1.56389 9.21474 9.21675 
13 1 6.23595 4.54567 4.54675 
14 1 7.76973 3.01042 3.01175 
15 1 7.06013 3.72212 3.72101 
28 1 10.0393 0.650319 0.651028 
29 1 8.58742 2.18981 2.19113 
30 1 9.27221 1.46396 1.46502 
1 1 6.16724 4.61323 6.16693 
2 1 7.67974 3.08857 7.6795 
3 1 6.97191 3.80569 6.97135 
40 1 10.0525 0.74369 10.0593 
41 1 8.50222 2.26154 8.50206 
42 1 9.21467 1.56319 9.21652 
7 1 6.16815 6.16741 4.61486 
8 1 7.68045 7.67997 3.09014 
9 1 6.96848 6.97009 3.80109 
43 1 10.0613 10.063 0.750451 
44 1 8.50269 8.50285 2.26112 
45 1 9.2174 9.21827 1.56677 
22 1 6.23474 6.23556 6.23619 
23 1 7.76858 7.7692 7.76909 
24 1 7.05813 7.05969 7.05923 
34 1 10.1067 10.107 10.1033 
35 1 8.59202 8.5926 8.59254 
36 1 9.30566 9.30476 9.30341 
ITEM: TIMESTEP
40
ITEM: NUMBER OF ATOMS
50
ITEM: BOX BOUNDS pp pp pp
0.0000000000000000e+00 1.1000000000000000e+01
0.0000000000000000e+00 1.1002000000000001e+01
0.0000000000000000e+00 1.1000000000000000e+01
ITEM: ATOMS id type x y z 
10 1 4.61715 4.61627 4.59917 
11 1 3.15208 3.13653 2.99741 
12 1 3.84513 3.82965 3.73931 
46 1 0.830547 0.8144 0.7398 
47 1 2.18304 2.23462 2.49059 
48 1 1.51212 1.52134 1.53626 
49 2 1.85753 2.05953 3.5494 
50 3 1.77566 2.04945 4.5261 
19 1 4.54294 4.54585 6.23203 
20 1 3.01395 3.01849 7.76758 
21 1 3.72826 3.72002 7.04997 
31 1 0.653078 0.650865 10.0288 
32 1 2.19548 2.19572 8.58047 
33 1 1.46296 1.46126 9.24946 
16 1 4.54307 6.23422 4.54418 
17 1 3.01288 7.76768 3.01384 
18 1 3.72603 7.06358 3.72593 
25 1 0.644811 10.0262 0.643329 
26 1 2.18845 8.58301 2.18939 
27 1 1.46538 9.2633 1.46452 
4 1 4.61669 6.16708 6.16816 
5 1 3.09099 7.67784 7.67512 
6 1 3.80712 6.96703 6.96964 
37 1 0.745727 10.0537 10.0587 
38 1 2.26453 8.50075 8.49938 
39 1 1.57133 9.213 9.21765 
13 1 6.23814 4.54599 4.54471 
14 1 7.77195 3.01341 3.01237 
15 1 7.05922 3.72167 3.72564 
28 1 10.0255 0.643264 0.64271 
29 1 8.58433 2.18918 2.18903 
30 1 9.26042 1.46096 1.46449 
1 1 6.16486 4.61589 6.17041 
2 1 7.67604 3.09084 7.67602 
3 1 6.96945 3.80785 6.96805 
40 1 10.0528 0.747361 10.0618 
41 1 8.49855 2.26429 8.5002 
42 1 9.21433 1.57067 9.21495 
7 1 6.16465 6.16933 4.61326 
8 1 7.67187 7.67687 3.08489 
9 1 6.97679 6.96849 3.81448 
43 1 10.0682 10.07 0.762618 
44 1 8.50121 8.50125 2.26346 
45 1 9.21746 9.21844 1.57462 
22 1 6.23553 6.23238 6.23759 
23 1 7.77423 7.77058 7.7749 
24 1 7.05806 7.06707 7.0596 
34 1 10.1063 10.1079 10.0988 
35 1 8.59239 8.59705 8.59493 
36 1 9.31282 9.30481 9.30631 
ITEM: TIMESTEP
50
ITEM: NUMBER OF ATOMS
50
ITEM: BOX BOUNDS pp pp pp
0.0000000000000000e+00 1.1000000000000000e+01
0.0000000000000000e+00 1.1002000000000001e+01
0.0000000000000000e+00 1.1000000000000000e+01
ITEM: ATOMS id type x y z 
10 1 4.62236 4.61455 4.57692 
11 1 3.16338 3.14486 2.96586 
12 1 3.85602 3.83584 3.71403 
46 1 0.862539 0.839683 0.740578 
47 1 2.17806 2.23991 2.53008 
48 1 1.51523 1.52901 1.55704 
49 2 1.84106 2.03775 3.58306 
50 3 1.74189 2.02854 4.55539 
19 1 4.54338 4.54773 6.22534 
20 1 3.01929 3.02629 7.7662 
21 1 3.73449 3.71969 7.04324 
31 1 0.651276 0.648887 10.0139 
32 1 2.19729 2.19936 8.57283 
33 1 1.45923 1.45603 9.2239 
16 1 4.54181 6.23252 4.54072 
17 1 3.01355 7.76894 3.01523 
18 1 3.72879 7.06907 3.72775 
25 1 0.638507 10.0046 0.634461 
26 1 2.18841 8.57456 2.1898 
27 1 1.46071 9.25044 1.45878 
4 1 4.62266 6.16161 6.17248 
5 1 3.09253 7.67446 7.67151 
6 1 3.81097 6.96422 6.96743 
37 1 0.749411 10.0549 10.0586 
38 1 2.26907 8.49786 8.49583 
39 1 1.57821 9.20955 9.21776 
13 1 6.23709 4.5457 4.54262 
14 1 7.7737 3.01624 3.01521 
15 1 7.06179 3.7223 3.72753 
28 1 10.0014 0.635083 0.632904 
29 1 8.57659 2.18951 2.18929 
30 1 9.24701 1.45605 1.45862 
1 1 6.16074 4.62252 6.17283 
2 1 7.67322 3.09205 7.67164 
3 1 6.96456 3.81094 6.96649 
40 1 10.0542 0.753674 10.0638 
41 1 8.49475 2.26914 8.4984 
42 1 9.21365 1.5781 9.21323 
7 1 6.1645 6.17028 4.61919 
8 1 7.66528 7.67307 3.08202 
9 1 6.98256 6.96733 3.82517 
43 1 10.0762 10.0779 0.780769 
44 1 8.49729 8.49841 2.26623 
45 1 9.21901 9.22005 1.58572 
22 1 6.23849 6.23301 6.24062 
23 1 7.77655 7.77127 7.77811 
24 1 7.05976 7.07493 7.06198 
34 1 10.11 10.1118 10.0946 
35 1 8.59459 8.59983 8.59861 
36 1 9.31883 9.30683 9.30777 
ITEM: TIMESTEP
60
ITEM: NUMBER OF ATOMS
50
ITEM: BOX BOUNDS pp pp pp
0.0000000000000000e+00 1.1000000000000000e+01
0.0000000000000000e+00 1.1002000000000001e+01
0.0000000000000000e+00 1.1000000000000000e+01
ITEM: ATOMS id type x y z 
10 1 4.62616 4.61924 4.56953 
11 1 3.16118 3.14303 2.96216 
12 1 3.86079 3.8399 3.69687 
46 1 0.875973 0.847926 0.737378 
47 1 2.16599 2.23239 2.55208 
48 1 1.52176 1.53285 1.55175 
49 2 1.83569 2.03368 3.59346 
50 3 1.72886 2.01808 4.56153 
19 1 4.54627 4.54211 6.22005 
20 1 3.02212 3.01883 7.76326 
21 1 3.72913 3.73173 7.04962 
31 1 0.653407 0.652041 10.0141 
32 1 2.19091 2.19267 8.55749 
33 1 1.46379 1.46248 9.23785 
16 1 4.54621 6.23516 4.54095 
17 1 3.01724 7.77456 3.0183 
18 1 3.72484 7.06011 3.72396 
25 1 0.637293 9.99774 0.634125 
26 1 2.18654 8.56882 2.18692 
27 1 1.46084 9.24924 1.45962 
4 1 4.62174 6.16068 6.16903 
5 1 3.09546 7.67621 7.66975 
6 1 3.80859 6.95747 6.96909 
37 1 0.749918 10.0538 10.0586 
38 1 2.27102 8.49664 8.49906 
39 1 1.57602 9.2116 9.21234 
13 1 6.23684 4.54412 4.54116 
14 1 7.77683 3.01499 3.01698 
15 1 7.06031 3.72345 3.7232 
28 1 9.99021 0.634827 0.630335 
29 1 8.57515 2.19009 2.18731 
30 1 9.23944 1.45121 1.45708 
1 1 6.15606 4.62078 6.17362 
2 1 7.67072 3.09126 7.67277 
3 1 6.96625 3.81297 6.96671 
40 1 10.0572 0.754053 10.0626 
41 1 8.49663 2.27029 8.4977 
42 1 9.21278 1.57724 9.21473 
7 1 6.1717 6.17281 4.62909 
8 1 7.6761 7.6727 3.09088 
9 1 6.96567 6.96911 3.81128 
43 1 10.0793 10.0797 0.784588 
44 1 8.49822 8.49935 2.26515 
45 1 9.21958 9.2232 1.5875 
22 1 6.23944 6.24261 6.23976 
23 1 7.77506 7.78042 7.77799 
24 1 7.0668 7.06633 7.06924 
34 1 10.1157 10.112 10.0925 
35 1 8.60075 8.59849 8.60187 
36 1 9.31753 9.31593 9.30908 
ITEM: TIMESTEP
70
ITEM: NUMBER OF ATOMS
50
ITEM: BOX BOUNDS pp pp pp
0.0000000000000000e+00 1.1000000000000000e+01
0.0000000000000000e+00 1.1002000000000001e+01
0.0000000000000000e+00 1.1000000000000000e+01
ITEM: ATOMS id type x y z 
10 1 4.62767 4.61948 4.56688 
11 1 3.16071 3.14272 2.96147 
12 1 3.86227 3.84118 3.69374 
46 1 0.878952 0.849087 0.734571 
47 1 2.16436 2.23168 2.55589 
48 1 1.5235 1.53395 1.55217 
49 2 1.83375 2.03215 3.59617 
50 3 1.72528 2.01526 4.56419 
19 1 4.54673 4.54351 6.21983 
20 1 3.02175 3.02012 7.7627 
21 1 3.72947 3.72991 7.04863 
31 1 0.654498 0.652918 10.0162 
32 1 2.1902 2.19123 8.55565 
33 1 1.46472 1.46379 9.23885 
16 1 4.54555 6.23309 4.54098 
17 1 3.0155 7.77446 3.01725 
18 1 3.72638 7.061 3.72392 
25 1 0.638516 9.99836 0.634589 
26 1 2.18789 8.56986 2.18842 
27 1 1.45879 9.24496 1.45704 
4 1 4.62228 6.15771 6.16964 
5 1 3.09449 7.67428 7.6712 
6 1 3.8098 6.96042 6.96779 
37 1 0.750418 10.0545 10.058 
38 1 2.27222 8.49733 8.49822 
39 1 1.57517 9.2103 9.21252 
13 1 6.23463 4.54407 4.54075 
14 1 7.77636 3.01469 3.01626 
15 1 7.06199 3.72414 3.72374 
28 1 9.98663 0.632677 0.629983 
29 1 8.57299 2.18893 2.18882 
30 1 9.23943 1.45372 1.45493 
1 1 6.1563 4.62257 6.17288 
2 1 7.67249 3.09245 7.67214 
3 1 6.96265 3.81122 6.96825 
40 1 10.0579 0.755652 10.0625 
41 1 8.49743 2.27072 8.49834 
42 1 9.21164 1.57629 9.21403 
7 1 6.17145 6.17352 4.63048 
8 1 7.67464 7.67325 3.08944 
9 1 6.96881 6.96923 3.81275 
43 1 10.0792 10.0809 0.786122 
44 1 8.49801 8.49975 2.26602 
45 1 9.22074 9.22256 1.58823 
22 1 6.24048 6.2425 6.24066 
23 1 7.77518 7.77885 7.77854 
24 1 7.06641 7.06813 7.06842 
34 1 10.1181 10.1142 10.0933 
35 1 8.59965 8.59867 8.60185 
36 1 9.31807 9.31501 9.30708 
ITEM: TIMESTEP
80
ITEM: NUMBER OF ATOMS
50
ITEM: BOX BOUNDS pp pp pp
0.0000000000000000e+00 1.1000000000000000e+01
0.0000000000000000e+00 1.1002000000000001e+01
0.0000000000000000e+00 1.1000000000000000e+01
ITEM: ATOMS id type x y z 
10 1 4.63167 4.62218 4.55556 
11 1 3.15918 3.1421 2.9587 
12 1 3.86671 3.84442 3.68135 
46 1 0.893019 0.853578 0.726194 
47 1 2.15837 2.229 2.56884 
48 1 1.52766 1.53575 1.55105 
49 2 1.82598 2.02612 3.60704 
50 3 1.71151 2.00439 4.5746 
19 1 4.54747 4.54655 6.22142 
20 1 3.02042 3.02167 7.76092 
21 1 3.72993 3.72663 7.04358 
31 1 0.658772 0.658314 10.0253 
32 1 2.1885 2.18806 8.5494 
33 1 1.46674 1.46654 9.24274 
16 1 4.54615 6.23099 4.53974 
17 1 3.01666 7.775 3.01741 
18 1 3.72495 7.05838 3.72299 
25 1 0.640493 9.99798 0.634329 
26 1 2.18849 8.57023 2.18849 
27 1 1.45507 9.23642 1.45342 
4 1 4.62046 6.15267 6.17041 
5 1 3.09427 7.67054 7.67215 
6 1 3.81283 6.9627 6.96611 
37 1 0.750062 10.054 10.0574 
38 1 2.27324 8.49772 8.49775 
39 1 1.57509 9.20974 9.21138 
13 1 6.23272 4.54381 4.53894 
14 1 7.77725 3.01482 3.01673 
15 1 7.0613 3.72478 3.72273 
28 1 9.97417 0.628448 0.626543 
29 1 8.57063 2.18678 2.1905 
30 1 9.23327 1.45579 1.44887 
1 1 6.15519 4.62378 6.1741 
2 1 7.67407 3.09466 7.67154 
3 1 6.95662 3.8087 6.9706 
40 1 10.059 0.75686 10.0632 
41 1 8.49796 2.27033 8.49795 
42 1 9.2122 1.57817 9.21471 
7 1 6.17401 6.17721 4.63528 
8 1 7.67411 7.67305 3.08845 
9 1 6.96902 6.97071 3.81446 
43 1 10.0824 10.0841 0.790963 
44 1 8.49934 8.50037 2.26707 
45 1 9.223 9.22443 1.5914 
22 1 6.24391 6.24426 6.24132 
23 1 7.7764 7.77779 7.78117 
24 1 7.0668 7.0707 7.06778 
34 1 10.1251 10.1174 10.0904 
35 1 8.60122 8.59975 8.60294 
36 1 9.31862 9.31864 9.30611 
ITEM: TIMESTEP
90
ITEM: NUMBER OF ATOMS
50
ITEM: BOX BOUNDS pp pp pp
0.0000000000000000e+00 1.1000000000000000e+01
0.0000000000000000e+00 1.1002000000000001e+01
0.0000000000000000e+00 1.1000000000000000e+01
ITEM: ATOMS id type x y z 
10 1 4.63485 4.62317 4.54789 
11 1 3.15825 3.1419 2.95652 
12 1 3.86917 3.8459 3.67425 
46 1 0.904169 0.854381 0.719827 
47 1 2.15472 2.22785 2.57597 
48 1 1.53043 1.53625 1.55026 
49 2 1.82052 2.02198 3.61443 
50 3 1.70237 1.99709 4.58147 
19 1 4.54945 4.54478 6.2201 
20 1 3.02017 3.01726 7.75484 
21 1 3.72874 3.73261 7.04751 
31 1 0.664002 0.662417 10.0333 
32 1 2.18808 2.18803 8.54717 
33 1 1.46823 1.46789 9.24331 
16 1 4.54352 6.22852 4.53769 
17 1 3.01435 7.77294 3.01647 
18 1 3.72852 7.06271 3.72313 
25 1 0.638002 9.9949 0.631376 
26 1 2.18638 8.56407 2.18658 
27 1 1.45854 9.24135 1.45554 
4 1 4.62202 6.15295 6.17032 
5 1 3.09676 7.67409 7.67096 
6 1 3.8089 6.9553 6.96935 
37 1 0.748328 10.0526 10.0568 
38 1 2.27276 8.49671 8.49696 
39 1 1.57668 9.21039 9.2117 
13 1 6.23245 4.54402 4.53812 
14 1 7.77764 3.01589 3.01719 
15 1 7.06009 3.72368 3.72333 
28 1 9.96411 0.627301 0.621296 
29 1 8.56893 2.19049 2.18833 
30 1 9.22814 1.44989 1.45211 
1 1 6.14955 4.62231 6.17583 
2 1 7.66997 3.09247 7.67272 
3 1 6.9614 3.81306 6.96952 
40 1 10.0596 0.759766 10.0649 
41 1 8.49804 2.27331 8.49799 
42 1 9.21155 1.57646 9.21187 
7 1 6.17493 6.17972 4.63863 
8 1 7.67243 7.67371 3.08644 
9 1 6.97351 6.97179 3.81796 
43 1 10.0854 10.0868 0.794769 
44 1 8.50001 8.50088 2.26748 
45 1 9.22452 9.22521 1.59353 
22 1 6.24401 6.24562 6.23775 
23 1 7.7762 7.78062 7.78132 
24 1 7.07005 7.06778 7.07107 
34 1 10.1263 10.1188 10.0866 
35 1 8.59949 8.60332 8.60433 
36 1 9.32576 9.31607 9.30514 
ITEM: TIMESTEP
100
ITEM: NUMBER OF ATOMS
50
ITEM: BOX BOUNDS pp pp pp
0.0000000000000000e+00 1.1000000000000000e+01
0.0000000000000000e+00 1.1002000000000001e+01
0.0000000000000000e+00 1.1000000000000000e+01
ITEM: ATOMS id type x y z 
10 1 4.64519 4.6372 4.50635 
11 1 3.15329 3.13961 2.94571 
12 1 3.87844 3.8517 3.64087 
46 1 0.966108 0.853607 0.686604 
47 1 2.13436 2.22388 2.61022 
48 1 1.54762 1.5362 1.54609 
49 2 1.79501 2.00297 3.6456 
50 3 1.65907 1.96198 4.61299 
19 1 4.55154 4.55614 6.2323 
20 1 3.01303 3.02069 7.74688 
21 1 3.73217 3.7214 7.03592 
31 1 0.679203 0.6888 10.0742 
32 1 2.18529 2.18224 8.53521 
33 1 1.47345 1.474 9.24985 
16 1 4.54871 6.22684 4.53925 
17 1 3.01973 7.77528 3.01702 
18 1 3.72223 7.04972 3.72028 
25 1 0.64723 10.0076 0.6396 
26 1 2.18847 8.56863 2.19055 
27 1 1.4491 9.20957 1.43804 
4 1 4.6074 6.13338 6.17049 
5 1 3.09356 7.65835 7.67661 
6 1 3.82054 6.97079 6.96027 
37 1 0.745208 10.0496 10.0535 
38 1 2.28383 8.50058 8.49829 
39 1 1.56353 9.20065 9.20061 
13 1 6.22308 4.53543 4.53575 
14 1 7.7722 3.01012 3.01984 
15 1 7.07278 3.74336 3.71959 
28 1 9.90209 0.603532 0.603877 
29 1 8.5617 2.18392 2.20115 
30 1 9.19999 1.4629 1.42703 
1 1 6.14962 4.62338 6.17765 
2 1 7.68105 3.10267 7.67063 
3 1 6.9341 3.79729 6.9815 
40 1 10.0663 0.760329 10.0681 
41 1 8.50145 2.26789 8.4942 
42 1 9.21398 1.58408 9.22144 
7 1 6.19245 6.19065 4.66235 
8 1 7.68639 7.67189 3.09653 
9 1 6.9511 6.98454 3.80471 
43 1 10.0979 10.0976 0.814766 
44 1 8.50585 8.50198 2.26861 
45 1 9.23007 9.23307 1.60128 
22 1 6.25619 6.25013 6.23773 
23 1 7.78079 7.77551 7.79216 
24 1 7.07085 7.08408 7.06562 
34 1 10.1618 10.1213 10.0674 
35 1 8.61507 8.59757 8.60578 
36 1 9.31195 9.34238 9.30098 
ITEM: TIMESTEP
110
ITEM: NUMBER OF ATOMS
50
ITEM: BOX BOUNDS pp pp pp
0.0000000000000000e+00 1.1000000000000000e+01
0.0000000000000000e+00 1.1002000000000001e+01
0.0000000000000000e+00 1.1000000000000000e+01
ITEM: ATOMS id type x y z 
10 1 4.6498 4.63683 4.49409 
11 1 3.15023 3.13788 2.94392 
12 1 3.87956 3.85386 3.6307 
46 1 0.969186 0.844076 0.68588 
47 1 2.12708 2.22324 2.61511 
48 1 1.55015 1.53233 1.54328 
49 2 1.78627 1.99747 3.65376 
50 3 1.64559 1.95025 4.62021 
19 1 4.55669 4.55321 6.23126 
20 1 3.01398 3.01206 7.73818 
21 1 3.72927 3.73162 7.04198 
31 1 0.687865 0.69718 10.0838 
32 1 2.18528 2.18439 8.53297 
33 1 1.47512 1.47826 9.25228 
16 1 4.54083 6.22206 4.53412 
17 1 3.01488 7.77207 3.016 
18 1 3.72785 7.05847 3.72097 
25 1 0.641183 10.0036 0.636659 
26 1 2.18287 8.55284 2.18056 
27 1 1.45704 9.23109 1.44873 
4 1 4.61065 6.13868 6.16993 
5 1 3.10178 7.67195 7.67322 
6 1 3.80948 6.95229 6.96798 
37 1 0.733328 10.0396 10.0487 
38 1 2.27528 8.49475 8.49627 
39 1 1.57056 9.20414 9.20605 
13 1 6.22715 4.54205 4.53655 
14 1 7.77844 3.02171 3.02303 
15 1 7.06069 3.73286 3.72689 
28 1 9.89806 0.606955 0.597629 
29 1 8.55592 2.19436 2.1942 
30 1 9.19148 1.44941 1.44009 
1 1 6.13773 4.61752 6.18442 
2 1 7.66882 3.09255 7.67544 
3 1 6.95032 3.80723 6.9766 
40 1 10.0682 0.767055 10.069 
41 1 8.50423 2.27508 8.49812 
42 1 9.2175 1.57894 9.2135 
7 1 6.18814 6.20006 4.66323 
8 1 7.67449 7.67853 3.08417 
9 1 6.97539 6.98441 3.82202 
43 1 10.1063 10.0998 0.821779 
44 1 8.51015 8.50555 2.27 
45 1 9.23994 9.23134 1.60266 
22 1 6.25841 6.25252 6.22864 
23 1 7.78133 7.78102 7.78913 
24 1 7.07746 7.07493 7.07047 
34 1 10.1611 10.1251 10.0558 
35 1 8.60165 8.60854 8.60826 
36 1 9.33736 9.32536 9.29384 
ITEM: TIMESTEP
120
ITEM: NUMBER OF ATOMS
50
ITEM: BOX BOUNDS pp pp pp
0.0000000000000000e+00 1.1000000000000000e+01
0.0000000000000000e+00 1.1002000000000001e+01
0.0000000000000000e+00 1.1000000000000000e+01
ITEM: ATOMS id type x y z 
10 1 4.65307 4.64057 4.48427 
11 1 3.14729 3.13687 2.94247 
12 1 3.88095 3.85395 3.62293 
46 1 0.970523 0.840679 0.686069 
47 1 2.12149 2.22101 2.61824 
48 1 1.54945 1.53025 1.54453 
49 2 1.77995 1.9937 3.65786 
50 3 1.63493 1.9409 4.62573 
19 1 4.55792 4.55603 6.2351 
20 1 3.01331 3.01292 7.73657 
21 1 3.7299 3.72949 7.03881 
31 1 0.688992 0.701673 10.0892 
32 1 2.18479 2.18381 8.53106 
33 1 1.47651 1.48111 9.25543 
16 1 4.5406 6.22205 4.53455 
17 1 3.01523 7.77093 3.01392 
18 1 3.7242 7.05572 3.72049 
25 1 0.642417 10.0047 0.638231 
26 1 2.1835 8.55123 2.17822 
27 1 1.4564 9.23459 1.45242 
4 1 4.60861 6.13771 6.16896 
5 1 3.10186 7.67146 7.67235 
6 1 3.80834 6.94863 6.96909 
37 1 0.731029 10.0378 10.0458 
38 1 2.27729 8.49467 8.49536 
39 1 1.56957 9.20228 9.20504 
13 1 6.22454 4.54263 4.53755 
14 1 7.77992 3.02479 3.02397 
15 1 7.05748 3.73096 3.7283 
28 1 9.89633 0.605699 0.598668 
29 1 8.5546 2.19686 2.19231 
30 1 9.1866 1.44616 1.44175 
1 1 6.13587 4.61568 6.18699 
2 1 7.66867 3.09271 7.67793 
3 1 6.95173 3.80552 6.97541 
40 1 10.0712 0.7679 10.0693 
41 1 8.50413 2.27222 8.4978 
42 1 9.22082 1.58275 9.21558 
7 1 6.1933 6.20642 4.66648 
8 1 7.67772 7.68137 3.08457 
9 1 6.97837 6.98719 3.82278 
43 1 10.1093 10.1037 0.82635 
44 1 8.51198 8.5058 2.26776 
45 1 9.24301 9.23487 1.6058 
22 1 6.26019 6.25468 6.22814 
23 1 7.77996 7.78192 7.78955 
24 1 7.07717 7.07544 7.06987 
34 1 10.1677 10.1251 10.0476 
35 1 8.60168 8.60705 8.6074 
36 1 9.34159 9.32478 9.28736 
ITEM: TIMESTEP
130
ITEM: NUMBER OF ATOMS
50
ITEM: BOX BOUNDS pp pp pp
0.0000000000000000e+00 1.1000000000000000e+01
0.0000000000000000e+00 1.1002000000000001e+01
0.0000000000000000e+00 1.1000000000000000e+01
ITEM: ATOMS id type x y z 
10 1 4.65504 4.64286 4.47697 
11 1 3.1457 3.13614 2.94182 
12 1 3.88172 3.85457 3.61784 
46 1 0.970514 0.838342 0.687035 
47 1 2.11801 2.21975 2.62089 
48 1 1.5484 1.52887 1.54565 
49 2 1.77564 1.99113 3.66088 
50 3 1.62776 1.9346 4.62879 
19 1 4.55904 4.55651 6.23679 
20 1 3.01202 3.01161 7.73491 
21 1 3.73069 3.72954 7.03892 
31 1 0.689076 0.704523 10.0915 
32 1 2.18466 2.18403 8.53012 
33 1 1.47722 1.48301 9.25726 
16 1 4.54024 6.22186 4.53433 
17 1 3.01479 7.76982 3.01262 
18 1 3.72298 7.05394 3.71994 
25 1 0.642094 10.0062 0.639489 
26 1 2.1831 8.55079 2.17784 
27 1 1.45778 9.236 1.4533 
4 1 4.6065 6.13555 6.16926 
5 1 3.10116 7.66961 7.6737 
6 1 3.80827 6.94988 6.96709 
37 1 0.729781 10.0367 10.0445 
38 1 2.27778 8.49533 8.49522 
39 1 1.56915 9.20069 9.20436 
13 1 6.22304 4.54243 4.53827 
14 1 7.77957 3.02629 3.02497 
15 1 7.0571 3.73044 3.72804 
28 1 9.89561 0.604709 0.598893 
29 1 8.55261 2.19747 2.19241 
30 1 9.18511 1.44709 1.44176 
1 1 6.13582 4.61369 6.18648 
2 1 7.66979 3.09156 7.67719 
3 1 6.95011 3.80562 6.97847 
40 1 10.0732 0.768661 10.0697 
41 1 8.50512 2.27127 8.49849 
42 1 9.22273 1.58362 9.21713 
7 1 6.19558 6.20938 4.66852 
8 1 7.67958 7.68258 3.08371 
9 1 6.98058 6.98975 3.82495 
43 1 10.1117 10.1051 0.829711 
44 1 8.51336 8.50631 2.26733 
45 1 9.24565 9.23769 1.60665 
22 1 6.26126 6.25549 6.22718 
23 1 7.77915 7.78243 7.79077 
24 1 7.07757 7.07613 7.06833 
34 1 10.1724 10.1262 10.041 
35 1 8.60267 8.60674 8.60606 
36 1 9.34358 9.32453 9.28497 
ITEM: TIMESTEP
134
ITEM: NUMBER OF ATOMS
50
ITEM: BOX BOUNDS pp pp pp
0.0000000000000000e+00 1.1000000000000000e+01
0.0000000000000000e+00 1.1002000000000001e+01
0.0000000000000000e+00 1.1000000000000000e+01
ITEM: ATOMS id type x y z 
10 1 4.65503 4.64286 4.47697 
11 1 3.1457 3.13614 2.94182 
12 1 3.88172 3.85457 3.61784 
46 1 0.970511 0.838336 0.68703 
47 1 2.11801 2.21975 2.62089 
48 1 1.54841 1.52888 1.54566 
49 2 1.77564 1.99113 3.66088 
50 3 1.62776 1.93459 4.62879 
19 1 4.55904 4.55651 6.23679 
20 1 3.01202 3.01161 7.73491 
21 1 3.73069 3.72954 7.03892 
31 1 0.689078 0.704524 10.0915 
32 1 2.18466 2.18403 8.53012 
33 1 1.47722 1.48301 9.25726 
16 1 4.54024 6.22186 4.53433 
17 1 3.01479 7.76982 3.01262 
18 1 3.72298 7.05394 3.71994 
25 1 0.642096 10.0062 0.63949 
26 1 2.1831 8.55079 2.17784 
27 1 1.45778 9.236 1.4533 
4 1 4.6065 6.13555 6.16926 
5 1 3.10116 7.66961 7.6737 
6 1 3.80827 6.94988 6.96709 
37 1 0.729781 10.0367 10.0445 
38 1 2.27778 8.49532 8.49522 
39 1 1.56915 9.20069 9.20436 
13 1 6.22304 4.54243 4.53827 
14 1 7.77958 3.02629 3.02497 
15 1 7.05709 3.73044 3.72804 
28 1 9.89561 0.60471 0.598895 
29 1 8.55261 2.19746 2.19241 
30 1 9.18511 1.44709 1.44176 
1 1 6.13582 4.6137 6.18648 
2 1 7.66979 3.09156 7.67719 
3 1 6.95011 3.80562 6.97847 
40 1 10.0732 0.768662 10.0697 
41 1 8.50512 2.27127 8.49849 
42 1 9.22273 1.58362 9.21713 
7 1 6.19558 6.20938 4.66852 
8 1 7.67958 7.68258 3.08371 
9 1 6.98058 6.98975 3.82495 
43 1 10.1117 10.1051 0.829713 
44 1 8.51337 8.50631 2.26733 
45 1 9.24565 9.23769 1.60666 
22 1 6.26126 6.25549 6.22718 
23 1 7.77915 7.78243 7.79077 
24 1 7.07757 7.07613 7.06833 
34 1 10.1724 10.1262 10.041 
35 1 8.60267 8.60674 8.60606 
36 1 9.34358 9.32453 9.28497 
ITEM: TIMESTEP
135
ITEM: NUMBER OF ATOMS
50
ITEM: BOX BOUNDS pp pp pp
0.0000000000000000e+00 1.1000000000000000e+01
0.0000000000000000e+00 1.1002000000000001e+01
0.0000000000000000e+00 1.1000000000000000e+01
ITEM: ATOMS id type x y z 
10 1 4.65503 4.64286 4.47697 
11 1 3.1457 3.13614 2.94182 
12 1 3.88172 3.85457 3.61784 
46 1 0.970511 0.838336 0.68703 
47 1 2.11801 2.21975 2.62089 
48 1 1.54841 1.52888 1.54566 
49 2 1.77564 1.99113 3.66088 
50 3 1.62776 1.93459 4.62879 
19 1 4.55904 4.55651 6.23679 
20 1 3.01202 3.01161 7.73491 
21 1 3.73069 3.72954 7.03892 
31 1 0.689078 0.704524 10.0915 
32 1 2.18466 2.18403 8.53012 
33 1 1.47722 1.48301 9.25726 
16 1 4.54024 6.22186 4.53433 
17 1 3.01479 7.76982 3.01262 
18 1 3.72298 7.05394 3.71994 
25 1 0.642096 10.0062 0.63949 
26 1 2.1831 8.55079 2.17784 
27 1 1.45778 9.236 1.4533 
4 1 4.6065 6.13555 6.16926 
5 1 3.10116 7.66961 7.6737 
6 1 3.80827 6.94988 6.96709 
37 1 0.729781 10.0367 10.0445 
38 1 2.27778 8.49532 8.49522 
39 1 1.56915 9.20069 9.20436 
13 1 6.22304 4.54243 4.53827 
14 1 7.77958 3.02629 3.02497 
15 1 7.05709 3.73044 3.72804 
28 1 9.89561 0.60471 0.598895 
29 1 8.55261 2.19746 2.19241 
30 1 9.18511 1.44709 1.44176 
1 1 6.13582 4.6137 6.18648 
2 1 7.66979 3.09156 7.67719 
3 1 6.95011 3.80562 6.97847 
40 1 10.0732 0.768662 10.0697 
41 1 8.50512 2.27127 8.49849 
42 1 9.22273 1.58362 9.21713 
7 1 6.19558 6.20938 4.66852 
8 1 7.67958 7.68258 3.08371 
9 1 6.98058 6.98975 3.82495 
43 1 10.1117 10.1051 0.829713 
44 1 8.51337 8.50631 2.26733 
45 1 9.24565 9.23769 1.60666 
22 1 6.26126 6.25549 6.22718 
23 1 7.77915 7.78243 7.79077 
24 1 7.07757 7.07613 7.06833 
34 1 10.1724 10.1262 10.041 
35 1 8.60267 8.60674 8.60606 
36 1 9.34358 9.32453 9.28497 
ITEM: TIMESTEP
140
ITEM: NUMBER OF ATOMS
50
ITEM: BOX BOUNDS pp pp pp
-1.1062985446520098e-03 1.1001106298544652e+01
-2.6576373126661339e-03 1.1004657637312668e+01
-2.5912244751881541e-03 1.1002591224475189e+01
ITEM: ATOMS id type x y z 
10 1 4.65507 4.64277 4.47654 
11 1 3.14522 3.13501 2.94064 
12 1 3.88138 3.85377 3.61684 
46 1 0.969512 0.835932 0.684656 
47 1 2.11727 2.21815 2.61958 
48 1 1.54768 1.52704 1.54397 
49 2 1.77482 1.98939 3.66006 
50 3 1.62685 1.93275 4.62842 
19 1 4.55909 4.55634 6.23706 
20 1 3.01165 3.01059 7.73575 
21 1 3.73044 3.72871 7.0396 
31 1 0.688022 0.702105 10.0937 
32 1 2.1839 2.18235 8.53163 
33 1 1.47649 1.48117 9.25898 
16 1 4.54019 6.22196 4.53404 
17 1 3.01438 7.77078 3.01153 
18 1 3.72271 7.05456 3.71919 
25 1 0.641058 10.0084 0.637002 
26 1 2.18249 8.55229 2.17627 
27 1 1.45686 9.23776 1.45141 
4 1 4.60654 6.1356 6.16932 
5 1 3.10082 7.67059 7.67458 
6 1 3.80776 6.95055 6.96794 
37 1 0.728612 10.0389 10.0467 
38 1 2.27717 8.49668 8.49659 
39 1 1.56816 9.20275 9.20629 
13 1 6.22295 4.5421 4.53796 
14 1 7.78015 3.025 3.0237 
15 1 7.05713 3.72984 3.72745 
28 1 9.89647 0.602149 0.596439 
29 1 8.55321 2.19577 2.19077 
30 1 9.1859 1.44521 1.43986 
1 1 6.13562 4.6135 6.18676 
2 1 7.67013 3.0905 7.67822 
3 1 6.95052 3.80464 6.97914 
40 1 10.0742 0.766302 10.072 
41 1 8.50584 2.26962 8.49999 
42 1 9.22347 1.58176 9.2189 
7 1 6.19557 6.20968 4.66845 
8 1 7.67988 7.68349 3.08269 
9 1 6.98111 6.99069 3.8241 
43 1 10.1128 10.1075 0.827492 
44 1 8.51422 8.508 2.26561 
45 1 9.24628 9.23936 1.60499 
22 1 6.26127 6.25569 6.22726 
23 1 7.77946 7.78337 7.79172 
24 1 7.07777 7.07683 7.06891 
34 1 10.1736 10.1285 10.0431 
35 1 8.60336 8.6083 8.60759 
36 1 9.34436 9.32631 9.28659 
ITEM: TIMESTEP
150
ITEM: NUMBER OF ATOMS
50
ITEM: BOX BOUNDS pp pp pp
-6.5396256013111088e-04 1.1000653962560133e+01
-5.9468706056554719e-03 1.1007946870605657e+01
-3.8538117735675004e-03 1.1003853811773567e+01
ITEM: ATOMS id type x y z 
10 1 4.65575 4.64325 4.47626 
11 1 3.14546 3.13371 2.94024 
12 1 3.88142 3.85271 3.6159 
46 1 0.969971 0.833103 0.683776 
47 1 2.11733 2.21611 2.61909 
48 1 1.5477 1.52431 1.54288 
49 2 1.77481 1.98711 3.65984 
50 3 1.62664 1.93015 4.62839 
19 1 4.55994 4.55659 6.23708 
20 1 3.01238 3.00965 7.7355 
21 1 3.73075 3.72771 7.03996 
31 1 0.687923 0.699047 10.095 
32 1 2.18394 2.18016 8.53252 
33 1 1.47704 1.47905 9.25976 
16 1 4.5407 6.22162 4.53432 
17 1 3.01506 7.77149 3.0114 
18 1 3.72289 7.05527 3.71882 
25 1 0.640825 10.0114 0.635448 
26 1 2.18271 8.55428 2.17532 
27 1 1.45719 9.23987 1.45071 
4 1 4.60716 6.13519 6.16878 
5 1 3.10138 7.67172 7.67476 
6 1 3.8074 6.9513 6.96861 
37 1 0.72837 10.0418 10.0481 
38 1 2.27721 8.49872 8.49752 