LAMMPS (3 Mar 2020)
Reading data file ...
  orthogonal box = (0 0 0) to (21.884 21.886 21.885)
  2 by 2 by 2 MPI processor grid
  reading atoms ...
  146 atoms
  read_data CPU = 0.00846449 secs
WARNING: Using 'neigh_modify every 1 delay 0 check yes' setting during minimization (../min.cpp:190)
WARNING: Total cutoff < 2*bond cutoff. May need to use an increased neighbor list skin. (../pair_reaxc.cpp:413)
Neighbor list info ...
  update every 1 steps, delay 0 steps, check yes
  max neighbors/atom: 2000, page size: 100000
  master list distance cutoff = 9.5
  ghost atom cutoff = 9.5
  binsize = 4.75, bins = 5 5 5
  2 neighbor lists, perpetual/occasional/extra = 2 0 0
  (1) pair reax/c, perpetual
      attributes: half, newton off, ghost
      pair build: half/bin/newtoff/ghost
      stencil: half/ghost/bin/3d/newtoff
      bin: standard
  (2) fix qeq/reax, perpetual, copy from (1)
      attributes: half, newton off, ghost
      pair build: copy
      stencil: none
      bin: none
Setting up cg style minimization ...
  Unit style    : real
  Current step  : 0
Per MPI rank memory allocation (min/avg/max) = 12.69 | 13.36 | 15.32 Mbytes
Step Temp E_pair E_mol TotEng Press 
       0            0   -26255.834            0   -26255.834    3990.6897 
      73            0    -26387.25            0    -26387.25    1127.4002 
Loop time of 2.05228 on 8 procs for 73 steps with 146 atoms

98.9% CPU use with 8 MPI tasks x no OpenMP threads

Minimization stats:
  Stopping criterion = energy tolerance
  Energy initial, next-to-last, final = 
        -26255.8340261     -26387.2498325     -26387.2499706
  Force two-norm initial, final = 228.175 76.08
  Force max component initial, final = 102.021 36.5687
  Final line search alpha, max atom move = 0.00194635 0.0711755
  Iterations, force evaluations = 73 262

MPI task timing breakdown:
Section |  min time  |  avg time  |  max time  |%varavg| %total
---------------------------------------------------------------
Pair    | 0.65345    | 0.77478    | 1.1423     |  23.1 | 37.75
Neigh   | 0          | 0          | 0          |   0.0 |  0.00
Comm    | 0.012898   | 0.25165    | 0.49626    |  45.7 | 12.26
Output  | 0.0017179  | 0.0019243  | 0.002242   |   0.4 |  0.09
Modify  | 0.88712    | 0.88746    | 0.88774    |   0.0 | 43.24
Other   |            | 0.1365     |            |       |  6.65

Nlocal:    18.25 ave 74 max 0 min
Histogram: 6 0 0 0 0 0 0 0 0 2
Nghost:    312.5 ave 323 max 308 min
Histogram: 1 4 0 0 2 0 0 0 0 1
Neighs:    604.125 ave 2455 max 0 min
Histogram: 6 0 0 0 0 0 0 0 0 2

Total # of neighbors = 4833
Ave neighs/atom = 33.1027
Neighbor list builds = 0
Dangerous builds = 0
WARNING: Using 'neigh_modify every 1 delay 0 check yes' setting during minimization (../min.cpp:190)
WARNING: Total cutoff < 2*bond cutoff. May need to use an increased neighbor list skin. (../pair_reaxc.cpp:413)
Setting up cg style minimization ...
  Unit style    : real
  Current step  : 73
Per MPI rank memory allocation (min/avg/max) = 12.72 | 13.39 | 15.32 Mbytes
Step Temp E_pair E_mol TotEng Press 
      73            0    -26387.25            0    -26387.25    1127.4002 
     114            0     -26397.9            0     -26397.9    1068.7979 
Loop time of 1.17308 on 8 procs for 41 steps with 146 atoms

99.0% CPU use with 8 MPI tasks x no OpenMP threads

Minimization stats:
  Stopping criterion = energy tolerance
  Energy initial, next-to-last, final = 
        -26387.2499706     -26397.8996798     -26397.8997698
  Force two-norm initial, final = 76.08 7.49317
  Force max component initial, final = 36.5687 2.29354
  Final line search alpha, max atom move = 0.000339834 0.000779421
  Iterations, force evaluations = 41 161

MPI task timing breakdown:
Section |  min time  |  avg time  |  max time  |%varavg| %total
---------------------------------------------------------------
Pair    | 0.39745    | 0.472      | 0.6843     |  17.8 | 40.24
Neigh   | 0.00088242 | 0.00091418 | 0.00099753 |   0.0 |  0.08
Comm    | 0.011702   | 0.15231    | 0.29244    |  35.2 | 12.98
Output  | 0.00090322 | 0.0010032  | 0.0011677  |   0.2 |  0.09
Modify  | 0.46982    | 0.47011    | 0.47037    |   0.0 | 40.08
Other   |            | 0.07674    |            |       |  6.54

Nlocal:    18.25 ave 71 max 0 min
Histogram: 6 0 0 0 0 0 0 0 0 2
Nghost:    312.5 ave 324 max 305 min
Histogram: 1 0 4 1 0 0 0 1 0 1
Neighs:    617.75 ave 2371 max 0 min
Histogram: 6 0 0 0 0 0 0 0 0 2

Total # of neighbors = 4942
Ave neighs/atom = 33.8493
Neighbor list builds = 1
Dangerous builds = 0
WARNING: Using 'neigh_modify every 1 delay 0 check yes' setting during minimization (../min.cpp:190)
WARNING: Total cutoff < 2*bond cutoff. May need to use an increased neighbor list skin. (../pair_reaxc.cpp:413)
Setting up cg style minimization ...
  Unit style    : real
  Current step  : 114
WARNING: Energy due to 3 extra global DOFs will be included in minimizer energies
Per MPI rank memory allocation (min/avg/max) = 12.72 | 13.39 | 15.32 Mbytes
Step Temp E_pair E_mol TotEng Press Volume 
     114            0     -26397.9            0     -26397.9    1068.7979    10481.891 
     129            0   -26397.965            0   -26397.965    79.508431    10487.696 
Loop time of 0.159606 on 8 procs for 15 steps with 146 atoms

98.9% CPU use with 8 MPI tasks x no OpenMP threads

Minimization stats:
  Stopping criterion = energy tolerance
  Energy initial, next-to-last, final = 
        -26397.8997698     -26397.9652977      -26397.965362
  Force two-norm initial, final = 286.803 26.889
  Force max component initial, final = 200.491 19.8108
  Final line search alpha, max atom move = 1.29033e-05 0.000255626
  Iterations, force evaluations = 15 27

MPI task timing breakdown:
Section |  min time  |  avg time  |  max time  |%varavg| %total
---------------------------------------------------------------
Pair    | 0.064939   | 0.0781     | 0.11421    |   7.4 | 48.93
Neigh   | 0          | 0          | 0          |   0.0 |  0.00
Comm    | 0.0016126  | 0.025644   | 0.049855   |  14.7 | 16.07
Output  | 0.00023412 | 0.00025956 | 0.00029882 |   0.0 |  0.16
Modify  | 0.041499   | 0.041538   | 0.041567   |   0.0 | 26.03
Other   |            | 0.01406    |            |       |  8.81

Nlocal:    18.25 ave 71 max 0 min
Histogram: 6 0 0 0 0 0 0 0 0 2
Nghost:    312.5 ave 324 max 305 min
Histogram: 1 0 4 1 0 0 0 1 0 1
Neighs:    618.25 ave 2373 max 0 min
Histogram: 6 0 0 0 0 0 0 0 0 2

Total # of neighbors = 4946
Ave neighs/atom = 33.8767
Neighbor list builds = 0
Dangerous builds = 0
WARNING: Using 'neigh_modify every 1 delay 0 check yes' setting during minimization (../min.cpp:190)
WARNING: Total cutoff < 2*bond cutoff. May need to use an increased neighbor list skin. (../pair_reaxc.cpp:413)
Setting up cg style minimization ...
  Unit style    : real
  Current step  : 129
Per MPI rank memory allocation (min/avg/max) = 12.72 | 13.39 | 15.32 Mbytes
Step Temp E_pair E_mol TotEng Press 
     129            0   -26397.965            0   -26397.965    79.508431 
     189            0   -26398.775            0   -26398.775    1294.3233 
Loop time of 2.7071 on 8 procs for 60 steps with 146 atoms

99.0% CPU use with 8 MPI tasks x no OpenMP threads

Minimization stats:
  Stopping criterion = energy tolerance
  Energy initial, next-to-last, final = 
         -26397.965362     -26398.7745956      -26398.774655
  Force two-norm initial, final = 13.7319 30.1519
  Force max component initial, final = 3.86472 5.98566
  Final line search alpha, max atom move = 0.00104266 0.006241
  Iterations, force evaluations = 60 397

MPI task timing breakdown:
Section |  min time  |  avg time  |  max time  |%varavg| %total
---------------------------------------------------------------
Pair    | 0.96314    | 1.1465     | 1.6591     |  27.4 | 42.35
Neigh   | 0          | 0          | 0          |   0.0 |  0.00
Comm    | 0.024056   | 0.36365    | 0.70441    |  55.4 | 13.43
Output  | 0.0014263  | 0.0015745  | 0.0018174  |   0.3 |  0.06
Modify  | 1.0137     | 1.0144     | 1.0148     |   0.0 | 37.47
Other   |            | 0.181      |            |       |  6.69

Nlocal:    18.25 ave 71 max 0 min
Histogram: 6 0 0 0 0 0 0 0 0 2
Nghost:    312.5 ave 324 max 305 min
Histogram: 1 0 4 1 0 0 0 1 0 1
Neighs:    617.5 ave 2370 max 0 min
Histogram: 6 0 0 0 0 0 0 0 0 2

Total # of neighbors = 4940
Ave neighs/atom = 33.8356
Neighbor list builds = 0
Dangerous builds = 0
WARNING: Using 'neigh_modify every 1 delay 0 check yes' setting during minimization (../min.cpp:190)
WARNING: Total cutoff < 2*bond cutoff. May need to use an increased neighbor list skin. (../pair_reaxc.cpp:413)
Setting up cg style minimization ...
  Unit style    : real
  Current step  : 189
WARNING: Energy due to 3 extra global DOFs will be included in minimizer energies
Per MPI rank memory allocation (min/avg/max) = 12.72 | 13.42 | 15.32 Mbytes
Step Temp E_pair E_mol TotEng Press Volume 
     189            0   -26398.775            0   -26398.775    1294.3233    10487.696 
     217            0   -26398.934            0   -26398.934    36.710545     10494.93 
Loop time of 0.333325 on 8 procs for 28 steps with 146 atoms

99.0% CPU use with 8 MPI tasks x no OpenMP threads

Minimization stats:
  Stopping criterion = energy tolerance
  Energy initial, next-to-last, final = 
         -26398.774655     -26398.9337191     -26398.9339581
  Force two-norm initial, final = 344.97 16.3859
  Force max component initial, final = 211.754 9.97632
  Final line search alpha, max atom move = 1.3396e-05 0.000133643
  Iterations, force evaluations = 28 57

MPI task timing breakdown:
Section |  min time  |  avg time  |  max time  |%varavg| %total
---------------------------------------------------------------
Pair    | 0.13909    | 0.16391    | 0.23778    |  10.2 | 49.18
Neigh   | 0          | 0          | 0          |   0.0 |  0.00
Comm    | 0.0028613  | 0.076464   | 0.10117    |  14.9 | 22.94
Output  | 0.00063117 | 0.00069301 | 0.00080829 |   0.0 |  0.21
Modify  | 0.088342   | 0.0884     | 0.088453   |   0.0 | 26.52
Other   |            | 0.003854   |            |       |  1.16

Nlocal:    18.25 ave 71 max 0 min
Histogram: 6 0 0 0 0 0 0 0 0 2
Nghost:    312.5 ave 326 max 305 min
Histogram: 1 2 2 1 0 0 1 0 0 1
Neighs:    621.875 ave 2393 max 0 min
Histogram: 6 0 0 0 0 0 0 0 0 2

Total # of neighbors = 4975
Ave neighs/atom = 34.0753
Neighbor list builds = 0
Dangerous builds = 0
WARNING: Using 'neigh_modify every 1 delay 0 check yes' setting during minimization (../min.cpp:190)
WARNING: Total cutoff < 2*bond cutoff. May need to use an increased neighbor list skin. (../pair_reaxc.cpp:413)
Setting up cg style minimization ...
  Unit style    : real
  Current step  : 217
Per MPI rank memory allocation (min/avg/max) = 12.72 | 13.42 | 15.32 Mbytes
Step Temp E_pair E_mol TotEng Press 
     217            0   -26398.934            0   -26398.934    36.710545 
     219            0   -26398.934            0   -26398.934    35.604847 
Loop time of 0.219095 on 8 procs for 2 steps with 146 atoms

99.0% CPU use with 8 MPI tasks x no OpenMP threads

Minimization stats:
  Stopping criterion = energy tolerance
  Energy initial, next-to-last, final = 
        -26398.9339581     -26398.9342656     -26398.9344079
  Force two-norm initial, final = 10.7471 9.87128
  Force max component initial, final = 3.22416 2.73772
  Final line search alpha, max atom move = 7.75644e-05 0.000212349
  Iterations, force evaluations = 2 33

MPI task timing breakdown:
Section |  min time  |  avg time  |  max time  |%varavg| %total
---------------------------------------------------------------
Pair    | 0.08328    | 0.098149   | 0.14155    |   7.8 | 44.80
Neigh   | 0          | 0          | 0          |   0.0 |  0.00
Comm    | 0.0017169  | 0.044936   | 0.059659   |  11.5 | 20.51
Output  | 0          | 0          | 0          |   0.0 |  0.00
Modify  | 0.074881   | 0.074937   | 0.074983   |   0.0 | 34.20
Other   |            | 0.001074   |            |       |  0.49

Nlocal:    18.25 ave 71 max 0 min
Histogram: 6 0 0 0 0 0 0 0 0 2
Nghost:    312.5 ave 326 max 305 min
Histogram: 1 2 2 1 0 0 1 0 0 1
Neighs:    621.125 ave 2390 max 0 min
Histogram: 6 0 0 0 0 0 0 0 0 2

Total # of neighbors = 4969
Ave neighs/atom = 34.0342
Neighbor list builds = 0
Dangerous builds = 0
WARNING: Total cutoff < 2*bond cutoff. May need to use an increased neighbor list skin. (../pair_reaxc.cpp:413)
Setting up Verlet run ...
  Unit style    : real
  Current step  : 0
  Time step     : 0.25
Per MPI rank memory allocation (min/avg/max) = 11.6 | 12.8 | 14.19 Mbytes
Step Temp TotEng KinEng PotEng Press 
       0          300   -26269.269    129.66524   -26398.934    600.38169 
     200    216.18035   -26224.501    93.436923   -26317.938    3276.8016 
     400    285.99837   -26159.427    123.61349    -26283.04    5252.1401 
     600    312.16096   -26125.973    134.92142   -26260.895    1183.2893 
     800    275.27017   -26146.334    118.97657    -26265.31   -1486.3835 
    1000    313.38816   -26126.067    135.45183   -26261.519   -2373.3738 
    1200    270.33027   -26136.228    116.84146   -26253.069    -3408.837 
    1400     346.9595   -26118.076    149.96195   -26268.038   -3032.4206 
    1600    304.58523   -26150.275    131.64705   -26281.923   -305.82209 
    1800    322.32647   -26143.773    139.31513   -26283.089   -1929.1902 
    2000     294.5738   -26122.889    127.31994   -26250.209    4606.1925 
    2200    283.52927   -26146.791     122.5463   -26269.337    -3089.446 
    2400    316.40035   -26135.794    136.75375   -26272.547   -1160.4619 
    2600    319.51527   -26122.641    138.10008   -26260.741   -1444.1362 
    2800    331.01341   -26120.965    143.06977   -26264.034   -4009.1355 
    3000    288.57866   -26137.613    124.72874   -26262.341     5376.737 
    3200    329.90536   -26109.789    142.59086    -26252.38    7134.9056 
    3400    313.34875   -26137.608     135.4348   -26273.042    2415.6821 
    3600    284.29224   -26141.467    122.87607   -26264.343   -2605.7585 
    3800    324.11148   -26117.299    140.08664   -26257.386   -1909.5286 
    4000     278.2686   -26151.342    120.27255   -26271.614   -2137.9087 
    4200    336.60464   -26129.699     145.4864   -26275.185   -4232.8611 
    4400    279.95575   -26146.626    121.00176   -26267.627    5192.8732 
    4600    298.60721    -26133.84    129.06325   -26262.903    6444.2398 
    4800    302.53226   -26120.038    130.75972   -26250.798   -538.16317 
    5000    310.67952   -26147.379    134.28111    -26281.66   -4730.5669 
    5200    321.59206   -26136.604     138.9977   -26275.602   -1578.0132 
    5400    288.09422    -26150.48    124.51935       -26275    1962.0408 
    5600     308.3069   -26153.589    133.25562   -26286.844   -1121.0118 
    5800    287.84377   -26144.193     124.4111   -26268.604     670.2085 
    6000    308.24196   -26130.928    133.22756   -26264.156   -4179.1806 
    6200     288.8129   -26147.971    124.82998   -26272.801   -1863.9227 
    6400    320.35313   -26122.883    138.46222   -26261.345    3299.5144 
    6600     317.4979   -26120.501    137.22813   -26257.729    1394.7372 
    6800    267.05252   -26148.019    115.42476   -26263.444    129.48235 
    7000    304.48287   -26140.195    131.60281   -26271.798   -578.17611 
    7200     267.5592   -26165.881    115.64376   -26281.524    3725.2106 
    7400    298.39053   -26149.292     128.9696   -26278.262    4439.8099 
    7600    310.45436   -26126.886    134.18379    -26261.07    5273.3574 
    7800    286.60046   -26123.659    123.87372   -26247.533    4151.0982 
    8000    325.86034   -26124.632    140.84253   -26265.475     1218.475 
    8200    291.06638   -26142.386    125.80397    -26268.19    2219.7636 
    8400    312.26728   -26113.714    134.96737   -26248.682   -1512.7771 
    8600     284.4272   -26139.828     122.9344   -26262.762   -4118.0649 
    8800    295.19713   -26130.896    127.58935   -26258.486   -2649.8982 
    9000    329.38796   -26110.543    142.36723    -26252.91    191.71661 
    9200    292.92533   -26141.259    126.60744   -26267.866   -3245.9167 
    9400     301.9643   -26125.713    130.51424   -26256.227   -2526.2926 
    9600    278.80724   -26139.337    120.50536   -26259.843    1492.3398 
    9800     293.2585   -26145.495    126.75144   -26272.247    820.78337 
   10000    314.60099   -26120.493    135.97604   -26256.469   -4204.0279 
   10200    304.02949   -26127.655    131.40685   -26259.062     2810.693 
   10400    285.26845   -26129.917      123.298   -26253.215    5336.8355 
   10600    325.41728   -26120.954    140.65103   -26261.605   -787.72697 
   10800    317.59687   -26148.477    137.27091   -26285.748   -783.50976 
   11000    307.83078   -26146.471    133.04983   -26279.521     2538.371 
   11200    320.05468   -26125.669    138.33322   -26264.003     1495.113 
   11400    295.39271   -26155.974    127.67388   -26283.648    4765.3407 
   11600    301.87771    -26134.86    130.47681   -26265.337   -1756.8027 
   11800    312.13148   -26128.213    134.90867   -26263.122   -1447.1397 
   12000    247.82656   -26149.598    107.11497   -26256.713   -2453.4274 
   12200    318.09472   -26123.934    137.48609    -26261.42   -1084.6869 
   12400    282.03904   -26138.112     121.9022   -26260.014    2464.9827 
   12600    275.53455   -26174.311    119.09084   -26293.402   -2618.9917 
   12800    316.29173   -26145.587    136.70681   -26282.294   -2304.7689 
   13000     311.6839   -26139.646    134.71522   -26274.362    947.54896 
   13200    294.90077   -26151.818    127.46126   -26279.279    3815.6748 
   13400    303.59375   -26129.103    131.21852   -26260.321    5242.1456 
   13600    302.75076   -26117.683    130.85416   -26248.537   -234.59281 
   13800    273.27053   -26141.467    118.11229   -26259.579    -954.1861 
   14000    336.65167   -26128.267    145.50673   -26273.774    -849.4037 
   14200    295.99617   -26145.634    127.93471   -26273.569    3159.9256 
   14400    288.19285   -26151.205    124.56198   -26275.767    4400.8745 
   14600    321.61035   -26125.797    139.00561   -26264.803    4201.1809 
   14800    279.03718   -26149.507    120.60474   -26270.111    228.95044 
   15000     293.1324   -26140.645    126.69694   -26267.342    688.61231 
   15200    292.19561    -26136.41    126.29204   -26262.702    99.678954 
   15400    344.53228   -26110.309    148.91287   -26259.221    2479.8192 
   15600     297.2084   -26141.808    128.45866   -26270.267   -1857.6147 
   15800    283.69647   -26132.485    122.61857   -26255.103    881.49172 
   16000    307.82084   -26111.529    133.04554   -26244.575    2929.2814 
   16200    306.23207   -26133.047    132.35885   -26265.405    3777.9965 
   16400     289.7122   -26144.583    125.21867   -26269.802    36.076744 
   16600     290.8112     -26152.6    125.69368   -26278.294    872.29941 
   16800     277.2508   -26158.899    119.83263   -26278.731    4395.8494 
   17000    340.33437   -26130.818    147.09846   -26277.917    702.27151 
   17200    295.56173   -26143.897    127.74694   -26271.644    778.58614 
   17400    298.27607   -26140.493    128.92012   -26269.413    2584.1094 
   17600    299.43465   -26122.245    129.42088   -26251.666     2028.648 
   17800    324.77798   -26095.253    140.37471   -26235.628   -3766.8411 
   18000    308.16796   -26135.701    133.19557   -26268.897   -5019.7501 
   18200    284.80232   -26153.494    123.09653    -26276.59   -3282.1178 
   18400    316.71116   -26127.189    136.88809   -26264.077   -3361.3261 
   18600    282.62558   -26139.694    122.15571    -26261.85    1104.4722 
   18800    283.63097   -26139.549    122.59026   -26262.139   -2963.2867 
   19000     304.8638   -26115.108    131.76746   -26246.876   -1448.7323 
   19200    337.07188   -26112.912    145.68835   -26258.601    4704.6214 
   19400    288.26527   -26137.607    124.59328     -26262.2    6725.5791 
   19600    335.72111   -26112.419    145.10452   -26257.523    3944.7187 
   19800    279.65035   -26133.412    120.86976   -26254.282    5611.2164 
   20000     269.1064   -26136.572    116.31248   -26252.885     5007.568 
   20200    324.63156   -26108.555    140.31143   -26248.867    2687.8264 
   20400    317.53411   -26128.593    137.24378   -26265.837   -1023.0986 
   20600    316.31485    -26131.69     136.7168   -26268.407   -323.38898 
   20800    279.41549   -26155.284    120.76825   -26276.052    647.62262 
   21000    263.62698   -26129.749    113.94418   -26243.693    4746.8661 
   21200    300.85327   -26131.397    130.03404   -26261.431   -868.73431 
   21400     268.9033   -26153.366     116.2247    -26269.59   -4613.5822 
   21600    328.44657   -26135.381    141.96034   -26277.341   -3254.2493 
   21800    337.14108   -26127.918    145.71826   -26273.636    2729.3506 
   22000    284.10549    -26151.29    122.79535   -26274.086    1921.6098 
   22200    285.65177   -26143.834    123.46368   -26267.298     1056.608 
   22400    280.00435   -26143.371    121.02277   -26264.393    2762.5675 
   22600    314.94095   -26123.668    136.12297    -26259.79    848.83038 
   22800    276.06203   -26153.432    119.31883    -26272.75   -2349.2692 
   23000    278.75445   -26135.498    120.48254    -26255.98    1290.2452 
   23200    284.46173   -26127.035    122.94933   -26249.984    192.82963 
   23400    292.98773   -26142.654    126.63441   -26269.289   -768.82993 
   23600     280.9677   -26152.521    121.43915    -26273.96   -2672.2254 
   23800    314.01457   -26131.321    135.72258   -26267.043    4887.2172 
   24000    295.04403   -26144.589    127.52318   -26272.112    5750.0601 
   24200    295.21567   -26136.794    127.59737   -26264.391     1863.106 
   24400    285.51503   -26134.477    123.40458   -26257.881   -3408.4455 
   24600    315.48312   -26129.947    136.35731   -26266.304      796.387 
   24800    302.71329   -26110.504    130.83797   -26241.342   -1069.0135 
   25000      268.503   -26132.505    116.05169   -26248.557   -93.042487 
   25200     294.2771   -26137.327     127.1917   -26264.519    365.95189 
   25400    297.69891   -26138.208    128.67067   -26266.878    2406.4078 
   25600    352.13675   -26112.909    152.19965   -26265.108         3367 
   25800    304.14072   -26140.181    131.45493   -26271.636   -3678.6843 
   26000    292.03698   -26138.836    126.22348    -26265.06    594.09513 
   26200    324.82556   -26112.367    140.39528   -26252.762   -974.05688 
   26400    273.78135   -26139.714    118.33308   -26258.047    3042.8296 
   26600    311.81138    -26130.64    134.77032    -26265.41   -4966.6281 
   26800     286.8585   -26143.682    123.98525   -26267.667   -264.18882 
   27000    287.60467   -26138.534    124.30776   -26262.841    1027.0203 
   27200     305.3839    -26121.62    131.99225   -26253.612   -2783.5721 
   27400    284.81867   -26147.767     123.1036   -26270.871    1143.3558 
   27600    300.03175   -26147.555    129.67896   -26277.234     3550.846 
   27800     303.1841   -26139.398    131.04146    -26270.44    4653.9769 
   28000    312.53243   -26140.702    135.08197   -26275.784    3352.7062 
   28200    290.62788   -26158.015    125.61444    -26283.63   -226.92213 
   28400    306.54369   -26131.092    132.49354   -26263.586    73.671938 
   28600    316.04373   -26131.391    136.59962   -26267.991    1109.3961 
   28800    270.68733   -26148.405    116.99579   -26265.401   -2264.1621 
   29000     332.4936   -26129.926    143.70954   -26273.636   -4086.7073 
   29200    285.61464   -26140.306    123.44763   -26263.754    -566.1766 
   29400    293.31634   -26153.162    126.77644   -26279.938     1996.094 
   29600    288.26992   -26141.648    124.59529   -26266.243   -3625.8565 
   29800    347.71618   -26129.439      150.289   -26279.728   -4470.1485 
   30000    290.52753   -26147.793    125.57107   -26273.364    716.79821 
   30200    288.71299   -26127.706     124.7868   -26252.492    5147.1566 
   30400    285.34697    -26124.31    123.33194   -26247.642    2017.0091 
   30600    278.65546   -26136.214    120.43976   -26256.654   -3787.4508 
   30800    311.82232   -26129.439    134.77505   -26264.214   -2683.2862 
   31000    297.46935   -26115.135    128.57145   -26243.706   -3591.0138 
   31200     280.8127    -26144.36    121.37215   -26265.732   -1139.1595 
   31400    314.17118   -26131.423    135.79027   -26267.213   -3672.8146 
   31600    330.33146   -26101.007    142.77502   -26243.782    291.03752 
   31800    305.85057   -26132.392    132.19396   -26264.586   -109.90448 
   32000    309.14316   -26148.148    133.61707   -26281.765    1365.6634 
   32200    307.55396   -26138.925    132.93019   -26271.855    4463.8009 
   32400     327.2921    -26125.21    141.46136   -26266.671    5969.3914 
   32600    298.56591   -26147.623     129.0454   -26276.669   -2244.1797 
   32800    307.28635   -26123.737    132.81452   -26256.551   -1970.3317 
   33000    291.50684   -26141.035    125.99434    -26267.03    103.74908 
   33200    296.99407   -26145.584    128.36602    -26273.95   -737.21331 
   33400    331.46782   -26122.996    143.26618   -26266.262    -4322.781 
   33600    277.28926   -26148.552    119.84926   -26268.401   -3120.2555 
   33800    311.50239   -26132.076    134.63677   -26266.713    3177.4105 
   34000    290.51441   -26132.629     125.5654   -26258.195    2186.8252 
   34200    279.92453   -26152.061    120.98827   -26273.049     1525.208 
   34400    312.17302   -26130.005    134.92663   -26264.931   -398.49754 
   34600    276.03174   -26145.683    119.30574   -26264.989   -885.18292 
   34800    315.51281   -26144.283    136.37015   -26280.653   -2454.4729 
   35000     300.4978   -26143.943     129.8804   -26273.823    -2934.408 
   35200    325.56725   -26135.492    140.71585   -26276.208   -1302.5683 
   35400    261.28946   -26168.614    112.93386   -26281.548    1233.0237 
   35600    265.15468   -26146.738    114.60448   -26261.342    333.39742 
   35800    312.78732   -26131.908    135.19214     -26267.1    1477.6958 
   36000    290.36198   -26155.647    125.49952   -26281.146    2664.0948 
   36200    306.59914   -26129.214     132.5175   -26261.732   -2031.0794 
   36400    295.56229   -26139.437    127.74718   -26267.184   -2533.7432 
   36600    297.21578   -26137.983    128.46185   -26266.445   -1463.9938 
   36800    296.68254   -26124.357    128.23137   -26252.589   -2402.0527 
   37000    309.42347   -26137.171    133.73823   -26270.909    -2966.553 
   37200    253.52928   -26158.564    109.57978   -26268.143   -801.06711 
   37400    304.46115   -26137.286    131.59342    -26268.88    997.70973 
   37600    323.19838   -26130.666    139.69198   -26270.358   -3140.2263 
   37800    278.62846   -26160.972    120.42808     -26281.4   -2279.6563 
   38000     277.3411   -26143.827    119.87167   -26263.698    2991.3118 
   38200    307.27657   -26121.235     132.8103   -26254.045    1616.1409 
   38400    315.54145   -26122.391    136.38252   -26258.774   -1943.4852 
   38600    297.69736   -26148.408       128.67   -26277.078   -2133.7093 
   38800    313.61566   -26124.845    135.55016   -26260.395    2495.7263 
   39000    297.25944   -26151.738    128.48072   -26280.219    2808.5146 
   39200    293.24448   -26152.221    126.74539   -26278.966   -3523.4789 
   39400    309.26221   -26128.106    133.66853   -26261.775   -207.13312 
   39600    314.33752   -26129.542    135.86216   -26265.404   -526.13282 
   39800    303.73423   -26138.733    131.27924   -26270.012   -2045.2116 
   40000    309.19344   -26136.829     133.6388   -26270.468    870.36784 
   40200    316.47002   -26126.483    136.78387   -26263.267    2537.1466 
   40400    278.10977   -26151.668     120.2039   -26271.872   -3288.9878 
   40600    305.60505   -26139.074    132.08784   -26271.162   -4029.5914 
   40800    306.81485   -26123.817    132.61074   -26256.428   -7250.8681 
   41000    309.73079   -26141.265    133.87105   -26275.136   -3903.1872 
   41200    303.54358   -26143.927    131.19684   -26275.124   -2419.0521 
   41400       284.18   -26145.714    122.82756   -26268.542   -1610.3235 
   41600    323.03506    -26125.14    139.62139   -26264.761   -1226.6585 
   41800    246.49859   -26150.503    106.54099   -26257.044    1633.5875 
   42000    302.60359   -26134.174    130.79055   -26264.965    891.67919 
   42200    287.51602   -26148.938    124.26944   -26273.208   -565.84334 
   42400    324.97328   -26129.958    140.45912   -26270.417   -7276.6979 
   42600     321.4524    -26133.73    138.93734   -26272.668   -2899.9993 
   42800    278.92885   -26144.182    120.55792    -26264.74   -3391.1548 
   43000    308.43508   -26133.316    133.31103   -26266.627   -2606.3052 
   43200    304.78344   -26141.235    131.73272   -26272.968   -4352.9994 
   43400     332.0975   -26109.107    143.53834   -26252.646   -1473.1669 
   43600    289.20683   -26125.791    125.00024   -26250.791    257.75714 
   43800    289.17258   -26134.269    124.98544   -26259.254    1811.1738 
   44000    271.48305   -26148.245    117.33971   -26265.585     1851.746 
   44200    317.69465   -26134.967    137.31317    -26272.28   -210.90303 
   44400    303.64481   -26136.181    131.24059   -26267.421    1735.4651 
   44600    273.96488   -26152.632     118.4124   -26271.044    299.21721 
   44800     299.4714   -26130.377    129.43677   -26259.814    1276.8553 
   45000    282.85896    -26158.63    122.25658   -26280.887    2207.5936 
   45200    278.53113   -26145.087    120.38602   -26265.473   -3114.5736 
   45400    331.21681   -26124.462    143.15769    -26267.62    -3003.478 
   45600    287.69277   -26148.637    124.34584   -26272.983   -7951.0683 
   45800    291.86817   -26146.609    126.15052    -26272.76   -1446.4252 
   46000    304.57259   -26127.049    131.64159   -26258.691   -4275.9334 
   46200    284.74526     -26149.5    123.07187   -26272.572   -6551.5715 
   46400    320.09834   -26143.896    138.35209   -26282.248   -8128.1329 
   46600     316.8585   -26127.981    136.95178   -26264.933   -3049.3745 
   46800    309.54686   -26128.612    133.79156   -26262.403    1809.9462 
   47000    303.32695   -26136.707     131.1032    -26267.81    -2326.594 
   47200    301.60324   -26132.834    130.35818   -26263.192    1746.4418 
   47400    299.17334   -26147.013    129.30794   -26276.321   -2235.8408 
   47600    322.25709   -26119.409    139.28514   -26258.694    2230.4009 
   47800    309.52075   -26129.738    133.78027   -26263.518    3527.8069 
   48000    269.09753    -26151.74    116.30865   -26268.049   -1277.9951 
   48200    293.54183   -26154.553    126.87391   -26281.427     835.3167 
   48400    301.95101   -26132.946     130.5085   -26263.455    1351.2671 
   48600    291.36626   -26147.007    125.93358    -26272.94     2280.285 
   48800    288.82554   -26140.546    124.83544   -26265.381    4920.9074 
   49000    299.80048   -26120.328      129.579   -26249.907   -1084.8811 
   49200    300.02878   -26108.848    129.67768   -26238.525   -488.20986 
   49400    272.94626   -26141.066    117.97214   -26259.038   -20.653929 
   49600    323.93558   -26121.564    140.01061   -26261.574   -2702.0361 
   49800    339.76623   -26118.444     146.8529   -26265.297   -4812.8273 
   50000    290.92613   -26147.104    125.74335   -26272.847   -5081.8764 
   50200    275.25645   -26137.661    118.97064   -26256.632   -3365.0373 
   50400    331.91266   -26121.246    143.45845   -26264.704   -204.92296 
   50600    300.88119   -26149.236     130.0461   -26279.282   -890.09024 
   50800     287.3374   -26140.998    124.19224    -26265.19   -84.687143 
   51000    310.64962    -26132.88    134.26819   -26267.148   -3847.1324 
   51200    335.86214   -26101.754    145.16548   -26246.919    880.34737 
   51400    342.04257   -26130.257    147.83677   -26278.094    1022.1003 
   51600    309.57453   -26141.006    133.80351   -26274.809   -170.75754 
   51800    303.45017    -26133.37    131.15646   -26264.526    4514.3027 
   52000    299.73502   -26131.525    129.55071   -26261.076    217.92817 
   52200    274.44476   -26158.974    118.61982   -26277.594   -3765.7928 
   52400    285.71275   -26139.038    123.49004   -26262.528   -1528.9086 
   52600    298.94542   -26142.846    129.20943   -26272.055    1811.9265 
   52800    267.87882   -26136.116     115.7819   -26251.897    2922.3773 
   53000    294.61699   -26121.774    127.33861   -26249.113    538.84312 
   53200    290.27631   -26134.513    125.46249   -26259.976   -2921.9444 
   53400    281.37717   -26163.284    121.61613     -26284.9   -267.93586 
   53600    295.99124   -26141.132    127.93258   -26269.064     83.93892 
   53800    292.70094   -26128.769    126.51045   -26255.279    2886.7445 
   54000    304.38063   -26122.462    131.55862   -26254.021   -757.28286 
   54200     300.5524   -26147.295    129.90399   -26277.199    -1388.406 
   54400    325.34774   -26124.235    140.62097   -26264.856    3539.3401 
   54600    329.84595   -26116.941    142.56518   -26259.507   -97.499293 
   54800    269.86048   -26148.644    116.63841   -26265.282   -3724.7552 
   55000    318.58188   -26120.934    137.69665   -26258.631   -221.34436 
   55200    281.25538   -26138.892    121.56349   -26260.456    2551.3281 
   55400    239.28147   -26174.126    103.42163   -26277.547    2561.4797 
   55600    283.63619     -26151.5    122.59251   -26274.093   -3287.5173 
   55800    303.76424   -26126.957    131.29221   -26258.249   -3809.2754 
   56000    306.63984   -26128.726    132.53509   -26261.261   -2028.6421 
   56200    271.04301   -26142.146    117.14952   -26259.295    5821.4422 
   56400    301.19577   -26121.857    130.18207   -26252.039   -279.85938 
   56600     307.5648   -26133.515    132.93487    -26266.45   -2904.3226 
   56800    286.19606    -26147.35    123.69893   -26271.049   -3269.3491 
   57000    342.99521   -26116.149    148.24852   -26264.397    1684.2821 
   57200    298.38318   -26128.009    128.96642   -26256.976    7619.7679 
   57400    301.55272   -26150.926    130.33635   -26281.263   -1222.8191 
   57600    264.44807   -26154.362    114.29907   -26268.661   -2680.1767 
   57800     274.6413   -26135.052    118.70477   -26253.757    3053.2509 
   58000    281.63847   -26148.261    121.72907    -26269.99    7320.9704 
   58200    274.89858   -26150.879    118.81596   -26269.695    5638.5769 
   58400    316.49051   -26132.335    136.79272   -26269.128    323.68617 
   58600    279.20999    -26128.38    120.67943    -26249.06    1615.4769 
   58800    316.79161    -26125.64    136.92286   -26262.563   -530.09851 
   59000    248.55796   -26154.009    107.43109    -26261.44   -3332.5128 
   59200    300.60892   -26130.399    129.92843   -26260.328   -60.111962 
   59400    316.71443   -26135.363     136.8895   -26272.252    1026.1278 
   59600    283.94607   -26152.078    122.72645   -26274.804   -321.45216 
   59800    322.27287    -26118.46    139.29196   -26257.752   -252.72907 
   60000    296.85704   -26136.453    128.30679   -26264.759   -1646.3575 
   60200    272.17527    -26141.08     117.6389   -26258.719   -890.04986 
   60400    296.83143   -26112.004    128.29572     -26240.3   -4757.8047 
   60600    285.29703   -26137.546    123.31036   -26260.856   -3080.8587 
   60800    325.48417    -26134.42    140.67994     -26275.1    1834.2086 
   61000    291.30595   -26129.566    125.90752   -26255.473    4417.8207 
   61200    297.54105   -26139.533    128.60244   -26268.136    2231.8616 
   61400    255.38615   -26159.955    110.38235   -26270.337    210.52573 
   61600     305.5756   -26131.323    132.07511   -26263.398   -1562.9016 
   61800     322.9523   -26125.115    139.58562     -26264.7     475.1069 
   62000    253.64089   -26152.253    109.62802   -26261.881   -2255.4727 
   62200    305.25523   -26129.604    131.93664    -26261.54    629.75413 
   62400    283.48754    -26135.05    122.52826   -26257.578    3432.6404 
   62600    287.21182   -26149.568    124.13796   -26273.705    909.69455 
   62800      285.933   -26153.029    123.58524   -26276.614   -4583.0108 
   63000    292.86823   -26131.671    126.58276   -26258.254   -1509.6669 
   63200    284.30364   -26151.947    122.88099   -26274.828   -637.99058 
   63400    268.75398   -26173.863    116.16016   -26290.023    1751.7982 
   63600    297.01684   -26141.818    128.37587   -26270.194   -157.42659 
   63800      338.369   -26124.727    146.24899   -26270.976    700.05129 
   64000    274.75096   -26147.863    118.75216   -26266.615    3065.6851 
   64200     293.7757   -26144.298    126.97499   -26271.273    751.33425 
   64400    340.19289   -26125.973     147.0373   -26273.011   -6060.9179 
   64600    300.56125   -26134.399    129.90782   -26264.307   -5073.1145 
   64800    267.44533   -26159.749    115.59454   -26275.344   -1937.3907 
   65000    265.25904   -26144.696    114.64959   -26259.345   -131.71189 
   65200    299.38448   -26131.415     129.3992   -26260.814   -2075.4561 
   65400    335.58216   -26115.045    145.04447   -26260.089    -679.0415 
   65600    292.34202    -26141.39    126.35532   -26267.746    1074.7596 
   65800    311.82084   -26122.878    134.77441   -26257.653    -2228.474 
   66000    302.45491   -26117.364    130.72629    -26248.09   -3952.5135 
   66200    286.02134   -26138.035    123.62342   -26261.659   -5072.5406 
   66400    267.79865   -26143.974    115.74725   -26259.721    4798.8591 
   66600    303.51209    -26112.81    131.18322   -26243.993    5299.1933 
   66800     327.1455   -26137.599      141.398   -26278.997     736.6902 
   67000    286.80444   -26138.742    123.96189   -26262.704   -1771.0619 
   67200     327.6312   -26117.565    141.60793   -26259.173   -4565.9202 
   67400    272.58981   -26151.694    117.81807   -26269.513   -1846.9007 
   67600    269.21344   -26129.902    116.35875   -26246.261   -7643.1834 
   67800    310.51366   -26123.105    134.20942   -26257.314   -6150.3551 
   68000     280.6617   -26143.515    121.30689   -26264.821   -81.710363 
   68200    291.09649   -26141.609    125.81698   -26267.426    478.06647 
   68400    331.70721   -26134.804    143.36965   -26278.173     -758.347 
   68600    323.40032   -26124.591    139.77927    -26264.37   -5194.2044 
   68800    294.64765   -26149.742    127.35186   -26277.093   -1571.9101 
   69000    298.70412   -26132.308    129.10514   -26261.413    141.42953 
   69200    327.16654    -26128.23    141.40709   -26269.638   -593.83957 
   69400    301.54168   -26140.514    130.33158   -26270.846   -311.72212 
   69600    304.18819    -26134.64    131.47545   -26266.115    3809.4626 
   69800    298.06797   -26134.948    128.83018   -26263.779    4262.4466 
   70000     348.9462   -26108.337    150.82064   -26259.157    3749.9859 
   70200    285.08643   -26142.841    123.21933    -26266.06    -1150.231 
   70400    344.72998    -26141.28    148.99831   -26290.278    2284.9719 
   70600    339.36682   -26129.347    146.68027   -26276.027    5358.6113 
   70800    306.83287   -26123.598    132.61852   -26256.216   -1984.2903 
   71000    286.97831   -26147.181    124.03704   -26271.218    1554.4574 
   71200    291.90077   -26135.635    126.16461     -26261.8   -3791.2352 
   71400    314.93962   -26120.502     136.1224   -26256.624   -6955.8789 
   71600    299.28649    -26146.74    129.35684   -26276.097   -1682.2847 
   71800    304.15458    -26145.86    131.46092   -26277.321    2471.0986 
   72000    319.18004   -26123.885    137.95519    -26261.84    3339.3594 
   72200    287.16794   -26146.235      124.119   -26270.354    3562.6017 
   72400    336.33414   -26112.431    145.36949     -26257.8    5876.6301 
   72600    292.85981   -26129.347    126.57912   -26255.926    5668.1882 
   72800    287.78726   -26144.717    124.38668   -26269.103   -215.16523 
   73000    304.69324   -26132.864    131.69374   -26264.557    662.69615 
   73200    324.34948   -26125.075    140.18951   -26265.265     2127.435 
   73400    291.96806   -26148.155    126.19369   -26274.348    1372.9672 
   73600    265.91136   -26141.444    114.93153   -26256.375   -3064.2901 
   73800    291.86578   -26130.257    126.14949   -26256.406   -2229.2895 
   74000    277.86288    -26140.99    120.09719   -26261.087   -1531.6173 
   74200    310.11306   -26152.207    134.03628   -26286.243   -1211.8398 
   74400    315.33903   -26141.246    136.29503   -26277.541    271.79843 
   74600    317.97991   -26135.176    137.43647   -26272.612    2087.2422 
   74800    275.48436   -26155.694    119.06915   -26274.763    1377.3902 
   75000    286.66195   -26148.369     123.9003   -26272.269   -2948.5856 
   75200    320.18991   -26131.094    138.39167   -26269.486   -1211.9491 
   75400    309.29956   -26137.383    133.68467   -26271.068    4046.5859 
   75600    270.56907   -26162.757    116.94468   -26279.701   -1296.7159 
   75800    316.72112   -26139.484     136.8924   -26276.377   -2986.7332 
   76000    308.11269   -26137.411    133.17168   -26270.583   -2083.6512 
   76200    272.37955    -26153.22     117.7272   -26270.948    -2563.311 
   76400    335.84586   -26121.165    145.15844   -26266.323   -548.95865 
   76600    301.50628   -26130.699    130.31628   -26261.016   -4749.5334 
   76800    282.98439   -26145.421    122.31079   -26267.732   -1962.5322 
   77000    314.41562   -26129.706    135.89592   -26265.602    1911.6712 
   77200    337.78557   -26140.128    145.99682   -26286.125   -1669.8795 
   77400     268.3576   -26157.575    115.98884   -26273.564   -1279.3957 
   77600    270.80234   -26133.917     117.0455   -26250.962   -3422.6032 
   77800    289.99442   -26129.304    125.34065   -26254.645   -2108.0247 
   78000    317.30878   -26127.124    137.14639   -26264.271   -2471.5269 
   78200     273.9934   -26147.738    118.42473   -26266.163   -6599.7095 
   78400    307.25227    -26118.15     132.7998    -26250.95   -7245.6264 
   78600    260.51176   -26138.083    112.59773   -26250.681   -821.30747 
   78800    321.95987   -26134.967    139.15668   -26274.124      3039.75 
   79000    311.97175    -26137.01    134.83964    -26271.85    3359.7554 
   79200    269.04823   -26149.194    116.28734   -26265.481    7605.3305 
   79400    295.17182   -26126.281    127.57841   -26253.859    5262.6202 
   79600     300.3338   -26141.401    129.80951   -26271.211    4368.3608 
   79800    302.48407   -26146.611    130.73889    -26277.35    3006.5392 
   80000    295.11545   -26128.147    127.55405   -26255.701    1172.8333 
   80200    293.20803   -26128.022    126.72963   -26254.752   -2066.1092 
   80400    268.52977   -26152.984    116.06325   -26269.047   -4178.0939 
   80600    329.26973   -26123.301    142.31613   -26265.618   -3484.0585 
   80800    292.06799   -26131.128    126.23688   -26257.365   -1331.8904 
   81000    282.18116   -26140.182    121.96362   -26262.146   -3562.5693 
   81200    280.32812   -26145.081    121.16271   -26266.243   -4070.5866 
   81400    260.00785   -26167.524    112.37993   -26279.904   -1652.9973 
   81600    299.56541    -26138.54     129.4774   -26268.017    1268.9415 
   81800    297.70749    -26127.38    128.67438   -26256.055     1497.206 
   82000    278.62201   -26147.276     120.4253   -26267.702     4043.699 
   82200     274.6574   -26148.743    118.71173   -26267.454    681.24336 
   82400    327.93131   -26125.026    141.73764   -26266.763   -668.54596 
   82600    303.85551   -26142.435    131.33166   -26273.767   -1091.3751 
   82800      266.686   -26159.958    115.26634   -26275.224   -750.89635 
   83000    317.14446   -26132.581    137.07537   -26269.657    4545.4861 
   83200    293.68013   -26136.217    126.93368   -26263.151    6223.1008 
   83400     291.6336   -26127.153    126.04913   -26253.202    4544.7705 
   83600     261.7921   -26155.386    113.15111   -26268.537   -127.21582 
   83800    275.98186   -26133.337    119.28418   -26252.621   -3210.3334 
   84000    294.11819   -26135.734    127.12301   -26262.857   -669.77296 
   84200    311.80912   -26128.534    134.76934   -26263.304   -3009.5439 
   84400    317.26207   -26124.723     137.1262   -26261.849   -1561.3778 
   84600    313.32072   -26151.324    135.42268   -26286.747    3471.4949 
   84800    294.69183   -26126.977    127.37095   -26254.348   -1285.7572 
   85000    291.01908   -26141.157    125.78353    -26266.94   -3920.7652 
   85200    302.61314   -26144.391    130.79468   -26275.186   -1065.1235 
   85400    292.77715   -26133.002     126.5434   -26259.545   -3508.6026 
   85600    288.67738   -26134.027     124.7714   -26258.798   -7510.4135 
   85800    309.29744   -26134.939    133.68375   -26268.623   -5262.8707 
   86000    282.99291   -26146.344    122.31447   -26268.658   -1542.0555 
   86200    289.18513   -26139.862    124.99086   -26264.853     2056.231 
   86400    330.26088   -26122.889    142.74452   -26265.633    4292.3309 
   86600    298.45736   -26145.874    128.99848   -26274.872   -2954.1013 
   86800    287.07202   -26140.264    124.07754   -26264.341   -2800.7769 
   87000    317.37415   -26133.937    137.17465   -26271.112    2097.3648 
   87200    309.19412   -26139.782     133.6391   -26273.421    1740.8798 
   87400    285.82772    -26142.41    123.53973    -26265.95    1943.6971 
   87600    327.44388   -26125.172    141.52696   -26266.699    176.83791 
   87800     282.2734   -26143.284    122.00349   -26265.288   -58.733243 
   88000    311.49759   -26130.461     134.6347   -26265.096   -2367.0682 
   88200    323.71807   -26119.277     139.9166   -26259.194    3117.5494 
   88400    265.93093    -26145.47    114.93999    -26260.41    3147.2088 
   88600     308.8351   -26126.827    133.48392   -26260.311    1150.7458 
   88800    285.56744    -26146.31    123.42723   -26269.737   -1992.1274 
   89000    306.06623   -26134.332    132.28717   -26266.619   -2133.6402 
   89200    311.87015   -26129.148    134.79572   -26263.944   -4561.5464 
   89400    249.33476   -26162.714    107.76684   -26270.481   -3977.2785 
   89600    270.03763   -26139.315    116.71498    -26256.03   -2437.4799 
   89800    286.00588   -26131.315    123.61673   -26254.932    -2448.038 
   90000    267.81275   -26156.795    115.75334   -26272.549    1160.6693 
   90200    252.81057   -26154.999    109.26914   -26264.268    2483.5769 
   90400    312.56209   -26130.283    135.09479   -26265.378   -470.03002 
   90600    268.09883   -26154.188    115.87699   -26270.065   -1794.1443 
   90800    300.90785   -26130.961    130.05763   -26261.019    2724.9922 
   91000    302.13927   -26134.539    130.58987   -26265.129   -3002.0934 
   91200    279.35976   -26149.933    120.74417   -26270.677   -1954.1939 
   91400    306.79246   -26135.626    132.60106   -26268.227   -2008.1182 
   91600    267.60045   -26124.086    115.66159   -26239.748    2757.1428 
   91800    300.10776   -26153.999    129.71181   -26283.711    238.24485 
   92000    268.30344    -26149.22    115.96543   -26265.185   -8275.5568 
   92200    297.94536   -26128.735    128.77719   -26257.512    381.02997 
   92400    298.03388   -26144.782    128.81544   -26273.598   -1166.0067 
   92600    259.39483   -26154.759    112.11497   -26266.874   -1889.0065 
   92800    309.66868   -26132.236    133.84421    -26266.08   -635.42644 
   93000    301.08442   -26136.414    130.13394   -26266.548   -6862.4147 
   93200    301.38266   -26142.077    130.26285    -26272.34    -5041.342 
   93400    340.63411   -26118.447    147.22801   -26265.675   -1262.8135 
   93600    279.98051   -26146.534    121.01246   -26267.547   -1380.5597 
   93800    297.88041   -26145.076    128.74911   -26273.825   -312.56816 
   94000    316.20192   -26125.018    136.66799   -26261.686    1694.0706 
   94200    308.63303   -26136.825    133.39658   -26270.222    3474.9369 
   94400     275.4563   -26164.185    119.05702   -26283.242   -467.04652 
   94600    302.59217   -26133.021    130.78562   -26263.806   -338.60271 
   94800    292.04407   -26132.091    126.22655   -26258.318    1145.4841 
   95000    279.07075   -26151.994    120.61925   -26272.613   -1037.6308 
   95200     314.3054    -26120.35    135.84828   -26256.199    3565.9238 
   95400    313.02537   -26134.375    135.29503    -26269.67   -4488.2722 
   95600    291.06877   -26163.479      125.805   -26289.284    1819.2204 
   95800    306.25453   -26131.592    132.36855    -26263.96    3303.9552 
   96000    289.35654   -26117.386    125.06495   -26242.451    2146.2956 
   96200    287.19616   -26141.765     124.1312   -26265.897    1676.9454 
   96400    309.08705   -26137.733    133.59282   -26271.326    333.66733 
   96600    305.14812   -26110.978    131.89035   -26242.868    1658.9434 
   96800    300.99987   -26129.126     130.0974   -26259.224    195.20911 
   97000    274.76425   -26139.234     118.7579   -26257.992     26.88804 
   97200    315.17463   -26128.292    136.22398   -26264.516    697.74812 
   97400     292.1028   -26152.782    126.25193   -26279.034    81.424085 
   97600    298.79265   -26139.602     129.1434   -26268.746    2354.2384 
   97800    314.60153   -26130.929    135.97627   -26266.906   -3091.8349 
   98000     284.2412    -26147.32    122.85401   -26270.174   -3821.5526 
   98200    341.21032   -26112.456    147.47706   -26259.933   -2315.0988 
   98400    310.47879   -26129.546    134.19435    -26263.74    3393.0465 
   98600    273.02525   -26147.753    118.00628   -26265.759    5032.1033 
   98800    336.72745   -26115.683    145.53948   -26261.222   -988.22949 
   99000    283.38824   -26141.815    122.48534     -26264.3   -5790.7955 
   99200    284.22386   -26148.666    122.84651   -26271.512     1656.684 
   99400    331.72396   -26113.794    143.37689   -26257.171    5349.3703 
   99600    327.03691   -26138.141    141.35106   -26279.492    2929.0627 
   99800    336.21095   -26139.952    145.31624   -26285.269    2300.9062 
  100000     279.2716   -26135.713    120.70606   -26256.419   -584.31235 
  100200    298.21498    -26132.95    128.89372   -26261.844    2298.8941 
  100400    249.94292   -26150.707    108.02969   -26258.736    809.08737 
  100600    281.22593   -26151.024    121.55075   -26272.575   -3447.8582 
  100800    280.01552   -26128.866     121.0276   -26249.894    1456.8079 
  101000    300.10658    -26138.07     129.7113   -26267.782   -474.60123 
  101200    306.94165   -26147.389    132.66554   -26280.054    2604.7076 
  101400    306.82205   -26124.573    132.61385   -26257.187    1241.6792 
  101600    291.70781   -26136.434    126.08121   -26262.515   -2122.5904 
  101800    283.30723   -26142.249    122.45033   -26264.699   -4909.4352 
  102000    298.02605   -26133.316    128.81206   -26262.128    2381.3706 
  102200    305.66882   -26134.278     132.1154   -26266.394    5786.8979 
  102400    295.81227   -26134.207    127.85523   -26262.063    3616.8664 
  102600    314.43449   -26122.004    135.90408   -26257.908    2394.8253 
  102800    288.95819   -26141.545    124.89277   -26266.438   -305.41901 
  103000    281.94544    -26145.39    121.86174   -26267.252   -3172.7568 
  103200    325.04089   -26117.924    140.48835   -26258.412    1464.7847 
  103400    301.35913   -26136.434    130.25268   -26266.687   -575.18208 
  103600    292.07636   -26143.367     126.2405   -26269.608   -1733.6521 
  103800    314.11437   -26114.597    135.76572   -26250.363   -4760.4622 
  104000    311.33998    -26132.06    134.56657   -26266.627    2689.7058 
  104200    319.61079   -26143.047    138.14136   -26281.188   -136.95017 
  104400    308.34886   -26140.275    133.27376   -26273.548   -1780.3578 
  104600    279.24201   -26156.214    120.69327   -26276.907   -2504.1538 
  104800    324.31476   -26125.386     140.1745   -26265.561    1756.0056 
  105000    276.04385   -26134.167    119.31097   -26253.478   -992.10924 
  105200    283.75484   -26157.517    122.64379    -26280.16    -3172.054 
  105400    280.54661   -26143.359    121.25714   -26264.616   -1204.3545 
  105600    286.38973   -26130.931    123.78264   -26254.714    1650.5909 
  105800    255.47939   -26158.817    110.42265    -26269.24   -631.16628 
  106000    282.15116   -26149.991    121.95066   -26271.942     1502.716 
  106200    301.44571   -26132.464     130.2901   -26262.754    1069.1591 
  106400    341.36423   -26123.343    147.54358   -26270.886    -3903.962 
  106600    318.04979   -26119.801    137.46667   -26257.268   -1287.7073 
  106800    287.23169   -26146.355    124.14655   -26270.501    1495.5146 
  107000    319.35803   -26124.506    138.03212   -26262.538    3118.2682 
  107200    326.70401   -26123.582    141.20718   -26264.789    1240.8793 
  107400    288.91702   -26138.499    124.87498   -26263.374    2413.9952 
  107600    333.13774   -26130.445    143.98795   -26274.433   -2354.0854 
  107800    306.99963   -26136.381     132.6906   -26269.071   -2137.6113 
  108000    302.12935   -26145.111    130.58558   -26275.697    2929.8052 
  108200    312.37926   -26122.291    135.01577   -26257.307   -852.64212 
  108400    270.16829   -26152.004    116.77145   -26268.776   -1070.0709 
  108600    318.42711   -26143.073    137.62976   -26280.703   -3255.4266 
  108800    342.54042   -26127.912    148.05195   -26275.964    3562.1055 
  109000    260.44436    -26157.85     112.5686   -26270.418    4255.8061 
  109200    294.44221   -26137.459    127.26306   -26264.722   -328.50499 
  109400    299.11376   -26122.915    129.28219   -26252.197   -2892.1402 
  109600    297.41989   -26157.148    128.55007   -26285.699   -3429.3015 
  109800    293.30162   -26146.098    126.77008   -26272.868    1953.0393 
  110000    317.06825   -26131.386    137.04243   -26268.429    5254.3459 
  110200    272.61697     -26155.1    117.82981    -26272.93    2933.5185 
  110400    290.07225   -26154.206    125.37429    -26279.58   -1315.2471 
  110600    331.82266   -26131.937    143.41955   -26275.357    -1080.919 
  110800    292.37707   -26138.276    126.37047   -26264.647    4501.5308 
  111000    313.05921   -26137.816    135.30966   -26273.125    1992.6866 
  111200    304.35317    -26148.48    131.54675   -26280.026    -1083.641 
  111400    299.99703   -26153.744    129.66395   -26283.408   -4195.9976 
  111600    310.04725   -26127.439    134.00784   -26261.447    1111.4783 
  111800     302.8435   -26134.106    130.89425       -26265    1001.5556 
  112000    278.75879   -26145.969    120.48442   -26266.454    480.65012 
  112200    309.81546   -26140.592    133.90765   -26274.499   -4118.4592 
  112400    325.67525   -26115.679    140.76253   -26256.442   -1916.0952 
  112600    295.83059   -26135.792    127.86315   -26263.655   -1913.4926 
  112800    323.31732   -26126.617    139.74339    -26266.36   -1611.5556 
  113000    294.76131   -26152.105    127.40098   -26279.506    1159.4502 
  113200    287.74323   -26139.162    124.36765    -26263.53   -2341.2026 
  113400     305.7908   -26125.118    132.16812   -26257.286    5135.1954 
  113600    302.92653   -26142.369    130.93013   -26273.299    2153.3928 
  113800    272.27302   -26144.807    117.68115   -26262.488    828.99568 
  114000    303.10891   -26129.992    131.00896   -26261.001    2503.6478 
  114200    297.80026   -26138.439    128.71447   -26267.153    2667.3605 
  114400    315.71433   -26141.245    136.45725   -26277.702    1161.4619 
  114600    300.36429   -26134.825    129.82269   -26264.648    4122.5183 
  114800    308.49284   -26139.295    133.33599   -26272.631    546.01669 
  115000     253.4822   -26158.108    109.55943   -26267.667    4337.5762 
  115200    320.29977   -26136.965    138.43915   -26275.404    351.41922 
  115400    303.80105   -26151.054    131.30812   -26282.362   -700.95954 
  115600     313.6656   -26146.739    135.57175   -26282.311    2734.8419 
  115800    334.35115   -26128.402    144.51241   -26272.915    2569.5089 
  116000    308.55805   -26149.401    133.36418   -26282.765   -3157.0188 
  116200    314.17932   -26118.273    135.79378   -26254.067   -5363.8295 
  116400     297.7837   -26141.145    128.70731   -26269.853    3016.5401 
  116600    303.33783   -26139.241     131.1079   -26270.349    4261.0218 
  116800    329.96229   -26117.222    142.61546   -26259.837    2536.2759 
  117000    310.49626   -26132.521    134.20191   -26266.723    5919.0905 
  117200    269.45467   -26147.956    116.46301   -26264.419    3368.1532 
  117400    328.96279   -26115.724    142.18346   -26257.907    4039.9699 
  117600    269.50568   -26137.287    116.48506   -26253.772    2889.8774 
  117800    272.30003   -26158.358    117.69283   -26276.051   -236.14218 
  118000    303.63366   -26139.404    131.23577    -26270.64    3859.7867 
  118200    311.90606   -26119.063    134.81125   -26253.875   -722.57196 
  118400    293.35876   -26135.055    126.79478   -26261.849   -125.68687 
  118600    329.96609   -26138.204     142.6171   -26280.821   -3375.8825 
  118800    318.23486   -26140.782    137.54666   -26278.328     2337.332 
  119000    306.92754   -26116.732    132.65944   -26249.391    4070.3215 
  119200    302.98955   -26149.131    130.95737   -26280.088    91.801727 
  119400    319.92107   -26146.232    138.27547   -26284.507    251.94202 
  119600    292.89783    -26136.73    126.59555   -26263.326   -512.51327 
  119800    291.91797   -26140.692    126.17204   -26266.864   -5217.7857 
  120000    315.08673   -26119.946    136.18598   -26256.132   -1524.0361 
  120200    277.97844   -26150.355    120.14713   -26270.503    3302.0133 
  120400    314.12688   -26138.492    135.77112   -26274.263    1087.0352 
  120600    334.16442   -26112.595    144.43169   -26257.026   -4966.7213 
  120800    302.34324   -26120.705    130.67803   -26251.383   -4073.5631 
  121000    267.40317   -26148.743    115.57632   -26264.319    1739.7122 
  121200    281.64676   -26133.561    121.73265   -26255.293     301.4874 
  121400     293.4464   -26125.716    126.83266   -26252.549   -2353.2184 
  121600    270.76947   -26154.966    117.03129   -26271.998    1343.4115 
  121800     310.0307   -26136.632    134.00068   -26270.632   -4329.3375 
  122000    320.63533   -26115.183    138.58419   -26253.767    787.69157 
  122200    345.97842   -26121.284    149.53791   -26270.822    -355.9661 
  122400    288.84725   -26150.195    124.84483    -26275.04    297.14939 
  122600    304.42234   -26125.284    131.57665   -26256.861   -1973.2156 
  122800     291.1861   -26129.085    125.85572   -26254.941    1717.5913 
  123000    312.21093   -26153.752    134.94302   -26288.695   -842.79621 
  123200    301.81076   -26142.247    130.44788   -26272.695    624.07484 
  123400    312.19972    -26128.86    134.93817   -26263.798   -345.22405 
  123600    327.91952   -26111.052    141.73254   -26252.784    2854.9022 
  123800    289.30017   -26144.717    125.04059   -26269.757   -3026.0227 
  124000    297.95248   -26129.893    128.78026   -26258.673   -5114.0983 
  124200    313.58783   -26124.572    135.53813    -26260.11   -2143.4072 
  124400    301.97408    -26147.97    130.51847   -26278.488   -863.40853 
  124600    247.52067   -26176.631    106.98275   -26283.614    345.59491 
  124800    327.84401   -26137.244     141.6999   -26278.944   -771.35077 
  125000    315.35715   -26130.637    136.30287    -26266.94   -1610.7467 
  125200     286.3817   -26155.481    123.77917    -26279.26     795.0288 
  125400    299.54231   -26129.065    129.46742   -26258.532    302.90116 
  125600    283.70994   -26136.405    122.62439    -26259.03   -3240.9966 
  125800    288.18903   -26149.974    124.56033   -26274.534   -2773.1061 
  126000     302.5615   -26118.815    130.77236   -26249.588    3169.3095 
  126200    261.81055   -26143.408    113.15909   -26256.567    335.71308 
  126400    290.51738   -26140.732    125.56668   -26266.299    1848.1724 
  126600    272.66396   -26144.611    117.85012   -26262.461    2610.5572 
  126800    274.06101   -26158.424    118.45395   -26276.878   -2181.3901 
  127000    309.43094   -26129.349    133.74145   -26263.091   -192.82164 
  127200    308.67425   -26131.229     133.4144   -26264.643   -164.95401 
  127400    302.49562    -26143.56    130.74389   -26274.304    -2494.061 
  127600    295.66302   -26130.336    127.79072   -26258.127   -6384.3252 
  127800    303.10466   -26111.331    131.00712   -26242.338    570.28609 
  128000    311.05191   -26132.513    134.44206   -26266.955    764.34459 
  128200    310.91534   -26129.004    134.38304   -26263.387   -2250.5859 
  128400    327.49063   -26118.662    141.54717   -26260.209   -868.73771 
  128600    314.59101   -26147.751    135.97173   -26283.723    1830.3118 
  128800    307.45263   -26132.397    132.88639   -26265.283   -1484.1905 
  129000    347.58191   -26113.788    150.23097   -26264.019   -4177.6863 
  129200    282.72718   -26135.956    122.19962   -26258.156     3276.938 
  129400    312.43601    -26133.69     135.0403    -26268.73    3566.1332 
  129600    264.59004    -26148.56    114.36044   -26262.921    1643.7189 
  129800    304.88438   -26123.308    131.77635   -26255.084   -1211.8846 
  130000     277.5126   -26142.916    119.94579   -26262.862    1380.8401 
  130200    267.67382    -26161.75     115.6933   -26277.443    920.53932 
  130400    329.43236   -26139.173    142.38642   -26281.559    -1199.308 
  130600     328.2666   -26132.722    141.88255   -26274.604   -1658.1018 
  130800    347.10664   -26118.131    150.02555   -26268.156    701.57229 
  131000    286.11841   -26145.111    123.66537   -26268.776    1688.9863 
  131200    321.75854   -26132.623    139.06966   -26271.693   -3079.0134 
  131400     342.6953   -26113.645    148.11889   -26261.764   -1850.2654 
  131600    345.24121   -26141.396    149.21928   -26290.615   -1038.1502 
  131800    270.09469   -26151.122    116.73964   -26267.861    1860.4398 
  132000     273.6871   -26135.527    118.29234   -26253.819    2977.4433 
  132200    300.46537   -26121.469    129.86638   -26251.335    1577.2174 
  132400     291.9708   -26148.187    126.19488   -26274.381   -2967.5521 
  132600    318.27129    -26131.97    137.56241   -26269.533   -4368.3414 
  132800    275.94195   -26160.316    119.26693   -26279.583   -2947.8453 
  133000    293.43567    -26147.61    126.82802   -26274.438    3316.7284 
  133200     284.3352   -26137.837    122.89464   -26260.732   -334.97894 
  133400     303.8755   -26122.961     131.3403   -26254.302   -2756.5827 
  133600    279.06162    -26128.78     120.6153   -26249.395   -676.72455 
  133800    325.04273   -26140.755    140.48914   -26281.244   -610.59798 
  134000    338.11476   -26122.808     146.1391   -26268.947   -1388.6588 
  134200    300.55424   -26131.683    129.90479   -26261.588   -231.53862 
  134400    295.08495   -26141.155    127.54087   -26268.696    175.32149 
  134600    322.58626   -26129.182    139.42742   -26268.609    2662.0889 
  134800    308.76126   -26116.514    133.45201   -26249.966    408.03131 
  135000    289.06011   -26144.239    124.93683   -26269.176   -2806.5913 
  135200    313.16833   -26128.827    135.35682   -26264.183    542.07177 
  135400    334.20611   -26110.312    144.44971   -26254.762   -2119.5999 
  135600    275.30375   -26145.323    118.99108   -26264.314     163.2915 
  135800    284.51503   -26132.439    122.97236   -26255.411   -744.23559 
  136000    316.42254   -26121.208    136.76335   -26257.972    1291.7997 
  136200    285.46493   -26153.489    123.38293   -26276.872    671.80479 
  136400    330.50709   -26125.896    142.85094   -26268.747    7267.9755 
  136600    314.11675   -26136.093    135.76674    -26271.86   -459.75292 
  136800    297.45488   -26164.995    128.56519    -26293.56   -2610.3152 
  137000    261.18271    -26161.38    112.88773   -26274.268   -3109.2572 
  137200    284.59256   -26138.816    123.00587   -26261.822    512.13897 
  137400    324.54297   -26121.697    140.27314    -26261.97   -88.959938 
  137600    258.16185   -26150.519    111.58206   -26262.101   -361.26342 
  137800    294.73406   -26130.293     127.3892   -26257.682    1511.9911 
  138000    298.67721   -26129.021    129.09351   -26258.114     5813.156 
  138200     246.0005   -26157.025    106.32571   -26263.351    5133.3713 
  138400    313.91441   -26139.008    135.67929   -26274.688    1355.8301 
  138600    315.11439   -26137.845    136.19794   -26274.043   -1155.1361 
  138800    277.64574   -26143.783    120.00334   -26263.787   -824.61745 
  139000    279.54611   -26137.247    120.82471   -26258.071    -1581.943 
  139200    331.34733   -26114.249     143.2141   -26257.463    910.58267 
  139400    289.63374   -26143.305    125.18476    -26268.49    587.17653 
  139600    305.62005   -26146.364    132.09432   -26278.458    1635.8626 
  139800      303.245   -26114.836    131.06778   -26245.904   -1795.4618 
  140000    294.99694   -26131.752    127.50283   -26259.255    1365.1483 
  140200    292.47226   -26144.389    126.41162   -26270.801    1696.4107 
  140400    311.18312   -26129.082    134.49878   -26263.581   -4964.4053 
  140600    272.45139   -26152.755    117.75825   -26270.513   -2229.9451 
  140800    297.22923   -26131.282    128.46766    -26259.75     88.10849 
  141000    301.22193   -26126.758    130.19338   -26256.951   -2334.1695 
  141200    274.55567   -26157.497    118.66776   -26276.165   -2033.1924 
  141400    321.24723   -26132.643    138.84866   -26271.492   -741.43664 
  141600    300.54508   -26136.301    129.90083   -26266.202    1286.6862 
  141800    302.50422   -26128.537     130.7476   -26259.285    203.76584 
  142000    302.36609    -26117.83     130.6879   -26248.518   -492.47119 
  142200    287.05702   -26143.711    124.07106   -26267.782   -2534.6506 
  142400    295.19139   -26141.685    127.58687   -26269.271    4306.9522 
  142600    337.27516   -26129.873    145.77621   -26275.649    4752.6519 
  142800    318.55763   -26132.914    137.68617     -26270.6     3551.651 
  143000    284.93648   -26147.569    123.15452   -26270.724   -2256.3776 
  143200     302.4265   -26115.242    130.71401   -26245.956    662.32349 
  143400    317.25163   -26135.401    137.12169   -26272.523    3508.0087 
  143600    299.86602     -26139.5    129.60733   -26269.107   -1917.7668 
  143800    332.75732   -26118.512    143.82352   -26262.336   -2700.6751 
  144000    296.69853   -26132.971    128.23828   -26261.209   -2016.8444 
  144200    277.27983   -26149.558    119.84518   -26269.403   -1098.0717 
  144400    321.56745   -26118.927    138.98707   -26257.914   -3202.0718 
  144600      284.756   -26132.796    123.07651   -26255.873    847.95366 
  144800     296.6986   -26143.408    128.23832   -26271.646   -884.32684 
  145000    348.22295   -26113.728    150.50804   -26264.236   -215.84261 
  145200    300.59827   -26137.072    129.92382   -26266.996   -665.73372 
  145400      307.333   -26138.446    132.83469    -26271.28   -146.58607 
  145600    346.24266   -26116.467    149.65212   -26266.119   -2033.7418 
  145800    319.60491   -26141.479    138.13882   -26279.617   -1239.9218 
  146000    285.36429   -26143.134    123.33943   -26266.473   -6717.5429 
  146200    293.23185   -26132.954    126.73993   -26259.694    1520.2646 
  146400    327.86224   -26118.824    141.70779   -26260.532    3394.2315 
  146600    292.74463   -26148.751    126.52934    -26275.28    -1041.911 
  146800    321.24012   -26123.663    138.84559   -26262.509    4113.5493 
  147000    303.14752   -26137.143    131.02565   -26268.169    3793.6343 
  147200    285.34138   -26133.518    123.32953   -26256.848   -692.58764 
  147400    294.03074   -26128.897    127.08522   -26255.982   -802.30927 
  147600    274.35541   -26149.228     118.5812   -26267.809    2755.4993 
  147800    318.95495   -26128.879     137.8579   -26266.736     4806.589 
  148000    292.40215   -26132.948    126.38131   -26259.329    5360.6194 
  148200    265.58969   -26159.336     114.7925   -26274.129    2883.5746 
  148400    313.53483   -26134.993    135.51523   -26270.508   -558.59157 
  148600    291.27718   -26128.889    125.89508   -26254.784    2342.2706 
  148800    332.74477   -26105.706     143.8181   -26249.524    2760.0002 
  149000    318.29775    -26136.21    137.57384   -26273.784    5979.9126 
  149200    312.07139   -26140.062     134.8827   -26274.945     4018.038 
  149400    247.23746   -26158.393    106.86035   -26265.253    1918.4204 
  149600    329.17651   -26132.662    142.27583   -26274.938    3684.6991 
  149800      294.012     -26130.2    127.07712   -26257.277    4015.2343 
  150000     284.4981   -26150.168    122.96504   -26273.133    108.91006 
  150200    287.21212   -26134.212    124.13809    -26258.35    1278.9552 
  150400    277.27316   -26131.218     119.8423    -26251.06   -2336.7898 
  150600    278.28606   -26145.317     120.2801   -26265.597    663.71741 
  150800    275.03688   -26145.577    118.87574   -26264.453    2219.7907 
  151000    318.57854    -26125.34    137.69521   -26263.035    1546.6925 
  151200    287.31695   -26146.554     124.1834   -26270.738   -2663.6226 
  151400    329.19081   -26111.169    142.28201   -26253.451   -19.153326 
  151600    282.87451   -26133.313     122.2633   -26255.577     5108.508 
  151800    279.32145    -26140.82     120.7276   -26261.547   -398.12606 
  152000    286.82665   -26129.762    123.97148   -26253.733     2107.287 
  152200    299.21203   -26126.786    129.32466   -26256.111   -2440.8734 
  152400    282.10886   -26157.758    121.93238   -26279.691   -3137.0691 
  152600    318.85174   -26130.354    137.81329   -26268.167    1113.4558 
  152800    275.20013   -26133.768     118.9463   -26252.714   -1834.2105 
  153000    254.79758   -26150.159    110.12796   -26260.287    2216.6174 
  153200    291.80126   -26145.282     126.1216   -26271.404     -790.731 
  153400    327.89911   -26119.161    141.72372   -26260.884    1049.4929 
  153600    265.21738    -26150.79    114.63158   -26265.421    2760.1018 
  153800    311.19357   -26132.709    134.50329   -26267.212    700.59744 
  154000    291.10268   -26131.719    125.81966   -26257.538    1492.1151 
  154200    272.26317   -26155.054     117.6769   -26272.731    1301.1081 
  154400    280.84398   -26140.615    121.38567   -26262.001    3402.8828 
  154600    309.97302   -26136.896    133.97575   -26270.871    3804.6542 
  154800    270.15274   -26158.914    116.76473   -26275.679     1338.173 
  155000    292.57109   -26129.889    126.45433   -26256.343    1531.8086 
  155200    281.70551   -26136.296    121.75804   -26258.054     4844.078 
  155400    287.12712   -26166.554    124.10135   -26290.655    6334.5605 
  155600    306.61058   -26144.946    132.52244   -26277.468   -1660.3036 
  155800    304.81876   -26127.537    131.74799   -26259.285   -3593.9262 
  156000    324.54967   -26127.519    140.27603   -26267.795    636.65094 
  156200    300.35128   -26153.729    129.81707   -26283.546   -482.94776 
  156400    300.48743   -26127.634    129.87591    -26257.51     1652.388 
  156600    305.75978   -26137.313    132.15472   -26269.468    2339.5059 
  156800    298.99802   -26153.068    129.23216     -26282.3   -1912.4569 
  157000    291.31468   -26130.515    125.91129   -26256.426   -2583.0512 
  157200    308.66866   -26127.279    133.41198   -26260.691   -1519.9475 
  157400    286.68307   -26129.881    123.90943    -26253.79    850.22218 
  157600    287.72739   -26163.691     124.3608   -26288.052    6237.9991 
  157800    329.73666   -26140.601    142.51794   -26283.119    1721.4519 
  158000    286.96582   -26131.191    124.03164   -26255.223   -447.84313 
  158200    292.41304   -26145.222    126.38602   -26271.608    1250.6651 
  158400    297.47521   -26132.423    128.57398   -26260.997   -5655.6429 
  158600    283.52097   -26123.549    122.54271   -26246.092    24.621803 
  158800    274.75678     -26152.9    118.75468   -26271.654   -583.64965 
  159000    299.03904   -26148.781    129.24989   -26278.031    2328.1968 
  159200    301.55123    -26128.36    130.33571   -26258.695    2413.8539 
  159400     340.4218   -26122.718    147.13625   -26269.854    700.70037 
  159600    336.84383    -26134.63    145.58979    -26280.22    4756.3549 
  159800    262.15011   -26149.676    113.30586   -26262.982   -2358.7232 
  160000    295.76512   -26127.855    127.83485    -26255.69   -3175.0756 
  160200    276.01657   -26137.773    119.29918   -26257.072   -107.58128 
  160400    246.45588   -26162.664    106.52253   -26269.187    127.87798 
  160600    265.91186   -26160.411    114.93175   -26275.343    3219.6563 
  160800    294.83518   -26125.222    127.43291   -26252.655     6376.869 
  161000    301.40455   -26130.619    130.27231   -26260.891    330.14354 
  161200    266.80747   -26147.623    115.31884   -26262.942    162.51819 
  161400    313.70114   -26139.333    135.58711    -26274.92   -5100.5166 
  161600    325.60663   -26110.197    140.73287    -26250.93   -2703.8495 
  161800    317.92728   -26133.416    137.41372    -26270.83   -4611.4422 
  162000     295.8037   -26137.494    127.85152   -26265.346    1284.0219 
  162200    310.36125   -26125.844    134.14355   -26259.988   -2285.4906 
  162400    280.90027    -26126.32       121.41    -26247.73   -7395.8047 
  162600    273.57044   -26149.833    118.24192   -26268.075    1730.2926 
  162800    323.48727   -26117.842    139.81685   -26257.658    8613.9563 
  163000    289.79052   -26133.625    125.25252   -26258.878    6646.5582 
  163200    284.72937   -26151.004      123.065   -26274.069    2147.9792 
  163400    284.33185    -26134.48    122.89319   -26257.374   -51.772877 
  163600    320.91555   -26115.578     138.7053   -26254.283    2126.8607 
  163800    289.72601   -26140.844    125.22464   -26266.068    1945.2241 
  164000    291.81769   -26130.102     126.1287   -26256.231   -2054.2986 
  164200     348.6361   -26094.284    150.68661   -26244.971   -4850.7926 
  164400    288.79453   -26130.491    124.82204   -26255.313    1643.9215 
  164600    300.05397   -26144.209    129.68856   -26273.897     3245.247 
  164800    263.21998   -26165.717    113.76827   -26279.485   -483.77583 
  165000    290.82523   -26132.911    125.69974   -26258.611    1972.0946 
  165200    275.78362   -26133.775    119.19849   -26252.973    4384.9793 
  165400    269.59628   -26152.916    116.52422    -26269.44    7815.7402 
  165600    316.92808   -26138.859    136.98185    -26275.84    4493.2109 
  165800     312.2799   -26130.456    134.97282   -26265.429   -3501.6178 
  166000    302.79883   -26154.938    130.87494   -26285.813     1261.508 
  166200    276.84986   -26167.808    119.65934   -26287.468    4292.2411 
  166400    310.04614   -26136.624    134.00736   -26270.631    1933.2883 
  166600    332.91088   -26128.813     143.8899   -26272.703   -4176.0303 
  166800    261.37636   -26155.113    112.97142   -26268.085   -6405.5977 
  167000    305.28974   -26136.007    131.95155   -26267.958   -1593.7562 
  167200    314.05646   -26136.681    135.74069   -26272.422   -653.70623 
  167400      280.038   -26143.857    121.03731   -26264.895   -619.55114 
  167600    329.43121   -26120.192    142.38592   -26262.578    769.35085 
  167800    281.14838   -26147.859    121.51724   -26269.377   -2780.6164 
  168000    274.75307   -26132.003    118.75307   -26250.756    696.30507 
  168200    326.26734   -26130.656    141.01844   -26271.674   -355.40447 
  168400    293.52105   -26148.595    126.86492    -26275.46    199.34956 
  168600    272.55694   -26168.894    117.80387   -26286.698    567.07866 
  168800    296.39462   -26140.601    128.10693   -26268.708   -69.284509 
  169000     304.8934   -26126.475    131.78025   -26258.256   -3977.6122 
  169200    298.61287   -26155.395     129.0657   -26284.461    -4947.461 
  169400    321.30419   -26142.104    138.87328   -26280.978    3444.8795 
  169600    322.79987   -26125.625    139.51974   -26265.145    2254.8796 
  169800    289.20799   -26145.645    125.00074   -26270.646   -2374.4564 
  170000    296.91249   -26150.172    128.33076   -26278.503    468.18607 
  170200    334.26149   -26130.236    144.47365    -26274.71    4707.2824 
  170400    297.14191   -26133.406    128.42992   -26261.836    2933.0925 
  170600    296.93017   -26140.339     128.3384   -26268.677   -3934.1848 
  170800    305.65718   -26129.601    132.11037   -26261.711   -69.967449 
  171000    291.73547   -26152.242    126.09316   -26278.335    248.82879 
  171200    345.86616   -26135.701    149.48939   -26285.191    426.73318 
  171400    332.67979   -26133.973    143.79001   -26277.763   -2531.8707 
  171600    295.73199   -26139.642    127.82053   -26267.463    2357.6281 
  171800    281.41147   -26163.372    121.63095   -26285.003    2097.8206 
  172000    238.00936    -26158.22     102.8718   -26261.092   -2021.4684 
  172200    298.70794   -26138.733    129.10678   -26267.839   -606.04612 
  172400    294.34252   -26125.929    127.21997   -26253.149    4163.9136 
  172600    305.62292   -26122.296    132.09556   -26254.392    4487.4957 
  172800    290.77347   -26149.538    125.67737   -26275.215   -2537.9834 
  173000    315.92596   -26126.773    136.54872   -26263.322    920.53123 
  173200    305.83966   -26133.092    132.18924   -26265.282    6159.0849 
  173400    280.25004   -26138.557    121.12896   -26259.686    13415.944 
  173600    319.65065   -26126.925    138.15859   -26265.084    2564.4543 
  173800    318.93742   -26122.789    137.85032    -26260.64   -399.79509 
  174000    292.60344   -26139.938    126.46831   -26266.407    2007.4596 
  174200     285.7913   -26146.636    123.52399    -26270.16    257.61607 
  174400    303.20699   -26134.202    131.05135   -26265.253   -1966.9177 
  174600    333.83733   -26119.269    144.29032    -26263.56   -5288.8235 
  174800    270.82512    -26148.89    117.05535   -26265.946   -1568.8414 
  175000    305.69366   -26134.681    132.12614   -26266.807     1775.921 
  175200    300.25815    -26135.09    129.77681   -26264.867     -1719.87 
  175400    296.04558   -26139.103    127.95607    -26267.06   -1548.3515 
  175600    292.16583   -26142.086    126.27917   -26268.365   -6249.6782 
  175800    308.40597    -26127.07    133.29844   -26260.369   -1454.7177 
  176000    332.28722   -26119.331    143.62034   -26262.951    1602.5314 
  176200     300.9702   -26142.165    130.08458    -26272.25   -65.577733 
  176400    316.13255    -26123.54    136.63801   -26260.178     1397.424 
  176600    273.60601   -26146.096    118.25729   -26264.353    12571.213 
  176800    311.76721   -26133.156    134.75123   -26267.907    3011.2172 
  177000    309.24718   -26118.912    133.66203   -26252.574    -2454.732 
  177200     280.3642    -26145.87     121.1783   -26267.048   -610.99658 
  177400    327.31106   -26132.737    141.46956   -26274.207    2033.4137 
  177600    325.70652   -26108.365    140.77604   -26249.141    1217.9993 
  177800    305.56271   -26141.898    132.06954   -26273.967    560.90502 
  178000    306.41418   -26136.555    132.43756   -26268.993   -28.814305 
  178200    324.93082   -26116.848    140.44077   -26257.289   -1489.4119 
  178400    274.31733   -26137.693    118.56474   -26256.258    1807.4738 
  178600    257.88026   -26157.478    111.46035   -26268.939    332.52205 
  178800    284.36644   -26170.861    122.90814   -26293.769   -2744.8851 
  179000    298.16826   -26136.981    128.87353   -26265.854   -1786.7295 
  179200    346.79747   -26123.071    149.89192   -26272.963    -5850.439 
  179400    270.41429   -26154.122    116.87778   -26270.999   -2363.6422 
[...]
  735800    293.29475     -26142.6    126.76711   -26269.367     -1362.38 
  736000     286.1469   -26135.944    123.67769   -26259.621   -2261.5197 
  736200    335.60695   -26110.717    145.05518   -26255.773   -436.99779 
  736400    300.59788   -26143.748    129.92365   -26273.671    2751.3791 
  736600    289.35911   -26133.671    125.06606   -26258.737    -351.7288 
  736800    334.06737   -26122.695    144.38975   -26267.085    764.16498 
  737000    309.19804   -26138.451    133.64079   -26272.091     1911.239 
  737200    285.25429   -26126.381    123.29188   -26249.673    6814.3466 
  737400     287.2165   -26123.517    124.13998   -26247.657    3636.0083 
  737600    287.28973   -26141.706    124.17164   -26265.877    725.85521 
  737800    318.49685   -26122.641     137.6599   -26260.301    277.66833 
  738000    296.35559   -26120.498    128.09006   -26248.588   -3676.1532 
  738200    300.25022   -26137.662    129.77339   -26267.435    -1296.262 
  738400    297.43621   -26139.477    128.55712   -26268.034    1025.8378 
  738600    334.78075   -26114.968    144.69808   -26259.666   -5705.3908 
  738800    305.30707   -26144.023    131.95905   -26275.982   -288.26418 
  739000    305.78187    -26131.45    132.16426   -26263.614    2989.9591 
  739200    330.58313   -26119.422     142.8838   -26262.306     2217.285 
  739400    313.28657   -26128.836    135.40792   -26264.244    193.61729 
  739600    314.10398   -26143.119    135.76122    -26278.88   -2980.4136 
  739800    343.53317   -26116.816    148.48103   -26265.297   -2129.6918 
  740000    299.09319   -26142.564     129.2733   -26271.837   -2701.3345 
  740200    287.01018   -26138.263    124.05081   -26262.314   -7492.7244 
  740400    337.12379   -26122.602    145.71079   -26268.313   -2130.5374 
  740600    306.04722   -26130.348    132.27895   -26262.627    1744.8176 
  740800    286.82053   -26142.327    123.96884   -26266.295    2466.3163 
  741000    332.05661   -26108.515    143.52066   -26252.036    4809.8471 
  741200    299.12822   -26133.277    129.28844   -26262.565   -556.41658 
  741400    303.80692   -26136.669    131.31066   -26267.979    461.83625 
  741600    305.61923    -26143.91    132.09396   -26276.004   -1544.2592 
  741800    285.46842   -26148.768    123.38444   -26272.152   -360.95569 
  742000    289.88838   -26132.164    125.29482   -26257.459   -2545.5616 
  742200    306.61001   -26137.064     132.5222   -26269.587   -1202.4921 
  742400    258.58748   -26157.485    111.76602   -26269.251   -6100.9647 
  742600    283.88719   -26131.827      122.701   -26254.528   -5762.5522 
  742800     326.1568   -26121.565    140.97066   -26262.535   -8.7576307 
  743000    283.91277   -26152.206    122.71206   -26274.918    2356.7134 
  743200    267.14171    -26148.28    115.46331   -26263.743    3386.9857 
  743400    324.85859   -26134.187    140.40956   -26274.597    3818.2637 
  743600    329.47243   -26123.946    142.40374   -26266.349    435.32186 
  743800    294.40017   -26136.412    127.24489   -26263.657   -1637.4475 
  744000    317.57497    -26131.12    137.26145   -26268.381   -3046.7215 
  744200    262.57921   -26158.804    113.49132   -26272.296    614.04596 
  744400    295.81861    -26133.34    127.85797   -26261.198   -2294.3033 
  744600    297.25533   -26133.843    128.47894   -26262.322   -173.29662 
  744800    273.97038   -26160.168    118.41478   -26278.583    667.16242 
  745000    280.71881    -26134.27    121.33157   -26255.601     2302.431 
  745200    283.84888   -26131.817    122.68444   -26254.502   -1453.0139 
  745400     313.7399   -26140.932    135.60386   -26276.536      4407.92 
  745600    283.73702   -26154.276     122.6361   -26276.912    148.62484 
  745800      324.429   -26131.464    140.22388   -26271.688    86.718442 
  746000     322.4542   -26127.505    139.37033   -26266.876   -1871.0077 
  746200    271.94585   -26164.351    117.53974   -26281.891    2005.5527 
  746400     292.5283   -26143.276    126.43584   -26269.712    1161.8977 
  746600    290.35215   -26128.856    125.49527   -26254.351   -4633.8667 
  746800    337.34896    -26101.01    145.80811   -26246.818    562.72529 
  747000    325.83238   -26134.507    140.83044   -26275.337    6256.7291 
  747200    278.93018   -26146.109    120.55849   -26266.668    5039.1118 
  747400    295.52125   -26126.013    127.72945   -26253.742   -1849.9757 
  747600    319.02372   -26110.391    137.88762   -26248.279    3705.9379 
  747800    283.36922   -26140.979    122.47712   -26263.456    3462.4459 
  748000     300.1389   -26144.174    129.72527     -26273.9    1301.9138 
  748200    350.02397   -26114.391    151.28647   -26265.677    241.20809 
  748400    329.83588   -26128.695    142.56082   -26271.256    151.04074 
  748600    288.66594   -26146.477    124.76646   -26271.243   -4435.7748 
  748800    300.68412   -26141.245    129.96093   -26271.206   -4941.2273 
  749000    316.31982   -26134.616    136.71895   -26271.335   -7267.6794 
  749200    311.09228    -26113.29    134.45952    -26247.75   -1305.4895 
  749400    295.52303   -26136.504    127.73021   -26264.234   -1323.4034 
  749600    289.54397   -26142.674    125.14596   -26267.819    915.11282 
  749800    315.14838   -26124.105    136.21263   -26260.318   -1543.3596 
  750000    292.92477   -26136.653     126.6072    -26263.26   -3617.7378 
  750200    303.90208   -26142.844    131.35178   -26274.196    2320.2776 
  750400    314.35915    -26118.68    135.87151   -26254.552    2745.0761 
  750600    323.47654   -26141.516    139.81221   -26281.328   -1269.3861 
  750800    286.21155     -26134.9    123.70563   -26258.605    2198.7372 
  751000    324.35641   -26107.564     140.1925   -26247.756   -4876.1682 
  751200     300.6435   -26131.678    129.94337   -26261.621   -5040.2592 
  751400    275.73484   -26139.177    119.17741   -26258.355   -1419.2459 
  751600    338.67702   -26106.638    146.38212    -26253.02    1223.4011 
  751800    315.64051    -26134.63    136.42534   -26271.056    1083.4699 
  752000    289.07187   -26148.992    124.94191   -26273.934   -2500.3448 
  752200    328.02535   -26117.701    141.77828   -26259.479    3452.6478 
  752400    307.44479    -26136.88    132.88301   -26269.763   -191.97828 
  752600    270.25176   -26136.889    116.80753   -26253.697   -1886.6702 
  752800    306.98236   -26130.755    132.68313   -26263.439   -1870.2208 
  753000    289.31241   -26148.716    125.04587   -26273.761   -1274.7379 
  753200    301.48702   -26122.964    130.30796   -26253.272    1223.2831 
  753400    282.54857   -26136.584    122.12243   -26258.706    1829.0471 
  753600    307.61558   -26148.512    132.95682   -26281.469    331.26576 
  753800    327.04825   -26127.839    141.35596   -26269.195   -2971.9979 
  754000    325.09529   -26116.815    140.51186   -26257.327    3031.1079 
  754200    295.49536   -26141.033    127.71825   -26268.751    2343.4422 
  754400    275.96578    -26142.11    119.27723   -26261.387    3045.5485 
  754600    327.98109   -26113.525    141.75915   -26255.284   -1853.6563 
  754800     289.7442   -26137.493     125.2325   -26262.725   -116.80343 
  755000    281.55173   -26141.586    121.69157   -26263.277   -2173.6381 
  755200    331.02089   -26117.482    143.07301   -26260.555    2872.1575 
  755400    296.88214   -26137.373    128.31765    -26265.69    2490.4593 
  755600    297.61754   -26130.524     128.6355   -26259.159    4048.3284 
  755800    273.68143    -26158.08    118.28989    -26276.37    1483.6853 
  756000    314.05721   -26135.019    135.74101    -26270.76    4591.5379 
  756200    312.67582   -26128.181    135.14395   -26263.325     3151.035 
  756400    331.08486   -26137.756    143.10066   -26280.857   -1402.1463 
  756600    272.98087   -26158.043     117.9871    -26276.03    410.15635 
  756800    288.86494   -26136.439    124.85247   -26261.291     6731.643 
  757000     318.3248   -26129.766    137.58553   -26267.352    5341.3427 
  757200    287.02821    -26156.61     124.0586   -26280.669    1736.1554 
  757400    257.45892   -26149.054    111.27824   -26260.332    2313.4675 
  757600    331.29796   -26124.244    143.19276   -26267.437    981.59143 
  757800    304.41914   -26142.466    131.57527   -26274.041    717.32448 
  758000     262.6451   -26160.827     113.5198   -26274.346    1373.9616 
  758200    301.26108   -26133.528     130.2103   -26263.738    4263.1817 
  758400    281.19937   -26123.218    121.53928   -26244.758    2065.2526 
  758600     285.5133   -26140.453    123.40383   -26263.857    832.19518 
  758800    304.07645   -26137.095    131.42715   -26268.522   -105.83238 
  759000    340.71795   -26126.051    147.26424   -26273.315    905.35644 
  759200    326.30471    -26133.42    141.03459   -26274.454    4478.4937 
  759400    300.04945    -26142.14    129.68661   -26271.827    5569.7675 
  759600     291.4776   -26147.952    125.98171   -26273.934    8712.2398 
  759800    343.67349   -26123.746    148.54168   -26272.288     4690.355 
  760000    305.61657   -26134.629    132.09282   -26266.722    2595.1816 
  760200     337.9577   -26120.763    146.07122   -26266.835   -5381.1628 
  760400    296.52944   -26130.341     128.1652   -26258.506   -1649.0242 
  760600     286.3531   -26152.202    123.76681   -26275.968   -1451.0898 
  760800    317.92247   -26128.278    137.41164   -26265.689   -1136.6898 
  761000    367.42671   -26090.157    158.80824   -26248.965   -2828.6673 
  761200    322.84698   -26122.657     139.5401   -26262.197    2344.8826 
  761400    307.15466   -26142.292    132.75761    -26275.05    579.79844 
  761600    293.74034   -26135.222     126.9597   -26262.181   -1776.3202 
  761800    307.83733   -26116.066    133.05267   -26249.118   -3135.0726 
  762000    305.06446   -26145.374    131.85418   -26277.228    394.99585 
  762200    290.02936   -26140.043    125.35575   -26265.399    361.22894 
  762400    281.95716    -26143.83    121.86681   -26265.696    -1330.041 
  762600    290.32175   -26137.803    125.48213   -26263.286    3343.6011 
  762800    302.78748   -26126.408    130.87004   -26257.278    865.58688 
  763000     286.9616   -26143.655    124.02981   -26267.685    -310.1505 
  763200    273.98583   -26139.082    118.42146   -26257.504   -964.61255 
  763400    341.75729   -26110.361    147.71347   -26258.074   -6366.1374 
  763600    282.64211   -26132.766    122.16286   -26254.929   -618.61492 
  763800     276.9489   -26140.943    119.70215   -26260.645   -3340.7157 
  764000    293.25634   -26122.868    126.75051   -26249.618      3803.58 
  764200    343.29627    -26110.77    148.37864   -26259.148   -1144.0577 
  764400    315.79543   -26136.957     136.4923   -26273.449   -3079.6862 
  764600    321.38707   -26139.726     138.9091   -26278.635   -1675.7283 
  764800    320.99892   -26116.218    138.74134    -26254.96    2642.6787 
  765000      270.617    -26144.93    116.96539   -26261.896    1297.0687 
  765200    281.67709   -26142.456    121.74576   -26264.202   -134.74352 
  765400    303.06621   -26125.247    130.99051   -26256.237    178.62216 
  765600    302.26759   -26139.186    130.64533   -26269.831    953.29771 
  765800    262.80844   -26154.138    113.59039   -26267.729   -3462.7545 
  766000    285.86656   -26134.499    123.55652   -26258.056   -3609.8018 
  766200    301.24516   -26132.846    130.20342   -26263.049   -2741.0999 
  766400    275.58029   -26152.338    119.11061   -26271.448    -993.6738 
  766600    279.41636   -26141.267    120.76863   -26262.036    5162.2268 
  766800    316.39363   -26124.571    136.75085   -26261.322    3872.5557 
  767000    292.06792   -26134.978    126.23685   -26261.215   -1610.5955 
  767200      318.649   -26138.026    137.72566   -26275.751   -2524.1125 
  767400    304.68811   -26138.438    131.69152    -26270.13   -4294.2634 
  767600    291.77825   -26146.152    126.11165   -26272.264    163.07604 
  767800    346.71256   -26117.765    149.85522    -26267.62    531.16769 
  768000    285.94636   -26144.288    123.59101   -26267.879    256.30557 
  768200    315.67821   -26148.622    136.44163   -26285.063   -5564.8916 
  768400    355.78789   -26123.244    153.77774   -26277.021   -2524.2423 
  768600    287.71482   -26140.958    124.35537   -26265.313   -2005.7296 
  768800    315.67419   -26144.233    136.43989   -26280.673   -618.37316 
  769000    303.59689   -26123.926    131.21988   -26255.146    2372.7148 
  769200    346.64951   -26118.762    149.82797    -26268.59   -5135.5124 
  769400    312.49583   -26145.663    135.06615    -26280.73   -4176.6554 
  769600    294.58536   -26129.822    127.32494   -26257.147    253.40419 
  769800    315.10531   -26131.699    136.19402   -26267.893    3768.3278 
  770000    281.81659   -26146.368    121.80605   -26268.174    2460.8846 
  770200    326.64774    -26122.11    141.18286   -26263.293    331.48966 
  770400    300.61623   -26142.616    129.93158   -26272.547     -281.071 
  770600    289.90733   -26139.064    125.30301   -26264.367    74.336189 
  770800    296.57354   -26117.637    128.18426   -26245.821   -1093.4357 
  771000    289.12503   -26136.879    124.96489   -26261.844    848.52182 
  771200    295.77111   -26146.224    127.83744   -26274.061   -613.55084 
  771400    308.06991   -26162.757    133.15319   -26295.911   -788.80582 
  771600    319.23672   -26130.439    137.97968   -26268.419   -6811.9606 
  771800    302.61745   -26132.998    130.79654   -26263.795   -6648.7662 
  772000     299.5973   -26149.578    129.49118   -26279.069   -373.02958 
  772200    259.41987    -26148.41     112.1258   -26260.536   -3644.5988 
  772400    325.39949   -26133.447    140.64334    -26274.09   -4731.9745 
  772600     295.4072    -26143.28    127.68015    -26270.96   -4253.4046 
  772800    284.42875   -26144.483    122.93507   -26267.418    1012.8486 
  773000    329.63751   -26127.041    142.47509   -26269.516   -1531.0825 
  773200    302.16144   -26144.632    130.59945   -26275.231    2268.2114 
  773400    310.79032   -26147.654      134.329   -26281.983    3233.3916 
  773600    343.28515   -26124.399    148.37383   -26272.773    3456.0404 
  773800    301.48439   -26143.196    130.30682   -26273.503   -2364.4482 
  774000    306.45442   -26138.918    132.45495   -26271.373   -1991.6081 
  774200    294.93626   -26136.717     127.4766   -26264.193   -1117.5123 
  774400    318.58242   -26140.296    137.69689   -26277.993    -1427.716 
  774600    266.34975   -26157.474    115.12101   -26272.595    466.82248 
  774800    309.24474   -26133.363    133.66098   -26267.024    3972.2549 
  775000    264.34006   -26146.935    114.25239   -26261.188    -834.8601 
  775200    304.76574   -26133.242    131.72507   -26264.967   -4845.4185 
  775400    315.95288   -26129.898    136.56035   -26266.459   -3166.9067 
  775600    282.84096   -26152.699     122.2488   -26274.947    1612.8969 
  775800    295.92564   -26136.996    127.90423     -26264.9    3345.9533 
  776000     289.7454   -26144.859    125.23302   -26270.092    2352.9709 
  776200    331.05116   -26125.822    143.08609   -26268.908    6250.7331 
  776400    278.62144   -26142.122    120.42505   -26262.547    6937.0339 
  776600    301.91872   -26146.678    130.49454   -26277.173   -45.151068 
  776800    323.07095     -26137.1    139.63691   -26276.736   -4028.9362 
  777000     305.3156    -26113.61    131.96273   -26245.573    5924.9945 
  777200    292.61092   -26139.599    126.47155   -26266.071     5808.598 
  777400    280.28375   -26142.941    121.14353   -26264.084     2767.862 
  777600    358.30517   -26111.692    154.86575   -26266.558    7502.8293 
  777800    292.70048   -26142.977    126.51026   -26269.488    2277.0553 
  778000    316.89366   -26126.813    136.96697    -26263.78   -3084.1222 
  778200    265.98628   -26156.916    114.96392    -26271.88   -1087.3341 
  778400    293.44932   -26142.946    126.83392    -26269.78    2925.2426 
  778600    319.61911   -26122.876    138.14496   -26261.021   -2065.7081 
  778800    257.11675   -26156.284    111.13035   -26267.415   -3173.9419 
  779000    314.92313   -26140.598    136.11528   -26276.713   -2166.1848 
  779200    278.58929   -26152.305    120.41115   -26272.716    725.36516 
  779400    275.53003   -26148.459    119.08889   -26267.548    2127.8778 
  779600    292.06868   -26144.722    126.23718   -26270.959    4348.8906 
  779800    314.97858   -26142.404    136.13924   -26278.543   -1411.5024 
  780000    334.82044   -26130.232    144.71524   -26274.947   -5488.0048 
  780200    263.00074   -26150.963    113.67351   -26264.636   -3076.0044 
[n008:26961:0:26961] Caught signal 11 (Segmentation fault: address not mapped to object at address 0x2aa6b034)
==== backtrace (tid:  26961) ====
 0  /opt/ohpc/pub/mpi/ucx-ohpc/1.11.2/lib/libucs.so.0(ucs_handle_error+0x254) [0x153ea3997b94]
 1  /opt/ohpc/pub/mpi/ucx-ohpc/1.11.2/lib/libucs.so.0(+0x27d4c) [0x153ea3997d4c]
 2  /opt/ohpc/pub/mpi/ucx-ohpc/1.11.2/lib/libucs.so.0(+0x27ff8) [0x153ea3997ff8]
 3  /lib64/libpthread.so.0(+0x12c30) [0x153eb71c2c30]
 4  /home/matheus.medina/lammps-3Mar20/src/lmp_g++_openmpi_link() [0x7dd7fe]
 5  /home/matheus.medina/lammps-3Mar20/src/lmp_g++_openmpi_link() [0x7ddc8f]
 6  /home/matheus.medina/lammps-3Mar20/src/lmp_g++_openmpi_link() [0x7de524]
 7  /home/matheus.medina/lammps-3Mar20/src/lmp_g++_openmpi_link() [0x5b347f]
 8  /home/matheus.medina/lammps-3Mar20/src/lmp_g++_openmpi_link() [0x93c5db]
 9  /home/matheus.medina/lammps-3Mar20/src/lmp_g++_openmpi_link() [0x689628]
10  /home/matheus.medina/lammps-3Mar20/src/lmp_g++_openmpi_link() [0x48b0c7]
11  /home/matheus.medina/lammps-3Mar20/src/lmp_g++_openmpi_link() [0x4892e2]
12  /home/matheus.medina/lammps-3Mar20/src/lmp_g++_openmpi_link() [0x489c33]
13  /home/matheus.medina/lammps-3Mar20/src/lmp_g++_openmpi_link() [0x4236e7]
14  /lib64/libc.so.6(__libc_start_main+0xf3) [0x153eb83fb493]
15  /home/matheus.medina/lammps-3Mar20/src/lmp_g++_openmpi_link() [0x423d7e]
=================================
[n008:26961] *** Process received signal ***
[n008:26961] Signal: Segmentation fault (11)
[n008:26961] Signal code:  (-6)
[n008:26961] Failing at address: 0x144e800006951
[n008:26961] [ 0] /lib64/libpthread.so.0(+0x12c30)[0x153eb71c2c30]
[n008:26961] [ 1] /home/matheus.medina/lammps-3Mar20/src/lmp_g++_openmpi_link[0x7dd7fe]
[n008:26961] [ 2] /home/matheus.medina/lammps-3Mar20/src/lmp_g++_openmpi_link[0x7ddc8f]
[n008:26961] [ 3] /home/matheus.medina/lammps-3Mar20/src/lmp_g++_openmpi_link[0x7de524]
[n008:26961] [ 4] /home/matheus.medina/lammps-3Mar20/src/lmp_g++_openmpi_link[0x5b347f]
[n008:26961] [ 5] /home/matheus.medina/lammps-3Mar20/src/lmp_g++_openmpi_link[0x93c5db]
[n008:26961] [ 6] /home/matheus.medina/lammps-3Mar20/src/lmp_g++_openmpi_link[0x689628]
[n008:26961] [ 7] /home/matheus.medina/lammps-3Mar20/src/lmp_g++_openmpi_link[0x48b0c7]
[n008:26961] [ 8] /home/matheus.medina/lammps-3Mar20/src/lmp_g++_openmpi_link[0x4892e2]
[n008:26961] [ 9] /home/matheus.medina/lammps-3Mar20/src/lmp_g++_openmpi_link[0x489c33]
[n008:26961] [10] /home/matheus.medina/lammps-3Mar20/src/lmp_g++_openmpi_link[0x4236e7]
[n008:26961] [11] /lib64/libc.so.6(__libc_start_main+0xf3)[0x153eb83fb493]
[n008:26961] [12] /home/matheus.medina/lammps-3Mar20/src/lmp_g++_openmpi_link[0x423d7e]
[n008:26961] *** End of error message ***
--------------------------------------------------------------------------
Primary job  terminated normally, but 1 process returned
a non-zero exit code. Per user-direction, the job has been aborted.
--------------------------------------------------------------------------
--------------------------------------------------------------------------
mpirun noticed that process rank 3 with PID 26961 on node n008 exited on signal 11 (Segmentation fault).
--------------------------------------------------------------------------
