LAMMPS (3 Mar 2020)
# Alpha
clear
units		real
dimension 3
boundary        p p p
atom_style	charge
newton on
read_data       0.307-45.lmp
  orthogonal box = (0 0 0) to (21.0709 21.0709 21.0709)
  2 by 2 by 2 MPI processor grid
  reading atoms ...
  144 atoms
  read_data CPU = 0.00301425 secs

timestep 0.25

# ---------- Define Interatomic Potential ---------------------
pair_style      reax/c NULL checkqeq no
pair_coeff      * * ffield.reax C
fix             2 all qeq/reax 1 0.0 10.0 1.0e-6 reax/c

#------------ Equilibration of the system -------------------------
reset_timestep 0

dump 1 all custom 10 min.lammpstrj id type x y z

minimize 1.0e-8 1.0e-8 100000 100000
WARNING: Using 'neigh_modify every 1 delay 0 check yes' setting during minimization (../min.cpp:190)
WARNING: Total cutoff < 2*bond cutoff. May need to use an increased neighbor list skin. (../pair_reaxc.cpp:413)
Neighbor list info ...
  update every 1 steps, delay 0 steps, check yes
  max neighbors/atom: 2000, page size: 100000
  master list distance cutoff = 9.5
  ghost atom cutoff = 9.5
  binsize = 4.75, bins = 5 5 5
  2 neighbor lists, perpetual/occasional/extra = 2 0 0
  (1) pair reax/c, perpetual
      attributes: half, newton off, ghost
      pair build: half/bin/newtoff/ghost
      stencil: half/ghost/bin/3d/newtoff
      bin: standard
  (2) fix qeq/reax, perpetual, copy from (1)
      attributes: half, newton off, ghost
      pair build: copy
      stencil: none
      bin: none
Per MPI rank memory allocation (min/avg/max) = 14.27 | 15.39 | 18.72 Mbytes
Step Temp E_pair E_mol TotEng Press 
       0            0   -25403.875            0   -25403.875     17953.93 
      65            0   -25842.558            0   -25842.558     39734.75 
Loop time of 1.10775 on 8 procs for 65 steps with 144 atoms

99.1% CPU use with 8 MPI tasks x no OpenMP threads

Minimization stats:
  Stopping criterion = energy tolerance
  Energy initial, next-to-last, final = 
        -25403.8751625     -25842.5577349     -25842.5577724
  Force two-norm initial, final = 1616.95 57.4265
  Force max component initial, final = 156.522 19.0677
  Final line search alpha, max atom move = 0.000327718 0.00624883
  Iterations, force evaluations = 65 309

MPI task timing breakdown:
Section |  min time  |  avg time  |  max time  |%varavg| %total
---------------------------------------------------------------
Pair    | 0.44947    | 0.54901    | 0.80608    |  20.0 | 49.56
Neigh   | 0          | 0          | 0          |   0.0 |  0.00
Comm    | 0.011008   | 0.26502    | 0.36503    |  28.5 | 23.92
Output  | 0.0006443  | 0.00070357 | 0.00087914 |   0.0 |  0.06
Modify  | 0.28617    | 0.28733    | 0.2884     |   0.2 | 25.94
Other   |            | 0.005687   |            |       |  0.51

Nlocal:    18 ave 72 max 0 min
Histogram: 6 0 0 0 0 0 0 0 0 2
Nghost:    430 ave 520 max 400 min
Histogram: 6 0 0 0 0 0 0 0 0 2
Neighs:    657 ave 2628 max 0 min
Histogram: 6 0 0 0 0 0 0 0 0 2

Total # of neighbors = 5256
Ave neighs/atom = 36.5
Neighbor list builds = 0
Dangerous builds = 0

###
min_style cg
minimize 1.0e-8 1.0e-8 100000 100000
WARNING: Using 'neigh_modify every 1 delay 0 check yes' setting during minimization (../min.cpp:190)
WARNING: Total cutoff < 2*bond cutoff. May need to use an increased neighbor list skin. (../pair_reaxc.cpp:413)
Per MPI rank memory allocation (min/avg/max) = 14.27 | 15.39 | 18.72 Mbytes
Step Temp E_pair E_mol TotEng Press 
      65            0   -25842.558            0   -25842.558     39734.75 
      66            0   -25842.558            0   -25842.558    39734.755 
Loop time of 0.0276099 on 8 procs for 1 steps with 144 atoms

98.5% CPU use with 8 MPI tasks x no OpenMP threads

Minimization stats:
  Stopping criterion = energy tolerance
  Energy initial, next-to-last, final = 
        -25842.5577724     -25842.5577724     -25842.5577758
  Force two-norm initial, final = 57.4265 57.4257
  Force max component initial, final = 19.0677 19.0674
  Final line search alpha, max atom move = 0.000327779 0.00624989
  Iterations, force evaluations = 1 7

MPI task timing breakdown:
Section |  min time  |  avg time  |  max time  |%varavg| %total
---------------------------------------------------------------
Pair    | 0.011405   | 0.013923   | 0.020426   |   3.2 | 50.43
Neigh   | 0          | 0          | 0          |   0.0 |  0.00
Comm    | 0.00024377 | 0.0066945  | 0.0092058  |   4.5 | 24.25
Output  | 0          | 0          | 0          |   0.0 |  0.00
Modify  | 0.0066877  | 0.006716   | 0.0067419  |   0.0 | 24.32
Other   |            | 0.0002762  |            |       |  1.00

Nlocal:    18 ave 72 max 0 min
Histogram: 6 0 0 0 0 0 0 0 0 2
Nghost:    430 ave 520 max 400 min
Histogram: 6 0 0 0 0 0 0 0 0 2
Neighs:    627 ave 2508 max 0 min
Histogram: 6 0 0 0 0 0 0 0 0 2

Total # of neighbors = 5016
Ave neighs/atom = 34.8333
Neighbor list builds = 0
Dangerous builds = 0

###
fix 1 all box/relax aniso 0.0
min_style cg
minimize 1.0e-8 1.0e-8 100000 100000
WARNING: Using 'neigh_modify every 1 delay 0 check yes' setting during minimization (../min.cpp:190)
WARNING: Total cutoff < 2*bond cutoff. May need to use an increased neighbor list skin. (../pair_reaxc.cpp:413)
Per MPI rank memory allocation (min/avg/max) = 14.27 | 15.39 | 18.72 Mbytes
Step Temp E_pair E_mol TotEng Press Volume 
      66            0   -25842.558            0   -25842.558    39734.755    9355.1177 
    3109            0   -26273.842            0   -26273.842    77.595413    10462.748 
Loop time of 8.55381 on 8 procs for 3043 steps with 144 atoms

99.3% CPU use with 8 MPI tasks x no OpenMP threads

Minimization stats:
  Stopping criterion = energy tolerance
  Energy initial, next-to-last, final = 
        -25842.5577758     -26273.8421574     -26273.8423796
  Force two-norm initial, final = 9390.06 31.3207
  Force max component initial, final = 5451.98 20.3842
  Final line search alpha, max atom move = 4.0244e-06 8.20341e-05
  Iterations, force evaluations = 3043 3289

MPI task timing breakdown:
Section |  min time  |  avg time  |  max time  |%varavg| %total
---------------------------------------------------------------
Pair    | 3.7936     | 4.6621     | 6.9629     |  61.4 | 54.50
Neigh   | 0.00039792 | 0.00042269 | 0.0004958  |   0.0 |  0.00
Comm    | 0.086572   | 2.3674     | 3.2436     |  85.4 | 27.68
Output  | 0.030539   | 0.032852   | 0.0397     |   1.5 |  0.38
Modify  | 1.3605     | 1.3703     | 1.3788     |   0.7 | 16.02
Other   |            | 0.1207     |            |       |  1.41

Nlocal:    18 ave 72 max 0 min
Histogram: 6 0 0 0 0 0 0 0 0 2
Nghost:    392 ave 464 max 368 min
Histogram: 6 0 0 0 0 0 0 0 0 2
Neighs:    588 ave 2352 max 0 min
Histogram: 6 0 0 0 0 0 0 0 0 2

Total # of neighbors = 4704
Ave neighs/atom = 32.6667
Neighbor list builds = 1
Dangerous builds = 0

unfix 1
###
min_style cg
minimize 1.0e-8 1.0e-8 100000 100000
WARNING: Using 'neigh_modify every 1 delay 0 check yes' setting during minimization (../min.cpp:190)
WARNING: Total cutoff < 2*bond cutoff. May need to use an increased neighbor list skin. (../pair_reaxc.cpp:413)
Per MPI rank memory allocation (min/avg/max) = 14.27 | 15.39 | 18.72 Mbytes
Step Temp E_pair E_mol TotEng Press 
    3109            0   -26273.842            0   -26273.842    77.595413 
    3112            0   -26273.852            0   -26273.852    158.44859 
Loop time of 0.0692616 on 8 procs for 3 steps with 144 atoms

99.4% CPU use with 8 MPI tasks x no OpenMP threads

Minimization stats:
  Stopping criterion = energy tolerance
  Energy initial, next-to-last, final = 
        -26273.8423796     -26273.8514403     -26273.8515388
  Force two-norm initial, final = 19.6993 24.4608
  Force max component initial, final = 3.38715 5.27208
  Final line search alpha, max atom move = 0.0145979 0.0769612
  Iterations, force evaluations = 3 24

MPI task timing breakdown:
Section |  min time  |  avg time  |  max time  |%varavg| %total
---------------------------------------------------------------
Pair    | 0.026521   | 0.032668   | 0.049374   |   5.3 | 47.17
Neigh   | 0          | 0          | 0          |   0.0 |  0.00
Comm    | 0.00065081 | 0.017207   | 0.02339    |   7.3 | 24.84
Output  | 0.00011171 | 0.00012025 | 0.00015033 |   0.0 |  0.17
Modify  | 0.018676   | 0.018755   | 0.018821   |   0.0 | 27.08
Other   |            | 0.0005125  |            |       |  0.74

Nlocal:    18 ave 72 max 0 min
Histogram: 6 0 0 0 0 0 0 0 0 2
Nghost:    392 ave 464 max 368 min
Histogram: 6 0 0 0 0 0 0 0 0 2
Neighs:    588 ave 2352 max 0 min
Histogram: 6 0 0 0 0 0 0 0 0 2

Total # of neighbors = 4704
Ave neighs/atom = 32.6667
Neighbor list builds = 0
Dangerous builds = 0

###
fix 1 all box/relax aniso 0.0
min_style cg
minimize 1.0e-8 1.0e-8 100000 100000
WARNING: Using 'neigh_modify every 1 delay 0 check yes' setting during minimization (../min.cpp:190)
WARNING: Total cutoff < 2*bond cutoff. May need to use an increased neighbor list skin. (../pair_reaxc.cpp:413)
Per MPI rank memory allocation (min/avg/max) = 14.27 | 15.39 | 18.72 Mbytes
Step Temp E_pair E_mol TotEng Press Volume 
    3112            0   -26273.852            0   -26273.852    158.44859    10462.748 
    3191            0   -26274.635            0   -26274.635   -39.806578    10481.682 
Loop time of 0.34295 on 8 procs for 79 steps with 144 atoms

99.2% CPU use with 8 MPI tasks x no OpenMP threads

Minimization stats:
  Stopping criterion = energy tolerance
  Energy initial, next-to-last, final = 
        -26273.8515388     -26274.6351021     -26274.6351088
  Force two-norm initial, final = 49.8928 22.0653
  Force max component initial, final = 31.6079 11.0347
  Final line search alpha, max atom move = 2.31445e-05 0.000255393
  Iterations, force evaluations = 79 141

MPI task timing breakdown:
Section |  min time  |  avg time  |  max time  |%varavg| %total
---------------------------------------------------------------
Pair    | 0.14811    | 0.18257    | 0.27493    |  12.4 | 53.24
Neigh   | 0          | 0          | 0          |   0.0 |  0.00
Comm    | 0.0032072  | 0.094752   | 0.1296     |  17.1 | 27.63
Output  | 0.00080212 | 0.00086681 | 0.0010656  |   0.0 |  0.25
Modify  | 0.059792   | 0.060226   | 0.060579   |   0.1 | 17.56
Other   |            | 0.004531   |            |       |  1.32

Nlocal:    18 ave 72 max 0 min
Histogram: 6 0 0 0 0 0 0 0 0 2
Nghost:    392 ave 464 max 368 min
Histogram: 6 0 0 0 0 0 0 0 0 2
Neighs:    588 ave 2352 max 0 min
Histogram: 6 0 0 0 0 0 0 0 0 2

Total # of neighbors = 4704
Ave neighs/atom = 32.6667
Neighbor list builds = 0
Dangerous builds = 0

unfix 1
###
min_style cg
minimize 1.0e-8 1.0e-8 100000 100000
WARNING: Using 'neigh_modify every 1 delay 0 check yes' setting during minimization (../min.cpp:190)
WARNING: Total cutoff < 2*bond cutoff. May need to use an increased neighbor list skin. (../pair_reaxc.cpp:413)
Per MPI rank memory allocation (min/avg/max) = 14.27 | 15.39 | 18.72 Mbytes
Step Temp E_pair E_mol TotEng Press 
    3191            0   -26274.635            0   -26274.635   -39.806578 
    3210            0   -26274.652            0   -26274.652    23.397605 
Loop time of 0.731209 on 8 procs for 19 steps with 144 atoms

99.3% CPU use with 8 MPI tasks x no OpenMP threads

Minimization stats:
  Stopping criterion = energy tolerance
  Energy initial, next-to-last, final = 
        -26274.6351088     -26274.6518137     -26274.6520396
  Force two-norm initial, final = 16.0166 15.6533
  Force max component initial, final = 3.01129 3.06249
  Final line search alpha, max atom move = 1.06768e-06 3.26977e-06
  Iterations, force evaluations = 19 283

MPI task timing breakdown:
Section |  min time  |  avg time  |  max time  |%varavg| %total
---------------------------------------------------------------
Pair    | 0.29797    | 0.36732    | 0.55326    |  17.6 | 50.23
Neigh   | 0          | 0          | 0          |   0.0 |  0.00
Comm    | 0.0067365  | 0.19098    | 0.2611     |  24.2 | 26.12
Output  | 0.0001034  | 0.0001125  | 0.00013976 |   0.0 |  0.02
Modify  | 0.1682     | 0.16905    | 0.16976    |   0.2 | 23.12
Other   |            | 0.003739   |            |       |  0.51

Nlocal:    18 ave 72 max 0 min
Histogram: 6 0 0 0 0 0 0 0 0 2
Nghost:    392 ave 464 max 368 min
Histogram: 6 0 0 0 0 0 0 0 0 2
Neighs:    588 ave 2352 max 0 min
Histogram: 6 0 0 0 0 0 0 0 0 2

Total # of neighbors = 4704
Ave neighs/atom = 32.6667
Neighbor list builds = 0
Dangerous builds = 0

undump 1
#############
#----------- Thermo ------------
reset_timestep 0
thermo  200

thermo_style    custom step temp etotal ke pe press
velocity all create 300 12345 mom yes rot yes
fix 1 all npt temp 300 300 25.0 iso 0.0 0.0 250.0

variable vpe equal pe
variable vtemp equal temp
variable vstep equal step

fix output all print 2500 "${vstep} ${vtemp} ${vpe}" file temp-tpdh-Pt.dat screen no

dump 1 all custom 2500 thermo-tpdh-Pt.lammpstrj id type x y z

run 1000000
WARNING: Total cutoff < 2*bond cutoff. May need to use an increased neighbor list skin. (../pair_reaxc.cpp:413)
Per MPI rank memory allocation (min/avg/max) = 13.15 | 14.26 | 17.59 Mbytes
Step Temp TotEng KinEng PotEng Press 
       0          300   -26146.775    127.87675   -26274.652    581.08839 
     200    212.33306   -26102.548    90.508204   -26193.056    2909.4797 
     400    283.71152   -26036.957    120.93369   -26157.891    4865.7486 
     600    312.55436   -26000.131    133.22812   -26133.359     550.7574 
     800    271.94719    -26019.22    115.91908   -26135.139   -2151.9327 
    1000      310.695   -26002.078    132.43556   -26134.513   -3765.0835 
    1200    277.37711   -26014.375    118.23361   -26132.609   -6372.3271 
    1400    343.85063   -25995.335    146.56834   -26141.903   -4930.7416 
    1600    308.74962   -26025.942    131.60633   -26157.549    614.89485 
    1800    314.89992   -26020.745    134.22793   -26154.973    1950.8281 
    2000    304.30946   -26001.773    129.71368   -26131.486    2795.6738 
    2200    270.77367   -26020.939    115.41886   -26136.358   -4903.3135 
    2400    304.08747   -26014.179    129.61906   -26143.798   -3222.5784 
    2600    300.73722   -26006.254    128.19099   -26134.445   -1333.0069 
    2800    311.33935    -25997.94    132.71022    -26130.65    3445.9821 
    3000    302.26074   -26005.814    128.84041   -26134.654     1208.204 
    3200     328.9853   -26003.085     140.2319   -26143.317   -3735.5348 
    3400    288.28746   -26012.091    122.88421   -26134.975   -3177.7232 
    3600    262.59923    -26025.07    111.93446   -26137.005   -633.23953 
    3800    271.71163   -26031.705    115.81867   -26147.524   -977.36446 
    4000     304.9722   -26014.808    129.99618   -26144.804    4216.4985 
    4200    328.65278   -25992.459    140.09017   -26132.549    732.36322 
    4400    275.51512   -26016.427    117.43993   -26133.867    2095.6283 
    4600    289.88487   -26010.151    123.56512   -26133.716    2093.8792 
    4800    323.29923   -25986.717    137.80818   -26124.525    224.90293 
    5000    303.36283   -26009.148    129.31018   -26138.458   -429.96115 
    5200    326.59828   -26010.475    139.21442    -26149.69     2541.722 
    5400    291.61794   -26040.933    124.30385   -26165.237    5031.5471 
    5600     324.8993   -26029.393    138.49022   -26167.883    3832.9471 
    5800    247.88072   -26048.909     105.6606    -26154.57   -117.61935 
    6000     276.8948   -26030.485    118.02802   -26148.513    3295.6098 
    6200    297.30518     -26011.9    126.72807   -26138.628    842.87434 
    6400    309.25504   -26002.014    131.82177   -26133.836    333.11337 
    6600    307.75966   -26019.613    131.18435   -26150.798   -3272.3336 
    6800    283.79653    -26028.04    120.96993    -26149.01    2639.1087 
    7000    339.15786   -26008.893    144.56802   -26153.461    6641.8919 
    7200     281.6141   -26033.177    120.03965   -26153.217    640.27422 
    7400    302.17768   -26024.098      128.805   -26152.903   -3143.6404 
    7600    328.34373   -26003.361    139.95843    -26143.32    4106.3612 
    7800    249.44812   -26036.903    106.32872   -26143.231   -4276.1066 
    8000    318.00321   -26014.981    135.55072   -26150.531   -824.36326 
    8200     324.7008   -25994.191    138.40561   -26132.596   -1770.1371 
    8400    299.24456   -26016.321    127.55474   -26143.876    887.27994 
    8600    291.57978   -26023.538    124.28758   -26147.826    3171.9452 
    8800    282.00425   -26012.016    120.20596   -26132.222    1320.3011 
    9000    321.96131   -25998.881    137.23789   -26136.119   -1912.9072 
    9200    285.55463   -26017.775    121.71933   -26139.495   -2742.1513 
    9400    321.75596   -26012.776    137.15036   -26149.926     1446.949 
    9600    316.53198    -26009.27     134.9236   -26144.193     3168.194 
    9800    299.11376   -26029.444    127.49899   -26156.943   -2695.8274 
   10000    304.81687   -26011.039    129.92997   -26140.969   -3866.9688 
   10200    274.98087   -26010.008     117.2122    -26127.22   -3015.9676 
   10400    287.13338   -26021.696    122.39228   -26144.088    2006.2757 
   10600    327.99945   -26000.089    139.81168   -26139.901    3910.9133 
   10800     323.3172   -26026.223    137.81585   -26164.039    4165.7536 
   11000    301.75563   -26030.609     128.6251   -26159.234   -208.80157 
   11200    297.14699   -26009.919    126.66064   -26136.579    181.58945 
   11400    300.44387   -26019.448    128.06595   -26147.514    2407.1513 
   11600    256.41319   -26027.417    109.29762   -26136.715    2401.1986 
   11800    306.50802   -25997.396    130.65083   -26128.046   -3356.1992 
   12000    344.91901   -26001.578    147.02374   -26148.602   -649.61364 
   12200     295.5799   -26017.833    125.99266   -26143.825    6555.6947 
   12400    303.66374   -26020.359    129.43844   -26149.798    1133.3609 
   12600    260.00195   -26028.612    110.82735    -26139.44    3538.5917 
   12800    253.10179   -26047.045    107.88611   -26154.932   -2030.8199 
   13000    306.52507   -26018.773     130.6581   -26149.431   -4991.8879 
   13200    306.16853   -26012.397    130.50612   -26142.903   -557.00273 
   13400     326.8959   -25987.159    139.34129     -26126.5    4031.0694 
   13600    311.96488   -26002.472    132.97685   -26135.449   -494.74974 
   13800     275.4941   -26021.891    117.43097   -26139.322    1843.2591 
   14000    328.85133   -25998.223     140.1748   -26138.397    2978.0073 
   14200    300.73648   -26003.442    128.19068   -26131.632    1713.8954 
   14400    289.66018   -26019.201    123.46934    -26142.67   -582.93694 
   14600    300.50447   -25992.629    128.09178   -26120.721   -620.27706 
   14800    305.01718   -26017.454    130.01535    -26147.47    1075.9057 
   15000    310.79414   -26002.281    132.47781   -26134.759    3549.8147 
   15200    296.98976   -26013.238    126.59362   -26139.832    598.55798 
   15400     292.2438   -26018.449    124.57063   -26143.019    498.39647 
   15600    280.57038   -26015.546    119.59476   -26135.141   -5108.6746 
   15800    330.81546   -25995.436    141.01202   -26136.448   -5196.3597 
   16000    291.90765   -26017.769    124.42734   -26142.197   -3649.8996 
   16200    294.80826   -26031.493    125.66374   -26157.157   -1475.9719 
   16400    314.07849     -26012.4    133.87779   -26146.278   -1553.1224 
   16600    278.07975   -26018.731    118.53312   -26137.264    1104.1841 
   16800    290.00649   -26033.873    123.61696    -26157.49    284.25009 
   17000    264.12179   -26025.606    112.58345   -26138.189   -1932.5736 
   17200    288.47112   -26009.818     122.9625    -26132.78    1891.9291 
   17400    265.55527   -26019.402    113.19448   -26132.597   -3686.5598 
   17600    306.85807   -26000.692    130.80004   -26131.492    -4454.979 
   17800    292.64896   -26022.137    124.74333   -26146.881    1749.9845 
   18000     282.7684   -26030.871    120.53168   -26151.403    4845.5203 
   18200    310.83167   -26013.723    132.49381   -26146.217    3525.2139 
   18400    295.90351   -26027.192     126.1306   -26153.322    478.09869 
   18600    293.93691   -26027.854    125.29232   -26153.147   -2348.4831 
   18800    309.98891   -25997.234    132.13458   -26129.369    5990.7215 
   19000    306.08516   -26007.771    130.47059   -26138.241    2010.7919 
   19200    274.91826   -26031.699    117.18551   -26148.885   -9502.7701 
   19400    264.14588   -26037.237    112.59372   -26149.831   -2041.0117 
   19600    312.35702   -26014.224      133.144   -26147.368   -1557.5029 
   19800    301.98867   -26017.006    128.72443    -26145.73    2460.6627 
   20000    297.82093    -25997.17    126.94791   -26124.118   -398.78259 
   20200    274.62809   -26027.329    117.06183   -26144.391   -964.49341 
   20400    274.74961   -26015.322    117.11363   -26132.436   -1026.2489 
   20600    311.84559   -25998.256      132.926   -26131.182    2019.4561 
   20800    278.12092   -26022.941    118.55067   -26141.492    832.25166 
   21000    305.49889   -26019.131    130.22069   -26149.352   -80.757109 
   21200    283.35865   -26011.727    120.78328    -26132.51    2217.3952 
   21400    325.51808   -25994.664    138.75398   -26133.418    7999.2378 
   21600    287.45093   -26012.057    122.52764   -26134.585    5278.5955 
   21800    305.53466   -26012.727    130.23593   -26142.963    5383.0115 
   22000    252.59741   -26041.179    107.67112    -26148.85    2307.8464 
   22200    307.42012   -26013.227    131.03962   -26144.266    264.72346 
   22400    307.54471   -26019.914    131.09273   -26151.007    1231.9998 
   22600    274.64686   -26035.734    117.06983   -26152.804    2399.1442 
   22800    324.92094    -25998.51    138.49945   -26137.009   -4026.8855 
   23000     308.6202   -26012.687    131.55116   -26144.238   -6791.4402 
   23200    295.72038   -26027.375    126.05254   -26153.428   -3532.5799 
   23400    344.98506   -25992.053    147.05189   -26139.105    2501.3853 
   23600    284.88104   -26024.192    121.43221   -26145.624    4520.7156 
   23800    288.66172   -26026.025    123.04374   -26149.069    2006.3158 
   24000    326.60392   -26005.528    139.21683   -26144.744   -226.09824 
   24200    297.74008   -26025.924    126.91345   -26152.838     1611.715 
   24400    314.97345   -26013.456    134.25927   -26147.715   -2164.3761 
   24600    309.24293   -26000.722     131.8166   -26132.539   -1610.5274 
   24800    280.78382   -26029.541    119.68574   -26149.227   -1666.0919 
   25000    294.11427   -26021.625    125.36792   -26146.993   -2531.3617 
   25200    298.17202   -26015.116    127.09756   -26142.214   -4952.9854 
   25400    264.19862   -26028.371    112.61621   -26140.987   -1770.8778 
   25600    275.79203   -26029.164    117.55796   -26146.722    200.52261 
   25800    292.89558   -26004.974    124.84845   -26129.822    2915.7084 
   26000    318.45372   -26003.538    135.74276    -26139.28   -3586.9333 
   26200    273.75735   -26023.807    116.69067   -26140.497    2330.4606 
   26400    315.01862   -26000.469    134.27853   -26134.748    2543.7578 
   26600     261.7042   -26018.713    111.55294   -26130.266   -2246.1226 
   26800    281.92659   -26025.562    120.17285   -26145.735   -4017.7335 
   27000    326.21707   -26002.998    139.05193    -26142.05   -3959.4053 
   27200    292.35728   -26019.127      124.619   -26143.746   -4704.4232 
   27400    315.90148   -26008.523    134.65485   -26143.178   -8140.5922 
   27600    300.99294   -25998.774        128.3   -26127.074   -10.272766 
   27800    269.04008   -26028.649     114.6799   -26143.329    4995.2956 
   28000    263.26005   -26015.583    112.21613   -26127.799   -292.57438 
   28200    323.40523   -26008.993    137.85337   -26146.846   -2556.3049 
   28400    305.64029   -26010.687    130.28096   -26140.967     4437.477 
   28600    274.47547   -26029.773    116.99677    -26146.77    3785.2811 
   28800    309.89361   -26027.824    132.09396   -26159.918    1559.9506 
   29000    306.13023   -26003.838     130.4898   -26134.327    7537.2776 
   29200    326.12355   -25999.804    139.01207   -26138.816    7592.7949 
   29400    307.59164   -26028.023    131.11273   -26159.136    460.10302 
   29600    284.38372   -26032.764    121.22022   -26153.984   -1859.5202 
   29800    312.46929   -26002.664    133.19186   -26135.856    1104.7001 
   30000    291.83397   -26015.983    124.39593   -26140.379    3258.3404 
   30200    269.79791   -26041.374    115.00293   -26156.376    3582.4563 
   30400    304.13703   -26005.616    129.64019   -26135.256    4932.7613 
   30600     280.0577    -26015.17    119.37623   -26134.546    2040.0632 
   30800    276.95955   -26030.723    118.05563   -26148.779    226.92775 
   31000    293.03584   -26017.159    124.90824   -26142.067   -6465.3785 
   31200    336.43762   -25987.391     143.4085   -26130.799   -4272.2286 
   31400    315.87014   -25985.161    134.64149   -26119.802   -2140.9858 
   31600    326.63538   -26010.707    139.23024   -26149.937   -6569.7599 
   31800    291.92619   -26016.586    124.43524   -26141.021    2381.7773 
   32000    328.10358   -26001.777    139.85607   -26141.633   -1727.6997 
   32200    298.00413   -26004.649      127.026   -26131.675   -2963.1405 
   32400    268.52516   -26023.004    114.46041   -26137.464    -916.1789 
   32600    329.13483   -26016.502    140.29564   -26156.797    -1168.403 
   32800    314.81018   -26010.633    134.18968   -26144.823    926.71552 
   33000    286.28713   -26018.667    122.03156   -26140.699   -1361.8183 
   33200    271.11751   -26035.166    115.56542   -26150.731   -668.64017 
   33400    296.13822   -26008.974    126.23065   -26135.205    1954.5588 
   33600    322.15749   -26017.347    137.32151   -26154.669   -2394.7178 
   33800    276.10333   -26032.776    117.69066   -26150.467   -1896.2374 
   34000    312.77173    -26009.13    133.32078    -26142.45    7804.4911 
   34200    275.38325   -26026.375    117.38372   -26143.759    3991.7205 
   34400    314.07183   -26005.673    133.87495   -26139.548    126.19132 
   34600    314.00789   -26015.812    133.84769    -26149.66    1809.0068 
   34800    293.19474   -26031.383    124.97597   -26156.359    684.02752 
   35000    301.29499   -26010.899    128.42875   -26139.328   -3037.5192 
   35200    253.10523   -26032.237    107.88758   -26140.125     1030.322 
   35400    306.06701   -26017.961    130.46285   -26148.423   -3118.8888 
   35600    301.48118    -26007.61    128.50811   -26136.118   -36.777535 
   35800    278.81233   -26034.447    118.84538   -26153.292    1333.7037 
   36000    284.56597   -26037.232    121.29791    -26158.53   -1805.2502 
   36200    315.50392   -26015.013    134.48539   -26149.499   -529.11991 
   36400    317.59825   -26012.443    135.37811   -26147.821    1118.1085 
   36600    287.55528   -26023.401    122.57212   -26145.973   -3521.1156 
   36800    320.65727   -26006.453    136.68203   -26143.135    1506.2737 
   37000    319.68234   -26003.981    136.26647   -26140.247   -3261.8738 
   37200    285.55752   -26014.098    121.72056   -26135.818   -2866.1183 
   37400    290.37272   -26007.855    123.77307   -26131.628   -1766.4955 
   37600       298.67   -25987.777    127.30983   -26115.087    3689.8125 
   37800     306.5349   -26009.257    130.66229   -26139.919   -116.36227 
   38000    283.34901   -26021.969    120.77917   -26142.748    939.47427 
   38200      343.243   -25987.081    146.30933    -26133.39   -1979.4557 
   38400    304.15126   -26014.569    129.64625   -26144.215   -2876.8974 
   38600    289.89995   -26013.984    123.57154   -26137.556    2112.8838 
   38800    308.27579   -25993.271    131.40435   -26124.676    4359.4477 
   39000    311.53243   -26017.477    132.79252    -26150.27   -3677.3527 
   39200    269.39417   -26022.427    114.83084   -26137.258    848.18789 
   39400    340.94541    -25993.47    145.32997     -26138.8    5386.2711 
   39600    300.89313   -26025.962    128.25745    -26154.22    2548.1111 
   39800    280.30865   -26026.862     119.4832   -26146.345    3076.2648 
   40000    325.60335   -26002.932    138.79033   -26141.722   -1559.8393 
   40200    275.51157    -26030.11    117.43841   -26147.548    -2531.441 
   40400    310.83602   -26013.394    132.49567   -26145.889      2335.21 
   40600    307.44908   -26020.619    131.05196   -26151.671    3895.5041 
   40800    292.76222   -26037.959    124.79161   -26162.751    1231.5311 
   41000    309.49407   -26011.793    131.92365   -26143.717   -1617.3153 
   41200    301.48405   -26022.453    128.50934   -26150.962    462.68943 
   41400    291.07649   -26039.352    124.07305   -26163.425    860.60724 
   41600     286.6236   -26010.657    122.17498   -26132.832    2405.7229 
   41800    295.20336   -26021.807    125.83216   -26147.639    3936.5841 
   42000    294.82395   -26032.735    125.67043   -26158.406    24.906125 
   42200     284.7452   -26012.271    121.37431   -26133.645   -2684.8822 
   42400    297.26694   -26011.123    126.71177   -26137.835   -1841.3233 
   42600    289.70305   -26022.797    123.48761   -26146.285     3743.712 
   42800    293.46731    -26010.28    125.09215   -26135.373    2449.4719 
   43000     318.5129   -26004.766    135.76798   -26140.534    652.40305 
   43200    284.02097    -26021.12     121.0656   -26142.186    12.436806 
   43400    311.60441    -26010.92     132.8232   -26143.744    2717.0304 
   43600    328.33785   -26008.526    139.95592   -26148.482    1733.4573 
   43800    251.58088   -26032.177    107.23782   -26139.415   -375.23523 
   44000    309.11766    -26015.13     131.7632   -26146.894   -171.64742 
   44200    316.14134   -26002.381    134.75709   -26137.138    6770.6281 
   44400    320.11086   -25999.969    136.44912   -26136.418    497.61035 
   44600    282.83007   -26022.987    120.55797   -26143.545   -451.42754 
   44800    292.95971   -25999.943    124.87579   -26124.818   -2182.3733 
   45000    313.88257   -26005.059    133.79428   -26138.853   -2164.1344 
   45200    304.68928   -26017.462    129.87559   -26147.338    1254.9593 
   45400    342.09067   -25994.574    145.81814   -26140.393   -1768.1748 
   45600    278.24571   -26024.767    118.60386   -26143.371   -1829.2427 
   45800    311.84519   -26020.683    132.92583   -26153.609    1169.1013 
   46000    299.58206   -26018.403     127.6986   -26146.101   -1898.8032 
   46200    308.73363   -26002.961    131.59951    -26134.56   -379.91983 
   46400     274.2431   -26031.394    116.89772   -26148.292    3986.6859 
   46600    307.17886   -26013.234    130.93678    -26144.17    3555.9309 
   46800    283.17539   -26019.144    120.70516    -26139.85   -1984.5021 
   47000    283.89499   -26045.338     121.0119    -26166.35   -3418.6751 
   47200    290.15014   -26030.817    123.67819   -26154.496    1577.2033 
   47400    318.93447   -26015.141    135.94768   -26151.089    5836.5685 
   47600    286.85663   -26018.103    122.27431   -26140.378    2783.5874 
   47800    320.12163   -25998.902    136.45371   -26135.356   -4881.1419 
   48000    262.01831   -26026.489    111.68683   -26138.176   -6944.7437 
   48200    283.25372   -26013.526    120.73855   -26134.264   -4925.3457 
   48400    322.12169   -25997.438    137.30625   -26134.744    775.65395 
   48600    320.92013   -26005.542    136.79408   -26142.336    1342.9837 
   48800    277.85318   -26022.281    118.43654   -26140.718   -2349.7307 
   49000    282.62544   -26000.047    120.47074   -26120.518   -3770.4954 
   49200    311.80586    -26001.12    132.90907   -26134.029   -2431.1926 
   49400    311.01594   -26018.317    132.57236   -26150.889    -109.3605 
   49600    334.28038   -26007.747    142.48896   -26150.236   -2616.1554 
   49800    265.44042   -26030.561    113.14553   -26143.706   -2245.0535 
   50000    307.14707   -26005.472    130.92323   -26136.395    1476.2119 
   50200    294.60214   -26009.768    125.57588   -26135.343    94.757307 
   50400    334.15654   -25991.102    142.43618   -26133.538   -772.60169 
   50600    324.81691   -25995.482     138.4551   -26133.937   -46.166266 
   50800    286.08352   -26013.601    121.94477   -26135.546   -1985.5909 
   51000    297.36851   -26016.478    126.75506   -26143.233     2635.495 
   51200    326.55283   -26007.841    139.19505   -26147.036    6919.8745 
   51400    284.26651   -26032.614    121.17026   -26153.784    6709.5237 
   51600    322.82697   -26006.013    137.60688    -26143.62     698.0676 
   51800    309.53181   -26013.288    131.93974   -26145.227    173.20487 
   52000     282.3199   -26031.319    120.34051   -26151.659    4087.5838 
   52200    312.56674   -25998.424     133.2334   -26131.658     2779.582 
   52400    313.52966   -26016.847    133.64385   -26150.491    650.94647 
   52600    336.87232   -26018.126    143.59379   -26161.719   -2604.7837 
   52800    257.69005   -26043.247    109.84189   -26153.088    1339.6798 
   53000    333.26638   -26016.725    142.05674   -26158.782    4428.9931 
   53200    289.43257   -26023.855    123.37232   -26147.227    263.12853 
   53400    311.37113   -26002.142    132.72376   -26134.866    1323.2493 
   53600    297.98231   -26017.377     127.0167   -26144.394    660.14094 
   53800    284.50862   -26016.051    121.27346   -26137.324   -1852.1563 
   54000    305.96674   -26012.967    130.42011   -26143.387   -1799.4309 
   54200    275.50841   -26012.278    117.43707   -26129.715    912.05025 
   54400    304.47489   -26002.077     129.7842   -26131.862   -2029.4617 
   54600    256.09461   -26034.391    109.16182   -26143.553   -4034.5004 
   54800    335.74076   -26007.664    143.11146   -26150.776   -954.11101 
   55000    335.73243   -26004.376    143.10791   -26147.484   -4979.6828 
   55200    279.07367    -26029.07    118.95678   -26148.026   -1151.8554 
   55400     292.9466    -26020.24     124.8702    -26145.11    3378.3908 
   55600    339.67291   -25993.296    144.78756   -26138.083   -3197.5343 
   55800    305.24115   -26003.364    130.11082   -26133.475    1514.3831 
   56000    292.28004   -26016.549    124.58608   -26141.135    232.39844 
   56200    242.51085   -26042.872    103.37167   -26146.243    580.67052 
   56400    306.61377   -26013.068    130.69591   -26143.764   -3823.5553 
   56600    285.11312   -26009.109    121.53113    -26130.64   -1227.3859 
   56800    324.20514   -26004.755    138.19434   -26142.949    594.36602 
   57000    271.63851   -26028.652     115.7875   -26144.439    374.33074 
   57200    319.47539   -26007.759    136.17825   -26143.938   -2971.1317 
   57400    301.00525   -26011.371    128.30524   -26139.676   -4087.3899 
   57600    273.54384   -26031.612    116.59966   -26148.212    732.98954 
   57800    312.44902   -26005.191    133.18322   -26138.375   -483.57633 
   58000     292.9406   -26011.898    124.86764   -26136.766   -5704.6177 
   58200    299.42251   -26026.801    127.63059   -26154.431   -4761.9635 
   58400    281.03119   -26037.371    119.79118   -26157.162     2582.974 
   58600    319.76478   -26012.871     136.3016   -26149.173    3944.5938 
   58800    275.22931   -26032.303     117.3181   -26149.622    4716.6087 
   59000    298.03173   -26028.118    127.03776   -26155.155    343.00103 
   59200    305.15596   -26014.743    130.07451   -26144.817    1734.1815 
   59400    293.59071   -26018.137    125.14476   -26143.282   -871.18117 
   59600    325.74614   -25989.951     138.8512   -26128.802   -1990.9519 
   59800     309.8208   -26012.774    132.06293   -26144.837   -5619.5804 
   60000    293.65941   -26014.725    125.17404   -26139.899   -3711.9699 
   60200    292.76368   -26029.358    124.79223   -26154.151   -5117.5785 
   60400    304.81671   -26007.899     129.9299   -26137.829   -2969.1472 
   60600    309.83442   -26011.783    132.06873   -26143.852   -1913.0374 
   60800    243.17317   -26045.525    103.65398   -26149.179   -3048.9513 
   61000    298.98315   -26028.951    127.44331   -26156.395   -1962.2768 
   61200    318.17394   -26005.518     135.6235   -26141.142   -4888.0017 
   61400    292.65666   -26002.983    124.74661    -26127.73    661.33873 
   61600    281.27003   -26028.732    119.89299   -26148.625    7741.4819 
   61800    323.94345   -26001.152    138.08279   -26139.234   -110.41595 
   62000    309.68455   -25996.233    132.00485   -26128.238    1682.0809 
   62200    294.60092   -26021.814    125.57536   -26147.389    1783.1137 
   62400     288.6811    -26018.81    123.05201   -26141.862    1848.7522 
   62600    335.02064   -25995.791     142.8045   -26138.595    44.604148 
   62800    256.54089   -26023.831    109.35205   -26133.183    -1399.232 
   63000    295.21415   -26007.918    125.83675   -26133.755    732.76436 
   63200    296.07656   -26024.769    126.20436   -26150.973    1330.9763 
   63400     306.9529   -26031.554    130.84047   -26162.394    217.34495 
   63600    307.04671   -26006.152    130.88045   -26137.033    398.24947 
   63800    294.02091    -26018.28    125.32813   -26143.609   -1985.0673 
   64000    250.39565   -26047.969    106.73261   -26154.702    802.10759 
   64200    293.52824   -26024.961    125.11812   -26150.079    5445.6883 
   64400    289.93595   -26019.122    123.58689   -26142.709   -3601.2461 
   64600    321.64907   -25996.917    137.10479   -26134.022    -4748.168 
   64800    282.28631   -26019.888    120.32619   -26140.214   -3432.8717 
   65000    273.31028   -26020.988     116.5001   -26137.488   -3790.8777 
   65200    319.79655   -25996.479    136.31515   -26132.794   -648.02828 
   65400    277.94097   -26026.904    118.47396   -26145.378    6272.2822 
   65600    305.08089   -26019.617    130.04251    -26149.66    4061.1478 
   65800    325.18152   -25988.465    138.61052   -26127.076    82.017867 
   66000    310.25953   -26003.094    132.24993   -26135.344   -1907.2315 
   66200    281.44011   -26028.967    119.96549   -26148.933    1891.9862 
   66400    277.05698   -26007.217    118.09716   -26125.314      -3028.8 
   66600    292.71196   -26002.642    124.77018   -26127.412   -1846.7746 
   66800    260.89851   -26027.203    111.20951   -26138.412    119.27859 
   67000    316.82335   -26020.315     135.0478   -26155.363   -1697.8062 
   67200    290.48709   -26005.724    123.82182   -26129.546   -522.86862 
   67400    250.52066    -26025.46    106.78589   -26132.246   -643.60992 
   67600    341.85309    -25998.37    145.71688   -26144.087    182.42397 
   67800    273.02232    -26011.89    116.37736   -26128.267    1722.5234 
   68000    294.04684   -26016.845    125.33918   -26142.184    1723.5912 
   68200    306.82356   -26018.076    130.78533   -26148.861    602.77912 
   68400    323.32469   -25992.875    137.81904   -26130.694    1505.4079 
   68600    320.33088   -26022.429    136.54291   -26158.972    4605.5858 
   68800    302.80673   -26017.841    129.07314   -26146.914    6448.9349 
   69000    322.01666   -26004.035    137.26148   -26141.297    1688.0499 
   69200     289.7614   -26015.647    123.51249    -26139.16    -2955.351 
   69400    285.91486   -26025.644    121.87288   -26147.516   -217.64743 
   69600    319.38901   -26001.316    136.14143   -26137.458   -1988.4287 
   69800    259.88549   -26021.758    110.77771   -26132.536   -4531.9674 
   70000    272.44813   -26027.159     116.1326   -26143.292   -70.667981 
   70200    309.30541   -25997.342    131.84323   -26129.186    548.15196 
   70400    296.25997   -26016.842    126.28254   -26143.124    353.91082 
   70600     281.7411   -26028.474    120.09379   -26148.568    4027.7912 
   70800    287.38956   -26013.313    122.50148   -26135.814    4254.8507 
   71000    324.19131   -26003.138    138.18844   -26141.327    3659.0591 
   71200    268.59005   -26033.782    114.48808    -26148.27   -1725.5307 
   71400    309.02976   -26012.457    131.72574   -26144.182   -5387.1599 
   71600    310.82377   -25976.594    132.49045   -26109.085   -742.73432 
   71800    297.78839   -26011.348    126.93404   -26138.282   -3353.8951 
   72000    272.22841   -26013.568    116.03895   -26129.607   -1008.0718 
   72200    298.11985   -25990.355    127.07533    -26117.43   -3749.6502 
   72400    286.22805   -26022.092    122.00638   -26144.099    278.85717 
   72600    297.03683   -26009.144    126.61368   -26135.758     3294.814 
   72800     299.2258   -26010.111    127.54674   -26137.657    3531.8972 
   73000    308.26123   -26018.745    131.39815   -26150.143   -201.71778 
   73200    284.50376   -26004.322    121.27139   -26125.593    915.23335 
   73400    305.57547   -25994.561    130.25333   -26124.814    501.53208 
   73600     287.9222   -26017.039    122.72852   -26139.768    1533.4086 
   73800    310.04596   -26006.045     132.1589   -26138.204    3614.0509 
   74000    339.15203   -25996.636    144.56553   -26141.202   -907.84577 
   74200    271.91553   -26021.186    115.90558   -26137.091   -623.51293 
   74400    278.15968   -26022.913    118.56719    -26141.48    4657.9539 
   74600    312.39434   -25999.753    133.15991   -26132.913    133.95775 
   74800    273.04564   -26027.055     116.3873   -26143.442   -378.87346 
   75000    283.25239   -26024.926    120.73799   -26145.664   -2115.7103 
   75200    333.73015   -25992.299    142.25443   -26134.554   -4215.3862 
   75400    335.38588   -25998.549    142.96019   -26141.509    3831.3447 
   75600    293.62336    -26016.78    125.15867   -26141.938    316.77716 
   75800     278.8338    -26017.13    118.85453   -26135.984   -976.27135 
   76000    258.89266   -26024.557    110.35451   -26134.912    2500.0733 
   76200    345.89931   -26001.988     147.4416   -26149.429    3139.2784 
   76400    305.11666   -26023.176    130.05776   -26153.234   -2002.5708 
   76600    323.03382   -26018.293    137.69505   -26155.988   -2379.2804 
   76800    262.51349   -26049.466    111.89791   -26161.364   -521.57319 
   77000    314.02098   -26021.504    133.85328   -26155.357   -2204.1677 
   77200    325.18353   -26003.993    138.61138   -26142.605   -3998.5759 
   77400    303.39373   -26012.553    129.32335   -26141.876   -1348.3944 
   77600    318.68291   -26005.119    135.84045   -26140.959    -57.59636 
   77800    302.04273   -26012.195    128.74748   -26140.943   -5862.8965 
   78000    293.77803   -26024.256     125.2246   -26149.481   -2990.5462 
   78200    334.53407   -25995.458     142.5971   -26138.055   -1052.3045 
   78400    305.51265    -26007.45    130.22655   -26137.677    642.32338 
   78600    306.59788   -26019.897    130.68914   -26150.587   -2205.1738 
   78800    286.41767   -26013.699     122.0872   -26135.786   -3464.9973 
   79000    315.22813    -25987.53    134.36783   -26121.898   -1326.2879 
   79200    252.50196   -26021.401    107.63043   -26129.031    2617.4076 
   79400    314.35842   -26010.977    133.99711   -26144.974    118.72971 
   79600    284.74711   -26008.831    121.37512   -26130.206   -2692.4131 
   79800     331.6561   -26005.013    141.37035   -26146.383   -4496.9983 
   80000    315.87722   -26022.772    134.64451   -26157.416    3796.5385 
   80200    299.70255   -26007.535    127.74996   -26135.285    4591.9051 
   80400    295.26849   -26011.943    125.85992   -26137.803    -1288.025 
   80600    262.25564    -26015.75      111.788   -26127.538    -933.5067 
   80800    321.06747   -26008.335    136.85688   -26145.192   -2615.7024 
   81000    274.53613   -26035.225    117.02263   -26152.247    4233.8238 
   81200    310.06614    -26010.74     132.1675   -26142.908      469.452 
   81400    294.52341   -26014.438    125.54232    -26139.98    1201.9194 
   81600     311.8931    -26014.99    132.94626   -26147.936   -1176.3935 
   81800    284.93316   -26030.065    121.45442   -26151.519    5134.6135 
   82000    275.62827    -26039.63    117.48816   -26157.119    885.33897 
   82200    287.99336   -26013.999    122.75885   -26136.758    3527.7534 
   82400    282.92869     -26031.3    120.60001     -26151.9    2526.1152 
   82600    301.95264   -26007.825    128.70908   -26136.534   -1841.4507 
   82800    278.82566   -26010.747    118.85107   -26129.598   -3220.4826 
   83000    307.91646   -25999.469    131.25119    -26130.72   -4018.5347 
   83200    334.85631   -26004.032    142.73446   -26146.767   -177.00451 
   83400    277.52836   -26026.312    118.29808    -26144.61    4124.0683 
   83600    333.89311   -26001.971    142.32389   -26144.295    623.21981 
   83800    287.28369   -26015.579    122.45635   -26138.035   -2609.3844 
   84000    282.94182   -26014.953     120.6056   -26135.559    920.99119 
   84200    311.74542    -25996.04     132.8833   -26128.924   -2357.6487 
   84400    306.96161   -26001.025    130.84418   -26131.869   -4460.8458 
   84600    295.39366   -26019.283    125.91327   -26145.196    1374.6422 
   84800    317.24524   -25995.442    135.22764   -26130.669    2791.1489 
   85000    286.70104   -26022.007    122.20799   -26144.215   -269.72515 
   85200    313.64753   -26023.737    133.69409   -26157.431    4077.4432 
   85400    325.24289   -25995.427    138.63668   -26134.063   -1485.1851 
   85600    275.88441   -26014.194    117.59734   -26131.791   -2253.5153 
   85800    305.18482   -26013.316    130.08681   -26143.403    64.109983 
   86000    273.48184   -26035.616    116.57323   -26152.189   -3835.9596 
   86200    281.18717   -26009.008    119.85767   -26128.866   -558.48342 
   86400     275.8135   -26010.728    117.56711   -26128.295    2318.3238 
   86600    270.16159   -26032.638    115.15795   -26147.796    3340.0823 
   86800    315.84309   -25998.385    134.62996   -26133.015    1455.7996 
   87000    306.78419   -26012.158    130.76855   -26142.927   -241.61452 
   87200    272.11431   -26027.577    115.99032   -26143.567    4600.3819 
   87400    335.37681   -25999.787    142.95632   -26142.744    5839.0276 
   87600    273.64221    -26025.49    116.64159   -26142.131    2962.6023 
   87800    311.79773    -26018.94     132.9056   -26151.845    3644.8857 
   88000    308.20504   -25989.943     131.3742   -26121.317    3252.1778 
   88200    287.04886   -26014.012    122.35625   -26136.368   -5183.7939 
   88400    308.72369   -26006.637    131.59528   -26138.232   -7080.3068 
   88600    268.34852   -26038.111    114.38512   -26152.496    1180.5913 
   88800    281.67459   -26018.281    120.06544   -26138.346    3150.5135 
   89000    310.26526   -26008.733    132.25238   -26140.985    2536.3121 
   89200    250.79837   -26043.247    106.90427   -26150.152    2078.5851 
   89400    324.70761    -26012.67    138.40851   -26151.078    4255.0172 
   89600    289.04536   -26008.635    123.20727   -26131.842    1769.5222 
   89800    333.74536   -25995.891    142.26091   -26138.152   -78.977511 
   90000      263.622   -26019.066    112.37042   -26131.436    5485.7688 
   90200    331.24748   -25993.952    141.19617   -26135.148    838.69178 
   90400    339.17001   -26006.893     144.5732   -26151.466   -1743.3724 
   90600    284.84566   -26019.421    121.41712   -26140.838    143.58835 
   90800    335.75579   -25993.283    143.11786   -26136.401    879.61725 
   91000    281.25186   -26025.094    119.88525   -26144.979    6538.0181 
   91200      289.875   -26022.495    123.56091   -26146.056   -823.60358 
   91400     337.0733   -25996.722    143.67946   -26140.401    770.70434 
   91600    325.22567   -26006.812    138.62934   -26145.441    4408.3572 
   91800    292.17794   -26019.098    124.54255   -26143.641   -68.872214 
   92000    303.52105   -26023.978    129.37762   -26153.355   -2050.6911 
   92200    320.44617   -25996.703    136.59205   -26133.295    5214.0925 
   92400    325.88101   -26017.936    138.90868   -26156.844    2963.0004 
   92600    295.34876   -26016.545    125.89413    -26142.44    1639.6016 
   92800    346.36207   -25990.996    147.63885   -26138.635    3217.0253 
   93000    280.20431   -26021.041    119.43872    -26140.48   -876.15665 
   93200    297.16066   -26020.171    126.66647   -26146.837   -136.45805 
   93400    332.27955   -26002.869     141.6361   -26144.505   -1897.4963 
   93600    290.34854   -26018.244    123.76276   -26142.007    3253.4289 
   93800    296.64513   -26032.354    126.44672     -26158.8     71.48752 
   94000    301.51097   -26004.758    128.52081   -26133.279    -292.0753 
   94200    278.21844   -26023.189    118.59223   -26141.781   -4129.9844 
   94400    296.54506   -26019.281    126.40406   -26145.685    141.59761 
   94600    309.73903   -25999.096    132.02807   -26131.124    2249.8067 
   94800    300.17898   -26017.029    127.95304   -26144.982    -740.4383 
   95000    298.47225   -26008.187    127.22554   -26135.413   -6399.8643 
   95200     292.5184   -25990.497    124.68768   -26115.185    2724.4157 
   95400    304.58906   -26017.586    129.83286   -26147.419    -15.15962 
   95600    291.60233    -26032.13     124.2972   -26156.427    2706.4574 
   95800    315.25152    -26010.78     134.3778   -26145.158     2570.821 
   96000    300.99544   -26002.439    128.30106    -26130.74     1170.616 
   96200    277.91912   -26028.105    118.46465    -26146.57     -6017.62 
   96400    319.85838   -26013.716     136.3415   -26150.058   -3818.2733 
   96600    284.88875   -26005.187    121.43549   -26126.623   -422.54621 
   96800    283.83709   -26028.154    120.98722   -26149.142    229.85353 
   97000    271.43013   -26028.561    115.69868    -26144.26   -3131.2957 
   97200    329.54118   -26007.319    140.46885   -26147.788    5246.2573 
   97400    284.66432   -26023.668    121.33983   -26145.007    3240.9198 
   97600    314.53678   -26016.809    134.07314   -26150.882     569.1494 
   97800    325.69905   -25999.687    138.83112   -26138.518   -1489.4002 
   98000     311.0945   -26026.893    132.60585   -26159.499   -1060.4286 
   98200    299.80722   -26019.163    127.79458   -26146.957   -3461.4016 
   98400    281.29798   -26018.854    119.90491   -26138.759   -247.30872 
   98600    296.44432   -26014.047    126.36112   -26140.408    7242.8293 
   98800    302.87873   -26020.404    129.10383   -26149.508    5425.6671 
   99000    287.83099   -26026.747    122.68964   -26149.437    1044.4323 
   99200    322.31418   -25996.789     137.3883   -26134.178   -3297.6095 
   99400    287.87818   -26011.856    122.70975   -26134.565   -3464.7039 
   99600     297.9881   -26017.136    127.01917   -26144.155   -675.10036 
   99800    311.28907   -26008.108    132.68878   -26140.797    1581.2316 
  100000    273.99635   -26033.007    116.79254     -26149.8    3345.4317 
  100200    301.02028   -26008.111    128.31165   -26136.422    487.42409 
  100400    339.96554   -25999.118     144.9123    -26144.03   -25.601276 
  100600    270.55852   -26019.146    115.32715   -26134.474   -5902.9118 
  100800    259.79785   -26023.532    110.74035   -26134.272     1874.916 
  101000    313.83075   -25998.625    133.77219   -26132.397    983.23072 
  101200    272.09659   -26028.419    115.98276   -26144.401    4377.7068 
  101400    305.73838   -26018.329    130.32277   -26148.652   -2699.0755 
  101600    337.09072   -26006.109    143.68689   -26149.795   -3263.8971 
  101800    270.69737   -26014.177    115.38633   -26129.563    3088.9012 
  102000    303.11628   -26008.577    129.20509   -26137.782    6423.2482 
  102200    349.25246   -25981.813     148.8709   -26130.684    1861.7439 
  102400    296.77336   -26001.932    126.50138   -26128.433   -3284.8533 
  102600     318.0929   -26020.014    135.58896   -26155.603    -866.0496 
  102800    264.82634   -26043.841    112.88377   -26156.725   -460.06922 
  103000    276.17738   -26029.551    117.72222   -26147.274    1909.0422 
  103200    287.60628   -26015.137    122.59385    -26137.73    1623.3051 
  103400     296.0233   -26009.554    126.18166   -26135.735    3167.2665 
  103600    295.07676   -26017.091    125.77819   -26142.869   -1628.0766 
  103800    262.11955   -26036.878    111.72999   -26148.608    189.98651 
  104000    303.14923   -26010.327    129.21913   -26139.546    3460.2784 
  104200    293.29254   -26018.825    125.01766   -26143.843    4283.7094 
  104400    278.87904   -26044.968    118.87382   -26163.842  -0.10999463 
  104600    306.16448    -26019.58     130.5044   -26150.084   -1613.5332 
  104800    300.46134    -26017.49     128.0734   -26145.563      2927.92 
  105000    325.39333   -25998.579     138.7008    -26137.28    2859.4334 
  105200     275.3717   -26026.189    117.37879   -26143.568   -1985.1767 
  105400    293.91702   -26026.977    125.28384   -26152.261   -4022.7161 
  105600    322.17268   -25997.335    137.32799   -26134.663   -2905.8366 
  105800     281.8761   -26005.102    120.15133   -26125.253   -811.55344 
  106000    288.72912   -26015.827    123.07247   -26138.899   -2169.2609 
  106200    296.70481   -26013.359    126.47216   -26139.831   -5398.8984 
  106400    339.58279    -25995.16    144.74915   -26139.909   -2314.6509 
  106600    283.04016   -26019.897    120.64752   -26140.545   -520.39749 
  106800    335.46203   -26007.943    142.99265   -26150.935    5038.0409 
  107000    357.50839   -25976.718    152.39004   -26129.108     3539.415 
  107200    299.26439   -26012.427    127.56319   -26139.991    610.27841 
  107400     285.7243   -26008.832    121.79165   -26130.624    2839.0283 
  107600    321.04076    -25995.19     136.8455   -26132.036    4830.4974 
  107800    277.08077   -26022.343     118.1073   -26140.451    2994.7886 
  108000    312.69794   -26004.249    133.28932   -26137.538    670.87469 
  108200    328.85046   -25983.824    140.17443   -26123.998    6850.4351 
  108400    306.69941   -26014.368    130.73242     -26145.1    2538.4537 
  108600    268.20281   -26028.659    114.32302   -26142.982     1124.537 
  108800    353.45895   -25994.058    150.66394   -26144.722   -231.28113 
  109000    302.35966   -26014.439    128.88257   -26143.321   -159.81943 
  109200     313.2047   -26016.791    133.50533   -26150.296   -3104.4127 
  109400     321.6366   -25990.571    137.09948    -26127.67   -3031.5398 
  109600    321.59983   -26011.194    137.08381   -26148.278   -3185.4509 
  109800    306.92267   -26028.275    130.82758   -26159.103   -5157.5734 
  110000    324.04032   -26001.794    138.12408   -26139.918    -3502.564 
  110200    309.64695   -26020.135    131.98882   -26152.123    2675.9295 
  110400    298.80484   -26027.927    127.36731   -26155.294     1549.597 
  110600    311.57104   -26005.004    132.80897   -26137.813    1049.6211 
  110800    299.45184   -26029.576     127.6431   -26157.219    1791.0288 
  111000    301.28487   -26019.348    128.42443   -26147.772    2449.4052 
  111200    310.93559   -26007.902    132.53811    -26140.44    3088.3441 
  111400    277.17253   -26042.347    118.14641   -26160.493    1966.1534 
  111600      276.873   -26026.698    118.01873   -26144.717   -2666.5053 
  111800    313.90822   -26007.772    133.80521   -26141.578   -160.51773 
  112000    279.15908   -26028.811    118.99319   -26147.804    1596.2373 
  112200    309.78221   -26022.211    132.04648   -26154.258    1423.5085 
  112400     300.8117    -26002.99    128.22274   -26131.212   -4926.0522 
  112600    295.23767   -26025.747    125.84678   -26151.594   -4151.5092 
  112800     300.6212   -26017.123    128.14154   -26145.264   -3442.2262 
  113000     289.2971   -26003.319    123.31458   -26126.634   -1881.4388 
  113200    280.25137   -26026.433    119.45878   -26145.892   -988.17425 
  113400      308.638   -26013.222    131.55875    -26144.78    1296.9377 
  113600     292.0379   -25998.927    124.48286    -26123.41    6132.4513 
  113800    274.32558   -26027.491    116.93288   -26144.423    122.35538 
  114000    311.19242   -26016.099    132.64759   -26148.746   -2928.9338 
  114200    333.50826   -25988.568    142.15984   -26130.728   -358.30515 
  114400    290.35345    -25999.36    123.76485   -26123.125    815.81834 
  114600    299.62585   -26017.378    127.71727   -26145.096   -4468.2876 
  114800    277.42022   -26029.238    118.25199    -26147.49   -5127.9325 
  115000    343.99721   -25999.075    146.63082   -26145.706    -1183.791 
  115200    300.01721   -26025.718    127.88409   -26153.602     4426.376 
  115400    338.73198   -26001.429    144.38649   -26145.816    1286.1326 
  115600    313.78206   -26009.072    133.75143   -26142.823    187.35293 
  115800    289.37325   -26020.111    123.34703   -26143.458   -930.19289 
  116000    301.46708   -26020.126     128.5021   -26148.628    3201.6186 
  116200     328.6343   -26012.946    140.08229   -26153.028   -328.63158 
  116400    291.68394   -26012.373    124.33198   -26136.705   -2471.5011 
  116600    310.31239   -26000.049    132.27247   -26132.322   -495.00808 
  116800    281.45785   -26026.628    119.97305   -26146.602   -89.032682 
  117000    300.14551   -26011.088    127.93878   -26139.027     1293.681 
  117200    349.32142   -26002.608    148.90029   -26151.508   -103.40763 
  117400    337.60742   -26008.668    143.90713   -26152.576     783.6011 
  117600    277.09631   -26032.157    118.11392   -26150.271    652.59666 
  117800    298.18326   -26005.638    127.10236    -26132.74    6279.6866 
  118000    314.22652   -26002.912    133.94089   -26136.853    8612.2546 
  118200    299.31342   -26026.736    127.58409    -26154.32    5046.0814 
  118400    313.48659   -25996.255    133.62549   -26129.881    -3330.464 
  118600    319.76449   -26001.481    136.30148   -26137.782    525.56976 
  118800     275.1532   -26008.687    117.28566   -26125.972     4530.849 
  119000    245.20454   -26038.654    104.51987   -26143.174   -1255.8406 
  119200    289.21381   -26021.567    123.27908   -26144.846    653.49487 
  119400    305.49551    -26009.29    130.21925    -26139.51   -1779.8059 
  119600    287.26845   -26010.778    122.44985   -26133.228   -6223.3557 
  119800    319.17559   -26011.504    136.05046   -26147.554   -4207.9295 
  120000    273.18421   -26029.112    116.44636   -26145.559    2683.0195 
  120200    307.08097   -26001.986    130.89505   -26132.881    5154.1723 
  120400    287.89101   -26018.341    122.71522   -26141.057    395.89958 
  120600    284.97231   -26024.251    121.47111   -26145.722   -3755.7147 
  120800    324.49785   -25992.102     138.3191   -26130.421   -1940.2125 
  121000    289.56473   -26020.177    123.42866   -26143.605    2894.7435 
  121200    326.89779   -26011.335    139.34209   -26150.677    2453.4068 
  121400    286.84126   -26035.016    122.26776   -26157.284    1584.4784 
  121600    324.00423     -26007.6    138.10869   -26145.708    1994.1711 
  121800    309.77877   -26012.352    132.04501   -26144.397    272.47139 
  122000    301.10272   -26019.861    128.34679   -26148.208   -2541.1636 
  122200    289.74254   -26025.836    123.50445    -26149.34   -2785.9198 
  122400     314.1215   -26028.571    133.89612   -26162.467   -2516.2572 
  122600    326.09605   -26010.825    139.00035   -26149.825     1057.458 
  122800    274.24822   -26029.114    116.89991   -26146.014   -594.55679 
  123000    270.51643   -26028.952    115.30921   -26144.261   -1216.7835 
  123200    305.11889   -26008.532    130.05871   -26138.591   -221.53273 
  123400    318.56598   -25992.041    135.79061   -26127.831    1690.4592 
  123600     272.7586   -26022.184    116.26494   -26138.449    2145.9287 
  123800    305.68065   -26014.938    130.29816   -26145.237   -612.32342 
  124000    352.64084   -25988.709    150.31522   -26139.024    4826.4552 
  124200    272.78255   -26014.353    116.27515   -26130.628    2218.6206 
  124400    324.66419   -26000.156    138.39001   -26138.546    5879.0564 
  124600    275.49011   -26028.155    117.42927   -26145.584      6476.82 
  124800    303.83257   -26011.757    129.51041   -26141.267    -4684.516 
  125000    310.37239   -25983.402    132.29804     -26115.7   -5607.8781 
  125200     271.1093    -26011.25    115.56192   -26126.812   -4591.0819 
  125400     299.6527   -26018.455    127.72871   -26146.183   -4977.8252 
  125600    278.90415   -26023.652    118.88452   -26142.536   -3888.4672 
  125800    329.52523   -25998.047    140.46205   -26138.509   -1217.9611 
  126000     297.6486   -26021.887    126.87445   -26148.762    489.48645 
  126200     250.8135   -26018.561    106.91072   -26125.472   -2821.3665 
  126400    308.75615   -26019.191    131.60911     -26150.8    1876.0449 
  126600    316.34399   -26004.285    134.84347   -26139.129    4435.0616 
  126800    339.54893   -26007.068    144.73471   -26151.802   -1128.8976 
  127000    282.03232   -26028.193    120.21792   -26148.411    1637.8407 
  127200    295.50991   -26002.221    125.96283   -26128.184   -4849.8572 
  127400    300.41483   -26021.625    128.05358   -26149.679   -2382.0922 
  127600    291.28025   -26017.545    124.15991   -26141.705    1790.1007 
  127800    308.45382   -26008.102    131.48024   -26139.582   -2288.4476 
  128000    264.88254    -26039.03    112.90773   -26151.938   -1342.0036 
  128200    308.76887   -26009.051    131.61453   -26140.666   -6.8026326 
  128400    288.49275   -26022.567    122.97172   -26145.538   -4915.1803 
  128600    282.94815   -26032.875     120.6083   -26153.483   -6475.1602 
  128800    283.10259   -26005.041    120.67413   -26125.715   -2112.0554 
  129000    305.28679   -26028.368    130.13028   -26158.499   -2884.8232 
  129200    286.15174   -26038.294    121.97385   -26160.267   -1662.2185 
  129400    306.06816   -26001.887    130.46334    -26132.35   -2979.8499 
  129600     311.2739   -26000.443    132.68232   -26133.126    1673.5944 
  129800    290.93793   -26026.765    124.01399   -26150.779   -390.03997 
  130000    284.00797   -26013.403    121.06006   -26134.463   -1480.1809 
  130200    294.75246   -26017.074    125.63996   -26142.714   -220.20838 
  130400    317.17991   -26010.515    135.19979   -26145.714    1441.0444 
  130600    330.47438     -25982.1    140.86663   -26122.966   -4026.7772 
  130800    299.25965   -26014.274    127.56117   -26141.835      1174.48 
  131000    292.51048   -26004.039     124.6843   -26128.724    6679.1953 
  131200    288.50713   -25994.876    122.97785   -26117.854    4756.5663 
  131400    289.39823   -26023.728    123.35768   -26147.085    2624.2201 
  131600    319.06293   -26005.641    136.00244   -26141.644    319.82339 
  131800    304.45682   -26008.408    129.77649   -26138.185    2351.2001 
  132000     264.6759   -26025.025    112.81965   -26137.844    2972.1107 
  132200    328.75671   -25998.921    140.13447   -26139.055    2701.2872 
  132400    295.05151   -26002.362    125.76743   -26128.129   -6238.1767 
  132600    262.79395   -26024.937    112.01745   -26136.954   -6654.9462 
  132800    314.91614   -25999.952    134.23484   -26134.186   -855.72257 
  133000    300.57635   -26009.824    128.12242   -26137.947    938.55632 
  133200    292.64812    -26024.06    124.74297   -26148.803    130.64802 
  133400     314.1617   -26011.335    133.91326   -26145.249   -2459.7603 
  133600    309.35804   -26003.894    131.86567    -26135.76     2754.352 
  133800    295.67254   -26031.502    126.03214   -26157.534    4896.9443 
  134000    299.15005   -26017.984    127.51446   -26145.499    1035.9102 
  134200    311.26939   -26003.091    132.68039   -26135.772    9.4437468 
  134400     283.2303   -26035.429    120.72857   -26156.157    3868.0634 
  134600    318.96704   -26017.683    135.96156   -26153.645    326.37889 
  134800    320.31187     -26008.3    136.53481   -26144.835   -2279.4297 
  135000    273.88934   -26029.102    116.74693   -26145.848   -2104.0592 
  135200    274.09541   -26023.217    116.83477   -26140.052    2971.1364 
  135400    297.74272   -26008.311    126.91457   -26135.225    2553.1121 
  135600    268.93107   -26032.321    114.63344   -26146.955    90.650957 
  135800     315.4582    -26001.46     134.4659   -26135.926    -2225.298 
  136000    295.65314   -26010.486    126.02388    -26136.51    -2591.896 
  136200    274.33059   -26028.411    116.93502   -26145.346    -105.5202 
  136400    347.86288   -25999.029    148.27858   -26147.308   -2874.2914 
  136600    276.50529   -26004.738    117.86199     -26122.6    6367.3332 
  136800    261.60627   -26033.554     111.5112   -26145.065    693.06877 
  137000    287.04625   -26017.822    122.35514   -26140.177   -694.66604 
  137200    292.83562   -26011.719    124.82289   -26136.542    2245.9471 
  137400    280.99583   -26027.059    119.77611   -26146.835    1250.1343 
  137600    286.98428   -26038.666    122.32872   -26160.995    49.131499 
  137800    302.77227    -26011.64    129.05845   -26140.698     618.5461 
  138000    274.55675   -26010.339    117.03142    -26127.37   -381.02976 
  138200    324.25857   -25987.176    138.21711   -26125.393   -678.63722 
  138400    301.36954   -26017.175    128.46053   -26145.636   -2752.0065 
  138600    285.50822   -26028.696    121.69954   -26150.396   -3170.7747 
  138800    248.99089   -26047.542    106.13382   -26153.676   -2855.0567 
  139000    283.78218    -26014.14    120.96381   -26135.104   -3489.5524 
  139200    300.49096   -26017.592    128.08603   -26145.679    842.43918 
  139400    286.94607   -26033.192    122.31244   -26155.504   -2984.3315 
  139600    313.91255   -26009.752    133.80706   -26143.559   -2005.6855 
  139800    287.43642   -26019.634    122.52145   -26142.156    1467.2013 
  140000    278.40317   -26031.939    118.67098    -26150.61   -780.16542 
  140200    304.11121   -26003.745    129.62918   -26133.374   -5328.6774 
  140400    279.92296   -26014.618     119.3188   -26133.937   -6400.6465 
  140600    278.92363   -26028.149    118.89282   -26147.041    685.39897 
  140800    288.18513   -26016.965    122.84059   -26139.806    1177.2954 
  141000    288.19327   -26016.062    122.84406   -26138.906   -1456.0282 
  141200    289.31728   -26009.782    123.32318   -26133.105   -4610.0709 
  141400    311.67594   -25996.498    132.85369   -26129.351   -3428.4369 
  141600    270.36573   -26026.222    115.24497   -26141.467    1521.7681 
  141800    279.31589   -26016.058    119.06003   -26135.118    2041.7961 
  142000    280.32616   -25998.362    119.49066   -26117.853   -3852.4551 
  142200    296.24201   -26005.919    126.27488   -26132.194   -5116.9232 
  142400    284.07414   -26025.635    121.08826   -26146.723    -1313.608 
  142600    324.73659   -25996.132    138.42087   -26134.553     2037.603 
  142800    293.22079   -26008.956    124.98707   -26133.943    1066.7795 
  143000    274.96327   -26017.351     117.2047   -26134.556    3029.1274 
  143200    283.97508   -26010.028    121.04604   -26131.074   -1585.0053 
  143400    321.71913   -25991.704    137.13466   -26128.838   -3500.8607 
  143600    276.17869   -26021.927    117.72278    -26139.65   -3576.3865 
  143800    282.09451   -26000.081    120.24443   -26120.325   -2671.8668 
  144000    321.84627   -26014.779    137.18885   -26151.967   -2489.3491 
  144200    301.99297   -26023.511    128.72626   -26152.237    -4497.356 
  144400    334.27636   -25999.336    142.48725   -26141.823    25.192241 
  144600    290.99614   -26018.547     124.0388   -26142.585    1215.1099 
  144800    285.64195   -26019.084    121.75655   -26140.841    2466.4898 
  145000    315.30683   -26003.713    134.40138   -26138.114   -1432.5979 
  145200    319.59672   -25995.732    136.22997   -26131.962   -5908.3079 
  145400    303.25636   -26026.803    129.26479   -26156.068   -3342.0352 
  145600    296.82397   -26020.713    126.52295   -26147.235   -1559.7914 
  145800     306.4737   -25995.748     130.6362   -26126.384   -1816.0747 
  146000    303.35178   -26015.925    129.30547   -26145.231   -5080.3938 
  146200    280.25505    -26018.03    119.46035    -26137.49   -2365.6375 
  146400    325.41577   -26000.414    138.71037   -26139.125    1496.3652 
  146600    286.63785   -26018.581    122.18106   -26140.762   -1159.1454 
  146800    319.03751    -26010.61     135.9916   -26146.602    1942.5095 
  147000    353.06107   -25993.865    150.49434    -26144.36   -536.29273 
  147200    297.90498    -26026.34    126.98374   -26153.324   -1740.0387 
  147400      291.104    -26010.02    124.08478   -26134.104    1445.3887 
  147600    344.56204   -25983.719    146.87158   -26130.591    1879.0268 
  147800     315.9827   -26005.334    134.68947   -26140.024   -2927.8277 
  148000    280.31177   -26022.853    119.48453   -26142.337    3773.3957 
  148200    306.25777    -25998.92    130.54416   -26129.464    2357.9746 
  148400    262.70323   -26021.546    111.97879   -26133.525    4645.9787 
  148600    294.59765   -26018.367    125.57397   -26143.941    4219.0901 
  148800    331.66993   -26001.718    141.37624   -26143.094    850.25145 
  149000    277.35393   -26034.877    118.22373   -26153.101   -1856.0731 
  149200    313.54361   -26022.448    133.64979   -26156.098   -865.21737 
  149400    314.17922   -26013.608    133.92073   -26147.529   -2357.8341 
  149600    266.35549   -26046.059    113.53558   -26159.594   -409.38724 
  149800    270.48888   -26022.476    115.29746   -26137.773    2859.4256 
  150000    319.86656   -26009.132    136.34499   -26145.477   -3317.5753 
  150200    310.19306   -26028.889     132.2216   -26161.111    -2084.021 
  150400    289.59303   -26024.685    123.44072   -26148.126   -450.79257 
  150600    289.65236   -26010.035    123.46601   -26133.501    2287.8181 
  150800    296.63282   -26031.295    126.44147   -26157.736    455.48366 
  151000    301.72574   -26032.253    128.61236   -26160.866   -1184.4392 
  151200    316.83904   -26015.814    135.05449   -26150.869   -4736.3584 
  151400    295.73427   -26000.004    126.05846   -26126.062   -2162.0789 
  151600    288.87047   -26006.508    123.13272   -26129.641   -691.92123 
  151800    286.73477   -26023.474    122.22237   -26145.696    2137.8324 
  152000    290.22359   -25997.271     123.7095    -26120.98   -3157.9581 
  152200     305.6105   -26014.203    130.26826   -26144.471   -2875.9697 
  152400    303.85783   -26008.809    129.52117    -26138.33   -1532.5329 
  152600    303.27879   -26014.052    129.27435   -26143.327   -929.72337 
  152800    277.35567   -26026.854    118.22447   -26145.079   -3310.8201 
  153000    265.91018   -26017.516    113.34577   -26130.862    2804.4235 
  153200    287.09864   -26007.614    122.37747   -26129.992    134.69414 
  153400    359.46205   -25987.443     153.2228   -26140.666   -2166.4732 
  153600     303.3099   -26017.554    129.28761   -26146.842    2306.5547 
  153800    318.76107   -26003.355    135.87377   -26139.229      8401.39 
  154000    262.76584   -26025.683    112.00547   -26137.688    5142.5247 
  154200    331.00947    -26003.52    141.09472   -26144.614    -1694.477 
  154400    303.17905   -26011.792    129.23184   -26141.024   -4809.3208 
  154600    315.82306   -26009.921    134.62142   -26144.542   -4176.6483 
  154800    271.22064   -26038.582    115.60938   -26154.191   -2163.4188 
  155000    280.89227   -26013.086    119.73197   -26132.818   -496.16919 
  155200    301.87342   -26008.256    128.67531   -26136.931   -71.089114 
  155400     288.8112   -26034.169    123.10746   -26157.277   -526.89691 
  155600     319.1927   -26015.028    136.05775   -26151.086    715.24417 
  155800    302.35138   -26009.818    128.87904   -26138.697   -357.41853 
  156000    308.64505   -26023.632    131.56175   -26155.194   -3940.1302 
  156200    297.17036    -26029.53     126.6706   -26156.201   -1919.3933 
  156400    307.66283   -26011.064    131.14308   -26142.208    5343.5482 
  156600    290.41855   -26021.008     123.7926   -26144.801    2549.7399 
  156800    278.63974   -26037.597    118.77182   -26156.369   -5575.6609 
  157000    306.36299   -26014.743    130.58901   -26145.332   -5158.8489 
  157200    277.54466   -26017.495    118.30503     -26135.8   -3094.7158 
  157400    262.04223   -26014.564    111.69703   -26126.261    -3487.551 
  157600    316.66298   -25997.135    134.97944   -26132.114   -6024.8252 
  157800    285.31807   -26025.149    121.61849   -26146.767   -5030.1677 
  158000    324.09393    -26008.25    138.14693   -26146.397    997.12543 
  158200    305.24341   -26001.967    130.11178   -26132.079    2170.3496 
  158400    304.03151   -26018.908    129.59521   -26148.504   -278.66494 
  158600    321.25958   -26007.027    136.93877   -26143.966    5262.4788 
  158800    297.93915   -25996.822     126.9983    -26123.82    5904.8253 
  159000    307.54601   -26007.229    131.09328   -26138.322    5619.2122 
  159200    286.27499   -26021.417    122.02639   -26143.444   -1547.0269 
  159400    310.51756   -25992.903    132.35992   -26125.262   -2428.8733 
  159600    323.29068   -26002.286    137.80454   -26140.091    -1518.922 
  159800    314.91636   -26015.566    134.23494   -26149.801    3911.7205 
  160000    329.06735   -26011.502    140.26688   -26151.769    5703.8362 
  160200    266.65565   -26032.134    113.66353   -26145.797    271.11778 
  160400    325.96936   -26002.068    138.94634   -26141.014   -2587.0881 
  160600    291.10547   -26017.499    124.08541   -26141.584   -3236.6565 
  160800    293.32019   -26033.584    125.02944   -26158.614   -947.35755 
  161000    299.25297   -26015.544    127.55832   -26143.102     1628.068 
  161200    337.19754   -26001.897    143.73242   -26145.629    1798.6923 
  161400    287.09636   -26033.642     122.3765   -26156.019    2851.0162 
  161600    273.30064   -26018.163    116.49599   -26134.659    504.56325 
  161800    318.24716   -26002.928    135.65471   -26138.582   -1167.0366 
  162000    280.16583   -26031.336    119.42232   -26150.759   -926.35093 
  162200    287.71709   -26016.587    122.64109   -26139.228    1107.4123 
  162400    290.03044   -26013.166    123.62717   -26136.793    4834.7974 
  162600    293.00454   -26019.808    124.89489   -26144.703   -3191.3784 
  162800    277.17342   -26012.952    118.14679   -26131.099   -4970.8679 
  163000    327.75283   -26001.116    139.70656   -26140.823   -244.77671 
  163200    292.03781   -26025.981    124.48282   -26150.464     4430.682 
  163400    302.15947   -26023.278    128.79724   -26152.075   -3148.2299 
  163600    338.54045   -26000.888    144.30484   -26145.193   -2446.8099 
  163800    281.46504   -26019.087    119.97612   -26139.063   -842.00503 
  164000    250.48892   -26030.152    106.77236   -26136.925     1598.664 
  164200    287.96521   -26010.194    122.74685    -26132.94    801.99016 
  164400    286.36274    -26012.75    122.06379   -26134.814   -3988.7801 
  164600    279.05819   -26017.453    118.95018   -26136.403   -5481.6652 
  164800     314.2521    -26009.82    133.95179   -26143.772    1328.7681 
  165000    270.04591   -26020.895    115.10864   -26136.004    3175.0174 
  165200     243.2623   -26027.696    103.69198   -26131.388    1071.8473 
  165400    304.16099   -26001.957     129.6504   -26131.607   -776.29027 
  165600    291.37804   -26022.179    124.20159   -26146.381   -2031.2186 
  165800    293.05942   -26023.481    124.91829   -26148.399   -1849.9617 
  166000    283.20681   -26009.794    120.71856   -26130.513   -1229.6344 
  166200    315.73082   -26003.678    134.58211    -26138.26   -6369.7393 
  166400    302.61694   -26032.065    128.99224   -26161.057   -2956.9999 
  166600    322.73444    -26008.92    137.56744   -26146.487   -314.73599 
  166800    301.08183   -26007.868    128.33789   -26136.206   -1275.0058 
  167000    280.88189   -26023.905    119.72754   -26143.633   -871.10793 
  167200    273.77969   -26035.368    116.70019   -26152.069   -259.71956 
  167400    311.08228    -26012.78    132.60064    -26145.38    257.91953 
  167600    319.99442   -26005.267    136.39949   -26141.666   -481.79212 
  167800    279.60911   -26033.579    119.18502   -26152.764    1882.2278 
  168000    267.45242   -26026.643    114.00316   -26140.646    309.11907 
  168200     326.6701   -26009.664    139.24504   -26148.909    -2347.749 
  168400     281.2396   -26030.215    119.88002   -26150.095   -2309.1126 
  168600    295.20822   -26025.918    125.83423   -26151.752   -4076.3965 
  168800    310.73543   -26002.846    132.45279   -26135.299   -2307.9993 
  169000    298.36007   -26017.121    127.17772   -26144.299   -2629.6945 
  169200    296.67422   -26015.891    126.45912    -26142.35    5660.6555 
  169400    344.18813   -25976.423     146.7122   -26123.135    7321.1306 
  169600    301.97905   -25999.582    128.72033   -26128.302    3959.8234 
  169800    296.17081    -26017.07    126.24454   -26143.314   -1925.9429 
  170000     300.5669   -26018.897     128.1184   -26147.015   -3061.2382 
  170200     280.3455   -26020.955    119.49891   -26140.454    4754.2708 
  170400    320.44674    -25994.06    136.59229   -26130.652    2313.2688 
  170600    294.65403   -26020.456      125.598   -26146.054   -1689.6117 
  170800    300.75031   -26016.293    128.19657   -26144.489   -39.300179 
  171000    325.66527   -25999.133    138.81672    -26137.95    5942.1574 
  171200    280.31815   -26030.209    119.48725   -26149.696    295.84126 
  171400    336.89701   -26010.026    143.60432    -26153.63    1121.6033 
  171600    297.36202   -26016.975    126.75229   -26143.727   -757.77527 
  171800       247.79   -26043.198    105.62193    -26148.82   -1314.7313 
  172000     296.5107    -26022.64    126.38942   -26149.029   -680.79124 
  172200    305.63246   -26012.725    130.27762   -26143.002   -681.83351 
  172400    298.98712   -26010.237    127.44501   -26137.682    2661.2416 
  172600    273.52842   -26026.774    116.59309   -26143.367   -553.55281 
  172800    310.05402   -26003.695    132.16234   -26135.858    4632.7298 
  173000    289.22225   -26022.032    123.28267   -26145.314     196.1963 
  173200    310.97128    -26013.11    132.55332   -26145.664   -1568.2829 
  173400    340.66793   -26002.908    145.21169    -26148.12   -939.43482 
  173600    317.39406   -26024.571    135.29107   -26159.862   -1248.6143 
  173800    307.34243   -26016.509     131.0065   -26147.515   -468.50113 
  174000     317.7969   -25997.185    135.46279   -26132.648    5631.7274 
  174200    297.68154    -26030.79     126.8885   -26157.678    3831.5803 
  174400    282.13793   -26022.308    120.26294   -26142.571    2666.2901 
  174600    327.86254   -25995.243    139.75332   -26134.996     1534.494 
  174800     330.9791   -26006.181    141.08177   -26147.262    7952.0788 
  175000    285.96734   -26024.766    121.89525   -26146.661     8489.021 
  175200    354.10998   -25993.017    150.94145   -26143.959    2863.0479 
  175400    299.33792   -26009.603    127.59454   -26137.198   -4486.3389 
  175600    301.90238   -26019.408    128.68765   -26148.096   -4812.7061 
  175800    292.59404   -26025.255    124.71992   -26149.975   -2216.0002 
  176000    300.74259   -26003.821    128.19329   -26132.014   -1102.6591 
  176200    298.24249   -26005.341     127.1276   -26132.469   -1651.9509 
  176400    277.73825   -26028.505    118.38755   -26146.892   -1206.8195 
  176600    322.81842   -26004.229    137.60323   -26141.832    2012.6412 
  176800    305.11159   -26018.538     130.0556   -26148.594    3938.0557 
  177000    310.67516   -25990.431     132.4271   -26122.858    1644.5065 
  177200    314.40588   -26004.699    134.01734   -26138.716   -3134.3106 
  177400    286.19299   -26023.738    121.99143   -26145.729    1627.3516 
  177600    303.60086    -26010.61    129.41164   -26140.022     3511.842 
  177800    316.09142   -25975.432    134.73581   -26110.168    2332.9596 
  178000    314.61882   -26005.578    134.10811   -26139.686    1643.1023 
[...]
  950000    311.35925   -26030.694     132.7187   -26163.413   -6271.8419 
  950200    316.79128   -26006.279    135.03413   -26141.313   -9164.1178 
  950400    313.10443   -26021.113    133.46259   -26154.576     -6251.85 
  950600    295.81152    -26019.66    126.09139   -26145.752   -2763.7494 
  950800    287.04492   -25994.293    122.35457   -26116.648    1172.0654 
  951000    309.79587   -25998.538     132.0523    -26130.59   -125.53843 
  951200    298.87014   -26018.451    127.39514   -26145.846    -3246.723 
  951400    301.29082   -26012.299    128.42697   -26140.726    -4040.611 
  951600    308.98247   -25997.069    131.70558   -26128.774    6154.3066 
  951800    317.07232   -26014.998    135.15393   -26150.152    2299.6843 
  952000    302.19648    -26020.12    128.81301   -26148.933   -158.92282 
  952200    310.04432   -25989.759     132.1582   -26121.917    1194.3727 
  952400    314.97502   -26011.944    134.25994   -26146.204    2052.4066 
  952600    304.47308   -26019.816    129.78343   -26149.599    1294.9214 
  952800    317.17073   -25998.948    135.19587   -26134.144    2494.9585 
  953000    329.52118   -26000.269    140.46033    -26140.73    1013.6503 
  953200    288.37275   -26009.756    122.92057   -26132.676   -1076.5406 
  953400    300.90736   -26022.799    128.26352   -26151.063    234.70189 
  953600    270.98725   -26031.124     115.5099   -26146.634    825.13649 
  953800    286.50611   -26015.174     122.1249   -26137.298    1795.1129 
  954000    302.42707   -26008.362     128.9113   -26137.273    1531.5063 
  954200    328.18759   -26003.738    139.89188    -26143.63   -2876.5219 
  954400    257.02769   -26032.483    109.55955   -26142.042    1466.7621 
  954600    294.85649   -26006.898     125.6843   -26132.582    2787.8046 
  954800    314.68166   -26016.389    134.13489   -26150.524    4074.3202 
  955000    276.32697   -26041.624    117.78598    -26159.41    2492.2314 
  955200    318.30852   -26020.313    135.68086   -26155.994     -437.511 
  955400    293.87416   -26008.513    125.26558   -26133.779    4264.8448 
  955600    280.42974   -26036.546    119.53481   -26156.081    -372.9284 
  955800    287.10982   -26014.663    122.38224   -26137.045    151.85032 
  956000    300.27437   -26011.242     127.9937   -26139.236    1913.9832 
  956200    266.34682   -26038.466    113.53189   -26151.998   -2166.0169 
  956400    289.72697   -26028.476    123.49781   -26151.974   -5875.1135 
  956600     306.9695   -26005.034    130.84754   -26135.881    -2542.817 
  956800    298.13564   -26005.524    127.08206   -26132.607   -1808.2822 
  957000    289.35366   -26029.399    123.33869   -26152.738   -2161.0117 
  957200    315.42442   -26016.967     134.4515   -26151.418   -102.55892 
  957400    314.45219   -26010.159    134.03708   -26144.196    1288.4007 
  957600     306.9483   -26013.982    130.83851   -26144.821    738.33535 
  957800    283.39466   -26029.842    120.79863   -26150.641    150.23206 
  958000    289.78755   -26022.539    123.52364   -26146.063    3815.7897 
  958200     300.5683   -26006.721    128.11899    -26134.84    4763.4323 
  958400    302.81685   -26006.108    129.07745   -26135.186    2986.2468 
  958600    256.62435   -26027.767    109.38763   -26137.155   -2629.5115 
  958800    318.94243   -26015.617    135.95107   -26151.568   -3583.0262 
  959000    299.08695   -26001.095    127.48756   -26128.582   -6015.8071 
  959200    319.66976   -26018.109     136.2611    -26154.37   -1266.5051 
  959400    292.52769   -26026.455    124.69163   -26151.146    3312.2849 
  959600    331.84263   -26009.061    141.44986    -26150.51    3789.9126 
  959800    291.23928   -26014.043    124.14244   -26138.186    351.42652 
  960000    302.50825   -26025.754    128.94591     -26154.7    1008.6014 
  960200     316.3419    -25996.85    134.84258   -26131.692   -188.88603 
  960400    296.02232   -26018.453    126.18124   -26144.634   -2292.8596 
  960600    291.97872   -26019.549    124.45763   -26144.007   -3754.2876 
  960800    302.81009   -26020.206    129.07457   -26149.281   -3810.0744 
  961000    291.74326   -26004.837    124.35727   -26129.195   -1032.6876 
  961200    317.27715    -26009.28    135.24124   -26144.521    436.66012 
  961400    307.02557   -26015.181    130.87144   -26146.052    1560.3127 
  961600     292.2115     -26035.5    124.55686   -26160.057     4759.074 
  961800    306.01119   -26013.658    130.43906   -26144.097   -5566.3312 
  962000    306.63692   -26009.396    130.70578   -26140.101   -2076.6977 
  962200    282.96155   -26034.076    120.61401    -26154.69   -1130.6939 
  962400    310.37337   -26001.499    132.29846   -26133.797   -4498.3327 
  962600    285.63376   -26001.208    121.75306   -26122.961   -757.98396 
  962800    290.27323   -26031.831    123.73066   -26155.562    4341.0731 
  963000    289.74268   -26025.986    123.50451   -26149.491    188.19282 
  963200    299.03666   -26014.067    127.46612   -26141.533   -423.86857 
  963400    281.44796   -26020.292    119.96884   -26140.261   -3727.1325 
  963600    286.63902   -26023.092    122.18155   -26145.273   -1797.8131 
  963800     317.7502    -26006.33    135.44288   -26141.772   -2876.8598 
  964000    287.75341   -26030.918    122.65657   -26153.575    185.93413 
  964200    271.25227   -26037.375    115.62286   -26152.998   -1556.6039 
  964400    314.27302     -26005.2    133.96071   -26139.161   -2909.0888 
  964600    329.44571   -26021.553    140.42816   -26161.981    3745.7688 
  964800    271.21029   -26032.081    115.60497   -26147.686    5460.9494 
  965000    305.32032   -26017.435    130.14457   -26147.579   -570.15862 
  965200     292.5471   -26017.342    124.69991   -26142.042   -1119.2037 
  965400    286.21619     -26008.8    122.00132   -26130.801   -142.42119 
  965600    307.59369   -25996.586    131.11361     -26127.7    978.72024 
  965800    302.83731   -26029.045    129.08617   -26158.131    1156.1135 
  966000    303.96922   -26019.926    129.56866   -26149.495   -556.21025 
  966200    312.19344   -26011.152    133.07428   -26144.227   -426.18364 
  966400    309.87764   -26017.979    132.08715   -26150.066    1221.5679 
  966600    251.64342   -26042.448    107.26448   -26149.713    1268.0775 
  966800    323.23357   -26015.275     137.7802   -26153.055   -1531.4532 
  967000    313.40609   -26007.598    133.59117    -26141.19    2849.4033 
  967200    332.26096   -25992.102    141.62818    -26133.73    5458.8666 
  967400    287.29039    -26021.39    122.45921   -26143.849    4282.9648 
  967600    281.77971   -26009.168    120.11024   -26129.278    1368.8796 
  967800    323.01642   -25982.936    137.68763   -26120.623   -1438.8118 
  968000    290.70394   -26015.405    123.91425    -26139.32    4334.4655 
  968200    287.27173    -26021.79    122.45125   -26144.241    8478.1628 
  968400    259.55888   -26022.975    110.63849   -26133.614    5544.0959 
  968600    307.56897   -26005.817    131.10307    -26136.92    2456.8041 
  968800    298.71438   -26025.913    127.32875   -26153.241     2128.117 
  969000    270.73825   -26034.313    115.40376   -26149.717   -249.74684 
  969200    310.20138    -26002.39    132.22515   -26134.616    510.96279 
  969400    295.30013   -26016.511    125.87341   -26142.385    3634.0684 
  969600    247.83295   -26034.068    105.64024   -26139.708   -3195.1596 
  969800    310.12498   -26002.703    132.19258   -26134.895    -52.84656 
  970000     289.0329   -26022.116    123.20196   -26145.318   -206.02681 
  970200    272.18474   -26027.141    116.02034   -26143.162    -2935.274 
  970400    314.13186   -26004.969    133.90054   -26138.869     4733.497 
  970600    250.87691   -26020.253    106.93775   -26127.191    2336.9081 
  970800    279.40513   -26020.919    119.09807   -26140.017    4823.8681 
  971000    283.86401   -26011.548    120.99869   -26132.547   -2176.7057 
  971200    280.82329   -26011.777    119.70256   -26131.479    810.25536 
  971400    286.57184   -26033.741    122.15292   -26155.894   -1651.9518 
  971600    290.92504   -26017.346     124.0085   -26141.354     2452.813 
  971800    329.56436   -25999.837    140.47873   -26140.315     3618.276 
  972000    297.57553   -26021.777    126.84331    -26148.62   -1181.5335 
  972200    286.13939   -26019.707    121.96859   -26141.675    247.12274 
  972400    347.10866   -25990.553    147.95709    -26138.51   -2047.5973 
  972600     297.6504   -26018.451    126.87522   -26145.326   -2776.6747 
  972800    289.51164   -26016.461    123.40603   -26139.867   -2209.0522 
  973000    282.26679   -26027.218    120.31787   -26147.536   -788.15225 
  973200    317.91851   -26001.874    135.51462   -26137.389   -418.21124 
  973400    297.49102   -26007.996    126.80728   -26134.804    1555.6011 
  973600    295.35624   -26030.191    125.89732   -26156.088   -56.327801 
  973800    298.23873   -26013.227      127.126   -26140.353   -3029.7661 
  974000     292.0612   -25999.184    124.49279   -26123.677   -4165.4146 
  974200    297.14327   -26026.659    126.65905   -26153.318    2029.7786 
  974400    327.16011   -26012.791    139.45391   -26152.245     2481.566 
  974600    321.96326   -26003.866    137.23872   -26141.105    2025.9173 
  974800    304.11528   -26011.316    129.63091   -26140.947   -4865.2438 
  975000    313.31054   -26010.036    133.55045   -26143.586    473.24147 
  975200    316.32312   -26013.918    134.83458   -26148.753   -288.56194 
  975400    281.90687   -26035.062    120.16445   -26155.226    1175.8661 
  975600    288.50293   -26020.911    122.97606   -26143.887   -1229.3575 
  975800    301.16081   -26012.526    128.37155   -26140.897    3921.9522 
  976000    279.60377   -26027.467    119.18274    -26146.65    2100.4918 
  976200    273.19613   -26025.676    116.45145   -26142.128    -4614.474 
  976400    300.73587   -25999.893    128.19042   -26128.084   -302.81639 
  976600    275.26995   -26020.649    117.33542   -26137.984   -2498.5254 
  976800    292.34931   -26042.015     124.6156   -26166.631   -231.03763 
  977000    319.00925   -26003.136    135.97955   -26139.116     1110.136 
  977200    293.08971   -26021.457     124.9312   -26146.388    355.41908 
  977400    281.07922   -26026.891    119.81166   -26146.702    3295.9941 
  977600    311.05061   -26007.812    132.58714   -26140.399    1664.7793 
  977800    305.28921    -26021.86    130.13131   -26151.991   -1058.5644 
  978000    306.52202   -26018.502     130.6568   -26149.159   -677.39118 
  978200    321.37851   -26000.398    136.98946   -26137.388    2057.3066 
  978400    293.53338   -26030.408    125.12032   -26155.528    3165.1932 
  978600    298.49308   -26013.249    127.23442   -26140.483    8277.8262 
  978800     323.0169   -26005.647    137.68784   -26143.335    6508.8266 
  979000    292.00889   -26029.844     124.4705   -26154.314    508.43211 
  979200      270.181   -26052.867    115.16623   -26168.033    2521.5705 
  979400    278.89067   -26025.445    118.87878   -26144.324    2388.6267 
  979600    281.28305   -26000.591    119.89854   -26120.489    594.21243 
  979800    301.57105   -26020.409    128.54642   -26148.955    1110.7604 
  980000    266.64302   -26022.392    113.65814    -26136.05   -2335.3311 
  980200    315.93117   -26009.084     134.6675   -26143.751    1965.0565 
  980400     306.4414   -26011.703    130.62244   -26142.325    3639.8668 
  980600    325.95692   -25988.473    138.94104   -26127.414    2536.0249 
  980800    329.61657   -26015.505    140.50099   -26156.006   -2777.0742 
  981000    314.47427    -26022.43    134.04649   -26156.476   -16.226406 
  981200    292.28295   -26024.679    124.58731   -26149.266    679.66661 
  981400    328.91574   -25999.721    140.20226   -26139.924    2677.5945 
  981600    296.95585   -26024.027    126.57916   -26150.606    1811.6557 
  981800    270.18042   -26018.683    115.16598   -26133.849    2339.3755 
  982000    321.50617   -26004.072    137.04388   -26141.116   -804.52151 
  982200    291.91166   -26037.341    124.42905    -26161.77   -1098.2804 
  982400     273.4276   -26027.802    116.55011   -26144.352    556.03355 
  982600    318.30859   -26013.068     135.6809   -26148.748    2518.6396 
  982800    285.92088   -26024.284    121.87544    -26146.16   -1106.1087 
  983000    297.06133   -26023.466    126.62412    -26150.09    2493.3884 
  983200    327.99948   -25995.643    139.81169   -26135.454    2894.1113 
  983400    288.57903   -26020.167     123.0085   -26143.176    1197.7362 
  983600    296.47003   -26029.836    126.37208   -26156.208    613.87321 
  983800    315.56594   -26004.398    134.51182   -26138.909    7495.8592 
  984000    320.04799    -26008.87    136.42232   -26145.292    1943.3989 
  984200    292.01928   -26024.224    124.47492   -26148.699    -2090.715 
  984400    313.04946   -25995.836    133.43916   -26129.275   -217.96964 
  984600    307.69836   -26010.442    131.15822   -26141.601    4740.5205 
  984800     302.4365   -26018.634    128.91532    -26147.55    6049.2936 
  985000    272.87353   -26030.453    116.31394   -26146.767    236.30802 
  985200    310.33729   -26006.891    132.28308   -26139.174   -5068.8279 
  985400    326.72074   -26005.973    139.26662    -26145.24    -2052.345 
  985600    308.81745   -26026.774    131.63524   -26158.409    6464.4053 
  985800    301.80741   -26004.393    128.64717    -26133.04    3750.4591 
  986000    289.71678   -26023.859    123.49347   -26147.353    698.68312 
  986200    278.75551   -26026.325    118.82116   -26145.146    3897.4027 
  986400    337.49131    -26006.46    143.85764   -26150.318    2517.3997 
  986600    264.19499   -26027.636    112.61466    -26140.25   -37.433922 
  986800    295.00963   -26019.735    125.74958   -26145.485   -994.79471 
  987000    275.54732   -26009.498    117.45365   -26126.951    1268.3962 
  987200    310.58861   -26001.636    132.39021   -26134.026   -3068.9845 
  987400    278.93458   -26024.851    118.89749   -26143.749   -3160.4642 
  987600     314.3328   -26007.936    133.98619   -26141.922   -1219.9659 
  987800    339.45543   -25988.208    144.69486   -26132.903   -859.17973 
  988000    280.15231   -26027.276    119.41656   -26146.693   -326.74234 
  988200    324.61573   -26004.116    138.36935   -26142.485    -1649.629 
  988400     279.0803    -26020.48    118.95961    -26139.44   -4508.9199 
  988600    279.59171   -26033.546     119.1776   -26152.723   -2458.5014 
  988800    305.71493   -26005.417    130.31277    -26135.73    1281.1755 
  989000    285.87364   -26019.043    121.85531   -26140.899    3908.6977 
  989200    250.73755   -26043.837    106.87834   -26150.716    1078.3555 
  989400    299.72284    -26018.64    127.75861   -26146.399   -5935.8046 
  989600    304.92047   -26012.141    129.97413   -26142.115   -4033.0498 
  989800    276.57904   -26033.194    117.89343   -26151.087    393.22275 
  990000    296.42874   -26015.609    126.35448   -26141.963   -368.54794 
  990200    297.77177   -26007.606    126.92695   -26134.533   -4069.4158 
  990400    297.19217   -26025.808     126.6799   -26152.488    2739.6294 
  990600    288.17758   -26031.854    122.83737   -26154.692    1435.1072 
  990800    316.07477   -26003.828    134.72872   -26138.557    2021.6062 
  991000    286.37677   -26021.852    122.06977   -26143.921    324.22552 
  991200    307.16845   -26022.582    130.93234   -26153.514    1925.6086 
  991400    318.07039    -25998.69    135.57936   -26134.269   -4504.1243 
  991600    269.10687   -26028.118    114.70837   -26142.827   -3624.6117 
  991800    270.81794   -26022.255    115.43773   -26137.692    2427.9311 
  992000    319.20732   -26007.311    136.06398   -26143.375    390.62994 
  992200    296.08418   -26022.254    126.20761   -26148.462   -2114.2327 
  992400      322.459   -26003.781    137.45003   -26141.231   -1566.6731 
  992600    313.46607   -25995.933    133.61674   -26129.549   -545.58544 
  992800    312.22325   -26018.389    133.08698   -26151.476    945.27821 
  993000    301.20332   -26024.284    128.38967   -26152.673    553.82665 
  993200    303.41957   -26015.554    129.33436   -26144.889    1173.8471 
  993400    333.63039    -25994.65     142.2119   -26136.862    824.60842 
  993600    256.48345    -26027.92    109.32757   -26137.248    2822.0392 
  993800     323.0294    -26002.49    137.69317   -26140.184    -1098.395 
  994000    274.04403   -26026.426    116.81287   -26143.239    223.18956 
  994200    272.70813   -26023.063    116.24343   -26139.306   -2900.8104 
  994400    308.61812   -26010.463    131.55027   -26142.013   -960.92245 
  994600    271.47788   -26034.759    115.71903   -26150.478    1910.2829 
  994800    286.47568   -26024.748    122.11193   -26146.859    7869.7172 
  995000    287.59869   -26014.328    122.59062   -26136.918   -125.99676 
  995200    261.39401   -26025.309    111.42072    -26136.73   -1209.1555 
  995400     278.7928   -26023.438    118.83706   -26142.275   -1048.8813 
  995600    312.76058   -26006.878    133.31602   -26140.194    -1156.017 
  995800    287.34733   -26032.153    122.48348   -26154.636    1014.6847 
  996000    311.17306   -25997.992    132.63933   -26130.631   -6502.0293 
  996200    291.68326   -26007.853    124.33169   -26132.185   -1429.4574 
  996400    276.14767   -26031.299    117.70956   -26149.008    2035.1153 
  996600    313.90949   -26013.782    133.80575   -26147.588   -661.08868 
  996800     302.4998   -26011.755    128.94231   -26140.698   -3114.8048 
  997000    317.94267   -26006.896    135.52492   -26142.421    530.08226 
  997200    282.16804   -26026.284    120.27577    -26146.56   -723.44131 
  997400    321.23341   -26009.738    136.92762   -26146.665      724.548 
  997600    308.57722   -26006.044    131.53284   -26137.577    1897.0718 
  997800    271.98972   -26030.559    115.93721   -26146.496   -523.03786 
  998000    294.31885   -25998.527    125.45513   -26123.982    1532.3375 
  998200    329.13257   -26005.905    140.29468     -26146.2    3200.9281 
  998400    307.14395   -26029.415     130.9219   -26160.337    80.000191 
  998600    282.72699   -26023.268    120.51403   -26143.782   -2228.3144 
  998800    332.12159   -26004.755    141.56877   -26146.324    4167.4596 
  999000    289.83662   -26030.545    123.54455   -26154.089    1988.0081 
  999200    328.73932   -25997.041    140.12705   -26137.168    352.85502 
  999400    307.86842   -26014.167    131.23071   -26145.398    923.58673 
  999600    292.84903   -26023.053    124.82861   -26147.882    -1844.426 
  999800    302.42097   -25989.421     128.9087   -26118.329   -562.54328 
 1000000    296.80093   -26021.114    126.51313   -26147.627    3147.3366 
Loop time of 2388.53 on 8 procs for 1000000 steps with 144 atoms

Performance: 9.043 ns/day, 2.654 hours/ns, 418.667 timesteps/s
99.3% CPU use with 8 MPI tasks x no OpenMP threads

MPI task timing breakdown:
Section |  min time  |  avg time  |  max time  |%varavg| %total
---------------------------------------------------------------
Pair    | 1064       | 1292.8     | 1933.5     |1021.7 | 54.13
Neigh   | 0.19577    | 0.20945    | 0.24207    |   4.0 |  0.01
Comm    | 50.734     | 678.35     | 911.31     |1381.9 | 28.40
Output  | 0.1355     | 0.14593    | 0.21247    |   6.6 |  0.01
Modify  | 400.81     | 413.41     | 432.93     |  55.6 | 17.31
Other   |            | 3.579      |            |       |  0.15

Nlocal:    18 ave 72 max 0 min
Histogram: 6 0 0 0 0 0 0 0 0 2
Nghost:    389.625 ave 460 max 365 min
Histogram: 6 0 0 0 0 0 0 0 0 2
Neighs:    582.75 ave 2337 max 0 min
Histogram: 6 0 0 0 0 0 0 0 0 2

Total # of neighbors = 4662
Ave neighs/atom = 32.375
Neighbor list builds = 505
Dangerous builds = 0

unfix 1
unfix output
undump 1

Please see the log.cite file for references relevant to this simulation

Total wall time: 0:39:59
