ITEM: TIMESTEP
0
ITEM: NUMBER OF ATOMS
49
ITEM: BOX BOUNDS pp pp pp
0.0000000000000000e+00 1.1000000000000000e+01
0.0000000000000000e+00 1.1002000000000001e+01
0.0000000000000000e+00 1.1000000000000000e+01
ITEM: ATOMS id type x y z 
10 1 4.603 4.603 4.603 
11 1 3.085 3.085 3.085 
12 1 3.796 3.796 3.796 
46 1 0.726 0.725 0.725 
47 1 2.26 2.259 2.26 
48 1 1.551 1.55 1.55 
19 1 4.546 4.545 6.226 
20 1 3.013 3.013 7.764 
21 1 3.721 3.721 7.053 
31 1 0.668 0.667 10.103 
32 1 2.187 2.187 8.589 
33 1 1.476 1.475 9.298 
16 1 4.546 6.225 4.546 
17 1 3.013 7.765 3.013 
18 1 3.721 7.053 3.722 
25 1 0.668 10.103 0.668 
26 1 2.188 8.589 2.188 
27 1 1.476 9.298 1.476 
4 1 4.608 6.169 6.169 
5 1 3.086 7.684 7.684 
6 1 3.799 6.974 6.974 
37 1 0.729 10.046 10.046 
38 1 2.259 8.509 8.508 
39 1 1.552 9.219 9.219 
13 1 6.225 4.546 4.546 
14 1 7.764 3.013 3.013 
15 1 7.053 3.721 3.722 
28 1 10.102 0.667 0.668 
29 1 8.589 2.187 2.188 
30 1 9.298 1.475 1.476 
1 1 6.168 4.608 6.169 
2 1 7.684 3.086 7.684 
3 1 6.974 3.799 6.974 
40 1 10.045 0.728 10.046 
41 1 8.508 2.259 8.508 
42 1 9.218 1.551 9.218 
7 1 6.169 6.169 4.608 
8 1 7.684 7.684 3.086 
9 1 6.974 6.974 3.799 
43 1 10.046 10.047 0.729 
44 1 8.508 8.509 2.259 
45 1 9.219 9.219 1.552 
22 1 6.229 6.229 6.229 
23 1 7.764 7.765 7.765 
24 1 7.055 7.056 7.055 
34 1 10.108 10.108 10.107 
35 1 8.59 8.59 8.59 
36 1 9.301 9.301 9.3 
49 2 5.851 6.075 7.516 
ITEM: TIMESTEP
10
ITEM: NUMBER OF ATOMS
49
ITEM: BOX BOUNDS pp pp pp
0.0000000000000000e+00 1.1000000000000000e+01
0.0000000000000000e+00 1.1002000000000001e+01
0.0000000000000000e+00 1.1000000000000000e+01
ITEM: ATOMS id type x y z 
10 1 4.58293 4.57205 4.59972 
11 1 3.08204 3.08352 3.08008 
12 1 3.78677 3.78333 3.79105 
46 1 0.737464 0.736728 0.736043 
47 1 2.27208 2.27136 2.27218 
48 1 1.56514 1.56397 1.56354 
19 1 4.53485 4.53913 6.23671 
20 1 2.99815 2.99796 7.77778 
21 1 3.70276 3.70237 7.07381 
31 1 0.672227 0.671122 10.0926 
32 1 2.18751 2.18735 8.58922 
33 1 1.48056 1.48018 9.29141 
16 1 4.51207 6.2489 4.5451 
17 1 2.99329 7.78419 2.9903 
18 1 3.69095 7.08354 3.6966 
25 1 0.676167 10.0945 0.671526 
26 1 2.18523 8.59169 2.18658 
27 1 1.47891 9.29533 1.4762 
4 1 4.5207 6.16912 6.12014 
5 1 3.0937 7.67819 7.67588 
6 1 3.76369 6.96986 6.93875 
37 1 0.742085 10.0352 10.0339 
38 1 2.2689 8.49918 8.49929 
39 1 1.57294 9.19963 9.19841 
13 1 6.24628 4.51447 4.54354 
14 1 7.77905 2.99794 2.99487 
15 1 7.07537 3.69829 3.70526 
28 1 10.0926 0.675739 0.671294 
29 1 8.59102 2.18492 2.18611 
30 1 9.2922 1.48103 1.48106 
1 1 6.17405 4.56093 6.1423 
2 1 7.68103 3.09296 7.68154 
3 1 6.96942 3.78504 6.95778 
40 1 10.0351 0.740178 10.0346 
41 1 8.49456 2.27255 8.49466 
42 1 9.20206 1.56831 9.20197 
7 1 6.2058 6.19483 4.59418 
8 1 7.69236 7.69393 3.07419 
9 1 6.99038 6.98653 3.78995 
43 1 10.0343 10.0355 0.741566 
44 1 8.4959 8.49683 2.27067 
45 1 9.20886 9.20945 1.5624 
22 1 6.21634 6.19676 6.19387 
23 1 7.8133 7.80834 7.77266 
24 1 7.06003 7.07256 7.12904 
34 1 10.0977 10.0997 10.0936 
35 1 8.58864 8.58825 8.5887 
36 1 9.30302 9.29931 9.29759 
49 2 5.96249 6.13316 7.7318 
ITEM: TIMESTEP
20
ITEM: NUMBER OF ATOMS
49
ITEM: BOX BOUNDS pp pp pp
0.0000000000000000e+00 1.1000000000000000e+01
0.0000000000000000e+00 1.1002000000000001e+01
0.0000000000000000e+00 1.1000000000000000e+01
ITEM: ATOMS id type x y z 
10 1 4.5852 4.58048 4.59329 
11 1 3.07884 3.07951 3.07786 
12 1 3.78548 3.78027 3.78885 
46 1 0.736571 0.739366 0.734199 
47 1 2.26852 2.26754 2.26743 
48 1 1.56216 1.56355 1.56129 
19 1 4.50246 4.5119 6.23371 
20 1 2.98735 2.98385 7.79724 
21 1 3.68611 3.69164 7.07679 
31 1 0.662785 0.662172 10.0962 
32 1 2.17695 2.17655 8.60083 
33 1 1.46586 1.46547 9.30289 
16 1 4.50534 6.23463 4.5046 
17 1 2.99449 7.7907 2.9852 
18 1 3.68171 7.07773 3.69828 
25 1 0.671664 10.1065 0.654339 
26 1 2.17115 8.60367 2.17353 
27 1 1.47065 9.30769 1.46229 
4 1 4.44238 6.14506 6.08305 
5 1 3.06457 7.69254 7.66665 
6 1 3.7143 6.96248 6.91889 
37 1 0.757331 10.0334 10.0264 
38 1 2.27814 8.49305 8.49231 
39 1 1.57583 9.20463 9.20221 
13 1 6.23045 4.50501 4.53031 
14 1 7.78986 2.99599 2.9881 
15 1 7.07331 3.68165 3.70132 
28 1 10.1004 0.676596 0.658751 
29 1 8.5969 2.17837 2.18002 
30 1 9.30111 1.4744 1.46876 
1 1 6.1617 4.47816 6.11734 
2 1 7.6886 3.08581 7.68364 
3 1 6.96885 3.74966 6.94561 
40 1 10.0311 0.757992 10.0288 
41 1 8.49316 2.27508 8.49382 
42 1 9.2033 1.57364 9.20398 
7 1 6.19235 6.18495 4.55032 
8 1 7.71568 7.7172 3.06084 
9 1 7.0058 6.99979 3.75963 
43 1 10.0354 10.0398 0.749774 
44 1 8.50738 8.50762 2.25787 
45 1 9.21557 9.2194 1.55726 
22 1 6.12306 6.14641 6.22682 
23 1 7.929 7.91255 7.7197 
24 1 7.04548 7.08228 7.37181 
34 1 10.1119 10.1127 10.0992 
35 1 8.61939 8.61413 8.60371 
36 1 9.32998 9.32829 9.31578 
49 2 6.1075 6.17413 7.80043 
ITEM: TIMESTEP
30
ITEM: NUMBER OF ATOMS
49
ITEM: BOX BOUNDS pp pp pp
0.0000000000000000e+00 1.1000000000000000e+01
0.0000000000000000e+00 1.1002000000000001e+01
0.0000000000000000e+00 1.1000000000000000e+01
ITEM: ATOMS id type x y z 
10 1 4.58613 4.58211 4.59599 
11 1 3.08031 3.07882 3.07852 
12 1 3.78619 3.784 3.79099 
46 1 0.738694 0.742263 0.735877 
47 1 2.27171 2.27088 2.27078 
48 1 1.5638 1.56532 1.56208 
19 1 4.49101 4.49608 6.22558 
20 1 2.98495 2.98393 7.80283 
21 1 3.68086 3.68238 7.07416 
31 1 0.666035 0.668224 10.0952 
32 1 2.17828 2.17817 8.5993 
33 1 1.46811 1.46645 9.30262 
16 1 4.52256 6.22766 4.486 
17 1 2.98399 7.79793 2.98324 
18 1 3.68316 7.07759 3.6842 
25 1 0.679081 10.1068 0.660788 
26 1 2.17685 8.60085 2.17787 
27 1 1.47199 9.30494 1.46309 
4 1 4.45519 6.13285 6.08123 
5 1 3.06191 7.68857 7.65779 
6 1 3.71043 6.95761 6.91617 
37 1 0.762706 10.0334 10.0264 
38 1 2.27818 8.49449 8.49303 
39 1 1.57788 9.20586 9.20202 
13 1 6.23212 4.51609 4.5074 
14 1 7.79179 2.98928 2.98881 
15 1 7.07338 3.68631 3.69337 
28 1 10.1 0.6823 0.66311 
29 1 8.59549 2.17974 2.18188 
30 1 9.3019 1.47694 1.46756 
1 1 6.13765 4.49523 6.10851 
2 1 7.69036 3.08599 7.6825 
3 1 6.96277 3.73643 6.93991 
40 1 10.0317 0.76233 10.0298 
41 1 8.49246 2.27752 8.49318 
42 1 9.20351 1.57608 9.20347 
7 1 6.18018 6.17472 4.57175 
8 1 7.70037 7.69957 3.07672 
9 1 6.98841 6.98529 3.77714 
43 1 10.0404 10.0464 0.748821 
44 1 8.50493 8.50585 2.25979 
45 1 9.21518 9.21828 1.56047 
22 1 6.14178 6.16866 6.23183 
23 1 7.92971 7.9172 7.68068 
24 1 7.05401 7.08591 7.37293 
34 1 10.1189 10.1229 10.1077 
35 1 8.63419 8.62805 8.6056 
36 1 9.34068 9.33655 9.32331 
49 2 6.08116 6.14515 7.83002 
ITEM: TIMESTEP
40
ITEM: NUMBER OF ATOMS
49
ITEM: BOX BOUNDS pp pp pp
0.0000000000000000e+00 1.1000000000000000e+01
0.0000000000000000e+00 1.1002000000000001e+01
0.0000000000000000e+00 1.1000000000000000e+01
ITEM: ATOMS id type x y z 
10 1 4.58394 4.57971 4.58596 
11 1 3.07907 3.07783 3.07983 
12 1 3.78922 3.78534 3.78843 
46 1 0.742975 0.747245 0.738385 
47 1 2.27372 2.27414 2.27295 
48 1 1.56675 1.56622 1.56349 
19 1 4.49019 4.4934 6.21343 
20 1 2.98345 2.98298 7.80475 
21 1 3.67824 3.67837 7.07239 
31 1 0.665233 0.665263 10.0983 
32 1 2.17493 2.17459 8.6045 
33 1 1.46443 1.46325 9.30697 
16 1 4.52727 6.2317 4.47939 
17 1 2.97858 7.79593 2.98989 
18 1 3.69542 7.07372 3.67112 
25 1 0.675733 10.108 0.658676 
26 1 2.17499 8.60375 2.17382 
27 1 1.46963 9.31085 1.46307 
4 1 4.46699 6.12556 6.07937 
5 1 3.05431 7.67508 7.64077 
6 1 3.71625 6.95112 6.90642 
37 1 0.765922 10.0391 10.0322 
38 1 2.28076 8.49234 8.48814 
39 1 1.58567 9.20595 9.19986 
13 1 6.23664 4.52619 4.50396 
14 1 7.79128 2.98148 2.99167 
15 1 7.07542 3.69538 3.68137 
28 1 10.1032 0.678628 0.662814 
29 1 8.59873 2.17871 2.17973 
30 1 9.3041 1.4749 1.46592 
1 1 6.12774 4.49291 6.10147 
2 1 7.67329 3.08186 7.65898 
3 1 6.95066 3.75356 6.93247 
40 1 10.0353 0.76747 10.0328 
41 1 8.49098 2.28154 8.49044 
42 1 9.20205 1.58395 9.20101 
7 1 6.1738 6.17084 4.59533 
8 1 7.68956 7.68737 3.08587 
9 1 6.97837 6.97655 3.79299 
43 1 10.0419 10.0474 0.757473 
44 1 8.49625 8.49708 2.26823 
45 1 9.20765 9.211 1.5731 
22 1 6.14558 6.17401 6.25701 
23 1 7.93509 7.92893 7.66192 
24 1 7.05722 7.08295 7.40769 
34 1 10.1304 10.1315 10.1291 
35 1 8.64223 8.63246 8.58199 
36 1 9.34205 9.33897 9.3074 
49 2 6.08978 6.14894 7.83918 
ITEM: TIMESTEP
50
ITEM: NUMBER OF ATOMS
49
ITEM: BOX BOUNDS pp pp pp
0.0000000000000000e+00 1.1000000000000000e+01
0.0000000000000000e+00 1.1002000000000001e+01
0.0000000000000000e+00 1.1000000000000000e+01
ITEM: ATOMS id type x y z 
10 1 4.58863 4.5833 4.58368 
11 1 3.07865 3.07699 3.0805 
12 1 3.7901 3.78598 3.78554 
46 1 0.742679 0.745562 0.739643 
47 1 2.27439 2.27254 2.27225 
48 1 1.56443 1.56839 1.56343 
19 1 4.48517 4.48932 6.20914 
20 1 2.98483 2.98359 7.80443 
21 1 3.67648 3.6778 7.06922 
31 1 0.661449 0.662368 10.0991 
32 1 2.17603 2.17532 8.60507 
33 1 1.46468 1.46442 9.30626 
16 1 4.5311 6.2302 4.47674 
17 1 2.97879 7.79625 2.98624 
18 1 3.69321 7.0754 3.67089 
25 1 0.671795 10.1087 0.657979 
26 1 2.17556 8.60469 2.17522 
27 1 1.46885 9.30891 1.46317 
4 1 4.47136 6.12399 6.07825 
5 1 3.04737 7.67379 7.63559 
6 1 3.71376 6.94889 6.90637 
37 1 0.766998 10.0363 10.0321 
38 1 2.28123 8.49395 8.48732 
39 1 1.58458 9.20494 9.19904 
13 1 6.23777 4.53001 4.49785 
14 1 7.79029 2.98299 2.98979 
15 1 7.07576 3.69466 3.68329 
28 1 10.1024 0.674877 0.658441 
29 1 8.59831 2.17894 2.17744 
30 1 9.30711 1.47228 1.46983 
1 1 6.1239 4.50492 6.10209 
2 1 7.6764 3.081 7.66262 
3 1 6.94737 3.73429 6.92464 
40 1 10.0324 0.767086 10.0329 
41 1 8.49056 2.28409 8.48862 
42 1 9.20102 1.5855 9.19994 
7 1 6.17394 6.17184 4.60386 
8 1 7.68636 7.68374 3.08837 
9 1 6.97782 6.97664 3.79839 
43 1 10.0392 10.0452 0.759858 
44 1 8.49556 8.49657 2.26946 
45 1 9.20719 9.21007 1.57529 
22 1 6.14437 6.17257 6.26384 
23 1 7.94022 7.93464 7.65409 
24 1 7.06103 7.08526 7.41686 
34 1 10.127 10.1293 10.1299 
35 1 8.6549 8.64611 8.57506 
36 1 9.35201 9.34729 9.31059 
49 2 6.08798 6.14457 7.85194 
ITEM: TIMESTEP
60
ITEM: NUMBER OF ATOMS
49
ITEM: BOX BOUNDS pp pp pp
0.0000000000000000e+00 1.1000000000000000e+01
0.0000000000000000e+00 1.1002000000000001e+01
0.0000000000000000e+00 1.1000000000000000e+01
ITEM: ATOMS id type x y z 
10 1 4.58949 4.58377 4.58143 
11 1 3.07922 3.07719 3.08011 
12 1 3.78961 3.78582 3.78596 
46 1 0.741709 0.74585 0.739172 
47 1 2.27348 2.27306 2.272 
48 1 1.56547 1.56689 1.56336 
19 1 4.48475 4.48913 6.20754 
20 1 2.98493 2.98371 7.80421 
21 1 3.67606 3.67726 7.0688 
31 1 0.660621 0.662039 10.0985 
32 1 2.1759 2.17506 8.60565 
33 1 1.4643 1.46436 9.30672 
16 1 4.53158 6.23071 4.47646 
17 1 2.97919 7.79575 2.98557 
18 1 3.69339 7.07577 3.67126 
25 1 0.671346 10.1077 0.657929 
26 1 2.17474 8.60447 2.17517 
27 1 1.46946 9.31024 1.4631 
4 1 4.47214 6.12399 6.07875 
5 1 3.0455 7.67314 7.63391 
6 1 3.71309 6.94812 6.90583 
37 1 0.767138 10.0365 10.0324 
38 1 2.28153 8.49416 8.48674 
39 1 1.58396 9.20458 9.19883 
13 1 6.23829 4.53092 4.49792 
14 1 7.7903 2.98278 2.98918 
15 1 7.07634 3.69494 3.6831 
28 1 10.1028 0.674835 0.659442 
29 1 8.59987 2.17826 2.17887 
30 1 9.30499 1.47257 1.46664 
1 1 6.1229 4.50325 6.1016 
2 1 7.67423 3.0781 7.66002 
3 1 6.94787 3.737 6.92506 
40 1 10.0324 0.766962 10.0329 
41 1 8.49136 2.28425 8.48892 
42 1 9.20118 1.58518 9.20023 
7 1 6.1742 6.17298 4.60677 
8 1 7.68572 7.68344 3.08928 
9 1 6.97782 6.97608 3.79939 
43 1 10.0387 10.0445 0.761065 
44 1 8.49472 8.49554 2.27118 
45 1 9.20596 9.20907 1.57569 
22 1 6.14349 6.17152 6.26718 
23 1 7.94157 7.9361 7.65376 
24 1 7.06201 7.08585 7.42026 
34 1 10.1279 10.13 10.1309 
35 1 8.65778 8.64851 8.57081 
36 1 9.3526 9.34908 9.30878 
49 2 6.08943 6.14497 7.8537 
ITEM: TIMESTEP
70
ITEM: NUMBER OF ATOMS
49
ITEM: BOX BOUNDS pp pp pp
0.0000000000000000e+00 1.1000000000000000e+01
0.0000000000000000e+00 1.1002000000000001e+01
0.0000000000000000e+00 1.1000000000000000e+01
ITEM: ATOMS id type x y z 
10 1 4.59168 4.58562 4.57584 
11 1 3.07928 3.07666 3.08009 
12 1 3.79042 3.78666 3.78363 
46 1 0.740616 0.744326 0.738285 
47 1 2.27251 2.27207 2.27094 
48 1 1.56442 1.56609 1.56275 
19 1 4.48264 4.48778 6.20194 
20 1 2.98526 2.98379 7.80383 
21 1 3.67484 3.6763 7.06608 
31 1 0.659705 0.662111 10.0994 
32 1 2.17656 2.17634 8.60946 
33 1 1.46242 1.46153 9.30348 
16 1 4.53359 6.23269 4.47732 
17 1 2.97986 7.79473 2.98435 
18 1 3.69544 7.07597 3.67017 
25 1 0.668889 10.1068 0.658086 
26 1 2.17392 8.60527 2.17554 
27 1 1.46877 9.31065 1.46309 
4 1 4.47601 6.12315 6.08105 
5 1 3.03992 7.67075 7.62945 
6 1 3.70818 6.94616 6.90166 
37 1 0.767176 10.0358 10.0331 
38 1 2.28062 8.4945 8.48462 
39 1 1.5844 9.20439 9.19856 
13 1 6.24073 4.53436 4.49755 
14 1 7.79013 2.98273 2.98789 
15 1 7.07771 3.69607 3.68222 
28 1 10.1005 0.674197 0.6583 
29 1 8.60044 2.17851 2.17699 
30 1 9.30613 1.46918 1.46895 
1 1 6.12029 4.49892 6.09992 
2 1 7.66919 3.06776 7.65142 
3 1 6.94767 3.74416 6.92804 
40 1 10.0314 0.766851 10.0332 
41 1 8.4921 2.28542 8.48834 
42 1 9.20091 1.58623 9.19971 
7 1 6.1745 6.17499 4.61601 
8 1 7.68339 7.68049 3.09094 
9 1 6.97739 6.9772 3.80712 
43 1 10.0372 10.0426 0.764767 
44 1 8.49302 8.49355 2.27505 
45 1 9.2034 9.20663 1.57701 
22 1 6.14022 6.16747 6.27775 
23 1 7.94548 7.94042 7.65102 
24 1 7.06553 7.08791 7.43092 
34 1 10.1294 10.1308 10.1352 
35 1 8.6684 8.65926 8.55588 
36 1 9.35734 9.35453 9.30437 
49 2 6.09343 6.14552 7.86075 
ITEM: TIMESTEP
80
ITEM: NUMBER OF ATOMS
49
ITEM: BOX BOUNDS pp pp pp
0.0000000000000000e+00 1.1000000000000000e+01
0.0000000000000000e+00 1.1002000000000001e+01
0.0000000000000000e+00 1.1000000000000000e+01
ITEM: ATOMS id type x y z 
10 1 4.59323 4.58693 4.57404 
11 1 3.0789 3.07633 3.07971 
12 1 3.79083 3.78652 3.78224 
46 1 0.740069 0.743945 0.738125 
47 1 2.27226 2.27181 2.27076 
48 1 1.56399 1.56573 1.56245 
19 1 4.48127 4.48645 6.19936 
20 1 2.98545 2.98398 7.80351 
21 1 3.67446 3.67604 7.06479 
31 1 0.658173 0.660376 10.0975 
32 1 2.17645 2.17543 8.60776 
33 1 1.46373 1.46427 9.30698 
16 1 4.53507 6.23325 4.47734 
17 1 2.98068 7.79412 2.98349 
18 1 3.6956 7.07633 3.67047 
25 1 0.66832 10.1067 0.658407 
26 1 2.17441 8.60563 2.17578 
27 1 1.46775 9.30984 1.46372 
4 1 4.47559 6.1219 6.08105 
5 1 3.03659 7.66969 7.62755 
6 1 3.70737 6.94619 6.90097 
37 1 0.767905 10.0355 10.0336 
38 1 2.28053 8.49456 8.48404 
39 1 1.58379 9.20426 9.19767 
13 1 6.24161 4.53579 4.49736 
14 1 7.7897 2.98321 2.98785 
15 1 7.07787 3.69714 3.68203 
28 1 10.1009 0.671817 0.659371 
29 1 8.60087 2.17747 2.17888 
30 1 9.30475 1.47113 1.46619 
1 1 6.12001 4.50086 6.10058 
2 1 7.66971 3.06759 7.6511 
3 1 6.94472 3.73782 6.92522 
40 1 10.031 0.767216 10.0335 
41 1 8.49209 2.28571 8.48764 
42 1 9.20079 1.5864 9.19957 
7 1 6.1747 6.17588 4.62011 
8 1 7.68275 7.68032 3.09313 
9 1 6.97678 6.97598 3.80803 
43 1 10.036 10.0417 0.765385 
44 1 8.49196 8.49253 2.27527 
45 1 9.20322 9.20611 1.5798 
22 1 6.14022 6.16671 6.28188 
23 1 7.94704 7.94202 7.64919 
24 1 7.06673 7.08849 7.43486 
34 1 10.1289 10.1308 10.1374 
35 1 8.67252 8.66419 8.55063 
36 1 9.36115 9.35756 9.30094 
49 2 6.09457 6.14571 7.86478 
ITEM: TIMESTEP
90
ITEM: NUMBER OF ATOMS
49
ITEM: BOX BOUNDS pp pp pp
0.0000000000000000e+00 1.1000000000000000e+01
0.0000000000000000e+00 1.1002000000000001e+01
0.0000000000000000e+00 1.1000000000000000e+01
ITEM: ATOMS id type x y z 
10 1 4.60342 4.59492 4.5497 
11 1 3.07614 3.07457 3.07521 
12 1 3.79759 3.78582 3.76615 
46 1 0.733599 0.740302 0.736014 
47 1 2.26708 2.2672 2.26727 
48 1 1.55985 1.56114 1.55941 
19 1 4.47039 4.47485 6.17207 
20 1 2.98646 2.98496 7.8014 
21 1 3.66711 3.66927 7.04765 
31 1 0.655549 0.658537 10.0933 
32 1 2.18081 2.17921 8.61209 
33 1 1.46508 1.4667 9.30674 
16 1 4.54692 6.24253 4.48317 
17 1 2.98686 7.78808 2.97795 
18 1 3.70711 7.07979 3.66863 
25 1 0.659464 10.1015 0.662895 
26 1 2.17486 8.60604 2.17994 
27 1 1.46507 9.30593 1.46727 
4 1 4.47595 6.1136 6.08592 
5 1 3.00635 7.66462 7.60646 
6 1 3.69166 6.93649 6.89837 
37 1 0.7694 10.0358 10.0397 
38 1 2.26998 8.49593 8.47465 
39 1 1.58127 9.20409 9.19569 
13 1 6.25129 4.55197 4.50047 
14 1 7.78603 2.98908 2.98547 
15 1 7.08207 3.70759 3.68174 
28 1 10.095 0.663588 0.661342 
29 1 8.60084 2.17878 2.18105 
30 1 9.29959 1.46708 1.46883 
1 1 6.10851 4.50113 6.10711 
2 1 7.66104 3.04556 7.63819 
3 1 6.93506 3.71213 6.9093 
40 1 10.0285 0.76973 10.0382 
41 1 8.49299 2.2839 8.48163 
42 1 9.20064 1.58756 9.1986 
7 1 6.17988 6.1816 4.66225 
8 1 7.6746 7.67348 3.1095 
9 1 6.9751 6.97556 3.8364 
43 1 10.0295 10.0359 0.77705 
44 1 8.484 8.48364 2.28722 
45 1 9.19606 9.19755 1.59243 
22 1 6.13188 6.15406 6.3259 
23 1 7.96014 7.95591 7.63447 
24 1 7.07997 7.09492 7.46733 
34 1 10.1334 10.133 10.1535 
35 1 8.72322 8.71788 8.47646 
36 1 9.38749 9.38626 9.26986 
49 2 6.10825 6.1462 7.89999 
ITEM: TIMESTEP
100
ITEM: NUMBER OF ATOMS
49
ITEM: BOX BOUNDS pp pp pp
0.0000000000000000e+00 1.1000000000000000e+01
0.0000000000000000e+00 1.1002000000000001e+01
0.0000000000000000e+00 1.1000000000000000e+01
ITEM: ATOMS id type x y z 
10 1 4.6045 4.59472 4.54824 
11 1 3.07765 3.07333 3.07393 
12 1 3.79482 3.78791 3.7664 
46 1 0.733519 0.739552 0.735743 
47 1 2.26758 2.26722 2.26747 
48 1 1.55896 1.5613 1.55961 
19 1 4.46904 4.47425 6.17064 
20 1 2.986 2.98471 7.79972 
21 1 3.66832 3.67006 7.04871 
31 1 0.655355 0.659471 10.0935 
32 1 2.18055 2.17912 8.61251 
33 1 1.46507 1.46644 9.30721 
16 1 4.5479 6.24305 4.48419 
17 1 2.98827 7.78852 2.97782 
18 1 3.70645 7.07847 3.66924 
25 1 0.65938 10.1011 0.663532 
26 1 2.17517 8.60538 2.17935 
27 1 1.46448 9.30663 1.46871 
4 1 4.47515 6.1128 6.08765 
5 1 3.00604 7.66272 7.60721 
6 1 3.69173 6.93816 6.89549 
37 1 0.769982 10.0356 10.0403 
38 1 2.26984 8.49565 8.47431 
39 1 1.57968 9.20447 9.19517 
13 1 6.25203 4.55195 4.50075 
14 1 7.78674 2.98957 2.98532 
15 1 7.08149 3.70749 3.68156 
28 1 10.0941 0.66305 0.661948 
29 1 8.60011 2.17829 2.18107 
30 1 9.30038 1.46806 1.46904 
1 1 6.10829 4.49938 6.10637 
2 1 7.66061 3.0434 7.63665 
3 1 6.93489 3.71398 6.91171 
40 1 10.029 0.76969 10.0386 
41 1 8.49383 2.28326 8.48222 
42 1 9.20041 1.5866 9.19857 
7 1 6.17967 6.18289 4.6631 
8 1 7.67478 7.67366 3.11019 
9 1 6.97553 6.97602 3.83747 
43 1 10.0295 10.0354 0.776978 
44 1 8.48453 8.48375 2.28727 
45 1 9.19541 9.19777 1.59231 
22 1 6.13141 6.15372 6.32764 
23 1 7.9602 7.95615 7.63457 
24 1 7.0795 7.09431 7.4678 
34 1 10.1317 10.1329 10.1535 
35 1 8.72476 8.71982 8.47389 
36 1 9.38942 9.38727 9.26712 
49 2 6.10921 6.14693 7.89972 
ITEM: TIMESTEP
110
ITEM: NUMBER OF ATOMS
49
ITEM: BOX BOUNDS pp pp pp
0.0000000000000000e+00 1.1000000000000000e+01
0.0000000000000000e+00 1.1002000000000001e+01
0.0000000000000000e+00 1.1000000000000000e+01
ITEM: ATOMS id type x y z 
10 1 4.60446 4.59478 4.54794 
11 1 3.07772 3.07333 3.07375 
12 1 3.79483 3.78799 3.76622 
46 1 0.733519 0.73944 0.735735 
47 1 2.26765 2.26721 2.26745 
48 1 1.55877 1.56127 1.55971 
19 1 4.4688 4.47408 6.1702 
20 1 2.98586 2.98456 7.79927 
21 1 3.6686 3.67033 7.04903 
31 1 0.655404 0.659499 10.0935 
32 1 2.18057 2.17915 8.6126 
33 1 1.46505 1.46644 9.30722 
16 1 4.54813 6.24316 4.48431 
17 1 2.98861 7.78859 2.97763 
18 1 3.70621 7.07838 3.66952 
25 1 0.659276 10.101 0.663725 
26 1 2.17517 8.60529 2.17943 
27 1 1.46454 9.30657 1.46872 
4 1 4.47497 6.11283 6.0878 
5 1 3.00578 7.66266 7.60697 
6 1 3.69182 6.93797 6.89574 
37 1 0.769976 10.0356 10.0404 
38 1 2.26953 8.49575 8.4743 
39 1 1.57946 9.20444 9.19506 
13 1 6.25211 4.55195 4.50085 
14 1 7.78677 2.98972 2.98522 
15 1 7.08154 3.70759 3.68171 
28 1 10.0939 0.663063 0.662126 
29 1 8.60006 2.17837 2.18103 
30 1 9.3003 1.46793 1.46919 
1 1 6.10819 4.49898 6.10613 
2 1 7.66053 3.04278 7.63622 
3 1 6.93478 3.7145 6.91236 
40 1 10.0291 0.76961 10.0387 
41 1 8.49384 2.28312 8.4822 
42 1 9.2005 1.5864 9.19864 
7 1 6.17994 6.18317 4.66369 
8 1 7.67506 7.67376 3.11062 
9 1 6.97527 6.97612 3.83739 
43 1 10.0294 10.0353 0.776903 
44 1 8.48452 8.48381 2.28731 
45 1 9.19545 9.19769 1.59231 
22 1 6.13116 6.15344 6.32795 
23 1 7.96022 7.95622 7.63462 
24 1 7.07958 7.09435 7.46783 
34 1 10.1317 10.1329 10.1534 
35 1 8.72539 8.72043 8.47283 
36 1 9.38963 9.38747 9.26667 
49 2 6.1093 6.14695 7.89983 
ITEM: TIMESTEP
120
ITEM: NUMBER OF ATOMS
49
ITEM: BOX BOUNDS pp pp pp
0.0000000000000000e+00 1.1000000000000000e+01
0.0000000000000000e+00 1.1002000000000001e+01
0.0000000000000000e+00 1.1000000000000000e+01
ITEM: ATOMS id type x y z 
10 1 4.60442 4.59481 4.54783 
11 1 3.07773 3.07333 3.07369 
12 1 3.79487 3.78802 3.76611 
46 1 0.733488 0.739399 0.735762 
47 1 2.26764 2.2672 2.26746 
48 1 1.55876 1.56126 1.5597 
19 1 4.46873 4.47404 6.17008 
20 1 2.98584 2.98454 7.79915 
21 1 3.66865 3.67038 7.04905 
31 1 0.655379 0.659534 10.0936 
32 1 2.18053 2.17919 8.61262 
33 1 1.46514 1.46639 9.30725 
16 1 4.54822 6.24319 4.48435 
17 1 2.98876 7.7886 2.97756 
18 1 3.70612 7.07836 3.66964 
25 1 0.659291 10.101 0.66377 
26 1 2.17522 8.60527 2.17942 
27 1 1.46448 9.30652 1.4688 
4 1 4.47488 6.11282 6.08785 
5 1 3.00566 7.66262 7.60689 
6 1 3.69187 6.93793 6.89583 
37 1 0.769969 10.0357 10.0405 
38 1 2.26942 8.49576 8.47425 
39 1 1.57937 9.20444 9.19506 
13 1 6.25215 4.55195 4.50091 
14 1 7.78679 2.98977 2.98521 
15 1 7.08155 3.70764 3.68172 
28 1 10.0939 0.66301 0.662248 
29 1 8.60003 2.17832 2.18109 
30 1 9.30029 1.46802 1.46913 
1 1 6.10815 4.49881 6.10605 
2 1 7.6605 3.04254 7.63605 
3 1 6.93474 3.71471 6.91263 
40 1 10.0291 0.769564 10.0387 
41 1 8.49385 2.28304 8.48219 
42 1 9.20053 1.58636 9.19868 
7 1 6.17996 6.18327 4.66382 
8 1 7.67508 7.67379 3.11069 
9 1 6.97534 6.97618 3.83755 
43 1 10.0294 10.0352 0.776884 
44 1 8.48454 8.48381 2.28734 
45 1 9.19541 9.19769 1.59231 
22 1 6.13107 6.15333 6.32807 
23 1 7.96023 7.95625 7.63463 
24 1 7.07961 7.09436 7.46785 
34 1 10.1317 10.1329 10.1533 
35 1 8.72565 8.72063 8.47243 
36 1 9.38973 9.38763 9.26643 
49 2 6.10933 6.14696 7.89989 
ITEM: TIMESTEP
130
ITEM: NUMBER OF ATOMS
49
ITEM: BOX BOUNDS pp pp pp
0.0000000000000000e+00 1.1000000000000000e+01
0.0000000000000000e+00 1.1002000000000001e+01
0.0000000000000000e+00 1.1000000000000000e+01
ITEM: ATOMS id type x y z 
10 1 4.60437 4.59629 4.54379 
11 1 3.07849 3.07344 3.07109 
12 1 3.79543 3.78889 3.76308 
46 1 0.732471 0.73823 0.736745 
47 1 2.2672 2.26674 2.26739 
48 1 1.55815 1.56049 1.56007 
19 1 4.46705 4.47311 6.16704 
20 1 2.98576 2.98423 7.79726 
21 1 3.66769 3.66976 7.04618 
31 1 0.655898 0.6598 10.0946 
32 1 2.18095 2.17991 8.61333 
33 1 1.46568 1.46662 9.30754 
16 1 4.54979 6.24424 4.48689 
17 1 2.9921 7.78862 2.97645 
18 1 3.7063 7.07818 3.67153 
25 1 0.658398 10.1 0.66601 
26 1 2.176 8.60418 2.17984 
27 1 1.46436 9.30543 1.47012 
4 1 4.47308 6.11225 6.0906 
5 1 3.00245 7.66169 7.6058 
6 1 3.6904 6.93672 6.89676 
37 1 0.76952 10.0357 10.042 
38 1 2.26509 8.49586 8.47221 
39 1 1.57718 9.20467 9.19499 
13 1 6.2533 4.55228 4.50253 
14 1 7.78717 2.99212 2.98478 
15 1 7.08203 3.70925 3.68251 
28 1 10.0922 0.662019 0.664919 
29 1 8.59884 2.17876 2.18137 
30 1 9.29952 1.46786 1.47029 
1 1 6.10713 4.49406 6.10533 
2 1 7.65931 3.03593 7.63209 
3 1 6.93346 3.71783 6.91803 
40 1 10.0297 0.768801 10.0401 
41 1 8.4941 2.28031 8.4818 
42 1 9.20092 1.58461 9.19906 
7 1 6.18099 6.18585 4.66855 
8 1 7.67624 7.67448 3.11325 
9 1 6.97726 6.97935 3.84334 
43 1 10.0284 10.0338 0.776093 
44 1 8.48449 8.48389 2.28828 
45 1 9.19507 9.19716 1.59241 
22 1 6.12826 6.1501 6.33238 
23 1 7.96055 7.9573 7.63468 
24 1 7.08065 7.0948 7.4687 
34 1 10.1308 10.1324 10.152 
35 1 8.73443 8.72895 8.45716 
36 1 9.39387 9.39177 9.25841 
49 2 6.11047 6.14725 7.90256 
ITEM: TIMESTEP
140
ITEM: NUMBER OF ATOMS
49
ITEM: BOX BOUNDS pp pp pp
0.0000000000000000e+00 1.1000000000000000e+01
0.0000000000000000e+00 1.1002000000000001e+01
0.0000000000000000e+00 1.1000000000000000e+01
ITEM: ATOMS id type x y z 
10 1 4.60475 4.5965 4.54349 
11 1 3.0786 3.07352 3.07076 
12 1 3.79557 3.789 3.76263 
46 1 0.732386 0.738163 0.736972 
47 1 2.2672 2.26669 2.26735 
48 1 1.55799 1.56039 1.5602 
19 1 4.46674 4.47278 6.16643 
20 1 2.98554 2.98406 7.79699 
21 1 3.66766 3.66962 7.04604 
31 1 0.655925 0.659661 10.0945 
32 1 2.18104 2.17988 8.61321 
33 1 1.46582 1.46697 9.30787 
16 1 4.54938 6.24424 4.48737 
17 1 2.99172 7.78836 2.97683 
18 1 3.70784 7.07869 3.6708 
25 1 0.658288 10.0997 0.666178 
26 1 2.17607 8.60403 2.17994 
27 1 1.46446 9.30532 1.47019 
4 1 4.47291 6.11189 6.09091 
5 1 3.00194 7.66176 7.60597 
6 1 3.68977 6.9367 6.89687 
37 1 0.769658 10.0358 10.0423 
38 1 2.26467 8.49588 8.47202 
39 1 1.57663 9.20458 9.19472 
13 1 6.25326 4.5526 4.5028 
14 1 7.7871 2.99249 2.98488 
15 1 7.08209 3.70964 3.68257 
28 1 10.0922 0.661959 0.664964 
29 1 8.59879 2.17905 2.18147 
30 1 9.29902 1.46761 1.4705 
1 1 6.10702 4.49364 6.10558 
2 1 7.65924 3.03549 7.63207 
3 1 6.93329 3.71733 6.91803 
40 1 10.0297 0.768808 10.0404 
41 1 8.49402 2.27982 8.48161 
42 1 9.20094 1.58453 9.19905 
7 1 6.18142 6.1863 4.66978 
8 1 7.67662 7.67525 3.11459 
9 1 6.97697 6.97843 3.84252 
43 1 10.0282 10.0336 0.776074 
44 1 8.48439 8.48375 2.28854 
45 1 9.19494 9.19706 1.59245 
22 1 6.12823 6.14993 6.33291 
23 1 7.96059 7.95738 7.63438 
24 1 7.08066 7.09476 7.46897 
34 1 10.1308 10.1324 10.152 
35 1 8.73553 8.73001 8.45521 
36 1 9.39466 9.39252 9.25697 
49 2 6.11068 6.14735 7.90318 
ITEM: TIMESTEP
150
ITEM: NUMBER OF ATOMS
49
ITEM: BOX BOUNDS pp pp pp
0.0000000000000000e+00 1.1000000000000000e+01
0.0000000000000000e+00 1.1002000000000001e+01
0.0000000000000000e+00 1.1000000000000000e+01
ITEM: ATOMS id type x y z 
10 1 4.60476 4.59652 4.54344 
11 1 3.07861 3.07353 3.07072 
12 1 3.79558 3.78902 3.76259 
46 1 0.732364 0.738147 0.736993 
47 1 2.26719 2.26668 2.26734 
48 1 1.55798 1.56037 1.5602 
19 1 4.46672 4.47274 6.16638 
20 1 2.98552 2.98404 7.79696 
21 1 3.66765 3.66962 7.04603 
31 1 0.655937 0.659682 10.0945 
32 1 2.18104 2.17989 8.61321 
33 1 1.46583 1.46698 9.30788 
16 1 4.54943 6.24427 4.48736 
17 1 2.99179 7.78834 2.97679 
18 1 3.70781 7.07871 3.67089 
25 1 0.658274 10.0997 0.66621 
26 1 2.17608 8.60402 2.17994 
27 1 1.46444 9.3053 1.47021 
4 1 4.47287 6.11187 6.0909 
5 1 3.00186 7.66177 7.60594 
6 1 3.68979 6.93669 6.89695 
37 1 0.769661 10.0358 10.0424 
38 1 2.26462 8.49587 8.47199 
39 1 1.57661 9.20457 9.19471 
13 1 6.25328 4.55264 4.50281 
14 1 7.7871 2.99254 2.98488 
15 1 7.08209 3.70964 3.68258 
28 1 10.0922 0.661899 0.665014 
29 1 8.59877 2.17903 2.18152 
30 1 9.29901 1.46768 1.47045 
1 1 6.10702 4.49357 6.10559 
2 1 7.65924 3.0354 7.63202 
3 1 6.93327 3.71737 6.91811 
40 1 10.0298 0.768852 10.0404 
41 1 8.49404 2.27983 8.48158 
42 1 9.20087 1.58443 9.19905 
7 1 6.18145 6.18631 4.66984 
8 1 7.67664 7.67525 3.11466 
9 1 6.97695 6.97846 3.84257 
43 1 10.0282 10.0336 0.77607 
44 1 8.48441 8.48375 2.28856 
45 1 9.19491 9.19705 1.59245 
22 1 6.12822 6.1499 6.33297 
23 1 7.96059 7.9574 7.63436 
24 1 7.08065 7.09475 7.46899 
34 1 10.1308 10.1324 10.152 
35 1 8.73563 8.73011 8.45504 
36 1 9.39477 9.39263 9.25677 
49 2 6.1107 6.14735 7.90323 
ITEM: TIMESTEP
151
ITEM: NUMBER OF ATOMS
49
ITEM: BOX BOUNDS pp pp pp
0.0000000000000000e+00 1.1000000000000000e+01
0.0000000000000000e+00 1.1002000000000001e+01
0.0000000000000000e+00 1.1000000000000000e+01
ITEM: ATOMS id type x y z 
10 1 4.60476 4.59652 4.54344 
11 1 3.07861 3.07353 3.07072 
12 1 3.79558 3.78902 3.76259 
46 1 0.732364 0.738147 0.736993 
47 1 2.26719 2.26668 2.26734 
48 1 1.55798 1.56037 1.5602 
19 1 4.46672 4.47274 6.16638 
20 1 2.98552 2.98404 7.79696 
21 1 3.66765 3.66962 7.04603 
31 1 0.655936 0.659682 10.0945 
32 1 2.18104 2.17989 8.61321 
33 1 1.46583 1.46698 9.30788 
16 1 4.54943 6.24427 4.48736 
17 1 2.99179 7.78834 2.97679 
18 1 3.70781 7.07871 3.67089 
25 1 0.658273 10.0997 0.666211 
26 1 2.17608 8.60402 2.17994 
27 1 1.46444 9.3053 1.47021 
4 1 4.47287 6.11187 6.0909 
5 1 3.00186 7.66177 7.60594 
6 1 3.68979 6.93669 6.89695 
37 1 0.769662 10.0358 10.0424 
38 1 2.26462 8.49587 8.47199 
39 1 1.57661 9.20457 9.19471 
13 1 6.25328 4.55264 4.50281 
14 1 7.7871 2.99254 2.98488 
15 1 7.08209 3.70964 3.68258 
28 1 10.0922 0.661898 0.665014 
29 1 8.59877 2.17903 2.18152 
30 1 9.29901 1.46768 1.47045 
1 1 6.10702 4.49357 6.10559 
2 1 7.65924 3.0354 7.63202 
3 1 6.93327 3.71737 6.91811 
40 1 10.0298 0.768852 10.0404 
41 1 8.49404 2.27983 8.48158 
42 1 9.20087 1.58443 9.19905 
7 1 6.18145 6.18631 4.66984 
8 1 7.67665 7.67525 3.11466 
9 1 6.97695 6.97846 3.84257 
43 1 10.0282 10.0336 0.77607 
44 1 8.48441 8.48375 2.28856 
45 1 9.19491 9.19705 1.59245 
22 1 6.12822 6.1499 6.33297 
23 1 7.96059 7.9574 7.63436 
24 1 7.08065 7.09475 7.46899 
34 1 10.1308 10.1324 10.152 
35 1 8.73563 8.73011 8.45503 
36 1 9.39477 9.39263 9.25677 
49 2 6.1107 6.14735 7.90323 
ITEM: TIMESTEP
152
ITEM: NUMBER OF ATOMS
49
ITEM: BOX BOUNDS pp pp pp
0.0000000000000000e+00 1.1000000000000000e+01
0.0000000000000000e+00 1.1002000000000001e+01
0.0000000000000000e+00 1.1000000000000000e+01
ITEM: ATOMS id type x y z 
10 1 4.60476 4.59652 4.54344 
11 1 3.07861 3.07353 3.07072 
12 1 3.79558 3.78902 3.76259 
46 1 0.732364 0.738147 0.736993 
47 1 2.26719 2.26668 2.26734 
48 1 1.55798 1.56037 1.5602 
19 1 4.46672 4.47274 6.16638 
20 1 2.98552 2.98404 7.79696 
21 1 3.66765 3.66962 7.04603 
31 1 0.655936 0.659682 10.0945 
32 1 2.18104 2.17989 8.61321 
33 1 1.46583 1.46698 9.30788 
16 1 4.54943 6.24427 4.48736 
17 1 2.99179 7.78834 2.97679 
18 1 3.70781 7.07871 3.67089 
25 1 0.658273 10.0997 0.666211 
26 1 2.17608 8.60402 2.17994 
27 1 1.46444 9.3053 1.47021 
4 1 4.47287 6.11187 6.0909 
5 1 3.00186 7.66177 7.60594 
6 1 3.68979 6.93669 6.89695 
37 1 0.769662 10.0358 10.0424 
38 1 2.26462 8.49587 8.47199 
39 1 1.57661 9.20457 9.19471 
13 1 6.25328 4.55264 4.50281 
14 1 7.7871 2.99255 2.98488 
15 1 7.08209 3.70964 3.68258 
28 1 10.0922 0.661898 0.665014 
29 1 8.59877 2.17903 2.18152 
30 1 9.29901 1.46768 1.47045 
1 1 6.10702 4.49357 6.10559 
2 1 7.65924 3.0354 7.63202 
3 1 6.93327 3.71737 6.91811 
40 1 10.0298 0.768852 10.0404 
41 1 8.49404 2.27983 8.48158 
42 1 9.20087 1.58443 9.19905 
7 1 6.18145 6.18631 4.66984 
8 1 7.67665 7.67525 3.11466 
9 1 6.97695 6.97846 3.84257 
43 1 10.0282 10.0336 0.77607 
44 1 8.48441 8.48375 2.28856 
45 1 9.19491 9.19705 1.59245 
22 1 6.12822 6.1499 6.33297 