ITEM: TIMESTEP
0
ITEM: NUMBER OF ATOMS
81
ITEM: BOX BOUNDS pp pp pp
0.0000000000000000e+00 1.3416000000000000e+01
0.0000000000000000e+00 1.3416000000000000e+01
0.0000000000000000e+00 1.3414999999999999e+01
ITEM: ATOMS id type x y z 
21 1 1.912 1.912 1.912 
22 1 2.794 2.794 2.795 
23 1 0.386 2.099 2.099 
33 1 2.098 2.099 0.386 
37 1 2.099 0.386 2.099 
41 1 4.371 4.372 4.372 
42 1 3.489 3.489 3.489 
43 1 4.184 5.897 4.185 
53 1 4.185 4.185 5.898 
57 1 5.897 4.185 4.185 
4 1 1.912 1.912 11.079 
5 1 2.794 2.794 10.197 
6 1 2.099 0.386 10.892 
16 1 2.098 2.099 12.605 
19 1 0.386 2.099 10.892 
64 1 4.371 4.372 8.62 
65 1 3.489 3.489 9.502 
66 1 5.897 4.185 8.807 
76 1 4.185 4.185 7.094 
79 1 4.184 5.897 8.807 
10 1 1.911 11.079 1.912 
11 1 2.794 10.197 2.795 
12 1 2.099 12.605 2.099 
15 1 2.099 10.892 0.386 
18 1 0.386 10.892 2.099 
67 1 4.372 8.62 4.371 
68 1 3.489 9.502 3.489 
69 1 5.897 8.807 4.185 
74 1 4.185 8.807 5.897 
80 1 4.185 7.094 4.185 
30 1 1.911 11.079 11.079 
31 1 2.794 10.197 10.197 
32 1 0.386 10.892 10.892 
35 1 2.099 10.892 12.605 
38 1 2.099 12.605 10.892 
47 1 4.372 8.62 8.62 
48 1 3.489 9.502 9.502 
49 1 4.184 7.094 8.807 
54 1 4.184 8.807 7.094 
60 1 5.897 8.807 8.807 
7 1 11.08 1.912 1.912 
8 1 10.197 2.794 2.795 
9 1 10.893 0.386 2.099 
14 1 10.893 2.099 0.386 
20 1 12.606 2.099 2.099 
70 1 8.62 4.372 4.372 
71 1 9.502 3.489 3.489 
72 1 7.094 4.185 4.185 
75 1 8.807 4.185 5.897 
78 1 8.807 5.898 4.185 
27 1 11.08 1.912 11.079 
28 1 10.197 2.794 10.197 
29 1 12.606 2.099 10.892 
34 1 10.893 2.099 12.605 
40 1 10.893 0.386 10.892 
50 1 8.62 4.372 8.62 
51 1 9.502 3.489 9.502 
52 1 8.807 5.897 8.807 
55 1 8.807 4.185 7.094 
58 1 7.094 4.185 8.807 
24 1 11.08 11.08 1.912 
25 1 10.197 10.197 2.795 
26 1 12.606 10.892 2.099 
36 1 10.893 10.892 0.386 
39 1 10.893 12.605 2.099 
44 1 8.62 8.62 4.372 
45 1 9.502 9.502 3.489 
46 1 8.807 7.094 4.185 
56 1 8.807 8.807 5.898 
59 1 7.094 8.807 4.185 
1 1 11.08 11.079 11.079 
2 1 10.197 10.197 10.197 
3 1 10.893 12.605 10.892 
13 1 10.893 10.892 12.605 
17 1 12.606 10.892 10.892 
61 1 8.62 8.62 8.62 
62 1 9.502 9.502 9.502 
63 1 7.094 8.807 8.807 
73 1 8.807 8.807 7.094 
77 1 8.807 7.094 8.807 
81 2 11.993 12.605 10.892 
ITEM: TIMESTEP
10
ITEM: NUMBER OF ATOMS
81
ITEM: BOX BOUNDS pp pp pp
0.0000000000000000e+00 1.3416000000000000e+01
0.0000000000000000e+00 1.3416000000000000e+01
0.0000000000000000e+00 1.3414999999999999e+01
ITEM: ATOMS id type x y z 
21 1 1.91297 1.91091 1.91395 
22 1 2.79437 2.79509 2.79447 
23 1 0.386997 2.09893 2.09855 
33 1 2.09787 2.09903 0.387408 
37 1 2.09861 0.385241 2.09858 
41 1 4.37154 4.37221 4.37093 
42 1 3.48952 3.48907 3.49066 
43 1 4.18501 5.89813 4.18545 
53 1 4.18529 4.18523 5.89619 
57 1 5.89623 4.18546 4.18555 
4 1 1.92208 1.91129 11.0807 
5 1 2.79775 2.79443 10.1966 
6 1 2.1009 0.384023 10.8921 
16 1 2.09969 2.09865 12.6063 
19 1 0.401234 2.10392 10.8893 
64 1 4.36961 4.37243 8.61906 
65 1 3.49016 3.49039 9.50232 
66 1 5.89523 4.18451 8.80736 
76 1 4.18479 4.18519 7.09279 
79 1 4.18398 5.89965 8.8067 
10 1 1.91161 11.0797 1.91367 
11 1 2.79405 10.1955 2.79414 
12 1 2.09823 12.6045 2.09847 
15 1 2.0988 10.8925 0.387125 
18 1 0.386933 10.8928 2.09889 
67 1 4.37212 8.61941 4.37107 
68 1 3.48955 9.5034 3.49008 
69 1 5.89838 8.80624 4.18555 
74 1 4.18508 8.80628 5.89809 
80 1 4.18516 7.09386 4.18557 
30 1 1.91269 11.0802 11.079 
31 1 2.79396 10.195 10.1938 
32 1 0.39428 10.885 10.8909 
35 1 2.09799 10.8922 12.6058 
38 1 2.09809 12.6052 10.8917 
47 1 4.37249 8.61926 8.61872 
48 1 3.49073 9.5018 9.502 
49 1 4.18492 7.09499 8.80644 
54 1 4.18542 8.8063 7.09308 
60 1 5.89883 8.80587 8.80605 
7 1 11.0811 1.91044 1.92336 
8 1 10.1968 2.79461 2.79816 
9 1 10.8935 0.383812 2.10081 
14 1 10.8912 2.10437 0.405601 
20 1 12.6076 2.09862 2.10063 
70 1 8.61864 4.37294 4.3694 
71 1 9.50191 3.49037 3.49 
72 1 7.09255 4.18538 4.18514 
75 1 8.80732 4.18443 5.89525 
78 1 8.80646 5.89928 4.18514 
27 1 11.0736 1.91583 11.087 
28 1 10.1758 2.80803 10.1788 
29 1 12.6264 2.10377 10.8863 
34 1 10.8871 2.10781 12.6302 
40 1 10.8647 0.46976 10.927 
50 1 8.61177 4.3822 8.61162 
51 1 9.49233 3.50051 9.49073 
52 1 8.80616 5.90528 8.8062 
55 1 8.80652 4.18557 7.0891 
58 1 7.08886 4.18552 8.80659 
24 1 11.0781 11.0778 1.90427 
25 1 10.1952 10.1938 2.79327 
26 1 12.6062 10.8921 2.09758 
36 1 10.8924 10.903 0.389786 
39 1 10.8926 12.6055 2.09756 
44 1 8.61965 8.61988 4.37222 
45 1 9.50218 9.50335 3.49166 
46 1 8.80638 7.09553 4.18575 
56 1 8.80601 8.80588 5.89802 
59 1 7.09346 8.80632 4.18577 
1 1 11.1087 10.9411 11.1194 
2 1 10.2054 10.1773 10.215 
3 1 10.8718 12.6691 10.7911 
13 1 10.8932 10.8695 12.5999 
17 1 12.5964 10.8237 10.8996 
61 1 8.62507 8.63052 8.62495 
62 1 9.50294 9.50539 9.50128 
63 1 7.09312 8.80739 8.80699 
73 1 8.80693 8.80738 7.09313 
77 1 8.80765 7.09792 8.80771 
81 2 12.0046 12.6144 10.882 
ITEM: TIMESTEP
20
ITEM: NUMBER OF ATOMS
81
ITEM: BOX BOUNDS pp pp pp
0.0000000000000000e+00 1.3416000000000000e+01
0.0000000000000000e+00 1.3416000000000000e+01
0.0000000000000000e+00 1.3414999999999999e+01
ITEM: ATOMS id type x y z 
21 1 1.91409 1.91122 1.91377 
22 1 2.79453 2.7948 2.79585 
23 1 0.389309 2.09922 2.09909 
33 1 2.09832 2.09915 0.388566 
37 1 2.09881 0.384461 2.09887 
41 1 4.37059 4.37231 4.37105 
42 1 3.48973 3.48918 3.48938 
43 1 4.18488 5.89821 4.18527 
53 1 4.18504 4.18505 5.89628 
57 1 5.89612 4.18517 4.1852 
4 1 1.92553 1.9104 11.081 
5 1 2.79962 2.79452 10.1971 
6 1 2.10225 0.383933 10.892 
16 1 2.10132 2.09893 12.6076 
19 1 0.401696 2.10437 10.8869 
64 1 4.36819 4.37345 8.6183 
65 1 3.49101 3.49105 9.50125 
66 1 5.89211 4.18387 8.80796 
76 1 4.18432 4.18514 7.09198 
79 1 4.18364 5.89955 8.80669 
10 1 1.91262 11.0789 1.9125 
11 1 2.79411 10.1964 2.79487 
12 1 2.09832 12.6045 2.0986 
15 1 2.09848 10.8925 0.386684 
18 1 0.386816 10.8926 2.09911 
67 1 4.37153 8.62004 4.37147 
68 1 3.4895 9.50261 3.48935 
69 1 5.89741 8.80631 4.18542 
74 1 4.18519 8.80632 5.89715 
80 1 4.18514 7.09434 4.18542 
30 1 1.90842 11.0791 11.0777 
31 1 2.79433 10.1965 10.1953 
32 1 0.389142 10.8736 10.8942 
35 1 2.09786 10.8927 12.6054 
38 1 2.09804 12.6035 10.8914 
47 1 4.37235 8.62004 8.61914 
48 1 3.48948 9.50207 9.501 
49 1 4.18479 7.0955 8.80659 
54 1 4.18543 8.80627 7.09345 
60 1 5.89738 8.80584 8.80615 
7 1 11.0822 1.9105 1.92956 
8 1 10.1964 2.79519 2.80091 
9 1 10.8928 0.38316 2.1032 
14 1 10.8887 2.10682 0.410528 
20 1 12.6096 2.09915 2.10286 
70 1 8.61801 4.37405 4.36838 
71 1 9.49988 3.49117 3.49172 
72 1 7.09177 4.18534 4.18457 
75 1 8.8079 4.18382 5.89209 
78 1 8.80656 5.89995 4.18453 
27 1 11.0753 1.93189 11.0936 
28 1 10.1793 2.80907 10.1848 
29 1 12.6233 2.10893 10.8885 
34 1 10.8863 2.11492 12.6311 
40 1 10.858 0.473813 10.9127 
50 1 8.60911 4.38478 8.60825 
51 1 9.48789 3.50221 9.48747 
52 1 8.80587 5.90717 8.80584 
55 1 8.80625 4.18608 7.08776 
58 1 7.08782 4.18613 8.80619 
24 1 11.0783 11.078 1.90614 
25 1 10.1949 10.1947 2.79385 
26 1 12.6072 10.8919 2.09714 
36 1 10.8912 10.9017 0.391259 
39 1 10.8919 12.6036 2.09774 
44 1 8.61926 8.62034 4.37263 
45 1 9.50171 9.50221 3.49049 
46 1 8.80667 7.09562 4.18551 
56 1 8.80624 8.80603 5.89751 
59 1 7.0936 8.80648 4.18565 
1 1 11.1145 10.9375 11.12 
2 1 10.2128 10.1678 10.221 
3 1 10.8703 12.6637 10.7787 
13 1 10.8946 10.8619 12.6017 
17 1 12.6048 10.8144 10.9016 
61 1 8.62285 8.63143 8.62249 
62 1 9.5004 9.50237 9.5015 
63 1 7.09325 8.80885 8.80757 
73 1 8.80754 8.80884 7.09319 
77 1 8.80869 7.10273 8.80873 
81 2 12.0097 12.6113 10.875 
ITEM: TIMESTEP
30
ITEM: NUMBER OF ATOMS
81
ITEM: BOX BOUNDS pp pp pp
0.0000000000000000e+00 1.3416000000000000e+01
0.0000000000000000e+00 1.3416000000000000e+01
0.0000000000000000e+00 1.3414999999999999e+01
ITEM: ATOMS id type x y z 
21 1 1.91816 1.90946 1.91467 
22 1 2.80237 2.79067 2.7911 
23 1 0.393598 2.10125 2.10432 
33 1 2.10371 2.09971 0.38666 
37 1 2.10078 0.383334 2.10075 
41 1 4.36894 4.37384 4.36807 
42 1 3.48241 3.49176 3.49428 
43 1 4.1833 5.90068 4.18346 
53 1 4.18216 4.18337 5.89465 
57 1 5.89155 4.18302 4.18199 
4 1 1.91876 1.90908 11.0793 
5 1 2.8028 2.78938 10.2007 
6 1 2.10737 0.384906 10.8919 
16 1 2.10749 2.09896 12.6053 
19 1 0.390807 2.10658 10.8864 
64 1 4.36134 4.37608 8.61625 
65 1 3.49374 3.48741 9.50456 
66 1 5.8875 4.18288 8.80963 
76 1 4.1802 4.18466 7.09113 
79 1 4.18024 5.9016 8.8069 
10 1 1.91369 11.0778 1.91243 
11 1 2.79781 10.1948 2.78851 
12 1 2.09987 12.6029 2.09951 
15 1 2.0994 10.8929 0.384629 
18 1 0.388224 10.8902 2.09845 
67 1 4.37035 8.62162 4.3702 
68 1 3.48601 9.50417 3.49342 
69 1 5.89505 8.80757 4.1843 
74 1 4.18466 8.80717 5.89704 
80 1 4.18406 7.09634 4.1842 
30 1 1.90387 11.0756 11.077 
31 1 2.7844 10.194 10.1918 
32 1 0.395865 10.8144 10.908 
35 1 2.09615 10.8938 12.6043 
38 1 2.09597 12.6057 10.8896 
47 1 4.3682 8.62378 8.61962 
48 1 3.49043 9.50821 9.50204 
49 1 4.18279 7.09798 8.80822 
54 1 4.18472 8.80729 7.09277 
60 1 5.89373 8.80927 8.80868 
7 1 11.0849 1.90808 1.94259 
8 1 10.2005 2.79318 2.81252 
9 1 10.8907 0.383397 2.11496 
14 1 10.8836 2.12026 0.419619 
20 1 12.6138 2.10067 2.11515 
70 1 8.61233 4.37703 4.36423 
71 1 9.49933 3.49228 3.49674 
72 1 7.08785 4.18446 4.17974 
75 1 8.80994 4.18232 5.88944 
78 1 8.80765 5.90294 4.17948 
27 1 11.073 1.95017 11.1081 
28 1 10.1803 2.83234 10.2019 
29 1 12.6147 2.13274 10.9038 
34 1 10.884 2.1464 12.6428 
40 1 10.8611 0.492389 10.8578 
50 1 8.60569 4.38644 8.60595 
51 1 9.49283 3.50635 9.49276 
52 1 8.80214 5.91416 8.80156 
55 1 8.8031 4.18977 7.08474 
58 1 7.08298 4.19051 8.80191 
24 1 11.0795 11.0791 1.91227 
25 1 10.1972 10.1957 2.79525 
26 1 12.6079 10.8916 2.09717 
36 1 10.8901 10.8815 0.393222 
39 1 10.8887 12.6039 2.1025 
44 1 8.61718 8.62282 4.36999 
45 1 9.49579 9.50288 3.48446 
46 1 8.80894 7.09923 4.18286 
56 1 8.80936 8.81015 5.896 
59 1 7.09087 8.80779 4.1847 
1 1 11.1268 10.9267 11.1232 
2 1 10.2438 10.1223 10.2429 
3 1 10.8777 12.6923 10.7163 
13 1 10.9036 10.835 12.6037 
17 1 12.6067 10.7617 10.9156 
61 1 8.61784 8.64098 8.62058 
62 1 9.50559 9.48519 9.52018 
63 1 7.09037 8.81661 8.80943 
73 1 8.81034 8.81758 7.0928 
77 1 8.81082 7.1096 8.81088 
81 2 12.0091 12.6066 10.8326 
ITEM: TIMESTEP
40
ITEM: NUMBER OF ATOMS
81
ITEM: BOX BOUNDS pp pp pp
0.0000000000000000e+00 1.3416000000000000e+01
0.0000000000000000e+00 1.3416000000000000e+01
0.0000000000000000e+00 1.3414999999999999e+01
ITEM: ATOMS id type x y z 
21 1 1.91837 1.90932 1.91128 
22 1 2.79497 2.79423 2.79411 
23 1 0.394284 2.10036 2.10537 
33 1 2.10474 2.09861 0.386334 
37 1 2.10139 0.383364 2.10036 
41 1 4.36662 4.37394 4.37064 
42 1 3.48918 3.48752 3.49004 
43 1 4.18279 5.90033 4.18321 
53 1 4.18146 4.18421 5.89632 
57 1 5.89226 4.18342 4.18108 
4 1 1.9216 1.9086 11.0801 
5 1 2.80086 2.79122 10.1992 
6 1 2.10402 0.382635 10.8909 
16 1 2.10585 2.09868 12.6054 
19 1 0.397916 2.11208 10.8916 
64 1 4.36406 4.37443 8.61811 
65 1 3.49277 3.48756 9.50373 
66 1 5.88697 4.185 8.80737 
76 1 4.18013 4.18477 7.09207 
79 1 4.18018 5.90119 8.80685 
10 1 1.91342 11.0777 1.91076 
11 1 2.79482 10.1966 2.79279 
12 1 2.10004 12.6035 2.09989 
15 1 2.0996 10.893 0.384671 
18 1 0.387301 10.8904 2.09831 
67 1 4.3698 8.62194 4.37189 
68 1 3.48879 9.50277 3.4889 
69 1 5.89554 8.80805 4.18416 
74 1 4.1843 8.80746 5.89744 
80 1 4.18353 7.09631 4.18373 
30 1 1.90155 11.0751 11.0762 
31 1 2.7898 10.1967 10.194 
32 1 0.394154 10.8146 10.9078 
35 1 2.09663 10.8936 12.6041 
38 1 2.09499 12.603 10.8906 
47 1 4.37024 8.62301 8.61954 
48 1 3.48682 9.50402 9.50041 
49 1 4.18214 7.09715 8.80774 
54 1 4.18436 8.80778 7.0937 
60 1 5.89562 8.81087 8.80833 
7 1 11.0865 1.90939 1.9445 
8 1 10.1993 2.79407 2.81186 
9 1 10.8905 0.382391 2.1149 
14 1 10.886 2.12425 0.426988 
20 1 12.6146 2.10033 2.11545 
70 1 8.6137 4.37705 4.36659 
71 1 9.49985 3.49246 3.49794 
72 1 7.08788 4.18455 4.17978 
75 1 8.8074 4.18458 5.88923 
78 1 8.80717 5.90272 4.17998 
27 1 11.0691 1.95877 11.1077 
28 1 10.1771 2.83634 10.1962 
29 1 12.6192 2.13042 10.9009 
34 1 10.8805 2.14291 12.6474 
40 1 10.8726 0.499151 10.8688 
50 1 8.60482 4.39079 8.60504 
51 1 9.48532 3.51831 9.48943 
52 1 8.80144 5.9146 8.80102 
55 1 8.80325 4.18979 7.08524 
58 1 7.08305 4.19083 8.80201 
24 1 11.0787 11.0777 1.90759 
25 1 10.194 10.196 2.79306 
26 1 12.6077 10.8916 2.09752 
36 1 10.8931 10.8804 0.394298 
39 1 10.8893 12.603 2.10396 
44 1 8.61748 8.62289 4.37147 
45 1 9.49903 9.50345 3.488 
46 1 8.80831 7.09841 4.18192 
56 1 8.80855 8.81135 5.89758 
59 1 7.09153 8.80798 4.18442 
1 1 11.1309 10.9061 11.1282 
2 1 10.2367 10.1261 10.2424 
3 1 10.8737 12.6839 10.6951 
13 1 10.9035 10.8365 12.6041 
17 1 12.6086 10.757 10.9184 
61 1 8.62127 8.63911 8.62352 
62 1 9.51141 9.47603 9.52228 
63 1 7.09127 8.81662 8.8095 
73 1 8.81015 8.81769 7.09294 
77 1 8.80731 7.11029 8.80761 
81 2 12.0052 12.608 10.8254 
ITEM: TIMESTEP
50
ITEM: NUMBER OF ATOMS
81
ITEM: BOX BOUNDS pp pp pp
0.0000000000000000e+00 1.3416000000000000e+01
0.0000000000000000e+00 1.3416000000000000e+01
0.0000000000000000e+00 1.3414999999999999e+01
ITEM: ATOMS id type x y z 
21 1 1.91825 1.90964 1.91183 
22 1 2.79652 2.79249 2.79476 
23 1 0.394464 2.10008 2.10588 
33 1 2.105 2.09861 0.386136 
37 1 2.10178 0.383321 2.1001 
41 1 4.36704 4.37357 4.37079 
42 1 3.4884 3.48991 3.48907 
43 1 4.1825 5.90003 4.18335 
53 1 4.18095 4.18451 5.89616 
57 1 5.89163 4.18371 4.18102 
4 1 1.92175 1.90824 11.0797 
5 1 2.79966 2.79151 10.1991 
6 1 2.10247 0.382276 10.8907 
16 1 2.10629 2.09819 12.6051 
19 1 0.396386 2.11342 10.8931 
64 1 4.36336 4.3745 8.61838 
65 1 3.49145 3.48804 9.50333 
66 1 5.88652 4.18533 8.80701 
76 1 4.17969 4.18475 7.09199 
79 1 4.17983 5.90125 8.807 
10 1 1.91338 11.078 1.91123 
11 1 2.79456 10.1969 2.79351 
12 1 2.10023 12.6033 2.09988 
15 1 2.09986 10.893 0.385368 
18 1 0.387363 10.8907 2.09843 
67 1 4.37016 8.62155 4.37144 
68 1 3.48882 9.5025 3.4887 
69 1 5.89563 8.80815 4.18419 
74 1 4.18405 8.80775 5.89746 
80 1 4.18336 7.09597 4.18369 
30 1 1.90257 11.0739 11.0763 
31 1 2.7906 10.1958 10.1933 
32 1 0.395328 10.8141 10.9079 
35 1 2.09705 10.8932 12.6047 
38 1 2.09353 12.6025 10.8903 
47 1 4.37063 8.62239 8.6194 
48 1 3.48724 9.50276 9.49996 
49 1 4.18197 7.09716 8.8075 
54 1 4.18421 8.808 7.09352 
60 1 5.89554 8.81174 8.80836 
7 1 11.0869 1.90948 1.94565 
8 1 10.2002 2.79413 2.81321 
9 1 10.891 0.382637 2.11573 
14 1 10.886 2.12502 0.426902 
20 1 12.6147 2.10004 2.11658 
70 1 8.6129 4.37751 4.36566 
71 1 9.50006 3.49288 3.49835 
72 1 7.08727 4.18477 4.17949 
75 1 8.8066 4.18522 5.88874 
78 1 8.8068 5.9033 4.17981 
27 1 11.0705 1.96224 11.1101 
28 1 10.1774 2.83897 10.1976 
29 1 12.6185 2.13091 10.9028 
34 1 10.8802 2.14217 12.6483 
40 1 10.8785 0.503199 10.8661 
50 1 8.60349 4.39223 8.60407 
51 1 9.48601 3.51985 9.49154 
52 1 8.80084 5.91538 8.80065 
55 1 8.80331 4.19003 7.08426 
58 1 7.08223 4.19129 8.80203 
24 1 11.078 11.0775 1.90708 
25 1 10.1938 10.1951 2.79329 
26 1 12.6077 10.8912 2.09742 
36 1 10.8938 10.881 0.394947 
39 1 10.8891 12.6032 2.10419 
44 1 8.61747 8.62293 4.37208 
45 1 9.4989 9.50307 3.48882 
46 1 8.80795 7.09895 4.18182 
56 1 8.80823 8.81221 5.89728 
59 1 7.09161 8.80826 4.18447 
1 1 11.1316 10.9001 11.1299 
2 1 10.2391 10.1213 10.2457 
3 1 10.8733 12.6899 10.6872 
13 1 10.9045 10.8345 12.604 
17 1 12.6085 10.7538 10.9197 
61 1 8.62183 8.64037 8.62347 
62 1 9.51125 9.47374 9.52264 
63 1 7.09119 8.81758 8.81006 
73 1 8.81055 8.81853 7.09281 
77 1 8.80645 7.11074 8.80677 
81 2 12.0026 12.601 10.818 
ITEM: TIMESTEP
60
ITEM: NUMBER OF ATOMS
81
ITEM: BOX BOUNDS pp pp pp
0.0000000000000000e+00 1.3416000000000000e+01
0.0000000000000000e+00 1.3416000000000000e+01
0.0000000000000000e+00 1.3414999999999999e+01
ITEM: ATOMS id type x y z 
21 1 1.91915 1.91067 1.91096 
22 1 2.79952 2.79099 2.79341 
23 1 0.39566 2.09945 2.10823 
33 1 2.10617 2.09781 0.385884 
37 1 2.10316 0.382821 2.10002 
41 1 4.36893 4.37246 4.36987 
42 1 3.48711 3.4916 3.48926 
43 1 4.18091 5.90044 4.1832 
53 1 4.17899 4.18483 5.89629 
57 1 5.88941 4.18457 4.18067 
4 1 1.92109 1.9078 11.0809 
5 1 2.79944 2.78765 10.1976 
6 1 2.09724 0.380645 10.8901 
16 1 2.10715 2.09703 12.6048 
19 1 0.394262 2.11646 10.8974 
64 1 4.36084 4.3748 8.61916 
65 1 3.48586 3.49085 9.50291 
66 1 5.88504 4.18623 8.80661 
76 1 4.17763 4.18469 7.0922 
79 1 4.17815 5.901 8.80738 
10 1 1.91124 11.0766 1.91214 
11 1 2.79658 10.2015 2.79632 
12 1 2.10119 12.603 2.10004 
15 1 2.10063 10.8929 0.386388 
18 1 0.387626 10.891 2.0985 
67 1 4.37087 8.62301 4.37181 
68 1 3.48545 9.49794 3.48707 
69 1 5.89569 8.80867 4.18387 
74 1 4.18352 8.8084 5.89677 
80 1 4.18267 7.09626 4.18327 
30 1 1.9033 11.0709 11.077 
31 1 2.7919 10.1932 10.1927 
32 1 0.398095 10.8093 10.9106 
35 1 2.0986 10.8921 12.606 
38 1 2.0895 12.601 10.8896 
47 1 4.37136 8.62155 8.61796 
48 1 3.48812 9.50092 9.49912 
49 1 4.18162 7.09682 8.80708 
54 1 4.1839 8.80843 7.09252 
60 1 5.89539 8.81407 8.80887 
7 1 11.0877 1.91022 1.94817 
8 1 10.2028 2.79483 2.81742 
9 1 10.8918 0.382389 2.1186 
14 1 10.8851 2.12479 0.429092 
20 1 12.6159 2.09958 2.12049 
70 1 8.61101 4.37939 4.3635 
71 1 9.49892 3.49345 3.49873 
72 1 7.08553 4.18531 4.1783 
75 1 8.80499 4.18683 5.88816 
78 1 8.80579 5.90422 4.17876 
27 1 11.0731 1.97054 11.1138 
28 1 10.1789 2.84809 10.2033 
29 1 12.6171 2.13707 10.9092 
34 1 10.8802 2.14338 12.6509 
40 1 10.8915 0.510572 10.8549 
50 1 8.60178 4.39378 8.60337 
51 1 9.48751 3.52577 9.49691 
52 1 8.79817 5.91732 8.7984 
55 1 8.80211 4.19144 7.08311 
58 1 7.08032 4.19294 8.80118 
24 1 11.0791 11.0772 1.90796 
25 1 10.1897 10.1965 2.79182 
26 1 12.6079 10.8909 2.09718 
36 1 10.8956 10.8807 0.395528 
39 1 10.8891 12.6031 2.10532 
44 1 8.61501 8.62478 4.37237 
45 1 9.50214 9.50062 3.4908 
46 1 8.8073 7.09993 4.18138 
56 1 8.80869 8.81501 5.89735 
59 1 7.09198 8.80902 4.18475 
1 1 11.1356 10.8881 11.132 
2 1 10.2457 10.1075 10.2529 
3 1 10.8747 12.6996 10.6695 
13 1 10.907 10.8296 12.6043 
17 1 12.6103 10.7447 10.923 
61 1 8.62195 8.6431 8.62396 
62 1 9.51361 9.46572 9.52735 
63 1 7.09069 8.82161 8.81162 
73 1 8.81171 8.8226 7.09282 
77 1 8.80411 7.11199 8.80466 
81 2 11.9957 12.5843 10.7916 
ITEM: TIMESTEP
70
ITEM: NUMBER OF ATOMS
81
ITEM: BOX BOUNDS pp pp pp
0.0000000000000000e+00 1.3416000000000000e+01
0.0000000000000000e+00 1.3416000000000000e+01
0.0000000000000000e+00 1.3414999999999999e+01
ITEM: ATOMS id type x y z 
21 1 1.91991 1.90895 1.91134 
22 1 2.79728 2.79254 2.79398 
23 1 0.396235 2.09909 2.10918 
33 1 2.10682 2.09762 0.385869 
37 1 2.1037 0.383343 2.09965 
41 1 4.36559 4.37462 4.37096 
42 1 3.48939 3.48971 3.48822 
43 1 4.18089 5.90006 4.18309 
53 1 4.17866 4.18478 5.89654 
57 1 5.88988 4.18431 4.18003 
4 1 1.92022 1.90636 11.08 
5 1 2.79715 2.789 10.1974 
6 1 2.09512 0.37951 10.89 
16 1 2.10776 2.09667 12.605 
19 1 0.396117 2.11827 10.8998 
64 1 4.35971 4.37473 8.61881 
65 1 3.48609 3.48866 9.50187 
66 1 5.88434 4.18684 8.80634 
76 1 4.17643 4.18506 7.09238 
79 1 4.17727 5.90068 8.80762 
10 1 1.91317 11.079 1.91282 
11 1 2.79461 10.1986 2.79508 
12 1 2.10128 12.6033 2.10015 
15 1 2.10099 10.8925 0.386872 
18 1 0.386808 10.8906 2.09892 
67 1 4.36956 8.62093 4.37053 
68 1 3.48734 9.50083 3.48828 
69 1 5.89532 8.80921 4.18366 
74 1 4.18313 8.809 5.89655 
80 1 4.18218 7.09595 4.18338 
30 1 1.90406 11.0705 11.0774 
31 1 2.79157 10.1923 10.1932 
32 1 0.399132 10.8064 10.912 
35 1 2.09936 10.8915 12.6063 
38 1 2.08751 12.5998 10.8895 
47 1 4.3717 8.62117 8.61801 
48 1 3.48821 9.50132 9.49815 
49 1 4.18132 7.09665 8.80699 
54 1 4.18368 8.80864 7.0924 
60 1 5.89577 8.81529 8.80921 
7 1 11.0888 1.90956 1.95043 
8 1 10.2023 2.79486 2.81741 
9 1 10.8921 0.382874 2.11942 
14 1 10.8852 2.12471 0.431421 
20 1 12.6167 2.09935 2.12182 
70 1 8.61065 4.37922 4.36413 
71 1 9.5002 3.49387 3.50012 
72 1 7.08559 4.18577 4.17762 
75 1 8.80389 4.18785 5.8877 
78 1 8.80529 5.90489 4.1781 
27 1 11.0735 1.97407 11.1146 
28 1 10.1789 2.85138 10.2046 
29 1 12.6182 2.14055 10.9112 
34 1 10.8799 2.14405 12.6525 
40 1 10.8954 0.509298 10.8514 
50 1 8.602 4.39422 8.6036 
51 1 9.48579 3.52981 9.49807 
52 1 8.79677 5.91769 8.79725 
55 1 8.80139 4.19223 7.08288 
58 1 7.07973 4.1937 8.80073 
24 1 11.0771 11.0779 1.90675 
25 1 10.1928 10.195 2.79297 
26 1 12.6072 10.8908 2.09752 
36 1 10.8966 10.8803 0.395744 
39 1 10.8894 12.6036 2.10622 
44 1 8.61748 8.62391 4.37352 
45 1 9.49906 9.50251 3.48898 
46 1 8.8068 7.10062 4.18134 
56 1 8.80879 8.81659 5.89785 
59 1 7.09132 8.80978 4.18444 
1 1 11.1372 10.8836 11.1335 
2 1 10.2474 10.1047 10.2546 
3 1 10.8759 12.7011 10.6629 
13 1 10.9083 10.8281 12.604 
17 1 12.611 10.7407 10.9244 
61 1 8.62196 8.64363 8.62424 
62 1 9.51559 9.46078 9.53005 
63 1 7.09124 8.82332 8.81224 
73 1 8.81222 8.82431 7.09331 
77 1 8.8028 7.11266 8.80347 
81 2 11.9933 12.5807 10.7783 
ITEM: TIMESTEP
80
ITEM: NUMBER OF ATOMS
81
ITEM: BOX BOUNDS pp pp pp
0.0000000000000000e+00 1.3416000000000000e+01
0.0000000000000000e+00 1.3416000000000000e+01
0.0000000000000000e+00 1.3414999999999999e+01
ITEM: ATOMS id type x y z 
21 1 1.9206 1.90942 1.91114 
22 1 2.79712 2.79403 2.79269 
23 1 0.396731 2.09873 2.11004 
33 1 2.10743 2.09731 0.385793 
37 1 2.1044 0.383219 2.10003 
41 1 4.3657 4.37398 4.3706 
42 1 3.48774 3.4898 3.49017 
43 1 4.18032 5.89976 4.18307 
53 1 4.1778 4.185 5.89684 
57 1 5.88995 4.18443 4.17958 
4 1 1.91999 1.9059 11.0799 
5 1 2.79505 2.78917 10.1962 
6 1 2.09351 0.378681 10.8896 
16 1 2.10835 2.09616 12.6049 
19 1 0.396083 2.12015 10.9017 
64 1 4.35924 4.37347 8.6179 
65 1 3.48543 3.48906 9.5026 
66 1 5.88404 4.1873 8.80596 
76 1 4.17573 4.18511 7.09266 
79 1 4.17655 5.90078 8.80777 
10 1 1.91221 11.0773 1.91261 
11 1 2.79419 10.1976 2.79452 
12 1 2.10197 12.6034 2.10052 
15 1 2.10155 10.8925 0.387426 
18 1 0.386625 10.8908 2.0993 
67 1 4.36995 8.62134 4.37029 
68 1 3.4885 9.50299 3.48949 
69 1 5.8954 8.80922 4.18358 
74 1 4.18282 8.80893 5.89589 
80 1 4.18162 7.09563 4.18291 
30 1 1.90379 11.0692 11.0775 
31 1 2.79266 10.1921 10.1937 
32 1 0.399552 10.8034 10.9132 
35 1 2.10002 10.8908 12.6069 
38 1 2.08606 12.5989 10.8894 
47 1 4.37177 8.62139 8.61726 
48 1 3.48814 9.49983 9.49859 
49 1 4.18109 7.09659 8.80686 
54 1 4.18368 8.80897 7.09184 
60 1 5.89586 8.81646 8.80943 
7 1 11.0893 1.90971 1.95146 
8 1 10.2021 2.79564 2.81678 
9 1 10.8925 0.38281 2.12067 
14 1 10.8858 2.1244 0.431955 
20 1 12.6171 2.09925 2.12304 
70 1 8.61104 4.37966 4.36435 
71 1 9.49987 3.49422 3.49986 
72 1 7.08551 4.18594 4.17714 
75 1 8.80318 4.18855 5.8881 
78 1 8.80478 5.90502 4.17792 
27 1 11.0742 1.9751 11.1152 
28 1 10.1787 2.85219 10.2064 
29 1 12.6181 2.14333 10.9132 
34 1 10.8803 2.14407 12.6531 
40 1 10.8972 0.509457 10.8498 
50 1 8.60182 4.39462 8.60385 
51 1 9.48504 3.5309 9.50057 
52 1 8.79572 5.91789 8.79642 
55 1 8.80081 4.19288 7.08348 
58 1 7.07955 4.19443 8.80048 
24 1 11.077 11.0781 1.90662 
25 1 10.1928 10.1947 2.79283 
26 1 12.6071 10.8907 2.09757 
36 1 10.8971 10.8798 0.395578 
39 1 10.8894 12.6035 2.1066 
44 1 8.61629 8.62459 4.37286 
45 1 9.49878 9.50375 3.49029 
46 1 8.80657 7.10066 4.18118 
56 1 8.8092 8.81792 5.89817 
59 1 7.09131 8.81009 4.18473 
1 1 11.1383 10.8824 11.1335 
2 1 10.2491 10.1018 10.2561 
3 1 10.8766 12.7027 10.6591 
13 1 10.9093 10.8272 12.6041 
17 1 12.6116 10.7375 10.9258 
61 1 8.62199 8.64417 8.62473 
62 1 9.51748 9.45813 9.53124 
63 1 7.09111 8.82469 8.81291 
73 1 8.81253 8.82583 7.09347 
77 1 8.8016 7.11311 8.80251 
81 2 11.9939 12.5785 10.7649 
ITEM: TIMESTEP
90
ITEM: NUMBER OF ATOMS
81
ITEM: BOX BOUNDS pp pp pp
0.0000000000000000e+00 1.3416000000000000e+01
0.0000000000000000e+00 1.3416000000000000e+01
0.0000000000000000e+00 1.3414999999999999e+01
ITEM: ATOMS id type x y z 
21 1 1.92469 1.90576 1.90865 
22 1 2.79279 2.79646 2.79301 
23 1 0.402089 2.09608 2.11698 
33 1 2.11375 2.0944 0.382917 
37 1 2.11015 0.381645 2.10106 
41 1 4.36455 4.37269 4.37292 
42 1 3.47881 3.49083 3.49665 
43 1 4.17492 5.90003 4.18144 
53 1 4.17138 4.18673 5.89566 
57 1 5.88933 4.18551 4.17573 
4 1 1.91671 1.89985 11.0797 
5 1 2.78783 2.791 10.1979 
6 1 2.07711 0.370963 10.8865 
16 1 2.11285 2.09014 12.602 
19 1 0.394319 2.13918 10.9183 
64 1 4.35288 4.37461 8.61847 
65 1 3.4743 3.49344 9.50304 
66 1 5.87983 4.19101 8.8015 
76 1 4.16723 4.18419 7.09102 
79 1 4.17207 5.89784 8.80623 
10 1 1.91097 11.0798 1.91558 
11 1 2.7947 10.203 2.79756 
12 1 2.10487 12.6016 2.10172 
15 1 2.10612 10.8886 0.390293 
18 1 0.382908 10.8892 2.10143 
67 1 4.37043 8.62009 4.36765 
68 1 3.48957 9.509 3.4928 
69 1 5.89495 8.81097 4.18267 
74 1 4.18177 8.81036 5.89323 
80 1 4.17756 7.09571 4.17971 
30 1 1.90627 11.0581 11.0816 
31 1 2.79932 10.1829 10.1983 
32 1 0.405451 10.7741 10.9247 
35 1 2.10654 10.8859 12.6102 
38 1 2.07148 12.591 10.8886 
47 1 4.37474 8.61909 8.61234 
48 1 3.4938 9.49383 9.49913 
49 1 4.17934 7.09367 8.80444 
54 1 4.18245 8.80952 7.08936 
60 1 5.89585 8.82587 8.81082 
7 1 11.094 1.91006 1.95837 
8 1 10.2024 2.79897 2.81828 
9 1 10.8955 0.384764 2.12984 
14 1 10.8918 2.12146 0.437864 
20 1 12.6227 2.09737 2.1341 
70 1 8.60954 4.38345 4.36517 
71 1 9.49885 3.49847 3.49939 
72 1 7.08512 4.18812 4.17327 
75 1 8.79681 4.19578 5.89098 
78 1 8.80156 5.90941 4.17691 
27 1 11.0767 1.98228 11.1228 
28 1 10.1754 2.86493 10.2266 
29 1 12.6162 2.16885 10.9317 
34 1 10.8848 2.14283 12.6587 
40 1 10.9135 0.510879 10.8364 
50 1 8.59879 4.39762 8.6106 
51 1 9.48058 3.53844 9.51668 
52 1 8.7852 5.92104 8.78941 
55 1 8.79514 4.19845 7.08671 
58 1 7.07571 4.20097 8.79905 
24 1 11.075 11.0776 1.90455 
25 1 10.1919 10.1972 2.79481 
26 1 12.6038 10.8916 2.0996 
36 1 10.9023 10.8763 0.395437 
39 1 10.8901 12.6055 2.11244 
44 1 8.61589 8.62919 4.37894 
45 1 9.50044 9.5079 3.49675 
46 1 8.80167 7.10519 4.18026 
56 1 8.80969 8.83034 5.9007 
59 1 7.09001 8.81403 4.18505 
1 1 11.1469 10.87 11.1359 
2 1 10.2632 10.0773 10.2682 
3 1 10.8888 12.7099 10.6264 
13 1 10.9186 10.8207 12.6029 
17 1 12.6168 10.708 10.9376 
61 1 8.62242 8.64917 8.62465 
62 1 9.5314 9.43594 9.54037 
63 1 7.09035 8.83777 8.81836 
73 1 8.81538 8.83871 7.09592 
77 1 8.79039 7.11702 8.79315 
81 2 11.9989 12.5607 10.6223 
ITEM: TIMESTEP
100
ITEM: NUMBER OF ATOMS
81
ITEM: BOX BOUNDS pp pp pp
0.0000000000000000e+00 1.3416000000000000e+01
0.0000000000000000e+00 1.3416000000000000e+01
0.0000000000000000e+00 1.3414999999999999e+01
ITEM: ATOMS id type x y z 
21 1 1.92379 1.90845 1.90995 
22 1 2.79417 2.7923 2.79727 
23 1 0.400511 2.09576 2.11635 
33 1 2.11373 2.09318 0.383543 
37 1 2.10963 0.383571 2.10043 
41 1 4.36331 4.37447 4.37149 
42 1 3.48595 3.49049 3.49146 
43 1 4.1756 5.90119 4.18112 
53 1 4.17145 4.18595 5.89619 
57 1 5.8878 4.18646 4.17708 
4 1 1.91486 1.90167 11.0801 
5 1 2.78888 2.78748 10.1969 
6 1 2.07603 0.371802 10.8875 
16 1 2.11282 2.08995 12.6026 
19 1 0.392762 2.13875 10.9177 
64 1 4.35235 4.37362 8.61927 
65 1 3.47572 3.49006 9.50237 
66 1 5.87836 4.19178 8.80236 
76 1 4.16712 4.18469 7.0921 
79 1 4.17165 5.89924 8.80613 
10 1 1.911 11.0789 1.91668 
11 1 2.794 10.2014 2.79745 
12 1 2.10509 12.6037 2.10225 
15 1 2.10604 10.8892 0.391458 
18 1 0.383999 10.8907 2.10169 
67 1 4.3697 8.62017 4.36757 
68 1 3.48785 9.50479 3.49121 
69 1 5.89531 8.8115 4.18251 
74 1 4.18163 8.81007 5.89379 
80 1 4.17796 7.0971 4.18044 
30 1 1.90704 11.0579 11.0823 
31 1 2.79642 10.1819 10.1978 
32 1 0.40645 10.7748 10.9251 
35 1 2.10698 10.8844 12.611 
38 1 2.07143 12.5919 10.8888 
47 1 4.37538 8.62014 8.61415 
48 1 3.49349 9.49509 9.49899 
49 1 4.18017 7.09499 8.80382 
54 1 4.18335 8.80912 7.08943 
60 1 5.89647 8.82525 8.81088 
7 1 11.092 1.90975 1.95868 
8 1 10.2055 2.7997 2.82294 
9 1 10.8956 0.385213 2.12885 
14 1 10.8925 2.12127 0.438114 
20 1 12.621 2.09757 2.13302 
70 1 8.60803 4.38343 4.36539 
71 1 9.49905 3.49769 3.50221 
72 1 7.08348 4.18879 4.17426 
75 1 8.79626 4.19659 5.89042 
78 1 8.80047 5.90953 4.17734 
27 1 11.0748 1.97895 11.1228 
28 1 10.1758 2.86483 10.226 
29 1 12.6148 2.16614 10.9309 
34 1 10.8854 2.14094 12.6589 
40 1 10.913 0.508789 10.8412 
50 1 8.59796 4.39574 8.60925 
51 1 9.48214 3.53879 9.51523 
52 1 8.78476 5.91907 8.79022 
55 1 8.79457 4.1986 7.08618 
58 1 7.0742 4.19942 8.79929 
24 1 11.0763 11.0792 1.90734 
25 1 10.1917 10.1989 2.79583 
26 1 12.6044 10.891 2.0991 
36 1 10.9019 10.8778 0.395434 
39 1 10.8906 12.6059 2.11209 
44 1 8.61671 8.62915 4.37757 
45 1 9.49787 9.50741 3.49285 
46 1 8.80256 7.10527 4.18249 
56 1 8.81058 8.83035 5.90144 
59 1 7.09131 8.81396 4.18568 
1 1 11.1476 10.8717 11.1359 
2 1 10.2609 10.0824 10.2673 
3 1 10.8913 12.7062 10.6307 
13 1 10.9179 10.8227 12.6036 
17 1 12.6186 10.7094 10.9377 
61 1 8.62405 8.64751 8.62589 
62 1 9.5285 9.44218 9.53892 
63 1 7.09166 8.83743 8.81775 
73 1 8.81464 8.83899 7.0966 
77 1 8.79058 7.11491 8.79395 
81 2 12.0038 12.562 10.6006 
ITEM: TIMESTEP
110
ITEM: NUMBER OF ATOMS
81
ITEM: BOX BOUNDS pp pp pp
0.0000000000000000e+00 1.3416000000000000e+01
0.0000000000000000e+00 1.3416000000000000e+01
0.0000000000000000e+00 1.3414999999999999e+01
ITEM: ATOMS id type x y z 
21 1 1.92289 1.90877 1.91047 
22 1 2.79683 2.79284 2.79446 
23 1 0.400179 2.09588 2.11612 
33 1 2.11347 2.09273 0.384321 
37 1 2.10945 0.383478 2.10083 
41 1 4.36285 4.37503 4.37211 
42 1 3.48608 3.49047 3.49141 
43 1 4.17576 5.90075 4.18118 
53 1 4.17136 4.18589 5.89684 
57 1 5.88768 4.18682 4.1775 
4 1 1.91399 1.90132 11.0799 
5 1 2.78874 2.78765 10.1979 
6 1 2.0753 0.371633 10.8881 
16 1 2.11251 2.08973 12.6035 
19 1 0.39225 2.13808 10.9173 
64 1 4.35152 4.37372 8.61844 
65 1 3.47727 3.48637 9.50129 
66 1 5.87782 4.19166 8.80284 
76 1 4.1671 4.18487 7.09273 
79 1 4.17146 5.90008 8.80618 
10 1 1.91121 11.0795 1.91659 
11 1 2.79314 10.1994 2.79691 
12 1 2.10518 12.6038 2.1024 
15 1 2.10613 10.8893 0.392039 
18 1 0.384539 10.891 2.1018 
67 1 4.36995 8.62149 4.36858 
68 1 3.48814 9.50432 3.49067 
69 1 5.89544 8.81159 4.1827 
74 1 4.18183 8.80977 5.89379 
80 1 4.17799 7.0965 4.18027 
30 1 1.90733 11.0587 11.0829 
31 1 2.79645 10.1835 10.197 
32 1 0.407271 10.7753 10.9254 
35 1 2.10719 10.8841 12.6116 
38 1 2.07107 12.5916 10.8895 
47 1 4.37581 8.6201 8.6146 
48 1 3.49249 9.494 9.49982 
49 1 4.18064 7.09586 8.80354 