LAMMPS (3 Mar 2020)
# Alpha
clear
units		real
dimension 3
boundary        p p p
atom_style	charge
newton on
read_data       H_24.lmp
  orthogonal box = (0 0 0) to (11 11.002 11)
  2 by 2 by 2 MPI processor grid
  reading atoms ...
  49 atoms
  read_data CPU = 0.00932681 secs

timestep 0.25

# ---------- Define Interatomic Potential ---------------------
pair_style      reax/c NULL checkqeq no
pair_coeff      * * ffield.reax C H
fix             2 all qeq/reax 1 0.0 10.0 1.0e-6 reax/c

#------------ Equilibration of the system -------------------------
reset_timestep 0

dump 1 all custom 10 min.lammpstrj id type x y z

minimize 1.0e-8 1.0e-8 100000 100000
WARNING: Using 'neigh_modify every 1 delay 0 check yes' setting during minimization (../min.cpp:190)
WARNING: Total cutoff < 2*bond cutoff. May need to use an increased neighbor list skin. (../pair_reaxc.cpp:413)
Neighbor list info ...
  update every 1 steps, delay 0 steps, check yes
  max neighbors/atom: 2000, page size: 100000
  master list distance cutoff = 9.5
  ghost atom cutoff = 9.5
  binsize = 4.75, bins = 3 3 3
  2 neighbor lists, perpetual/occasional/extra = 2 0 0
  (1) pair reax/c, perpetual
      attributes: half, newton off, ghost
      pair build: half/bin/newtoff/ghost
      stencil: half/ghost/bin/3d/newtoff
      bin: standard
  (2) fix qeq/reax, perpetual, copy from (1)
      attributes: half, newton off, ghost
      pair build: copy
      stencil: none
      bin: none
Per MPI rank memory allocation (min/avg/max) = 18.75 | 18.81 | 18.91 Mbytes
Step Temp E_pair E_mol TotEng Press 
       0            0   -8626.6703            0   -8626.6703     52252.67 
     166            0   -8723.8353            0   -8723.8353   -5885.3415 
Loop time of 3.66882 on 8 procs for 166 steps with 49 atoms

99.4% CPU use with 8 MPI tasks x no OpenMP threads

Minimization stats:
  Stopping criterion = energy tolerance
  Energy initial, next-to-last, final = 
        -8626.67027268     -8723.83522877     -8723.83526777
  Force two-norm initial, final = 590.571 33.9975
  Force max component initial, final = 227.916 7.73681
  Final line search alpha, max atom move = 1.66117e-06 1.28521e-05
  Iterations, force evaluations = 166 1458

MPI task timing breakdown:
Section |  min time  |  avg time  |  max time  |%varavg| %total
---------------------------------------------------------------
Pair    | 2.8713     | 2.9041     | 2.9833     |   1.9 | 79.16
Neigh   | 0          | 0          | 0          |   0.0 |  0.00
Comm    | 0.026084   | 0.10518    | 0.13791    |   9.9 |  2.87
Output  | 0.00035232 | 0.00050172 | 0.00087826 |   0.0 |  0.01
Modify  | 0.65084    | 0.65112    | 0.65132    |   0.0 | 17.75
Other   |            | 0.007912   |            |       |  0.22

Nlocal:    6.125 ave 7 max 6 min
Histogram: 7 0 0 0 0 0 0 0 0 1
Nghost:    598.125 ave 603 max 595 min
Histogram: 3 0 0 0 0 3 1 0 0 1
Neighs:    773.5 ave 881 max 755 min
Histogram: 7 0 0 0 0 0 0 0 0 1

Total # of neighbors = 6188
Ave neighs/atom = 126.286
Neighbor list builds = 0
Dangerous builds = 0

###
min_style cg
minimize 1.0e-8 1.0e-8 100000 100000
WARNING: Using 'neigh_modify every 1 delay 0 check yes' setting during minimization (../min.cpp:190)
WARNING: Total cutoff < 2*bond cutoff. May need to use an increased neighbor list skin. (../pair_reaxc.cpp:413)
Per MPI rank memory allocation (min/avg/max) = 18.75 | 18.81 | 18.91 Mbytes
Step Temp E_pair E_mol TotEng Press 
     166            0   -8723.8353            0   -8723.8353   -5885.3415 
     399            0   -8738.7123            0   -8738.7123    29366.563 
Loop time of 5.562 on 8 procs for 233 steps with 49 atoms

99.3% CPU use with 8 MPI tasks x no OpenMP threads

Minimization stats:
  Stopping criterion = energy tolerance
  Energy initial, next-to-last, final = 
        -8723.83526777     -8738.71220379     -8738.71225441
  Force two-norm initial, final = 33.9975 217.429
  Force max component initial, final = 7.73681 90.8625
  Final line search alpha, max atom move = 0.000208073 0.0189061
  Iterations, force evaluations = 233 2228

MPI task timing breakdown:
Section |  min time  |  avg time  |  max time  |%varavg| %total
---------------------------------------------------------------
Pair    | 4.3947     | 4.4278     | 4.5503     |   2.3 | 79.61
Neigh   | 0          | 0          | 0          |   0.0 |  0.00
Comm    | 0.037999   | 0.1605     | 0.19353    |  11.9 |  2.89
Output  | 0.00052082 | 0.00065014 | 0.0011266  |   0.0 |  0.01
Modify  | 0.96087    | 0.96111    | 0.96128    |   0.0 | 17.28
Other   |            | 0.0119     |            |       |  0.21

Nlocal:    6.125 ave 7 max 6 min
Histogram: 7 0 0 0 0 0 0 0 0 1
Nghost:    598.125 ave 600 max 597 min
Histogram: 4 0 0 1 0 0 1 0 0 2
Neighs:    784 ave 893 max 763 min
Histogram: 7 0 0 0 0 0 0 0 0 1

Total # of neighbors = 6272
Ave neighs/atom = 128
Neighbor list builds = 0
Dangerous builds = 0

###
fix 1 all box/relax aniso 0.0
min_style cg
minimize 1.0e-8 1.0e-8 100000 100000
WARNING: Using 'neigh_modify every 1 delay 0 check yes' setting during minimization (../min.cpp:190)
WARNING: Total cutoff < 2*bond cutoff. May need to use an increased neighbor list skin. (../pair_reaxc.cpp:413)
Per MPI rank memory allocation (min/avg/max) = 18.75 | 18.81 | 18.91 Mbytes
Step Temp E_pair E_mol TotEng Press Volume 
     399            0   -8738.7123            0   -8738.7123    29366.563     1331.242 
    2283            0   -8790.8473            0   -8790.8473    822.07305    1352.3304 
Loop time of 6.36715 on 8 procs for 1884 steps with 49 atoms

99.4% CPU use with 8 MPI tasks x no OpenMP threads

Minimization stats:
  Stopping criterion = energy tolerance
  Energy initial, next-to-last, final = 
        -8738.71225441     -8790.84727331     -8790.84731221
  Force two-norm initial, final = 1018.8 32.6839
  Force max component initial, final = 636.495 21.1144
  Final line search alpha, max atom move = 5.1896e-07 1.09575e-05
  Iterations, force evaluations = 1884 2678

MPI task timing breakdown:
Section |  min time  |  avg time  |  max time  |%varavg| %total
---------------------------------------------------------------
Pair    | 5.2749     | 5.3865     | 5.4873     |   2.6 | 84.60
Neigh   | 0          | 0          | 0          |   0.0 |  0.00
Comm    | 0.042526   | 0.14288    | 0.25483    |  15.9 |  2.24
Output  | 0.0035075  | 0.0042992  | 0.0071412  |   1.7 |  0.07
Modify  | 0.78468    | 0.78478    | 0.78486    |   0.0 | 12.33
Other   |            | 0.04866    |            |       |  0.76

Nlocal:    6.125 ave 7 max 6 min
Histogram: 7 0 0 0 0 0 0 0 0 1
Nghost:    599.375 ave 609 max 586 min
Histogram: 1 0 1 0 1 0 2 1 0 2
Neighs:    788.75 ave 895 max 769 min
Histogram: 7 0 0 0 0 0 0 0 0 1

Total # of neighbors = 6310
Ave neighs/atom = 128.776
Neighbor list builds = 0
Dangerous builds = 0

unfix 1
###
min_style cg
minimize 1.0e-8 1.0e-8 100000 100000
WARNING: Using 'neigh_modify every 1 delay 0 check yes' setting during minimization (../min.cpp:190)
WARNING: Total cutoff < 2*bond cutoff. May need to use an increased neighbor list skin. (../pair_reaxc.cpp:413)
Per MPI rank memory allocation (min/avg/max) = 18.75 | 18.81 | 18.91 Mbytes
Step Temp E_pair E_mol TotEng Press 
    2283            0   -8790.8473            0   -8790.8473    822.07305 
    2312            0   -8791.1113            0   -8791.1113   -449.65998 
Loop time of 0.618749 on 8 procs for 29 steps with 49 atoms

99.3% CPU use with 8 MPI tasks x no OpenMP threads

Minimization stats:
  Stopping criterion = energy tolerance
  Energy initial, next-to-last, final = 
        -8790.84731221     -8791.11123589     -8791.11128111
  Force two-norm initial, final = 15.4649 7.98917
  Force max component initial, final = 6.65148 2.3131
  Final line search alpha, max atom move = 0.000671692 0.00155369
  Iterations, force evaluations = 29 249

MPI task timing breakdown:
Section |  min time  |  avg time  |  max time  |%varavg| %total
---------------------------------------------------------------
Pair    | 0.48487    | 0.48876    | 0.49953    |   0.6 | 78.99
Neigh   | 0          | 0          | 0          |   0.0 |  0.00
Comm    | 0.0040603  | 0.014822   | 0.018706   |   3.7 |  2.40
Output  | 6.4811e-05 | 8.2132e-05 | 0.00014999 |   0.0 |  0.01
Modify  | 0.11367    | 0.11369    | 0.11372    |   0.0 | 18.37
Other   |            | 0.001386   |            |       |  0.22

Nlocal:    6.125 ave 7 max 6 min
Histogram: 7 0 0 0 0 0 0 0 0 1
Nghost:    570.625 ave 574 max 566 min
Histogram: 1 0 1 0 0 1 2 1 1 1
Neighs:    777.5 ave 878 max 757 min
Histogram: 7 0 0 0 0 0 0 0 0 1

Total # of neighbors = 6220
Ave neighs/atom = 126.939
Neighbor list builds = 0
Dangerous builds = 0

###
fix 1 all box/relax aniso 0.0
min_style cg
minimize 1.0e-8 1.0e-8 100000 100000
WARNING: Using 'neigh_modify every 1 delay 0 check yes' setting during minimization (../min.cpp:190)
WARNING: Total cutoff < 2*bond cutoff. May need to use an increased neighbor list skin. (../pair_reaxc.cpp:413)
Per MPI rank memory allocation (min/avg/max) = 18.75 | 18.81 | 18.91 Mbytes
Step Temp E_pair E_mol TotEng Press Volume 
    2312            0   -8791.1113            0   -8791.1113   -449.65998    1352.3304 
    2358            0   -8791.1913            0   -8791.1913   -75.043671    1352.2487 
Loop time of 0.200551 on 8 procs for 46 steps with 49 atoms

99.3% CPU use with 8 MPI tasks x no OpenMP threads

Minimization stats:
  Stopping criterion = energy tolerance
  Energy initial, next-to-last, final = 
        -8791.11128111     -8791.19122022     -8791.19127938
  Force two-norm initial, final = 18.3035 9.91495
  Force max component initial, final = 13.007 4.22295
  Final line search alpha, max atom move = 1.67495e-05 7.07322e-05
  Iterations, force evaluations = 46 85

MPI task timing breakdown:
Section |  min time  |  avg time  |  max time  |%varavg| %total
---------------------------------------------------------------
Pair    | 0.1669     | 0.16845    | 0.17249    |   0.4 | 83.99
Neigh   | 0          | 0          | 0          |   0.0 |  0.00
Comm    | 0.001307   | 0.0053416  | 0.0068761  |   2.2 |  2.66
Output  | 7.6315e-05 | 9.4631e-05 | 0.00016045 |   0.0 |  0.05
Modify  | 0.025175   | 0.025181   | 0.025189   |   0.0 | 12.56
Other   |            | 0.001487   |            |       |  0.74

Nlocal:    6.125 ave 7 max 6 min
Histogram: 7 0 0 0 0 0 0 0 0 1
Nghost:    573.125 ave 579 max 570 min
Histogram: 1 1 3 0 1 1 0 0 0 1
Neighs:    778 ave 878 max 757 min
Histogram: 7 0 0 0 0 0 0 0 0 1

Total # of neighbors = 6224
Ave neighs/atom = 127.02
Neighbor list builds = 0
Dangerous builds = 0

unfix 1
###
min_style cg
minimize 1.0e-8 1.0e-8 100000 100000
WARNING: Using 'neigh_modify every 1 delay 0 check yes' setting during minimization (../min.cpp:190)
WARNING: Total cutoff < 2*bond cutoff. May need to use an increased neighbor list skin. (../pair_reaxc.cpp:413)
Per MPI rank memory allocation (min/avg/max) = 18.75 | 18.81 | 18.91 Mbytes
Step Temp E_pair E_mol TotEng Press 
    2358            0   -8791.1913            0   -8791.1913   -75.043671 
    2399            0   -8791.4866            0   -8791.4866   -80.515253 
Loop time of 0.935053 on 8 procs for 41 steps with 49 atoms

99.4% CPU use with 8 MPI tasks x no OpenMP threads

Minimization stats:
  Stopping criterion = energy tolerance
  Energy initial, next-to-last, final = 
        -8791.19127938     -8791.48659068      -8791.4866457
  Force two-norm initial, final = 8.48781 10.0877
  Force max component initial, final = 3.619 4.67696
  Final line search alpha, max atom move = 1.69045e-05 7.90615e-05
  Iterations, force evaluations = 41 378

MPI task timing breakdown:
Section |  min time  |  avg time  |  max time  |%varavg| %total
---------------------------------------------------------------
Pair    | 0.72906    | 0.73772    | 0.75869    |   1.0 | 78.90
Neigh   | 0          | 0          | 0          |   0.0 |  0.00
Comm    | 0.0060013  | 0.026958   | 0.035604   |   5.1 |  2.88
Output  | 8.4659e-05 | 0.00010919 | 0.00020577 |   0.0 |  0.01
Modify  | 0.16811    | 0.16819    | 0.16825    |   0.0 | 17.99
Other   |            | 0.002076   |            |       |  0.22

Nlocal:    6.125 ave 7 max 6 min
Histogram: 7 0 0 0 0 0 0 0 0 1
Nghost:    565.625 ave 573 max 560 min
Histogram: 2 1 0 1 1 0 1 0 1 1
Neighs:    778.25 ave 880 max 758 min
Histogram: 7 0 0 0 0 0 0 0 0 1

Total # of neighbors = 6226
Ave neighs/atom = 127.061
Neighbor list builds = 0
Dangerous builds = 0

undump 1
#############
#----------- Thermo ------------
reset_timestep 0
thermo  200

thermo_style    custom step temp etotal ke pe press
velocity all create 300 12345 mom yes rot yes
fix 1 all npt temp 300 300 25.0 iso 0.0 0.0 250.0

variable vpe equal pe
variable vtemp equal temp
variable vstep equal step

fix output all print 2500 "${vstep} ${vtemp} ${vpe}" file temp-tpdh-Pt.dat screen no

dump 1 all custom 2500 thermo-tpdh-Pt.lammpstrj id type x y z

run 1000000
WARNING: Total cutoff < 2*bond cutoff. May need to use an increased neighbor list skin. (../pair_reaxc.cpp:413)
Per MPI rank memory allocation (min/avg/max) = 17.63 | 17.68 | 17.78 Mbytes
Step Temp TotEng KinEng PotEng Press 
       0          300    -8748.563    42.923665   -8791.4866    1370.5037 
     200    197.90589   -8731.3042    28.316154   -8759.6204   -1660.9634 
     400    355.98594   -8703.7506    50.934071   -8754.6847   -58603.374 
     600    275.36887   -8697.6599    39.399471   -8737.0593   -6315.1319 
     800    250.63296   -8712.6435    35.860283   -8748.5037   -11160.016 
    1000    288.62426   -8709.3621    41.296036   -8750.6581     774.0141 
    1200    307.20745    -8697.053    43.954899   -8741.0079    644.49145 
    1400    280.72302   -8706.1792    40.165536   -8746.3448   -7594.8192 
    1600    247.43299   -8722.4334    35.402435   -8757.8358     10720.82 
    1800    322.47663   -8716.3855    46.139596   -8762.5251   -11171.382 
    2000    275.55433   -8703.2921    39.426006   -8742.7181   -1594.5458 
    2200    343.64519   -8701.8419     49.16837   -8751.0103    6561.3337 
    2400    263.13272   -8716.8965    37.648735   -8754.5452   -28397.413 
    2600     309.4855   -8700.9744    44.280839   -8745.2552      23550.8 
    2800    343.00568   -8701.7307     49.07687   -8750.8076      40387.2 
    3000    262.17147    -8713.293      37.5112   -8750.8042   -49394.415 
    3200    356.84296   -8695.6996    51.056692   -8746.7563   -33285.607 
    3400    327.51569   -8703.6953    46.860579   -8750.5559    -35688.54 
    3600    274.75466   -8713.3339     39.31159   -8752.6455    29833.259 
    3800    266.94296   -8707.4819    38.193901   -8745.6758     59064.21 
    4000    319.06406   -8701.9174    45.651329   -8747.5688    10451.042 
    4200    269.47551   -8715.0178    38.556254    -8753.574    22915.781 
    4400    293.66147   -8707.8435    42.016754   -8749.8603    30179.038 
    4600    340.92215   -8701.8914    48.778761   -8750.6702   -25228.502 
    4800    357.15313   -8702.6066    51.101071   -8753.7077   -3991.3768 
    5000    301.68011   -8705.7686    43.164054   -8748.9326   -28539.603 
    5200    302.05367   -8711.4277    43.217502   -8754.6452    36565.814 
    5400    323.16779   -8697.3328    46.238487   -8743.5713   -20642.246 
    5600    300.94219    -8705.228    43.058472   -8748.2865    14407.676 
    5800    316.67564   -8712.3995    45.309596   -8757.7091    18732.736 
    6000    328.78076   -8701.2192    47.041583   -8748.2607    11806.871 
    6200    313.77623   -8701.6644    44.894752   -8746.5592   -18689.646 
    6400    353.24565    -8705.478    50.541993     -8756.02   -29560.725 
    6600    235.65065   -8712.1876    33.716632   -8745.9043   -12415.076 
    6800    301.26734    -8703.208    43.104995    -8746.313    37313.463 
    7000    358.44979   -8694.5467    51.286596   -8745.8333    2739.0361 
    7200    255.42123   -8715.3617    36.545384    -8751.907    38925.909 
    7400    325.73978   -8705.0473    46.606483   -8751.6538     23.58222 
    7600    312.12557   -8702.8448    44.658577   -8747.5034   -26491.873 
    7800    286.19381   -8706.8436    40.948291   -8747.7919   -13989.108 
    8000    236.73821   -8720.0024    33.872238   -8753.8746    29060.626 
    8200     297.3087   -8704.9324    42.538597    -8747.471   -36710.014 
    8400    366.44172   -8697.8909    52.430072    -8750.321   -13684.101 
    8600    278.28222   -8711.2287    39.816309    -8751.045    7724.7913 
    8800    347.86975   -8707.5574    49.772815   -8757.3302    24693.065 
    9000    357.40962   -8692.1735    51.137769   -8743.3113   -43858.258 
    9200     369.7975   -8685.2726    52.910213   -8738.1828    10495.791 
    9400    289.44803   -8704.4625      41.4139   -8745.8764   -4389.6324 
    9600    289.94743   -8714.3192    41.485355   -8755.8046    38837.454 
    9800    326.38608    -8696.777    46.698955    -8743.476    14695.766 
   10000    275.49665   -8707.2894    39.417753   -8746.7071   -13231.205 
   10200    300.73799   -8707.3552    43.029256   -8750.3845   -11374.799 
   10400    338.37115   -8691.8951    48.413766   -8740.3089    6321.0814 
   10600    279.41766   -8710.9217    39.978767   -8750.9005    4894.0173 
   10800    335.40822   -8708.9288    47.989834   -8756.9186     -38162.3 
   11000    320.14587   -8690.6279    45.806114    -8736.434    36315.533 
   11200    283.67276   -8704.3606    40.587581   -8744.9482     46857.25 
   11400     272.1051   -8707.5419    38.932494   -8746.4744    48630.785 
   11600    336.16572    -8698.609    48.098216   -8746.7073    12784.938 
   11800    357.96464   -8698.6607     51.21718   -8749.8779    31434.919 
   12000    260.68037   -8714.4133    37.297856   -8751.7111    8084.8011 
   12200    330.33818   -8698.5758    47.264418   -8745.8402   -1542.1571 
   12400     315.7695   -8700.8718    45.179947   -8746.0518    -40967.77 
   12600    263.57616   -8711.2763    37.712182   -8748.9884   -40581.505 
   12800    328.82069   -8694.6822    47.047297   -8741.7295    14081.434 
   13000    250.08965   -8702.9409    35.782548   -8738.7235   -25169.057 
   13200    289.97692   -8710.4142    41.489574   -8751.9037   -33468.643 
   13400    320.98086   -8693.0423    45.925582   -8738.9679   -15914.416 
   13600    259.27388   -8706.3734    37.096617     -8743.47    40584.537 
   13800    296.11141   -8709.9106     42.36729   -8752.2779   -40364.868 
   14000    247.42291   -8709.6233    35.400993   -8745.0243    19065.738 
   14200     299.8273   -8700.4678    42.898955   -8743.3668   -13224.296 
   14400    271.31243   -8712.4369     38.81908    -8751.256    4129.3801 
   14600    223.17592   -8715.9495    31.931761   -8747.8812      23483.1 
   14800    305.21134   -8698.8199    43.669298   -8742.4892   -6878.7126 
   15000    265.42136   -8709.6113    37.976192   -8747.5874   -12667.703 
   15200    358.61631   -8690.0788    51.310421   -8741.3892   -43311.744 
   15400    293.23615   -8706.5795    41.955901   -8748.5354   -18550.422 
   15600     280.2214    -8711.497    40.093765   -8751.5907    34563.273 
   15800     350.5776    -8695.916    50.160251   -8746.0763   -41450.856 
   16000    283.46694   -8702.9716    40.558133   -8743.5297    1165.6978 
   16200    297.64594   -8705.0986    42.586848   -8747.6855    4597.9584 
   16400    198.65015   -8723.7919    28.422642   -8752.2145    37973.744 
   16600    275.21828   -8711.2243    39.377924   -8750.6023    2054.8391 
   16800     345.2243   -8700.3812    49.394306   -8749.7755    11064.287 
   17000    284.29801   -8712.3083    40.677042   -8752.9853   -18397.464 
   17200    281.92237   -8722.9605    40.337138   -8763.2976   -21571.717 
   17400    268.92373    -8708.629    38.477307   -8747.1063   -10171.057 
   17600    355.80824   -8699.3677    50.908646   -8750.2764   -278.39648 
   17800     254.3013   -8714.1847    36.385146   -8750.5699    937.77555 
   18000    320.33158   -8701.9217    45.832684   -8747.7544    8705.1673 
   18200    301.94681   -8693.7896    43.202212   -8736.9918    27094.781 
   18400    270.79931   -8711.4714    38.745663   -8750.2171   -16297.279 
   18600    285.10449   -8703.5628    40.792432   -8744.3552   -42873.173 
   18800    338.23602   -8694.7965    48.394432   -8743.1909    13246.739 
   19000    299.98937   -8705.6714    42.922144   -8748.5936   -8414.4737 
   19200    261.57702   -8710.0612    37.426148   -8747.4873    -1158.207 
   19400    364.21146   -8693.8571    52.110969    -8745.968   -3547.9007 
   19600    272.90426   -8704.9772    39.046837   -8744.0241   -4988.9461 
   19800    281.66016   -8709.5783    40.299621   -8749.8779    1199.8816 
   20000    289.10261    -8696.215    41.364478   -8737.5795    57587.648 
   20200    315.89374   -8696.2973    45.197724   -8741.4951   -13479.181 
   20400    273.21121    -8707.993    39.090754   -8747.0838     31972.11 
   20600    312.93369   -8704.8785    44.774202   -8749.6527    9860.8897 
   20800    340.48755   -8692.7662    48.716577   -8741.4828   -3510.3196 
   21000     228.3789   -8712.6917    32.676198   -8745.3679   -16598.869 
   21200    308.74402   -8703.0307    44.174749   -8747.2055   -5592.6516 
   21400    245.19413   -8707.8203    35.082102   -8742.9024   -17532.858 
   21600    266.30283   -8719.3272    38.102312   -8757.4295    -27850.04 
   21800    290.00981    -8702.366     41.49428   -8743.8603   -22869.368 
   22000    330.55265   -8703.8754    47.295103   -8751.1705    15657.587 
   22200    278.90754   -8712.4214    39.905779   -8752.3272    21368.134 
   22400    313.79326   -8696.4613    44.897189   -8741.3585   -29004.077 
   22600    325.65157   -8698.6572    46.593863   -8745.2511   -16323.355 
   22800    289.89254   -8714.8123    41.477501   -8756.2898   -4826.3309 
   23000    332.95506   -8699.6272    47.638838   -8747.2661   -14520.718 
   23200    336.98451   -8700.2002    48.215366   -8748.4155    20258.711 
   23400    331.93527   -8706.1385    47.492928   -8753.6314    19197.934 
   23600    308.41595   -8706.9591    44.127809   -8751.0869    5238.2357 
   23800    317.85287   -8695.2195    45.478033   -8740.6975    5461.0239 
   24000    261.13351   -8710.1861     37.36269   -8747.5488    6309.8299 
   24200    297.24157    -8710.548    42.528992    -8753.077   -644.00107 
   24400     370.0888    -8694.164    52.951892   -8747.1159    27479.173 
   24600    292.26874   -8703.8047    41.817484   -8745.6221   -7940.7989 
   24800    308.63057   -8707.5686    44.158517   -8751.7271    15205.795 
   25000    288.42444    -8714.351    41.267446   -8755.6184    -31001.57 
   25200    277.07076   -8697.3173    39.642975   -8736.9602    4959.5168 
   25400    266.58203   -8703.6349    38.142258   -8741.7772    51934.378 
   25600    251.91133   -8711.1018    36.043191   -8747.1449   -28669.203 
   25800    305.52529    -8699.686    43.714217   -8743.4003    19732.479 
   26000    274.23174   -8710.9086     39.23677   -8750.1454    34843.384 
   26200    295.13436   -8712.8142    42.227494   -8755.0417    7495.7892 
   26400    286.06873   -8701.0344    40.930394   -8741.9648   -18520.102 
   26600    273.47902   -8707.7331    39.129073   -8746.8622   -54496.733 
   26800    229.75027   -8722.2933    32.872412   -8755.1657   -25430.895 
   27000     301.2839   -8705.3824    43.107364   -8748.4897    52536.293 
   27200    357.14853   -8699.5515    51.100413   -8750.6519    48979.194 
   27400    263.95398   -8714.5251     37.76624   -8752.2913    -13402.12 
   27600    269.18456   -8708.9267    38.514626   -8747.4414    32210.888 
   27800    325.05443   -8701.0068    46.508424   -8747.5152    29696.208 
   28000    313.18294   -8707.2073    44.809866   -8752.0172   -5739.5698 
   28200    262.49567   -8716.2988    37.557587   -8753.8564     3822.793 
   28400    334.77628   -8697.6506    47.899416     -8745.55   -28030.113 
   28600    354.25128   -8700.6316    50.685878   -8751.3174    19066.033 
   28800    273.10244   -8713.5712    39.075192   -8752.6464   -12484.526 
   29000    315.29949   -8702.5368    45.112699   -8747.6495   -10116.908 
   29200     286.5256   -8700.9048    40.995763   -8741.9006    26103.692 
   29400    283.12997    -8706.374     40.50992   -8746.8839   -29460.058 
   29600    235.12497   -8719.1161    33.641418   -8752.7575    35186.212 
   29800    295.09917   -8699.8488     42.22246   -8742.0713   -5576.1712 
   30000    281.46413    -8703.102    40.271573   -8743.3736    9442.0613 
   30200    222.54104   -8715.7266    31.840924   -8747.5675     6010.626 
   30400    309.69215   -8698.4173    44.310407   -8742.7277    23340.976 
   30600    298.99109   -8701.3735    42.779312   -8744.1529    -14322.19 
   30800    270.39781   -8716.5457    38.688217   -8755.2339    34333.048 
   31000    292.24357   -8709.3349    41.813883   -8751.1488   -21749.479 
   31200    333.07214   -8701.8308     47.65559   -8749.4864   -13212.454 
   31400     331.6055   -8688.7738    47.445744   -8736.2195   -48182.701 
   31600     273.0052   -8708.5475    39.061279   -8747.6087    23915.437 
   31800    335.22372   -8705.9368    47.963435   -8753.9002   -16736.228 
   32000    377.55445   -8688.2414    54.020068   -8742.2615   -29998.073 
   32200    315.90788   -8709.0807    45.199746   -8754.2804   -26668.886 
   32400    309.78927   -8706.4434    44.324303   -8750.7677   -13670.849 
   32600    347.25567   -8692.7865    49.684954   -8742.4715   -43081.097 
   32800    295.87016   -8701.1292    42.332772    -8743.462    14965.681 
   33000    314.35956   -8706.4298    44.978215    -8751.408   -14970.188 
   33200    348.63115   -8695.5398    49.881755   -8745.4216    21430.174 
   33400    243.11817   -8713.7858    34.785076   -8748.5708    1234.1706 
   33600    270.58799   -8703.9157    38.715427   -8742.6311   -97641.481 
   33800    307.96244   -8695.2988    44.062922   -8739.3617   -10970.153 
   34000    283.44962   -8703.2341    40.555655   -8743.7897   -5251.8986 
   34200    278.52752   -8705.5962    39.851406   -8745.4476    5557.2266 
   34400    317.27335   -8702.4637    45.395116   -8747.8588   -3963.9163 
   34600    312.55535     -8712.63     44.72007   -8757.3501   -15394.415 
   34800    292.50662   -8714.5726     41.85152   -8756.4241    49916.373 
   35000    308.64886   -8703.6183    44.161134   -8747.7795    6150.4349 
   35200    315.23082   -8698.3119    45.102874   -8743.4148     4465.581 
   35400    308.46383   -8700.4902    44.134659   -8744.6248    4572.2099 
   35600     321.0732   -8710.0999    45.938794   -8756.0387    27150.081 
   35800    327.20293   -8698.8114     46.81583   -8745.6272    11438.155 
   36000    420.00101    -8677.996    60.093275   -8738.0893    7684.0966 
   36200    269.44469   -8700.8887    38.551845   -8739.4406    3660.6367 
   36400    267.70598   -8711.8756    38.303072   -8750.1787     -15068.9 
   36600    324.12783   -8705.3837    46.375848   -8751.7595   -1925.6866 
   36800    334.06755    -8697.964    47.798012    -8745.762   -20309.066 
   37000    300.10678   -8711.9955    42.938943   -8754.9344   -11608.237 
   37200    268.58645   -8708.7757    38.429049   -8747.2048    -31862.84 
   37400    325.46038   -8700.3504    46.566507   -8746.9169    4671.0559 
   37600    319.66933   -8701.3494     45.73793   -8747.0874    24198.694 
   37800    262.96323   -8711.2573    37.624485   -8748.8818    16919.992 
   38000    329.66546    -8707.785    47.168165   -8754.9531    6212.9506 
   38200    337.69823    -8697.608    48.317485   -8745.9255   -12692.153 
   38400    296.32549    -8709.879     42.39792   -8752.2769   -8073.4748 
   38600    221.51528   -8726.0443    31.694159   -8757.7385   -2723.5309 
   38800    292.64388   -8708.3182    41.871159   -8750.1894    9254.9391 
   39000    291.64939   -8698.4951    41.728868   -8740.2239   -12802.762 
   39200    257.07643   -8714.5122    36.782209   -8751.2944    26442.296 
   39400    315.74947   -8709.4774    45.177081   -8754.6544    14970.565 
   39600    263.33345   -8704.3351    37.677455   -8742.0125    12214.724 
   39800    294.96979   -8701.8847    42.203948   -8744.0887    6845.9947 
   40000     295.0038    -8712.235    42.208813   -8754.4438   -1281.1509 
   40200    301.65163   -8705.5057    43.159977   -8748.6657    -18531.75 
   40400    315.73102   -8699.0883    45.174441   -8744.2628    12211.272 
   40600    319.75763   -8706.7544    45.750564    -8752.505   -15906.375 
   40800    301.85273   -8704.6072    43.188751   -8747.7959   -15981.544 
   41000    346.78335   -8690.8143    49.617374   -8740.4317    37163.747 
   41200    323.62449   -8704.6653    46.303831   -8750.9691    22111.224 
   41400    299.28493    -8707.717    42.821353   -8750.5384    3018.2511 
   41600    344.87046   -8705.7012     49.34368   -8755.0449    568.68008 
   41800    378.08909   -8698.2156    54.096565   -8752.3122    6084.1149 
   42000    293.57556   -8711.1572    42.004463   -8753.1616    13411.518 
   42200    299.17928   -8708.8942    42.806236   -8751.7005     49036.43 
   42400    286.24192   -8698.6578    40.955174    -8739.613   -5454.3836 
   42600    274.47164   -8709.8753    39.271095   -8749.1464    3712.5844 
   42800    261.24908   -8712.0437    37.379227   -8749.4229   -20427.379 
   43000    332.30132   -8696.4021    47.545302   -8743.9474   -44927.139 
   43200    249.38659   -8710.1011    35.681954   -8745.7831   -33628.738 
   43400    342.20396   -8705.8863     48.96216   -8754.8485    8565.0389 
   43600    330.05411   -8703.7662    47.223773     -8750.99    925.29175 
   43800    282.02112   -8704.4092    40.351267   -8744.7605   -16716.982 
   44000    300.61588   -8716.8496    43.011784   -8759.8613   -34182.784 
   44200    315.65253   -8697.6024    45.163211   -8742.7657   -49374.764 
   44400    372.25178   -8704.1057    53.261369   -8757.3671   -9801.4696 
   44600    269.98592   -8710.7867    38.629284    -8749.416   -32287.128 
   44800     315.2914   -8700.3678    45.111542   -8745.4793    406.63256 
   45000    302.56031   -8702.6392     43.28999   -8745.9292   -11778.362 
   45200    274.84172   -8715.6015    39.324046   -8754.9255    20991.409 
   45400    306.27026   -8710.8331    43.820807    -8754.654    15929.594 
   45600    271.62062   -8705.2698    38.863175    -8744.133     33305.75 
   45800    314.39886   -8695.2613    44.983837   -8740.2451   -34088.861 
   46000    280.05176   -8712.9025    40.069493    -8752.972    11688.607 
   46200     288.0947   -8708.5087    41.220267    -8749.729    7008.5579 
   46400    338.26695    -8694.465    48.398857   -8742.8639     42596.98 
   46600    285.55609    -8708.327    40.857047    -8749.184   -12215.431 
   46800    332.66728   -8701.4144    47.597663   -8749.0121    -57543.68 
   47000    313.17973   -8689.0267    44.809406   -8733.8361   -19879.604 
   47200    300.39237   -8702.7691    42.979804   -8745.7489   -28003.904 
   47400    270.91476   -8709.8229    38.762181   -8748.5851   -14879.218 
   47600     302.6284   -8693.4747    43.299733   -8736.7744    3613.5813 
   47800     294.0698   -8707.6183    42.075179   -8749.6935    -535.1823 
   48000     328.0823   -8712.4592    46.941648   -8759.4008   -32614.255 
   48200    305.05811   -8694.5303    43.647373   -8738.1777    36338.559 
   48400     328.4574   -8701.0283    46.995318   -8748.0236    17178.685 
   48600    333.78162   -8710.0482    47.757101   -8757.8053   -11426.024 
   48800    226.57547   -8723.5894    32.418166   -8756.0075   -496.16285 
   49000    332.21849   -8707.0663     47.53345   -8754.5997   -12896.845 
   49200    297.42288    -8698.942    42.554933   -8741.4969    12447.384 
   49400    268.93991   -8702.0216    38.479622   -8740.5012   -16524.226 
   49600    292.55893   -8714.1404    41.859005   -8755.9994     -14325.6 
   49800    383.96247   -8695.7675    54.936921   -8750.7044   -4985.1919 
   50000    290.65654   -8701.2338    41.586813   -8742.8206   -49005.941 
   50200    264.69587   -8711.1604    37.872389   -8749.0328    43463.615 
   50400    279.59689   -8704.5474    40.004411   -8744.5518    167.93018 
   50600     330.0233   -8701.2806    47.219365   -8748.4999    17948.043 
   50800    311.10661   -8699.5854    44.512786   -8744.0982   -4233.1878 
   51000    314.61504    -8712.739    45.014768   -8757.7538    4638.3232 
   51200    303.58576    -8704.024    43.436711   -8747.4608   -10368.136 
   51400    351.86552   -8697.5283    50.344525   -8747.8728    14583.834 
   51600    277.33857   -8710.2567    39.681292    -8749.938    13928.947 
   51800    277.93021   -8705.5443    39.765944   -8745.3103   -3786.3692 
   52000    286.22882   -8703.3409      40.9533   -8744.2942   -14216.313 
   52200    278.95879   -8705.1272    39.913112   -8745.0403    2424.1009 
   52400    230.09108   -8706.5605    32.921175   -8739.4817    21642.804 
   52600    344.52106   -8698.1652    49.293688   -8747.4589    15692.747 
   52800    270.10278   -8710.8234    38.646004   -8749.4694   -48809.149 
   53000    274.40742   -8706.9895    39.261907   -8746.2514    8874.6641 
   53200    293.25964   -8694.6181    41.959262   -8736.5773    23882.322 
   53400    294.61001   -8713.3324    42.152472   -8755.4849    24069.151 
   53600    268.16918   -8708.0362    38.369347   -8746.4055    -759.0822 
   53800    357.45536    -8690.278    51.144313   -8741.4223   -6398.0135 
   54000    316.65658   -8698.5073     45.30687   -8743.8142   -17246.753 
   54200    292.40558   -8710.2504    41.837063   -8752.0874   -8952.0241 
   54400    352.39669   -8698.2095    50.420524     -8748.63    6155.9348 
   54600    325.11039   -8694.1382    46.516431   -8740.6546    17715.808 
   54800    294.42014   -8712.4074    42.125305   -8754.5327    33713.558 
   55000    304.49509   -8703.9931    43.566817   -8747.5599    37583.152 
   55200    297.58267    -8694.402    42.577795   -8736.9798     4005.505 
   55400    277.84816    -8704.618    39.754204   -8744.3722     28456.26 
   55600    299.57759   -8711.1279    42.863226   -8753.9911    21011.049 
   55800    356.11884   -8692.6328    50.953086   -8743.5859   -23635.402 
   56000    261.84588   -8706.1793    37.464616   -8743.6439    3359.6943 
   56200    296.46325   -8712.6162     42.41763   -8755.0338    -41703.04 
   56400    329.12718   -8696.9708    47.091149    -8744.062    8846.1024 
   56600    288.36562   -8699.3988     41.25903   -8740.6578    19205.259 
   56800    242.46619   -8713.7049    34.691791   -8748.3967    27986.587 
   57000     337.6694   -8701.4227     48.31336    -8749.736   -16554.087 
   57200    333.31405   -8700.5083    47.690202   -8748.1985    31379.001 
   57400    265.62473   -8708.6551     38.00529   -8746.6604   -20705.314 
   57600    302.63004   -8702.0488    43.299968   -8745.3488    10469.616 
   57800    399.41511   -8686.2706    57.147868   -8743.4185   -2445.8121 
   58000    297.76701   -8704.4365    42.604171   -8747.0406    14797.323 
   58200    271.76169   -8715.6237    38.883359   -8754.5071   -61042.326 
   58400    287.24932   -8703.6954    41.099312   -8744.7947    279.88545 
   58600    323.65234   -8698.6533    46.307815   -8744.9612    36553.671 
   58800    274.14489   -8713.5812    39.224344   -8752.8055   -22983.411 
   59000    332.02875    -8703.542    47.506302   -8751.0483   -26543.166 
   59200    278.18276   -8706.2498    39.802079   -8746.0519    9878.7859 
   59400    330.47373    -8704.045    47.283812   -8751.3288   -58193.251 
   59600     311.3769   -8708.2824    44.551458   -8752.8338     5303.104 
   59800    336.94878   -8703.2342    48.210256   -8751.4444    8624.2425 
   60000    319.80933   -8699.3577    45.757961   -8745.1156   -25517.088 
   60200     282.5133   -8714.1548    40.421687   -8754.5765   -33679.681 
   60400    366.96206   -8705.6309    52.504521   -8758.1354   -26852.382 
   60600    324.16516   -8698.0898    46.381188    -8744.471   -9941.4327 
   60800     262.7917   -8714.3821    37.599942    -8751.982   -20308.436 
   61000    255.61116    -8712.205     36.57256   -8748.7776   -21064.179 
   61200     345.7964   -8703.1415    49.476163   -8752.6177    1476.4292 
   61400     312.8283   -8702.2422    44.759124   -8747.0013    -7066.097 
   61600    326.32183   -8708.1019    46.689763   -8754.7917     495.5228 
   61800    283.41475   -8710.6513    40.550666    -8751.202    6889.8252 
   62000    272.73858   -8700.5593    39.023131   -8739.5825   -16042.425 
   62200    313.57329   -8707.6737    44.865716   -8752.5394   -21967.532 
   62400    299.09337   -8708.4515    42.793945   -8751.2454   -3269.7807 
   62600    275.61669   -8697.2918    39.434929   -8736.7267   -19879.847 
   62800    303.56861    -8711.781    43.434258   -8755.2152   -41169.638 
   63000     293.5636   -8711.6222    42.002751   -8753.6249    10641.753 
   63200    263.13053   -8707.0959    37.648423   -8744.7443    33073.349 
   63400    282.60666   -8702.3387    40.435044   -8742.7738    42652.398 
   63600    304.16306   -8716.5277    43.519311    -8760.047   -10917.017 
   63800    308.92236   -8707.6708    44.200266    -8751.871    14331.111 
   64000    278.94773    -8701.672     39.91153   -8741.5836     8672.438 
   64200     279.1648   -8705.1253    39.942587   -8745.0679    8316.4941 
   64400    249.65977   -8713.0844    35.721041   -8748.8054   -5782.0784 
   64600    303.72729   -8699.3331    43.456962     -8742.79    4775.6753 
   64800    254.25296   -8706.9337     36.37823    -8743.312   -915.36212 
   65000    286.22018   -8713.6691    40.952063   -8754.6212    11923.354 
   65200    322.88641   -8698.8246    46.198227   -8745.0228   -25985.654 
   65400    314.33584   -8691.8132     44.97482    -8736.788   -21514.009 
   65600    311.48482   -8712.1987      44.5669   -8756.7656    11591.912 
   65800    303.74813   -8700.8522    43.459943   -8744.3121   -35798.102 
   66000    319.85387   -8701.0604    45.764335   -8746.8248    39388.759 
   66200    238.56981   -8716.4252    34.134302   -8750.5595    27192.785 
   66400    309.28254    -8707.144      44.2518   -8751.3958   -38874.894 
   66600    290.49305   -8703.3519     41.56342   -8744.9153   -18498.552 
   66800    346.83302   -8700.6741     49.62448   -8750.2986   -15665.952 
   67000    227.94529   -8716.3151    32.614157   -8748.9293    19879.742 
   67200    322.74599   -8704.0538    46.178135    -8750.232     18944.44 
   67400    325.28883   -8697.9158    46.541962   -8744.4577    40464.365 
   67600    298.77515    -8705.128    42.748415   -8747.8764   -41220.935 
   67800    244.49791   -8709.3436    34.982488   -8744.3261    59610.932 
   68000     355.4951   -8693.8685    50.863842   -8744.7323   -1232.2173 
   68200    334.13336   -8704.8647    47.807428   -8752.6721   -13385.306 
   68400    247.57636   -8707.2077     35.42295   -8742.6307     8279.307 
   68600    401.20317   -8689.6967    57.403701   -8747.1004    4639.5312 
   68800    292.04083   -8706.0578    41.784876   -8747.8427    15874.481 
   69000    276.34062    -8712.109    39.538507   -8751.6475   -20082.885 
   69200    308.91853   -8703.1194    44.199718   -8747.3191   -8586.8388 
   69400    329.67823    -8704.846    47.169993    -8752.016    1703.6634 
   69600    261.03716   -8713.8433    37.348905   -8751.1922    28487.244 
   69800    321.54202   -8711.0509    46.005872   -8757.0568    17528.175 
   70000    314.86279   -8702.6152    45.050217   -8747.6655    27696.847 
   70200     394.9958    -8686.092    56.515557   -8742.6075    -33106.09 
   70400    313.26905   -8704.4797    44.822186   -8749.3019    44377.272 
   70600    311.84666   -8711.8812    44.618671   -8756.4998    -22201.68 
   70800    234.04403   -8713.3678    33.486759   -8746.8546   -19734.146 
   71000     345.4165   -8700.3568    49.421807   -8749.7786    15316.556 
   71200    260.58485    -8715.573    37.284189   -8752.8572   -20203.645 
   71400     305.2739   -8702.9217    43.678248      -8746.6   -10497.298 
   71600    249.19594   -8709.9176    35.654676   -8745.5723    336.47596 
   71800    239.21137   -8715.4997    34.226095   -8749.7258   -9423.2959 
   72000    303.27789   -8699.6886    43.392661   -8743.0813    5781.4927 
   72200     316.9635   -8701.6194    45.350783   -8746.9702   -5511.9907 
   72400    272.02177   -8716.8289    38.920571   -8755.7495   -22223.548 
   72600    340.29549   -8702.1085    48.689099   -8750.7976    11383.773 
   72800    286.17139    -8706.177    40.945083   -8747.1221    3345.5019 
   73000    248.56269   -8721.6175    35.564071   -8757.1816    36581.826 
   73200    272.73167    -8713.264    39.022143   -8752.2862     12351.73 
   73400    332.98549   -8701.4501    47.643191   -8749.0933   -26853.538 
   73600    353.65121   -8699.5675     50.60002   -8750.1675    28925.157 
   73800     279.6141   -8710.6553    40.006874   -8750.6621    -261.9845 
   74000    279.34505   -8699.7983    39.968377   -8739.7667   -35926.417 
   74200    238.94865   -8717.9369    34.188506   -8752.1254   -6991.0709 
   74400    319.61831   -8709.0578     45.73063   -8754.7884   -4318.9647 
   74600    290.10699   -8706.8876    41.508184   -8748.3957   -19546.549 
   74800    320.52915   -8704.7276    45.860953   -8750.5886   -3307.2648 
   75000    307.75408   -8702.6831    44.033109   -8746.7162    11248.303 
   75200     253.8609   -8709.3799    36.322133   -8745.7021   -13375.499 
   75400    329.69748   -8698.1927    47.172747   -8745.3655    21741.183 
   75600    364.92784   -8687.4617    52.213467   -8739.6751    19787.334 
   75800    293.65257   -8707.8119    42.015481   -8749.8274   -25037.321 
   76000    276.67644   -8709.1839    39.586556   -8748.7704   -20777.226 
   76200    331.51646   -8691.7232    47.433005   -8739.1563   -20025.376 
   76400    259.01107    -8708.979    37.059015    -8746.038    -8809.102 
   76600    274.89972   -8706.5845    39.332344   -8745.9168   -5567.8079 
   76800    309.83415   -8690.3891    44.330723   -8734.7198    13142.755 
   77000    325.97247   -8699.7187    46.639777   -8746.3585   -13797.668 
   77200    251.44079   -8713.0191    35.975867    -8748.995    -3346.231 
   77400    344.61089   -8698.6248    49.306541   -8747.9313   -2464.3312 
   77600    322.21361   -8706.1379    46.101963   -8752.2398   -34133.655 
   77800    290.02407   -8703.5861     41.49632   -8745.0824    31039.167 
   78000    355.57869   -8694.6355    50.875802   -8745.5113     24261.02 
   78200    274.55716    -8706.106    39.283332   -8745.3894    29895.922 
   78400     261.7746   -8710.7981    37.454417   -8748.2526    30792.345 
   78600      299.367   -8698.8078    42.833096   -8741.6409   -3810.4535 
   78800    309.83067   -8698.9262    44.330227   -8743.2564   -1445.5893 
   79000    276.21602   -8712.8927    39.520679   -8752.4133   -9346.0731 
   79200    304.80045   -8701.0098    43.610507   -8744.6203   -190.46449 
   79400     340.3178   -8696.0969     48.69229   -8744.7892    -9835.319 
   79600    263.08449   -8704.0157    37.641835   -8741.6575    6020.5628 
   79800    248.49721   -8718.8444    35.554703   -8754.3991    10959.467 
   80000    315.56162   -8705.8175    45.150204   -8750.9677    8202.7721 
   80200    325.64701    -8707.242     46.59321   -8753.8352   -35806.638 
   80400    320.66925   -8698.7975    45.880998   -8744.6785    1562.1835 
   80600    256.11115   -8710.9209    36.644097    -8747.565    44911.027 
   80800     296.2035   -8706.8816    42.380465   -8749.2621    31139.021 
   81000    303.98453   -8703.4324    43.493766   -8746.9262   -8412.5572 
   81200    255.47886   -8706.5602     36.55363   -8743.1139     28764.65 
   81400    334.00715   -8691.4435    47.789369   -8739.2329    12495.136 
   81600    276.13915   -8709.5444    39.509681   -8749.0541    15705.643 
   81800     328.9861   -8700.4438    47.070964   -8747.5148    38907.817 
   82000    332.55665   -8700.6066    47.581833   -8748.1884    1975.3191 
   82200    281.48324    -8713.341    40.274307   -8753.6153    25339.446 
   82400    311.48743   -8695.9869    44.567273   -8740.5542    5473.8311 
   82600    282.12231   -8702.2933    40.365745   -8742.6591     13985.74 
   82800    327.47427   -8710.9441    46.854653   -8757.7988   -452.95314 
   83000    331.43034   -8703.4549    47.420683   -8750.8756   -7639.3738 
   83200     308.1029   -8702.2583    44.083018   -8746.3413   -11112.952 
   83400    265.21027   -8707.8678    37.945989   -8745.8138   -3050.8955 
   83600    369.80119   -8688.6148    52.910741   -8741.5256    16171.331 
   83800    299.12672   -8704.7266    42.798716   -8747.5253    2985.8808 
   84000    326.23878   -8709.9956    46.677881   -8756.6735    10049.214 
   84200    271.56983   -8719.5804    38.855908   -8758.4363    51541.302 
   84400    291.52292   -8703.8561    41.710774   -8745.5669     4373.807 
   84600    269.30282   -8707.3086    38.531547   -8745.8402   -11814.511 
   84800    277.71473   -8713.0071    39.735114   -8752.7422   -2437.6663 
   85000    363.64724   -8701.5445    52.030241   -8753.5747   -13778.582 
   85200    253.87545   -8709.1488    36.324216    -8745.473    11805.491 
   85400     307.5241   -8712.5947    44.000205   -8756.5949    5322.4716 
   85600    327.39046   -8695.2861    46.842661   -8742.1287   -37147.307 
   85800    305.17497   -8707.0161    43.664093   -8750.6802   -7668.0601 
   86000    271.64781   -8713.2052    38.867065   -8752.0723    12544.571 
   86200    333.47208   -8699.7549    47.712813   -8747.4677   -43603.266 
   86400    291.77412   -8707.0692    41.746715    -8748.816    24461.407 
   86600    302.28159   -8711.9243    43.250112   -8755.1744     15536.95 
   86800    331.09554   -8697.1753     47.37278   -8744.5481    24216.691 
   87000    261.43897   -8707.9373    37.406396   -8745.3437   -30806.258 
   87200    316.93336   -8693.6534     45.34647   -8738.9999   -286.38619 
   87400    337.06988   -8697.9578    48.227581   -8746.1853    19690.074 
   87600    290.00183   -8707.8736    41.493138   -8749.3667   -24885.112 
   87800    285.18939    -8705.156    40.804579   -8745.9605   -19198.308 
   88000     341.5766    -8695.211    48.872398   -8744.0834   -17910.071 
   88200    305.39885   -8705.9225    43.696126   -8749.6187    15593.137 
   88400     330.8564   -8700.1385    47.338565   -8747.4771   -39291.396 
   88600    270.74834   -8718.5182    38.738371   -8757.2566   -2832.7695 
   88800    312.86196   -8704.2344     44.76394   -8748.9983    18411.414 
   89000    278.97196   -8704.9851    39.914997   -8744.9001   -96.839965 
   89200    280.07899   -8718.8718    40.073389   -8758.9452    4490.2607 
   89400    299.99491   -8704.6694    42.922936   -8747.5923   -13236.247 
   89600    317.59061   -8701.1097     45.44051   -8746.5502    20173.724 
   89800    222.81465   -8717.8549    31.880071    -8749.735    4259.8103 
   90000    277.93289   -8710.0607    39.766327    -8749.827     35065.89 
   90200    300.41111   -8704.5505    42.982487    -8747.533    -6723.246 
   90400    255.02804   -8719.8198    36.489127    -8756.309    9391.7092 
   90600    325.46659   -8699.9103    46.567395   -8746.4777    22445.835 
   90800    312.92959   -8704.3552    44.773615   -8749.1288    6664.6648 
   91000    240.72314   -8715.7716    34.442398    -8750.214    17477.789 
   91200    313.85041   -8702.3148    44.905365   -8747.2202   -12149.985 
   91400    296.88441   -8699.5465     42.47789   -8742.0244   -29362.151 
   91600    235.50103   -8712.5282    33.695224   -8746.2234    37111.833 
   91800    372.97224   -8702.6198    53.364451   -8755.9843    -12657.29 
   92000    273.05149   -8716.0272    39.067902   -8755.0951    1151.4895 
   92200    320.25965   -8707.4263    45.822393   -8753.2487   -2007.7037 
   92400     356.1262   -8704.5658    50.954138   -8755.5199   -424.73681 
   92600    277.54251    -8708.381    39.710472   -8748.0914    2755.4747 
   92800     351.2044    -8695.719    50.249933    -8745.969    1187.4362 
   93000    268.60465   -8711.7693    38.431653    -8750.201   -22056.409 
   93200    288.68872   -8707.7442     41.30526   -8749.0495   -51473.247 
   93400    370.59831   -8690.3911    53.024791   -8743.4159    12042.345 
   93600    304.76268   -8707.2158    43.605104   -8750.8209    8656.2699 
   93800    264.94762   -8712.4592    37.908409   -8750.3676    10027.584 
   94000    358.66564   -8696.0887    51.317479   -8747.4062   -16042.088 
   94200    302.68042   -8703.7999    43.307176   -8747.1071    16616.708 
   94400    263.55887    -8711.171    37.709708   -8748.8807    20331.301 
   94600    283.13909    -8702.997    40.511225   -8743.5083    1156.8208 
   94800    344.88849   -8703.6815    49.346259   -8753.0277    25592.824 
   95000    256.77525   -8710.1929    36.739115    -8746.932   -17731.567 
   95200    274.67802    -8702.956    39.300624   -8742.2566     14460.14 
   95400    278.36068   -8700.7288    39.827535   -8740.5563   -9539.8355 
   95600    258.57056   -8715.2598    36.995987   -8752.2558     8426.939 
   95800    311.65339    -8702.259    44.591019     -8746.85   -745.30728 
   96000    382.45779   -8682.4006    54.721633   -8737.1222    1366.9055 
   96200    275.27275   -8702.9605    39.385718   -8742.3462    11618.934 
   96400    285.86235   -8704.0709    40.900866   -8744.9717   -25338.525 
   96600     309.7491   -8699.4766    44.318555   -8743.7951     2739.977 
   96800    292.34586   -8713.9061     41.82852   -8755.7347   -5113.9788 
   97000    376.78503   -8700.1644    53.909981   -8754.0744    1488.2595 
   97200    285.84573   -8701.7852    40.898488   -8742.6837    26050.539 
   97400    256.63101    -8705.163    36.718478   -8741.8815     11142.25 
   97600    286.45745   -8708.3919    40.986012   -8749.3779   -8270.8259 
   97800    337.83603   -8703.1452    48.337201   -8751.4824   -46801.841 
   98000    270.39068    -8707.725    38.687197   -8746.4122    19946.035 
   98200    259.07455   -8716.6689    37.068097    -8753.737   -21764.506 
   98400     263.5636   -8711.8761    37.710385   -8749.5865    15926.334 
   98600    301.92901    -8696.408    43.199665   -8739.6077    3204.6953 
   98800    309.64804   -8711.0078    44.304096   -8755.3119   -5669.8716 
   99000    289.28734   -8707.1768    41.390909   -8748.5678   -8768.0928 
   99200    325.67777   -8704.3512    46.597612   -8750.9488   -8853.4669 
   99400    264.14201   -8722.3486    37.793144   -8760.1417   -10248.502 
   99600    278.34967   -8714.5323    39.825959   -8754.3582    10690.913 
   99800    307.82673   -8703.7027    44.043504   -8747.7462   -5911.8345 
  100000    341.83364   -8697.5172    48.909175   -8746.4264    47578.118 
  100200    299.16558   -8717.7759    42.804276   -8760.5802    4095.8841 
  100400    304.62237   -8715.1655    43.585028   -8758.7505   -14904.009 
  100600    319.85588   -8700.9239    45.764621   -8746.6885   -52945.803 
  100800    284.07694    -8715.594    40.645411   -8756.2394    37055.925 
  101000    282.08693   -8707.5063    40.360682    -8747.867   -25343.425 
  101200    368.84102   -8693.3938    52.773361   -8746.1671   -4142.1168 
  101400    300.58014   -8708.7146    43.006671   -8751.7213    14246.484 
  101600     243.1617   -8714.6377    34.791305    -8749.429   -32650.564 
  101800    377.89022   -8694.9118    54.068111   -8748.9799    5281.0204 
  102000    280.01574   -8710.0102    40.064339   -8750.0745   -18377.674 
  102200    373.79274   -8704.8191    53.481848    -8758.301    -3862.616 
  102400    239.02694   -8712.7922    34.199707   -8746.9919    8502.1356 
  102600    318.40494   -8712.2106    45.557023   -8757.7676   -7282.7061 
  102800    307.30151   -8710.5406    43.968356   -8754.5089   -19943.713 
  103000    240.82542   -8725.6736    34.457032   -8760.1306    15592.866 
  103200    313.45624   -8709.4363    44.848968   -8754.2852    2039.4486 
  103400    299.56039   -8700.9789    42.860766   -8743.8396    25479.523 
  103600    308.16103   -8714.2362    44.091335   -8758.3275    18792.202 
  103800    270.71376   -8714.4253    38.733423   -8753.1587   -20390.859 
  104000    322.22018   -8704.2142    46.102903   -8750.3171   -11167.374 
  104200    234.36226   -8721.3718    33.532291   -8754.9041   -10560.787 
  104400    290.16215   -8710.5521    41.516076   -8752.0682    63625.733 
  104600    331.69413   -8692.0975    47.458425   -8739.5559    15393.885 
  104800    371.63795   -8695.6725    53.173542    -8748.846   -3133.5029 
  105000    256.05578   -8714.2819    36.636174   -8750.9181   -13246.723 
  105200    349.09024   -8702.5675    49.947442    -8752.515   -8061.5574 
  105400    279.34472   -8706.0127    39.968331    -8745.981     16115.32 
  105600    251.56519   -8719.9636    35.993667   -8755.9573    9774.4257 
  105800    327.05636   -8703.6895    46.794858   -8750.4843   -1230.7067 
  106000    301.64562   -8708.9306    43.159118   -8752.0897   -18154.995 
  106200    272.07416   -8715.8466    38.928066   -8754.7747   -7878.0708 
  106400     348.8167   -8709.9622    49.908303   -8759.8705    -21672.84 
  106600    280.82626   -8705.7899    40.180308   -8745.9702      7112.95 
  106800    326.98409   -8696.7791    46.784518   -8743.5636   -17141.186 
  107000    323.82205   -8716.7403    46.332097   -8763.0724   -1541.7329 
  107200    309.08721   -8716.3215    44.223852   -8760.5454   -4652.7834 
  107400    271.70425   -8703.9569     38.87514   -8742.8321    13109.868 
  107600    283.40635   -8712.9566    40.549464   -8753.5061    29186.174 
  107800    241.55319   -8723.5649     34.56116    -8758.126    8195.5184 
  108000    298.20352   -8703.3834    42.666626     -8746.05    26683.967 
  108200    307.68354   -8711.5495    44.023017   -8755.5725   -8221.4012 
  108400    355.07229   -8712.4966    50.803347   -8763.2999   -668.10884 
  108600    336.04348   -8694.6033    48.080725    -8742.684     11627.58 
  108800    269.09593   -8711.6817    38.501945   -8750.1836    7932.7108 
  109000    385.14497   -8709.4567    55.106112   -8764.5628   -2907.0841 
  109200    242.69045   -8718.1002    34.723878   -8752.8241    -3139.491 
  109400    300.10773   -8707.7381    42.939078   -8750.6772    8243.6331 
  109600    293.54748   -8709.4499    42.000445   -8751.4503    17170.684 
  109800    250.63257   -8717.9878    35.860228    -8753.848    -10710.45 
  110000      351.403   -8708.9633    50.278348   -8759.2417   -11287.601 
  110200    302.01268   -8704.1777    43.211637   -8747.3894   -763.05438 
  110400    382.00919    -8695.235    54.657448   -8749.8924     35413.48 
  110600    292.00849   -8713.1477    41.780249   -8754.9279   -17106.771 
  110800    291.85028   -8708.1425    41.757611   -8749.9001    41985.243 
  111000     388.4541   -8700.7366    55.579578   -8756.3162   -16382.726 
  111200    260.97952   -8711.6951    37.340658   -8749.0357    35875.638 
  111400    393.65432   -8699.1713     56.32362   -8755.4949    7948.4186 
  111600    316.43721   -8710.2978    45.275482   -8755.5733    15609.214 
  111800     297.4295   -8708.7389     42.55588   -8751.2947   -5830.2025 
  112000    319.49317    -8702.967    45.712725   -8748.6797    14721.757 
  112200    261.94668    -8717.628    37.479038   -8755.1071     31823.69 
  112400    352.33132   -8704.9697    50.411171   -8755.3809   -25406.534 
  112600    307.37968   -8709.1539     43.97954   -8753.1334   -3626.3933 
  112800    269.72777   -8714.9053    38.592348   -8753.4976   -17352.166 
  113000    313.42861   -8698.6979    44.845016   -8743.5429   -24706.233 
  113200    330.33531   -8700.4599    47.264007   -8747.7239   -11090.424 
  113400    264.60649   -8719.2286    37.859601   -8757.0882   -672.71761 
  113600    265.32852   -8709.8343    37.962909   -8747.7972    -10789.79 
  113800    319.61876   -8698.4295    45.730695   -8744.1602    20681.662 
  114000    249.26769   -8718.9192    35.664942   -8754.5841   -9287.7712 
  114200    271.07587   -8708.9129    38.785232   -8747.6981    10379.416 
  114400    303.28364   -8699.9485    43.393485    -8743.342    4299.4396 
  114600    279.37321   -8720.1191    39.972407   -8760.0915    10979.155 
  114800    265.39132   -8713.8505    37.971893   -8751.8224    38497.549 
  115000     313.5828   -8704.2211    44.867077   -8749.0882   -2694.0669 
  115200    257.73935   -8715.3771    36.877059   -8752.2542   -18941.611 
  115400    298.04614   -8712.5494    42.644108   -8755.1935    48692.755 
  115600    329.11529   -8706.3696    47.089449   -8753.4591   -15548.864 
  115800     218.9673   -8719.4156    31.329596   -8750.7452     15668.41 
  116000    331.44884   -8710.0489     47.42333   -8757.4722     14137.36 
  116200    309.00286   -8710.7786    44.211783   -8754.9903    33336.852 
  116400    271.37468   -8710.9166    38.827986   -8749.7446   -7895.3835 
  116600    333.17363   -8702.8576    47.670111   -8750.5277   -8163.8868 
  116800    237.24081    -8710.489     33.94415   -8744.4332    792.24336 
  117000    298.34813   -8704.7569    42.687317   -8747.4443    -25597.26 
  117200     207.6788   -8722.6511    29.714451   -8752.3656   -23132.762 
  117400    295.99633   -8709.5168    42.350825   -8751.8676     22726.39 
  117600    287.94025   -8710.0723    41.198169   -8751.2704   -25301.235 
  117800    264.75517   -8718.1536    37.880873   -8756.0344    14059.457 
  118000    272.51583   -8713.2414     38.99126   -8752.2326    4742.5303 
  118200    289.86821   -8704.5041     41.47402   -8745.9781    16560.995 
  118400    292.41151   -8712.0059    41.837912   -8753.8438    11766.007 
  118600    235.69379   -8721.4851    33.722803   -8755.2079   -6519.7668 
  118800    301.73942   -8706.7515     43.17254    -8749.924    10949.617 
  119000    297.55485   -8711.6832    42.573816    -8754.257    33996.189 
  119200    272.79494    -8719.843    39.031195   -8758.8742   -538.66924 
  119400    295.83376   -8710.9692    42.327563   -8753.2968    3258.4268 
  119600    285.14101   -8704.1091    40.797657   -8744.9068   -20044.386 
  119800     282.8198    -8719.009    40.465541   -8759.4745   -30101.311 
  120000    291.17814   -8718.6786    41.661443     -8760.34   -24822.456 
  120200     276.3054   -8709.0248    39.533468   -8748.5582    17687.227 
  120400    282.39598   -8712.1516    40.404901   -8752.5565    -20221.16 
  120600    280.82078   -8715.1359    40.179523   -8755.3154    66486.015 
  120800    303.95614    -8700.034    43.489705   -8743.5237   -17906.083 
  121000    301.72879   -8708.0135    43.171018   -8751.1845    -6037.324 
  121200    297.31677   -8716.1945    42.539752   -8758.7343    -21625.14 
  121400    300.17341   -8707.9448    42.948476   -8750.8933   -2982.4717 
  121600     326.3538   -8700.6413    46.694336   -8747.3357   -16513.469 
  121800    306.29043   -8713.5259    43.823692   -8757.3496   -44530.846 
  122000    264.83895   -8709.9027    37.892861   -8747.7956   -14402.539 
  122200    339.28743    -8701.228    48.544866   -8749.7729    15455.618 
  122400    266.18895   -8717.1706    38.086017   -8755.2566   -1908.9575 
  122600    374.62567   -8704.3616    53.601023   -8757.9626    36479.974 
  122800    313.70507   -8710.0595    44.884571    -8754.944    2955.2031 
  123000    341.28364   -8707.3494    48.830482   -8756.1798    11715.291 
  123200    313.64822   -8698.5225    44.876437   -8743.3989   -52625.972 
  123400    288.66198   -8711.4274    41.301433   -8752.7289    30952.516 
  123600    326.13228   -8708.7727    46.662642   -8755.4353    60094.205 
  123800    306.01546   -8701.5189     43.78435   -8745.3032   -4999.7861 
  124000    314.21995   -8711.0837    44.958239   -8756.0419    27253.408 
  124200    272.98466   -8719.9829    39.058341   -8759.0412    10149.027 
  124400    305.51789   -8701.9281    43.713158   -8745.6412   -13736.638 
  124600     336.1676   -8706.5352    48.098484   -8754.6336    56921.498 
  124800    230.37095    -8721.206    32.961219   -8754.1673   -26911.545 
  125000    276.39669   -8705.5872     39.54653   -8745.1337    9935.0529 
  125200    277.68956   -8709.3113    39.731512   -8749.0429    23638.107 
  125400    266.51113   -8719.7138    38.132114   -8757.8459    11000.987 
  125600    360.80467   -8710.5352    51.623529   -8762.1587   -8335.4625 
  125800    287.72326   -8705.9002    41.167122   -8747.0673   -16862.175 
  126000    259.57506   -8719.7482    37.139709   -8756.8879   -17750.031 
  126200    356.23177   -8703.7368    50.969243    -8754.706   -10298.894 
  126400    322.31315    -8707.487    46.116205   -8753.6033    10795.814 
  126600    249.10487   -8718.4282    35.641646   -8754.0698    14110.117 
  126800    300.86334   -8699.3376    43.047191   -8742.3848    38774.363 
  127000    231.87719   -8712.2196    33.176729   -8745.3963   -56539.307 
  127200    372.32439   -8696.5519    53.271758   -8749.8237    11471.894 
  127400    300.45819    -8708.829    42.989222   -8751.8182     20449.16 
  127600    326.55818    -8706.597    46.723579   -8753.3206    16496.606 
  127800    265.10731   -8712.2642    37.931258   -8750.1954    61252.388 
  128000     276.2469   -8718.9155    39.525097   -8758.4406   -16265.849 
  128200    319.06907   -8700.6548    45.652046   -8746.3069    39080.307 
  128400    294.93232   -8712.9605    42.198587   -8755.1591   -1455.7557 
  128600    285.56443   -8719.0019    40.858239   -8759.8602    23558.215 
  128800    356.10755   -8702.4648     50.95147   -8753.4163   -3893.2391 
  129000    295.62086   -8710.8049    42.297102    -8753.102   -11323.734 
  129200    257.17774   -8715.2578    36.796703   -8752.0545    1601.9214 
  129400    293.03442   -8707.5798    41.927038   -8749.5068   -11781.901 
  129600    301.32091   -8705.5516    43.112659   -8748.6642    66035.901 
  129800    347.67933   -8707.4013     49.74557   -8757.1469    26481.228 
  130000    232.14467   -8715.9016       33.215   -8749.1166    422.24228 
  130200     356.1867   -8705.5136    50.962796   -8756.4764   -2157.7855 
  130400    274.22857   -8714.6411    39.236317   -8753.8774    30221.859 
  130600     323.9095   -8705.1413    46.344609   -8751.4859    -39987.75 
  130800     309.1733   -8704.1398    44.236171   -8748.3759    11078.929 
  131000    246.37955   -8714.0464    35.251711   -8749.2981   -26028.937 
  131200    349.49172   -8695.8592    50.004884   -8745.8641    18111.575 
  131400    312.71987   -8704.3771     44.74361   -8749.1207    -45186.21 
  131600    326.92678   -8711.1239    46.776318   -8757.9003     12417.12 
  131800    323.44833   -8704.5635    46.278625   -8750.8421   -25280.049 
  132000    283.33346   -8711.4069    40.539035   -8751.9459   -6271.1261 
  132200    296.67516   -8704.8423     42.44795   -8747.2902   -27121.592 
  132400    284.60526   -8704.9413    40.721003   -8745.6623   -5424.5352 
  132600    285.33829   -8716.1618    40.825883   -8756.9877     5501.742 
  132800     273.5588   -8713.0496    39.140488   -8752.1901   -40259.029 
  133000    302.85878   -8707.3878    43.332696   -8750.7205    71010.998 
  133200    279.95431   -8713.4312     40.05555   -8753.4867    18236.366 
  133400    377.69423   -8703.1666    54.040069   -8757.2066    1734.2312 
  133600    275.28164   -8704.8593    39.386989   -8744.2463   -36209.866 
  133800    264.41924   -8721.4826    37.832809   -8759.3154   -7085.6921 
  134000    336.18043   -8704.7222     48.10032   -8752.8225    6609.2669 
  134200    342.05255   -8702.3837    48.940496   -8751.3242    15460.136 
  134400    304.39449   -8718.9528    43.552424   -8762.5052   -4617.0931 
  134600    261.06975   -8716.0544    37.353568   -8753.4079   -5173.0478 
  134800     337.5762   -8706.3828    48.300025   -8754.6828   -15888.673 
  135000    264.52782    -8715.439    37.848344   -8753.2873   -14273.861 
  135200    233.47497   -8719.5113    33.405338   -8752.9167    40603.117 
  135400    330.93541   -8710.7564    47.349868   -8758.1063    23419.542 
  135600    342.45576   -8704.6164    48.998187   -8753.6145    -6098.714 
  135800    309.71632   -8699.5236    44.313865   -8743.8375    20285.322 
  136000    278.11838   -8715.1219    39.792868   -8754.9148    799.96222 
  136200    315.88519   -8706.8311    45.196499   -8752.0276   -41243.136 
  136400    303.08105   -8698.6395    43.364499    -8742.004    -45294.71 
  136600    266.47295    -8710.321    38.126652   -8748.4476    41601.463 
  136800     261.1558   -8718.5226    37.365879   -8755.8885    7632.4858 
  137000     369.3229   -8698.8514    52.842307   -8751.6937   -12567.552 
  137200    281.55757   -8713.0521    40.284942    -8753.337    -1396.117 
  137400    318.39609   -8711.1579    45.555757   -8756.7136    -32573.95 
  137600     349.3523   -8699.0316    49.984936   -8749.0165    38648.249 
  137800    277.44245   -8714.6036    39.696155   -8754.2998   -23763.257 
  138000     310.0636   -8713.8441    44.363554   -8758.2076   -5545.6842 
  138200    270.24044    -8709.834    38.665701   -8748.4997   -40081.813 
  138400    361.69725    -8697.179    51.751238   -8748.9303   -25742.711 
  138600    324.61724   -8711.4874    46.445872   -8757.9333   -11723.572 
  138800     275.0403   -8710.5843    39.352458   -8749.9368    27857.884 
  139000     367.0464   -8696.3376    52.516588   -8748.8542   -8100.6417 
  139200    263.09765   -8716.1219    37.643718   -8753.7656   -15762.547 
  139400    263.63503   -8714.5147    37.720605   -8752.2353   -13755.958 
  139600    333.04436   -8693.8856    47.651614   -8741.5372   -20488.277 
  139800    271.32338   -8710.8542    38.820646   -8749.6749    16576.219 
  140000    328.34924   -8711.4856    46.979842   -8758.4655   -30037.195 
  140200    307.00268   -8701.2451    43.925601   -8745.1707   -4257.1335 
  140400    375.97493   -8698.4622    53.794073   -8752.2563    36340.405 
  140600    278.15115   -8717.5068    39.797555   -8757.3043     36537.19 
  140800     298.9794   -8708.0689    42.777638   -8750.8465    43501.944 
  141000    319.75815   -8703.5673    45.750639   -8749.3179   -30711.447 
  141200    287.89851   -8709.7834    41.192197   -8750.9756    -5230.434 
  141400    256.23001   -8716.5324    36.661103   -8753.1935    53891.482 
  141600     304.3317   -8705.1956    43.543439   -8748.7391    24600.052 
  141800    319.24457   -8708.8947    45.677157   -8754.5718   -66.813722 
  142000    274.90564   -8718.7783    39.333191   -8758.1115    20101.626 
  142200    294.24928   -8708.6245    42.100858   -8750.7253    31813.848 
  142400    299.30969   -8706.1407    42.824896   -8748.9656     8244.976 
  142600    285.76267   -8709.5268    40.886604   -8750.4134    18737.948 
  142800    216.08621   -8721.8745    30.917373   -8752.7919    30527.015 
  143000    319.87538   -8701.6475    45.767412   -8747.4149   -26595.265 
  143200    278.70102   -8715.9079     39.87623   -8755.7842   -9586.1198 
  143400    264.83515   -8712.3341    37.892318   -8750.2264     42078.75 
  143600    333.61113   -8694.5392    47.732707   -8742.2719    19891.876 
  143800    288.29608   -8708.7215     41.24908   -8749.9705   -11404.439 
  144000    233.24584   -8718.8351    33.372554   -8752.2076   -13806.143 
  144200    263.30955   -8713.9089    37.674037   -8751.5829   -32347.482 
  144400    337.48177   -8701.6799    48.286514   -8749.9665   -12113.059 
  144600    278.83588   -8717.7818    39.895526   -8757.6774    31538.945 
  144800    282.37067   -8718.6505     40.40128   -8759.0518   -15595.335 
  145000    311.59891   -8711.7388    44.583224    -8756.322   -16209.243 
  145200    345.41931    -8701.817    49.422208   -8751.2392   -3462.1963 
  145400     228.4094   -8717.9717    32.680562   -8750.6522    18365.146 
  145600    293.49696   -8705.5003    41.993217   -8747.4935   -19869.574 
  145800    262.21189    -8715.467    37.516984    -8752.984   -28535.261 
  146000    250.21481   -8716.9889    35.800455   -8752.7893   -9990.1597 
  146200    344.70105   -8710.1717    49.319441   -8759.4912    8395.6258 
  146400    313.85014   -8701.3254    44.905327   -8746.2307    14715.201 
  146600    295.73446   -8699.3299    42.313355   -8741.6433    10281.659 
  146800     328.7052   -8710.2009    47.030773   -8757.2317    40398.723 
  147000    289.86884   -8719.7228     41.47411   -8761.1969    21151.531 
  147200    302.12616   -8714.5165    43.227874   -8757.7444   -29989.476 
  147400    325.51573   -8705.7721    46.574427   -8752.3465     -20011.6 
  147600    236.75773   -8719.9268    33.875032   -8753.8019    8475.6941 
  147800    273.26357   -8720.1055    39.098246   -8759.2037   -24221.236 
  148000     299.1441   -8708.6868    42.801204    -8751.488   -5008.6259 
  148200    316.83556   -8700.1013    45.332477   -8745.4338     9555.697 
  148400    308.59122   -8717.6385    44.152887   -8761.7914   -11608.274 
  148600    246.57399   -8706.9783    35.279531   -8742.2578   -68061.695 
  148800    325.52152    -8706.239    46.575255   -8752.8142    2054.3699 
  149000    298.98834   -8712.5628    42.778918   -8755.3417    6246.2016 
  149200    300.89459    -8704.574    43.051662   -8747.6257   -1583.5589 
  149400     261.3654   -8715.7554     37.39587   -8753.1513   -16365.739 
  149600    317.62468   -8711.6812    45.445385   -8757.1266   -21534.137 
  149800     296.3914   -8699.0982     42.40735   -8741.5056   -30382.335 
  150000    277.29034   -8720.8786    39.674392    -8760.553   -4972.7138 
  150200    295.01341   -8712.2824    42.210188   -8754.4926   -11350.626 
  150400    327.94357   -8702.9225      46.9218   -8749.8443    5680.6835 
  150600     242.0867    -8723.279    34.637494   -8757.9165   -12448.885 
  150800    273.57042   -8713.3537    39.142149   -8752.4958   -2256.1368 
  151000    347.60356   -8705.4971    49.734729   -8755.2318    6235.2628 
  151200      274.343   -8716.9781     39.25269   -8756.2308   -9213.3879 
  151400    235.60717   -8725.8859     33.71041   -8759.5963   -9342.7607 
  151600    248.49909   -8711.7769    35.554972   -8747.3319   -13943.857 
  151800    320.50291   -8703.5932    45.857198   -8749.4504     2646.692 
  152000    229.42303   -8720.9107     32.82559   -8753.7362    9531.8332 
  152200    279.96203   -8710.0975    40.056654   -8750.1542   -12026.728 
  152400    300.17572   -8706.2373    42.948807   -8749.1861   -11262.751 
  152600    278.41988   -8718.3235    39.836006   -8758.1595    33000.506 
  152800    321.81551   -8704.2524    46.045004   -8750.2974   -3689.5782 
  153000    273.28088   -8711.4317    39.100723   -8750.5324    -22114.83 
  153200    291.33149   -8707.6142    41.683384   -8749.2976    677.52395 
  153400    330.82542   -8692.7679    47.334131    -8740.102    13516.906 
  153600    293.62773   -8710.2768    42.011927   -8752.2887   -15764.778 
  153800    308.13176   -8713.2249    44.087148    -8757.312   -18461.321 
  154000    285.97793   -8716.6991    40.917402   -8757.6165    7380.9709 
  154200     326.5147   -8702.3614    46.717358   -8749.0788   -6142.7013 
  154400    281.85622   -8712.9155    40.327673   -8753.2432    6337.3406 
  154600    282.89189   -8716.1875    40.475855   -8756.6633    9820.8147 
  154800    265.03218   -8709.6251    37.920507   -8747.5456   -8241.4272 
  155000    343.79541   -8706.2813    49.189863   -8755.4712    6119.1775 
  155200    248.93388   -8715.4519    35.617181   -8751.0691    21658.304 
  155400    346.10374   -8694.2014    49.520136   -8743.7216   -8287.5381 
  155600    315.72565   -8702.7752    45.173673   -8747.9489   -4455.7475 
  155800     303.8711   -8709.1833    43.477537   -8752.6608    24525.185 
  156000    279.84747   -8723.9943    40.040263   -8764.0345   -14862.046 
  156200    306.75754   -8708.7484    43.890526    -8752.639    8098.1896 
  156400    350.51467    -8710.578    50.151247   -8760.7292   -6279.3199 
  156600    243.20762   -8721.7908    34.797874   -8756.5887    18648.539 
  156800    378.34358   -8702.0976    54.132976   -8756.2305    12508.281 
  157000    269.03961   -8712.4237    38.493886   -8750.9176    9537.6682 
  157200    293.90804   -8708.1256    42.052033   -8750.1776   -8941.4339 
  157400    307.53229   -8702.6297    44.001376    -8746.631   -17258.312 
  157600     293.0288   -8712.9614    41.926234   -8754.8876   -4484.3279 
  157800    289.28461   -8711.2084    41.390519   -8752.5989    35671.791 
  158000    260.72571    -8722.287    37.304344   -8759.5914   -27097.217 
  158200     304.7326   -8706.5753      43.6008   -8750.1761   -15559.639 
  158400    329.49928   -8703.3107    47.144389   -8750.4551   -20152.551 
  158600    225.68331   -8721.6184    32.290515   -8753.9089   -16008.576 
  158800     347.3095   -8707.5812    49.692655   -8757.2739   -44127.672 
  159000    344.31464   -8702.1027    49.264154   -8751.3669   -50936.301 
  159200    262.75084   -8720.6406    37.594096   -8758.2347    47392.781 
  159400    309.47071   -8707.8367    44.278723   -8752.1154    44712.921 
  159600    293.67779    -8704.532    42.019089    -8746.551   -20004.992 
  159800    285.66125   -8714.6389    40.872092   -8755.5109    10148.097 
  160000    319.94561   -8710.7035    45.777461    -8756.481   -25697.875 
  160200    321.95642   -8700.0462    46.065165   -8746.1114    15659.966 
  160400    326.38376   -8711.9807    46.698624   -8758.6793     19711.83 
  160600     293.4766   -8711.6473    41.990304   -8753.6376   -18212.007 
  160800    307.67034   -8695.0534    44.021129   -8739.0745   -22866.065 
  161000    298.40632   -8703.7449    42.695642   -8746.4406    18203.538 
  161200    316.57701   -8706.6301    45.295484   -8751.9256   -27398.308 
  161400    297.88814   -8712.9622    42.621502   -8755.5837   -20560.623 
  161600    296.34472   -8717.1779    42.400672   -8759.5785    19368.496 
  161800    350.68538   -8698.9072    50.175673   -8749.0829   -513.95537 
  162000    295.30798   -8709.2748    42.252336   -8751.5271    12216.056 
  162200    297.18694   -8714.9431    42.521175   -8757.4643    42752.938 
  162400    296.40427   -8694.1986    42.409192   -8736.6078    18248.717 
  162600     295.9454    -8710.031    42.343536   -8752.3745   -15490.884 
  162800    307.01111   -8710.2564    43.926806   -8754.1832   -23176.287 
  163000    350.35738   -8698.1224    50.128743   -8748.2511    8746.3077 
  163200    317.11058   -8711.9886    45.371827   -8757.3604    -19521.25 
  163400    304.43578   -8712.3477    43.558331    -8755.906    10424.776 
  163600    313.43568   -8699.6071    44.846026   -8744.4532    3313.7653 
  163800    361.73999   -8690.1335    51.757353   -8741.8909    19842.431 
  164000    286.95093   -8709.8959    41.056618   -8750.9526   -3713.0353 
  164200    274.25234   -8717.0632    39.239718   -8756.3029   -24096.802 
  164400    271.60727   -8711.3206    38.861265   -8750.1818   -44360.691 
  164600    303.09246   -8705.4186    43.366131   -8748.7848    18501.636 
  164800    226.23485   -8721.0149     32.36943   -8753.3843       -23787 
  165000    349.65898   -8701.5031    50.028815   -8751.5319    41793.912 
  165200      261.624   -8705.8758     37.43287   -8743.3087    34052.343 
  165400    301.88408   -8716.0838    43.193237    -8759.277     17880.69 
  165600    256.06851   -8717.4107    36.637996   -8754.0487   -31924.184 
  165800    319.34899   -8708.2017    45.692096   -8753.8938    3788.8432 
  166000     289.4734   -8714.6094    41.417531   -8756.0269    10010.139 
  166200    266.29334   -8722.2847    38.100953   -8760.3856   -15974.087 
  166400     300.7115   -8705.6224    43.025466   -8748.6479   -18265.236 
  166600     312.4689   -8705.6301    44.707701   -8750.3378    5701.3184 
  166800    275.61475   -8720.1292     39.43465   -8759.5638    10441.518 
  167000    312.77935   -8705.5365     44.75212   -8750.2886    11617.888 
  167200     342.6119   -8709.1597    49.020528   -8758.1803   -15794.785 
  167400    269.62496   -8714.6898    38.577637   -8753.2674    13513.453 
  167600    308.66322   -8704.7466    44.163189   -8748.9098    32376.079 
  167800    287.78681   -8710.4005    41.176214   -8751.5768   -18764.924 
  168000    360.24728   -8691.9173    51.543778   -8743.4611   -6007.0585 
  168200    293.28648   -8709.9231    41.963102   -8751.8862    11909.973 
  168400    299.97787   -8712.3418    42.920498   -8755.2623    -37119.76 
  168600    221.99357   -8722.0697    31.762592   -8753.8323    28751.367 
  168800    336.85308   -8704.3033    48.196562   -8752.4998    -10962.85 
  169000    334.55001    -8704.068    47.867041    -8751.935    -13130.41 
  169200    280.79644   -8720.8075    40.176041   -8760.9835    -6858.642 
  169400    291.58206   -8711.2566    41.719236   -8752.9758   -26685.363 
  169600    259.24469   -8709.0007    37.092441   -8746.0931   -2564.5468 
  169800    317.86067   -8713.0662     45.47915   -8758.5454    18835.678 
  170000    242.93741   -8720.1921    34.759213   -8754.9513    19279.862 
  170200    344.24923   -8703.4525    49.254794   -8752.7073   -8128.9646 
  170400    239.72023    -8715.292    34.298902    -8749.591    16092.432 
  170600    316.03601   -8699.5466    45.218079   -8744.7647    48590.831 
  170800    269.89725   -8707.2559    38.616597   -8745.8725    8331.9388 
  171000    275.93449   -8712.8582    39.480399   -8752.3386   -13609.348 
  171200    262.51211   -8727.0425    37.559939   -8764.6025   -6709.6323 
  171400    286.23695   -8709.9148    40.954463   -8750.8693    12847.252 
  171600    316.63524    -8703.809    45.303817   -8749.1128    20172.182 
  171800    290.76386   -8719.1997    41.602168   -8760.8019   -21049.403 
  172000    371.82469   -8708.7702    53.200262   -8761.9704    11044.803 
  172200    315.35153   -8706.5875    45.120144   -8751.7077    27081.432 
  172400     245.4818   -8717.4353    35.123262   -8752.5586   -23252.838 
  172600    248.12651   -8721.1941    35.501664   -8756.6957    18750.227 
  172800    338.89073   -8702.7098    48.488107   -8751.1979    18320.479 
  173000    279.22836   -8714.0986    39.951681   -8754.0503   -21627.134 
  173200    342.63978   -8706.0574    49.024516   -8755.0819    20131.196 
  173400    342.81103   -8703.1032     49.04902   -8752.1522    680.01057 
  173600    304.42834   -8716.5219    43.557267   -8760.0792    47109.395 
  173800    218.23747   -8726.3573    31.225173   -8757.5825    -5884.461 
  174000    276.86825   -8710.8784       39.614   -8750.4924    -7230.357 
  174200     329.6617   -8700.5487    47.167628   -8747.7163   -25698.604 
  174400    261.36041   -8715.3357    37.395155   -8752.7309    6289.9304 
  174600    316.11809   -8713.2318    45.229824   -8758.4617   -11453.965 
  174800    294.78377   -8703.4652    42.177333   -8745.6425   -11186.392 
  175000    326.24055   -8708.2955    46.678133   -8754.9737    -18424.97 
  175200     256.5899   -8715.9483    36.712596   -8752.6609    34587.459 
  175400    321.72609   -8699.2753    46.032209   -8745.3075   -13455.191 
  175600    302.51883   -8710.6536    43.284057   -8753.9376   -9572.6279 
  175800    266.17391    -8718.319    38.083865   -8756.4028   -4870.5613 
  176000     242.5353   -8717.1481     34.70168   -8751.8498    545.16222 
  176200    302.64467   -8706.6259    43.302061    -8749.928   -8472.9362 
  176400    347.73512   -8713.7961    49.753552   -8763.5497     7660.931 
  176600    227.39113   -8723.3885    32.534869   -8755.9234    11924.196 
  176800    308.29185   -8707.5569    44.110053   -8751.6669    -26329.82 
  177000    295.74461   -8709.4371    42.314809   -8751.7519   -4665.4568 
  177200    275.87693   -8717.3077    39.472163   -8756.7798   -17941.654 
  177400    322.03883   -8711.1188    46.076956   -8757.1958    20923.197 
  177600    316.10007   -8701.5014    45.227245   -8746.7286    24044.066 
  177800    337.34344   -8714.8453    48.266722    -8763.112   -1338.4575 
  178000    268.95143   -8711.9656     38.48127   -8750.4468    3145.5571 
[...]
  950000    315.74991   -8707.3986    45.177145   -8752.5758     5900.717 
  950200    279.76673   -8713.3826     40.02871   -8753.4114   -31341.226 
  950400    326.51682    -8700.408    46.717662   -8747.1257    25581.243 
  950600    279.43081   -8701.7576    39.980648   -8741.7383    21628.293 
  950800     316.6686   -8710.3296    45.308589   -8755.6382   -43865.119 
  951000    307.96619   -8713.3505    44.063458   -8757.4139   -1640.1636 
  951200     292.0685   -8714.9004    41.788835   -8756.6893    36494.632 
  951400    317.45866   -8701.1474     45.42163    -8746.569   -1815.9548 
  951600     269.7217   -8703.3751    38.591479   -8741.9666     12697.82 
  951800     306.1656   -8708.2778    43.805832   -8752.0836   -54564.791 
  952000    348.68298   -8709.5858    49.889171    -8759.475    2510.3175 
  952200    280.22425   -8715.8541    40.094172   -8755.9482   -6933.6244 
  952400     284.3586   -8710.3507     40.68571   -8751.0364    633.51291 
  952600    364.16583   -8696.0822     52.10444   -8748.1866    11333.382 
  952800    313.38613   -8710.7711    44.838937     -8755.61   -6309.6613 
  953000    309.84997   -8710.5393    44.332987   -8754.8723    14119.545 
  953200    363.57585   -8698.3015    52.020026   -8750.3215    8546.8729 
  953400    343.54572   -8706.0584    49.154138   -8755.2126    11426.282 
  953600    312.35736   -8713.2581    44.691742   -8757.9499    980.90897 
  953800    273.81022   -8713.3317     39.17646   -8752.5082    4089.6027 
  954000    361.34378   -8699.3644    51.700664   -8751.0651   -17919.101 
  954200    336.97243   -8711.8802    48.213639   -8760.0939    1418.5597 
  954400    331.14521   -8704.6716    47.379886   -8752.0515    2053.1845 
  954600    376.22023   -8685.2861     53.82917   -8739.1153    41151.221 
  954800    328.19963   -8708.3152    46.958436   -8755.2737    13487.426 
  955000    267.26143   -8715.2693    38.239466   -8753.5088   -20220.223 
  955200    404.09797   -8699.6344    57.817886   -8757.4523    37058.858 
  955400     267.1914   -8707.4879    38.229447   -8745.7173   -9157.7671 
  955600    240.17845   -8720.0629    34.364464   -8754.4273   -36858.609 
  955800    311.71012   -8707.6466    44.599136   -8752.2457   -28860.489 
  956000    268.63298   -8707.0147    38.435706   -8745.4504    16485.563 
  956200    243.27956   -8725.8356    34.808167   -8760.6438   -9560.4384 
  956400    235.25949   -8711.2057    33.660665   -8744.8664   -23952.134 
  956600    347.06266   -8708.7287    49.657337    -8758.386    14567.727 
  956800    258.38864   -8718.8894    36.969958   -8755.8594    10455.138 
  957000    279.33594    -8699.874    39.967074   -8739.8411    14536.659 
  957200    298.36701   -8709.2126    42.690018   -8751.9027    8392.4989 
  957400    273.76508   -8720.9956    39.170002   -8760.1656   -6371.6827 
  957600    266.00668   -8718.8259    38.059939   -8756.8858   -51478.753 
  957800    301.59498   -8708.8976    43.151873   -8752.0494    32039.953 
  958000     292.7532   -8713.3763    41.886801   -8755.2631    9931.4715 
  958200    344.11227   -8699.3017    49.235198   -8748.5369   -7810.4481 
  958400    242.04951   -8713.1235    34.632173   -8747.7556   -17056.779 
  958600    328.46101   -8704.0557    46.995835   -8751.0516   -42803.494 
  958800    332.90166   -8705.4957    47.631197   -8753.1269    469.96131 
  959000    256.66976   -8717.8267    36.724023   -8754.5507   -23763.551 
  959200    321.22808   -8704.2545    45.960955   -8750.2154   -6934.2415 
  959400    323.83658   -8695.6694    46.334176   -8742.0036   -22496.767 
  959600    303.14869   -8703.7259    43.374176   -8747.1001   -20466.456 
  959800    288.37446   -8714.3256    41.260296   -8755.5859   -36522.663 
  960000    297.39275   -8722.9446    42.550623   -8765.4953   -296.49077 
  960200    296.94333   -8710.9514    42.486319   -8753.4377   -10433.925 
  960400    220.46063   -8710.0104     31.54326   -8741.5537    19495.463 
  960600    313.52414   -8710.5875    44.858683   -8755.4461   -44286.463 
  960800    279.95938   -8708.5281    40.056275   -8748.5844    23203.686 
  961000     298.6532    -8699.057    42.730966   -8741.7879   -30001.159 
  961200     256.4357   -8713.2191    36.690534   -8749.9096    52800.827 
  961400    294.22651   -8711.2972    42.097601   -8753.3948   -1097.3194 
  961600    297.25394   -8706.1439    42.530762   -8748.6747    8287.5151 
  961800    308.64403   -8698.8875    44.160443   -8743.0479    45563.554 
  962000    288.99334   -8711.7134    41.348844   -8753.0623   -19650.561 
  962200    359.57491   -8705.1891    51.447576   -8756.6367    18651.105 
  962400    277.53531    -8716.645    39.709443   -8756.3544   -17931.115 
  962600     319.6204   -8707.3028    45.730929   -8753.0338   -10379.239 
  962800    280.22994    -8708.535    40.094986     -8748.63    44813.388 
  963000    342.57118    -8702.553    49.014702   -8751.5677   -19436.499 
  963200    305.45711   -8714.7308    43.704462   -8758.4352   -19738.073 
  963400    364.82898   -8709.5915    52.199323   -8761.7908   -31144.515 
  963600    380.86641    -8697.497    54.493941    -8751.991    465.00618 
  963800    295.28175   -8712.4224    42.248583    -8754.671   -57481.254 
  964000    290.30745   -8711.7352    41.536865   -8753.2721   -5970.8079 
  964200    319.29503   -8694.4923    45.684376   -8740.1766    2630.5418 
  964400    281.81405   -8711.8888     40.32164   -8752.2105    28010.241 
  964600    296.69755   -8715.0817    42.451155   -8757.5329   -35529.471 
  964800    300.62224   -8696.8927    43.012694   -8739.9054     18319.47 
  965000    304.99586    -8711.308    43.638467   -8754.9464    769.20309 
  965200     291.1352   -8710.1373    41.655299   -8751.7926     -13856.6 
  965400    287.98364   -8705.6432    41.204378   -8746.8476     -73746.1 
  965600    368.02028   -8702.9299    52.655931   -8755.5859    33771.859 
  965800    241.35651   -8715.8421    34.533019   -8750.3751    28398.973 
  966000    288.57684     -8702.73    41.289251   -8744.0193    37614.649 
  966200    318.37604   -8687.9101    45.552888   -8733.4629   -18542.297 
  966400    285.39628   -8711.4802    40.834181   -8752.3143    29048.056 
  966600    321.48707   -8714.5105     45.99801   -8760.5085   -13342.672 
  966800    341.73449   -8706.4969    48.894989   -8755.3919    5001.6766 
  967000     307.5412    -8698.352    44.002651   -8742.3547     5730.668 
  967200    280.17596   -8717.3662    40.087263   -8757.4535   -12466.916 
  967400    305.69704   -8705.4078     43.73879   -8749.1466    -10668.92 
  967600    349.63786   -8704.4872    50.025795    -8754.513   -4473.7125 
  967800    285.45221   -8714.3023    40.842183   -8755.1445    15379.551 
  968000    317.72163   -8713.6267    45.459255    -8759.086   -4901.1025 
  968200     292.4197   -8712.2051    41.839084   -8754.0442    21839.776 
  968400    385.33017   -8688.1455     55.13261   -8743.2781   -399.44952 
  968600    302.22489   -8704.5271       43.242   -8747.7691   -3130.6325 
  968800    298.25336   -8711.4076    42.673757   -8754.0814   -9805.5538 
  969000    260.07842   -8727.6196    37.211729   -8764.8314   -2127.0913 
  969200     285.5826   -8714.9364     40.86084   -8755.7973    13966.922 
  969400    295.98808   -8712.8185    42.349644   -8755.1681   -7946.2729 
  969600    322.28682   -8695.9736    46.112438   -8742.0861   -4188.8877 
  969800    273.27424   -8711.5968    39.099772   -8750.6965    30276.586 
  970000    323.22449   -8708.8428    46.246599   -8755.0894    3928.9664 
  970200    287.27553   -8705.6218    41.103062   -8746.7248    25981.563 
  970400      275.899   -8719.6517    39.475321    -8759.127   -9913.8226 
  970600    277.38993   -8710.9558    39.688641   -8750.6444    145.32655 
  970800    378.71449   -8690.8837    54.186046   -8745.0697    5966.7077 
  971000     336.6985   -8706.4781    48.174445   -8754.6525   -12314.686 
  971200    294.95481    -8708.148    42.201805   -8750.3498    19378.013 
  971400    336.27428   -8702.1176    48.113748   -8750.2314   -31567.184 
  971600     248.3924   -8717.2071    35.539707   -8752.7468   -16847.786 
  971800    291.08498   -8703.9798    41.648113   -8745.6279   -3494.0207 
  972000    374.63818   -8698.9013    53.602813   -8752.5041   -35315.655 
  972200    282.47435    -8714.403    40.416115   -8754.8191    51225.038 
  972400    305.19671   -8713.2708    43.667204    -8756.938    1299.9637 
  972600    318.83554   -8700.7592    45.618632   -8746.3778    7043.1461 
  972800    249.50577   -8714.8831    35.699007   -8750.5821    26022.527 
  973000    271.13975   -8712.3366    38.794372    -8751.131   -11311.022 
  973200    319.57649     -8699.58    45.724647   -8745.3046    20328.354 
  973400    355.56663   -8695.4922    50.874076   -8746.3662   -13813.736 
  973600    277.98006    -8712.037    39.773077   -8751.8101    1132.3013 
  973800    304.25552    -8704.962    43.532539   -8748.4945   -4736.7339 
  974000    302.24805   -8708.4904    43.245314   -8751.7357   -15159.265 
  974200    288.13014   -8712.2095    41.225339   -8753.4348    -19373.64 
  974400    304.00385     -8715.03    43.496531   -8758.5266   -10331.726 
  974600    291.88267   -8719.9022    41.762246   -8761.6644   -25385.085 
  974800    322.95423   -8704.2046    46.207931   -8750.4125    14241.495 
  975000    291.47063   -8712.8526    41.703292   -8754.5559    14539.538 
  975200    268.87847    -8719.275    38.470831   -8757.7458   -22744.924 
  975400    285.79593   -8702.8176    40.891362    -8743.709    52094.088 
  975600    304.15716   -8709.3938    43.518466   -8752.9123    10040.097 
  975800    294.99952   -8717.8606    42.208201   -8760.0689    -29661.94 
  976000    272.84335   -8712.5057    39.038122   -8751.5438    30159.894 
  976200    364.23232   -8696.3578    52.113953   -8748.4717    38562.282 
  976400    270.62251   -8710.1309    38.720367   -8748.8512    778.22527 
  976600    304.77783   -8713.3672    43.607272   -8756.9745   -11526.441 
  976800    322.61146   -8694.1743    46.158887   -8740.3332   -15440.606 
  977000    368.58592   -8707.2508    52.736862   -8759.9876   -10996.748 
  977200    302.22985   -8721.1164    43.242709   -8764.3591    39497.843 
  977400     298.3247   -8708.0466    42.683965   -8750.7305    23232.375 
  977600    305.22706   -8699.7022    43.671546   -8743.3737    26706.828 
  977800    306.97448   -8715.8923    43.921566   -8759.8138    -27827.75 
  978000    222.00157    -8715.983    31.763736   -8747.7468   -38776.928 
  978200    358.57952   -8704.9807    51.305157   -8756.2859   -29893.919 
  978400    255.37678   -8719.1834    36.539024   -8755.7224    21183.203 
  978600    279.66947   -8710.8867    40.014796   -8750.9015   -19207.368 
  978800    287.97066   -8709.3843    41.202521   -8750.5869   -19251.068 
  979000    292.49035   -8708.5039    41.849193   -8750.3531   -18729.061 
  979200    351.97274   -8695.0604    50.359866   -8745.4203    14226.633 
  979400    270.82493    -8708.768    38.749328   -8747.5173   -17577.862 
  979600    287.37585    -8719.628    41.117415   -8760.7454   -7090.9487 
  979800    310.44581   -8711.4781    44.418239   -8755.8963    -9986.856 
  980000     371.3265   -8702.8172     53.12898   -8755.9462    29995.383 
  980200     272.1589   -8711.8898    38.940191     -8750.83    30469.028 
  980400    282.38323   -8713.1305    40.403077   -8753.5336    7374.1199 
  980600    278.64339   -8707.5431    39.867985   -8747.4111    52247.921 
  980800     299.6913   -8709.3314    42.879496   -8752.2109   -19563.993 
  981000     322.7527   -8709.6705    46.179096   -8755.8496    25363.751 
  981200    287.90559   -8710.8639     41.19321   -8752.0571    28078.104 
  981400    277.66034   -8719.5514    39.727331   -8759.2787   -26974.977 
  981600    328.93938   -8703.2633    47.064279   -8750.3276   -15244.752 
  981800    299.21291   -8707.8482    42.811048   -8750.6593    22388.938 
  982000    272.31214   -8716.0015    38.962117   -8754.9636    36327.359 
  982200    362.55154   -8698.4303    51.873469   -8750.3038   -1177.9842 
  982400    280.19384   -8712.9554    40.089822   -8753.0452   -4738.4383 
  982600    277.13261   -8713.0868    39.651824   -8752.7386    23347.161 
  982800    373.87515   -8692.4705    53.493639   -8745.9642   -952.40426 
  983000    295.90761   -8700.0055     42.33813   -8742.3437    11471.956 
  983200    293.13838    -8708.298    41.941911   -8750.2399   -4135.7828 
  983400    259.41149    -8725.925    37.116306   -8763.0413   -19000.657 
  983600    335.51746   -8706.6405    48.005463    -8754.646    22891.276 
  983800    307.88526   -8712.2871     44.05188    -8756.339   -18766.584 
  984000     249.1672   -8722.7755    35.650565   -8758.4261   -29281.951 
  984200    288.47774   -8703.1707    41.275072   -8744.4458    18340.472 
  984400    301.37103   -8695.1374     43.11983   -8738.2572   -20705.311 
  984600    329.03591    -8712.737     47.07809   -8759.8151     21214.13 
  984800    338.36829   -8712.9584    48.413357   -8761.3718   -18422.243 
  985000    351.61904   -8701.5184     50.30926   -8751.8276    -39087.16 
  985200    301.66576   -8715.7661       43.162   -8758.9281    16476.522 
  985400    261.50279   -8716.8922    37.415527   -8754.3077   -10821.895 
  985600     325.2493   -8701.8552    46.536306   -8748.3915    21519.642 
  985800    290.15648   -8714.8259    41.515265   -8756.3411   -15594.846 
  986000    289.30698   -8712.6364    41.393719   -8754.0302   -9944.8873 
  986200    351.12784   -8701.8184    50.238979   -8752.0573    31010.652 
  986400    290.30321    -8714.079    41.536259   -8755.6152    5138.8847 
  986600    321.84416   -8711.7672    46.049103   -8757.8163    27883.593 
  986800    299.85724   -8708.6822    42.903239   -8751.5855    31131.644 
  987000     329.2158   -8710.0346    47.103829   -8757.1384    31740.495 
  987200     228.9905   -8719.6747    32.763705   -8752.4384    15772.405 
  987400    313.14561    -8706.869    44.804523   -8751.6735    6824.0051 
  987600    328.25455   -8706.2484    46.966295   -8753.2146   -15913.806 
  987800    231.35733   -8720.9484    33.102348   -8754.0507    12835.468 
  988000    283.23523   -8721.1573     40.52498   -8761.6822    29200.694 
  988200    269.69645   -8713.6234    38.587867   -8752.2113    15094.309 
  988400    309.01007   -8705.6358    44.212816   -8749.8486   -2967.1904 
  988600    368.46706   -8699.5231    52.719856   -8752.2429     26769.85 
  988800    291.27827   -8712.3601    41.675769   -8754.0358   -766.07793 
  989000     257.8531    -8710.062    36.893334   -8746.9553   -6870.9506 
  989200    381.98804   -8697.2373    54.654421   -8751.8917    15563.694 
  989400     285.7264   -8712.1497    40.881413   -8753.0311    20130.815 
  989600    253.29008    -8709.861    36.240462   -8746.1015   -38666.963 
  989800    423.30111   -8693.4587     60.56545   -8754.0241    19537.845 
  990000    301.56516   -8708.6328    43.147606   -8751.7804   -13550.208 
  990200    271.45249    -8717.691    38.839118   -8756.5302   -36990.958 
  990400    304.74162   -8703.1879    43.602091     -8746.79   -31265.011 
  990600    269.08592   -8708.9171    38.500512   -8747.4176   -25793.948 
  990800    269.81199   -8719.5802    38.604398   -8758.1846    16473.752 
  991000    365.24677   -8697.3867      52.2591   -8749.6458    -7448.318 
  991200    262.37156   -8713.0445    37.539829   -8750.5843    634.67396 
  991400    266.45167   -8719.9186    38.123607   -8758.0422   -12043.104 
  991600    289.82891   -8706.0187    41.468396   -8747.4871   -3256.8956 
  991800    263.44557   -8718.0949    37.693497   -8755.7884    3742.7021 
  992000    337.84226   -8706.4745    48.338093   -8754.8126   -11368.763 
  992200    313.61998   -8696.5337    44.872396   -8741.4061     25972.19 
  992400    277.04258   -8717.5824    39.638942   -8757.2213     33757.33 
  992600    286.07774   -8710.7634    40.931684   -8751.6951   -2493.2167 
  992800    289.21994   -8705.7429    41.381266   -8747.1242   -18924.375 
  993000    255.20989   -8718.1202    36.515146   -8754.6354   -24147.147 
  993200    290.36584   -8706.9064    41.545219   -8748.4516   -8030.8356 
  993400    454.74851   -8691.5874    65.064908   -8756.6523   -14888.725 
  993600    275.68883   -8708.6069     39.44525   -8748.0521   -1381.6039 
  993800    292.87898   -8711.0509    41.904797   -8752.9557   -24076.336 
  994000    284.25055   -8716.6442    40.670251   -8757.3145    30886.444 
  994200    323.19687   -8702.4027    46.242647   -8748.6454    16913.497 
  994400    316.50132   -8708.6277    45.284655   -8753.9124    22760.045 
  994600    309.12713    -8724.075    44.229564   -8768.3046   -2242.9088 
  994800    264.22175   -8708.5902    37.804552   -8746.3947    18020.632 
  995000    312.75646   -8700.8916    44.748845   -8745.6404   -17544.472 
  995200    264.55309   -8715.9335     37.85196   -8753.7855   -616.68689 
  995400    280.73434   -8709.9347    40.167155   -8750.1019      25821.5 
  995600    310.79246   -8695.7412    44.467838   -8740.2091   -46089.604 
  995800     300.5351   -8706.7157    43.000227    -8749.716   -51888.347 
  996000    322.68931   -8713.2429    46.170026   -8759.4129   -14091.042 
  996200    295.73788   -8700.8079    42.313845   -8743.1218    18634.912 
  996400    356.71133   -8692.8243    51.037858   -8743.8622   -14142.578 
  996600    302.58649   -8710.4658    43.293737   -8753.7595   -38010.715 
  996800    314.76469   -8711.9981     45.03618   -8757.0342    -21716.56 
  997000    288.69537   -8717.2133    41.306211   -8758.5195   -13164.411 
  997200    315.38906   -8704.5844    45.125514   -8749.7099    -28128.07 
  997400    283.22449   -8697.4045    40.523443   -8737.9279    23306.022 
  997600     299.2637   -8709.2449    42.818315   -8752.0632    1960.4229 
  997800      255.192   -8714.7603    36.512586   -8751.2729   -20931.208 
  998000    380.42981   -8699.5235    54.431472   -8753.9549    15138.236 
  998200    272.87626   -8711.0908     39.04283   -8750.1337    24935.077 
  998400    295.08781   -8714.2038    42.220834   -8756.4247    45515.857 
  998600    363.63264   -8697.3099    52.028152   -8749.3381   -25196.953 
  998800    296.00791   -8709.6266    42.352481   -8751.9791   -27549.008 
  999000    324.86703   -8708.1821    46.481612   -8754.6638    12488.355 
  999200    293.56192   -8715.6113    42.002511   -8757.6139   -13118.917 
  999400    258.68631   -8720.8688    37.012548   -8757.8814    21687.305 
  999600    365.90353   -8704.4352    52.353068   -8756.7883   -17275.504 
  999800    297.17295   -8707.8861    42.519174   -8750.4052    21913.832 
 1000000    251.41813   -8722.6246    35.972625   -8758.5972    9021.1407 
Loop time of 2279.52 on 8 procs for 1000000 steps with 49 atoms

Performance: 9.476 ns/day, 2.533 hours/ns, 438.689 timesteps/s
99.4% CPU use with 8 MPI tasks x no OpenMP threads

MPI task timing breakdown:
Section |  min time  |  avg time  |  max time  |%varavg| %total
---------------------------------------------------------------
Pair    | 1935.6     | 1956.1     | 1967.5     |  20.2 | 85.81
Neigh   | 0.34812    | 0.35186    | 0.35493    |   0.4 |  0.02
Comm    | 26.475     | 37.828     | 58.189     | 144.7 |  1.66
Output  | 0.1003     | 0.11356    | 0.20019    |   9.7 |  0.00
Modify  | 283.3      | 283.47     | 283.7      |   0.8 | 12.44
Other   |            | 1.614      |            |       |  0.07

Nlocal:    6.125 ave 7 max 6 min
Histogram: 7 0 0 0 0 0 0 0 0 1
Nghost:    585.25 ave 599 max 574 min
Histogram: 2 2 0 0 0 0 1 1 0 2
Neighs:    789 ave 896 max 768 min
Histogram: 7 0 0 0 0 0 0 0 0 1

Total # of neighbors = 6312
Ave neighs/atom = 128.816
Neighbor list builds = 537
Dangerous builds = 0

unfix 1
unfix output
undump 1

Please see the log.cite file for references relevant to this simulation

Total wall time: 0:38:17
