ITEM: TIMESTEP
0
ITEM: NUMBER OF ATOMS
144
ITEM: BOX BOUNDS pp pp pp
0.0000000000000000e+00 2.1070900000000002e+01
0.0000000000000000e+00 2.1070900000000002e+01
0.0000000000000000e+00 2.1070900000000002e+01
ITEM: ATOMS id type x y z 
9 1 8.58534 12.4856 12.4856 
10 1 1.95011 19.1208 19.1208 
11 1 1.95011 19.1208 12.4856 
12 1 8.58534 12.4856 19.1208 
13 1 1.95011 12.4856 19.1208 
14 1 8.58534 19.1208 12.4856 
15 1 8.58534 19.1208 19.1208 
16 1 1.95011 12.4856 12.4856 
25 1 10.1416 10.9293 10.9293 
26 1 0.393815 20.6771 20.6771 
27 1 0.393815 20.6771 10.9293 
28 1 10.1416 10.9293 20.6771 
29 1 0.393815 10.9293 20.6771 
30 1 10.1416 20.6771 10.9293 
31 1 10.1416 20.6771 20.6771 
32 1 0.393815 10.9293 10.9293 
57 1 5.94157 12.1754 12.1754 
58 1 4.59388 19.431 19.431 
59 1 4.59388 19.431 12.1754 
60 1 5.94157 12.1754 19.431 
61 1 4.59388 12.1754 19.431 
62 1 5.94157 19.431 12.1754 
63 1 5.94157 19.431 19.431 
64 1 4.59388 12.1754 12.1754 
65 1 8.8955 15.1293 12.1754 
66 1 1.63995 16.477 19.431 
67 1 8.8955 16.477 19.431 
68 1 1.63995 15.1293 12.1754 
69 1 1.63995 16.477 12.1754 
70 1 8.8955 15.1293 19.431 
71 1 1.63995 15.1293 19.431 
72 1 8.8955 16.477 12.1754 
73 1 8.8955 12.1754 15.1293 
74 1 1.63995 19.431 16.477 
75 1 1.63995 12.1754 16.477 
76 1 8.8955 19.431 15.1293 
77 1 8.8955 19.431 16.477 
78 1 1.63995 12.1754 15.1293 
79 1 1.63995 19.431 15.1293 
80 1 8.8955 12.1754 16.477 
105 1 7.14556 12.2704 12.2704 
106 1 3.38989 19.3359 19.3359 
107 1 3.38989 19.3359 12.2704 
108 1 7.14556 12.2704 19.3359 
109 1 3.38989 12.2704 19.3359 
110 1 7.14556 19.3359 12.2704 
111 1 7.14556 19.3359 19.3359 
112 1 3.38989 12.2704 12.2704 
113 1 8.80047 13.9253 12.2704 
114 1 1.73498 17.681 19.3359 
115 1 8.80047 17.681 19.3359 
116 1 1.73498 13.9253 12.2704 
117 1 1.73498 17.681 12.2704 
118 1 8.80047 13.9253 19.3359 
119 1 1.73498 13.9253 19.3359 
120 1 8.80047 17.681 12.2704 
121 1 8.80047 12.2704 13.9253 
122 1 1.73498 19.3359 17.681 
123 1 1.73498 12.2704 17.681 
124 1 8.80047 19.3359 13.9253 
125 1 8.80047 19.3359 17.681 
126 1 1.73498 12.2704 13.9253 
127 1 1.73498 19.3359 13.9253 
128 1 8.80047 12.2704 17.681 
137 1 9.43681 11.6341 11.6341 
138 1 1.09864 19.9723 19.9723 
139 1 1.09864 19.9723 11.6341 
140 1 9.43681 11.6341 19.9723 
141 1 1.09864 11.6341 19.9723 
142 1 9.43681 19.9723 11.6341 
143 1 9.43681 19.9723 19.9723 
144 1 1.09864 11.6341 11.6341 
1 1 19.1208 1.95011 1.95011 
2 1 12.4856 8.58534 8.58534 
3 1 12.4856 8.58534 1.95011 
4 1 19.1208 1.95011 8.58534 
5 1 12.4856 1.95011 8.58534 
6 1 19.1208 8.58534 1.95011 
7 1 19.1208 8.58534 8.58534 
8 1 12.4856 1.95011 1.95011 
17 1 20.6771 0.393815 0.393815 
18 1 10.9293 10.1416 10.1416 
19 1 10.9293 10.1416 0.393815 
20 1 20.6771 0.393815 10.1416 
21 1 10.9293 0.393815 10.1416 
22 1 20.6771 10.1416 0.393815 
23 1 20.6771 10.1416 10.1416 
24 1 10.9293 0.393815 0.393815 
33 1 16.477 1.63995 1.63995 
34 1 15.1293 8.8955 8.8955 
35 1 15.1293 8.8955 1.63995 
36 1 16.477 1.63995 8.8955 
37 1 15.1293 1.63995 8.8955 
38 1 16.477 8.8955 1.63995 
39 1 16.477 8.8955 8.8955 
40 1 15.1293 1.63995 1.63995 
41 1 19.431 4.59388 1.63995 
42 1 12.1754 5.94157 8.8955 
43 1 19.431 5.94157 8.8955 
44 1 12.1754 4.59388 1.63995 
45 1 12.1754 5.94157 1.63995 
46 1 19.431 4.59388 8.8955 
47 1 12.1754 4.59388 8.8955 
48 1 19.431 5.94157 1.63995 
49 1 19.431 1.63995 4.59388 
50 1 12.1754 8.8955 5.94157 
51 1 12.1754 1.63995 5.94157 
52 1 19.431 8.8955 4.59388 
53 1 19.431 8.8955 5.94157 
54 1 12.1754 1.63995 4.59388 
55 1 12.1754 8.8955 4.59388 
56 1 19.431 1.63995 5.94157 
81 1 17.681 1.73498 1.73498 
82 1 13.9253 8.80047 8.80047 
83 1 13.9253 8.80047 1.73498 
84 1 17.681 1.73498 8.80047 
85 1 13.9253 1.73498 8.80047 
86 1 17.681 8.80047 1.73498 
87 1 17.681 8.80047 8.80047 
88 1 13.9253 1.73498 1.73498 
89 1 19.3359 3.38989 1.73498 
90 1 12.2704 7.14556 8.80047 
91 1 19.3359 7.14556 8.80047 
92 1 12.2704 3.38989 1.73498 
93 1 12.2704 7.14556 1.73498 
94 1 19.3359 3.38989 8.80047 
95 1 12.2704 3.38989 8.80047 
96 1 19.3359 7.14556 1.73498 
97 1 19.3359 1.73498 3.38989 
98 1 12.2704 8.80047 7.14556 
99 1 12.2704 1.73498 7.14556 
100 1 19.3359 8.80047 3.38989 
101 1 19.3359 8.80047 7.14556 
102 1 12.2704 1.73498 3.38989 
103 1 12.2704 8.80047 3.38989 
104 1 19.3359 1.73498 7.14556 
129 1 19.9723 1.09864 1.09864 
130 1 11.6341 9.43681 9.43681 
131 1 11.6341 9.43681 1.09864 
132 1 19.9723 1.09864 9.43681 
133 1 11.6341 1.09864 9.43681 
134 1 19.9723 9.43681 1.09864 
135 1 19.9723 9.43681 9.43681 
136 1 11.6341 1.09864 1.09864 
ITEM: TIMESTEP
10
ITEM: NUMBER OF ATOMS
144
ITEM: BOX BOUNDS pp pp pp
0.0000000000000000e+00 2.1070900000000002e+01
0.0000000000000000e+00 2.1070900000000002e+01
0.0000000000000000e+00 2.1070900000000002e+01
ITEM: ATOMS id type x y z 
9 1 8.60326 12.4678 12.4677 
10 1 1.93202 19.1387 19.1387 
11 1 1.93199 19.1386 12.4677 
12 1 8.60306 12.4679 19.1391 
13 1 1.932 12.4677 19.1386 
14 1 8.60307 19.1391 12.4679 
15 1 8.60323 19.1387 19.1389 
16 1 1.93227 12.4678 12.4678 
25 1 10.1404 10.93 10.93 
26 1 0.393445 20.6766 20.6766 
27 1 0.393771 20.6764 10.9298 
28 1 10.1409 10.93 20.6771 
29 1 0.393732 10.9298 20.6764 
30 1 10.1409 20.6771 10.93 
31 1 10.1411 20.6766 20.6771 
32 1 0.394306 10.9304 10.9304 
57 1 5.98939 12.1441 12.1441 
58 1 4.54937 19.4625 19.4625 
59 1 4.54786 19.4624 12.144 
60 1 5.98647 12.1439 19.4624 
61 1 4.54793 12.144 19.4624 
62 1 5.98643 19.4624 12.1439 
63 1 5.98579 19.4625 19.4625 
64 1 4.54694 12.1441 12.1441 
65 1 8.92696 15.084 12.144 
66 1 1.60847 16.5223 19.4625 
67 1 8.92694 16.523 19.4624 
68 1 1.60854 15.0834 12.144 
69 1 1.60856 16.5232 12.144 
70 1 8.92703 15.0845 19.4624 
71 1 1.60839 15.0852 19.4625 
72 1 8.92685 16.5239 12.1441 
73 1 8.92697 12.1439 15.0841 
74 1 1.60848 19.4624 16.5224 
75 1 1.60856 12.144 16.5232 
76 1 8.92702 19.4624 15.0843 
77 1 8.92695 19.4624 16.5228 
78 1 1.60853 12.144 15.0834 
79 1 1.60839 19.4625 15.0852 
80 1 8.92684 12.1441 16.524 
105 1 7.18073 12.2131 12.2131 
106 1 3.3511 19.3931 19.3931 
107 1 3.3527 19.3932 12.2132 
108 1 7.18394 12.2133 19.3932 
109 1 3.35262 12.2133 19.3932 
110 1 7.18397 19.3932 12.2133 
111 1 7.18451 19.3931 19.3931 
112 1 3.35302 12.2133 12.2133 
113 1 8.85757 13.8872 12.2134 
114 1 1.67767 17.7185 19.3932 
115 1 8.85773 17.7179 19.3932 
116 1 1.67783 13.8877 12.2133 
117 1 1.67763 17.7176 12.2132 
118 1 8.85756 13.8869 19.3932 
119 1 1.67782 13.8863 19.3931 
120 1 8.85777 17.7168 12.2131 
121 1 8.85757 12.2134 13.8871 
122 1 1.67766 19.3932 17.7184 
123 1 1.67763 12.2132 17.7176 
124 1 8.85757 19.3932 13.8871 
125 1 8.85767 19.3932 17.7184 
126 1 1.67784 12.2133 13.8876 
127 1 1.67782 19.3931 13.8862 
128 1 8.85779 12.2131 17.7167 
137 1 9.44605 11.6258 11.6258 
138 1 1.09132 19.9811 19.9811 
139 1 1.09108 19.9811 11.6253 
140 1 9.44569 11.6252 19.9797 
141 1 1.09112 11.6253 19.9811 
142 1 9.44569 19.9797 11.6252 
143 1 9.44568 19.9809 19.9799 
144 1 1.09098 11.625 11.625 
1 1 19.1386 1.93209 1.93208 
2 1 12.4673 8.60299 8.60298 
3 1 12.4679 8.60307 1.93215 
4 1 19.1386 1.93199 8.60322 
5 1 12.4679 1.93216 8.60309 
6 1 19.1387 8.60321 1.93203 
7 1 19.1393 8.60304 8.60304 
8 1 12.4678 1.93225 1.93202 
17 1 20.6766 0.393815 0.393815 
18 1 10.9296 10.1405 10.1405 
19 1 10.9303 10.1406 0.394169 
20 1 20.6764 0.393756 10.1411 
21 1 10.9303 0.394147 10.1406 
22 1 20.6763 10.1411 0.393703 
23 1 20.6772 10.1411 10.1411 
24 1 10.9298 0.3943 0.393818 
33 1 16.522 1.60843 1.60843 
34 1 15.0852 8.92703 8.92703 
35 1 15.0838 8.92697 1.60851 
36 1 16.5232 1.60855 8.92692 
37 1 15.0838 1.60851 8.92697 
38 1 16.5234 8.92691 1.60857 
39 1 16.5237 8.92685 8.92685 
40 1 15.0848 1.60839 1.6084 
41 1 19.4625 4.54875 1.60845 
42 1 12.1441 5.9888 8.92684 
43 1 19.4625 5.98606 8.92706 
44 1 12.144 4.54795 1.60853 
45 1 12.1439 5.9872 1.60851 
46 1 19.4624 4.54784 8.92694 
47 1 12.1441 4.54687 8.92684 
48 1 19.4625 5.98559 1.60838 
49 1 19.4625 1.60846 4.54871 
50 1 12.1441 8.92685 5.98876 
51 1 12.1439 1.60851 5.9872 
52 1 19.4624 8.92695 4.548 
53 1 19.4625 8.92705 5.98621 
54 1 12.1439 1.60851 4.54807 
55 1 12.1441 8.92684 4.54678 
56 1 19.4625 1.60838 5.98554 
81 1 17.719 1.67771 1.6777 
82 1 13.8864 8.85749 8.85749 
83 1 13.8874 8.85756 1.67781 
84 1 17.7176 1.67762 8.85774 
85 1 13.8874 1.67781 8.85757 
86 1 17.7173 8.85778 1.6776 
87 1 17.7163 8.85787 8.85787 
88 1 13.8865 1.67781 1.6778 
89 1 19.3931 3.352 1.67772 
90 1 12.2132 7.18171 8.8577 
91 1 19.3932 7.1842 8.85756 
92 1 12.2132 3.35291 1.67767 
93 1 12.2133 7.18348 1.6778 
94 1 19.3932 3.35272 8.85767 
95 1 12.2133 3.35334 8.85762 
96 1 19.3931 7.18473 1.67782 
97 1 19.3931 1.67772 3.35206 
98 1 12.2132 8.8577 7.18176 
99 1 12.2133 1.6778 7.18348 
100 1 19.3932 8.85763 3.35245 
101 1 19.3932 8.85757 7.18407 
102 1 12.2132 1.67772 3.35257 
103 1 12.2133 8.85762 3.35342 
104 1 19.3931 1.67781 7.18475 
129 1 19.9812 1.09061 1.09061 
130 1 11.6265 9.44591 9.44591 
131 1 11.625 9.44587 1.09104 
132 1 19.9811 1.09108 9.44564 
133 1 11.625 1.09105 9.44586 
134 1 19.9813 9.4456 1.09121 
135 1 19.9797 9.44561 9.44561 
136 1 11.6252 1.09002 1.09097 
ITEM: TIMESTEP
20
ITEM: NUMBER OF ATOMS
144
ITEM: BOX BOUNDS pp pp pp
0.0000000000000000e+00 2.1070900000000002e+01
0.0000000000000000e+00 2.1070900000000002e+01
0.0000000000000000e+00 2.1070900000000002e+01
ITEM: ATOMS id type x y z 
9 1 8.60745 12.4631 12.4632 
10 1 1.92763 19.1431 19.1431 
11 1 1.9275 19.143 12.4634 
12 1 8.6078 12.4632 19.1432 
13 1 1.92749 12.4633 19.143 
14 1 8.60777 19.1432 12.4631 
15 1 8.60759 19.143 19.1434 
16 1 1.92789 12.463 12.463 
25 1 10.1347 10.9355 10.9355 
26 1 0.400041 20.6697 20.6698 
27 1 0.399989 20.6699 10.9362 
28 1 10.1343 10.9366 20.6705 
29 1 0.399977 10.9362 20.6698 
30 1 10.1343 20.6706 10.9366 
31 1 10.1345 20.67 20.6707 
32 1 0.400486 10.9367 10.9367 
57 1 5.98912 12.1298 12.1298 
58 1 4.5459 19.4765 19.4765 
59 1 4.54669 19.4765 12.1298 
60 1 5.98879 12.1298 19.4766 
61 1 4.5467 12.1298 19.4765 
62 1 5.98887 19.4766 12.1298 
63 1 5.98946 19.4766 19.4765 
64 1 4.54434 12.1299 12.1299 
65 1 8.9411 15.082 12.1298 
66 1 1.59435 16.5244 19.4766 
67 1 8.9411 16.5245 19.4765 
68 1 1.59436 15.0824 12.1298 
69 1 1.59438 16.5245 12.1298 
70 1 8.9411 15.0819 19.4766 
71 1 1.59438 15.0812 19.4766 
72 1 8.94105 16.5247 12.1298 
73 1 8.9411 12.1298 15.082 
74 1 1.59435 19.4766 16.5244 
75 1 1.59438 12.1298 16.5245 
76 1 8.94111 19.4766 15.0821 
77 1 8.9411 19.4765 16.5244 
78 1 1.59436 12.1298 15.0825 
79 1 1.59438 19.4765 15.0812 
80 1 8.94106 12.1298 16.5246 
105 1 7.18028 12.196 12.196 
106 1 3.35521 19.4101 19.4101 
107 1 3.35472 19.4102 12.1962 
108 1 7.18054 12.1961 19.4104 
109 1 3.35471 12.1962 19.4102 
110 1 7.18048 19.4104 12.1961 
111 1 7.18013 19.4103 19.4103 
112 1 3.35624 12.1962 12.1962 
113 1 8.87484 13.8903 12.1962 
114 1 1.66057 17.7159 19.4103 
115 1 8.87477 17.7157 19.4103 
116 1 1.66058 13.8901 12.1961 
117 1 1.66055 17.7157 12.1961 
118 1 8.87475 13.8904 19.4104 
119 1 1.66058 13.8909 19.4103 
120 1 8.87471 17.7156 12.1962 
121 1 8.87485 12.1962 13.8904 
122 1 1.66057 19.4103 17.7159 
123 1 1.66055 12.1961 17.7156 
124 1 8.87476 19.4104 13.8903 
125 1 8.87469 19.4102 17.7161 
126 1 1.66058 12.1961 13.89 
127 1 1.66058 19.4103 13.8909 
128 1 8.87472 12.1962 17.7157 
137 1 9.4408 11.6314 11.6314 
138 1 1.09649 19.9764 19.9764 
139 1 1.09646 19.9762 11.6302 
140 1 9.44095 11.63 19.9746 
141 1 1.09647 11.6302 19.9762 
142 1 9.44094 19.9746 11.63 
143 1 9.44077 19.9761 19.9747 
144 1 1.09628 11.6299 11.6299 
1 1 19.1431 1.9277 1.9277 
2 1 12.4629 8.60756 8.60755 
3 1 12.4631 8.60777 1.92804 
4 1 19.143 1.92747 8.60748 
5 1 12.4631 1.92805 8.60781 
6 1 19.143 8.60749 1.92743 
7 1 19.1434 8.6078 8.60788 
8 1 12.4632 1.9279 1.92761 
17 1 20.6697 0.40046 0.400459 
18 1 10.9356 10.1342 10.1342 
19 1 10.9362 10.1347 0.399959 
20 1 20.6698 0.400068 10.1346 
21 1 10.9362 0.399958 10.1347 
22 1 20.6698 10.1347 0.399957 
23 1 20.6702 10.134 10.134 
24 1 10.9363 0.40081 0.400159 
33 1 16.5246 1.59434 1.59434 
34 1 15.0817 8.94107 8.94107 
35 1 15.0823 8.94111 1.59435 
36 1 16.5244 1.59437 8.9411 
37 1 15.0824 1.59435 8.94111 
38 1 16.5245 8.9411 1.59438 
39 1 16.5242 8.94109 8.94109 
40 1 15.0816 1.59433 1.59435 
41 1 19.4766 4.54635 1.59435 
42 1 12.1299 5.98923 8.94107 
43 1 19.4766 5.98921 8.94109 
44 1 12.1298 4.54638 1.59438 
45 1 12.1298 5.98845 1.59435 
46 1 19.4766 4.54672 8.94111 
47 1 12.1299 4.54475 8.94097 
48 1 19.4766 5.98981 1.59439 
49 1 19.4766 1.59435 4.54635 
50 1 12.1299 8.94107 5.98929 
51 1 12.1298 1.59434 5.9884 
52 1 19.4766 8.94111 4.54679 
53 1 19.4766 8.9411 5.9889 
54 1 12.1298 1.59437 4.54646 
55 1 12.1299 8.94098 4.54482 
56 1 19.4765 1.59439 5.98992 
81 1 17.7158 1.66059 1.66059 
82 1 13.8904 8.87469 8.87469 
83 1 13.8901 8.87476 1.66056 
84 1 17.7158 1.66054 8.87478 
85 1 13.8901 1.66057 8.87476 
86 1 17.7156 8.8748 1.66052 
87 1 17.716 8.87473 8.87474 
88 1 13.8906 1.66064 1.6606 
89 1 19.4102 3.355 1.66065 
90 1 12.196 7.1803 8.87485 
91 1 19.4105 7.18027 8.87476 
92 1 12.1961 3.35522 1.66058 
93 1 12.1961 7.18081 1.66056 
94 1 19.4102 3.35465 8.87468 
95 1 12.1962 3.35613 8.8747 
96 1 19.4103 7.17989 1.66058 
97 1 19.4102 1.66066 3.35499 
98 1 12.196 8.87485 7.18025 
99 1 12.1961 1.66056 7.18079 
100 1 19.4102 8.87467 3.35461 
101 1 19.4105 8.87476 7.18047 
102 1 12.1962 1.6607 3.35496 
103 1 12.1962 8.87469 3.35608 
104 1 19.4103 1.66057 7.17981 
129 1 19.9764 1.0956 1.0956 
130 1 11.6319 9.44101 9.441 
131 1 11.6302 9.44067 1.09664 
132 1 19.9762 1.09639 9.44072 
133 1 11.6302 1.09664 9.44068 
134 1 19.9764 9.44066 1.09657 
135 1 19.9749 9.4412 9.4412 
136 1 11.6302 1.09491 1.09629 
ITEM: TIMESTEP
30
ITEM: NUMBER OF ATOMS
144
ITEM: BOX BOUNDS pp pp pp
0.0000000000000000e+00 2.1070900000000002e+01
0.0000000000000000e+00 2.1070900000000002e+01
0.0000000000000000e+00 2.1070900000000002e+01
ITEM: ATOMS id type x y z 
9 1 8.59146 12.48 12.48 
10 1 1.94449 19.1263 19.1263 
11 1 1.94457 19.1265 12.48 
12 1 8.59101 12.4799 19.1265 
13 1 1.94455 12.48 19.1266 
14 1 8.59101 19.1265 12.48 
15 1 8.59091 19.1264 19.1265 
16 1 1.94507 12.4803 12.4803 
25 1 10.1251 10.9447 10.9447 
26 1 0.408539 20.661 20.661 
27 1 0.408759 20.6608 10.9449 
28 1 10.1258 10.9451 20.6617 
29 1 0.408698 10.9448 20.6607 
30 1 10.1258 20.6617 10.9451 
31 1 10.1259 20.6613 20.6618 
32 1 0.409144 10.9451 10.9451 
57 1 5.98508 12.1064 12.1064 
58 1 4.55046 19.4998 19.4998 
59 1 4.55029 19.4998 12.1066 
60 1 5.98528 12.1066 19.4999 
61 1 4.55026 12.1066 19.4998 
62 1 5.98525 19.4999 12.1066 
63 1 5.98507 19.4999 19.4999 
64 1 4.54978 12.1065 12.1065 
65 1 8.96437 15.0859 12.1066 
66 1 1.57106 16.5204 19.4998 
67 1 8.96432 16.5205 19.4998 
68 1 1.57108 15.0859 12.1066 
69 1 1.57107 16.5207 12.1066 
70 1 8.96429 15.0857 19.4999 
71 1 1.57104 15.0857 19.4999 
72 1 8.96433 16.5206 12.1066 
73 1 8.96437 12.1066 15.0859 
74 1 1.57106 19.4998 16.5204 
75 1 1.57106 12.1066 16.5207 
76 1 8.96427 19.4999 15.0857 
77 1 8.96427 19.4998 16.5207 
78 1 1.57108 12.1066 15.0859 
79 1 1.57104 19.4999 15.0857 
80 1 8.96433 12.1066 16.5206 
105 1 7.17317 12.1961 12.1961 
106 1 3.36254 19.4098 19.4098 
107 1 3.36243 19.4099 12.1964 
108 1 7.17274 12.1962 19.4103 
109 1 3.36247 12.1964 19.4099 
110 1 7.17276 19.4102 12.1962 
111 1 7.173 19.4101 19.4102 
112 1 3.36279 12.1965 12.1965 
113 1 8.87458 13.8979 12.1963 
114 1 1.66067 17.7086 19.4101 
115 1 8.87466 17.7085 19.4102 
116 1 1.66044 13.898 12.1962 
117 1 1.66062 17.7085 12.1962 
118 1 8.87467 13.898 19.4102 
119 1 1.66063 13.898 19.4101 
120 1 8.87438 17.7082 12.1965 
121 1 8.87458 12.1963 13.8979 
122 1 1.66067 19.4101 17.7086 
123 1 1.66062 12.1962 17.7085 
124 1 8.87469 19.4102 13.8981 
125 1 8.87449 19.4099 17.7084 
126 1 1.66043 12.1962 13.8981 
127 1 1.66063 19.4101 13.898 
128 1 8.87439 12.1965 17.7082 
137 1 9.4346 11.6377 11.6377 
138 1 1.10326 19.9699 19.9699 
139 1 1.10306 19.9698 11.6364 
140 1 9.43433 11.6366 19.9677 
141 1 1.10309 11.6364 19.9698 
142 1 9.43433 19.9677 11.6366 
143 1 9.43434 19.9697 19.9679 
144 1 1.10283 11.6364 11.6364 
1 1 19.1262 1.94462 1.9446 
2 1 12.48 8.59108 8.59101 
3 1 12.4801 8.59077 1.94467 
4 1 19.1266 1.94449 8.59093 
5 1 12.4801 1.94468 8.59074 
6 1 19.1266 8.59091 1.94453 
7 1 19.1264 8.59112 8.5911 
8 1 12.4801 1.9445 1.94438 
17 1 20.6608 0.409041 0.409041 
18 1 10.9439 10.1257 10.1257 
19 1 10.9451 10.1258 0.409179 
20 1 20.6608 0.408746 10.1261 
21 1 10.9451 0.40918 10.1258 
22 1 20.6608 10.126 0.408721 
23 1 20.6616 10.1256 10.1256 
24 1 10.945 0.409618 0.409058 
33 1 16.5204 1.57105 1.57107 
34 1 15.0859 8.96435 8.96435 
35 1 15.0858 8.96428 1.57108 
36 1 16.5206 1.57106 8.96432 
37 1 15.0858 1.57108 8.96428 
38 1 16.5206 8.96434 1.57105 
39 1 16.5205 8.96433 8.96433 
40 1 15.0859 1.57108 1.57106 
41 1 19.4998 4.55053 1.57108 
42 1 12.1064 5.98493 8.96444 
43 1 19.5 5.98525 8.9643 
44 1 12.1066 4.55025 1.57107 
45 1 12.1066 5.98516 1.57108 
46 1 19.4998 4.55031 8.96428 
47 1 12.1065 4.54988 8.96441 
48 1 19.4999 5.98524 1.57101 
49 1 19.4998 1.57107 4.55051 
50 1 12.1064 8.96444 5.98493 
51 1 12.1066 1.57107 5.98516 
52 1 19.4998 8.96426 4.55023 
53 1 19.4999 8.96428 5.98525 
54 1 12.1066 1.57113 4.5502 
55 1 12.1065 8.9644 4.54993 
56 1 19.4999 1.571 5.98531 
81 1 17.7085 1.66072 1.66072 
82 1 13.898 8.87439 8.87438 
83 1 13.8979 8.87476 1.6605 
84 1 17.7085 1.66062 8.87472 
85 1 13.8979 1.66049 8.87476 
86 1 17.7085 8.87472 1.66059 
87 1 17.7082 8.87437 8.87438 
88 1 13.8979 1.66079 1.66066 
89 1 19.4099 3.36231 1.66085 
90 1 12.1961 7.17323 8.87466 
91 1 19.4102 7.17258 8.87465 
92 1 12.1962 3.36249 1.66068 
93 1 12.1961 7.17291 1.66049 
94 1 19.4099 3.36235 8.87453 
95 1 12.1965 3.36274 8.87443 
96 1 19.4101 7.17282 1.66062 
97 1 19.4099 1.66086 3.3623 
98 1 12.1961 8.87465 7.1732 
99 1 12.1961 1.66047 7.17284 
100 1 19.4098 8.87451 3.3624 
101 1 19.4102 8.87466 7.17258 
102 1 12.1964 1.66098 3.36249 
103 1 12.1965 8.87443 3.36276 
104 1 19.4101 1.66064 7.17278 
129 1 19.97 1.10216 1.10215 
130 1 11.6388 9.43431 9.4343 
131 1 11.6364 9.43454 1.10292 
132 1 19.9698 1.10307 9.43448 
133 1 11.6364 1.10291 9.43454 
134 1 19.9699 9.4345 1.10314 
135 1 19.9676 9.43418 9.43419 
136 1 11.6365 1.10112 1.10293 
ITEM: TIMESTEP
40
ITEM: NUMBER OF ATOMS
144
ITEM: BOX BOUNDS pp pp pp
0.0000000000000000e+00 2.1070900000000002e+01
0.0000000000000000e+00 2.1070900000000002e+01
0.0000000000000000e+00 2.1070900000000002e+01
ITEM: ATOMS id type x y z 
9 1 8.63271 12.4273 12.4272 
10 1 1.89648 19.1779 19.178 
11 1 1.8898 19.1738 12.4321 
12 1 8.63603 12.4325 19.1718 
13 1 1.89028 12.4325 19.1733 
14 1 8.63607 19.1725 12.432 
15 1 8.64038 19.1758 19.1762 
16 1 1.86815 12.4251 12.4251 
25 1 10.1495 10.918 10.9181 
26 1 0.377511 20.6913 20.6913 
27 1 0.376861 20.6907 10.9139 
28 1 10.1582 10.9128 20.692 
29 1 0.377074 10.9141 20.6906 
30 1 10.1583 20.692 10.9127 
31 1 10.1567 20.6924 20.6911 
32 1 0.382359 10.9163 10.9163 
57 1 6.01666 11.9623 11.9624 
58 1 4.52402 19.6441 19.6441 
59 1 4.52918 19.6443 11.9616 
60 1 6.0126 11.9616 19.6445 
61 1 4.52895 11.9616 19.6443 
62 1 6.01233 19.6445 11.9617 
63 1 6.01039 19.6443 19.6448 
64 1 4.53317 11.9615 11.9614 
65 1 9.10792 15.0608 11.9616 
66 1 1.42626 16.5443 19.6441 
67 1 9.10874 16.545 19.6447 
68 1 1.42606 15.0604 11.9629 
69 1 1.42609 16.5443 11.9614 
70 1 9.10898 15.0612 19.6441 
71 1 1.42571 15.0588 19.6439 
72 1 9.10855 16.5459 11.9627 
73 1 9.10796 11.9616 15.0609 
74 1 1.42626 19.6441 16.5441 
75 1 1.42622 11.9615 16.5445 
76 1 9.10915 19.6443 15.0609 
77 1 9.10884 19.6442 16.5452 
78 1 1.42602 11.9629 15.0605 
79 1 1.42565 19.644 15.0585 
80 1 9.10858 11.9628 16.5463 
105 1 7.18165 12.1925 12.1925 
106 1 3.363 19.4129 19.4126 
107 1 3.36244 19.4146 12.1927 
108 1 7.17418 12.1928 19.4148 
109 1 3.36247 12.1927 19.4145 
110 1 7.17445 19.4149 12.1927 
111 1 7.17323 19.4143 19.4148 
112 1 3.37098 12.1892 12.1892 
113 1 8.87944 13.8983 12.1922 
114 1 1.65646 17.7089 19.415 
115 1 8.87866 17.7093 19.4149 
116 1 1.65416 13.8966 12.1918 
117 1 1.65673 17.7124 12.1931 
118 1 8.87887 13.8981 19.4152 
119 1 1.65673 13.8987 19.4142 
120 1 8.87824 17.7077 12.1928 
121 1 8.8794 12.1921 13.8984 
122 1 1.65642 19.415 17.7092 
123 1 1.6566 12.193 17.7121 
124 1 8.87878 19.4155 13.8982 
125 1 8.87762 19.4135 17.7087 
126 1 1.65421 12.1918 13.8968 
127 1 1.65679 19.4141 13.899 
128 1 8.87813 12.1931 17.7079 
137 1 9.46522 11.6086 11.6084 
138 1 1.07833 19.9964 19.9964 
139 1 1.07875 19.9961 11.6098 
140 1 9.46374 11.6074 19.9949 
141 1 1.07807 11.6093 19.9965 
142 1 9.46324 19.9945 11.6077 
143 1 9.46125 19.9969 19.9927 
144 1 1.08363 11.6167 11.6167 
1 1 19.177 1.89182 1.89181 
2 1 12.4368 8.63463 8.63529 
3 1 12.4246 8.64578 1.8815 
4 1 19.1721 1.88924 8.63892 
5 1 12.425 1.8802 8.64553 
6 1 19.1723 8.63891 1.88887 
7 1 19.1737 8.63181 8.63221 
8 1 12.4289 1.89537 1.89453 
17 1 20.6901 0.377673 0.377624 
18 1 10.9087 10.16 10.16 
19 1 10.9198 10.1511 0.386067 
20 1 20.6907 0.376949 10.157 
21 1 10.9196 0.385811 10.1513 
22 1 20.6908 10.157 0.376921 
23 1 20.6918 10.1577 10.1577 
24 1 10.9139 0.378356 0.379644 
33 1 16.5461 1.42621 1.42619 
34 1 15.0611 9.1092 9.10922 
35 1 15.0612 9.10826 1.42694 
36 1 16.5438 1.42653 9.1089 
37 1 15.0616 1.42684 9.10821 
38 1 16.5436 9.10892 1.42619 
39 1 16.545 9.10874 9.10874 
40 1 15.0609 1.42664 1.42623 
41 1 19.6442 4.52697 1.42667 
42 1 11.9614 6.01004 9.10861 
43 1 19.6442 6.01316 9.10912 
44 1 11.962 4.52671 1.42649 
45 1 11.9626 6.01 1.42666 
46 1 19.6438 4.52992 9.10891 
47 1 11.9616 4.52679 9.10926 
48 1 19.6443 6.01284 1.42547 
49 1 19.6442 1.4266 4.52697 
50 1 11.9613 9.10866 6.00943 
51 1 11.9625 1.42649 6.01021 
52 1 19.6441 9.10923 4.52967 
53 1 19.6442 9.10914 6.01303 
54 1 11.9619 1.42703 4.52685 
55 1 11.9617 9.10917 4.52578 
56 1 19.6446 1.4255 6.0127 
81 1 17.7085 1.65669 1.65687 
82 1 13.9001 8.87748 8.87741 
83 1 13.8985 8.87945 1.65423 
84 1 17.7115 1.6561 8.87813 
85 1 13.8984 1.65412 8.87943 
86 1 17.7122 8.87786 1.65635 
87 1 17.7088 8.87846 8.87847 
88 1 13.899 1.65651 1.65596 
89 1 19.4141 3.36185 1.65642 
90 1 12.1917 7.17404 8.87971 
91 1 19.4148 7.17553 8.87763 
92 1 12.1924 3.36173 1.65619 
93 1 12.1917 7.17267 1.6544 
94 1 19.4153 3.36313 8.87939 
95 1 12.1914 3.36563 8.87979 
96 1 19.4139 7.17252 1.65655 
97 1 19.414 1.65645 3.36122 
98 1 12.1917 8.87978 7.17388 
99 1 12.1917 1.65415 7.17296 
100 1 19.4149 8.87879 3.36301 
101 1 19.4149 8.87767 7.17565 
102 1 12.1933 1.65742 3.36237 
103 1 12.1917 8.87955 3.36528 
104 1 19.4138 1.65636 7.17245 
129 1 19.9952 1.07754 1.07753 
130 1 11.6069 9.46843 9.46819 
131 1 11.6116 9.45922 1.07927 
132 1 19.9963 1.07814 9.46177 
133 1 11.6118 1.07938 9.45897 
134 1 19.9958 9.46124 1.07837 
135 1 19.9984 9.46746 9.46743 
136 1 11.6102 1.07406 1.0785 
ITEM: TIMESTEP
50
ITEM: NUMBER OF ATOMS
144
ITEM: BOX BOUNDS pp pp pp
0.0000000000000000e+00 2.1070900000000002e+01
0.0000000000000000e+00 2.1070900000000002e+01
0.0000000000000000e+00 2.1070900000000002e+01
ITEM: ATOMS id type x y z 
9 1 8.63268 12.4372 12.4372 
10 1 1.90156 19.1699 19.1694 
11 1 1.90062 19.1681 12.437 
12 1 8.63527 12.4364 19.17 
13 1 1.90056 12.4372 19.1684 
14 1 8.63481 19.17 12.4361 
15 1 8.63352 19.1692 19.1694 
16 1 1.89664 12.4394 12.4394 
25 1 10.1509 10.9165 10.9166 
26 1 0.380893 20.6877 20.6877 
27 1 0.380994 20.6866 10.918 
28 1 10.1535 10.9176 20.6872 
29 1 0.380866 10.9178 20.6867 
30 1 10.1533 20.687 10.9177 
31 1 10.1534 20.689 20.6877 
32 1 0.384038 10.9175 10.9175 
57 1 6.00768 11.956 11.956 
58 1 4.53173 19.65 19.65 
59 1 4.53156 19.6496 11.9567 
60 1 6.00405 11.9556 19.6509 
61 1 4.53193 11.9567 19.6496 
62 1 6.00522 19.6506 11.9559 
63 1 6.00408 19.65 19.6505 
64 1 4.53323 11.9566 11.9566 
65 1 9.11455 15.0666 11.9559 
66 1 1.42075 16.5396 19.6496 
67 1 9.11439 16.5406 19.6504 
68 1 1.4211 15.066 11.9569 
69 1 1.42109 16.5404 11.956 
70 1 9.11483 15.0668 19.6502 
71 1 1.4198 15.0672 19.6504 
72 1 9.11495 16.5392 11.9566 
73 1 9.11457 11.9559 15.0671 
74 1 1.42081 19.6496 16.5402 
75 1 1.42102 11.9559 16.5396 
76 1 9.11512 19.6505 15.0671 
77 1 9.11446 19.6499 16.5406 
78 1 1.42101 11.9568 15.0664 
79 1 1.41963 19.6506 15.0671 
80 1 9.11494 11.9566 16.5392 
105 1 7.17396 12.1856 12.1856 
106 1 3.36687 19.4193 19.4192 
107 1 3.36587 19.4209 12.1859 
108 1 7.17053 12.1858 19.421 
109 1 3.36621 12.1859 19.4209 
110 1 7.17017 19.4213 12.1856 
111 1 7.16934 19.421 19.4215 
112 1 3.36664 12.184 12.1841 
113 1 8.88444 13.9006 12.1852 
114 1 1.64999 17.7054 19.4218 
115 1 8.88532 17.7055 19.4214 
116 1 1.64678 13.8993 12.1868 
117 1 1.64929 17.7063 12.1863 
118 1 8.88556 13.9006 19.4216 
119 1 1.64988 13.901 19.4198 
120 1 8.88429 17.7063 12.1864 
121 1 8.88443 12.1852 13.9007 
122 1 1.64989 19.4218 17.7057 
123 1 1.64931 12.1863 17.7065 
124 1 8.88536 19.4217 13.9 
125 1 8.88422 19.4199 17.7051 
126 1 1.64688 12.1868 13.8992 
127 1 1.6501 19.4196 13.9007 
128 1 8.88429 12.1866 17.7058 
137 1 9.46045 11.6137 11.6135 
138 1 1.08042 19.9944 19.9944 
139 1 1.08039 19.9945 11.6112 
140 1 9.45901 11.6121 19.9898 
141 1 1.08029 11.6113 19.9944 
142 1 9.45891 19.9898 11.6121 
143 1 9.45914 19.9949 19.9904 
144 1 1.07963 11.6124 11.6125 
1 1 19.1693 1.90121 1.90107 
2 1 12.4369 8.63499 8.635 
3 1 12.4376 8.63323 1.89903 
4 1 19.1677 1.90007 8.6336 
5 1 12.4376 1.89902 8.63337 
6 1 19.1674 8.63427 1.90017 
7 1 19.1719 8.63448 8.63454 
8 1 12.437 1.90205 1.90169 
17 1 20.6864 0.381213 0.381169 
18 1 10.9149 10.1537 10.1537 
19 1 10.9175 10.1534 0.383953 
20 1 20.6868 0.380757 10.1532 
21 1 10.9174 0.383915 10.1534 
22 1 20.6867 10.1531 0.380945 
23 1 20.6874 10.1535 10.1535 
24 1 10.9174 0.381846 0.383201 
33 1 16.5404 1.42043 1.42045 
34 1 15.0676 9.11516 9.11514 
35 1 15.0669 9.11424 1.42126 
36 1 16.54 1.42115 9.11455 
37 1 15.0676 1.42112 9.11431 
38 1 16.54 9.1145 1.42089 
39 1 16.5387 9.11476 9.11473 
40 1 15.0664 1.42083 1.42042 
41 1 19.6496 4.53145 1.42144 
42 1 11.9557 6.00496 9.11444 
43 1 19.6506 6.00397 9.11559 
44 1 11.9564 4.53081 1.4208 
45 1 11.9565 6.00381 1.42077 
46 1 19.6492 4.5323 9.11397 
47 1 11.9563 4.53026 9.11465 
48 1 19.6509 6.00307 1.41952 
49 1 19.6496 1.4214 4.53143 
50 1 11.9557 9.1144 6.00454 
51 1 11.9565 1.42065 6.0039 
52 1 19.6496 9.11431 4.53259 
53 1 19.6505 9.1155 6.00431 
54 1 11.9564 1.42138 4.53109 
55 1 11.9562 9.11475 4.53075 
56 1 19.6508 1.41989 6.00482 
81 1 17.7056 1.65027 1.65039 
82 1 13.9026 8.8839 8.88394 
83 1 13.8999 8.88514 1.64792 
84 1 17.7061 1.64891 8.88477 
85 1 13.8997 1.64774 8.88497 
86 1 17.7067 8.88449 1.64901 
87 1 17.7054 8.88494 8.88501 
88 1 13.9012 1.65021 1.64964 
89 1 19.4207 3.36613 1.64966 
90 1 12.1849 7.17026 8.88629 
91 1 19.4216 7.17128 8.88429 
92 1 12.1856 3.36551 1.64977 
93 1 12.1861 7.17176 1.64822 
94 1 19.4213 3.36613 8.88614 
95 1 12.1856 3.3648 8.88545 
96 1 19.4193 7.17041 1.64976 
97 1 19.4207 1.64965 3.36576 
98 1 12.1848 8.88636 7.16986 
99 1 12.1861 1.64779 7.17154 
100 1 19.4209 8.88549 3.36552 
101 1 19.4218 8.88438 7.17098 
102 1 12.1865 1.65117 3.3659 
103 1 12.1859 8.88512 3.36449 
104 1 19.4197 1.64932 7.16927 
129 1 19.9946 1.07821 1.07819 
130 1 11.6138 9.46182 9.4616 
131 1 11.6126 9.45817 1.08054 
132 1 19.9942 1.08023 9.45981 
133 1 11.6125 1.08045 9.45821 
134 1 19.9942 9.45983 1.08003 
135 1 19.9899 9.45915 9.45913 
136 1 11.6119 1.07579 1.08039 
ITEM: TIMESTEP
60
ITEM: NUMBER OF ATOMS
144
ITEM: BOX BOUNDS pp pp pp
0.0000000000000000e+00 2.1070900000000002e+01
0.0000000000000000e+00 2.1070900000000002e+01
0.0000000000000000e+00 2.1070900000000002e+01
ITEM: ATOMS id type x y z 
9 1 8.63244 12.4383 12.4383 
10 1 1.90264 19.1687 19.1684 
11 1 1.90185 19.1674 12.4381 
12 1 8.63405 12.4375 19.169 
13 1 1.90184 12.4382 19.1676 
14 1 8.63387 19.1687 12.4374 
15 1 8.63249 19.1682 19.1685 
16 1 1.89884 12.4402 12.4402 
25 1 10.1504 10.917 10.9171 
26 1 0.381493 20.6871 20.6871 
27 1 0.381405 20.6861 10.9184 
28 1 10.153 10.9181 20.6866 
29 1 0.381409 10.9184 20.6861 
30 1 10.1529 20.6866 10.9181 
31 1 10.1528 20.6884 20.687 
32 1 0.38448 10.9179 10.9179 
57 1 6.00635 11.9545 11.9545 
58 1 4.53182 19.6515 19.6515 
59 1 4.532 19.6511 11.9552 
60 1 6.00423 11.9543 19.6523 
61 1 4.53219 11.9552 19.6511 
62 1 6.00427 19.6523 11.9543 
63 1 6.00372 19.6516 19.6521 
64 1 4.53319 11.9554 11.9554 
65 1 9.11599 15.067 11.9545 
66 1 1.41931 16.5393 19.6511 
67 1 9.11599 16.5396 19.652 
68 1 1.41964 15.067 11.9555 
69 1 1.41961 16.5394 11.9546 
70 1 9.11627 15.0671 19.6517 
71 1 1.4184 15.0672 19.6518 
72 1 9.11617 16.5397 11.9553 
73 1 9.11599 11.9545 15.0675 
74 1 1.41932 19.6511 16.5395 
75 1 1.41967 11.9546 16.5391 
76 1 9.11637 19.6519 15.0666 
77 1 9.11603 19.6514 16.5396 
78 1 1.41961 11.9555 15.0672 
79 1 1.41831 19.6519 15.067 
80 1 9.11629 11.9552 16.5391 
105 1 7.17364 12.1845 12.1845 
106 1 3.36583 19.4202 19.4201 
107 1 3.36499 19.4217 12.1849 
108 1 7.17075 12.1847 19.4221 
109 1 3.36536 12.1849 19.4218 
110 1 7.17125 19.4222 12.1846 
111 1 7.17061 19.4218 19.4223 
112 1 3.36642 12.183 12.183 
113 1 8.88551 13.9004 12.1842 
114 1 1.64894 17.7061 19.4227 
115 1 8.88623 17.7065 19.4223 
116 1 1.64574 13.8991 12.1857 
117 1 1.64829 17.7065 12.1852 
118 1 8.88664 13.9001 19.4226 
119 1 1.64877 13.9008 19.4209 
120 1 8.88551 17.7058 12.1852 
121 1 8.8855 12.1841 13.9005 
122 1 1.64889 19.4227 17.7065 
123 1 1.64819 12.1851 17.7062 
124 1 8.88658 19.4228 13.9003 
125 1 8.88515 19.4208 17.706 
126 1 1.64579 12.1857 13.8993 
127 1 1.64894 19.4207 13.9008 
128 1 8.88543 12.1855 17.7058 
137 1 9.45998 11.6142 11.614 
138 1 1.08079 19.9941 19.9941 
139 1 1.08098 19.9939 11.6117 
140 1 9.45858 11.6126 19.9894 
141 1 1.08079 11.6118 19.9939 
142 1 9.45845 19.9893 11.6126 
143 1 9.45881 19.9946 19.99 
144 1 1.08014 11.6129 11.6129 
1 1 19.1684 1.90235 1.90217 
2 1 12.4379 8.63409 8.63396 
3 1 12.4387 8.6322 1.9004 
4 1 19.167 1.90139 8.63259 
5 1 12.4387 1.90038 8.63233 
6 1 19.1669 8.63295 1.90162 
7 1 19.1704 8.63343 8.63347 
8 1 12.438 1.90298 1.90268 
17 1 20.6858 0.381797 0.381755 