ITEM: TIMESTEP
0
ITEM: NUMBER OF ATOMS
50
ITEM: BOX BOUNDS pp pp pp
0.0000000000000000e+00 1.1000000000000000e+01
0.0000000000000000e+00 1.1002000000000001e+01
0.0000000000000000e+00 1.1000000000000000e+01
ITEM: ATOMS id type x y z 
10 1 4.603 4.603 4.603 
11 1 3.085 3.085 3.085 
12 1 3.796 3.796 3.796 
46 1 0.726 0.725 0.725 
47 1 2.26 2.259 2.26 
48 1 1.551 1.55 1.55 
19 1 4.546 4.545 6.226 
20 1 3.013 3.013 7.764 
21 1 3.721 3.721 7.053 
31 1 0.668 0.667 10.103 
32 1 2.187 2.187 8.589 
33 1 1.476 1.475 9.298 
16 1 4.546 6.225 4.546 
17 1 3.013 7.765 3.013 
18 1 3.721 7.053 3.722 
25 1 0.668 10.103 0.668 
26 1 2.188 8.589 2.188 
27 1 1.476 9.298 1.476 
4 1 4.608 6.169 6.169 
5 1 3.086 7.684 7.684 
6 1 3.799 6.974 6.974 
37 1 0.729 10.046 10.046 
38 1 2.259 8.509 8.508 
39 1 1.552 9.219 9.219 
49 2 0.716 8.745 10.404 
50 3 0.716 7.769 10.404 
13 1 6.225 4.546 4.546 
14 1 7.764 3.013 3.013 
15 1 7.053 3.721 3.722 
28 1 10.102 0.667 0.668 
29 1 8.589 2.187 2.188 
30 1 9.298 1.475 1.476 
1 1 6.168 4.608 6.169 
2 1 7.684 3.086 7.684 
3 1 6.974 3.799 6.974 
40 1 10.045 0.728 10.046 
41 1 8.508 2.259 8.508 
42 1 9.218 1.551 9.218 
7 1 6.169 6.169 4.608 
8 1 7.684 7.684 3.086 
9 1 6.974 6.974 3.799 
43 1 10.046 10.047 0.729 
44 1 8.508 8.509 2.259 
45 1 9.219 9.219 1.552 
22 1 6.229 6.229 6.229 
23 1 7.764 7.765 7.765 
24 1 7.055 7.056 7.055 
34 1 10.108 10.108 10.107 
35 1 8.59 8.59 8.59 
36 1 9.301 9.301 9.3 
ITEM: TIMESTEP
10
ITEM: NUMBER OF ATOMS
50
ITEM: BOX BOUNDS pp pp pp
0.0000000000000000e+00 1.1000000000000000e+01
0.0000000000000000e+00 1.1002000000000001e+01
0.0000000000000000e+00 1.1000000000000000e+01
ITEM: ATOMS id type x y z 
10 1 4.60397 4.60382 4.60325 
11 1 3.08552 3.08606 3.0857 
12 1 3.79717 3.79602 3.79679 
46 1 0.730308 0.714783 0.719632 
47 1 2.26035 2.2606 2.26075 
48 1 1.55298 1.5496 1.55112 
19 1 4.54495 4.54244 6.22687 
20 1 3.01155 3.01147 7.7653 
21 1 3.72103 3.72047 7.05345 
31 1 0.666668 0.706885 10.1052 
32 1 2.19228 2.1893 8.58372 
33 1 1.47583 1.48205 9.29756 
16 1 4.54465 6.22629 4.54316 
17 1 3.01162 7.76583 3.01191 
18 1 3.72083 7.05358 3.72084 
25 1 0.665586 10.1093 0.713589 
26 1 2.19178 8.58609 2.18939 
27 1 1.47468 9.3012 1.48406 
4 1 4.61213 6.16478 6.16422 
5 1 3.09497 7.67263 7.67486 
6 1 3.80733 6.96454 6.96531 
37 1 0.741149 9.9997 10.0462 
38 1 2.28702 8.49187 8.48029 
39 1 1.61356 9.29452 9.12003 
49 2 0.637167 8.72776 10.5021 
50 3 0.710276 7.75635 10.4168 
13 1 6.22587 4.54525 4.54526 
14 1 7.76484 3.01199 3.01233 
15 1 7.05355 3.72065 3.72117 
28 1 10.0958 0.672217 0.674269 
29 1 8.58796 2.18762 2.18848 
30 1 9.29856 1.47498 1.4761 
1 1 6.1677 4.60776 6.16791 
2 1 7.68348 3.08636 7.68365 
3 1 6.97365 3.79918 6.9735 
40 1 10.0507 0.721158 10.0422 
41 1 8.5082 2.25905 8.50858 
42 1 9.21818 1.55116 9.21731 
7 1 6.16828 6.16763 4.60798 
8 1 7.68353 7.68369 3.08629 
9 1 6.97384 6.97364 3.79931 
43 1 10.0542 10.0444 0.725672 
44 1 8.50769 8.50892 2.25913 
45 1 9.21918 9.21835 1.55286 
22 1 6.23182 6.23019 6.22991 
23 1 7.76519 7.76609 7.76579 
24 1 7.05523 7.0557 7.05523 
34 1 10.0613 10.1158 10.1052 
35 1 8.58724 8.58429 8.58451 
36 1 9.2927 9.30103 9.2993 
ITEM: TIMESTEP
20
ITEM: NUMBER OF ATOMS
50
ITEM: BOX BOUNDS pp pp pp
0.0000000000000000e+00 1.1000000000000000e+01
0.0000000000000000e+00 1.1002000000000001e+01
0.0000000000000000e+00 1.1000000000000000e+01
ITEM: ATOMS id type x y z 
10 1 4.60582 4.60292 4.60328 
11 1 3.08783 3.08721 3.08828 
12 1 3.7985 3.80038 3.79782 
46 1 0.740758 0.712585 0.720161 
47 1 2.263 2.26539 2.26517 
48 1 1.56035 1.55148 1.55456 
19 1 4.54488 4.53434 6.227 
20 1 3.01146 3.0117 7.76499 
21 1 3.72329 3.71948 7.05166 
31 1 0.660982 0.731459 10.107 
32 1 2.19798 2.19141 8.57802 
33 1 1.47544 1.49489 9.29757 
16 1 4.54448 6.2265 4.53486 
17 1 3.01163 7.7652 3.012 
18 1 3.7226 7.05246 3.7194 
25 1 0.656896 10.131 0.761602 
26 1 2.19724 8.58042 2.1913 
27 1 1.47481 9.30643 1.50273 
4 1 4.61867 6.15743 6.15586 
5 1 3.10459 7.65895 7.66629 
6 1 3.81878 6.95134 6.95485 
37 1 0.737915 9.98586 10.0534 
38 1 2.29751 8.50819 8.4613 
39 1 1.62203 9.29935 9.11134 
49 2 0.633386 8.72335 10.4814 
50 3 0.701775 7.73617 10.4338 
13 1 6.2279 4.54392 4.54388 
14 1 7.76607 3.01114 3.01149 
15 1 7.05341 3.72003 3.7203 
28 1 10.0876 0.674214 0.679384 
29 1 8.58734 2.18983 2.19014 
30 1 9.29614 1.47383 1.4763 
1 1 6.1688 4.60661 6.16652 
2 1 7.68296 3.08771 7.68272 
3 1 6.97154 3.79941 6.97256 
40 1 10.0532 0.717859 10.0352 
41 1 8.50532 2.2624 8.50787 
42 1 9.21761 1.55154 9.212 
7 1 6.16863 6.16661 4.60662 
8 1 7.68255 7.68316 3.08717 
9 1 6.97274 6.97219 3.79965 
43 1 10.0551 10.0408 0.726879 
44 1 8.5052 8.50814 2.26208 
45 1 9.2189 9.21386 1.55413 
22 1 6.24002 6.23019 6.23002 
23 1 7.76434 7.76491 7.76523 
24 1 7.05583 7.05353 7.05253 
34 1 10.028 10.1262 10.109 
35 1 8.58494 8.57752 8.5788 
36 1 9.2772 9.30343 9.29791 
ITEM: TIMESTEP
30
ITEM: NUMBER OF ATOMS
50
ITEM: BOX BOUNDS pp pp pp
0.0000000000000000e+00 1.1000000000000000e+01
0.0000000000000000e+00 1.1002000000000001e+01
0.0000000000000000e+00 1.1000000000000000e+01
ITEM: ATOMS id type x y z 
10 1 4.60835 4.60288 4.59806 
11 1 3.0871 3.09438 3.08957 
12 1 3.8066 3.79571 3.80307 
46 1 0.749332 0.719307 0.726959 
47 1 2.26723 2.27055 2.27038 
48 1 1.56829 1.55358 1.55791 
19 1 4.54822 4.52602 6.22646 
20 1 3.01368 3.01146 7.76425 
21 1 3.72478 3.71604 7.04713 
31 1 0.65213 0.750872 10.1133 
32 1 2.20406 2.1954 8.57218 
33 1 1.47328 1.51495 9.29787 
16 1 4.54798 6.22663 4.52636 
17 1 3.01437 7.76395 3.01101 
18 1 3.72351 7.04688 3.71623 
25 1 0.644553 10.1574 0.80941 
26 1 2.20317 8.57547 2.19418 
27 1 1.47172 9.3184 1.53507 
4 1 4.6304 6.14698 6.14854 
5 1 3.11621 7.64952 7.65954 
6 1 3.82102 6.93858 6.94185 
37 1 0.738108 9.94146 10.063 
38 1 2.31679 8.53477 8.43195 
39 1 1.62763 9.3018 9.10693 
49 2 0.632413 8.73125 10.4395 
50 3 0.687353 7.71507 10.4615 
13 1 6.23203 4.53911 4.5392 
14 1 7.76637 3.00853 3.00911 
15 1 7.05838 3.72047 3.71981 
28 1 10.0823 0.67011 0.681835 
29 1 8.58734 2.18995 2.19122 
30 1 9.29345 1.4733 1.47472 
1 1 6.17088 4.60037 6.1643 
2 1 7.67852 3.08821 7.68456 
3 1 6.97601 3.8019 6.96662 
40 1 10.0495 0.72157 10.0298 
41 1 8.50232 2.26529 8.50605 
42 1 9.21759 1.5529 9.20652 
7 1 6.17321 6.16338 4.60025 
8 1 7.6807 7.68287 3.08773 
9 1 6.97257 6.96988 3.80097 
43 1 10.0449 10.0426 0.736789 
44 1 8.50192 8.50244 2.26453 
45 1 9.21618 9.21362 1.56139 
22 1 6.24798 6.22845 6.22539 
23 1 7.76428 7.76335 7.76148 
24 1 7.05793 7.04661 7.05175 
34 1 9.99874 10.1405 10.1165 
35 1 8.58132 8.5711 8.57214 
36 1 9.2514 9.30914 9.29905 
ITEM: TIMESTEP
40
ITEM: NUMBER OF ATOMS
50
ITEM: BOX BOUNDS pp pp pp
0.0000000000000000e+00 1.1000000000000000e+01
0.0000000000000000e+00 1.1002000000000001e+01
0.0000000000000000e+00 1.1000000000000000e+01
ITEM: ATOMS id type x y z 
10 1 4.61249 4.60045 4.59711 
11 1 3.0886 3.09111 3.09135 
12 1 3.80482 3.80091 3.79954 
46 1 0.749153 0.719847 0.726163 
47 1 2.26945 2.27041 2.26984 
48 1 1.56537 1.55555 1.55931 
19 1 4.55047 4.52382 6.22355 
20 1 3.01466 3.0105 7.76114 
21 1 3.72931 3.71551 7.04661 
31 1 0.653485 0.744595 10.113 
32 1 2.2006 2.1999 8.57478 
33 1 1.47204 1.51442 9.29914 
16 1 4.55039 6.22225 4.52509 
17 1 3.01612 7.75908 3.00948 
18 1 3.72748 7.04678 3.71444 
25 1 0.644527 10.1618 0.811289 
26 1 2.20076 8.58002 2.19967 
27 1 1.46861 9.32575 1.54453 
4 1 4.62583 6.14671 6.14744 
5 1 3.11308 7.65524 7.65334 
6 1 3.82542 6.9395 6.94757 
37 1 0.727728 9.911 10.0774 
38 1 2.32541 8.55313 8.42132 
39 1 1.62985 9.30536 9.10453 
49 2 0.628291 8.74339 10.4205 
50 3 0.676621 7.7163 10.4781 
13 1 6.23735 4.53712 4.5368 
14 1 7.7712 3.00726 3.00697 
15 1 7.05814 3.71613 3.71618 
28 1 10.0788 0.668987 0.682219 
29 1 8.58749 2.18963 2.1892 
30 1 9.29348 1.46989 1.47556 
1 1 6.17615 4.59945 6.16069 
2 1 7.68241 3.0884 7.68423 
3 1 6.97272 3.798 6.96934 
40 1 10.0519 0.720502 10.0307 
41 1 8.50432 2.26427 8.50486 
42 1 9.21615 1.55268 9.21072 
7 1 6.17398 6.16211 4.59911 
8 1 7.68104 7.68323 3.08793 
9 1 6.97313 6.9676 3.79871 
43 1 10.0386 10.053 0.74608 
44 1 8.5025 8.50171 2.26772 
45 1 9.21207 9.21487 1.56019 
22 1 6.24928 6.22395 6.22343 
23 1 7.76563 7.75896 7.76086 
24 1 7.05899 7.04621 7.04673 
34 1 10.0055 10.1394 10.1146 
35 1 8.57637 8.57446 8.57466 
36 1 9.24621 9.31385 9.30027 
ITEM: TIMESTEP
50
ITEM: NUMBER OF ATOMS
50
ITEM: BOX BOUNDS pp pp pp
0.0000000000000000e+00 1.1000000000000000e+01
0.0000000000000000e+00 1.1002000000000001e+01
0.0000000000000000e+00 1.1000000000000000e+01
ITEM: ATOMS id type x y z 
10 1 4.6162 4.59858 4.59498 
11 1 3.09023 3.09063 3.09159 
12 1 3.80432 3.80317 3.79936 
46 1 0.751344 0.721554 0.723069 
47 1 2.26738 2.27004 2.27166 
48 1 1.56907 1.55596 1.55567 
19 1 4.55282 4.52349 6.22245 
20 1 3.01472 3.00988 7.76125 
21 1 3.73016 3.71104 7.04557 
31 1 0.653261 0.742611 10.114 
32 1 2.19774 2.20272 8.57596 
33 1 1.47119 1.51584 9.30143 
16 1 4.55182 6.22114 4.52472 
17 1 3.01726 7.75823 3.00795 
18 1 3.73018 7.04353 3.71118 
25 1 0.644535 10.1653 0.816634 
26 1 2.19946 8.58481 2.20803 
27 1 1.46648 9.32817 1.55125 
4 1 4.62681 6.14236 6.14889 
5 1 3.11641 7.66182 7.65074 
6 1 3.8244 6.94272 6.94476 
37 1 0.718417 9.89337 10.0877 
38 1 2.33071 8.5679 8.40966 
39 1 1.63469 9.30952 9.10124 
49 2 0.622158 8.74174 10.4088 
50 3 0.665758 7.72193 10.4929 
13 1 6.23884 4.5332 4.53381 
14 1 7.77075 3.00516 3.00443 
15 1 7.06312 3.71727 3.71706 
28 1 10.0756 0.66576 0.683173 
29 1 8.58751 2.18973 2.18849 
30 1 9.29241 1.46805 1.47591 
1 1 6.17663 4.59707 6.1606 
2 1 7.68016 3.08687 7.68662 
3 1 6.97932 3.79845 6.96496 
40 1 10.0556 0.720026 10.0292 
41 1 8.50386 2.26296 8.50817 
42 1 9.22091 1.55225 9.2081 
7 1 6.1746 6.16102 4.59799 
8 1 7.6806 7.68325 3.08806 
9 1 6.97494 6.96434 3.79811 
43 1 10.0324 10.0594 0.751582 
44 1 8.50222 8.49952 2.2666 
45 1 9.20932 9.22126 1.56587 
22 1 6.2496 6.22195 6.22184 
23 1 7.76508 7.75745 7.75917 
24 1 7.06218 7.04282 7.04442 
34 1 10.0056 10.1386 10.113 
35 1 8.56658 8.57912 8.57705 
36 1 9.24866 9.31153 9.29828 
ITEM: TIMESTEP
60
ITEM: NUMBER OF ATOMS
50
ITEM: BOX BOUNDS pp pp pp
0.0000000000000000e+00 1.1000000000000000e+01
0.0000000000000000e+00 1.1002000000000001e+01
0.0000000000000000e+00 1.1000000000000000e+01
ITEM: ATOMS id type x y z 
10 1 4.61553 4.59913 4.59513 
11 1 3.08872 3.09177 3.09146 
12 1 3.80674 3.80063 3.79898 
46 1 0.753149 0.721508 0.720542 
47 1 2.26796 2.27 2.27113 
48 1 1.56876 1.55619 1.55624 
19 1 4.55385 4.5223 6.22215 
20 1 3.01577 3.00923 7.76006 
21 1 3.73006 3.71219 7.04585 
31 1 0.653 0.742481 10.1152 
32 1 2.19675 2.20342 8.5774 
33 1 1.47021 1.51577 9.30107 
16 1 4.55249 6.22029 4.5237 
17 1 3.01774 7.75753 3.00665 
18 1 3.73048 7.04365 3.71192 
25 1 0.643979 10.165 0.816256 
26 1 2.19844 8.58509 2.21029 
27 1 1.46721 9.33153 1.55527 
4 1 4.62607 6.14044 6.14933 
5 1 3.11718 7.66505 7.64779 
6 1 3.82579 6.9432 6.94506 
37 1 0.717226 9.88911 10.0882 
38 1 2.33172 8.57465 8.40781 
39 1 1.63344 9.31139 9.10249 
49 2 0.619944 8.73982 10.4057 
50 3 0.661592 7.72294 10.4981 
13 1 6.24105 4.53295 4.5341 
14 1 7.77325 3.00538 3.00428 
15 1 7.06123 3.71522 3.71518 
28 1 10.0746 0.664044 0.683551 
29 1 8.58769 2.18943 2.18841 
30 1 9.2917 1.46755 1.47525 
1 1 6.17861 4.59719 6.15904 
2 1 7.6829 3.08694 7.68545 
3 1 6.97605 3.7966 6.968 
40 1 10.0586 0.719581 10.0275 
41 1 8.50478 2.26272 8.50836 
42 1 9.22078 1.5516 9.20886 
7 1 6.17602 6.1601 4.59766 
8 1 7.68179 7.68157 3.08757 
9 1 6.9734 6.9658 3.79816 
43 1 10.0304 10.0629 0.753671 
44 1 8.50185 8.49989 2.26693 
45 1 9.20855 9.22251 1.56729 
22 1 6.25063 6.22042 6.22111 
23 1 7.76544 7.7564 7.75836 
24 1 7.06119 7.04296 7.04428 
34 1 10.0093 10.137 10.1114 
35 1 8.56562 8.57916 8.57665 
36 1 9.24484 9.31287 9.2992 
ITEM: TIMESTEP
70
ITEM: NUMBER OF ATOMS
50
ITEM: BOX BOUNDS pp pp pp
0.0000000000000000e+00 1.1000000000000000e+01
0.0000000000000000e+00 1.1002000000000001e+01
0.0000000000000000e+00 1.1000000000000000e+01
ITEM: ATOMS id type x y z 
10 1 4.62554 4.5957 4.58835 
11 1 3.08874 3.09199 3.09164 
12 1 3.8106 3.79897 3.79705 
46 1 0.77169 0.721836 0.70459 
47 1 2.26528 2.274 2.27314 
48 1 1.58207 1.55415 1.54761 
19 1 4.55987 4.51633 6.22087 
20 1 3.01801 3.00434 7.75705 
21 1 3.73194 3.70809 7.04524 
31 1 0.65381 0.75115 10.1221 
32 1 2.19434 2.2134 8.58453 
33 1 1.45805 1.52497 9.29769 
16 1 4.55581 6.21122 4.52526 
17 1 3.0195 7.75203 3.01061 
18 1 3.7478 7.03442 3.69595 
25 1 0.649396 10.1742 0.82959 
26 1 2.19418 8.60901 2.25122 
27 1 1.46039 9.33268 1.57411 
4 1 4.62151 6.12461 6.15685 
5 1 3.13275 7.71031 7.62101 
6 1 3.82528 6.95488 6.93911 
37 1 0.694576 9.83909 10.1027 
38 1 2.35064 8.64294 8.37769 
39 1 1.6339 9.32854 9.10034 
49 2 0.591108 8.71238 10.3778 
50 3 0.610437 7.72878 10.5597 
13 1 6.24959 4.52456 4.53064 
14 1 7.78057 3.00475 2.9981 
15 1 7.06434 3.70844 3.71249 
28 1 10.0569 0.64796 0.686168 
29 1 8.58947 2.18976 2.18499 
30 1 9.28598 1.45795 1.47455 
1 1 6.18783 4.58825 6.15753 
2 1 7.68486 3.08331 7.69567 
3 1 6.9886 3.7845 6.95994 
40 1 10.0791 0.712058 10.0111 
41 1 8.50906 2.25801 8.51764 
42 1 9.2383 1.54666 9.20132 
7 1 6.1778 6.15641 4.59504 
8 1 7.68312 7.67734 3.08635 
9 1 6.97701 6.95367 3.79167 
43 1 10.0083 10.0985 0.780887 
44 1 8.49823 8.50201 2.27273 
45 1 9.1978 9.24221 1.58173 
22 1 6.25544 6.20916 6.21561 
23 1 7.76299 7.75143 7.75262 
24 1 7.0624 7.0346 7.03804 
34 1 10.0301 10.1259 10.0904 
35 1 8.53697 8.59011 8.57717 
36 1 9.23203 9.30742 9.29988 
ITEM: TIMESTEP
80
ITEM: NUMBER OF ATOMS
50
ITEM: BOX BOUNDS pp pp pp
0.0000000000000000e+00 1.1000000000000000e+01
0.0000000000000000e+00 1.1002000000000001e+01
0.0000000000000000e+00 1.1000000000000000e+01
ITEM: ATOMS id type x y z 
10 1 4.62292 4.59471 4.58874 
11 1 3.08748 3.09158 3.09256 
12 1 3.81203 3.79943 3.79467 
46 1 0.780812 0.714833 0.699532 
47 1 2.26854 2.27074 2.26944 
48 1 1.57615 1.55677 1.54778 
19 1 4.5585 4.52007 6.22402 
20 1 3.01749 3.00659 7.75798 
21 1 3.73533 3.70577 7.04408 
31 1 0.647269 0.763416 10.1236 
32 1 2.19146 2.21319 8.578 
33 1 1.465 1.52971 9.30515 
16 1 4.55947 6.21067 4.52232 
17 1 3.02469 7.75431 3.00959 
18 1 3.7417 7.03419 3.70355 
25 1 0.648241 10.1672 0.819518 
26 1 2.1913 8.60096 2.24837 
27 1 1.46427 9.34679 1.58839 
4 1 4.61929 6.12451 6.15781 
5 1 3.13436 7.72071 7.61639 
6 1 3.82607 6.95897 6.93999 
37 1 0.6958 9.83426 10.1019 
38 1 2.35144 8.64622 8.37685 
39 1 1.63266 9.32801 9.10079 
49 2 0.589064 8.70752 10.3829 
50 3 0.60305 7.72093 10.5646 
13 1 6.24843 4.52028 4.53223 
14 1 7.77969 3.00264 2.99831 
15 1 7.06778 3.71232 3.71079 
28 1 10.0563 0.646829 0.68601 
29 1 8.58799 2.19105 2.18574 
30 1 9.28396 1.45904 1.47501 
1 1 6.19077 4.58531 6.15541 
2 1 7.68834 3.0792 7.69139 
3 1 6.98539 3.78809 6.96903 
40 1 10.0857 0.713577 10.0065 
41 1 8.51235 2.25785 8.51489 
42 1 9.23666 1.54622 9.20571 
7 1 6.17804 6.15539 4.59413 
8 1 7.68456 7.67321 3.08354 
9 1 6.97569 6.95877 3.79529 
43 1 10.0125 10.0989 0.784004 
44 1 8.49696 8.50584 2.2733 
45 1 9.19907 9.24464 1.58318 
22 1 6.25397 6.20719 6.21612 
23 1 7.75963 7.75132 7.75102 
24 1 7.05921 7.03338 7.0373 
34 1 10.0347 10.1175 10.0881 
35 1 8.53349 8.58384 8.57736 
36 1 9.22845 9.31063 9.29104 
ITEM: TIMESTEP
90
ITEM: NUMBER OF ATOMS
50
ITEM: BOX BOUNDS pp pp pp
0.0000000000000000e+00 1.1000000000000000e+01
0.0000000000000000e+00 1.1002000000000001e+01
0.0000000000000000e+00 1.1000000000000000e+01
ITEM: ATOMS id type x y z 
10 1 4.62338 4.5946 4.58656 
11 1 3.08799 3.09115 3.09036 
12 1 3.8098 3.79786 3.79659 
46 1 0.784119 0.713098 0.696586 
47 1 2.26712 2.27233 2.26915 
48 1 1.58155 1.55396 1.54487 
19 1 4.55857 4.52138 6.22539 
20 1 3.0182 3.00481 7.75699 
21 1 3.73468 3.70922 7.04411 
31 1 0.642956 0.781873 10.1277 
32 1 2.19456 2.21312 8.57564 
33 1 1.46283 1.53775 9.30616 
16 1 4.56092 6.20927 4.52096 
17 1 3.02546 7.75396 3.00999 
18 1 3.73908 7.03521 3.70857 
25 1 0.649998 10.1643 0.818287 
26 1 2.19105 8.60333 2.25331 
27 1 1.466 9.34686 1.58852 
4 1 4.61598 6.12477 6.15996 
5 1 3.13767 7.72989 7.61237 
6 1 3.82655 6.96357 6.93744 
37 1 0.69559 9.82147 10.1045 
38 1 2.35217 8.65154 8.37497 
39 1 1.63111 9.32715 9.10226 
49 2 0.587772 8.6997 10.3875 
50 3 0.59466 7.71382 10.5703 
13 1 6.24835 4.51881 4.53388 
14 1 7.78018 3.00456 2.99766 
15 1 7.06744 3.71075 3.71228 
28 1 10.0543 0.643614 0.687043 
29 1 8.58845 2.19067 2.18523 
30 1 9.28234 1.45828 1.47304 
1 1 6.1927 4.58248 6.15594 
2 1 7.69029 3.07792 7.69259 
3 1 6.98583 3.7859 6.97058 
40 1 10.0894 0.716707 10.0075 
41 1 8.51429 2.25648 8.51439 
42 1 9.24087 1.54536 9.2059 
7 1 6.1778 6.15601 4.59254 
8 1 7.68512 7.67357 3.08248 
9 1 6.97611 6.95937 3.79449 
43 1 10.0158 10.1034 0.78966 
44 1 8.49775 8.50918 2.27334 
45 1 9.19949 9.24819 1.58475 
22 1 6.25287 6.20591 6.21619 
23 1 7.75543 7.74999 7.75008 
24 1 7.05581 7.03105 7.03574 
34 1 10.0392 10.1121 10.0803 
35 1 8.52769 8.5816 8.57405 
36 1 9.22669 9.30716 9.28524 
ITEM: TIMESTEP
100
ITEM: NUMBER OF ATOMS
50
ITEM: BOX BOUNDS pp pp pp
0.0000000000000000e+00 1.1000000000000000e+01
0.0000000000000000e+00 1.1002000000000001e+01
0.0000000000000000e+00 1.1000000000000000e+01
ITEM: ATOMS id type x y z 
10 1 4.62224 4.5927 4.58562 
11 1 3.08653 3.09085 3.0905 
12 1 3.81063 3.79827 3.79408 
46 1 0.796595 0.710347 0.686684 
47 1 2.26667 2.27212 2.26834 
48 1 1.59041 1.55175 1.53926 
19 1 4.55693 4.52613 6.22835 
20 1 3.02125 3.00496 7.75335 
21 1 3.73495 3.71159 7.04321 
31 1 0.632173 0.817893 10.141 
32 1 2.19712 2.21133 8.57081 
33 1 1.4592 1.55503 9.31344 
16 1 4.562 6.20739 4.52017 
17 1 3.02505 7.75427 3.01516 
18 1 3.73657 7.03603 3.71501 
25 1 0.655068 10.1577 0.805701 
26 1 2.19227 8.60742 2.26077 
27 1 1.46829 9.34644 1.5906 
4 1 4.61148 6.12367 6.16187 
5 1 3.14208 7.74825 7.60497 
6 1 3.82718 6.97534 6.93421 
37 1 0.681609 9.79503 10.1127 
38 1 2.35345 8.6633 8.37212 
39 1 1.62507 9.32464 9.10804 
49 2 0.584642 8.68055 10.3957 
50 3 0.578184 7.69914 10.5819 
13 1 6.24822 4.51394 4.53767 
14 1 7.7817 3.0051 2.99641 
15 1 7.06792 3.7103 3.7136 
28 1 10.0487 0.637242 0.687613 
29 1 8.58741 2.19302 2.18324 
30 1 9.27882 1.45587 1.47424 
1 1 6.19537 4.57644 6.1564 
2 1 7.69263 3.07534 7.69356 
3 1 6.98726 3.78396 6.97251 
40 1 10.0959 0.714299 10.0076 
41 1 8.51796 2.2567 8.51669 
42 1 9.24623 1.5419 9.19795 
7 1 6.17773 6.15803 4.58844 
8 1 7.68537 7.67492 3.08059 
9 1 6.9775 6.9601 3.79359 
43 1 10.018 10.1092 0.792351 
44 1 8.49594 8.51544 2.27372 
45 1 9.20475 9.25269 1.59036 
22 1 6.24769 6.20119 6.21447 
23 1 7.74615 7.74749 7.74973 
24 1 7.05208 7.02904 7.03256 
34 1 10.0622 10.1021 10.0656 
35 1 8.52172 8.58251 8.57266 
36 1 9.22911 9.30592 9.27885 
ITEM: TIMESTEP
110
ITEM: NUMBER OF ATOMS
50
ITEM: BOX BOUNDS pp pp pp
0.0000000000000000e+00 1.1000000000000000e+01
0.0000000000000000e+00 1.1002000000000001e+01
0.0000000000000000e+00 1.1000000000000000e+01
ITEM: ATOMS id type x y z 
10 1 4.62367 4.59228 4.58462 
11 1 3.08659 3.09166 3.09065 
12 1 3.81068 3.79864 3.7947 
46 1 0.81036 0.708347 0.681057 
47 1 2.26998 2.27209 2.26793 
48 1 1.59591 1.55142 1.5357 
19 1 4.55446 4.52863 6.22886 
20 1 3.02174 3.00152 7.7514 
21 1 3.73503 3.71228 7.04334 
31 1 0.62699 0.835035 10.1527 
32 1 2.19717 2.21404 8.56988 
33 1 1.45728 1.56506 9.31631 
16 1 4.5633 6.20614 4.5194 
17 1 3.02263 7.75726 3.02265 
18 1 3.73807 7.03543 3.71577 
25 1 0.663289 10.1521 0.800844 
26 1 2.19249 8.60857 2.26774 
27 1 1.47203 9.34615 1.59198 
4 1 4.60886 6.12574 6.16405 
5 1 3.1465 7.76221 7.59809 
6 1 3.8294 6.98471 6.92951 
37 1 0.677317 9.78797 10.1164 
38 1 2.35416 8.67521 8.37056 
39 1 1.61917 9.31961 9.11205 
49 2 0.581813 8.66098 10.3978 
50 3 0.564835 7.67897 10.5937 
13 1 6.24873 4.51289 4.53857 
14 1 7.78357 3.00875 2.99522 
15 1 7.06629 3.70523 3.71564 
28 1 10.0397 0.628801 0.687401 
29 1 8.58715 2.19456 2.18178 
30 1 9.27513 1.45255 1.47389 
1 1 6.19647 4.57486 6.15484 
2 1 7.69387 3.07596 7.69427 
3 1 6.98745 3.78161 6.97133 
40 1 10.0962 0.706048 9.99715 
41 1 8.52222 2.25346 8.50949 
42 1 9.24543 1.54507 9.20479 
7 1 6.18007 6.15768 4.59085 
8 1 7.6885 7.67653 3.08326 
9 1 6.97109 6.96152 3.78605 
43 1 10.0193 10.1128 0.80042 
44 1 8.50029 8.5179 2.27931 
45 1 9.19783 9.25861 1.58795 
22 1 6.25005 6.20177 6.21046 
23 1 7.74365 7.75037 7.75048 
24 1 7.0458 7.02869 7.03694 
34 1 10.0706 10.1002 10.0522 
35 1 8.51722 8.58382 8.57228 
36 1 9.23381 9.30331 9.27175 
ITEM: TIMESTEP
120
ITEM: NUMBER OF ATOMS
50
ITEM: BOX BOUNDS pp pp pp
0.0000000000000000e+00 1.1000000000000000e+01
0.0000000000000000e+00 1.1002000000000001e+01
0.0000000000000000e+00 1.1000000000000000e+01
ITEM: ATOMS id type x y z 
10 1 4.62396 4.59128 4.58471 
11 1 3.08571 3.0923 3.091 
12 1 3.81188 3.79794 3.79427 
46 1 0.814273 0.707338 0.680086 
47 1 2.27168 2.27244 2.26723 
48 1 1.59889 1.55027 1.53467 
19 1 4.55419 4.53037 6.23005 
20 1 3.022 3.00054 7.75094 
21 1 3.73449 3.71214 7.04266 
31 1 0.627326 0.834714 10.1553 
32 1 2.19547 2.2163 8.57184 
33 1 1.45706 1.56445 9.31618 
16 1 4.56376 6.20627 4.51869 
17 1 3.02196 7.75815 3.02507 
18 1 3.73811 7.03575 3.71779 
25 1 0.665931 10.1521 0.800473 
26 1 2.19288 8.60907 2.27085 
27 1 1.47366 9.34575 1.59275 
4 1 4.60959 6.12675 6.16511 
5 1 3.14836 7.76805 7.59485 
6 1 3.83073 6.98907 6.92799 
37 1 0.676767 9.78952 10.119 
38 1 2.35539 8.67759 8.36824 
39 1 1.62014 9.31741 9.1112 
49 2 0.580641 8.65565 10.3976 
50 3 0.559332 7.67007 10.5983 
13 1 6.24805 4.51019 4.54013 
14 1 7.78311 3.0078 2.99571 
15 1 7.06784 3.70761 3.71491 
28 1 10.0351 0.626059 0.687215 
29 1 8.58692 2.19424 2.18176 
30 1 9.27355 1.45253 1.47208 
1 1 6.19618 4.57517 6.15463 
2 1 7.69352 3.07593 7.69346 
3 1 6.9887 3.78147 6.96921 
40 1 10.0948 0.7051 9.99836 
41 1 8.52153 2.25609 8.51057 
42 1 9.24603 1.542 9.19954 
7 1 6.1789 6.15838 4.58821 
8 1 7.68537 7.67732 3.08038 
9 1 6.9767 6.9616 3.79179 
43 1 10.0172 10.1137 0.800951 
44 1 8.49771 8.51907 2.27871 
45 1 9.20122 9.25999 1.59335 
22 1 6.2493 6.20165 6.21097 
23 1 7.73971 7.75036 7.75211 
24 1 7.04534 7.02937 7.03496 
34 1 10.0709 10.101 10.0478 
35 1 8.51637 8.58397 8.57177 
36 1 9.23574 9.30311 9.2686 
ITEM: TIMESTEP
130
ITEM: NUMBER OF ATOMS
50
ITEM: BOX BOUNDS pp pp pp
0.0000000000000000e+00 1.1000000000000000e+01
0.0000000000000000e+00 1.1002000000000001e+01
0.0000000000000000e+00 1.1000000000000000e+01
ITEM: ATOMS id type x y z 
10 1 4.62456 4.5907 4.58473 
11 1 3.0861 3.09207 3.09069 
12 1 3.81105 3.7983 3.79473 
46 1 0.815775 0.706473 0.679508 
47 1 2.27219 2.27235 2.26662 
48 1 1.60004 1.54965 1.53416 
19 1 4.55352 4.53103 6.23014 
20 1 3.02165 3.00011 7.75047 
21 1 3.73476 3.71219 7.04311 
31 1 0.627709 0.834387 10.1558 
32 1 2.19492 2.21654 8.57181 
33 1 1.45677 1.56555 9.31769 
16 1 4.56428 6.20604 4.51849 
17 1 3.02176 7.75828 3.02641 
18 1 3.73837 7.03599 3.71877 
25 1 0.666406 10.1522 0.800346 
26 1 2.19287 8.60954 2.27196 
27 1 1.47414 9.34587 1.59301 
4 1 4.60966 6.12696 6.16532 
5 1 3.14912 7.77069 7.59343 
6 1 3.8315 6.99098 6.92723 
37 1 0.676305 9.78845 10.1199 
38 1 2.35558 8.67883 8.36753 
39 1 1.62052 9.31653 9.11112 
49 2 0.580206 8.65352 10.3976 
50 3 0.556866 7.66715 10.6 
13 1 6.24797 4.50968 4.54028 
14 1 7.78324 3.00798 2.99567 
15 1 7.06816 3.70752 3.71504 
28 1 10.0333 0.625387 0.686288 
29 1 8.58675 2.19486 2.1811 
30 1 9.27244 1.45123 1.47272 
1 1 6.19623 4.57483 6.15445 
2 1 7.6938 3.07602 7.69316 
3 1 6.98872 3.78137 6.96878 
40 1 10.0942 0.704696 9.99878 
41 1 8.52126 2.25654 8.51097 
42 1 9.24664 1.54098 9.19726 
7 1 6.17953 6.1586 4.58841 
8 1 7.68576 7.67769 3.08088 
9 1 6.97614 6.96178 3.79109 
43 1 10.0175 10.1141 0.801773 
44 1 8.49716 8.52018 2.27904 
45 1 9.2021 9.26018 1.59397 
22 1 6.24873 6.20199 6.21111 
23 1 7.738 7.75081 7.75306 
24 1 7.04574 7.02953 7.03426 
34 1 10.0713 10.1012 10.0465 
35 1 8.5161 8.58403 8.57154 
36 1 9.2366 9.30336 9.26738 
ITEM: TIMESTEP
140
ITEM: NUMBER OF ATOMS
50
ITEM: BOX BOUNDS pp pp pp
0.0000000000000000e+00 1.1000000000000000e+01
0.0000000000000000e+00 1.1002000000000001e+01
0.0000000000000000e+00 1.1000000000000000e+01
ITEM: ATOMS id type x y z 
10 1 4.62457 4.59043 4.58493 
11 1 3.08611 3.09215 3.09061 
12 1 3.81107 3.79817 3.79486 
46 1 0.817014 0.705873 0.679023 
47 1 2.2727 2.27225 2.26623 
48 1 1.60083 1.5493 1.53367 
19 1 4.55334 4.5314 6.23037 
20 1 3.02168 2.99973 7.75031 
21 1 3.73435 3.71241 7.0431 
31 1 0.627865 0.834021 10.1563 
32 1 2.19444 2.21706 8.57221 
33 1 1.45666 1.56574 9.31809 
16 1 4.5647 6.20583 4.51836 
17 1 3.02154 7.75851 3.0274 
18 1 3.7385 7.03619 3.71946 
25 1 0.666804 10.1522 0.800379 
26 1 2.1929 8.60984 2.27282 
27 1 1.47452 9.34593 1.59328 
4 1 4.60971 6.12705 6.16552 
5 1 3.14983 7.77255 7.59222 
6 1 3.83212 6.99236 6.92647 
37 1 0.676193 9.78787 10.1204 
38 1 2.35582 8.67985 8.36695 
39 1 1.62032 9.31613 9.11156 
49 2 0.579909 8.6519 10.3975 
50 3 0.554967 7.66507 10.6012 
13 1 6.24798 4.50932 4.54046 
14 1 7.78344 3.00818 2.99557 
15 1 7.06825 3.7074 3.71518 
28 1 10.0319 0.624764 0.685837 
29 1 8.58661 2.19492 2.18099 
30 1 9.27164 1.45085 1.47239 
1 1 6.19605 4.57451 6.15424 
2 1 7.69393 3.07605 7.69293 
3 1 6.98884 3.78146 6.96861 
40 1 10.094 0.704243 9.99853 
41 1 8.52141 2.25646 8.51058 
42 1 9.24671 1.54068 9.19676 
7 1 6.17977 6.1587 4.58831 
8 1 7.68581 7.67798 3.08092 
9 1 6.9761 6.96212 3.79111 
43 1 10.0178 10.1143 0.802551 
44 1 8.49689 8.52095 2.27951 
45 1 9.20247 9.2602 1.5943 
22 1 6.24906 6.20212 6.21065 
23 1 7.73754 7.75105 7.75312 
24 1 7.04456 7.02992 7.035 
34 1 10.0716 10.1013 10.0454 
35 1 8.51591 8.58416 8.57138 
36 1 9.23717 9.3035 9.26645 
ITEM: TIMESTEP
150
ITEM: NUMBER OF ATOMS
50
ITEM: BOX BOUNDS pp pp pp
0.0000000000000000e+00 1.1000000000000000e+01
0.0000000000000000e+00 1.1002000000000001e+01
0.0000000000000000e+00 1.1000000000000000e+01
ITEM: ATOMS id type x y z 
10 1 4.62482 4.58913 4.58559 
11 1 3.086 3.09237 3.09011 
12 1 3.81114 3.79734 3.7953 
46 1 0.822007 0.703365 0.677262 
47 1 2.27488 2.27156 2.26445 
48 1 1.60355 1.54806 1.53181 
19 1 4.55222 4.53253 6.23079 
20 1 3.0211 2.99819 7.74904 
21 1 3.73347 3.71397 7.04477 
31 1 0.628621 0.832411 10.1581 
32 1 2.19252 2.21896 8.57344 
33 1 1.45674 1.56627 9.31986 
16 1 4.56608 6.20532 4.51783 
17 1 3.02068 7.75962 3.03134 
18 1 3.73888 7.03703 3.72198 
25 1 0.66832 10.1522 0.800881 
26 1 2.19306 8.61101 2.27619 
27 1 1.47586 9.34619 1.5945 
4 1 4.61019 6.12754 6.16626 
5 1 3.15291 7.77989 7.58776 
6 1 3.83441 6.99788 6.92342 
37 1 0.675772 9.78521 10.122 
38 1 2.3564 8.684 8.36489 
39 1 1.62028 9.3141 9.11244 
49 2 0.578666 8.64577 10.3975 
50 3 0.547465 7.65746 10.6057 
13 1 6.24769 4.50791 4.54128 
14 1 7.78379 3.00902 2.99524 
15 1 7.06905 3.70715 3.71625 
28 1 10.0262 0.621989 0.6838 
29 1 8.58565 2.19469 2.18101 
30 1 9.26881 1.45052 1.47033 
1 1 6.19575 4.57377 6.15316 
2 1 7.69487 3.07665 7.69205 
3 1 6.9887 3.78082 6.96764 
40 1 10.0934 0.702412 9.99795 
41 1 8.52224 2.25596 8.50906 
42 1 9.24669 1.53951 9.19514 
7 1 6.18061 6.15937 4.58823 
8 1 7.68549 7.6799 3.08145 
9 1 6.97673 6.96201 3.79067 
43 1 10.0199 10.1144 0.805493 
44 1 8.49648 8.52295 2.28138 
45 1 9.20266 9.26185 1.59574 
22 1 6.24845 6.20281 6.21043 
23 1 7.73373 7.75244 7.75506 
24 1 7.04339 7.0307 7.03498 
34 1 10.0732 10.1021 10.0411 
35 1 8.51533 8.58471 8.57038 
36 1 9.23918 9.30396 9.26296 
ITEM: TIMESTEP
159
ITEM: NUMBER OF ATOMS
50
ITEM: BOX BOUNDS pp pp pp
0.0000000000000000e+00 1.1000000000000000e+01
0.0000000000000000e+00 1.1002000000000001e+01
0.0000000000000000e+00 1.1000000000000000e+01
ITEM: ATOMS id type x y z 
10 1 4.62481 4.58913 4.58559 
11 1 3.086 3.09237 3.09011 
12 1 3.81113 3.79735 3.79529 
46 1 0.82201 0.703365 0.67726 
47 1 2.27487 2.27156 2.26444 
48 1 1.60355 1.54806 1.53181 
19 1 4.55222 4.53253 6.2308 
20 1 3.02111 2.99819 7.74905 
21 1 3.73347 3.71397 7.04475 
31 1 0.628626 0.832409 10.1581 
32 1 2.19253 2.21896 8.57345 
33 1 1.45673 1.56627 9.31986 
16 1 4.56608 6.20532 4.51783 
17 1 3.02069 7.75962 3.03134 
18 1 3.73888 7.03703 3.72199 
25 1 0.668323 10.1522 0.800881 
26 1 2.19306 8.61101 2.2762 
27 1 1.47586 9.34619 1.5945 
4 1 4.61019 6.12753 6.16625 
5 1 3.15291 7.77989 7.58776 
6 1 3.83442 6.99788 6.92342 
37 1 0.675766 9.78521 10.122 
38 1 2.35643 8.68398 8.36486 
39 1 1.62026 9.31412 9.11246 
49 2 0.578662 8.64577 10.3975 
50 3 0.547459 7.65746 10.6057 
13 1 6.2477 4.50791 4.54128 
14 1 7.7838 3.00902 2.99525 
15 1 7.06905 3.70714 3.71623 
28 1 10.0262 0.621992 0.683795 
29 1 8.58565 2.19469 2.181 
30 1 9.2688 1.45052 1.47033 
1 1 6.19575 4.57376 6.15317 
2 1 7.69486 3.07665 7.69204 
3 1 6.9887 3.78084 6.96765 
40 1 10.0934 0.702409 9.99795 
41 1 8.52225 2.25596 8.50905 
42 1 9.24669 1.53952 9.19515 
7 1 6.18061 6.15938 4.58823 
8 1 7.68549 7.6799 3.08145 
9 1 6.97673 6.96202 3.79068 
43 1 10.0199 10.1144 0.805493 
44 1 8.49648 8.52296 2.28138 
45 1 9.20266 9.26185 1.59576 
22 1 6.24845 6.20281 6.21043 
23 1 7.73373 7.75244 7.75506 
24 1 7.04338 7.0307 7.03498 
34 1 10.0732 10.1021 10.0411 
35 1 8.51533 8.58471 8.57038 
36 1 9.23918 9.30396 9.26296 
ITEM: TIMESTEP
160
ITEM: NUMBER OF ATOMS
50
ITEM: BOX BOUNDS pp pp pp
0.0000000000000000e+00 1.1000000000000000e+01
0.0000000000000000e+00 1.1002000000000001e+01
0.0000000000000000e+00 1.1000000000000000e+01
ITEM: ATOMS id type x y z 
10 1 4.62481 4.58913 4.58559 
11 1 3.086 3.09237 3.09011 
12 1 3.81113 3.79735 3.79529 
46 1 0.82201 0.703365 0.67726 
47 1 2.27487 2.27156 2.26444 
48 1 1.60355 1.54806 1.53181 
19 1 4.55222 4.53253 6.2308 
20 1 3.02111 2.99819 7.74905 
21 1 3.73347 3.71397 7.04475 
31 1 0.628626 0.832409 10.1581 
32 1 2.19253 2.21896 8.57345 
33 1 1.45673 1.56627 9.31986 
16 1 4.56608 6.20532 4.51783 
17 1 3.02069 7.75962 3.03134 
18 1 3.73888 7.03703 3.72199 
25 1 0.668323 10.1522 0.800881 
26 1 2.19306 8.61101 2.2762 
27 1 1.47586 9.34619 1.5945 
4 1 4.61019 6.12753 6.16625 
5 1 3.15291 7.77989 7.58776 
6 1 3.83442 6.99788 6.92342 
37 1 0.675766 9.78521 10.122 
38 1 2.35643 8.68398 8.36486 
39 1 1.62026 9.31412 9.11246 
49 2 0.578662 8.64577 10.3975 
50 3 0.547459 7.65746 10.6057 