ITEM: TIMESTEP
0
ITEM: NUMBER OF ATOMS
33
ITEM: BOX BOUNDS pp pp pp
0.0000000000000000e+00 7.0970000000000004e+00
0.0000000000000000e+00 7.0970000000000004e+00
0.0000000000000000e+00 2.4588000000000001e+01
ITEM: ATOMS id type x y z 
2 1 3.339 1.632 13.319 
5 1 4.651 1.581 18.133 
7 1 3.391 1.602 15.981 
8 1 2.166 1.581 18.134 
18 1 3.408 1.581 17.416 
21 1 3.338 2.875 12.602 
23 1 3.367 1.619 14.753 
24 1 3.338 0.39 12.601 
17 1 7.023 2.875 24.28 
19 1 6.997 1.619 22.129 
20 1 7.023 0.39 24.281 
22 1 6.957 1.581 19.466 
25 1 5.714 1.581 18.748 
27 1 6.974 1.602 20.9 
28 1 1.102 1.581 18.748 
30 1 7.024 1.631 23.563 
10 1 6.954 5.232 5.122 
13 1 7.023 3.938 0.307 
15 1 6.994 5.194 2.459 
16 1 7.023 6.423 0.307 
26 1 7.022 5.181 1.025 
29 1 5.711 5.232 5.839 
31 1 6.97 5.211 3.688 
32 1 1.098 5.232 5.84 
33 2 4.647 5.232 5.354 
1 1 4.647 5.232 6.454 
3 1 3.388 5.211 8.606 
4 1 2.163 5.232 6.454 
6 1 3.338 5.182 11.269 
9 1 3.338 3.939 11.986 
11 1 3.365 5.194 9.834 
12 1 3.338 6.423 11.987 
14 1 3.404 5.232 7.171 
ITEM: TIMESTEP
10
ITEM: NUMBER OF ATOMS
33
ITEM: BOX BOUNDS pp pp pp
0.0000000000000000e+00 7.0970000000000004e+00
0.0000000000000000e+00 7.0970000000000004e+00
0.0000000000000000e+00 2.4588000000000001e+01
ITEM: ATOMS id type x y z 
2 1 3.33989 1.63229 13.3204 
5 1 4.65496 1.58135 18.1341 
7 1 3.39221 1.60199 15.9783 
8 1 2.16351 1.58099 18.1369 
18 1 3.40789 1.58058 17.4162 
21 1 3.33741 2.87694 12.6022 
23 1 3.36586 1.61949 14.758 
24 1 3.33739 0.39054 12.5995 
17 1 7.02401 2.87664 24.2792 
19 1 6.99738 1.61919 22.1232 
20 1 7.02734 0.391513 24.2857 
22 1 6.95699 1.58067 19.4656 
25 1 5.71022 1.58093 18.7471 
27 1 6.97314 1.60211 20.9043 
28 1 1.10452 1.58115 18.745 
30 1 7.02231 1.63175 23.5614 
10 1 6.96234 5.23205 5.11248 
13 1 7.02203 3.93196 0.304924 
15 1 6.9933 5.19342 2.44966 
16 1 7.01894 6.42508 0.298259 
26 1 7.02409 5.18086 1.01415 
29 1 5.7128 5.23231 5.76414 
31 1 6.97352 5.21115 3.66818 
32 1 1.10138 5.23217 5.84058 
33 2 4.661 5.23205 5.33189 
1 1 4.63746 5.23199 6.52682 
3 1 3.38498 5.21122 8.62962 
4 1 2.15931 5.23234 6.45459 
6 1 3.33869 5.18095 11.2826 
9 1 3.33843 3.93137 11.9898 
11 1 3.36248 5.19344 9.84922 
12 1 3.3382 6.42841 11.9916 
14 1 3.39103 5.23211 7.19044 
ITEM: TIMESTEP
20
ITEM: NUMBER OF ATOMS
33
ITEM: BOX BOUNDS pp pp pp
0.0000000000000000e+00 7.0970000000000004e+00
0.0000000000000000e+00 7.0970000000000004e+00
0.0000000000000000e+00 2.4588000000000001e+01
ITEM: ATOMS id type x y z 
2 1 3.33829 1.63235 13.3259 
5 1 4.65557 1.58098 18.1334 
7 1 3.39218 1.60252 15.9824 
8 1 2.16372 1.58033 18.138 
18 1 3.40812 1.58077 17.4188 
21 1 3.33763 2.8736 12.6072 
23 1 3.36759 1.62015 14.7622 
24 1 3.33727 0.394138 12.6011 
17 1 7.0236 2.87584 24.2745 
19 1 6.99656 1.62034 22.1204 
20 1 7.02352 0.393794 24.2843 
22 1 6.95687 1.58093 19.4636 
25 1 5.70993 1.58041 18.7481 
27 1 6.97256 1.60211 20.9012 
28 1 1.10404 1.58077 18.7441 
30 1 7.02433 1.63193 23.559 
10 1 6.96216 5.23204 5.10377 
13 1 7.02242 3.92918 0.303738 
15 1 6.99767 5.19254 2.44338 
16 1 7.02329 6.42648 0.294337 
26 1 7.02119 5.18009 1.00544 
29 1 5.69583 5.23278 5.73055 
31 1 6.97737 5.21124 3.66307 
32 1 1.10491 5.23268 5.84251 
33 2 4.64902 5.23215 5.32458 
1 1 4.64944 5.2321 6.55334 
3 1 3.38038 5.2112 8.63784 
4 1 2.15826 5.23267 6.45535 
6 1 3.33817 5.1807 11.2942 
9 1 3.33855 3.92855 11.9928 
11 1 3.36052 5.19191 9.85713 
12 1 3.3387 6.4312 11.9953 
14 1 3.40534 5.23251 7.19463 
ITEM: TIMESTEP
30
ITEM: NUMBER OF ATOMS
33
ITEM: BOX BOUNDS pp pp pp
0.0000000000000000e+00 7.0970000000000004e+00
0.0000000000000000e+00 7.0970000000000004e+00
0.0000000000000000e+00 2.4588000000000001e+01
ITEM: ATOMS id type x y z 
2 1 3.33792 1.63225 13.3279 
5 1 4.65567 1.58058 18.1338 
7 1 3.39264 1.60218 15.9844 
8 1 2.16374 1.5806 18.1387 
18 1 3.40826 1.58073 17.4205 
21 1 3.3379 2.8736 12.6079 
23 1 3.36745 1.62037 14.7642 
24 1 3.33785 0.394277 12.6017 
17 1 7.02346 2.87538 24.2746 
19 1 6.99628 1.62025 22.1198 
20 1 7.0241 0.393343 24.2831 
22 1 6.95676 1.58067 19.4631 
25 1 5.7103 1.58077 18.7481 
27 1 6.97234 1.60214 20.8998 
28 1 1.10361 1.58052 18.7438 
30 1 7.02467 1.63218 23.5566 
10 1 6.96295 5.23231 5.10367 
13 1 7.02258 3.92978 0.301797 
15 1 6.99877 5.19274 2.44361 
16 1 7.02265 6.42656 0.293726 
26 1 7.02131 5.18021 1.00642 
29 1 5.69413 5.2329 5.72599 
31 1 6.98025 5.21068 3.66335 
32 1 1.10639 5.23271 5.8446 
33 2 4.64006 5.23226 5.32389 
1 1 4.65231 5.23229 6.55155 
3 1 3.37877 5.21063 8.63697 
4 1 2.16035 5.23287 6.45565 
6 1 3.33822 5.18057 11.2935 
9 1 3.3381 3.92928 11.9948 
11 1 3.36023 5.19193 9.85638 
12 1 3.33771 6.4308 11.997 
14 1 3.40727 5.23264 7.19516 
ITEM: TIMESTEP
40
ITEM: NUMBER OF ATOMS
33
ITEM: BOX BOUNDS pp pp pp
0.0000000000000000e+00 7.0970000000000004e+00
0.0000000000000000e+00 7.0970000000000004e+00
0.0000000000000000e+00 2.4588000000000001e+01
ITEM: ATOMS id type x y z 
2 1 3.3374 1.63177 13.3304 
5 1 4.6556 1.58062 18.135 
7 1 3.39315 1.6023 15.9876 
8 1 2.16421 1.58015 18.1407 
18 1 3.40846 1.58038 17.4237 
21 1 3.33749 2.8752 12.6125 
23 1 3.36834 1.62039 14.7676 
24 1 3.33712 0.393853 12.6044 
17 1 7.02398 2.87526 24.2743 
19 1 6.99649 1.6203 22.1185 
20 1 7.02376 0.391684 24.2791 
22 1 6.95668 1.58056 19.4621 
25 1 5.71115 1.58028 18.7481 
27 1 6.97118 1.60196 20.8982 
28 1 1.10249 1.58038 18.7428 
30 1 7.02531 1.63216 23.5547 
10 1 6.96518 5.23239 5.1039 
13 1 7.02224 3.93193 0.297388 
15 1 7.00356 5.19211 2.44448 
16 1 7.0235 6.42642 0.292393 
26 1 7.02018 5.18062 1.00679 
29 1 5.6876 5.23336 5.71062 
31 1 6.98879 5.21061 3.66444 
32 1 1.10818 5.23322 5.84915 
33 2 4.62316 5.23261 5.32104 
1 1 4.65568 5.23263 6.5482 
3 1 3.37631 5.21035 8.63682 
4 1 2.1644 5.2328 6.45566 
6 1 3.33792 5.1805 11.294 
9 1 3.33757 3.93052 11.9989 
11 1 3.35719 5.19146 9.85615 
12 1 3.33749 6.42952 12.0012 
14 1 3.41322 5.23268 7.19503 
ITEM: TIMESTEP
50
ITEM: NUMBER OF ATOMS
33
ITEM: BOX BOUNDS pp pp pp
0.0000000000000000e+00 7.0970000000000004e+00
0.0000000000000000e+00 7.0970000000000004e+00
0.0000000000000000e+00 2.4588000000000001e+01
ITEM: ATOMS id type x y z 
2 1 3.33753 1.63265 13.3311 
5 1 4.65527 1.58033 18.1357 
7 1 3.3936 1.60209 15.9868 
8 1 2.1646 1.58008 18.1413 
18 1 3.40844 1.58028 17.4223 
21 1 3.33706 2.8757 12.6137 
23 1 3.36826 1.62034 14.7665 
24 1 3.33689 0.392526 12.6064 
17 1 7.02415 2.87573 24.2749 
19 1 6.99635 1.62053 22.12 
20 1 7.02422 0.390305 24.2776 
22 1 6.95673 1.58035 19.4634 
25 1 5.71108 1.58019 18.7481 
27 1 6.97088 1.60206 20.8999 
28 1 1.10255 1.57998 18.7428 
30 1 7.02587 1.63244 23.5566 
10 1 6.96424 5.23242 5.10412 
13 1 7.0225 3.93361 0.296071 
15 1 7.00658 5.19201 2.44501 
16 1 7.02256 6.42557 0.291879 
26 1 7.0205 5.18054 1.00733 
29 1 5.6856 5.23366 5.70726 
31 1 6.99487 5.21052 3.66497 
32 1 1.10674 5.23324 5.85054 
33 2 4.62439 5.23293 5.31442 
1 1 4.65335 5.23267 6.54447 
3 1 3.37585 5.21027 8.63719 
4 1 2.16401 5.23304 6.45522 
6 1 3.33676 5.18004 11.2944 
9 1 3.33703 3.93216 12.0018 
11 1 3.35687 5.19169 9.85655 
12 1 3.33687 6.42867 12.0026 
14 1 3.4128 5.23241 7.19498 
ITEM: TIMESTEP
60
ITEM: NUMBER OF ATOMS
33
ITEM: BOX BOUNDS pp pp pp
0.0000000000000000e+00 7.0970000000000004e+00
0.0000000000000000e+00 7.0970000000000004e+00
0.0000000000000000e+00 2.4588000000000001e+01
ITEM: ATOMS id type x y z 
2 1 3.33756 1.63215 13.3307 
5 1 4.65543 1.58021 18.1358 
7 1 3.39385 1.60201 15.9872 
8 1 2.16442 1.57996 18.1414 
18 1 3.40848 1.5802 17.4234 
21 1 3.33704 2.8761 12.6142 
23 1 3.36818 1.62038 14.7671 
24 1 3.33677 0.392195 12.6071 
17 1 7.02415 2.87584 24.2748 
19 1 6.9962 1.62064 22.1199 
20 1 7.02442 0.390071 24.2773 
22 1 6.95668 1.58021 19.4635 
25 1 5.71119 1.58016 18.7485 
27 1 6.97085 1.60212 20.8998 
28 1 1.10249 1.57993 18.7432 
30 1 7.026 1.63234 23.5562 
10 1 6.96452 5.23245 5.10451 
13 1 7.02252 3.93374 0.29581 
15 1 7.00792 5.19217 2.4453 
16 1 7.02272 6.42536 0.291564 
26 1 7.02057 5.18067 1.00764 
29 1 5.68507 5.23369 5.7063 
31 1 6.99724 5.21058 3.66526 
32 1 1.10642 5.23315 5.85133 
33 2 4.62328 5.23307 5.31212 
1 1 4.65243 5.2327 6.54223 
3 1 3.37559 5.21027 8.63696 
4 1 2.16397 5.23307 6.45565 
6 1 3.33613 5.18056 11.2944 
9 1 3.33661 3.93269 12.0027 
11 1 3.35709 5.19163 9.85628 
12 1 3.33652 6.42827 12.0032 
14 1 3.4127 5.23241 7.19465 
ITEM: TIMESTEP
70
ITEM: NUMBER OF ATOMS
33
ITEM: BOX BOUNDS pp pp pp
0.0000000000000000e+00 7.0970000000000004e+00
0.0000000000000000e+00 7.0970000000000004e+00
0.0000000000000000e+00 2.4588000000000001e+01
ITEM: ATOMS id type x y z 
2 1 3.33756 1.63239 13.3315 
5 1 4.65536 1.58002 18.1362 
7 1 3.39401 1.60191 15.9877 
8 1 2.16444 1.57982 18.1417 
18 1 3.40849 1.58006 17.4235 
21 1 3.33676 2.87646 12.6151 
23 1 3.36845 1.62032 14.7675 
24 1 3.33637 0.391657 12.6084 
17 1 7.02422 2.87614 24.2744 
19 1 6.99625 1.62084 22.1202 
20 1 7.02451 0.389591 24.2767 
22 1 6.95669 1.58003 19.4637 
25 1 5.71116 1.58001 18.7488 
27 1 6.97065 1.60217 20.9 
28 1 1.10257 1.57977 18.7436 
30 1 7.02617 1.63239 23.5565 
10 1 6.9646 5.23237 5.10465 
13 1 7.02284 3.93398 0.295592 
15 1 7.01031 5.19262 2.44543 
16 1 7.02288 6.42497 0.291124 
26 1 7.02083 5.18057 1.00777 
29 1 5.68369 5.23377 5.70342 
31 1 7.00136 5.21072 3.6656 
32 1 1.1056 5.23315 5.85274 
33 2 4.6223 5.23333 5.30819 
1 1 4.65078 5.23276 6.53889 
3 1 3.37583 5.21027 8.63698 
4 1 2.16363 5.23303 6.4565 
6 1 3.33522 5.1804 11.2945 
9 1 3.33603 3.93339 12.0041 
11 1 3.35646 5.19166 9.85635 
12 1 3.33618 6.42807 12.0041 
14 1 3.41279 5.23236 7.1945 
ITEM: TIMESTEP
80
ITEM: NUMBER OF ATOMS
33
ITEM: BOX BOUNDS pp pp pp
0.0000000000000000e+00 7.0970000000000004e+00
0.0000000000000000e+00 7.0970000000000004e+00
0.0000000000000000e+00 2.4588000000000001e+01
ITEM: ATOMS id type x y z 
2 1 3.33765 1.63233 13.3314 
5 1 4.65536 1.57999 18.1363 
7 1 3.39419 1.60189 15.9877 
8 1 2.16443 1.57977 18.1418 
18 1 3.40849 1.58003 17.4237 
21 1 3.33673 2.87656 12.6153 
23 1 3.36822 1.62033 14.7675 
24 1 3.33652 0.39159 12.6086 
17 1 7.02434 2.87616 24.2744 
19 1 6.99612 1.62087 22.1202 
20 1 7.02456 0.389523 24.2766 
22 1 6.95668 1.58 19.4638 
25 1 5.71117 1.57998 18.7488 
27 1 6.9707 1.60217 20.9001 
28 1 1.10258 1.57975 18.7437 
30 1 7.0262 1.63238 23.5565 
10 1 6.9646 5.23235 5.10466 
13 1 7.0228 3.93401 0.295554 
15 1 7.01073 5.19274 2.44555 
16 1 7.02292 6.42491 0.291048 
26 1 7.02092 5.18058 1.00782 
29 1 5.68346 5.23377 5.703 
31 1 7.00201 5.21075 3.66553 
32 1 1.10552 5.23313 5.85304 
33 2 4.62208 5.23338 5.30751 
1 1 4.65054 5.23276 6.53833 
3 1 3.37561 5.21029 8.63704 
4 1 2.16349 5.23303 6.45666 
6 1 3.33494 5.18051 11.2946 
9 1 3.33593 3.93348 12.0043 
11 1 3.35691 5.19161 9.85633 
12 1 3.33577 6.42799 12.0042 
14 1 3.41283 5.23236 7.19445 
ITEM: TIMESTEP
90
ITEM: NUMBER OF ATOMS
33
ITEM: BOX BOUNDS pp pp pp
0.0000000000000000e+00 7.0970000000000004e+00
0.0000000000000000e+00 7.0970000000000004e+00
0.0000000000000000e+00 2.4588000000000001e+01
ITEM: ATOMS id type x y z 
2 1 3.33841 1.63123 13.3332 
5 1 4.65499 1.57781 18.1413 
7 1 3.39685 1.60068 15.9913 
8 1 2.16444 1.57749 18.1462 
18 1 3.40867 1.57777 17.4296 
21 1 3.3325 2.88342 12.6278 
23 1 3.37037 1.62015 14.7716 
24 1 3.33306 0.385148 12.6234 
17 1 7.0267 2.87738 24.2741 
19 1 6.99552 1.62314 22.1231 
20 1 7.02679 0.38478 24.2712 
22 1 6.95654 1.57788 19.4674 
25 1 5.71133 1.57787 18.7532 
27 1 6.96935 1.60248 20.9028 
28 1 1.10291 1.57749 18.7488 
30 1 7.02612 1.63199 23.5578 
10 1 6.96526 5.23045 5.10579 
13 1 7.02696 3.93639 0.293033 
15 1 7.04044 5.2014 2.44843 
16 1 7.02709 6.42024 0.285711 
26 1 7.02694 5.18056 1.01047 
29 1 5.66718 5.23422 5.66929 
31 1 7.05153 5.21392 3.66841 
32 1 1.0944 5.23232 5.87342 
33 2 4.60704 5.23666 5.25756 
1 1 4.631 5.23324 6.49782 
3 1 3.38195 5.20967 8.63746 
4 1 2.15584 5.23254 6.47141 
6 1 3.32217 5.18262 11.2981 
9 1 3.32773 3.94081 12.0179 
11 1 3.35236 5.19061 9.85597 
12 1 3.32823 6.42588 12.0105 
14 1 3.41432 5.23276 7.19182 
ITEM: TIMESTEP
95
ITEM: NUMBER OF ATOMS
33
ITEM: BOX BOUNDS pp pp pp
0.0000000000000000e+00 7.0970000000000004e+00
0.0000000000000000e+00 7.0970000000000004e+00
0.0000000000000000e+00 2.4588000000000001e+01
ITEM: ATOMS id type x y z 
2 1 3.33872 1.63241 13.3347 
5 1 4.65472 1.57771 18.1412 
7 1 3.39689 1.60079 15.9914 
8 1 2.16474 1.57748 18.1461 
18 1 3.40864 1.57771 17.4281 
21 1 3.33268 2.88293 12.6275 
23 1 3.37018 1.62003 14.7714 
24 1 3.3329 0.385505 12.6228 
17 1 7.02657 2.8774 24.2746 
19 1 6.99541 1.62312 22.1231 
20 1 7.02683 0.384899 24.2714 
22 1 6.95659 1.57784 19.4673 
25 1 5.71103 1.57782 18.7531 
27 1 6.96946 1.60248 20.9029 
28 1 1.10317 1.57753 18.7485 
30 1 7.02623 1.63201 23.5586 
10 1 6.96494 5.23059 5.10594 
13 1 7.02705 3.93661 0.293176 
15 1 7.0403 5.19986 2.44895 
16 1 7.02692 6.42028 0.285865 
26 1 7.02793 5.18096 1.01057 
29 1 5.66717 5.23412 5.66892 
31 1 7.05098 5.21477 3.66867 
32 1 1.09406 5.23232 5.87372 
33 2 4.6075 5.23665 5.25817 
1 1 4.63097 5.23325 6.49797 
3 1 3.38102 5.20977 8.63726 
4 1 2.15528 5.23244 6.47174 
6 1 3.3215 5.18204 11.2962 
9 1 3.32741 3.94061 12.0181 
11 1 3.35468 5.19017 9.85591 
12 1 3.32767 6.42602 12.0109 
14 1 3.41483 5.23287 7.19132 
ITEM: TIMESTEP
100
ITEM: NUMBER OF ATOMS
33
ITEM: BOX BOUNDS pp pp pp
0.0000000000000000e+00 7.0970000000000004e+00
0.0000000000000000e+00 7.0970000000000004e+00
0.0000000000000000e+00 2.4588000000000001e+01
ITEM: ATOMS id type x y z 
2 1 3.33876 1.6325 13.3348 
5 1 4.65469 1.57775 18.1412 
7 1 3.39684 1.60076 15.9914 
8 1 2.16479 1.57749 18.1461 
18 1 3.40864 1.5777 17.428 
21 1 3.3326 2.88295 12.6273 
23 1 3.37025 1.62004 14.7713 
24 1 3.33279 0.385545 12.6226 
17 1 7.02672 2.87745 24.2747 
19 1 6.99541 1.62311 22.1231 
20 1 7.0266 0.384937 24.2714 
22 1 6.9566 1.57786 19.4672 
25 1 5.71098 1.57775 18.7531 
27 1 6.96948 1.60247 20.9029 
28 1 1.10319 1.57752 18.7485 
30 1 7.02616 1.63202 23.5587 
10 1 6.96496 5.23068 5.10595 
13 1 7.02717 3.93666 0.293273 
15 1 7.04039 5.19942 2.44878 
16 1 7.02713 6.42029 0.28592 
26 1 7.02795 5.18107 1.01059 
29 1 5.66714 5.2341 5.66886 
31 1 7.0508 5.21492 3.66887 
32 1 1.09392 5.23222 5.87379 
33 2 4.60756 5.23665 5.25826 
1 1 4.63105 5.23326 6.49804 
3 1 3.38152 5.20968 8.63698 
4 1 2.15527 5.2326 6.47192 
6 1 3.32166 5.1819 11.2961 
9 1 3.32747 3.94066 12.018 
11 1 3.35418 5.19018 9.85585 
12 1 3.32766 6.42603 12.0109 
14 1 3.41466 5.23284 7.19138 
ITEM: TIMESTEP
105
ITEM: NUMBER OF ATOMS
33
ITEM: BOX BOUNDS pp pp pp
0.0000000000000000e+00 7.0970000000000004e+00
0.0000000000000000e+00 7.0970000000000004e+00
0.0000000000000000e+00 2.4588000000000001e+01
ITEM: ATOMS id type x y z 
2 1 3.33876 1.63255 13.3349 
5 1 4.65467 1.57772 18.1412 
7 1 3.39683 1.60074 15.9914 
8 1 2.16481 1.57748 18.1461 
18 1 3.40863 1.57771 17.4279 
21 1 3.3326 2.88294 12.6273 
23 1 3.37026 1.62005 14.7713 
24 1 3.33277 0.385594 12.6225 
17 1 7.02672 2.87747 24.2747 
19 1 6.99541 1.62311 22.1231 
20 1 7.02667 0.384952 24.2714 
22 1 6.9566 1.57785 19.4672 
25 1 5.71096 1.57777 18.7531 
27 1 6.96949 1.60247 20.9029 
28 1 1.10321 1.57751 18.7485 
30 1 7.02608 1.63204 23.5588 
10 1 6.96498 5.23073 5.10595 
13 1 7.02727 3.93667 0.293329 
15 1 7.04033 5.19937 2.44887 
16 1 7.02712 6.42031 0.285946 
26 1 7.02804 5.18104 1.01062 
29 1 5.66709 5.23409 5.66886 
31 1 7.05075 5.21489 3.6688 
32 1 1.0939 5.23221 5.87387 
33 2 4.60759 5.23665 5.25831 
1 1 4.63109 5.23327 6.49808 
3 1 3.38171 5.20968 8.63695 
4 1 2.15519 5.23261 6.47198 
6 1 3.32167 5.18183 11.296 
9 1 3.32747 3.94069 12.018 
11 1 3.35407 5.19015 9.85573 
12 1 3.32765 6.42601 12.011 
14 1 3.4146 5.23283 7.19139 
ITEM: TIMESTEP
110
ITEM: NUMBER OF ATOMS
33
ITEM: BOX BOUNDS pp pp pp
-8.3173239067540203e-04 7.0978317323906763e+00
-9.0754709638184963e-04 7.0979075470963826e+00
-6.1469999999999997e-03 2.4594147000000000e+01
ITEM: ATOMS id type x y z 
2 1 3.33871 1.63206 13.3354 
5 1 4.65494 1.57722 18.1441 
7 1 3.39679 1.60025 15.9932 
8 1 2.16448 1.57698 18.1491 
18 1 3.4086 1.5772 17.4304 
21 1 3.33255 2.88277 12.6274 
23 1 3.37022 1.61955 14.7726 
24 1 3.33271 0.384784 12.6227 
17 1 7.02753 2.8773 24.2807 
19 1 6.99622 1.62262 22.1281 
20 1 7.02749 0.384141 24.2774 
22 1 6.9574 1.57735 19.4708 
25 1 5.71147 1.57727 18.7563 
27 1 6.97029 1.60197 20.9073 
28 1 1.10264 1.57701 18.7517 
30 1 7.0269 1.63155 23.5644 
10 1 6.96578 5.23117 5.10235 
13 1 7.02808 3.93677 0.287328 
15 1 7.04115 5.19979 2.44395 
16 1 7.02794 6.42105 0.279941 
26 1 7.02885 5.18146 1.00498 
29 1 5.66759 5.23452 5.66554 
31 1 7.05157 5.21532 3.66448 
32 1 1.09333 5.23265 5.87066 
33 2 4.60784 5.23708 5.25479 
1 1 4.63134 5.2337 6.49518 
3 1 3.38167 5.2101 8.63513 
4 1 2.15486 5.23304 6.46907 
6 1 3.32162 5.18225 11.2955 
9 1 3.32742 3.94079 12.0179 
11 1 3.35403 5.19057 9.85451 
12 1 3.3276 6.42675 12.0108 
14 1 3.41457 5.23326 7.18884 
ITEM: TIMESTEP
120
ITEM: NUMBER OF ATOMS
33
ITEM: BOX BOUNDS pp pp pp
-2.6541999081977218e-03 7.0996541999081995e+00
-2.9742116657821760e-03 7.0999742116657840e+00
-1.8441000000000006e-02 2.4606440999999997e+01
ITEM: ATOMS id type x y z 
2 1 3.3386 1.63094 13.3364 
5 1 4.65553 1.57607 18.15 
7 1 3.39672 1.59911 15.9969 
8 1 2.16375 1.57583 18.1549 
18 1 3.40853 1.57605 17.4356 
21 1 3.33244 2.88241 12.6277 
23 1 3.37013 1.61843 14.7751 
24 1 3.3326 0.382916 12.623 
17 1 7.02932 2.87694 24.2927 
19 1 6.99799 1.62149 22.1378 
20 1 7.02928 0.382273 24.2894 
22 1 6.95915 1.5762 19.478 
25 1 5.71255 1.57612 18.7627 
27 1 6.97205 1.60084 20.9159 
28 1 1.10141 1.57586 18.7581 
30 1 7.02868 1.63043 23.5757 
10 1 6.96753 5.23215 5.09516 
13 1 7.02987 3.93697 0.275314 
15 1 7.04294 5.20074 2.43415 
16 1 7.02972 6.42275 0.267919 
26 1 7.03064 5.18241 0.993699 
29 1 5.66868 5.2355 5.65892 
31 1 7.05336 5.21629 3.65582 
32 1 1.09208 5.23363 5.86425 
33 2 4.60838 5.23806 5.24776 
1 1 4.63189 5.23468 6.48938 
3 1 3.38159 5.21107 8.63151 
4 1 2.15413 5.23402 6.46324 
6 1 3.3215 5.1832 11.2945 
9 1 3.32731 3.94099 12.0176 
11 1 3.35393 5.19153 9.85202 
12 1 3.32749 6.42845 12.0106 
14 1 3.41451 5.23424 7.18374 
ITEM: TIMESTEP
130
ITEM: NUMBER OF ATOMS
33
ITEM: BOX BOUNDS pp pp pp
-5.0216071223201939e-03 7.1020216071223219e+00
-5.8813024118244666e-03 7.1028813024118271e+00
-3.0657693923502725e-02 2.4618657693923495e+01
ITEM: ATOMS id type x y z 
2 1 3.33846 1.62938 13.3375 
5 1 4.65637 1.57446 18.1559 
7 1 3.39661 1.59752 16.0004 
8 1 2.16272 1.57421 18.1608 
18 1 3.40843 1.57444 17.4407 
21 1 3.33229 2.88198 12.628 
23 1 3.37002 1.61685 14.7777 
24 1 3.33246 0.38021 12.6233 
17 1 7.03164 2.87651 24.3047 
19 1 7.00028 1.61991 22.1474 
20 1 7.0316 0.379566 24.3014 
22 1 6.96143 1.57458 19.4851 
25 1 5.71388 1.5745 18.7691 
27 1 6.97434 1.59925 20.9247 
28 1 1.09989 1.57425 18.7645 
30 1 7.031 1.62886 23.5869 
10 1 6.9698 5.23353 5.08801 
13 1 7.03219 3.93717 0.263325 
15 1 7.04527 5.2021 2.42457 
16 1 7.03205 6.42522 0.255924 
26 1 7.03297 5.18375 0.982503 
29 1 5.67011 5.23688 5.65234 
31 1 7.05568 5.21765 3.64706 
32 1 1.09051 5.23501 5.8579 
33 2 4.6091 5.23945 5.24079 
1 1 4.63258 5.23606 6.48361 
3 1 3.38148 5.21242 8.62806 
4 1 2.15312 5.2354 6.45742 
6 1 3.32135 5.18454 11.2935 
9 1 3.32716 3.94119 12.0174 
11 1 3.3538 5.19288 9.8494 
12 1 3.32734 6.43092 12.0103 
14 1 3.41444 5.23562 7.17867 
ITEM: TIMESTEP
140
ITEM: NUMBER OF ATOMS
33
ITEM: BOX BOUNDS pp pp pp
-6.2713139688098853e-03 7.1032713139688104e+00
-8.0769367868244683e-03 7.1050769367868272e+00
-3.4706047185228989e-02 2.4622706047185222e+01
ITEM: ATOMS id type x y z 
2 1 3.33839 1.6282 13.3378 
5 1 4.65694 1.57324 18.1579 
7 1 3.39655 1.59632 16.0013 
8 1 2.16206 1.57299 18.1628 
18 1 3.40838 1.57322 17.4423 
21 1 3.33222 2.88177 12.628 
23 1 3.36996 1.61565 14.7789 
24 1 3.33238 0.37806 12.6232 
17 1 7.03287 2.87629 24.3087 
19 1 7.00149 1.61871 22.1503 
20 1 7.03282 0.377416 24.3055 
22 1 6.96263 1.57337 19.4875 
25 1 5.71447 1.57328 18.7711 
27 1 6.97555 1.59805 20.9278 
28 1 1.0992 1.57303 18.7665 
30 1 7.03222 1.62768 23.5906 
10 1 6.97099 5.23457 5.08562 
13 1 7.03342 3.93722 0.259265 
15 1 7.04649 5.20312 2.42164 
16 1 7.03327 6.42719 0.251864 
26 1 7.03421 5.18475 0.978805 
29 1 5.6709 5.23792 5.65016 
31 1 7.0569 5.21867 3.64396 
32 1 1.08985 5.23605 5.85591 
33 2 4.60949 5.24049 5.23851 
1 1 4.6329 5.2371 6.4817 
3 1 3.38143 5.21345 8.62719 
4 1 2.15243 5.23644 6.45539 
6 1 3.32127 5.18554 11.2931 
9 1 3.32708 3.94124 12.0174 
11 1 3.35374 5.1939 9.8482 
12 1 3.32726 6.4329 12.0104 
14 1 3.4144 5.23666 7.177 
ITEM: TIMESTEP
150
ITEM: NUMBER OF ATOMS
33
ITEM: BOX BOUNDS pp pp pp
-6.6106207863622360e-03 7.1036106207863625e+00
-8.5870336618244659e-03 7.1055870336618261e+00
-3.5781076454400373e-02 2.4623781076454392e+01
ITEM: ATOMS id type x y z 
2 1 3.33837 1.62792 13.3379 
5 1 4.65711 1.57295 18.1585 
7 1 3.39653 1.59604 16.0015 
8 1 2.16187 1.57271 18.1634 
18 1 3.40837 1.57294 17.4428 
21 1 3.3322 2.88175 12.628 
23 1 3.36994 1.61537 14.7792 
24 1 3.33236 0.377537 12.6232 
17 1 7.0332 2.87627 24.3098 
19 1 7.00181 1.61843 22.1511 
20 1 7.03315 0.376893 24.3065 
22 1 6.96295 1.57308 19.4882 
25 1 5.71461 1.573 18.7716 
27 1 6.97588 1.59777 20.9287 
28 1 1.09903 1.57274 18.7671 
30 1 7.03255 1.6274 23.5915 
10 1 6.97131 5.23481 5.08498 
13 1 7.03375 3.9372 0.258176 
15 1 7.04684 5.20336 2.42088 
16 1 7.03361 6.42767 0.250776 
26 1 7.03454 5.18499 0.977823 
29 1 5.67112 5.23816 5.64958 
31 1 7.05722 5.21891 3.64312 
32 1 1.08968 5.23629 5.85538 
33 2 4.6096 5.24073 5.23791 
1 1 4.63298 5.23734 6.48119 
3 1 3.38142 5.21368 8.62696 
4 1 2.15223 5.23668 6.45485 
6 1 3.32125 5.18578 11.293 
9 1 3.32706 3.94122 12.0174 
11 1 3.35373 5.19414 9.84787 
12 1 3.32724 6.43338 12.0104 
14 1 3.41439 5.2369 7.17655 
ITEM: TIMESTEP
160
ITEM: NUMBER OF ATOMS
33
ITEM: BOX BOUNDS pp pp pp
-9.0526116541096626e-03 7.1060526116541087e+00
-1.1632132933280500e-02 7.1086321329332822e+00
-4.4635454767596068e-02 2.4632635454767588e+01
ITEM: ATOMS id type x y z 
2 1 3.33824 1.6263 13.3387 
5 1 4.65863 1.57126 18.1631 
7 1 3.39638 1.59438 16.0031 
8 1 2.16016 1.57102 18.168 
18 1 3.40827 1.57126 17.4463 
21 1 3.33204 2.88207 12.6277 
23 1 3.36985 1.61369 14.782 
24 1 3.3322 0.373951 12.6229 
17 1 7.0356 2.87659 24.319 
19 1 7.00415 1.61675 22.1571 
20 1 7.03555 0.3733 24.3157 
22 1 6.9653 1.57141 19.4934 
25 1 5.71533 1.57131 18.7758 
27 1 6.97828 1.59612 20.936 
28 1 1.09811 1.57105 18.7713 
30 1 7.03491 1.62576 23.5997 
10 1 6.97366 5.23627 5.0797 
13 1 7.03617 3.93664 0.249048 
15 1 7.04929 5.20474 2.41491 
16 1 7.03602 6.43104 0.24165 
26 1 7.03697 5.1864 0.969743 
29 1 5.67293 5.2396 5.64474 
31 1 7.05946 5.22033 3.63604 
32 1 1.08848 5.23774 5.85101 
33 2 4.61045 5.24218 5.23301 
1 1 4.63328 5.23879 6.47707 
3 1 3.3813 5.21511 8.62516 
4 1 2.15069 5.23812 6.45037 
6 1 3.32111 5.18717 11.2922 
9 1 3.32691 3.94066 12.0177 
11 1 3.35364 5.19555 9.84508 
12 1 3.32709 6.43673 12.0107 
14 1 3.41439 5.23832 7.17288 
ITEM: TIMESTEP
170
ITEM: NUMBER OF ATOMS
33
ITEM: BOX BOUNDS pp pp pp
-1.1443358545162107e-02 7.1084433585451610e+00
-1.4851362246578006e-02 7.1118513622465800e+00
-5.6773172524701640e-02 2.4644773172524694e+01
ITEM: ATOMS id type x y z 
2 1 3.33814 1.6246 13.3399 
5 1 4.66022 1.56947 18.1694 
7 1 3.39619 1.59264 16.0053 
8 1 2.15835 1.56922 18.1742 
18 1 3.40815 1.56952 17.451 
21 1 3.33189 2.88253 12.6272 
23 1 3.36975 1.61189 14.7856 
24 1 3.33203 0.370055 12.6224 
17 1 7.03794 2.87711 24.3315 
19 1 7.00643 1.61493 22.1656 
20 1 7.03787 0.369336 24.3282 
22 1 6.96763 1.56967 19.5007 
25 1 5.7159 1.56952 18.7817 
27 1 6.98069 1.59438 20.9459 
28 1 1.09737 1.56926 18.7772 
30 1 7.03712 1.62403 23.6108 
10 1 6.97632 5.23783 5.07213 
13 1 7.03861 3.93588 0.236667 
15 1 7.05143 5.20627 2.40658 
16 1 7.03843 6.43483 0.229261 
26 1 7.03959 5.18785 0.958785 
29 1 5.67588 5.24111 5.63773 
31 1 7.06143 5.22173 3.62655 
32 1 1.08749 5.23929 5.84493 
33 2 4.61166 5.24371 5.22669 
1 1 4.63222 5.24032 6.47172 
3 1 3.38111 5.21635 8.62249 
4 1 2.14881 5.23962 6.44428 
6 1 3.32103 5.18862 11.2909 
9 1 3.32677 3.93992 12.018 
11 1 3.35367 5.19721 9.84133 
12 1 3.32694 6.44043 12.0111 
14 1 3.41414 5.2399 7.16803 
ITEM: TIMESTEP
180
ITEM: NUMBER OF ATOMS
33
ITEM: BOX BOUNDS pp pp pp
-1.2136301747023695e-02 7.1091363017470224e+00
-1.4198278906419785e-02 7.1111982789064205e+00
-5.9767797100252394e-02 2.4647767797100244e+01
ITEM: ATOMS id type x y z 
2 1 3.33814 1.62502 13.3404 
5 1 4.6606 1.56985 18.1709 
7 1 3.39603 1.593 16.0057 
8 1 2.1579 1.56959 18.1757 
18 1 3.40808 1.56995 17.4517 
21 1 3.33186 2.88265 12.6271 
23 1 3.36969 1.61218 14.7862 
24 1 3.33199 0.370729 12.6222 
17 1 7.0386 2.87731 24.3345 
19 1 7.00706 1.61518 22.168 
20 1 7.0385 0.369904 24.3312 
22 1 6.96836 1.57012 19.5029 
25 1 5.7161 1.56991 18.7832 
27 1 6.98153 1.59474 20.9485 
28 1 1.09715 1.56964 18.7787 
30 1 7.03753 1.6244 23.6135 
10 1 6.97775 5.23759 5.0695 
13 1 7.03949 3.93577 0.23393 
15 1 7.05228 5.20579 2.40431 
16 1 7.03926 6.43444 0.226544 
26 1 7.04052 5.18762 0.9564 
29 1 5.67814 5.24078 5.63578 
31 1 7.06109 5.22134 3.62394 
32 1 1.08728 5.23901 5.84326 
33 2 4.61296 5.24339 5.22616 
1 1 4.6303 5.23999 6.47033 
3 1 3.38125 5.21629 8.62196 
4 1 2.14795 5.23927 6.44296 
6 1 3.32113 5.18829 11.2901 
9 1 3.32676 3.93982 12.0178 
11 1 3.35365 5.19679 9.84044 
12 1 3.32696 6.4399 12.0111 
14 1 3.413 5.23933 7.16744 
ITEM: TIMESTEP
190
ITEM: NUMBER OF ATOMS
33
ITEM: BOX BOUNDS pp pp pp
-1.1874067396462202e-02 7.1088740673964619e+00
-1.3846211041898376e-02 7.1108462110419000e+00
-6.4666199982079398e-02 2.4652666199982068e+01
ITEM: ATOMS id type x y z 
2 1 3.33818 1.6253 13.3414 
5 1 4.66059 1.57013 18.1732 
7 1 3.39583 1.59317 16.0067 
8 1 2.15788 1.56983 18.1778 
18 1 3.40803 1.57022 17.4528 
21 1 3.33194 2.88256 12.6269 
23 1 3.3696 1.61226 14.7873 
24 1 3.3321 0.371345 12.6219 
17 1 7.03838 2.87732 24.3394 
19 1 7.00674 1.6152 22.1718 
20 1 7.03817 0.370387 24.3359 
22 1 6.96819 1.57044 19.5064 
25 1 5.71578 1.57019 18.7858 
27 1 6.98157 1.5949 20.9524 
28 1 1.09753 1.56988 18.7814 
30 1 7.03671 1.62463 23.6176 
10 1 6.97871 5.23755 5.06518 
13 1 7.03952 3.93578 0.229576 
15 1 7.05121 5.20576 2.39988 
16 1 7.0393 6.43432 0.222238 
26 1 7.04123 5.18733 0.952436 
29 1 5.67944 5.24059 5.63372 
31 1 7.0597 5.22074 3.61939 
32 1 1.0875 5.23889 5.84021 
33 2 4.61476 5.2432 5.22531 
1 1 4.62834 5.23977 6.46719 
3 1 3.38178 5.21611 8.62123 
4 1 2.14737 5.23903 6.44116 
6 1 3.32118 5.18811 11.2888 
9 1 3.32683 3.93984 12.0173 
11 1 3.35388 5.19668 9.83957 
12 1 3.32707 6.43948 12.0108 
14 1 3.41091 5.23892 7.16666 
ITEM: TIMESTEP
200
ITEM: NUMBER OF ATOMS
33
ITEM: BOX BOUNDS pp pp pp
-1.1650289601341767e-02 7.1086502896013410e+00
-1.2819563826681887e-02 7.1098195638266839e+00
-6.9712916992344623e-02 2.4657712916992338e+01
ITEM: ATOMS id type x y z 
2 1 3.33824 1.62591 13.3422 
5 1 4.66056 1.57077 18.1755 
7 1 3.39567 1.59371 16.008 
8 1 2.1579 1.57044 18.18 
18 1 3.40801 1.57083 17.4544 
21 1 3.33199 2.88266 12.6268 
23 1 3.36953 1.61274 14.7884 
24 1 3.33218 0.372458 12.6218 
17 1 7.03816 2.87743 24.3444 
19 1 7.00644 1.61563 22.1757 
20 1 7.03792 0.371433 24.3409 
22 1 6.96803 1.57109 19.5098 
25 1 5.71557 1.57085 18.7886 
27 1 6.98158 1.59542 20.9561 
28 1 1.09781 1.57051 18.7842 
30 1 7.03607 1.62525 23.6218 
10 1 6.97925 5.23711 5.06107 
13 1 7.03948 3.93551 0.224883 
15 1 7.05095 5.20467 2.39529 
16 1 7.03934 6.43371 0.217654 
26 1 7.04156 5.18716 0.948001 
29 1 5.68014 5.24011 5.63173 
31 1 7.05832 5.22038 3.61496 
32 1 1.08764 5.23843 5.83706 
33 2 4.61587 5.24269 5.22369 
1 1 4.62734 5.23922 6.46438 
3 1 3.38208 5.21543 8.62028 
4 1 2.14689 5.23849 6.43931 
6 1 3.32125 5.18763 11.288 
9 1 3.32689 3.93963 12.0168 
11 1 3.3541 5.19636 9.8388 
12 1 3.32715 6.43869 12.0106 
14 1 3.4096 5.23833 7.16552 
ITEM: TIMESTEP
210
ITEM: NUMBER OF ATOMS
33
ITEM: BOX BOUNDS pp pp pp
-1.1450074684611889e-02 7.1084500746846127e+00
-1.1862947006793859e-02 7.1088629470067968e+00
-7.1774411978422159e-02 2.4659774411978411e+01
ITEM: ATOMS id type x y z 
2 1 3.33828 1.62645 13.3427 
5 1 4.66055 1.57135 18.1764 
7 1 3.39554 1.59421 16.0085 
8 1 2.15791 1.57102 18.1808 
18 1 3.408 1.5714 17.4549 
21 1 3.33204 2.88275 12.6268 
23 1 3.36948 1.6132 14.7889 
24 1 3.33224 0.373473 12.6217 
17 1 7.03774 2.87749 24.3465 
19 1 7.00619 1.61605 22.1772 
20 1 7.03766 0.372424 24.3428 
22 1 6.96787 1.57169 19.5113 
25 1 5.71537 1.57144 18.7898 
27 1 6.98156 1.59591 20.9576 
28 1 1.09805 1.57111 18.7854 
30 1 7.0356 1.62579 23.6232 
10 1 6.97955 5.23672 5.05897 
13 1 7.03967 3.9353 0.223017 
15 1 7.0504 5.20434 2.39318 
16 1 7.03938 6.43323 0.215863 
26 1 7.04185 5.1866 0.946131 
29 1 5.68065 5.23966 5.6312 
31 1 7.05741 5.21965 3.6128 
32 1 1.0878 5.23801 5.83553 
33 2 4.61655 5.24222 5.22338 
1 1 4.62669 5.23871 6.46336 
3 1 3.38227 5.21501 8.62013 
4 1 2.14648 5.23795 6.43882 
6 1 3.32132 5.1872 11.2876 
9 1 3.32695 3.93938 12.0165 
11 1 3.35427 5.19595 9.8386 
12 1 3.32723 6.43801 12.0105 
14 1 3.40873 5.23772 7.16542 
ITEM: TIMESTEP
220
ITEM: NUMBER OF ATOMS
33
ITEM: BOX BOUNDS pp pp pp
-1.1099864462634999e-02 7.1080998644626359e+00
-1.1105635214719405e-02 7.1081056352147236e+00
-7.6558465551656227e-02 2.4664558465551647e+01
ITEM: ATOMS id type x y z 
2 1 3.33835 1.62691 13.3438 
5 1 4.66054 1.57187 18.1785 
7 1 3.39532 1.59459 16.0098 
8 1 2.15793 1.57155 18.1828 
18 1 3.40799 1.5719 17.4563 
21 1 3.33214 2.8827 12.6268 
23 1 3.36938 1.6135 14.7901 
24 1 3.33236 0.374459 12.6216 
17 1 7.03733 2.87741 24.351 
19 1 7.00575 1.6163 22.1806 
20 1 7.03725 0.373374 24.3474 
22 1 6.9676 1.57224 19.5146 
25 1 5.71502 1.57197 18.7925 
27 1 6.98152 1.59628 20.961 
28 1 1.09849 1.57165 18.7882 
30 1 7.03465 1.62625 23.6269 
10 1 6.98 5.23638 5.0546 
13 1 7.0397 3.93484 0.218645 
15 1 7.04993 5.20356 2.38845 
16 1 7.03944 6.43306 0.211606 
26 1 7.04227 5.18651 0.941615 
29 1 5.68143 5.23932 5.62958 
31 1 7.0556 5.2193 3.60814 
32 1 1.08812 5.23767 5.83219 
33 2 4.61755 5.24183 5.22205 
1 1 4.6258 5.23824 6.46136 
3 1 3.38254 5.21467 8.61956 
4 1 2.1457 5.23749 6.43748 
6 1 3.32147 5.18686 11.2869 