LAMMPS (3 Mar 2020)
Reading data file ...
  triclinic box = (0 0 0) to (13.552 11.7355 22.15) with tilt (-6.7755 0 0)
  2 by 2 by 2 MPI processor grid
  reading atoms ...
  161 atoms
  read_data CPU = 0.0123899 secs
WARNING: Using 'neigh_modify every 1 delay 0 check yes' setting during minimization (../min.cpp:190)
WARNING: Total cutoff < 2*bond cutoff. May need to use an increased neighbor list skin. (../pair_reaxc.cpp:413)
Neighbor list info ...
  update every 1 steps, delay 0 steps, check yes
  max neighbors/atom: 2000, page size: 100000
  master list distance cutoff = 9.5
  ghost atom cutoff = 9.5
  binsize = 4.75, bins = 5 3 5
  2 neighbor lists, perpetual/occasional/extra = 2 0 0
  (1) pair reax/c, perpetual
      attributes: half, newton off, ghost
      pair build: half/bin/newtoff/ghost
      stencil: half/ghost/bin/3d/newtoff
      bin: standard
  (2) fix qeq/reax, perpetual, copy from (1)
      attributes: half, newton off, ghost
      pair build: copy
      stencil: none
      bin: none
Setting up cg style minimization ...
  Unit style    : real
  Current step  : 0
Per MPI rank memory allocation (min/avg/max) = 22.39 | 23.31 | 24.23 Mbytes
Step Temp E_pair E_mol TotEng Press 
       0            0   -25460.657            0   -25460.657    88023.259 
     234            0   -29127.084            0   -29127.084    27683.024 
Loop time of 12.2511 on 8 procs for 234 steps with 161 atoms

99.3% CPU use with 8 MPI tasks x no OpenMP threads

Minimization stats:
  Stopping criterion = energy tolerance
  Energy initial, next-to-last, final = 
        -25460.6565773     -29127.0843844     -29127.0843849
  Force two-norm initial, final = 4597.17 376.719
  Force max component initial, final = 504.288 138.305
  Final line search alpha, max atom move = 6.78322e-05 0.00938155
  Iterations, force evaluations = 234 1538

MPI task timing breakdown:
Section |  min time  |  avg time  |  max time  |%varavg| %total
---------------------------------------------------------------
Pair    | 9.1873     | 9.6853     | 10.093     |  10.9 | 79.06
Neigh   | 0          | 0          | 0          |   0.0 |  0.00
Comm    | 0.069076   | 0.47577    | 0.97254    |  49.1 |  3.88
Output  | 0.00090533 | 0.0011468  | 0.0017477  |   0.7 |  0.01
Modify  | 2.071      | 2.0718     | 2.0729     |   0.0 | 16.91
Other   |            | 0.01704    |            |       |  0.14

Nlocal:    20.125 ave 33 max 4 min
Histogram: 2 0 1 0 1 0 0 1 0 3
Nghost:    836.875 ave 879 max 787 min
Histogram: 2 1 1 0 0 0 0 0 0 4
Neighs:    2755.38 ave 4436 max 590 min
Histogram: 2 0 0 1 1 0 0 0 1 3

Total # of neighbors = 22043
Ave neighs/atom = 136.913
Neighbor list builds = 0
Dangerous builds = 0
WARNING: Using 'neigh_modify every 1 delay 0 check yes' setting during minimization (../min.cpp:190)
WARNING: Total cutoff < 2*bond cutoff. May need to use an increased neighbor list skin. (../pair_reaxc.cpp:413)
Setting up cg style minimization ...
  Unit style    : real
  Current step  : 234
Per MPI rank memory allocation (min/avg/max) = 22.39 | 23.31 | 24.23 Mbytes
Step Temp E_pair E_mol TotEng Press 
     234            0   -29127.084            0   -29127.084    27683.024 
     386            0   -29141.014            0   -29141.014    32058.553 
Loop time of 9.59712 on 8 procs for 152 steps with 161 atoms

99.3% CPU use with 8 MPI tasks x no OpenMP threads

Minimization stats:
  Stopping criterion = energy tolerance
  Energy initial, next-to-last, final = 
        -29127.0843849     -29141.0135965     -29141.0138366
  Force two-norm initial, final = 376.719 26.9315
  Force max component initial, final = 138.305 7.05964
  Final line search alpha, max atom move = 0.00541263 0.0382112
  Iterations, force evaluations = 152 1171

MPI task timing breakdown:
Section |  min time  |  avg time  |  max time  |%varavg| %total
---------------------------------------------------------------
Pair    | 7.2824     | 7.6086     | 8.0092     |  10.1 | 79.28
Neigh   | 0          | 0          | 0          |   0.0 |  0.00
Comm    | 0.058193   | 0.45782    | 0.78335    |  41.0 |  4.77
Output  | 0.00058629 | 0.0007011  | 0.0010278  |   0.0 |  0.01
Modify  | 1.5166     | 1.5172     | 1.518      |   0.0 | 15.81
Other   |            | 0.01287    |            |       |  0.13

Nlocal:    20.125 ave 33 max 4 min
Histogram: 2 0 1 1 0 0 0 0 2 2
Nghost:    863.875 ave 910 max 814 min
Histogram: 2 2 0 0 0 0 0 0 1 3
Neighs:    2740.62 ave 4387 max 583 min
Histogram: 2 0 0 2 0 0 0 0 0 4

Total # of neighbors = 21925
Ave neighs/atom = 136.18
Neighbor list builds = 0
Dangerous builds = 0
WARNING: Using 'neigh_modify every 1 delay 0 check yes' setting during minimization (../min.cpp:190)
WARNING: Total cutoff < 2*bond cutoff. May need to use an increased neighbor list skin. (../pair_reaxc.cpp:413)
Setting up cg style minimization ...
  Unit style    : real
  Current step  : 386
WARNING: Energy due to 3 extra global DOFs will be included in minimizer energies
Per MPI rank memory allocation (min/avg/max) = 22.39 | 23.31 | 24.23 Mbytes
Step Temp E_pair E_mol TotEng Press Volume 
     386            0   -29141.014            0   -29141.014    32058.553    3522.7279 
     421            0   -29146.613            0   -29146.613   -4783.1043    3526.3208 
Loop time of 0.496226 on 8 procs for 35 steps with 161 atoms

99.4% CPU use with 8 MPI tasks x no OpenMP threads

Minimization stats:
  Stopping criterion = energy tolerance
  Energy initial, next-to-last, final = 
        -29141.0138366     -29146.6129808     -29146.6129808
  Force two-norm initial, final = 3546.94 665.796
  Force max component initial, final = 3027.17 445.433
  Final line search alpha, max atom move = 1.13114e-13 5.03848e-11
  Iterations, force evaluations = 35 65

MPI task timing breakdown:
Section |  min time  |  avg time  |  max time  |%varavg| %total
---------------------------------------------------------------
Pair    | 0.40691    | 0.42523    | 0.4439     |   2.3 | 85.69
Neigh   | 0          | 0          | 0          |   0.0 |  0.00
Comm    | 0.003183   | 0.021804   | 0.040126   |  10.0 |  4.39
Output  | 0.00014821 | 0.00017489 | 0.00024945 |   0.0 |  0.04
Modify  | 0.047041   | 0.047067   | 0.047103   |   0.0 |  9.49
Other   |            | 0.001948   |            |       |  0.39

Nlocal:    20.125 ave 33 max 4 min
Histogram: 2 0 1 1 0 0 0 0 1 3
Nghost:    863.875 ave 920 max 806 min
Histogram: 2 1 1 0 0 0 0 0 2 2
Neighs:    2735.12 ave 4405 max 583 min
Histogram: 2 0 1 1 0 0 0 0 1 3

Total # of neighbors = 21881
Ave neighs/atom = 135.907
Neighbor list builds = 0
Dangerous builds = 0
WARNING: Using 'neigh_modify every 1 delay 0 check yes' setting during minimization (../min.cpp:190)
WARNING: Total cutoff < 2*bond cutoff. May need to use an increased neighbor list skin. (../pair_reaxc.cpp:413)
Setting up cg style minimization ...
  Unit style    : real
  Current step  : 421
Per MPI rank memory allocation (min/avg/max) = 22.39 | 23.31 | 24.23 Mbytes
Step Temp E_pair E_mol TotEng Press 
     421            0   -29146.613            0   -29146.613   -4783.1043 
     456            0   -29149.229            0   -29149.229    28171.982 
Loop time of 2.35263 on 8 procs for 35 steps with 161 atoms

99.3% CPU use with 8 MPI tasks x no OpenMP threads

Minimization stats:
  Stopping criterion = energy tolerance
  Energy initial, next-to-last, final = 
        -29146.6129808     -29149.2293996     -29149.2294439
  Force two-norm initial, final = 407.327 62.5956
  Force max component initial, final = 47.2218 11.9696
  Final line search alpha, max atom move = 0.00120149 0.0143814
  Iterations, force evaluations = 35 285

MPI task timing breakdown:
Section |  min time  |  avg time  |  max time  |%varavg| %total
---------------------------------------------------------------
Pair    | 1.7633     | 1.8608     | 1.9527     |   5.3 | 79.09
Neigh   | 0          | 0          | 0          |   0.0 |  0.00
Comm    | 0.016409   | 0.10809    | 0.20557    |  21.9 |  4.59
Output  | 0.00011481 | 0.00013659 | 0.00020294 |   0.0 |  0.01
Modify  | 0.38032    | 0.38047    | 0.38067    |   0.0 | 16.17
Other   |            | 0.003164   |            |       |  0.13

Nlocal:    20.125 ave 33 max 4 min
Histogram: 2 0 1 1 0 0 0 0 1 3
Nghost:    864.875 ave 922 max 806 min
Histogram: 2 1 1 0 0 0 0 0 2 2
Neighs:    2730.88 ave 4395 max 581 min
Histogram: 2 0 0 2 0 0 0 0 1 3

Total # of neighbors = 21847
Ave neighs/atom = 135.696
Neighbor list builds = 0
Dangerous builds = 0
WARNING: Using 'neigh_modify every 1 delay 0 check yes' setting during minimization (../min.cpp:190)
WARNING: Total cutoff < 2*bond cutoff. May need to use an increased neighbor list skin. (../pair_reaxc.cpp:413)
Setting up cg style minimization ...
  Unit style    : real
  Current step  : 456
WARNING: Energy due to 3 extra global DOFs will be included in minimizer energies
Per MPI rank memory allocation (min/avg/max) = 22.39 | 23.31 | 24.23 Mbytes
Step Temp E_pair E_mol TotEng Press Volume 
     456            0   -29149.229            0   -29149.229    28171.982    3526.3208 
     519            0   -29158.522            0   -29158.522    790.75863    3532.0425 
Loop time of 0.86186 on 8 procs for 63 steps with 161 atoms

99.2% CPU use with 8 MPI tasks x no OpenMP threads

Minimization stats:
  Stopping criterion = energy tolerance
  Energy initial, next-to-last, final = 
        -29149.2294439     -29158.5220058     -29158.5220058
  Force two-norm initial, final = 3263.47 406.309
  Force max component initial, final = 2867.25 212.986
  Final line search alpha, max atom move = 1.10898e-13 2.36198e-11
  Iterations, force evaluations = 63 113

MPI task timing breakdown:
Section |  min time  |  avg time  |  max time  |%varavg| %total
---------------------------------------------------------------
Pair    | 0.69422    | 0.73187    | 0.76934    |   3.5 | 84.92
Neigh   | 0          | 0          | 0          |   0.0 |  0.00
Comm    | 0.0051838  | 0.04251    | 0.08018    |  14.7 |  4.93
Output  | 0.00022737 | 0.00027022 | 0.00039028 |   0.0 |  0.03
Modify  | 0.083737   | 0.083798   | 0.083888   |   0.0 |  9.72
Other   |            | 0.003412   |            |       |  0.40

Nlocal:    20.125 ave 34 max 4 min
Histogram: 2 0 1 1 0 0 0 0 2 2
Nghost:    864.875 ave 922 max 806 min
Histogram: 2 1 1 0 0 0 0 0 2 2
Neighs:    2729.12 ave 4512 max 580 min
Histogram: 2 0 1 1 0 0 0 1 1 2

Total # of neighbors = 21833
Ave neighs/atom = 135.609
Neighbor list builds = 0
Dangerous builds = 0
WARNING: Using 'neigh_modify every 1 delay 0 check yes' setting during minimization (../min.cpp:190)
WARNING: Total cutoff < 2*bond cutoff. May need to use an increased neighbor list skin. (../pair_reaxc.cpp:413)
Setting up cg style minimization ...
  Unit style    : real
  Current step  : 519
Per MPI rank memory allocation (min/avg/max) = 22.39 | 23.31 | 24.23 Mbytes
Step Temp E_pair E_mol TotEng Press 
     519            0   -29158.522            0   -29158.522    790.75863 
     562            0   -29162.176            0   -29162.176    30019.494 
Loop time of 2.78583 on 8 procs for 43 steps with 161 atoms

99.4% CPU use with 8 MPI tasks x no OpenMP threads

Minimization stats:
  Stopping criterion = energy tolerance
  Energy initial, next-to-last, final = 
        -29158.5220058     -29162.1755292     -29162.1755359
  Force two-norm initial, final = 326.583 36.2521
  Force max component initial, final = 40.7387 5.79843
  Final line search alpha, max atom move = 0.000134632 0.000780653
  Iterations, force evaluations = 43 339

MPI task timing breakdown:
Section |  min time  |  avg time  |  max time  |%varavg| %total
---------------------------------------------------------------
Pair    | 2.0864     | 2.2032     | 2.2963     |   5.3 | 79.08
Neigh   | 0          | 0          | 0          |   0.0 |  0.00
Comm    | 0.024197   | 0.11721    | 0.23381    |  22.8 |  4.21
Output  | 0.00019662 | 0.00023248 | 0.00033234 |   0.0 |  0.01
Modify  | 0.46126    | 0.46148    | 0.46173    |   0.0 | 16.57
Other   |            | 0.00374    |            |       |  0.13

Nlocal:    20.125 ave 34 max 4 min
Histogram: 2 0 1 1 0 0 0 0 2 2
Nghost:    864.875 ave 922 max 806 min
Histogram: 2 1 1 0 0 0 0 0 2 2
Neighs:    2723.12 ave 4503 max 576 min
Histogram: 2 0 1 1 0 0 0 1 1 2

Total # of neighbors = 21785
Ave neighs/atom = 135.311
Neighbor list builds = 0
Dangerous builds = 0
WARNING: Total cutoff < 2*bond cutoff. May need to use an increased neighbor list skin. (../pair_reaxc.cpp:413)
Setting up Verlet run ...
  Unit style    : real
  Current step  : 0
  Time step     : 0.25
Per MPI rank memory allocation (min/avg/max) = 21.28 | 22.2 | 23.12 Mbytes
Step Temp TotEng KinEng PotEng Press 
       0          300   -29019.097    143.07888   -29162.176    31871.244 
     200    362.38129   -29042.854    172.83037   -29215.685    15916.555 
     400     352.7725   -29092.346    168.24765   -29260.594    17482.223 
     600    286.42876   -29123.617    136.60635   -29260.224    8466.0331 
     800    290.46405   -29122.333    138.53091   -29260.864   -21167.319 
    1000    300.53885   -29105.875    143.33587   -29249.211    13883.039 
    1200    282.36795   -29100.521    134.66964    -29235.19    4964.5705 
    1400    317.05225   -29081.596    151.21161   -29232.807    29301.461 
    1600    335.11929   -29079.028    159.82831   -29238.856   -22619.238 
    1800    261.61847   -29073.594    124.77359   -29198.368   -177.82738 
    2000    334.72851   -29054.079    159.64193   -29213.721    16446.415 
    2200     284.9712   -29084.281     135.9112   -29220.192    22279.559 
    2400    318.54117   -29076.032    151.92171   -29227.954   -2998.4449 
    2600    308.94721   -29047.367    147.34607   -29194.713   -28021.155 
    2800    317.71135   -29051.181    151.52595   -29202.707    16841.136 
    3000     284.7014   -29074.743    135.78253   -29210.525    37046.298 
    3200    278.52296    -29067.35    132.83585   -29200.186   -4689.1278 
    3400    298.46946   -29046.216    142.34892   -29188.565   -11155.559 
    3600    333.30498   -29034.741    158.96301   -29193.704    23319.271 
    3800    271.42287   -29072.711     129.4496    -29202.16    10683.382 
    4000    268.87229   -29048.612    128.23316   -29176.845   -5130.7944 
    4200    315.11432   -29048.261    150.28735   -29198.549   -3687.2742 
    4400    293.81982    -29061.38    140.13137   -29201.512    4089.8264 
    4600    307.69636   -29062.751     146.7495   -29209.501   -6943.6734 
    4800    275.07253   -29090.773    131.19023   -29221.963   -17732.968 
    5000    290.70203   -29081.382     138.6444   -29220.027    15071.828 
    5200    313.36261    -29074.41    149.45191   -29223.862    18700.674 
    5400     289.3834   -29089.874    138.01551   -29227.889   -6873.0138 
    5600    301.82109   -29094.818    143.94741   -29238.765   -6903.6117 
    5800    320.08162   -29075.811     152.6564   -29228.467    4561.4616 
    6000    292.02746   -29100.089    139.27654   -29239.366   -25433.546 
    6200    288.14105   -29090.045      137.423   -29227.468   -4215.0208 
    6400    343.54521   -29061.008    163.84688   -29224.855    8482.4336 
    6600    303.94736   -29109.609    144.96149    -29254.57    22634.716 
    6800    272.11021   -29121.975    129.77742   -29251.753     42663.04 
    7000    304.98748   -29090.711    145.45756   -29236.169   -576.36968 
    7200     319.8188   -29105.661    152.53105   -29258.192    27685.409 
    7400    260.94078   -29100.232    124.45038   -29224.683   -33359.865 
    7600    310.59466   -29080.424    148.13179   -29228.556   -2241.8941 
    7800    303.20771   -29078.547    144.60874   -29223.156   -32340.022 
    8000    293.53843   -29115.931    139.99717   -29255.928    12376.485 
    8200    315.21586   -29100.261    150.33578   -29250.597    39539.371 
    8400    320.83956   -29094.139    153.01789   -29247.157    3548.8976 
    8600     269.0002    -29124.11    128.29416   -29252.405     42092.51 
    8800    325.33492   -29098.683    155.16186   -29253.845   -9481.0404 
    9000    266.36764   -29113.846    127.03861   -29240.884   -45182.479 
    9200    273.37091   -29109.121    130.37868     -29239.5   -5216.7573 
    9400    291.61399   -29094.294    139.07935   -29233.373    3395.5031 
    9600    308.82379   -29095.498    147.28721   -29242.785   -6165.7708 
    9800    296.60694   -29119.943    141.46063   -29261.404   -24582.565 
   10000    311.13259    -29085.54    148.38834   -29233.929     938.9833 
   10200    307.32298   -29096.055    146.57143   -29242.626    38222.021 
   10400    284.64742   -29099.632    135.75678   -29235.389    21262.991 
   10600    318.42551   -29074.886    151.86655   -29226.753   -1390.7091 
   10800    298.70511   -29101.843    142.46131   -29244.304    6173.0568 
   11000    280.42884   -29088.913    133.74482   -29222.658    18015.593 
   11200    310.70866    -29070.86    148.18616   -29219.046   -9886.0935 
   11400    338.42786    -29070.73    161.40627   -29232.136    11340.422 
   11600    290.29501   -29098.505    138.45029   -29236.955    5795.6807 
   11800    315.56726    -29077.91    150.50337   -29228.413   -16731.217 
   12000    314.92015   -29076.322    150.19475   -29226.517    -21539.59 
   12200    299.01953   -29083.768    142.61127   -29226.379   -30606.856 
   12400    322.54693   -29077.333    153.83218   -29231.166   -43060.805 
   12600    289.58292   -29102.543    138.11067   -29240.654   -11309.568 
   12800    324.36467   -29088.169    154.69911   -29242.868    8678.6876 
   13000    302.22867   -29077.673     144.1418   -29221.814   -5780.0996 
   13200    286.69241   -29099.654     136.7321   -29236.386    24130.811 
   13400    247.82282   -29118.859    118.19404   -29237.053    4591.3122 
   13600    325.06721    -29084.09    155.03418   -29239.124    46919.589 
   13800    297.10204   -29091.018    141.69676   -29232.715    18430.988 
   14000    265.19428   -29107.841      126.479    -29234.32    8342.6301 
   14200    320.54482   -29073.592    152.87731   -29226.469    4597.9099 
   14400    284.88086   -29089.451    135.86812   -29225.319    49924.114 
   14600    275.05484   -29121.675     131.1818   -29252.857    9132.3487 
   14800    313.26877   -29087.492    149.40715   -29236.899   -999.64902 
   15000    302.09191   -29088.568    144.07658   -29232.645    14179.636 
   15200    289.97758   -29097.944    138.29889   -29236.243    8415.2783 
   15400    302.05491   -29084.119    144.05893   -29228.178    10757.108 
   15600    322.23364   -29078.452    153.68277   -29232.135   -7408.5755 
   15800    283.88549    -29106.92     135.3934   -29242.313   -16391.376 
   16000    325.35367   -29084.059     155.1708    -29239.23    22999.601 
   16200    328.64533   -29072.163    156.74069   -29228.904    1759.3092 
   16400    284.32666   -29101.197     135.6038   -29236.801      16756.2 
   16600    285.25608   -29103.318    136.04707   -29239.365    47350.434 
   16800    279.60831    -29090.38    133.35348   -29223.734   -7753.8801 
   17000    320.56383   -29085.928    152.88638   -29238.814   -2452.9895 
   17200    286.12134   -29111.881    136.45974    -29248.34   -23891.123 
   17400    311.35322   -29087.062    148.49357   -29235.556   -11258.006 
   17600    309.18562   -29087.793    147.45978   -29235.253   -2317.4144 
   17800    303.15157    -29096.12    144.58196   -29240.702    1721.2142 
   18000    304.96751    -29095.22    145.44804   -29240.668   -19011.817 
   18200    359.64721   -29072.235     171.5264   -29243.761   -2759.0885 
   18400    297.06716   -29101.437    141.68012   -29243.118    2078.5187 
   18600    324.42318   -29088.327    154.72702   -29243.054    5662.9308 
   18800    343.55905   -29066.801    163.85348   -29230.654   -4256.7117 
   19000    269.94804   -29102.605    128.74622   -29231.351    17590.895 
   19200    343.75629   -29078.135    163.94755   -29242.083     1006.913 
   19400    294.45588   -29085.795    140.43473    -29226.23   -996.39771 
   19600    303.61918   -29087.749    144.80497   -29232.554   -12408.516 
   19800    322.71782   -29072.021    153.91368   -29225.934    12330.897 
   20000    317.16062   -29082.618    151.26329   -29233.881    1001.6947 
   20200    286.15853   -29091.189    136.47748   -29227.667    729.67119 
   20400    289.46622   -29073.266    138.05501   -29211.321   -23666.431 
   20600    291.91974   -29097.399    139.22517   -29236.624   -2994.2562 
   20800     318.5735   -29076.091    151.93713   -29228.028   -10530.691 
   21000    291.77551   -29092.831    139.15638   -29231.987   -16796.986 
   21200    277.63624   -29097.073    132.41295   -29229.486   -21971.753 
   21400    285.58373   -29083.197    136.20334   -29219.401   -7513.6145 
   21600    319.76883   -29085.639    152.50722   -29238.146    10455.356 
   21800    247.76067   -29112.841     118.1644   -29231.006   -1013.1175 
   22000    317.09256   -29084.717    151.23083   -29235.948    26025.762 
   22200    295.36347   -29084.614    140.86758   -29225.481    14349.404 
   22400    263.35998    -29110.18    125.60417   -29235.784   -11877.147 
   22600    313.65931   -29076.632    149.59341   -29226.226   -28094.289 
   22800    313.53004   -29093.151    149.53176   -29242.683    24005.317 
   23000    286.48355   -29098.576    136.63249   -29235.209   -2941.2114 
   23200    320.77807   -29060.818    152.98856   -29213.806    20515.916 
   23400    305.41914   -29095.612    145.66343   -29241.276    463.52826 
   23600    280.33256   -29103.301     133.6989       -29237    781.74854 
   23800    301.69437    -29076.39    143.88698   -29220.277     553.1689 
   24000    285.99015   -29102.801    136.39717   -29239.199   -18854.473 
   24200     301.3021   -29088.423    143.69989   -29232.122    8120.2474 
   24400    301.83855   -29111.188    143.95574   -29255.143    21217.706 
   24600    285.33553   -29108.637    136.08496   -29244.722   -7014.7671 
   24800    326.30019   -29090.946    155.62222   -29246.568    25216.138 
   25000    308.46462   -29112.638    147.11591   -29259.754    35382.372 
   25200    298.45744   -29112.493    142.34319   -29254.837     -27575.5 
   25400    313.79743   -29095.132    149.65928   -29244.792   -30506.533 
   25600    276.87322   -29115.985    132.04903   -29248.034   -1900.5926 
   25800    275.94487   -29104.485    131.60628   -29236.091    19304.423 
   26000    289.56939   -29092.543    138.10422   -29230.647   -33714.987 
   26200    275.06683   -29113.143    131.18752   -29244.331   -42961.789 
   26400    309.79837   -29087.917    147.75201   -29235.669       -60082 
   26600    321.30384   -29096.777    153.23932   -29250.017    45757.152 
   26800    280.97604   -29108.575    134.00579   -29242.581     10586.02 
   27000    307.99951   -29096.794    146.89408   -29243.688    17176.836 
   27200    308.03098   -29099.541    146.90909    -29246.45    28840.074 
   27400    274.78319   -29115.752    131.05224   -29246.804   -29963.637 
   27600     294.8973   -29087.698    140.64526   -29228.343    9383.7348 
   27800    309.26013   -29083.308    147.49531   -29230.804    16045.578 
   28000    266.96554   -29112.421    127.32377   -29239.745   -5208.9163 
   28200    317.70741   -29084.621    151.52407   -29236.145    -27935.93 
   28400    307.12102   -29086.865    146.47511    -29233.34     677.6027 
   28600    299.48848   -29103.691    142.83492   -29246.526    41347.404 
   28800    274.52805   -29128.685    130.93056   -29259.616   -29118.215 
   29000    286.07084   -29097.446    136.43566   -29233.882    -1657.313 
   29200    323.09453   -29082.089    154.09335   -29236.182   -21997.959 
   29400    265.90101   -29113.696    126.81607   -29240.513   -9974.7249 
   29600    305.94235   -29093.885    145.91297   -29239.798    6799.5477 
   29800    299.83901   -29091.615     143.0021   -29234.617    34972.466 
   30000    284.72966   -29121.889      135.796   -29257.685    1969.0118 
   30200    313.40508   -29095.399    149.47216   -29244.871    15552.028 
   30400    316.24666   -29093.702     150.8274   -29244.529   -11339.881 
   30600    283.07657   -29115.734     135.0076   -29250.742   -5575.8654 
   30800    332.08831   -29081.095    158.38275   -29239.478     3289.869 
   31000    301.72046   -29101.004    143.89942   -29244.904   -5826.7879 
   31200    302.91848    -29111.15    144.47079    -29255.62    9012.7245 
   31400    280.61074   -29106.041    133.83157   -29239.872   -9458.5249 
   31600    300.25041    -29106.99    143.19831   -29250.188    8607.1602 
   31800    301.75759   -29110.429    143.91713   -29254.346   -19854.438 
   32000    303.41993   -29087.252    144.70995   -29231.962   -19801.668 
   32200    291.51103   -29107.809    139.03024    -29246.84   -20648.257 
   32400    293.27828   -29113.496    139.87309    -29253.37   -35405.594 
   32600    321.86409   -29087.732    153.50651   -29241.239    8393.4221 
   32800    283.67927   -29103.146    135.29504   -29238.441   -15596.571 
   33000    288.72119   -29115.208    137.69968   -29252.907   -6397.6915 
   33200    306.60423   -29088.204    146.22864   -29234.433    30838.985 
   33400    298.83564   -29108.431    142.52356   -29250.955    28926.484 
   33600    298.08333   -29113.045    142.16477    -29255.21    9725.5998 
   33800     308.7797   -29094.198    147.26618   -29241.464   -17390.574 
   34000    312.90136   -29081.657    149.23193   -29230.888    12443.961 
   34200    268.41203     -29113.7    128.01365   -29241.713   -26657.308 
   34400    286.52941   -29094.516    136.65436   -29231.171   -20265.227 
   34600    289.90182   -29090.718    138.26276   -29228.981    3235.4165 
   34800    291.37235   -29086.218     138.9641   -29225.182   -16707.188 
   35000    314.03925   -29064.255    149.77462   -29214.029    10235.383 
   35200    281.42858   -29092.821    134.22162   -29227.042   -21479.847 
   35400    314.74908   -29091.295    150.11316   -29241.408      20215.2 
   35600    302.00201   -29078.597     144.0337   -29222.631   -10717.699 
   35800    293.77382   -29070.051    140.10943    -29210.16   -18545.615 
   36000    334.39111   -29058.998    159.48102   -29218.479   -3673.8653 
   36200     281.6919   -29088.733    134.34721    -29223.08   -1417.7288 
   36400    272.24688   -29082.156     129.8426   -29211.999    -6536.861 
   36600    348.39857   -29055.181    166.16159   -29221.343   -16421.146 
   36800    293.77794   -29080.466     140.1114   -29220.578    27135.742 
   37000    288.30495   -29075.182    137.50116   -29212.684    -11080.21 
   37200    290.02758   -29089.331    138.32274   -29227.654    10508.176 
   37400    305.86915   -29100.913    145.87806   -29246.791    32248.426 
   37600    304.37309   -29074.217    145.16454   -29219.382   -21729.877 
   37800    314.59869   -29082.666    150.04143   -29232.707    10369.114 
   38000     281.3905   -29103.652    134.20346   -29237.855   -2763.4149 
   38200    295.98665   -29101.019     141.1648   -29242.184    1227.2612 
   38400     332.3695   -29077.927    158.51686   -29236.444   -6737.8475 
   38600    266.50616   -29100.999    127.10468   -29228.104   -26799.653 
   38800    290.91133   -29096.083    138.74423   -29234.827   -5667.5955 
   39000    337.43911   -29076.376     160.9347   -29237.311   -11113.071 
   39200    294.03939   -29102.577    140.23609   -29242.813   -3102.1642 
   39400    279.20616   -29074.435    133.16168   -29207.596    152.62096 
   39600    289.02959   -29072.895    137.84677   -29210.742   -23682.313 
   39800    312.44404   -29092.143    149.01381   -29241.157    1225.9205 
   40000    346.10602   -29075.234    165.06821   -29240.302   -9775.8826 
   40200    300.97717   -29081.156    143.54492   -29224.701   -6787.7845 
   40400    278.88158   -29091.901    133.00688   -29224.908    4519.0727 
   40600    315.64886   -29072.149    150.54229   -29222.691     4119.787 
   40800    301.40648   -29083.668    143.74967   -29227.418   -34672.901 
   41000     273.9768   -29079.183    130.66765   -29209.851    8583.8825 
   41200    336.41042   -29066.563    160.44409   -29227.007   -13902.555 
   41400    280.39858   -29093.226    133.73039   -29226.956    693.86047 
   41600    334.42631   -29063.535    159.49781   -29223.032    29199.801 
   41800    286.38908   -29084.606    136.58743   -29221.194   -11612.337 
   42000    304.02956   -29097.689     145.0007    -29242.69    9857.5225 
   42200    312.85695   -29064.964    149.21074   -29214.175    -35898.66 
   42400    273.45316   -29086.471    130.41791   -29216.889   -1281.1024 
   42600    272.30511   -29092.068    129.87037   -29221.939    19889.835 
   42800    312.66003    -29066.06    149.11682   -29215.177    4802.3626 
   43000    315.50519   -29092.422    150.47377   -29242.896     19536.41 
   43200    300.80532   -29102.391    143.46296   -29245.854   -38338.005 
   43400    329.84263   -29078.046    157.31172   -29235.358     12361.73 
   43600    273.84722   -29105.841    130.60585   -29236.447    3616.7413 
   43800    307.86406    -29102.43    146.82949    -29249.26   -3581.0958 
   44000    331.33201   -29084.968    158.02205    -29242.99   -14737.844 
   44200    272.11422   -29121.161    129.77933    -29250.94   -21920.022 
   44400      289.278   -29089.866    137.96525   -29227.831     191.2652 
   44600    275.33369   -29069.253    131.31479   -29200.568    28945.358 
   44800    310.34958   -29091.707     148.0149   -29239.722   -24282.894 
   45000    303.76512   -29102.429    144.87458   -29247.304   -4100.7085 
   45200    311.84165   -29082.571    148.72651   -29231.298   -3751.1988 
   45400    293.58778   -29101.655    140.02071   -29241.675   -29716.388 
   45600    295.37632   -29101.317    140.87371   -29242.191    9715.4936 
   45800     317.3061   -29084.818    151.33267    -29236.15    12322.656 
   46000    297.74855   -29094.656     142.0051   -29236.662   -18512.799 
   46200    295.90257   -29091.708     141.1247   -29232.833    14184.822 
   46400    316.47881   -29075.916    150.93812   -29226.854    19594.387 
   46600    292.31562   -29103.298    139.41397   -29242.712   -9453.8498 
   46800    324.03121   -29079.576    154.54008   -29234.116    19486.286 
   47000    327.45767   -29077.908    156.17426   -29234.082    -1554.767 
   47200    293.20067   -29085.212    139.83608   -29225.048   -24913.854 
   47400    319.01059   -29061.963     152.1456   -29214.108   -15397.228 
   47600    295.97528    -29090.15    141.15938   -29231.309    47528.939 
   47800     294.3482   -29078.847    140.38337    -29219.23    35294.747 
   48000    323.22725   -29080.186    154.15664   -29234.343    14027.058 
   48200    270.52309   -29110.458    129.02047   -29239.478    8741.3404 
   48400    309.22991   -29078.616     147.4809   -29226.097    2146.4824 
   48600    308.13048   -29089.144    146.95655     -29236.1   -34880.911 
   48800    306.96957   -29101.411    146.40288   -29247.814    282.06161 
   49000    288.22751   -29082.762    137.46423   -29220.226   -14157.903 
   49200    339.95637   -29078.384    162.13526    -29240.52    14136.907 
   49400    297.36785   -29085.365    141.82353   -29227.189   -11854.463 
   49600    309.20795   -29085.785    147.47043   -29233.256   -6481.0111 
   49800    309.63097   -29092.433    147.67218   -29240.105   -40573.217 
   50000    271.31988   -29122.885    129.40048   -29252.286    -27151.77 
   50200    295.77172   -29089.684    141.06229   -29230.746   -5424.4494 
   50400    310.79793   -29083.118    148.22874   -29231.347   -728.51523 
   50600    301.82817   -29071.943    143.95079   -29215.894    19543.092 
   50800    316.76811   -29071.637    151.07609   -29222.713    19360.027 
   51000    273.02434   -29094.636    130.21339    -29224.85    20842.115 
   51200    310.97304   -29061.364    148.31225   -29209.676   -31281.145 
   51400    277.32696   -29073.983    132.26544   -29206.249    34017.224 
   51600    290.30761   -29090.685    138.45629   -29229.142   -4252.1614 
   51800    238.00282    -29103.34    113.51059    -29216.85   -14719.755 
   52000    292.30477    -29069.95     139.4088   -29209.358   -28685.033 
   52200    297.44702   -29086.387    141.86129   -29228.248    -16711.55 
   52400    288.09264   -29101.853    137.39991   -29239.253    55588.772 
   52600    296.18564   -29094.682     141.2597   -29235.942    3213.9395 
   52800    344.01917   -29075.233    164.07293   -29239.306    -15769.28 
   53000    316.67875   -29080.488    151.03347   -29231.521    3667.1819 
   53200    278.73259   -29101.293    132.93582   -29234.229    22223.783 
   53400    308.84299    -29073.76    147.29637   -29221.056      21083.7 
   53600    290.34252   -29095.011    138.47294   -29233.484   -11997.892 
   53800    280.91729   -29096.026    133.97777   -29230.004   -8485.7308 
   54000    296.35225   -29087.536    141.33916   -29228.875    39604.605 
   54200    291.30032   -29114.847    138.92975   -29253.777   -56025.816 
   54400    318.39536   -29090.747    151.85218   -29242.599    36234.269 
   54600     307.4216   -29098.604    146.61846   -29245.222    20723.679 
   54800    302.26961   -29092.456    144.16133   -29236.617   -2693.7982 
   55000    335.08541   -29073.602    159.81215   -29233.414   -16221.357 
   55200    296.99219   -29103.072    141.64437   -29244.717    38724.748 
   55400    299.75825   -29084.702    142.96358   -29227.665    25023.664 
   55600    323.78033   -29072.848    154.42043   -29227.268   -6672.5273 
   55800    303.04081   -29106.228    144.52913   -29250.757    3405.6711 
   56000     331.9418    -29082.88    158.31287   -29241.193   -27701.137 
   56200    308.46933   -29081.952    147.11816    -29229.07    9788.5416 
   56400      273.909   -29104.588    130.63531   -29235.223    22031.419 
   56600    321.11248    -29086.58    153.14805   -29239.728   -12581.804 
   56800    297.14721   -29102.857     141.7183   -29244.576   -6366.8534 
   57000    285.15829   -29107.378    136.00043   -29243.378   -13263.621 
   57200    306.67316   -29084.752    146.26151   -29231.014     16634.11 
   57400    301.66032   -29099.088    143.87074   -29242.959   -13349.561 
   57600    271.84522   -29118.581    129.65104   -29248.232   -20539.362 
   57800     278.1631   -29092.239    132.66422   -29224.903   -47072.067 
   58000     318.1744   -29077.314    151.74679   -29229.061    28596.964 
   58200    282.00855   -29103.233    134.49823   -29237.731    39306.305 
   58400    294.09804   -29087.018    140.26406   -29227.282   -2203.6196 
   58600    298.47984   -29075.152    142.35387   -29217.506   -10035.728 
   58800    296.92162   -29099.288    141.61071   -29240.899   -13063.939 
   59000    280.09327   -29105.382    133.58477   -29238.967    47085.982 
   59200     293.8968   -29082.338    140.16809   -29222.506    40803.914 
   59400    319.50638   -29082.327    152.38205    -29234.71    -398.9843 
   59600    265.74254   -29110.816    126.74049   -29237.557   -1364.4666 
   59800    307.34042   -29081.532    146.57974   -29228.112   -8914.7344 
   60000    288.11752   -29088.894    137.41178   -29226.306    39756.444 
   60200    248.25241     -29105.8    118.39892   -29224.199    13574.159 
   60400    301.37954    -29071.51    143.73682   -29215.246    422.53022 
   60600    308.03877   -29086.733    146.91281   -29233.646   -2999.5868 
   60800    278.92724   -29117.202    133.02866   -29250.231    35798.094 
   61000    289.63472   -29104.458    138.13538   -29242.593    -21947.85 
   61200    318.77225   -29073.055    152.03193   -29225.087   -5464.2192 
   61400    289.89893   -29091.095    138.26138   -29229.357   -21200.744 
   61600    307.22397    -29098.86    146.52421   -29245.384   -28965.323 
   61800     300.4938   -29083.748    143.31439   -29227.063   -3580.6216 
   62000    314.72553   -29094.808    150.10193    -29244.91    2959.7909 
   62200     270.7558   -29123.702    129.13146   -29252.833    19324.753 
   62400    301.88881   -29092.852    143.97971   -29236.832    25613.807 
   62600    292.38246   -29082.282    139.44585   -29221.728    6272.9892 
   62800    288.26315   -29097.021    137.48123   -29234.502    1730.7213 
   63000    287.84185    -29103.36     137.2803    -29240.64      13419.3 
   63200    321.55028   -29079.756    153.35685   -29233.113   -11097.439 
   63400    329.72784   -29098.696    157.25697   -29255.953    23076.434 
   63600    304.00504   -29074.628      144.989   -29219.617   -6372.7901 
   63800    308.57143   -29089.129    147.16685   -29236.295   -50083.795 
   64000    269.62533   -29099.172     128.5923   -29227.764    11415.685 
   64200    323.54013   -29071.656    154.30587   -29225.962    -34351.19 
   64400     293.3853   -29085.455    139.92414   -29225.379    26864.956 
   64600    294.77554   -29100.411    140.58718   -29240.999   -2204.2822 
   64800    317.12741   -29075.497    151.24745   -29226.744   -9595.8285 
   65000    280.58133   -29096.126    133.81754   -29229.943   -23556.435 
   65200    302.35264   -29100.236    144.20093   -29244.437    21020.726 
   65400     316.5117   -29073.896     150.9538   -29224.849   -30241.188 
   65600    294.47516   -29098.692    140.44392   -29239.136     13279.67 
   65800    278.93413   -29096.238    133.03194    -29229.27    14557.184 
   66000    312.49825   -29079.493    149.03967   -29228.533    24729.845 
   66200    269.42161   -29100.604    128.49514   -29229.099    2293.8762 
   66400    284.10107   -29089.374    135.49621    -29224.87    19485.291 
   66600    335.65052   -29079.748    160.08167    -29239.83   -8597.9148 
   66800    275.88445   -29100.967    131.57746   -29232.545    5423.1703 
   67000     322.7462   -29069.615    153.92722   -29223.542   -14673.024 
   67200     282.6167   -29086.658    134.78827   -29221.447   -6964.7202 
   67400    278.31577   -29090.046    132.73703   -29222.783     10294.11 
   67600    292.00742    -29085.26    139.26698   -29224.527     29608.18 
   67800    288.23259   -29084.488    137.46666   -29221.954   -14060.868 
   68000    333.47929   -29065.683    159.04615   -29224.729    13002.341 
   68200    279.38009   -29096.707    133.24463   -29229.952   -10603.573 
   68400    303.48157   -29091.375    144.73935   -29236.115    50659.326 
   68600    326.38256   -29061.146    155.66151   -29216.808   -27903.258 
   68800    268.50944   -29100.469     128.0601   -29228.529   -25529.184 
   69000    329.59261   -29086.369    157.19247   -29243.561   -33839.325 
   69200    312.92205   -29083.281    149.24179   -29232.523    1321.4913 
   69400    276.44015   -29109.157    131.84249       -29241   -41886.631 
   69600    313.93806   -29088.664    149.72636   -29238.391    33888.719 
   69800    304.13354   -29092.907    145.05029   -29237.958     33861.14 
   70000    270.16162   -29100.382    128.84808   -29229.231    23701.929 
   70200    311.78905   -29073.111    148.70143   -29221.812    18678.265 
   70400    288.28736   -29101.624    137.49278   -29239.117    37450.215 
   70600    291.58352   -29094.226    139.06481   -29233.291   -41534.371 
   70800    319.53609   -29086.211    152.39622   -29238.607   -3238.6238 
   71000    258.04022   -29117.702    123.06702   -29240.769   -26714.997 
   71200     307.5081     -29095.9    146.65972   -29242.559    50509.485 
   71400    327.28744   -29092.737    156.09307    -29248.83   -41173.548 
   71600    268.30114   -29123.793    127.96076   -29251.754   -18546.684 
   71800    299.50583   -29107.274     142.8432   -29250.117    23266.656 
   72000    319.15676   -29088.465    152.21531   -29240.681    13025.167 
   72200    273.30659   -29113.604    130.34801   -29243.952   -36147.365 
   72400    336.66181   -29081.278    160.56398   -29241.842   -8562.6361 
   72600     298.8863   -29092.319    142.54772   -29234.866   -22114.092 
   72800    293.88137   -29105.872    140.16073   -29246.032   -8939.3617 
   73000    322.29349   -29072.263    153.71131   -29225.974    21686.734 
   73200    302.32188   -29100.012    144.18626   -29244.199   -20310.734 
   73400    300.75743   -29106.752    143.44012   -29250.192   -44052.933 
   73600    329.49875   -29076.512    157.14771    -29233.66   -18776.356 
   73800    314.22382   -29091.518    149.86264   -29241.381   -40634.618 
   74000    286.38599   -29104.157    136.58596   -29240.743    12713.635 
   74200    296.89295   -29100.214    141.59704   -29241.811    26975.393 
   74400    302.61261   -29096.128    144.32491   -29240.453   -3445.4717 
   74600    264.74346   -29119.748    126.26399   -29246.012     5756.569 
   74800    313.15875   -29083.259    149.35468   -29232.614    30422.158 
   75000    294.10073   -29097.462    140.26535   -29237.727    -5983.476 
   75200    291.08395   -29104.233    138.82655   -29243.059    4462.4232 
   75400    324.43591   -29079.096    154.73309   -29233.829    13378.253 
   75600    294.10078   -29100.696    140.26537   -29240.961     -26915.4 
   75800    311.23888   -29102.882    148.43904   -29251.321    45427.016 
   76000    302.25234   -29089.092    144.15309   -29233.245   -734.60057 
   76200    305.00627    -29089.85    145.46652   -29235.317   -49997.586 
   76400    324.99602   -29054.648    155.00023   -29209.648   -8714.4106 
   76600    340.40548   -29085.245    162.34945   -29247.595   -7518.9955 
   76800    271.48413   -29101.738    129.47882   -29231.217   -6220.8695 
   77000    302.81928   -29071.124    144.42348   -29215.548    13650.949 
   77200    336.73111   -29079.704    160.59704   -29240.301   -13025.012 
   77400    272.82275   -29117.967    130.11725   -29248.084   -1179.4093 
   77600    288.62864   -29096.714    137.65554   -29234.369   -28300.319 
   77800    310.61535   -29075.945    148.14166   -29224.087      22836.7 
   78000    264.81984    -29101.77    126.30042   -29228.071    11146.517 
   78200    312.19113   -29081.745    148.89319   -29230.638    45040.436 
   78400    305.81164   -29075.751    145.85062   -29221.602   -46597.527 
   78600    287.98668   -29101.182    137.34938   -29238.532    42330.825 
   78800    303.56418   -29077.503    144.77875   -29222.282    42684.636 
   79000    279.76205   -29081.531     133.4268   -29214.958   -62241.885 
   79200    252.04835    -29090.37    120.20932   -29210.579    73653.228 
   79400    332.89572   -29057.119    158.76782   -29215.887   -15631.711 
   79600    294.36883   -29086.219    140.39321   -29226.612   -9425.6036 
   79800    311.58827   -29080.427    148.60567   -29229.033   -5946.4548 
   80000    293.08472   -29072.251    139.78078   -29212.032    39302.642 
   80200    291.93483   -29080.197    139.23236   -29219.429   -19011.205 
   80400    325.13656   -29076.655    155.06725   -29231.723    2130.6284 
   80600    312.94825   -29074.635    149.25429   -29223.889   -24804.103 
   80800     291.5857   -29101.912    139.06585   -29240.978   -5578.8518 
   81000    321.99978   -29074.669    153.57123   -29228.241    37754.616 
   81200    315.74292   -29077.655    150.58715   -29228.242   -24215.586 
   81400    285.51906   -29097.426    136.17249   -29233.598     34644.68 
   81600    312.40904   -29068.316    148.99712   -29217.313    47793.058 
   81800    282.69837   -29090.025    134.82722   -29224.853   -4052.8566 
   82000    300.21675   -29088.974    143.18226   -29232.157    3501.7739 
   82200    327.96661   -29070.089    156.41699   -29226.506   -33987.837 
   82400    304.76819   -29099.091    145.35297   -29244.444    -34255.73 
   82600    288.25608   -29097.753    137.47786   -29235.231   -4739.3607 
   82800    326.50742   -29077.465    155.72106   -29233.186   -8124.3201 
   83000     296.1373   -29112.517    141.23665   -29253.754   -27939.351 
   83200    329.04887   -29087.329    156.93315   -29244.263     23471.38 
   83400    312.25412   -29084.751    148.92324   -29233.675   -31073.678 
   83600    304.90497   -29120.998    145.41821   -29266.416    11330.087 
   83800     293.5479   -29093.365    140.00169   -29233.366    5083.4521 
   84000    324.88016   -29081.156    154.94497   -29236.101    34369.292 
   84200    263.16394   -29110.465    125.51067   -29235.976    31295.132 
   84400    313.06293   -29087.571    149.30898    -29236.88    5343.5651 
   84600    299.82919   -29090.898    142.99742   -29233.895    14073.505 
   84800    307.03035   -29098.173    146.43187   -29244.605    20440.063 
   85000     328.2417   -29078.056    156.54818   -29234.604    29699.689 
   85200    267.37999   -29106.355    127.52143   -29233.877   -4039.4448 
   85400     296.6514   -29097.123    141.48184   -29238.605    2412.7175 
   85600    275.15258   -29086.948    131.22841   -29218.176    14961.409 
   85800    318.28737   -29082.199    151.80067   -29233.999    25893.199 
   86000    300.71177   -29090.495    143.41835   -29233.913     14488.22 
   86200    298.31094   -29096.883    142.27332   -29239.156   -49026.115 
   86400    315.51035   -29063.992    150.47623   -29214.468   -12533.131 
   86600    305.95349   -29083.068    145.91828   -29228.986    -9755.357 
   86800    275.08064     -29086.2     131.1941   -29217.394   -8217.6808 
   87000    305.78163   -29067.841    145.83631   -29213.677    15728.475 
   87200    301.63309   -29072.977    143.85775   -29216.834   -21047.853 
   87400    311.34016   -29097.863    148.48734    -29246.35   -21993.497 
   87600    308.15216   -29066.215    146.96689   -29213.182    27293.068 
   87800    296.93814   -29076.171    141.61859    -29217.79    14610.782 
   88000    299.86599   -29091.649    143.01497   -29234.664   -32293.743 
   88200    286.89529   -29107.178    136.82886   -29244.007   -10781.426 
   88400    272.57901   -29109.647      130.001   -29239.648   -20423.401 
   88600    322.60095   -29084.651    153.85794   -29238.509   -35487.924 
   88800    294.81845   -29110.929    140.60765   -29251.537   -15665.148 
   89000    268.65089   -29089.929    128.12756   -29218.057   -8143.8037 
   89200    315.13499     -29070.2    150.29721   -29220.498   -27851.123 
   89400    307.21741   -29091.455    146.52108   -29237.976    13973.124 
   89600    274.95252   -29096.212      131.133   -29227.345   -10110.047 
   89800    324.65478   -29069.595    154.83748   -29224.433    7986.1945 
   90000    306.87228   -29094.368    146.35647   -29240.725    22471.222 
   90200    297.14986   -29084.567    141.71957   -29226.286     4457.457 
   90400    289.19253   -29074.855    137.92448    -29212.78    1020.5057 
   90600    260.99111   -29096.123    124.47439   -29220.597   -6007.5027 
   90800    376.48554   -29061.424     179.5571   -29240.981    6371.4215 
   91000    301.85277   -29082.193    143.96252   -29226.156   -1608.3147 
   91200    308.32873   -29080.418     147.0511   -29227.469    26098.354 
   91400    347.62938   -29045.957    165.79475   -29211.752   -35046.284 
   91600    310.29884   -29073.973     147.9907   -29221.964   -1576.0789 
   91800    271.45727   -29094.902    129.46601   -29224.368    7219.2829 
   92000    317.88046   -29075.425    151.60661   -29227.032    25999.189 
   92200    329.50113   -29091.803    157.14884   -29248.952   -57404.229 
   92400    281.54288   -29100.885    134.27613   -29235.161   -26731.144 
   92600    307.31367   -29076.063    146.56699    -29222.63    1357.8592 
   92800    270.07558   -29115.236    128.80704   -29244.043    673.53093 
   93000    301.59883    -29097.53    143.84141   -29241.372    831.74943 
   93200    295.03015   -29083.965    140.70861   -29224.674    15547.318 
   93400    284.45062   -29096.342    135.66292   -29232.005   -28275.145 
   93600    301.23307   -29100.043    143.66697    -29243.71   -5370.7724 
   93800    303.17522   -29076.822    144.59324   -29221.416    13685.278 
   94000    257.85674   -29109.571    122.97952    -29232.55    5201.2466 
   94200    338.71858   -29085.923    161.54492   -29247.468    25950.507 
   94400    279.98216   -29097.889    133.53178   -29231.421    9856.1188 
   94600    281.87295   -29115.751    134.43355   -29250.185    38269.842 
   94800    307.19661   -29086.449    146.51116    -29232.96    2174.7833 
   95000    291.07141   -29104.661    138.82057   -29243.482   -14458.123 
   95200    277.02757   -29114.385    132.12265   -29246.508    32415.558 
   95400    295.43958   -29091.824    140.90388   -29232.728   -15376.877 
   95600    271.00319   -29090.442    129.24945   -29219.691   -29079.823 
   95800    276.27635    -29120.56    131.76437   -29252.325    13797.316 
   96000    317.59181   -29102.001    151.46894   -29253.469   -23313.914 
   96200    286.04974   -29091.491    136.42559   -29227.916   -11738.959 
   96400    289.17912   -29096.702    137.91808    -29234.62   -4310.5136 
   96600    278.13514   -29119.355    132.65088   -29252.006   -43329.588 
   96800    272.28278   -29091.664    129.85972   -29221.524    13578.973 
   97000    297.61223   -29096.098    141.94008   -29238.038   -2632.1032 
   97200    272.07845   -29127.847    129.76227    -29257.61   -23192.298 
   97400    288.29536   -29096.064    137.49659   -29233.561    23675.734 
   97600    308.49697   -29095.216    147.13134   -29242.348    41668.935 
   97800    295.45349   -29093.289    140.91052   -29234.199    1828.0946 
   98000     316.3121   -29078.835    150.85861   -29229.694   -28835.645 
   98200    296.32432   -29110.729    141.32584   -29252.055   -36320.052 
   98400    296.05761    -29093.98    141.19864   -29235.179    7103.0704 
   98600    299.70961   -29088.169    142.94038   -29231.109     51201.71 
   98800    318.97177   -29088.133    152.12708    -29240.26   -15766.792 
   99000    288.65593   -29100.759    137.66856   -29238.427    8283.0529 
   99200    329.22655   -29074.486    157.01789   -29231.504    31089.143 
   99400    284.50651   -29084.552    135.68958   -29220.241   -4384.8308 
   99600    289.99994   -29099.804    138.30956   -29238.114    28506.455 
   99800    320.11966   -29080.958    152.67454   -29233.632   -2167.9235 
  100000    319.64077   -29061.067    152.44615   -29213.513   -27410.484 
  100200    294.63486   -29098.025    140.52009   -29238.545   -9084.7162 
  100400     284.4087   -29084.915    135.64293   -29220.558    -17411.82 
  100600     285.9793   -29078.405    136.39199   -29214.797   -1035.5181 
  100800      286.579   -29100.664    136.67801   -29237.342    22799.312 
  101000    296.43331   -29077.033    141.37782   -29218.411   -450.29342 
  101200    312.67266   -29099.319    149.12285   -29248.442    50780.889 
  101400    268.13676   -29110.057    127.88236   -29237.939     11458.42 
  101600     282.2044   -29091.398    134.59163    -29225.99   -5794.8715 
  101800    352.64987   -29069.813    168.18916   -29238.002    10771.517 
  102000    277.25272    -29103.49    132.23003    -29235.72   -20220.808 
  102200    305.38656   -29091.489    145.64789   -29237.137   -12432.728 
  102400    323.71296    -29056.26    154.38829   -29210.648    35103.512 
  102600    333.20424   -29071.848    158.91497   -29230.763    23786.972 
  102800    261.98535    -29100.16    124.94857   -29225.109   -15511.117 
  103000    293.97605   -29084.938    140.20588   -29225.144   -2294.2817 
  103200    307.31245   -29077.788    146.56641   -29224.354   -23655.281 
  103400    278.04515   -29111.981    132.60796   -29244.589   -8440.3244 
  103600    295.92448   -29088.778    141.13515   -29229.913    -3126.505 
  103800    309.51187   -29083.989    147.61538   -29231.605    33242.423 
  104000    284.48269    -29095.21    135.67822   -29230.888   -5855.2172 
  104200    288.82758    -29104.58    137.75042   -29242.331   -20650.124 
  104400     302.5078   -29073.714    144.27493   -29217.989    8634.9945 
  104600    298.93146   -29098.998    142.56927   -29241.567   -4081.9034 
  104800    304.38515   -29090.729    145.17029   -29235.899    62886.736 
  105000    276.12748   -29089.598    131.69337   -29221.292    22938.319 
  105200    303.21791   -29098.644     144.6136   -29243.257   -466.73219 
  105400    264.79663   -29104.102    126.28935   -29230.391    13693.885 
  105600    306.14583   -29073.114    146.01001   -29219.124   -28768.129 
  105800    321.41154   -29083.801    153.29068   -29237.092   -17437.651 
  106000    290.65744   -29110.807    138.62314    -29249.43    5596.1458 
  106200    305.98021    -29084.63    145.93102   -29230.561    5687.2387 
  106400    276.71841   -29087.504     131.9752   -29219.479    33481.147 
  106600    276.19229   -29111.514    131.72428   -29243.238   -3234.0381 
  106800    314.22777   -29082.046    149.86453   -29231.911     10400.89 
  107000    304.24282   -29084.944    145.10241   -29230.047    38524.463 
  107200    290.72248   -29089.932    138.65416   -29228.587   -25886.653 
  107400    294.95372   -29091.847    140.67216   -29232.519   -36303.446 
  107600    334.15406   -29059.707    159.36796   -29219.075    1456.7361 
  107800    302.07666   -29088.228     144.0693   -29232.297   -5000.7536 
  108000    299.19616   -29082.967    142.69551   -29225.663    15874.514 
  108200    298.21926   -29071.578    142.22959   -29213.807   -11156.749 
  108400    290.71716   -29081.269    138.65162    -29219.92   -6083.7085 
  108600      279.309   -29102.174    133.21073   -29235.384    29350.191 
  108800     301.4501   -29073.774    143.77048   -29217.545    17696.669 
  109000    286.02587   -29087.725    136.41421   -29224.139    31280.334 
  109200    302.01975   -29096.023    144.04216   -29240.065   -57265.636 
  109400    328.12987   -29064.978    156.49485   -29221.473    48273.089 
  109600    280.55733    -29086.04     133.8061   -29219.846    9302.3632 
  109800    323.23157     -29081.5    154.15871   -29235.659   -9653.4092 
  110000    259.55695   -29114.769     123.7904   -29238.559   -13124.152 
  110200    295.87124    -29087.32    141.10976    -29228.43   -32613.738 
  110400    307.33185   -29079.721    146.57566   -29226.296   -21050.516 
  110600    310.51545   -29072.424    148.09401   -29220.518   -17897.607 
  110800    296.28827   -29089.793    141.30865   -29231.101    9727.8593 
  111000     291.2375   -29090.825    138.89979   -29229.725   -19101.212 
  111200    321.26242   -29068.554    153.21956   -29221.774    23258.429 
  111400    289.19107   -29090.033    137.92378   -29227.957    415.23351 
  111600      285.494   -29092.909    136.16054   -29229.069    1498.8375 
  111800    297.06182   -29095.067    141.67758   -29236.744   -42557.888 
  112000    325.33251   -29068.972    155.16071   -29224.132    15059.958 
  112200    301.72618   -29098.364    143.90215   -29242.267    29341.396 
  112400    293.11535   -29094.766    139.79539   -29234.561    1366.1623 
  112600    314.09543    -29075.98    149.80141   -29225.781    -15839.37 
  112800    292.60287   -29089.473    139.55097   -29229.023    -19464.68 
  113000     267.1289   -29099.532    127.40168   -29226.933   -19944.551 
  113200     320.2594   -29069.111    152.74119   -29221.852   -12789.949 
  113400    291.18617   -29082.065    138.87531    -29220.94   -23065.665 
  113600    283.73956   -29101.041     135.3238   -29236.365   -4895.4641 
  113800    295.46581   -29104.261     140.9164   -29245.177   -10406.844 
  114000    287.53846   -29081.897    137.13561   -29219.033   -2243.1283 
  114200    317.87965   -29079.318    151.60622   -29230.925   -4992.7344 
  114400    261.94894   -29106.318     124.9312    -29231.25     30376.24 
  114600    275.49834   -29076.641    131.39332   -29208.034    748.99234 
  114800    270.67255   -29082.609    129.09175   -29211.701    5401.2094 
  115000    284.27148   -29095.184    135.57749   -29230.762    5252.4645 
  115200     239.4178   -29118.908    114.18544   -29233.093   -24926.915 
  115400    289.52146   -29086.862    138.08136   -29224.943   -7882.3885 
  115600    304.48541   -29080.394    145.21811   -29225.612   -23185.414 
  115800    263.96633    -29109.62    125.89336   -29235.513   -25023.742 
  116000    293.51496     -29087.8    139.98598   -29227.786   -9310.8814 
  116200    288.35256   -29085.885    137.52388   -29223.409    51962.939 
  116400    258.53617   -29112.229    123.30355   -29235.532    8975.5901 
  116600    315.91762   -29086.558    150.67047   -29237.228    8193.4067 
  116800    283.06837   -29081.568    135.00369   -29216.571   -33748.383 
  117000    289.75852   -29107.351    138.19442   -29245.545   -590.18766 
  117200    303.90741   -29086.545    144.94244   -29231.487    5009.7671 
  117400    305.07329   -29083.468    145.49848   -29228.967   -37154.535 
  117600    296.34309   -29096.203    141.33479   -29237.537   -37102.776 
  117800    284.06872   -29095.588    135.48078   -29231.069   -28658.573 
  118000    282.33173   -29067.911    134.65236   -29202.563    29100.105 
  118200     303.8897   -29099.315      144.934   -29244.249   -13971.901 
  118400    276.66393   -29095.701    131.94922    -29227.65    6867.6246 
  118600    283.94622   -29074.757    135.42236   -29210.179   -17044.312 
  118800    302.24235   -29105.352    144.14832     -29249.5   -18898.977 
  119000    285.52795   -29099.513    136.17673    -29235.69   -15403.486 
  119200    305.79557   -29083.764    145.84296   -29229.607   -10920.242 
  119400    270.54038   -29111.559    129.02872   -29240.587    2933.1431 
  119600    285.14629   -29109.579    135.99471   -29245.574   -8074.3033 
  119800    326.78788   -29091.029    155.85482   -29246.883   -5085.6408 
  120000    306.99115   -29079.168    146.41317   -29225.582    18035.991 
  120200    339.09088   -29077.838    161.72248   -29239.561   -7648.1223 
  120400    291.79165   -29101.677    139.16408   -29240.841    14531.574 
  120600    289.81097   -29069.793    138.21943   -29208.012    12030.306 
  120800    302.60856   -29084.601    144.32298   -29228.924    28963.374 
  121000    289.59454   -29092.686    138.11621   -29230.802    5184.5705 
  121200    324.65783   -29086.804    154.83893   -29241.643   -36736.704 
  121400    296.51253   -29115.005     141.4156    -29256.42    -2221.799 
  121600     281.2206   -29093.707    134.12243   -29227.829   -4970.6761 
  121800    312.46115   -29084.568    149.02198    -29233.59   -21609.304 
  122000    263.52988   -29117.932     125.6852   -29243.617    22703.307 
  122200    288.14225   -29100.457    137.42357   -29237.881   -10671.676 
  122400    319.01626   -29086.444     152.1483   -29238.592   -21915.863 
  122600     293.3634   -29084.094    139.91369   -29224.007     9124.019 
  122800    265.03618   -29112.213     126.4036   -29238.617   -21802.071 
  123000    304.94229   -29088.768    145.43601   -29234.204   -6859.8176 
  123200    341.54885   -29086.313    162.89476   -29249.208    8688.8717 
  123400    290.29716   -29107.322    138.45131   -29245.774   -6867.4601 
  123600    290.68098   -29105.158    138.63437   -29243.792   -517.89697 
  123800    318.03584   -29077.751    151.68071   -29229.431      5338.96 
  124000    271.42637   -29106.686    129.45127   -29236.138   -14165.912 
  124200    301.99153   -29105.048     144.0287   -29249.077    -5532.165 
  124400    310.41578   -29087.789    148.04648   -29235.835   -13174.625 
  124600    329.71586   -29051.605    157.25126   -29208.856   -15547.237 
  124800    306.29653   -29087.449    146.08189   -29233.531    29716.893 
  125000    283.54629   -29103.071    135.23162   -29238.303   -25261.927 
  125200    304.08372   -29096.075    145.02653   -29241.102    16952.442 
  125400    291.14246   -29079.054    138.85446   -29217.909   -3414.0759 
  125600    276.91712   -29104.844    132.06997   -29236.914   -29045.626 
  125800    290.32374   -29089.573    138.46399   -29228.037   -26710.116 
  126000    318.67463   -29069.881    151.98536   -29221.866   -29120.747 
  126200    270.17309   -29104.638    128.85355   -29233.492    -18021.49 
  126400    308.27799   -29089.534     147.0269   -29236.561    23332.105 
  126600    298.92355   -29078.397    142.56549   -29220.963     42643.28 
  126800    298.73315   -29098.362    142.47468   -29240.837   -18780.704 
  127000    261.63347   -29117.479    124.78075    -29242.26   -24103.951 
  127200    295.90257   -29082.928     141.1247   -29224.053   -26688.514 
  127400    316.30576   -29078.242    150.85558   -29229.098   -27424.392 
  127600    282.91296   -29108.576    134.92957   -29243.506    32152.912 
  127800    295.02869   -29088.484    140.70792   -29229.192   -24692.637 
  128000    318.27011   -29079.293    151.79244   -29231.085   -13022.901 
  128200     294.0614   -29094.829    140.24659   -29235.075   -23924.675 
  128400    303.90953   -29099.133    144.94345   -29244.077   -7844.7383 
  128600    277.71643   -29078.815    132.45119   -29211.266    25119.053 
  128800    286.98544   -29101.668    136.87185    -29238.54   -49070.978 
  129000    287.25003   -29120.327    136.99804   -29257.325   -2125.9662 
  129200    288.67477   -29091.783    137.67755    -29229.46    5640.2046 
  129400    294.13236   -29071.405    140.28043   -29211.685     23854.65 
  129600    315.98425   -29092.267    150.70224   -29242.969   -23808.613 
  129800    301.80235   -29099.036    143.93848   -29242.975   -3614.5281 
  130000    297.40696   -29077.939    141.84219   -29219.781    34947.856 
  130200    300.09814   -29078.471    143.12569   -29221.596   -35149.847 
  130400    292.65463   -29096.494    139.57566    -29236.07    27924.826 
  130600    263.69812   -29105.105    125.76544    -29230.87   -17409.113 
  130800    292.21061    -29079.42    139.36389   -29218.783   -1120.3688 
  131000    313.43642   -29084.447    149.48711   -29233.934   -37701.039 
  131200    303.21016    -29104.27     144.6099    -29248.88   -6635.9071 
  131400    322.67451   -29073.003    153.89303   -29226.896   -7175.2432 
  131600    330.35819   -29092.356     157.5576   -29249.914    6514.3234 
  131800    293.38949   -29098.357    139.92614   -29238.283   -12551.226 
  132000    324.77006   -29062.756    154.89246   -29217.648     11021.38 
  132200    295.73707   -29090.597    141.04576   -29231.642   -3579.4131 
  132400    289.52544   -29091.584    138.08325   -29229.667    17015.563 
  132600    371.90734   -29062.412    177.37362   -29239.785   -5315.9142 
  132800    297.12515   -29085.131    141.70778   -29226.839   -23082.492 
  133000    304.79609   -29086.475    145.36628   -29231.841   -33362.715 
  133200     306.0887   -29059.186    145.98277   -29205.169   -31578.833 
  133400    293.08261   -29087.263    139.77977   -29227.042    41376.707 
  133600    289.44225   -29087.348    138.04358   -29225.392    2355.1658 
  133800    340.62544   -29062.491    162.45436   -29224.945    20556.982 
  134000    271.81693   -29078.666    129.63754   -29208.303   -33543.068 
  134200    289.54241   -29090.959    138.09135    -29229.05   -1980.9656 
  134400    318.46979   -29080.446    151.88767   -29232.333   -18452.659 
  134600    324.27294   -29067.245    154.65536   -29221.901    3157.0338 
  134800    276.95272   -29099.811    132.08695   -29231.898    20061.686 
  135000    313.24289   -29093.321    149.39481   -29242.715   -32609.419 
  135200    317.99177   -29063.114    151.65969   -29214.774   -2338.3004 
  135400    311.55505   -29091.555    148.58983   -29240.144    3580.4901 
  135600    304.04245   -29092.694    145.00685   -29237.701     16114.69 
  135800    324.78726    -29071.98    154.90066    -29226.88    -4520.292 
  136000    301.66536   -29100.236    143.87314   -29244.109    -3601.652 
  136200    296.77694   -29098.783    141.54171   -29240.325    33638.403 
  136400    326.28838   -29074.416    155.61659   -29230.033   -16623.333 
  136600    283.21812   -29111.871    135.07511   -29246.946    2974.5397 
  136800    293.68454   -29090.333    140.06685     -29230.4   -24822.019 
  137000    325.82353   -29085.872    155.39489   -29241.267    45277.533 
  137200    249.06985   -29127.009    118.78879   -29245.798   -42001.341 
  137400    282.09078   -29106.734    134.53744   -29241.272    505.09254 
  137600    304.22223   -29083.907    145.09259   -29228.999   -18525.679 
  137800    291.20111   -29110.837    138.88243   -29249.719   -35632.523 
  138000    266.79479    -29108.99    127.24234   -29236.232    38883.834 
  138200     301.1392   -29094.811     143.6222   -29238.433    8024.2827 
  138400    306.44636   -29092.618    146.15334   -29238.771    13621.546 
  138600    287.48267   -29095.375      137.109   -29232.484   -27995.124 
  138800    300.27287   -29082.362    143.20902   -29225.571   -11149.919 
  139000    319.95844   -29074.334    152.59765   -29226.932   -3473.9579 
  139200    298.98007   -29104.145    142.59245   -29246.738   -9181.6884 
  139400    314.39945    -29084.51    149.94641   -29234.456   -35734.736 
  139600    333.07842   -29066.763    158.85496   -29225.618     7708.421 
  139800    292.79865   -29091.988    139.64434   -29231.632   -2343.3514 
  140000    283.26906   -29095.839     135.0994   -29230.938    33636.813 
  140200    329.72213   -29086.439    157.25424   -29243.694   -24057.058 
  140400    317.96228   -29073.708    151.64562   -29225.353   -4213.1273 
  140600    302.85823   -29103.407    144.44205   -29247.849   -9604.4894 
  140800    306.90461   -29080.134    146.37189   -29226.506   -44815.356 
  141000    274.88008    -29083.37    131.09845   -29214.469   -37168.862 
  141200    280.77006   -29104.461    133.90755   -29238.369    23505.478 
  141400    305.40579   -29078.698    145.65706   -29224.355   -36596.214 
  141600    307.89905    -29086.43    146.84617   -29233.276    48228.222 
  141800    327.54361   -29091.758    156.21525   -29247.974    45467.069 
  142000    304.11829   -29089.307    145.04301    -29234.35    70078.403 
  142200    324.99266   -29064.536    154.99862   -29219.535   -6875.4607 
  142400    295.60703   -29096.228    140.98374   -29237.212    364.09408 
  142600    290.51367   -29086.215    138.55457    -29224.77    7326.9309 
  142800    375.43074   -29053.847    179.05403   -29232.901   -5602.3353 
  143000     303.3044   -29084.859    144.65485   -29229.514   -5177.6626 
  143200    296.42831   -29094.857    141.37544   -29236.232   -15319.246 
  143400    350.91002     -29074.6    167.35938    -29241.96   -2898.8845 
  143600    319.81006   -29077.833    152.52689    -29230.36     3059.696 
  143800    280.38965   -29096.124    133.72613    -29229.85   -22919.304 
  144000    317.33499   -29081.421    151.34645   -29232.767   -38479.758 
  144200    299.59261   -29079.865    142.88459    -29222.75    8156.0334 
  144400    272.87922   -29105.113    130.14418   -29235.257   -8727.6052 
  144600    313.60148   -29083.573    149.56583   -29233.139    27945.503 
  144800     305.6402   -29077.966    145.76886   -29223.735   -6062.2596 
  145000    271.93182   -29102.533    129.69234   -29232.226   -26143.878 
  145200    294.30382   -29092.209     140.3622   -29232.571   -9059.8993 
  145400    289.53837   -29088.559    138.08942   -29226.649    13451.063 
  145600    338.51884   -29070.669    161.44966   -29232.118    1229.6418 
  145800    332.33829   -29073.024    158.50197   -29231.525    -19147.69 
  146000    278.41696   -29098.311    132.78529   -29231.096    6575.8409 
  146200    305.20851   -29070.066    145.56297   -29215.629   -276.23583 
  146400    291.35909   -29081.038    138.95777   -29219.996    3135.8928 
  146600    280.58209   -29094.546     133.8179   -29228.364    -26760.05 
  146800    318.98726   -29067.601    152.13447   -29219.735    24831.345 
  147000    284.98285   -29076.391    135.91676   -29212.308     5138.367 
  147200    293.77595   -29095.479    140.11045   -29235.589    37528.085 
  147400    313.73575   -29082.826    149.62987   -29232.456   -65795.457 
  147600    341.61251   -29059.505    162.92512    -29222.43   -39336.905 
  147800    276.86179   -29088.244    132.04359   -29220.287   -1792.0789 
  148000    289.23081   -29088.181    137.94274   -29226.124    34720.497 
  148200    330.24803   -29059.385    157.50507    -29216.89   -21638.192 
  148400    280.90392   -29089.806     133.9714   -29223.778   -17065.027 
  148600    292.70324   -29081.905    139.59884   -29221.504    2943.6336 
  148800    307.44844   -29078.002    146.63127   -29224.633    2611.2668 
  149000    289.80973   -29103.363    138.21884   -29241.582    41975.338 
  149200    310.53147    -29073.28    148.10165   -29221.382    28189.133 
  149400    285.39194   -29081.696    136.11187   -29217.808   -2273.7672 
  149600    325.79204   -29100.127    155.37987   -29255.507    45612.209 
  149800    299.91244   -29093.178    143.03712   -29236.216   -12368.065 
  150000    290.02226   -29082.924     138.3202   -29221.245    2048.5439 
  150200    325.17613    -29077.41    155.08612   -29232.496   -1075.4499 
  150400    282.91008   -29103.203    134.92819   -29238.131    9754.8689 
  150600    313.19856   -29074.881    149.37367   -29224.255    39704.851 
  150800    325.59717   -29081.094    155.28693   -29236.381    18506.491 
  151000    280.95866   -29098.452     133.9975    -29232.45   -5522.8934 
  151200    352.35879   -29060.077    168.05034   -29228.128    -10865.07 
  151400    267.80982   -29082.404    127.72643   -29210.131    49605.893 
  151600    305.52734   -29094.175    145.71503    -29239.89     32449.18 
  151800    309.83953   -29061.723    147.77164   -29209.495   -2907.5817 
  152000    298.84962   -29082.343    142.53023   -29224.873   -11346.986 
  152200    296.57457   -29094.726    141.44519   -29236.171    27906.354 
  152400    295.79153   -29105.681    141.07174   -29246.753    10414.961 
  152600     297.4644   -29083.222    141.86958   -29225.092   -687.66013 
  152800    313.94609   -29075.368    149.73018   -29225.099    -4800.741 
  153000    271.00626   -29107.202    129.25091   -29236.453    15582.129 
  153200    297.20387   -29091.189    141.74532   -29232.935   -26250.375 
  153400    308.41065   -29076.374    147.09017   -29223.464    28651.536 
  153600    309.86093   -29104.312    147.78185   -29252.094    -17043.74 
  153800    269.97475   -29087.674    128.75895   -29216.433    53046.826 
  154000    330.65332   -29074.817    157.69836   -29232.516    4106.1884 
  154200    296.79656   -29102.809    141.55107    -29244.36    66506.129 
  154400    279.08153   -29102.718    133.10225    -29235.82    3542.5835 
  154600    326.29207   -29084.055    155.61835   -29239.673   -29100.159 
  154800    313.45541   -29080.889    149.49617   -29230.385   -28286.347 
  155000    290.86865   -29108.255    138.72387   -29246.979    20932.277 
  155200    301.26187   -29074.285     143.6807   -29217.965   -7710.9121 
  155400    313.51159    -29082.25    149.52296   -29231.773   -15731.448 
  155600    288.04642    -29105.35    137.37787   -29242.728   -30638.417 
  155800    315.62309   -29071.851    150.52999   -29222.381    33688.081 
  156000     308.1581    -29079.06    146.96972    -29226.03    6463.2201 
  156200    274.08647   -29096.404    130.71995   -29227.124   -10115.523 
  156400    314.62113   -29063.249    150.05213   -29213.301   -42337.853 
  156600    308.02756   -29093.282    146.90746   -29240.189   -8694.6565 
  156800    284.41805   -29087.105    135.64739   -29222.753    3405.2689 
  157000    311.38643   -29065.032    148.50941   -29213.542   -21604.981 
  157200     290.7104   -29087.241    138.64839    -29225.89    6502.2051 
  157400    290.62109   -29093.704     138.6058   -29232.309   -17596.476 
  157600    308.39528   -29077.429    147.08284   -29224.512    14558.942 
  157800    289.89852   -29085.136    138.26119   -29223.397    29478.106 
  158000    268.45067   -29099.169    128.03207   -29227.201   -9197.0014 
  158200    325.33612   -29067.815    155.16243   -29222.977   -1333.9858 
  158400    279.49437   -29093.273    133.29914   -29226.572   -14839.318 
  158600    287.03972   -29072.529    136.89774   -29209.427    59490.786 
  158800     336.3953   -29073.663    160.43688     -29234.1   -19126.062 
  159000    264.25257   -29095.292    126.02987   -29221.322   -26818.876 
  159200    321.01669    -29063.05    153.10236   -29216.153     37840.32 
  159400    302.20657   -29082.892    144.13126   -29227.024    -13169.86 
  159600    313.23129   -29093.679    149.38928   -29243.069    10839.491 
  159800    306.35438   -29097.619    146.10948   -29243.728    23843.993 
  160000    302.54647   -29071.612    144.29337   -29215.905   -15571.309 
  160200    265.19566   -29097.314    126.47966   -29223.794    6392.7328 
  160400    295.25818   -29089.426    140.81737   -29230.243    -4653.789 
  160600    290.18825   -29083.555    138.39937   -29221.955    31935.945 
  160800    290.05939   -29084.559    138.33791   -29222.897    82783.935 
  161000    314.23673   -29079.146     149.8688   -29229.015    5613.8561 
  161200    258.75948   -29108.319    123.41006   -29231.729    19354.396 
  161400    281.35339   -29080.444    134.18576   -29214.629   -7155.7632 
  161600    307.99112   -29079.105    146.89008   -29225.995    2765.9906 
  161800    288.36734   -29105.395    137.53092   -29242.926   -3242.6963 
  162000    315.84576   -29089.507    150.63619   -29240.143    53.225735 
  162200    321.12995   -29078.176    153.15638   -29231.332   -50401.463 
  162400    265.36898   -29102.271    126.56232   -29228.834    45099.629 
  162600    291.43299   -29070.528    138.99302   -29209.521     35970.45 
  162800    298.86726   -29077.647    142.53864   -29220.186   -1224.7326 
  163000    297.61048   -29097.901    141.93925    -29239.84    11061.476 
  163200    312.82869   -29073.801    149.19726   -29222.998    34171.569 
  163400    352.62187   -29028.175    168.17581   -29196.351    138.77348 
  163600    309.51199   -29069.304    147.61543   -29216.919    14739.271 
  163800    265.44268   -29096.527    126.59747   -29223.125   -4698.8951 
  164000    333.00785   -29074.022    158.82131   -29232.843   -19598.567 
  164200     322.7638   -29074.081    153.93561   -29228.016    -3857.864 
  164400    298.97427   -29085.115    142.58968   -29227.705    6138.9684 
  164600    299.52223   -29090.115    142.85102   -29232.966   -4349.1319 
  164800    282.72311   -29096.798    134.83902   -29231.637    14351.909 
  165000    349.94428   -29066.419    166.89879   -29233.317   -29936.682 
  165200    287.59509   -29089.167    137.16261   -29226.329     2848.545 
  165400    287.17981   -29090.353    136.96455   -29227.318   -40906.248 
  165600    303.99086   -29072.105    144.98224   -29217.087   -13122.588 
  165800     309.1429   -29062.854     147.4394   -29210.293   -27335.036 
  166000    288.62919   -29093.701    137.65581   -29231.357   -35195.532 
  166200    318.64047    -29069.59    151.96907   -29221.559    8597.1963 
  166400    317.33636   -29071.917     151.3471   -29223.264    32248.744 
  166600    286.55222   -29092.169    136.66524   -29228.835    -13540.95 
  166800    309.56078     -29092.4     147.6387   -29240.038    -46037.68 
  167000    285.91486   -29066.493    136.36126   -29202.854    28704.723 
  167200    280.25259   -29094.706    133.66076   -29228.366    6780.4243 
  167400    319.51842    -29089.54     152.3878   -29241.927   -6530.2466 
  167600    304.59933   -29086.689    145.27244   -29231.961    22225.334 
  167800    318.42899   -29065.842    151.86821    -29217.71   -3239.3577 
  168000    303.77843   -29078.065    144.88093   -29222.946      12286.3 
  168200    292.02059   -29091.415    139.27326   -29230.688   -12618.137 
  168400    322.67318   -29067.124     153.8924   -29221.016    9883.9757 
  168600    290.55287   -29076.941    138.57326   -29215.514    28673.724 
  168800    279.89457   -29097.874    133.49001   -29231.364     12534.19 
  169000    274.50992   -29111.635    130.92191   -29242.557   -9634.0966 
  169200    325.45326   -29077.917     155.2183   -29233.135   -6454.5558 
  169400    300.17128   -29079.855    143.16057   -29223.016    7969.8688 
  169600    269.81371   -29109.561    128.68215   -29238.243     31777.65 
  169800    316.60745   -29089.912    150.99947   -29240.912    19409.419 
  170000    301.09024   -29087.209    143.59885   -29230.808    12016.025 
  170200     282.8383   -29104.038    134.89396   -29238.931    2158.5843 
  170400    302.91387   -29093.051    144.46859    -29237.52    25877.342 
  170600    318.21242   -29076.849    151.76492   -29228.614   -11835.996 
  170800    318.93086   -29101.224    152.10757   -29253.331     7276.844 
  171000    265.96812    -29099.87    126.84807   -29226.718   -13693.876 
  171200    270.36236   -29078.672    128.94382   -29207.616    3320.6715 
  171400    303.33356   -29099.222    144.66876   -29243.891   -9404.5008 
  171600    286.20663   -29072.436    136.50042   -29208.936   -5168.7284 
  171800    312.89725   -29075.658    149.22996   -29224.888    4006.8194 
  172000    298.69991   -29093.808    142.45883   -29236.267   -18258.842 
  172200    318.56024   -29090.218    151.93081   -29242.149    -5271.203 
  172400    290.80585   -29080.931    138.69392   -29219.625   -26269.543 
  172600    295.47379   -29063.577     140.9202   -29204.497    58507.554 
  172800     302.2685   -29096.045     144.1608   -29240.205   -24747.455 
  173000    303.38165   -29085.793    144.69169   -29230.484    20640.021 
  173200    323.61098   -29058.063    154.33966   -29212.403   -7989.4567 
  173400    282.59023   -29097.822    134.77565   -29232.597    7990.2245 
  173600    329.54026   -29077.743    157.16751    -29234.91    7817.8818 
  173800    320.33986   -29071.112    152.77957   -29223.891    19570.926 
  174000    281.22858   -29101.553    134.12624    -29235.68    15961.761 
  174200    341.28263    -29080.63    162.76779   -29243.398    30840.884 
  174400    277.30886   -29081.279    132.25681   -29213.535   -7872.6898 
  174600    285.54325   -29095.681    136.18403   -29231.865   -21950.711 
  174800    278.79008   -29108.532    132.96324   -29241.495   -6781.7815 
  175000    317.79267   -29077.352    151.56474   -29228.917   -26143.482 
  175200     276.9784   -29087.318     132.0992   -29219.417    36579.831 
  175400    289.78891   -29104.957    138.20891   -29243.166   -20314.268 
  175600    303.40268   -29087.734    144.70172   -29232.436    17113.832 
  175800    338.88072   -29071.414    161.62225   -29233.037    20431.467 
  176000    267.18934   -29106.116    127.43051   -29233.546    1697.8993 
  176200    313.72716   -29081.498    149.62577   -29231.124   -28020.556 
  176400    320.12189   -29079.733    152.67561   -29232.408   -25232.629 
  176600    335.41742   -29092.862     159.9705   -29252.832    30484.081 
  176800    300.07443    -29093.24    143.11438   -29236.354   -17222.488 
  177000    293.62751   -29087.876    140.03966   -29227.916   -17819.977 
  177200    317.11818   -29067.272    151.24305   -29218.515    26293.332 
  177400    269.53126   -29101.251    128.54744   -29229.799    24112.625 
  177600    284.48202   -29090.229     135.6779   -29225.907   -6538.0642 
  177800    334.26095   -29073.242    159.41894   -29232.661   -36731.328 
  178000    308.05399   -29089.666    146.92007   -29236.586    18773.006 
  178200    279.97686   -29100.719    133.52926   -29234.249    -671.8997 
  178400    318.95162   -29071.172    152.11747    -29223.29   -45917.641 
  178600    291.29438   -29089.318    138.92691   -29228.245   -35677.304 
  178800     295.4586   -29099.029    140.91295   -29239.942    19628.637 
  179000    291.97911   -29080.191    139.25348   -29219.445     32349.14 
  179200    339.36842   -29069.253    161.85485   -29231.108    20211.086 
[...]
  950000     328.5583   -29095.321    156.69918    -29252.02    37450.246 
  950200    308.44062   -29103.988    147.10446   -29251.092   -16662.648 
  950400     285.3864   -29122.039    136.10922   -29258.148   -4076.7519 
  950600    343.64067   -29095.221    163.89241   -29259.113   -9743.2971 
  950800    306.14682   -29100.998    146.01048   -29247.009   -13163.965 
  951000     276.2431   -29115.708    131.74851   -29247.457    37528.533 
  951200    297.25273   -29114.298    141.76863   -29256.067    30442.988 
  951400    290.69809   -29101.507    138.64253   -29240.149    64639.432 
  951600    288.69993   -29115.746    137.68954   -29253.436   -18316.032 
  951800    300.48918   -29131.488    143.31219     -29274.8    28627.733 
  952000    311.46368   -29096.269    148.54625   -29244.815    7351.9356 
  952200    339.49233   -29115.355    161.91394   -29277.269    -53170.55 
  952400    305.75677   -29125.886    145.82445   -29271.711   -17463.361 
  952600    330.21453   -29089.158    157.48909   -29246.647    9207.2696 
  952800    305.21273    -29116.25    145.56499   -29261.815    45711.806 
  953000    293.86343   -29120.469    140.15217   -29260.621   -48157.083 
  953200    298.18845   -29106.079     142.2149   -29248.294    22087.091 
  953400    281.63969   -29106.348    134.32231    -29240.67    8621.6519 
  953600      319.219   -29132.042    152.24499   -29284.287   -21424.787 
  953800    306.39343   -29121.685     146.1281   -29267.813    14757.821 
  954000    331.21157   -29082.744    157.96461   -29240.709   -38273.623 
  954200    316.50274   -29101.872    150.94953   -29252.821    19840.802 
  954400    270.08322   -29132.309    128.81069   -29261.119   -17086.196 
  954600    302.58362   -29117.828    144.31109   -29262.139   -31585.552 
  954800      308.808   -29108.273    147.27968   -29255.552    5800.1856 
  955000    285.70342   -29121.839    136.26042     -29258.1   -15186.782 
  955200    302.22264   -29126.258    144.13893   -29270.397     52204.66 
  955400    315.61914   -29123.698    150.52811   -29274.226     37017.88 
  955600    306.80647   -29115.348    146.32509   -29261.673    6773.1888 
  955800    266.14301   -29130.715    126.93148   -29257.646    42691.718 
  956000    304.25395   -29141.565    145.10772   -29286.673   -22753.807 
  956200    303.65684   -29110.047    144.82294    -29254.87   -601.76816 
  956400    292.47358   -29133.366    139.48931   -29272.855       -39411 
  956600    296.70652   -29141.358    141.50812   -29282.866    16615.094 
  956800    314.78959   -29111.869    150.13248   -29262.001    30239.134 
  957000    302.67554   -29124.322    144.35493   -29268.677    36268.977 
  957200    296.72364   -29139.739    141.51629   -29281.256    3685.3257 
  957400    296.70718    -29130.44    141.50844   -29271.948   -22433.787 
  957600    274.25635   -29116.256    130.80097   -29247.057   -62735.149 
  957800    330.90123   -29087.032    157.81659   -29244.849   -5288.0039 
  958000     304.1427   -29124.648    145.05466   -29269.703   -46538.131 
  958200    304.60254   -29121.526    145.27397     -29266.8    10672.518 
  958400    343.95549   -29093.948    164.04256    -29257.99   -15434.725 
  958600    282.48407   -29127.893    134.72502   -29262.618    -14750.95 
  958800    282.67048   -29124.124    134.81392   -29258.938    24961.802 
  959000    323.99156   -29102.365    154.52117   -29256.886     15373.51 
  959200    281.33447   -29139.872    134.17674   -29274.049    5509.6144 
  959400    296.14794   -29115.999    141.24172    -29257.24   -24801.002 
  959600    303.85982   -29111.238    144.91975   -29256.158    37021.312 
  959800    261.97993   -29120.562    124.94598   -29245.508    21593.054 
  960000    265.53368   -29118.728    126.64087   -29245.369   -25400.579 
  960200    303.51314   -29102.276     144.7544    -29247.03     22463.23 
  960400    299.37983   -29104.224    142.78311   -29247.007     9807.233 
  960600    303.39985   -29127.697    144.70037   -29272.397    2365.6398 
  960800    319.89756   -29100.858    152.56862   -29253.427    14493.457 
  961000    279.36591   -29110.813    133.23787   -29244.051   -13838.916 
  961200    265.73754   -29126.795     126.7381   -29253.533   -34101.677 
  961400    331.25855   -29101.612    157.98701   -29259.599    -17889.08 
  961600    275.15045   -29123.711     131.2274   -29254.939    11088.983 
  961800    302.26345   -29127.547    144.15839   -29271.705   -6551.7633 
  962000    277.10194   -29111.746    132.15812   -29243.904   -3408.3943 
  962200    303.11161   -29112.866     144.5629   -29257.429   -22614.516 
  962400    263.37049   -29146.489    125.60919   -29272.098   -21186.686 
  962600    276.47864   -29127.867    131.86085   -29259.728    -16644.18 
  962800    282.48226    -29111.55    134.72415   -29246.274    15796.963 
  963000    283.20428   -29131.483    135.06851   -29266.552    4498.2636 
  963200    293.08276   -29130.032    139.77985   -29269.812   -36499.111 
  963400    341.36154   -29110.595    162.80543   -29273.401    17299.777 
  963600    299.03954    -29125.24    142.62081   -29267.861   -3613.7417 
  963800    284.78038   -29138.938     135.8202   -29274.759   -17508.442 
  964000    306.66864   -29103.995    146.25935   -29250.254    15327.782 
  964200    285.96631   -29124.512     136.3858   -29260.897    20562.008 
  964400    288.93937    -29122.99    137.80374   -29260.794   -732.64146 
  964600    314.99836   -29098.035    150.23204   -29248.267   -3550.7449 
  964800    305.69359   -29125.511    145.79432   -29271.305    29752.841 
  965000    320.15475   -29104.278    152.69128   -29256.969   -22979.666 
  965200    300.41303   -29099.457    143.27587   -29242.733    6413.1147 
  965400    296.47212   -29119.842    141.39633   -29261.238    27691.183 
  965600    285.98839   -29117.887    136.39633   -29254.283    25980.632 
  965800    339.60199   -29092.115    161.96624   -29254.082    27416.233 
  966000    303.27827   -29124.785    144.64239   -29269.427   -38919.916 
  966200     290.1647   -29124.119    138.38814   -29262.507    -4317.945 
  966400    319.11323   -29089.104    152.19455   -29241.299    12467.795 
  966600    296.11794   -29115.644    141.22741   -29256.871    23511.134 
  966800    298.08535   -29123.634    142.16573   -29265.799   -9417.6408 
  967000    317.04914   -29100.929    151.21012   -29252.139    53263.555 
  967200    312.45743   -29115.512     149.0202   -29264.532   -14646.435 
  967400    279.62142   -29126.694    133.35973   -29260.054    31278.419 
  967600    315.64145    -29103.54    150.53875   -29254.079    6400.4945 
  967800    268.37085   -29132.091    127.99401   -29260.085     20153.25 
  968000    293.42373    -29123.43    139.94246   -29263.372    15358.258 
  968200    311.41349   -29107.391    148.52231   -29255.914   -18348.679 
  968400    281.40206   -29120.801    134.20897    -29255.01   -39938.889 
  968600    292.23299   -29120.834    139.37456   -29260.208   -3410.1149 
  968800    319.69505   -29107.097    152.47204   -29259.569   -9957.2169 
  969000    304.44432   -29107.673    145.19851   -29252.871   -30921.571 
  969200    282.55484    -29128.19    134.75877   -29262.949    9366.4472 
  969400    306.54188   -29105.303     146.1989   -29251.502   -42610.528 
  969600    311.09508   -29107.974    148.37045   -29256.344    21597.943 
  969800    297.49842   -29129.098     141.8858   -29270.984   -2499.8878 
  970000    318.62722   -29110.567    151.96276   -29262.529    7654.9095 
  970200    337.28655   -29113.784    160.86194   -29274.646   -36348.048 
  970400    275.76066   -29135.131    131.51842   -29266.649    9316.6656 
  970600    303.48055   -29109.757    144.73886   -29254.496   -36637.922 
  970800    280.13321   -29117.954    133.60382   -29251.558    44278.994 
  971000    278.26433   -29121.141     132.7125   -29253.854    -7293.474 
  971200    270.84306   -29132.835    129.17308   -29262.008   -9835.8778 
  971400    294.44755   -29127.953    140.43075   -29268.383    6426.9614 
  971600    319.94628   -29108.049    152.59186   -29260.641    -37254.94 
  971800    272.67057   -29142.683    130.04467   -29272.728   -28642.431 
  972000    289.09925   -29127.726    137.87999   -29265.606    30607.786 
  972200    310.21937   -29108.363     147.9528   -29256.316    56931.329 
  972400    268.99359   -29140.535    128.29101   -29268.826     41688.07 
  972600    277.25419   -29127.952    132.23073   -29260.183    30127.952 
  972800    322.60271   -29114.116    153.85878   -29267.974    21132.997 
  973000    284.18871   -29137.376    135.53801   -29272.914   -17212.592 
  973200    291.16265   -29137.126    138.86409    -29275.99    12041.952 
  973400    277.31698   -29118.961    132.26068   -29251.221   -35371.431 
  973600    307.63357   -29103.217    146.71956   -29249.936   -64577.895 
  973800    305.29474   -29119.195     145.6041   -29264.799    1168.6857 
  974000    297.44818   -29130.407    141.86184   -29272.268    9600.2159 
  974200    301.84169   -29102.697    143.95724   -29246.654    4224.0386 
  974400    273.55818   -29112.357    130.46799   -29242.825     18073.08 
  974600     271.9207   -29126.941    129.68703   -29256.628   -9006.1997 
  974800    279.56485   -29138.838    133.33275   -29272.171   -37945.587 
  975000    286.32589    -29107.67    136.55729   -29244.228    8304.8492 
  975200    312.45748   -29125.981    149.02022   -29275.001   -16137.541 
  975400    276.85985   -29131.783    132.04266   -29263.826   -6416.7019 
  975600     308.3354   -29112.584    147.05428   -29259.638    -3537.405 
  975800    331.44843   -29094.528    158.07757   -29252.606    1789.6133 
  976000    300.21946    -29131.18    143.18355   -29274.364   -28836.211 
  976200    288.44088   -29126.727      137.566   -29264.293    36195.923 
  976400     347.6252   -29095.141    165.79275   -29260.933    491.42506 
  976600    291.52802   -29133.035    139.03835   -29272.073   -9212.3287 
  976800    280.13356   -29123.265    133.60399   -29256.869   -16288.228 
  977000    330.66481   -29103.782    157.70384   -29261.486    9234.5151 
  977200    315.66429   -29130.308    150.54965   -29280.857    51265.419 
  977400     292.4206   -29130.823    139.46404   -29270.287    6595.8186 
  977600    323.34735    -29108.91    154.21393   -29263.124   -11973.432 
  977800     305.9811   -29119.523    145.93145   -29265.455    9805.1539 
  978000    288.21597   -29139.548    137.45873   -29277.006    7801.8341 
  978200    294.39664   -29139.967    140.40647   -29280.374   -12690.658 
  978400    327.24155   -29113.049    156.07118   -29269.121    119.85869 
  978600    288.47023   -29135.839    137.57999   -29273.419   -47085.916 
  978800    282.39638   -29134.295    134.68319   -29268.978      53722.6 
  979000    312.03304   -29111.484    148.81779   -29260.301    35388.818 
  979200    305.22061   -29128.972    145.56875   -29274.541    13838.197 
  979400    307.03922   -29116.578    146.43609   -29263.014   -17170.044 
  979600    317.67292   -29097.631    151.50762   -29249.138    32632.033 
  979800    293.60765   -29119.736    140.03018   -29259.766    22138.883 
  980000    317.52455   -29118.538    151.43686   -29269.975   -338.35017 
  980200    346.14457   -29088.088     165.0866   -29253.175   -2488.5829 
  980400    289.36686   -29119.686    138.00762   -29257.693   -2076.8025 
  980600    307.02192   -29120.717    146.42784   -29267.145   -23541.798 
  980800     315.3891   -29097.838     150.4184   -29248.256    22962.392 
  981000    319.84447   -29119.626     152.5433   -29272.169    13035.205 
  981200    283.24191   -29128.238    135.08645   -29263.324    39132.418 
  981400    325.00377   -29100.421    155.00392   -29255.425    38426.898 
  981600    283.93243   -29138.034    135.41578    -29273.45   -22316.039 
  981800    310.38555   -29126.189    148.03206   -29274.221   -42963.375 
  982000    319.17493   -29109.291    152.22398   -29261.515     10057.57 
  982200    248.94128   -29143.523    118.72747   -29262.251   -1483.5095 
  982400    285.16316   -29126.751    136.00276   -29262.754   -2056.8528 
  982600    296.02434   -29121.183    141.18277   -29262.366    7785.0328 
  982800    336.01648   -29125.514    160.25621    -29285.77    26633.869 
  983000    291.55017   -29128.005    139.04891   -29267.054    58662.239 
  983200    312.27017   -29097.136    148.93089   -29246.067   -10961.441 
  983400     278.9271   -29127.331    133.02859    -29260.36   -79702.412 
  983600    277.88576    -29131.85    132.53195   -29264.382     59119.21 
  983800    346.02258   -29096.732    165.02841    -29261.76   -3352.4405 
  984000    298.33332   -29123.041    142.28399   -29265.325   -45399.316 
  984200     299.3089   -29126.723    142.74928   -29269.472   -23658.155 
  984400    334.09072   -29114.416    159.33776   -29273.754    5847.5263 
  984600    314.70051   -29108.151    150.08999   -29258.241   -17084.919 
  984800    297.55854   -29136.136    141.91448    -29278.05   -22686.674 
  985000    318.85289   -29117.864    152.07038   -29269.934    14351.746 
  985200    331.27014   -29081.229    157.99254   -29239.221    13759.512 
  985400    288.43154     -29124.7    137.56154   -29262.261    12232.613 
  985600    278.78073   -29138.116    132.95879   -29271.075   -10521.408 
  985800    303.62182   -29108.423    144.80623   -29253.229   -15708.847 
  986000    299.67228   -29117.917    142.92258   -29260.839   -24431.004 
  986200     285.1546    -29135.04    135.99867   -29271.038    25501.515 
  986400    298.99489   -29111.311    142.59952   -29253.911    44513.279 
  986600    319.17087   -29111.525    152.22204   -29263.747    -16381.43 
  986800    276.68568   -29136.936    131.95959   -29268.896    -4490.485 
  987000    326.73383   -29112.192    155.82904   -29268.021    27756.469 
  987200    292.55644   -29115.009    139.52883   -29254.538    -14567.46 
  987400    296.45036   -29119.958    141.38595   -29261.344    21724.932 
  987600     271.3356   -29144.145    129.40798   -29273.553   -26705.745 
  987800    291.48471   -29112.592    139.01769   -29251.609   -8977.7992 
  988000    333.84732   -29115.889    159.22167   -29275.111     23576.14 
  988200    272.23583   -29142.769    129.83733   -29272.606    1245.2231 
  988400    314.91408   -29106.841    150.19185   -29257.033    29742.096 
  988600    302.38791   -29121.611    144.21775   -29265.829   -17665.617 
  988800    273.99919   -29143.089    130.67832   -29273.768    1600.3032 
  989000    266.98691   -29136.959    127.33396   -29264.293    19184.794 
  989200    311.93772   -29111.958    148.77234    -29260.73     11532.67 
  989400    281.31541   -29138.014    134.16765   -29272.182   -28575.184 
  989600    280.61268   -29138.475     133.8325   -29272.307   -29322.872 
  989800    302.79231   -29122.337    144.41062   -29266.748    52791.582 
  990000    304.66169   -29127.294    145.30218   -29272.596     -13580.8 
  990200    257.27916   -29154.884    122.70405   -29277.588    7928.6245 
  990400    290.99689   -29128.777    138.78503   -29267.562      28406.6 
  990600    317.37149   -29119.753    151.36386   -29271.117   -19530.334 
  990800    288.00041   -29136.811    137.35592   -29274.167   -28866.016 
  991000    272.76809   -29136.516    130.09118   -29266.607     32130.93 
  991200    309.63907   -29114.762    147.67604   -29262.438    19169.816 
  991400     270.7375   -29138.961    129.12273   -29268.084    11057.919 
  991600    310.34022   -29120.233    148.01044   -29268.243   -17329.828 
  991800    304.55691   -29114.334    145.25221   -29259.586     30597.66 
  992000    272.30668   -29140.126    129.87112   -29269.997    18511.674 
  992200     299.6494    -29110.36    142.91167   -29253.272    15984.111 
  992400    325.94084   -29114.893    155.45084   -29270.344    12830.961 
  992600    303.46364   -29132.865     144.7308   -29277.596    14623.586 
  992800    350.15206     -29114.4    166.99788   -29281.398   -27220.377 
  993000    319.27682   -29111.104    152.27257   -29263.377   -18603.502 
  993200    288.26954   -29127.604    137.48428   -29265.088   -17461.597 
  993400    329.83415   -29114.916    157.30767   -29272.224   -5423.4414 
  993600    305.85645   -29118.329      145.872   -29264.201   -51240.122 
  993800    293.39344   -29137.056    139.92802   -29276.984     -26775.6 
  994000    308.85433   -29107.168    147.30177    -29254.47    36496.966 
  994200    309.19599   -29119.325    147.46472    -29266.79    12565.665 
  994400    309.29353   -29126.267    147.51124   -29273.778    -28890.58 
  994600    289.55035   -29121.104    138.09513   -29259.199    11398.603 
  994800    269.56943   -29132.546    128.56564   -29261.112   -25160.414 
  995000    291.95681    -29125.19    139.24285   -29264.432   -30889.673 
  995200     324.4141   -29107.518    154.72269   -29262.241    19017.903 
  995400    305.39849   -29121.685    145.65358   -29267.338    28314.442 
  995600    309.34166   -29122.939     147.5342   -29270.474    71342.217 
  995800    290.53696    -29135.16    138.56568   -29273.725     30923.13 
  996000    276.79272   -29133.117    132.01064   -29265.128   -11360.619 
  996200    292.55841   -29111.378    139.52977   -29250.908    14485.479 
  996400    282.49904   -29137.673    134.73216   -29272.405   -38082.677 
  996600    292.51966   -29146.966    139.51129   -29286.478    8567.7126 
  996800    297.62795   -29118.636    141.94758   -29260.584   -29694.885 
  997000    288.16848    -29113.52    137.43608   -29250.956   -11384.464 
  997200    302.88865   -29139.406    144.45657   -29283.862   -24298.937 
  997400    299.89224   -29115.586    143.02749   -29258.613    15234.803 
  997600    330.14362   -29107.046    157.45527   -29264.501   -1891.2756 
  997800    300.23705   -29135.001    143.19194   -29278.193   -22930.105 
  998000    300.91263   -29141.077    143.51414   -29284.591   -23088.433 
  998200    296.86802   -29117.075    141.58515    -29258.66    31689.366 
  998400    346.45138   -29104.148    165.23292    -29269.38    25978.741 
  998600    279.63707   -29137.426     133.3672   -29270.794    21243.296 
  998800    294.14995   -29111.599    140.28882   -29251.888    20914.976 
  999000      314.946   -29109.601    150.20707   -29259.808    17508.795 
  999200    278.46377   -29138.413    132.80762    -29271.22   -21427.372 
  999400    284.29422    -29123.59    135.58833   -29259.178   -20571.811 
  999600    325.08341    -29105.61     155.0419   -29260.652   -30039.764 
  999800    298.88595   -29132.065    142.54756   -29274.613    6918.3436 
 1000000    290.84678   -29121.352    138.71344   -29260.065   -21566.136 
Loop time of 6000.67 on 8 procs for 1000000 steps with 161 atoms

Performance: 3.600 ns/day, 6.667 hours/ns, 166.648 timesteps/s
99.3% CPU use with 8 MPI tasks x no OpenMP threads

MPI task timing breakdown:
Section |  min time  |  avg time  |  max time  |%varavg| %total
---------------------------------------------------------------
Pair    | 4890.4     | 5072       | 5235.8     | 172.0 | 84.52
Neigh   | 0.70627    | 0.72231    | 0.73178    |   1.1 |  0.01
Comm    | 73.719     | 238.64     | 420.02     | 795.0 |  3.98
Output  | 0.099905   | 0.10922    | 0.16945    |   6.9 |  0.00
Modify  | 684.64     | 685.08     | 685.93     |   1.6 | 11.42
Other   |            | 4.115      |            |       |  0.07

Nlocal:    20.125 ave 45 max 3 min
Histogram: 3 0 0 1 1 1 1 0 0 1
Nghost:    733.875 ave 753 max 707 min
Histogram: 1 0 1 0 2 0 0 1 1 2
Neighs:    2116.75 ave 4424 max 354 min
Histogram: 1 2 0 0 2 0 2 0 0 1

Total # of neighbors = 16934
Ave neighs/atom = 105.18
Neighbor list builds = 742
Dangerous builds = 0

Please see the log.cite file for references relevant to this simulation

Total wall time: 1:40:29
