ITEM: TIMESTEP
0
ITEM: NUMBER OF ATOMS
82
ITEM: BOX BOUNDS pp pp pp
0.0000000000000000e+00 1.3416000000000000e+01
0.0000000000000000e+00 1.3416000000000000e+01
0.0000000000000000e+00 1.3414999999999999e+01
ITEM: ATOMS id type x y z 
21 1 1.912 1.912 1.912 
22 1 2.794 2.794 2.795 
23 1 0.386 2.099 2.099 
33 1 2.098 2.099 0.386 
37 1 2.099 0.386 2.099 
41 1 4.371 4.372 4.372 
42 1 3.489 3.489 3.489 
43 1 4.184 5.897 4.185 
53 1 4.185 4.185 5.898 
57 1 5.897 4.185 4.185 
4 1 1.912 1.912 11.079 
5 1 2.794 2.794 10.197 
6 1 2.099 0.386 10.892 
16 1 2.098 2.099 12.605 
19 1 0.386 2.099 10.892 
64 1 4.371 4.372 8.62 
65 1 3.489 3.489 9.502 
66 1 5.897 4.185 8.807 
76 1 4.185 4.185 7.094 
79 1 4.184 5.897 8.807 
10 1 1.911 11.079 1.912 
11 1 2.794 10.197 2.795 
12 1 2.099 12.605 2.099 
15 1 2.099 10.892 0.386 
18 1 0.386 10.892 2.099 
67 1 4.372 8.62 4.371 
68 1 3.489 9.502 3.489 
69 1 5.897 8.807 4.185 
74 1 4.185 8.807 5.897 
80 1 4.185 7.094 4.185 
30 1 1.911 11.079 11.079 
31 1 2.794 10.197 10.197 
32 1 0.386 10.892 10.892 
35 1 2.099 10.892 12.605 
38 1 2.099 12.605 10.892 
47 1 4.372 8.62 8.62 
48 1 3.489 9.502 9.502 
49 1 4.184 7.094 8.807 
54 1 4.184 8.807 7.094 
60 1 5.897 8.807 8.807 
7 1 11.08 1.912 1.912 
8 1 10.197 2.794 2.795 
9 1 10.893 0.386 2.099 
14 1 10.893 2.099 0.386 
20 1 12.606 2.099 2.099 
70 1 8.62 4.372 4.372 
71 1 9.502 3.489 3.489 
72 1 7.094 4.185 4.185 
75 1 8.807 4.185 5.897 
78 1 8.807 5.898 4.185 
27 1 11.08 1.912 11.079 
28 1 10.197 2.794 10.197 
29 1 12.606 2.099 10.892 
34 1 10.893 2.099 12.605 
40 1 10.893 0.386 10.892 
50 1 8.62 4.372 8.62 
51 1 9.502 3.489 9.502 
52 1 8.807 5.897 8.807 
55 1 8.807 4.185 7.094 
58 1 7.094 4.185 8.807 
24 1 11.08 11.08 1.912 
25 1 10.197 10.197 2.795 
26 1 12.606 10.892 2.099 
36 1 10.893 10.892 0.386 
39 1 10.893 12.605 2.099 
44 1 8.62 8.62 4.372 
45 1 9.502 9.502 3.489 
46 1 8.807 7.094 4.185 
56 1 8.807 8.807 5.898 
59 1 7.094 8.807 4.185 
1 1 11.08 11.079 11.079 
2 1 10.197 10.197 10.197 
3 1 10.893 12.605 10.892 
13 1 10.893 10.892 12.605 
17 1 12.606 10.892 10.892 
61 1 8.62 8.62 8.62 
62 1 9.502 9.502 9.502 
63 1 7.094 8.807 8.807 
73 1 8.807 8.807 7.094 
77 1 8.807 7.094 8.807 
81 2 10.893 12.605 12.242 
82 3 10.893 12.605 13.218 
ITEM: TIMESTEP
10
ITEM: NUMBER OF ATOMS
82
ITEM: BOX BOUNDS pp pp pp
0.0000000000000000e+00 1.3416000000000000e+01
0.0000000000000000e+00 1.3416000000000000e+01
0.0000000000000000e+00 1.3414999999999999e+01
ITEM: ATOMS id type x y z 
21 1 1.91089 1.91056 1.91117 
22 1 2.79684 2.79684 2.79703 
23 1 0.38354 2.10277 2.10291 
33 1 2.10189 2.10289 0.384472 
37 1 2.10288 0.384292 2.10281 
41 1 4.37231 4.37276 4.3728 
42 1 3.48614 3.48642 3.48704 
43 1 4.18024 5.899 4.18106 
53 1 4.18108 4.18111 5.89929 
57 1 5.89894 4.18114 4.18113 
4 1 1.9125 1.9103 11.0803 
5 1 2.79709 2.7967 10.1943 
6 1 2.10294 0.384726 10.8882 
16 1 2.10194 2.1028 12.6065 
19 1 0.387651 2.10408 10.8886 
64 1 4.37231 4.37287 8.619 
65 1 3.48622 3.48656 9.50459 
66 1 5.89894 4.18112 8.81089 
76 1 4.18108 4.18111 7.09261 
79 1 4.18008 5.89912 8.81088 
10 1 1.90956 11.0803 1.91157 
11 1 2.79639 10.1943 2.79701 
12 1 2.10274 12.6067 2.10293 
15 1 2.10282 10.8881 0.385531 
18 1 0.381839 10.8875 2.10157 
67 1 4.37288 8.61875 4.37225 
68 1 3.48639 9.50495 3.48673 
69 1 5.89895 8.81086 4.18104 
74 1 4.18095 8.81076 5.89895 
80 1 4.18099 7.09231 4.18115 
30 1 1.90926 11.08 11.0799 
31 1 2.79665 10.194 10.1939 
32 1 0.388728 10.8892 10.8882 
35 1 2.10289 10.888 12.6061 
38 1 2.10285 12.6069 10.888 
47 1 4.3727 8.6187 8.61874 
48 1 3.48654 9.50455 9.50453 
49 1 4.18022 7.09233 8.81083 
54 1 4.18039 8.81091 7.09216 
60 1 5.89822 8.81085 8.81085 
7 1 11.0787 1.91165 1.91168 
8 1 10.1938 2.79687 2.79711 
9 1 10.8978 0.38513 2.12071 
14 1 10.8897 2.10472 0.389904 
20 1 12.6073 2.1026 2.10272 
70 1 8.61883 4.37285 4.3729 
71 1 9.50467 3.48673 3.48682 
72 1 7.09214 4.18116 4.18114 
75 1 8.8109 4.1811 5.89906 
78 1 8.81086 5.89923 4.18114 
27 1 11.0705 1.88514 11.0761 
28 1 10.1895 2.79946 10.1897 
29 1 12.6134 2.10427 10.8864 
34 1 10.8862 2.10478 12.6143 
40 1 10.9282 0.44157 10.8723 
50 1 8.61718 4.37449 8.61717 
51 1 9.50202 3.48977 9.50188 
52 1 8.81086 5.89855 8.81084 
55 1 8.8108 4.18117 7.09206 
58 1 7.09191 4.18117 8.8108 
24 1 11.0849 11.0922 1.96057 
25 1 10.1964 10.1943 2.80113 
26 1 12.6052 10.8913 2.10628 
36 1 10.8821 10.8631 0.40394 
39 1 10.8875 12.6138 2.15311 
44 1 8.61943 8.61978 4.37153 
45 1 9.50507 9.50417 3.48642 
46 1 8.81092 7.09247 4.18104 
56 1 8.81094 8.81094 5.89869 
59 1 7.09224 8.81095 4.18108 
1 1 11.102 11.0319 11.0403 
2 1 10.1964 10.189 10.1899 
3 1 10.8448 12.6367 10.806 
13 1 10.885 10.8243 12.5899 
17 1 12.6045 10.8871 10.8857 
61 1 8.62008 8.62075 8.62079 
62 1 9.50076 9.50134 9.50131 
63 1 7.09148 8.81112 8.81112 
73 1 8.8111 8.81111 7.09191 
77 1 8.81111 7.0916 8.81114 
81 2 10.8919 12.6404 12.2625 
82 3 10.8974 12.6162 13.2201 
ITEM: TIMESTEP
20
ITEM: NUMBER OF ATOMS
82
ITEM: BOX BOUNDS pp pp pp
0.0000000000000000e+00 1.3416000000000000e+01
0.0000000000000000e+00 1.3416000000000000e+01
0.0000000000000000e+00 1.3414999999999999e+01
ITEM: ATOMS id type x y z 
21 1 1.91087 1.90998 1.91076 
22 1 2.79603 2.79584 2.79588 
23 1 0.384372 2.11075 2.11093 
33 1 2.10977 2.11107 0.384009 
37 1 2.11104 0.38236 2.11071 
41 1 4.37231 4.37274 4.37283 
42 1 3.48639 3.48657 3.48751 
43 1 4.17216 5.8987 4.17266 
53 1 4.17273 4.17274 5.89865 
57 1 5.89853 4.1728 4.17276 
4 1 1.91736 1.90904 11.0832 
5 1 2.79808 2.79521 10.196 
6 1 2.112 0.381435 10.8809 
16 1 2.11046 2.11014 12.6056 
19 1 0.389749 2.11519 10.8808 
64 1 4.37178 4.37318 8.61873 
65 1 3.48626 3.48723 9.5033 
66 1 5.89675 4.17252 8.81955 
76 1 4.17268 4.17281 7.09288 
79 1 4.17175 5.89915 8.81927 
10 1 1.9049 11.0821 1.91088 
11 1 2.79481 10.1951 2.79606 
12 1 2.10993 12.6057 2.11046 
15 1 2.11076 10.8809 0.383615 
18 1 0.380999 10.878 2.10424 
67 1 4.37238 8.61873 4.37259 
68 1 3.48606 9.50501 3.48675 
69 1 5.89773 8.81926 4.17268 
74 1 4.17248 8.81897 5.89857 
80 1 4.17247 7.09299 4.17285 
30 1 1.9004 11.0822 11.0818 
31 1 2.79431 10.1944 10.1944 
32 1 0.382858 10.8853 10.8824 
35 1 2.10998 10.8815 12.607 
38 1 2.10964 12.6059 10.8812 
47 1 4.3722 8.61819 8.61801 
48 1 3.4857 9.5042 9.50416 
49 1 4.17198 7.09299 8.81898 
54 1 4.17239 8.81909 7.0925 
60 1 5.8983 8.81923 8.81924 
7 1 11.0794 1.91306 1.91721 
8 1 10.1934 2.79779 2.79831 
9 1 10.9045 0.393576 2.17079 
14 1 10.8796 2.11656 0.390798 
20 1 12.6063 2.11082 2.11104 
70 1 8.61791 4.37319 4.37276 
71 1 9.50184 3.48894 3.48844 
72 1 7.09224 4.17287 4.17283 
75 1 8.81952 4.1724 5.89722 
78 1 8.81931 5.8985 4.17281 
27 1 11.0889 1.92223 11.0871 
28 1 10.1882 2.80017 10.1886 
29 1 12.6126 2.11778 10.8787 
34 1 10.8765 2.11673 12.6118 
40 1 10.9287 0.399322 10.8007 
50 1 8.61243 4.37835 8.61251 
51 1 9.49793 3.49166 9.49825 
52 1 8.81935 5.90157 8.81917 
55 1 8.81898 4.17289 7.09045 
58 1 7.09024 4.17293 8.81892 
24 1 11.0876 11.1115 2.00745 
25 1 10.2033 10.1988 2.81196 
26 1 12.602 10.8908 2.12462 
36 1 10.8728 10.8185 0.3692 
39 1 10.8764 12.6185 2.24863 
44 1 8.61805 8.61879 4.36942 
45 1 9.50088 9.49658 3.49083 
46 1 8.81945 7.09198 4.17216 
56 1 8.81973 8.81967 5.89999 
59 1 7.09169 8.81963 4.17217 
1 1 11.1018 11.0422 11.0152 
2 1 10.2162 10.1859 10.1875 
3 1 10.8124 12.6509 10.5871 
13 1 10.8834 10.7273 12.5768 
17 1 12.6021 10.8793 10.874 
61 1 8.61925 8.62242 8.62186 
62 1 9.49828 9.4993 9.50051 
63 1 7.08973 8.82009 8.82007 
73 1 8.81985 8.82007 7.09078 
77 1 8.82009 7.0927 8.82035 
81 2 10.8866 12.6724 12.3684 
82 3 10.9132 12.626 13.2644 
ITEM: TIMESTEP
30
ITEM: NUMBER OF ATOMS
82
ITEM: BOX BOUNDS pp pp pp
0.0000000000000000e+00 1.3416000000000000e+01
0.0000000000000000e+00 1.3416000000000000e+01
0.0000000000000000e+00 1.3414999999999999e+01
ITEM: ATOMS id type x y z 
21 1 1.91143 1.9095 1.91042 
22 1 2.79533 2.79482 2.79605 
23 1 0.382951 2.1138 2.11384 
33 1 2.11287 2.11403 0.384984 
37 1 2.11418 0.3828 2.11358 
41 1 4.37154 4.37268 4.37236 
42 1 3.48694 3.48715 3.48702 
43 1 4.16898 5.89922 4.16946 
53 1 4.16951 4.16945 5.89922 
57 1 5.89755 4.16949 4.16955 
4 1 1.91279 1.90875 11.0819 
5 1 2.79745 2.79477 10.1961 
6 1 2.11572 0.381256 10.8785 
16 1 2.11395 2.11322 12.6063 
19 1 0.384807 2.11716 10.8775 
64 1 4.37089 4.37357 8.61828 
65 1 3.4876 3.48717 9.50399 
66 1 5.8964 4.16914 8.82296 
76 1 4.16933 4.16965 7.09211 
79 1 4.16845 5.89953 8.82241 
10 1 1.90081 11.0797 1.90943 
11 1 2.79283 10.1961 2.79566 
12 1 2.11196 12.6047 2.11321 
15 1 2.11343 10.8788 0.383664 
18 1 0.374248 10.877 2.10654 
67 1 4.37113 8.61898 4.37275 
68 1 3.48536 9.5049 3.48611 
69 1 5.89798 8.82268 4.16948 
74 1 4.16936 8.82223 5.89867 
80 1 4.16929 7.09275 4.16958 
30 1 1.89639 11.0805 11.0812 
31 1 2.79188 10.1953 10.1953 
32 1 0.372603 10.8822 10.8824 
35 1 2.11196 10.8792 12.6069 
38 1 2.11134 12.605 10.8785 
47 1 4.37149 8.61906 8.61867 
48 1 3.4844 9.50489 9.50477 
49 1 4.1687 7.09247 8.82218 
54 1 4.16914 8.82218 7.0916 
60 1 5.89818 8.82251 8.8225 
7 1 11.0801 1.91253 1.91199 
8 1 10.1946 2.79751 2.79735 
9 1 10.9056 0.390434 2.1951 
14 1 10.875 2.11692 0.384912 
20 1 12.606 2.11421 2.11393 
70 1 8.61723 4.37261 4.37224 
71 1 9.50225 3.48898 3.48879 
72 1 7.09131 4.16951 4.16931 
75 1 8.82309 4.1688 5.89718 
78 1 8.82277 5.89952 4.16925 
27 1 11.0831 1.9122 11.0854 
28 1 10.1949 2.79658 10.1962 
29 1 12.6085 2.12099 10.8796 
34 1 10.8766 2.11788 12.6072 
40 1 10.9257 0.379725 10.7635 
50 1 8.61502 4.37507 8.61529 
51 1 9.50274 3.48615 9.50321 
52 1 8.82227 5.90179 8.82199 
55 1 8.82185 4.16993 7.09119 
58 1 7.08955 4.17003 8.82173 
24 1 11.084 11.1116 1.99791 
25 1 10.2086 10.2057 2.81449 
26 1 12.5952 10.892 2.12927 
36 1 10.8839 10.8154 0.356797 
39 1 10.8753 12.6158 2.27284 
44 1 8.61855 8.61944 4.36901 
45 1 9.50531 9.49888 3.48798 
46 1 8.82257 7.09264 4.16865 
56 1 8.82289 8.82274 5.89983 
59 1 7.09133 8.82273 4.16856 
1 1 11.0845 11.0852 11.0099 
2 1 10.22 10.1903 10.1851 
3 1 10.8314 12.6225 10.5803 
13 1 10.8862 10.7335 12.5624 
17 1 12.5943 10.883 10.87 
61 1 8.61985 8.62439 8.62421 
62 1 9.50585 9.49933 9.50417 
63 1 7.09157 8.82345 8.82333 
73 1 8.82287 8.82348 7.09195 
77 1 8.82323 7.09579 8.82376 
81 2 10.8883 12.6815 12.3792 
82 3 10.9189 12.6149 13.2863 
ITEM: TIMESTEP
37
ITEM: NUMBER OF ATOMS
82
ITEM: BOX BOUNDS pp pp pp
0.0000000000000000e+00 1.3416000000000000e+01
0.0000000000000000e+00 1.3416000000000000e+01
0.0000000000000000e+00 1.3414999999999999e+01
ITEM: ATOMS id type x y z 
21 1 1.91127 1.90935 1.91053 
22 1 2.79543 2.79488 2.7959 
23 1 0.382999 2.11397 2.11401 
33 1 2.11309 2.1142 0.385244 
37 1 2.11437 0.38202 2.11374 
41 1 4.37154 4.37267 4.3722 
42 1 3.4868 3.48703 3.48712 
43 1 4.16877 5.89902 4.16924 
53 1 4.16927 4.16922 5.89865 
57 1 5.89749 4.16927 4.16932 
4 1 1.91275 1.90874 11.0818 
5 1 2.79737 2.79477 10.1961 
6 1 2.11591 0.381864 10.8783 
16 1 2.11414 2.11344 12.6061 
19 1 0.385231 2.11741 10.8774 
64 1 4.37087 4.37348 8.61834 
65 1 3.48754 3.48712 9.50413 
66 1 5.89622 4.16893 8.82317 
76 1 4.1691 4.16943 7.09271 
79 1 4.16822 5.89914 8.82262 
10 1 1.90044 11.0798 1.90949 
11 1 2.79271 10.196 2.79559 
12 1 2.11205 12.6053 2.11334 
15 1 2.11356 10.8786 0.384236 
18 1 0.374117 10.877 2.10676 
67 1 4.37108 8.61902 4.37262 
68 1 3.48524 9.50505 3.48611 
69 1 5.89782 8.82289 4.16926 
74 1 4.16913 8.82245 5.89826 
80 1 4.16907 7.093 4.16937 
30 1 1.8965 11.0804 11.081 
31 1 2.7917 10.1953 10.1953 
32 1 0.373461 10.8819 10.8824 
35 1 2.1121 10.879 12.6064 
38 1 2.11149 12.6044 10.8783 
47 1 4.37144 8.61913 8.61872 
48 1 3.48432 9.50493 9.5048 
49 1 4.1685 7.09302 8.82239 
54 1 4.16894 8.82239 7.09212 
60 1 5.89813 8.82271 8.8227 
7 1 11.0801 1.91216 1.91212 
8 1 10.1946 2.79747 2.79722 
9 1 10.9056 0.390367 2.19663 
14 1 10.8748 2.117 0.385456 
20 1 12.6059 2.11445 2.11402 
70 1 8.61728 4.3726 4.37234 
71 1 9.50235 3.48884 3.48861 
72 1 7.09133 4.1693 4.16909 
75 1 8.82328 4.16859 5.8974 
78 1 8.82297 5.89938 4.16902 
27 1 11.0831 1.91069 11.0848 
28 1 10.1951 2.79639 10.1964 
29 1 12.6072 2.12102 10.8796 
34 1 10.8765 2.11771 12.6059 
40 1 10.9251 0.380075 10.762 
50 1 8.61522 4.37491 8.61553 
51 1 9.503 3.48603 9.5035 
52 1 8.82243 5.90213 8.82213 
55 1 8.82202 4.16976 7.09119 
58 1 7.09003 4.16986 8.82189 
24 1 11.0838 11.1117 1.99776 
25 1 10.2088 10.206 2.81465 
26 1 12.5947 10.8921 2.12944 
36 1 10.8846 10.8152 0.356208 
39 1 10.8753 12.6159 2.27446 
44 1 8.61867 8.6196 4.36889 
45 1 9.50555 9.49896 3.48795 
46 1 8.82278 7.09288 4.16843 
56 1 8.82308 8.82293 5.8998 
59 1 7.09157 8.82294 4.16834 
1 1 11.0839 11.0864 11.0097 
2 1 10.2195 10.1903 10.1846 
3 1 10.8325 12.6224 10.5795 
13 1 10.8862 10.7336 12.5623 
17 1 12.593 10.8833 10.8696 
61 1 8.61984 8.6243 8.62425 
62 1 9.50607 9.49897 9.50386 
63 1 7.09172 8.82367 8.82355 
73 1 8.82304 8.8237 7.09209 
77 1 8.8234 7.09539 8.82396 
81 2 10.8885 12.6822 12.3802 
82 3 10.9193 12.6145 13.2867 
ITEM: TIMESTEP
38
ITEM: NUMBER OF ATOMS
82
ITEM: BOX BOUNDS pp pp pp
0.0000000000000000e+00 1.3416000000000000e+01
0.0000000000000000e+00 1.3416000000000000e+01
0.0000000000000000e+00 1.3414999999999999e+01
ITEM: ATOMS id type x y z 
21 1 1.91127 1.90935 1.91053 
22 1 2.79543 2.79488 2.7959 
23 1 0.382999 2.11397 2.11401 
33 1 2.11309 2.1142 0.385244 
37 1 2.11437 0.38202 2.11374 
41 1 4.37154 4.37267 4.3722 
42 1 3.4868 3.48703 3.48712 
43 1 4.16877 5.89902 4.16924 
53 1 4.16927 4.16922 5.89865 
57 1 5.89749 4.16927 4.16932 
4 1 1.91275 1.90874 11.0818 
5 1 2.79737 2.79477 10.1961 
6 1 2.11591 0.381864 10.8783 
16 1 2.11414 2.11344 12.6061 
19 1 0.385231 2.11741 10.8774 
64 1 4.37087 4.37348 8.61834 
65 1 3.48754 3.48712 9.50413 
66 1 5.89622 4.16893 8.82317 
76 1 4.1691 4.16943 7.09271 
79 1 4.16822 5.89914 8.82262 
10 1 1.90044 11.0798 1.90949 
11 1 2.79271 10.196 2.79559 
12 1 2.11205 12.6053 2.11334 
15 1 2.11356 10.8786 0.384236 
18 1 0.374117 10.877 2.10676 
67 1 4.37108 8.61902 4.37262 
68 1 3.48524 9.50505 3.48611 
69 1 5.89782 8.82289 4.16926 
74 1 4.16913 8.82245 5.89826 
80 1 4.16907 7.093 4.16937 
30 1 1.8965 11.0804 11.081 
31 1 2.7917 10.1953 10.1953 
32 1 0.373461 10.8819 10.8824 
35 1 2.1121 10.879 12.6064 
38 1 2.11149 12.6044 10.8783 
47 1 4.37144 8.61913 8.61872 
48 1 3.48432 9.50493 9.5048 
49 1 4.1685 7.09302 8.82239 
54 1 4.16894 8.82239 7.09212 
60 1 5.89813 8.82271 8.8227 
7 1 11.0801 1.91216 1.91212 
8 1 10.1946 2.79747 2.79722 
9 1 10.9056 0.390367 2.19663 
14 1 10.8748 2.117 0.385456 
20 1 12.6059 2.11445 2.11402 
70 1 8.61728 4.3726 4.37234 
71 1 9.50235 3.48884 3.48861 
72 1 7.09133 4.1693 4.16909 
75 1 8.82328 4.16859 5.8974 
78 1 8.82297 5.89938 4.16902 
27 1 11.0831 1.91069 11.0848 
28 1 10.1951 2.79639 10.1964 
29 1 12.6072 2.12102 10.8796 
34 1 10.8765 2.11771 12.6059 
40 1 10.9251 0.380075 10.762 
50 1 8.61522 4.37491 8.61553 
51 1 9.503 3.48603 9.5035 
52 1 8.82243 5.90213 8.82213 
55 1 8.82202 4.16976 7.09119 
58 1 7.09003 4.16986 8.82189 
24 1 11.0838 11.1117 1.99776 
25 1 10.2088 10.206 2.81465 
26 1 12.5947 10.8921 2.12944 
36 1 10.8846 10.8152 0.356208 
39 1 10.8753 12.6159 2.27446 
44 1 8.61867 8.6196 4.36889 
45 1 9.50555 9.49896 3.48795 
46 1 8.82278 7.09288 4.16843 
56 1 8.82308 8.82293 5.8998 
59 1 7.09157 8.82294 4.16834 
1 1 11.0839 11.0864 11.0097 
2 1 10.2195 10.1903 10.1846 
3 1 10.8325 12.6224 10.5795 
13 1 10.8862 10.7336 12.5623 
17 1 12.593 10.8833 10.8696 
61 1 8.61984 8.6243 8.62425 
62 1 9.50607 9.49897 9.50386 
63 1 7.09172 8.82367 8.82355 
73 1 8.82304 8.8237 7.09209 
77 1 8.8234 7.09539 8.82396 
81 2 10.8885 12.6822 12.3802 
82 3 10.9193 12.6145 13.2867 
ITEM: TIMESTEP
40
ITEM: NUMBER OF ATOMS
82
ITEM: BOX BOUNDS pp pp pp
3.1443750000000002e-05 1.3415968556250000e+01
1.3508236165320313e-05 1.3415986491763835e+01
-3.5377094556126845e-06 1.3415003537709456e+01
ITEM: ATOMS id type x y z 
21 1 1.91129 1.90936 1.91052 
22 1 2.79545 2.79489 2.7959 
23 1 0.383028 2.11398 2.11401 
33 1 2.11311 2.11421 0.385241 
37 1 2.11439 0.382033 2.11373 
41 1 4.37155 4.37268 4.3722 
42 1 3.48682 3.48704 3.48712 
43 1 4.16878 5.89902 4.16924 
53 1 4.16928 4.16922 5.89865 
57 1 5.8975 4.16927 4.16932 
4 1 1.91277 1.90875 11.0818 
5 1 2.79739 2.79478 10.1961 
6 1 2.11593 0.381876 10.8783 
16 1 2.11416 2.11345 12.6061 
19 1 0.38526 2.11741 10.8774 
64 1 4.37088 4.37348 8.61834 
65 1 3.48755 3.48713 9.50413 
66 1 5.89623 4.16894 8.82317 
76 1 4.16911 4.16943 7.09271 
79 1 4.16823 5.89915 8.82262 
10 1 1.90046 11.0798 1.90949 
11 1 2.79273 10.196 2.79559 
12 1 2.11207 12.6053 2.11334 
15 1 2.11358 10.8786 0.384232 
18 1 0.374147 10.877 2.10675 
67 1 4.3711 8.61902 4.37262 
68 1 3.48526 9.50505 3.48611 
69 1 5.89783 8.82289 4.16926 
74 1 4.16914 8.82244 5.89826 
80 1 4.16908 7.093 4.16937 
30 1 1.89652 11.0804 11.081 
31 1 2.79172 10.1953 10.1953 
32 1 0.37349 10.8819 10.8824 
35 1 2.11212 10.879 12.6064 
38 1 2.11151 12.6044 10.8783 
47 1 4.37145 8.61913 8.61872 
48 1 3.48434 9.50493 9.50481 
49 1 4.16851 7.09302 8.82239 
54 1 4.16896 8.82239 7.09212 
60 1 5.89814 8.82271 8.8227 
7 1 11.0801 1.91217 1.91212 
8 1 10.1946 2.79748 2.79722 
9 1 10.9056 0.390379 2.19663 
14 1 10.8748 2.11701 0.385452 
20 1 12.6059 2.11446 2.11402 
70 1 8.61727 4.3726 4.37234 
71 1 9.50233 3.48885 3.48861 
72 1 7.09132 4.1693 4.16909 
75 1 8.82327 4.1686 5.89739 
78 1 8.82296 5.89938 4.16902 
27 1 11.0831 1.9107 11.0848 
28 1 10.1951 2.7964 10.1964 
29 1 12.6072 2.12103 10.8796 
34 1 10.8764 2.11772 12.6059 
40 1 10.9251 0.380088 10.762 
50 1 8.61521 4.37492 8.61553 
51 1 9.50299 3.48604 9.5035 
52 1 8.82242 5.90213 8.82214 
55 1 8.82201 4.16977 7.09119 
58 1 7.09003 4.16986 8.82189 
24 1 11.0838 11.1117 1.99775 
25 1 10.2088 10.206 2.81465 
26 1 12.5947 10.892 2.12944 
36 1 10.8846 10.8152 0.356204 
39 1 10.8753 12.6159 2.27446 
44 1 8.61866 8.61959 4.36889 
45 1 9.50554 9.49896 3.48795 
46 1 8.82277 7.09288 4.16843 
56 1 8.82307 8.82293 5.8998 
59 1 7.09156 8.82293 4.16833 
1 1 11.0839 11.0864 11.0097 
2 1 10.2195 10.1903 10.1846 
3 1 10.8325 12.6223 10.5795 
13 1 10.8861 10.7336 12.5623 
17 1 12.5929 10.8833 10.8696 
61 1 8.61983 8.6243 8.62425 
62 1 9.50606 9.49896 9.50386 
63 1 7.09172 8.82367 8.82355 
73 1 8.82303 8.82369 7.09209 
77 1 8.82339 7.09539 8.82396 
81 2 10.8885 12.6822 12.3802 
82 3 10.9192 12.6145 13.2867 
ITEM: TIMESTEP
45
ITEM: NUMBER OF ATOMS
82
ITEM: BOX BOUNDS pp pp pp
5.3061328125000009e-05 1.3415946938671874e+01
2.2635697666546231e-05 1.3415977364302334e+01
-6.1899139989044279e-06 1.3415006189914001e+01
ITEM: ATOMS id type x y z 
21 1 1.91131 1.90937 1.91052 
22 1 2.79546 2.7949 2.7959 
23 1 0.383048 2.11399 2.11401 
33 1 2.11313 2.11421 0.385238 
37 1 2.11441 0.382041 2.11373 
41 1 4.37155 4.37268 4.3722 
42 1 3.48683 3.48704 3.48712 
43 1 4.16879 5.89902 4.16924 
53 1 4.16929 4.16923 5.89865 
57 1 5.8975 4.16928 4.16932 
4 1 1.91279 1.90875 11.0818 
5 1 2.7974 2.79479 10.1961 
6 1 2.11595 0.381885 10.8783 
16 1 2.11417 2.11345 12.6061 
19 1 0.38528 2.11742 10.8774 
64 1 4.37089 4.37348 8.61834 
65 1 3.48756 3.48713 9.50413 
66 1 5.89623 4.16894 8.82317 
76 1 4.16912 4.16944 7.09271 
79 1 4.16824 5.89915 8.82262 
10 1 1.90048 11.0798 1.90949 
11 1 2.79274 10.196 2.79559 
12 1 2.11208 12.6053 2.11334 
15 1 2.11359 10.8786 0.384229 
18 1 0.374167 10.877 2.10675 
67 1 4.3711 8.61901 4.37262 
68 1 3.48527 9.50504 3.48611 
69 1 5.89783 8.82288 4.16926 
74 1 4.16915 8.82244 5.89826 
80 1 4.16909 7.093 4.16937 
30 1 1.89653 11.0804 11.081 
31 1 2.79173 10.1953 10.1953 
32 1 0.37351 10.8819 10.8824 
35 1 2.11214 10.879 12.6064 
38 1 2.11152 12.6044 10.8783 
47 1 4.37145 8.61912 8.61872 
48 1 3.48435 9.50493 9.50481 
49 1 4.16852 7.09302 8.82239 
54 1 4.16896 8.82238 7.09212 
60 1 5.89814 8.82271 8.8227 
7 1 11.0801 1.91217 1.91212 
8 1 10.1946 2.79749 2.79722 
9 1 10.9056 0.390388 2.19662 
14 1 10.8748 2.11702 0.385449 
20 1 12.6059 2.11447 2.11402 
70 1 8.61726 4.37261 4.37234 
71 1 9.50232 3.48885 3.48861 
72 1 7.09132 4.1693 4.16909 
75 1 8.82327 4.1686 5.89739 
78 1 8.82295 5.89938 4.16902 
27 1 11.0831 1.91071 11.0848 
28 1 10.1951 2.7964 10.1964 
29 1 12.6072 2.12103 10.8796 
34 1 10.8764 2.11773 12.6059 
40 1 10.9251 0.380097 10.762 
50 1 8.6152 4.37492 8.61553 
51 1 9.50298 3.48604 9.5035 
52 1 8.82241 5.90213 8.82214 
55 1 8.82201 4.16977 7.09119 
58 1 7.09002 4.16987 8.82189 
24 1 11.0837 11.1116 1.99775 
25 1 10.2088 10.206 2.81465 
26 1 12.5947 10.892 2.12943 
36 1 10.8846 10.8152 0.356202 
39 1 10.8753 12.6159 2.27446 
44 1 8.61865 8.61959 4.36889 
45 1 9.50553 9.49895 3.48795 
46 1 8.82276 7.09288 4.16843 
56 1 8.82306 8.82292 5.8998 
59 1 7.09156 8.82293 4.16833 
1 1 11.0839 11.0864 11.0097 
2 1 10.2195 10.1903 10.1846 
3 1 10.8325 12.6223 10.5795 
13 1 10.8861 10.7336 12.5623 
17 1 12.5929 10.8833 10.8696 
61 1 8.61983 8.62429 8.62425 
62 1 9.50605 9.49896 9.50387 
63 1 7.09172 8.82366 8.82355 
73 1 8.82303 8.82369 7.09209 
77 1 8.82338 7.09539 8.82396 
81 2 10.8885 12.6822 12.3802 
82 3 10.9192 12.6145 13.2867 
ITEM: TIMESTEP
46
ITEM: NUMBER OF ATOMS
82
ITEM: BOX BOUNDS pp pp pp
5.3061328125000009e-05 1.3415946938671874e+01
2.2635697666546231e-05 1.3415977364302334e+01
-6.1899139989044279e-06 1.3415006189914001e+01
ITEM: ATOMS id type x y z 
21 1 1.91131 1.90937 1.91052 
22 1 2.79546 2.7949 2.7959 
23 1 0.383048 2.11399 2.11401 
33 1 2.11313 2.11421 0.385238 
37 1 2.11441 0.382041 2.11373 
41 1 4.37155 4.37268 4.3722 
42 1 3.48683 3.48704 3.48712 
43 1 4.16879 5.89902 4.16924 
53 1 4.16929 4.16923 5.89865 
57 1 5.8975 4.16928 4.16932 
4 1 1.91279 1.90875 11.0818 
5 1 2.7974 2.79479 10.1961 
6 1 2.11595 0.381885 10.8783 
16 1 2.11417 2.11345 12.6061 
19 1 0.38528 2.11742 10.8774 
64 1 4.37089 4.37348 8.61834 
65 1 3.48756 3.48713 9.50413 
66 1 5.89623 4.16894 8.82317 
76 1 4.16912 4.16944 7.09271 
79 1 4.16824 5.89915 8.82262 
10 1 1.90048 11.0798 1.90949 
11 1 2.79274 10.196 2.79559 
12 1 2.11208 12.6053 2.11334 
15 1 2.11359 10.8786 0.384229 
18 1 0.374167 10.877 2.10675 
67 1 4.3711 8.61901 4.37262 
68 1 3.48527 9.50504 3.48611 
69 1 5.89783 8.82288 4.16926 
74 1 4.16915 8.82244 5.89826 
80 1 4.16909 7.093 4.16937 
30 1 1.89653 11.0804 11.081 
31 1 2.79173 10.1953 10.1953 
32 1 0.37351 10.8819 10.8824 
35 1 2.11214 10.879 12.6064 
38 1 2.11152 12.6044 10.8783 
47 1 4.37145 8.61912 8.61872 
48 1 3.48435 9.50493 9.50481 
49 1 4.16852 7.09302 8.82239 
54 1 4.16896 8.82238 7.09212 
60 1 5.89814 8.82271 8.8227 
7 1 11.0801 1.91217 1.91212 
8 1 10.1946 2.79749 2.79722 
9 1 10.9056 0.390388 2.19662 
14 1 10.8748 2.11702 0.385449 
20 1 12.6059 2.11447 2.11402 
70 1 8.61726 4.37261 4.37234 
71 1 9.50232 3.48885 3.48861 
72 1 7.09132 4.1693 4.16909 
75 1 8.82327 4.1686 5.89739 
78 1 8.82295 5.89938 4.16902 
27 1 11.0831 1.91071 11.0848 
28 1 10.1951 2.7964 10.1964 
29 1 12.6072 2.12103 10.8796 
34 1 10.8764 2.11773 12.6059 
40 1 10.9251 0.380097 10.762 
50 1 8.6152 4.37492 8.61553 
51 1 9.50298 3.48604 9.5035 
52 1 8.82241 5.90213 8.82214 
55 1 8.82201 4.16977 7.09119 
58 1 7.09002 4.16987 8.82189 
24 1 11.0837 11.1116 1.99775 
25 1 10.2088 10.206 2.81465 
26 1 12.5947 10.892 2.12943 
36 1 10.8846 10.8152 0.356202 
39 1 10.8753 12.6159 2.27446 
44 1 8.61865 8.61959 4.36889 
45 1 9.50553 9.49895 3.48795 
46 1 8.82276 7.09288 4.16843 
56 1 8.82306 8.82292 5.8998 
59 1 7.09156 8.82293 4.16833 
1 1 11.0839 11.0864 11.0097 
2 1 10.2195 10.1903 10.1846 
3 1 10.8325 12.6223 10.5795 
13 1 10.8861 10.7336 12.5623 
17 1 12.5929 10.8833 10.8696 
61 1 8.61983 8.62429 8.62425 
62 1 9.50605 9.49896 9.50387 
63 1 7.09172 8.82366 8.82355 
73 1 8.82303 8.82369 7.09209 
77 1 8.82338 7.09539 8.82396 
81 2 10.8885 12.6822 12.3802 
82 3 10.9192 12.6145 13.2867 
ITEM: TIMESTEP
47
ITEM: NUMBER OF ATOMS
82
ITEM: BOX BOUNDS pp pp pp
5.3388864596614847e-05 1.3415946611135404e+01
2.2772156412338893e-05 1.3415977227843587e+01
-6.2318971279258179e-06 1.3415006231897131e+01
ITEM: ATOMS id type x y z 
21 1 1.91131 1.90937 1.91052 
22 1 2.79546 2.7949 2.7959 
23 1 0.383049 2.11399 2.11401 
33 1 2.11313 2.11421 0.385238 
37 1 2.11441 0.382041 2.11373 
41 1 4.37155 4.37268 4.3722 
42 1 3.48683 3.48704 3.48712 
43 1 4.16879 5.89902 4.16924 
53 1 4.16929 4.16923 5.89865 
57 1 5.8975 4.16928 4.16932 
4 1 1.91279 1.90875 11.0818 
5 1 2.7974 2.79479 10.1961 
6 1 2.11595 0.381885 10.8783 
16 1 2.11417 2.11345 12.6061 
19 1 0.385281 2.11742 10.8774 
64 1 4.37089 4.37348 8.61834 
65 1 3.48756 3.48713 9.50413 
66 1 5.89623 4.16894 8.82317 
76 1 4.16912 4.16944 7.09271 
79 1 4.16824 5.89915 8.82262 
10 1 1.90048 11.0798 1.90949 
11 1 2.79274 10.196 2.79559 
12 1 2.11208 12.6053 2.11334 
15 1 2.11359 10.8786 0.384229 
18 1 0.374167 10.877 2.10675 
67 1 4.3711 8.61901 4.37262 
68 1 3.48527 9.50504 3.48611 
69 1 5.89783 8.82288 4.16926 
74 1 4.16915 8.82244 5.89826 
80 1 4.16909 7.093 4.16937 
30 1 1.89653 11.0804 11.081 
31 1 2.79173 10.1953 10.1953 
32 1 0.373511 10.8819 10.8824 
35 1 2.11214 10.879 12.6064 
38 1 2.11152 12.6044 10.8783 
47 1 4.37145 8.61912 8.61872 
48 1 3.48435 9.50493 9.50481 
49 1 4.16852 7.09302 8.82239 
54 1 4.16896 8.82238 7.09212 
60 1 5.89814 8.82271 8.8227 
7 1 11.0801 1.91217 1.91212 
8 1 10.1946 2.79749 2.79722 
9 1 10.9056 0.390388 2.19662 
14 1 10.8748 2.11702 0.385449 
20 1 12.6059 2.11447 2.11402 
70 1 8.61726 4.37261 4.37234 
71 1 9.50232 3.48885 3.48861 
72 1 7.09132 4.1693 4.16909 
75 1 8.82327 4.1686 5.89739 
78 1 8.82295 5.89938 4.16902 
27 1 11.0831 1.91071 11.0848 
28 1 10.1951 2.7964 10.1964 
29 1 12.6072 2.12103 10.8796 
34 1 10.8764 2.11773 12.6059 
40 1 10.9251 0.380097 10.762 
50 1 8.6152 4.37492 8.61553 
51 1 9.50298 3.48604 9.5035 
52 1 8.82241 5.90213 8.82214 
55 1 8.82201 4.16977 7.09119 
58 1 7.09002 4.16987 8.82189 
24 1 11.0837 11.1116 1.99775 
25 1 10.2088 10.206 2.81465 
26 1 12.5947 10.892 2.12943 
36 1 10.8846 10.8152 0.356202 
39 1 10.8753 12.6159 2.27446 
44 1 8.61865 8.61959 4.36889 
45 1 9.50553 9.49895 3.48795 
46 1 8.82276 7.09288 4.16843 
56 1 8.82306 8.82292 5.8998 
59 1 7.09156 8.82293 4.16833 
1 1 11.0839 11.0864 11.0097 
2 1 10.2195 10.1903 10.1846 
3 1 10.8325 12.6223 10.5795 
13 1 10.8861 10.7336 12.5623 
17 1 12.5929 10.8833 10.8696 
61 1 8.61983 8.62429 8.62425 
62 1 9.50605 9.49896 9.50387 
63 1 7.09172 8.82366 8.82355 
73 1 8.82303 8.82369 7.09209 
77 1 8.82338 7.09539 8.82396 
81 2 10.8885 12.6822 12.3802 
82 3 10.9192 12.6145 13.2867 
ITEM: TIMESTEP
48
ITEM: NUMBER OF ATOMS
82
ITEM: BOX BOUNDS pp pp pp
5.3388864596614847e-05 1.3415946611135404e+01
2.2772156412338893e-05 1.3415977227843587e+01
-6.2318971279258179e-06 1.3415006231897131e+01
ITEM: ATOMS id type x y z 
21 1 1.91131 1.90937 1.91052 
22 1 2.79546 2.7949 2.7959 
23 1 0.383049 2.11399 2.11401 
33 1 2.11313 2.11421 0.385238 
37 1 2.11441 0.382041 2.11373 
41 1 4.37155 4.37268 4.3722 
42 1 3.48683 3.48704 3.48712 
43 1 4.16879 5.89902 4.16924 
53 1 4.16929 4.16923 5.89865 
57 1 5.8975 4.16928 4.16932 
4 1 1.91279 1.90875 11.0818 
5 1 2.7974 2.79479 10.1961 
6 1 2.11595 0.381885 10.8783 
16 1 2.11417 2.11345 12.6061 
19 1 0.385281 2.11742 10.8774 
64 1 4.37089 4.37348 8.61834 
65 1 3.48756 3.48713 9.50413 
66 1 5.89623 4.16894 8.82317 
76 1 4.16912 4.16944 7.09271 
79 1 4.16824 5.89915 8.82262 
10 1 1.90048 11.0798 1.90949 
11 1 2.79274 10.196 2.79559 
12 1 2.11208 12.6053 2.11334 
15 1 2.11359 10.8786 0.384229 
18 1 0.374167 10.877 2.10675 
67 1 4.3711 8.61901 4.37262 
68 1 3.48527 9.50504 3.48611 
69 1 5.89783 8.82288 4.16926 
74 1 4.16915 8.82244 5.89826 
80 1 4.16909 7.093 4.16937 
30 1 1.89653 11.0804 11.081 
31 1 2.79173 10.1953 10.1953 
32 1 0.373511 10.8819 10.8824 
35 1 2.11214 10.879 12.6064 
38 1 2.11152 12.6044 10.8783 
47 1 4.37145 8.61912 8.61872 
48 1 3.48435 9.50493 9.50481 
49 1 4.16852 7.09302 8.82239 
54 1 4.16896 8.82238 7.09212 
60 1 5.89814 8.82271 8.8227 
7 1 11.0801 1.91217 1.91212 
8 1 10.1946 2.79749 2.79722 
9 1 10.9056 0.390388 2.19662 
14 1 10.8748 2.11702 0.385449 
20 1 12.6059 2.11447 2.11402 
70 1 8.61726 4.37261 4.37234 
71 1 9.50232 3.48885 3.48861 
72 1 7.09132 4.1693 4.16909 
75 1 8.82327 4.1686 5.89739 
78 1 8.82295 5.89938 4.16902 
27 1 11.0831 1.91071 11.0848 
28 1 10.1951 2.7964 10.1964 
29 1 12.6072 2.12103 10.8796 
34 1 10.8764 2.11773 12.6059 
40 1 10.9251 0.380097 10.762 
50 1 8.6152 4.37492 8.61553 
51 1 9.50298 3.48604 9.5035 
52 1 8.82241 5.90213 8.82214 
55 1 8.82201 4.16977 7.09119 
58 1 7.09002 4.16987 8.82189 
24 1 11.0837 11.1116 1.99775 
25 1 10.2088 10.206 2.81465 
26 1 12.5947 10.892 2.12943 
36 1 10.8846 10.8152 0.356202 
39 1 10.8753 12.6159 2.27446 
44 1 8.61865 8.61959 4.36889 
45 1 9.50553 9.49895 3.48795 
46 1 8.82276 7.09288 4.16843 
56 1 8.82306 8.82292 5.8998 
59 1 7.09156 8.82293 4.16833 
1 1 11.0839 11.0864 11.0097 
2 1 10.2195 10.1903 10.1846 
3 1 10.8325 12.6223 10.5795 
13 1 10.8861 10.7336 12.5623 
17 1 12.5929 10.8833 10.8696 
61 1 8.61983 8.62429 8.62425 
62 1 9.50605 9.49896 9.50387 
63 1 7.09172 8.82366 8.82355 
73 1 8.82303 8.82369 7.09209 
77 1 8.82338 7.09539 8.82396 
81 2 10.8885 12.6822 12.3802 
82 3 10.9192 12.6145 13.2867 
