LAMMPS (3 Mar 2020)
# Alpha
clear
units		real
dimension 3
boundary        p p p
atom_style	charge
newton on
read_data       O_28.lmp
  triclinic box = (0 0 0) to (13.552 11.7355 22.15) with tilt (-6.7755 0 0)
  2 by 2 by 2 MPI processor grid
  reading atoms ...
  161 atoms
  read_data CPU = 0.0131172 secs

timestep 0.25

# ---------- Define Interatomic Potential ---------------------
pair_style      reax/c NULL checkqeq no
pair_coeff      * * ffield.reax C O
fix             2 all qeq/reax 1 0.0 10.0 1.0e-6 reax/c

#------------ Equilibration of the system -------------------------
reset_timestep 0

dump 1 all custom 10 min.lammpstrj id type x y z

minimize 1.0e-8 1.0e-8 100000 100000
WARNING: Using 'neigh_modify every 1 delay 0 check yes' setting during minimization (../min.cpp:190)
WARNING: Total cutoff < 2*bond cutoff. May need to use an increased neighbor list skin. (../pair_reaxc.cpp:413)
Neighbor list info ...
  update every 1 steps, delay 0 steps, check yes
  max neighbors/atom: 2000, page size: 100000
  master list distance cutoff = 9.5
  ghost atom cutoff = 9.5
  binsize = 4.75, bins = 5 3 5
  2 neighbor lists, perpetual/occasional/extra = 2 0 0
  (1) pair reax/c, perpetual
      attributes: half, newton off, ghost
      pair build: half/bin/newtoff/ghost
      stencil: half/ghost/bin/3d/newtoff
      bin: standard
  (2) fix qeq/reax, perpetual, copy from (1)
      attributes: half, newton off, ghost
      pair build: copy
      stencil: none
      bin: none
Per MPI rank memory allocation (min/avg/max) = 22.39 | 23.34 | 24.29 Mbytes
Step Temp E_pair E_mol TotEng Press 
       0            0   -25484.267            0   -25484.267    86541.651 
      86            0   -29107.941            0   -29107.941    39362.407 
Loop time of 4.16533 on 8 procs for 86 steps with 161 atoms

99.3% CPU use with 8 MPI tasks x no OpenMP threads

Minimization stats:
  Stopping criterion = energy tolerance
  Energy initial, next-to-last, final = 
        -25484.2666324     -29107.9402829      -29107.940548
  Force two-norm initial, final = 4571.85 633.572
  Force max component initial, final = 504.288 207.071
  Final line search alpha, max atom move = 6.79722e-05 0.0140751
  Iterations, force evaluations = 86 476

MPI task timing breakdown:
Section |  min time  |  avg time  |  max time  |%varavg| %total
---------------------------------------------------------------
Pair    | 2.7742     | 2.9663     | 3.0967     |   6.8 | 71.22
Neigh   | 0          | 0          | 0          |   0.0 |  0.00
Comm    | 0.043364   | 0.17354    | 0.36504    |  27.9 |  4.17
Output  | 0.00036091 | 0.00046005 | 0.00074235 |   0.0 |  0.01
Modify  | 1.0151     | 1.0154     | 1.0159     |   0.0 | 24.38
Other   |            | 0.00956    |            |       |  0.23

Nlocal:    20.125 ave 32 max 4 min
Histogram: 2 0 1 0 1 0 0 0 1 3
Nghost:    838.875 ave 882 max 791 min
Histogram: 2 1 1 0 0 0 0 0 1 3
Neighs:    2754.38 ave 4301 max 589 min
Histogram: 2 0 0 1 1 0 0 0 1 3

Total # of neighbors = 22035
Ave neighs/atom = 136.863
Neighbor list builds = 0
Dangerous builds = 0

###
min_style cg
minimize 1.0e-8 1.0e-8 100000 100000
WARNING: Using 'neigh_modify every 1 delay 0 check yes' setting during minimization (../min.cpp:190)
WARNING: Total cutoff < 2*bond cutoff. May need to use an increased neighbor list skin. (../pair_reaxc.cpp:413)
Per MPI rank memory allocation (min/avg/max) = 22.39 | 23.34 | 24.29 Mbytes
Step Temp E_pair E_mol TotEng Press 
      86            0   -29107.941            0   -29107.941    39362.407 
     120            0   -29135.105            0   -29135.105    37645.837 
Loop time of 2.17613 on 8 procs for 34 steps with 161 atoms

99.2% CPU use with 8 MPI tasks x no OpenMP threads

Minimization stats:
  Stopping criterion = energy tolerance
  Energy initial, next-to-last, final = 
         -29107.940548     -29135.1045285      -29135.104653
  Force two-norm initial, final = 633.572 118.59
  Force max component initial, final = 207.071 22.7269
  Final line search alpha, max atom move = 0.00013746 0.00312404
  Iterations, force evaluations = 34 247

MPI task timing breakdown:
Section |  min time  |  avg time  |  max time  |%varavg| %total
---------------------------------------------------------------
Pair    | 1.4743     | 1.578      | 1.6493     |   5.0 | 72.52
Neigh   | 0          | 0          | 0          |   0.0 |  0.00
Comm    | 0.024113   | 0.095632   | 0.1986     |  20.3 |  4.39
Output  | 0.00013179 | 0.00016895 | 0.00027278 |   0.0 |  0.01
Modify  | 0.49693    | 0.49745    | 0.49809    |   0.1 | 22.86
Other   |            | 0.004838   |            |       |  0.22

Nlocal:    20.125 ave 32 max 4 min
Histogram: 2 0 1 0 0 1 0 1 0 3
Nghost:    868.375 ave 912 max 816 min
Histogram: 1 3 0 0 0 0 0 0 0 4
Neighs:    2731.25 ave 4293 max 580 min
Histogram: 2 0 0 1 0 1 0 1 0 3

Total # of neighbors = 21850
Ave neighs/atom = 135.714
Neighbor list builds = 0
Dangerous builds = 0

###
fix 1 all box/relax aniso 0.0
min_style cg
minimize 1.0e-8 1.0e-8 100000 100000
WARNING: Using 'neigh_modify every 1 delay 0 check yes' setting during minimization (../min.cpp:190)
WARNING: Total cutoff < 2*bond cutoff. May need to use an increased neighbor list skin. (../pair_reaxc.cpp:413)
Per MPI rank memory allocation (min/avg/max) = 22.39 | 23.34 | 24.29 Mbytes
Step Temp E_pair E_mol TotEng Press Volume 
     120            0   -29135.105            0   -29135.105    37645.837    3522.7279 
     222            0    -29156.98            0    -29156.98    2218.6436    3531.7793 
Loop time of 1.19851 on 8 procs for 102 steps with 161 atoms

99.1% CPU use with 8 MPI tasks x no OpenMP threads

Minimization stats:
  Stopping criterion = linesearch alpha is zero
  Energy initial, next-to-last, final = 
         -29135.104653     -29156.9798176     -29156.9798176
  Force two-norm initial, final = 4186.1 541.9
  Force max component initial, final = 3640.26 375.852
  Final line search alpha, max atom move = 3.17171e-14 1.19209e-11
  Iterations, force evaluations = 102 152

MPI task timing breakdown:
Section |  min time  |  avg time  |  max time  |%varavg| %total
---------------------------------------------------------------
Pair    | 0.90878    | 0.96797    | 1.0207     |   4.2 | 80.76
Neigh   | 0          | 0          | 0          |   0.0 |  0.00
Comm    | 0.012875   | 0.065571   | 0.1245     |  16.1 |  5.47
Output  | 0.00038459 | 0.00053589 | 0.00086548 |   0.0 |  0.04
Modify  | 0.15771    | 0.15785    | 0.158      |   0.0 | 13.17
Other   |            | 0.006587   |            |       |  0.55

Nlocal:    20.125 ave 32 max 4 min
Histogram: 1 1 1 0 1 0 0 0 1 3
Nghost:    872.375 ave 920 max 822 min
Histogram: 3 1 0 0 0 0 0 0 1 3
Neighs:    2733.12 ave 4228 max 581 min
Histogram: 1 1 0 1 1 0 0 0 1 3

Total # of neighbors = 21865
Ave neighs/atom = 135.807
Neighbor list builds = 0
Dangerous builds = 0

unfix 1
###
min_style cg
minimize 1.0e-8 1.0e-8 100000 100000
WARNING: Using 'neigh_modify every 1 delay 0 check yes' setting during minimization (../min.cpp:190)
WARNING: Total cutoff < 2*bond cutoff. May need to use an increased neighbor list skin. (../pair_reaxc.cpp:413)
Per MPI rank memory allocation (min/avg/max) = 22.39 | 23.34 | 24.29 Mbytes
Step Temp E_pair E_mol TotEng Press 
     222            0    -29156.98            0    -29156.98    2218.6436 
     521            0   -29189.252            0   -29189.252    33598.744 
Loop time of 19.85 on 8 procs for 299 steps with 161 atoms

99.2% CPU use with 8 MPI tasks x no OpenMP threads

Minimization stats:
  Stopping criterion = energy tolerance
  Energy initial, next-to-last, final = 
        -29156.9798176     -29189.2523732     -29189.2523836
  Force two-norm initial, final = 354.142 17.402
  Force max component initial, final = 47.1063 5.48728
  Final line search alpha, max atom move = 0.00023972 0.00131541
  Iterations, force evaluations = 299 2301

MPI task timing breakdown:
Section |  min time  |  avg time  |  max time  |%varavg| %total
---------------------------------------------------------------
Pair    | 13.6       | 14.477     | 15.102     |  14.9 | 72.93
Neigh   | 0          | 0          | 0          |   0.0 |  0.00
Comm    | 0.23248    | 0.85369    | 1.724      |  61.3 |  4.30
Output  | 0.0012563  | 0.0015519  | 0.0024944  |   0.9 |  0.01
Modify  | 4.4702     | 4.475      | 4.4801     |   0.2 | 22.54
Other   |            | 0.04328    |            |       |  0.22

Nlocal:    20.125 ave 32 max 4 min
Histogram: 1 1 1 0 1 0 0 0 1 3
Nghost:    863.125 ave 908 max 812 min
Histogram: 3 1 0 0 0 0 0 0 0 4
Neighs:    2725.62 ave 4216 max 580 min
Histogram: 1 1 0 1 1 0 0 0 1 3

Total # of neighbors = 21805
Ave neighs/atom = 135.435
Neighbor list builds = 0
Dangerous builds = 0

###
fix 1 all box/relax aniso 0.0
min_style cg
minimize 1.0e-8 1.0e-8 100000 100000
WARNING: Using 'neigh_modify every 1 delay 0 check yes' setting during minimization (../min.cpp:190)
WARNING: Total cutoff < 2*bond cutoff. May need to use an increased neighbor list skin. (../pair_reaxc.cpp:413)
Per MPI rank memory allocation (min/avg/max) = 22.39 | 23.34 | 24.29 Mbytes
Step Temp E_pair E_mol TotEng Press Volume 
     521            0   -29189.252            0   -29189.252    33598.744    3531.7793 
     605            0   -29203.166            0   -29203.166    5435.8752    3538.2767 
Loop time of 1.21985 on 8 procs for 84 steps with 161 atoms

99.1% CPU use with 8 MPI tasks x no OpenMP threads

Minimization stats:
  Stopping criterion = linesearch alpha is zero
  Energy initial, next-to-last, final = 
        -29189.2523836     -29203.1658446     -29203.1658446
  Force two-norm initial, final = 3803.72 723.766
  Force max component initial, final = 3288.6 590.621
  Final line search alpha, max atom move = 2.03941e-14 1.20452e-11
  Iterations, force evaluations = 84 150

MPI task timing breakdown:
Section |  min time  |  avg time  |  max time  |%varavg| %total
---------------------------------------------------------------
Pair    | 0.80561    | 0.89083    | 0.96335    |   5.5 | 73.03
Neigh   | 0          | 0          | 0          |   0.0 |  0.00
Comm    | 0.021023   | 0.093017   | 0.17765    |  16.9 |  7.63
Output  | 0.00036271 | 0.00044015 | 0.00066641 |   0.0 |  0.04
Modify  | 0.22768    | 0.22796    | 0.22834    |   0.0 | 18.69
Other   |            | 0.007604   |            |       |  0.62

Nlocal:    20.125 ave 33 max 5 min
Histogram: 2 0 1 1 0 0 0 0 2 2
Nghost:    865.875 ave 925 max 810 min
Histogram: 3 0 1 0 0 0 0 1 1 2
Neighs:    2728.12 ave 4359 max 733 min
Histogram: 2 0 1 1 0 0 0 0 1 3

Total # of neighbors = 21825
Ave neighs/atom = 135.559
Neighbor list builds = 0
Dangerous builds = 0

unfix 1
###
min_style cg
minimize 1.0e-8 1.0e-8 100000 100000
WARNING: Using 'neigh_modify every 1 delay 0 check yes' setting during minimization (../min.cpp:190)
WARNING: Total cutoff < 2*bond cutoff. May need to use an increased neighbor list skin. (../pair_reaxc.cpp:413)
Per MPI rank memory allocation (min/avg/max) = 22.39 | 23.34 | 24.29 Mbytes
Step Temp E_pair E_mol TotEng Press 
     605            0   -29203.166            0   -29203.166    5435.8752 
     644            0   -29207.127            0   -29207.127    33011.708 
Loop time of 2.78684 on 8 procs for 39 steps with 161 atoms

99.1% CPU use with 8 MPI tasks x no OpenMP threads

Minimization stats:
  Stopping criterion = energy tolerance
  Energy initial, next-to-last, final = 
        -29203.1658446      -29207.126953     -29207.1270426
  Force two-norm initial, final = 323.189 29.4313
  Force max component initial, final = 39.1962 4.41467
  Final line search alpha, max atom move = 0.000175787 0.000776043
  Iterations, force evaluations = 39 312

MPI task timing breakdown:
Section |  min time  |  avg time  |  max time  |%varavg| %total
---------------------------------------------------------------
Pair    | 1.7983     | 1.9453     | 2.0558     |   6.8 | 69.80
Neigh   | 0          | 0          | 0          |   0.0 |  0.00
Comm    | 0.029854   | 0.13945    | 0.28555    |  25.4 |  5.00
Output  | 0.00016854 | 0.00021013 | 0.00033664 |   0.0 |  0.01
Modify  | 0.69477    | 0.69538    | 0.69599    |   0.0 | 24.95
Other   |            | 0.006476   |            |       |  0.23

Nlocal:    20.125 ave 33 max 5 min
Histogram: 2 0 1 1 0 0 0 0 2 2
Nghost:    861.125 ave 923 max 802 min
Histogram: 2 1 1 0 0 0 0 1 1 2
Neighs:    2723.62 ave 4356 max 727 min
Histogram: 2 0 1 1 0 0 0 0 1 3

Total # of neighbors = 21789
Ave neighs/atom = 135.335
Neighbor list builds = 0
Dangerous builds = 0

undump 1
#############
#----------- Thermo ------------
reset_timestep 0
thermo  200

thermo_style    custom step temp etotal ke pe press
velocity all create 300 12345 mom yes rot yes
fix 1 all npt temp 300 300 25.0 iso 0.0 0.0 250.0

variable vpe equal pe
variable vtemp equal temp
variable vstep equal step

fix output all print 2500 "${vstep} ${vtemp} ${vpe}" file temp-tpdh-Pt.dat screen no

dump 1 all custom 2500 thermo-tpdh-Pt.lammpstrj id type x y z

run 1000000
WARNING: Total cutoff < 2*bond cutoff. May need to use an increased neighbor list skin. (../pair_reaxc.cpp:413)
Per MPI rank memory allocation (min/avg/max) = 21.28 | 22.23 | 23.18 Mbytes
Step Temp TotEng KinEng PotEng Press 
       0          300   -29064.048    143.07888   -29207.127    34860.195 
     200    323.67972   -29106.317    154.37244   -29260.689   -14757.458 
     400    350.44625   -29135.592    167.13819    -29302.73   -19305.021 
     600    292.21633   -29153.397    139.36662   -29292.763   -919.47698 
     800    289.69394   -29154.362    138.16362   -29292.526    12461.479 
    1000    279.08973   -29140.193    133.10615   -29273.299   -10259.313 
    1200    304.51634   -29124.459    145.23286   -29269.692   -10689.077 
    1400    317.88866    -29112.12    151.61052    -29263.73    24554.253 
    1600    307.02907   -29118.427    146.43125   -29264.859   -11870.158 
    1800    247.26345   -29132.952    117.92726   -29250.879    6383.8182 
    2000    326.80954   -29102.708    155.86515   -29258.573    9397.9529 
    2200     276.4639   -29123.987    131.85382   -29255.841   -2080.7396 
    2400    297.15639   -29106.661    141.72268   -29248.384    5401.6664 
    2600    308.88777   -29094.106    147.31773   -29241.424   -2031.2014 
    2800    324.27032    -29079.76    154.65412   -29234.414     4721.219 
    3000    322.99007   -29083.999    154.04353   -29238.042    -4002.245 
    3200    281.40912   -29096.515    134.21234   -29230.727   -17401.737 
    3400    307.47248   -29085.504    146.64273   -29232.147    13184.294 
    3600    297.09462   -29114.194    141.69322   -29255.887     7974.367 
    3800    334.84368   -29077.117    159.69687   -29236.814     20791.81 
    4000    296.77296   -29099.991    141.53981    -29241.53    3401.5516 
    4200    313.60597   -29087.303    149.56797   -29236.871    32874.334 
    4400    300.98938   -29076.902    143.55074   -29220.453   -4893.0572 
    4600    267.89981   -29101.923    127.76935   -29229.692    7339.7092 
    4800    298.72466   -29099.526    142.47063   -29241.997   -10492.196 
    5000    322.65035   -29078.781    153.88151   -29232.662   -9603.4018 
    5200    294.08581   -29105.495    140.25823   -29245.753   -6419.1616 
    5400    295.50409   -29114.603    140.93465   -29255.538    6647.6482 
    5600    286.02955    -29116.31    136.41596   -29252.726   -3514.4099 
    5800    342.21232   -29095.209    163.21119    -29258.42   -16072.859 
    6000    295.98869     -29130.7    141.16577   -29271.866   -16055.556 
    6200    327.37359   -29116.903    156.13416   -29273.037    14466.716 
    6400    336.01188   -29119.655    160.25401   -29279.909   -3087.1152 
    6600    276.98455   -29145.585    132.10213   -29277.687    4735.9863 
    6800    314.49814    -29127.42    149.99347   -29277.414    1267.4698 
    7000    273.34883   -29143.545    130.36815   -29273.913    12529.415 
    7200    307.78589   -29135.854    146.79221   -29282.646    7195.4091 
    7400    285.86338   -29122.107    136.33671   -29258.443    663.80377 
    7600    314.49681   -29099.297    149.99284    -29249.29    3735.9366 
    7800    324.55221   -29103.185    154.78856   -29257.973    8558.3622 
    8000    289.76906   -29126.024    138.19944   -29264.223    -3669.582 
    8200    309.07296   -29141.576    147.40605   -29288.982   -2933.1471 
    8400    317.55034   -29107.779    151.44916   -29259.229   -44752.785 
    8600    324.05477   -29126.414    154.55131   -29280.965   -873.23376 
    8800     323.2789   -29136.124    154.18128   -29290.305     45093.32 
    9000    309.97655   -29107.719    147.83699   -29255.556   -1118.5349 
    9200    288.52783   -29134.908    137.60747   -29272.515    3762.4002 
    9400    300.44123   -29124.325    143.28932   -29267.614   -10041.359 
    9600    277.73564   -29135.943    132.46035   -29268.404   -7756.3175 
    9800    270.99015    -29150.42    129.24323   -29279.664    18713.162 
   10000    284.34935   -29124.161    135.61462   -29259.776   -21363.043 
   10200    323.42711   -29109.311    154.25196   -29263.563    15238.308 
   10400    266.44139   -29145.253    127.07379   -29272.326    13526.213 
   10600    313.01116   -29124.466    149.28429    -29273.75    -22128.45 
   10800    324.46913   -29118.589    154.74893   -29273.338   -35236.911 
   11000    293.43115   -29129.123      139.946   -29269.069    30211.461 
   11200    294.80687    -29122.35    140.60212   -29262.952    12071.145 
   11400    295.42181   -29121.191    140.89541   -29262.086   -17555.356 
   11600    288.08781   -29133.286     137.3976   -29270.683   -25961.116 
   11800    309.40612    -29110.75    147.56494   -29258.315   -30643.256 
   12000    324.19012   -29110.757    154.61587   -29265.373   -32486.863 
   12200    282.75234   -29128.998    134.85296   -29263.851    35586.899 
   12400    299.01886   -29120.451    142.61095   -29263.062   -15261.664 
   12600    263.55223   -29126.271    125.69586   -29251.967   -3253.7316 
   12800    304.78973   -29108.109    145.36325   -29253.472   -50240.675 
   13000    325.15559   -29109.709    155.07633   -29264.786   -3953.8519 
   13200    286.40266   -29124.255    136.59391   -29260.849    21737.732 
   13400    299.53469   -29112.305    142.85696   -29255.162     -28596.7 
   13600    331.70516   -29087.966    158.20001   -29246.166    7064.9097 
   13800    310.21896   -29101.966     147.9526   -29249.918   -3371.5403 
   14000    308.90663   -29114.977    147.32672   -29262.304   -25083.706 
   14200    304.69304   -29112.459    145.31713   -29257.776   -14904.418 
   14400    294.55213   -29115.868    140.48063   -29256.349    12405.129 
   14600    315.36151   -29092.054    150.40524   -29242.459   -8378.8741 
   14800    283.22548   -29119.842    135.07862   -29254.921    14986.384 
   15000    297.33632   -29115.456     141.8085   -29257.265    14607.201 
   15200    323.70119   -29097.813    154.38268   -29252.196     18489.46 
   15400    269.78692   -29111.905    128.66937   -29240.574    44356.677 
   15600    312.22605   -29117.446    148.90985   -29266.356   -737.13796 
   15800    313.37247   -29088.355    149.45661   -29237.812    2026.0467 
   16000    309.12318   -29112.931       147.43   -29260.361    112.20503 
   16200    315.14579   -29116.321    150.30236   -29266.623    2174.1658 
   16400    298.59787   -29108.097    142.41016   -29250.507    -38842.98 
   16600    333.53764   -29104.882    159.07398   -29263.956    14556.778 
   16800    264.95009   -29131.643    126.36254   -29258.005      2559.36 
   17000    304.87373   -29107.485    145.40331   -29252.888   -16559.045 
   17200    278.17846   -29115.387    132.67155   -29248.059    -9977.028 
   17400    270.74232   -29128.329    129.12503   -29257.454   -12271.347 
   17600    291.21058   -29129.249    138.88695   -29268.136   -10616.676 
   17800     286.9472   -29099.682    136.85362   -29236.535    36515.544 
   18000    319.58026   -29115.027    152.41729   -29267.445   -4126.5406 
   18200    279.46272   -29126.941    133.28405   -29260.225   -2806.7934 
   18400    327.60434   -29100.118    156.24421   -29256.362    5897.7285 
   18600    298.71745   -29128.209     142.4672   -29270.676   -14069.035 
   18800    298.54489    -29128.32     142.3849   -29270.705   -3495.3824 
   19000    319.04589   -29102.347    152.16243    -29254.51    16551.484 
   19200    286.67183   -29135.301    136.72229   -29272.023   -12624.545 
   19400    285.57753   -29126.237    136.20038   -29262.437    9258.5029 
   19600    322.23936   -29108.042    153.68549   -29261.728   -4677.7944 
   19800    285.09977   -29141.486    135.97252   -29277.459    11010.699 
   20000      299.424   -29128.391    142.80417   -29271.195   -21165.254 
   20200    317.40244   -29111.163    151.37862   -29262.542     48.43912 
   20400     270.7516   -29145.393    129.12946   -29274.523   -11608.519 
   20600    303.78004   -29122.987     144.8817   -29267.869   -11788.388 
   20800    306.81465   -29121.052    146.32899   -29267.381   -24857.828 
   21000    280.78874   -29152.526    133.91647   -29286.442   -10977.482 
   21200    313.05496    -29134.28    149.30518   -29283.585   -2715.1837 
   21400    323.69084   -29118.182    154.37775   -29272.559   -20826.882 
   21600    286.94189   -29115.153    136.85108   -29252.004    21858.494 
   21800    291.53347   -29142.117    139.04094   -29281.158   -1987.7321 
   22000    312.39704   -29116.012     148.9914   -29265.004   -1238.7961 
   22200     313.9158   -29125.243    149.71574   -29274.959    4097.0301 
   22400    277.29233   -29132.806    132.24892   -29265.055    -447.5945 
   22600    315.01558   -29104.003    150.24026   -29254.243    12836.198 
   22800     278.5247   -29132.811    132.83668   -29265.648    22244.856 
   23000    307.28006   -29123.814    146.55096   -29270.365   -16678.491 
   23200    306.04251   -29120.314    145.96073   -29266.275    26566.724 
   23400    276.89274   -29148.289    132.05834   -29280.347   -9670.1347 
   23600    308.94475   -29119.571     147.3449   -29266.916   -17047.775 
   23800    297.55213    -29123.64    141.91142   -29265.551    22407.787 
   24000     258.2607   -29149.421    123.17217   -29272.593    3361.4456 
   24200    307.20264   -29117.907    146.51404   -29264.421   -21472.354 
   24400    303.21978   -29116.511    144.61449   -29261.125    14936.763 
   24600    274.73496   -29139.851    131.02924    -29270.88   -23716.233 
   24800    347.31152   -29105.312    165.64315   -29270.955   -19123.963 
   25000    283.50899   -29120.545    135.21383   -29255.759   -26670.355 
   25200    292.00178   -29126.123    139.26429   -29265.387     26980.66 
   25400    306.23275   -29094.355    146.05147   -29240.407    1734.1536 
   25600    301.38944   -29122.392    143.74155   -29266.133    36069.245 
   25800    292.75328   -29122.229    139.62271   -29261.852    6504.2293 
   26000     267.4699   -29111.942    127.56432   -29239.506   -16915.891 
   26200     314.8067   -29090.663    150.14063   -29240.804    12548.968 
   26400    305.34243   -29112.711    145.62685   -29258.338   -5316.1466 
   26600    285.77876   -29120.725    136.29635   -29257.021    10247.997 
   26800    349.29227   -29082.377    166.58782   -29248.965   -23785.212 
   27000    293.02465   -29099.453    139.75213   -29239.205   -16012.773 
   27200    273.89132   -29120.316    130.62688   -29250.943    12761.904 
   27400    310.19234   -29117.316    147.93991   -29265.256   -15598.585 
   27600    312.13586   -29092.579    148.86683   -29241.446    4194.4462 
   27800    262.46384   -29124.873    125.17678    -29250.05   -11169.049 
   28000    284.80842   -29120.623    135.83357   -29256.457   -3956.2279 
   28200    322.15779   -29094.544    153.64659    -29248.19    -7439.656 
   28400    332.36521   -29083.381    158.51481   -29241.896    4772.8812 
   28600    300.42297   -29115.096    143.28061   -29258.376   -23261.339 
   28800    280.78344   -29110.268    133.91393   -29244.182   -17719.531 
   29000    323.34186   -29090.411    154.21131   -29244.622   -23277.926 
   29200    295.25924   -29119.097    140.81787   -29259.915   -6250.7747 
   29400    293.94871    -29102.37    140.19284   -29242.563    13297.958 
   29600    310.62531   -29103.304    148.14641    -29251.45    26643.943 
   29800     298.8966   -29125.165    142.55264   -29267.718   -4455.2164 
   30000    292.38648   -29101.438    139.44777   -29240.886    36330.956 
   30200    329.68952   -29110.638     157.2387   -29267.877    4498.2694 
   30400    284.28452   -29114.637     135.5837   -29250.221    21042.012 
   30600    325.20943   -29106.081    155.10201   -29261.183    23508.434 
   30800    309.33227   -29099.732    147.52972   -29247.262   -3345.9083 
   31000    306.35152   -29126.957    146.10811   -29273.065    13590.271 
   31200    290.33103   -29110.637    138.46747   -29249.105    11219.777 
   31400    359.69946    -29078.85    171.55132   -29250.402   -29907.084 
   31600    287.84039   -29120.089    137.27961   -29257.369   -6124.0019 
   31800    279.00761   -29122.679    133.06699   -29255.746   -17479.689 
   32000    337.70211   -29100.483    161.06014   -29261.544   -6290.9356 
   32200    295.48876   -29134.465    140.92734   -29275.392    13836.252 
   32400    317.92337   -29116.813    151.62707    -29268.44   -39461.097 
   32600    300.07439   -29117.029    143.11436   -29260.143    -24292.44 
   32800    252.94119   -29154.042    120.63514   -29274.677    1713.6179 
   33000    300.76691   -29135.099    143.44464   -29278.544    23151.705 
   33200    304.46213   -29117.499    145.20701   -29262.706    10248.254 
   33400    279.99469   -29137.893    133.53776    -29271.43   -36619.689 
   33600    305.57289   -29140.033    145.73676   -29285.769   -38908.816 
   33800    302.39507   -29121.077    144.22116   -29265.299    3010.4794 
   34000     307.4051   -29133.946     146.6106   -29280.557   -5435.1876 
   34200    278.26327   -29138.364    132.71199   -29271.076    44567.112 
   34400    314.51658   -29127.571    150.00227   -29277.573   -25143.105 
   34600    292.34603   -29102.263    139.42848   -29241.692     -26691.9 
   34800    273.79255   -29122.265    130.57977   -29252.845    3766.5849 
   35000    309.82836   -29126.637    147.76632   -29274.403    2764.4059 
   35200    321.28064   -29108.171    153.22825     -29261.4   -23292.957 
   35400    334.75352   -29124.399    159.65387   -29284.053     37676.04 
   35600    281.87594   -29139.428    134.43498   -29273.863   -12976.384 
   35800    293.92629   -29158.248    140.18215    -29298.43   -10113.145 
   36000    306.40242   -29126.687    146.13238   -29272.819    17453.715 
   36200    294.61509   -29122.683    140.51066   -29263.193     9934.853 
   36400    297.36627   -29100.177    141.82278       -29242   -34023.398 
   36600    290.46103   -29132.775    138.52947   -29271.305    37539.978 
   36800    287.78736    -29120.92    137.25431   -29258.174   -14481.047 
   37000    307.33328   -29103.703    146.57634   -29250.279   -1353.1771 
   37200    323.29735   -29112.139    154.19008    -29266.33    12989.461 
   37400    273.57913   -29128.585    130.47799   -29259.063   -24618.945 
   37600    288.17935   -29136.925    137.44126   -29274.366    23969.395 
   37800    305.44177   -29106.167    145.67422   -29251.842    13013.051 
   38000     280.2825   -29108.888    133.67502   -29242.563    2995.0906 
   38200    290.32036    -29127.45    138.46237   -29265.912    1300.0961 
   38400    286.31428   -29113.614    136.55176   -29250.166   -180.91277 
   38600    298.19788   -29095.929     142.2194   -29238.148   -18635.409 
   38800    293.31576     -29122.3    139.89097   -29262.191   -22643.907 
   39000    273.20303   -29121.861    130.29862   -29252.159    37588.543 
   39200    332.97121   -29098.655    158.80383   -29257.459   -17460.591 
   39400    314.53414   -29097.143    150.01065   -29247.153   -7214.5009 
   39600    269.16993   -29133.194    128.37511   -29261.569     23952.14 
   39800     298.7311   -29125.826    142.47371   -29268.299   -29429.528 
   40000    305.64584   -29106.985    145.77155   -29252.757     36884.35 
   40200    290.03703   -29138.113    138.32725    -29276.44    17690.733 
   40400    323.49033   -29124.884    154.28212   -29279.166    12780.713 
   40600    332.29774   -29101.778    158.48263   -29260.261    34679.726 
   40800    302.08432   -29122.252    144.07295   -29266.325    -33668.59 
   41000    280.42419   -29130.434     133.7426   -29264.176    6265.9753 
   41200    359.51526   -29099.462    171.46347   -29270.926   -21780.074 
   41400    318.77371   -29126.016    152.03262   -29278.048   -18752.531 
   41600    297.27977   -29145.191    141.78153   -29286.972   -17365.354 
   41800    302.22122   -29130.485    144.13825   -29274.623    -7855.993 
   42000     306.2205   -29124.701    146.04562   -29270.747   -23816.045 
   42200    288.61551   -29138.697    137.64928   -29276.346   -10514.954 
   42400    311.62141   -29125.012    148.62147   -29273.633   -9951.1103 
   42600    305.67473   -29126.226    145.78533   -29272.011    29178.345 
   42800    297.73662   -29126.621    141.99941    -29268.62   -16388.035 
   43000    320.82717   -29118.307    153.01197   -29271.319   -5565.8487 
   43200    291.00213   -29129.261    138.78753   -29268.049    36840.499 
   43400    287.71145   -29141.402    137.21811    -29278.62    7402.5212 
   43600    305.26809   -29109.632    145.59139   -29255.223    15393.409 
   43800    296.79982   -29131.627    141.55262    -29273.18    16081.059 
   44000    297.68625   -29150.028    141.97539   -29292.004   -16667.742 
   44200    289.88145   -29148.985    138.25304   -29287.238    10124.893 
   44400    305.64662   -29124.822    145.77192   -29270.594    36287.343 
   44600    290.16317   -29139.763    138.38741    -29278.15    28644.773 
   44800    299.43414   -29154.469    142.80901   -29297.278    8372.6173 
   45000     301.3557    -29125.36    143.72545   -29269.086    17219.763 
   45200    320.82867   -29118.755    153.01269   -29271.768   -31757.739 
   45400    297.00369   -29140.588    141.64986   -29282.238   -14233.739 
   45600    293.70798   -29123.154    140.07803   -29263.232   -67415.538 
   45800    279.13657   -29120.231    133.12849    -29253.36    27942.231 
   46000    301.02304    -29138.29     143.5668   -29281.857    20294.611 
   46200    267.31317   -29150.948    127.48956   -29278.438    37141.184 
   46400    283.40117   -29122.402    135.16241   -29257.564    20637.621 
   46600    287.65735   -29113.233    137.19231   -29250.425   -4009.9758 
   46800    273.55911   -29139.807    130.46844   -29270.275    13127.243 
   47000     294.6475   -29121.786    140.52612   -29262.312    19821.978 
   47200     276.8583   -29114.796    132.04192   -29246.838    20847.206 
   47400    269.03244   -29139.102    128.30954   -29267.411   -3806.4107 
   47600    268.93943    -29131.83    128.26517   -29260.096    22504.954 
   47800    277.65456   -29109.713    132.42168   -29242.134    566.91454 
   48000    303.21251   -29107.545    144.61102   -29252.156   -8469.7119 
   48200    292.72036   -29138.163    139.60701    -29277.77    -7001.123 
   48400    301.78002   -29121.872    143.92783   -29265.799     4948.421 
   48600    309.07885   -29116.667    147.40886   -29264.076   -36799.208 
   48800     282.1583    -29133.52    134.56965   -29268.089    19507.551 
   49000    291.07848   -29138.813    138.82395   -29277.637    46272.628 
   49200    297.49846   -29119.792    141.88582   -29261.678    861.68629 
   49400    279.34758   -29132.592    133.22913   -29265.821   -35612.727 
   49600    306.73529   -29142.799    146.29114    -29289.09    -37935.62 
   49800     327.2214   -29108.975    156.06157   -29265.037    -19265.25 
   50000    277.31325   -29127.895     132.2589   -29260.154    5807.6492 
   50200    286.86005   -29142.488    136.81205     -29279.3     14089.82 
   50400    324.90302   -29111.248    154.95587   -29266.204    2251.4197 
   50600    286.12532   -29137.432    136.46164   -29273.894    18608.256 
   50800    342.19704   -29109.065     163.2039   -29272.269   -19798.512 
   51000    320.91101   -29115.023    153.05196   -29268.075    11690.199 
   51200    296.45439   -29132.197    141.38788   -29273.585    52433.606 
   51400    341.44108   -29104.889    162.84336   -29267.732    487.19477 
   51600    281.33186   -29133.489    134.17549   -29267.664    29017.026 
   51800    291.50154   -29125.805    139.02572    -29264.83    -2654.004 
   52000    305.45925   -29107.206    145.68256   -29252.889    34651.197 
   52200    287.24263   -29139.589    136.99452   -29276.583    26352.884 
   52400      303.179   -29121.456    144.59504   -29266.051   -27364.044 
   52600    298.59586   -29121.067     142.4092   -29263.477    17132.156 
   52800    280.12172   -29145.108    133.59834   -29278.706    15345.471 
   53000    316.44415   -29115.988    150.92158   -29266.909    3500.1909 
   53200    293.97762   -29120.535    140.20663   -29260.741    60074.977 
   53400    269.20339   -29146.173    128.39107   -29274.564    10064.238 
   53600    279.98745   -29149.708    133.53431   -29283.243    16155.675 
   53800    292.10763   -29119.229    139.31478   -29258.544   -25077.328 
   54000    329.42398   -29107.189    157.11205   -29264.301    21092.734 
   54200    278.34907   -29138.722    132.75291   -29271.475     36778.29 
   54400    311.43828   -29122.896    148.53413   -29271.431    12189.618 
   54600     310.7791   -29117.645    148.21975   -29265.864   -2618.7176 
   54800    266.85508     -29149.4    127.27109   -29276.671   -12657.898 
   55000    296.05991   -29116.217    141.19974   -29257.417    38357.269 
   55200     309.8884   -29117.247    147.79495   -29265.042   -8924.5017 
   55400    282.98144   -29137.512    134.96223   -29272.475    10832.436 
   55600    302.74014   -29104.115    144.38574   -29248.501   -4807.4581 
   55800    295.14984   -29120.304     140.7657    -29261.07     12751.39 
   56000    258.89082    -29149.92     123.4727   -29273.392    5595.7838 
   56200    314.99678   -29122.309    150.23129   -29272.541   -13951.662 
   56400    285.49654   -29120.553    136.16175   -29256.714     -55192.2 
   56600    265.33679   -29143.465    126.54697   -29270.012    10439.666 
   56800    316.46084   -29115.964    150.92954   -29266.894    13315.912 
   57000    286.61345   -29125.431    136.69444   -29262.126    -6064.308 
   57200     288.9555    -29135.88    137.81143   -29273.692   -2290.1689 
   57400    309.15516   -29105.509    147.44525   -29252.954    -2377.002 
   57600     289.1862    -29129.92    137.92146   -29267.842    5821.4008 
   57800    359.46139   -29099.643    171.43778   -29271.081    29752.354 
   58000    287.38073   -29117.924    137.06038   -29254.985   -6238.4648 
   58200    289.12967   -29122.761     137.8945   -29260.656    3859.8622 
   58400    315.75039   -29109.209    150.59071     -29259.8    33615.936 
   58600    305.09275   -29127.631    145.50777   -29273.139    4800.2865 
   58800     257.7208   -29134.327    122.91468   -29257.242   -8462.0755 
   59000    330.83367   -29106.815    157.78437     -29264.6   -14701.227 
   59200    284.49611   -29128.417    135.68462   -29264.102   -5324.3553 
   59400    288.13245   -29116.667     137.4189   -29254.086   -16730.435 
   59600    324.31989   -29099.632    154.67776   -29254.309    10752.392 
   59800    284.65052   -29126.128    135.75826   -29261.886   -21469.017 
   60000    339.51503   -29110.237    161.92477   -29272.162   -677.52768 
   60200    323.77731   -29105.521    154.41898    -29259.94   -7394.3319 
   60400    269.19308   -29127.388    128.38615   -29255.774    22495.043 
   60600    298.59349   -29107.962    142.40807    -29250.37    -14062.05 
   60800    308.78217   -29099.143    147.26736    -29246.41   -46356.234 
   61000     292.5272   -29137.865    139.51488   -29277.379    28234.147 
   61200    317.23026   -29123.251     151.2965   -29274.547   -22241.487 
   61400    322.82763   -29109.413    153.96606   -29263.379    28838.367 
   61600    282.59797   -29140.971    134.77934    -29275.75   -27050.348 
   61800     336.6789    -29116.72    160.57214   -29277.293    10241.586 
   62000    282.87815   -29123.629    134.91297   -29258.542   -40501.921 
   62200     296.4508   -29138.754    141.38616    -29280.14    13315.444 
   62400    299.13191   -29110.212    142.66486   -29252.877   -16558.848 
   62600    289.04432   -29129.836    137.85379   -29267.689    36132.929 
   62800    309.06412   -29127.881    147.40183   -29275.283    -21723.44 
   63000    305.89143   -29116.722    145.88868   -29262.611    48151.911 
   63200    295.12065   -29144.941    140.75178   -29285.693    12623.929 
   63400    294.42074   -29131.632    140.41797    -29272.05   -12202.589 
   63600    333.72871   -29114.803     159.1651   -29273.968    15521.728 
   63800    283.96434   -29134.409      135.431    -29269.84    20224.799 
   64000    329.21923   -29119.502     157.0144   -29276.516    28672.628 
   64200    310.78708   -29118.716    148.22356   -29266.939   -9824.8008 
   64400    301.99365   -29138.525    144.02972   -29282.555   -19482.363 
   64600    287.82396   -29124.602    137.27177   -29261.874   -4387.9919 
   64800    290.89458   -29134.562    138.73624   -29273.298   -8040.2588 
   65000    286.92714   -29142.511    136.84405   -29279.355   -5884.2616 
   65200    312.81861   -29116.824    149.19246   -29266.016    15461.997 
   65400    293.79929   -29142.673    140.12158   -29282.795    4753.1233 
   65600    314.67749   -29142.614    150.07901   -29292.693    -27345.99 
   65800    346.95627   -29101.112    165.47372   -29266.585   -38392.889 
   66000    276.53332   -29137.483    131.88693    -29269.37    7969.8347 
   66200    303.67133    -29126.31    144.82985    -29271.14    4761.1094 
   66400    328.16593   -29111.661    156.51205   -29268.174    6169.1145 
   66600     315.0697   -29126.568    150.26607   -29276.834    18630.949 
   66800    322.69511   -29128.324    153.90285   -29282.227   -5703.7453 
   67000    267.69396   -29149.853    127.67118   -29277.524   -34164.211 
   67200    310.35462   -29135.881    148.01731   -29283.898   -6144.2665 
   67400    309.70526   -29117.912    147.70761    -29265.62   -16462.027 
   67600    309.54494    -29127.14    147.63115   -29274.771   -56625.123 
   67800    276.98689   -29155.005    132.10325   -29287.109   -10680.105 
   68000    313.11035   -29126.667     149.3316   -29275.999    12650.924 
   68200    284.69015   -29120.066    135.77716   -29255.843   -5848.5004 
   68400    270.49033   -29143.302    129.00485   -29272.307   -9256.6494 
   68600    322.62167    -29114.69    153.86783   -29268.557    8742.0047 
   68800    308.42595   -29112.189    147.09747   -29259.286    3649.2672 
   69000    288.98471   -29138.891    137.82536   -29276.717   -7760.5684 
   69200    305.49081   -29129.206    145.69761   -29274.904    31379.156 
   69400    345.71597   -29106.193    164.88218   -29271.075   -59147.754 
   69600    295.17905   -29133.966    140.77963   -29274.746    12042.362 
   69800    319.07332   -29105.625    152.17551   -29257.801   -10449.678 
   70000    327.15504   -29108.294    156.02992   -29264.324    9508.7107 
   70200    292.40178    -29132.99    139.45507   -29272.445   -10795.205 
   70400    310.99774   -29124.656    148.32403    -29272.98    7487.5627 
   70600     315.2256     -29111.4    150.34042   -29261.741   -15975.704 
   70800    273.54466   -29139.956    130.46155   -29270.417    7184.3687 
   71000    297.90335   -29125.428    142.07893   -29267.506   -23758.132 
   71200    302.35421    -29112.59    144.20167   -29256.792   -31474.818 
   71400    296.70036   -29113.315    141.50518    -29254.82    16769.612 
   71600     302.5591   -29125.748    144.29939   -29270.048    64657.398 
   71800    307.12133   -29134.766    146.47525   -29281.241   -29454.521 
   72000    331.09442   -29102.351    157.90873    -29260.26    43031.295 
   72200     310.5689   -29124.799     148.1195   -29272.919    12458.563 
   72400    295.20941   -29131.906    140.79411     -29272.7    6720.8702 
   72600    316.99768   -29119.366    151.18558   -29270.552   -15977.409 
   72800    303.25718   -29122.426    144.63233   -29267.059    4570.7305 
   73000    248.01412    -29135.94    118.28527   -29254.225    9775.8842 
   73200    293.72813   -29103.252    140.08764    -29243.34    23849.266 
   73400    293.89629   -29125.797    140.16784   -29265.965    45385.475 
   73600    302.59611   -29125.397    144.31704   -29269.714   -2122.5984 
   73800     316.1333   -29114.611    150.77333   -29265.384   -15176.592 
   74000    345.00523   -29079.548    164.54321   -29244.091    1988.0844 
   74200    317.01956   -29112.523    151.19601   -29263.719   -3310.2081 
   74400    310.88491   -29123.083    148.27022   -29271.354    18988.075 
   74600    342.56683   -29101.679    163.38026    -29265.06   -392.74063 
   74800    294.85822    -29119.92    140.62662   -29260.547    -7737.129 
   75000    301.62165    -29130.41     143.8523   -29274.262   -4835.6503 
   75200    338.95681   -29112.605    161.65854   -29274.264   -36311.557 
   75400    302.98077   -29109.503     144.5005   -29254.003   -12069.632 
   75600    305.11677   -29133.883    145.51922   -29279.402   -4510.0827 
   75800     290.6776   -29142.602    138.63276   -29281.235    28122.725 
   76000    301.63231   -29132.433    143.85738   -29276.291    14280.343 
   76200    301.97948   -29111.456    144.02296   -29255.479    25381.305 
   76400    289.74095   -29140.597    138.18604   -29278.783   -18251.087 
   76600     304.1971   -29126.789     145.0806   -29271.869   -13690.174 
   76800    309.36648   -29109.031    147.54603   -29256.577   -51195.253 
   77000    290.52635   -29140.361    138.56062   -29278.922   -5527.4403 
   77200    286.32683   -29130.798    136.55774   -29267.356   -22466.322 
   77400    316.34172   -29108.939    150.87273   -29259.811    31512.938 
   77600    293.17165     -29133.7    139.82224   -29273.522    -3587.307 
   77800    278.84541   -29120.155    132.98963   -29253.145    15225.304 
   78000    340.10141   -29104.795    162.20443   -29266.999   -10377.718 
   78200    300.50363   -29128.829    143.31908   -29272.148   -12119.238 
   78400    325.52792    -29116.44     155.2539   -29271.694   -1086.5327 
   78600    339.48842   -29091.216    161.91208   -29253.129   -20484.332 
   78800     288.8737   -29128.764    137.77242   -29266.537   -17592.702 
   79000     300.3384    -29120.17    143.24027    -29263.41   -342.61159 
   79200    302.60404   -29110.339    144.32083    -29254.66    -8859.798 
   79400    271.42675   -29143.442    129.45145   -29272.894   -9509.2038 
   79600    295.00587   -29122.232    140.69704   -29262.929    19159.502 
   79800    337.22792   -29084.175    160.83398   -29245.009   -44128.328 
   80000    295.57476   -29126.824    140.96836   -29267.793    -13823.15 
   80200    291.04877   -29145.617    138.80977   -29284.426    38052.338 
   80400    288.71179   -29124.385     137.6952    -29262.08   -17385.917 
   80600    318.21999   -29118.232    151.76854   -29270.001    17570.992 
   80800    301.69571    -29128.07    143.88762   -29271.957      22865.4 
   81000    311.82799   -29124.945       148.72   -29273.665    11599.265 
   81200    306.34334   -29125.615    146.10421    -29271.72    6902.6428 
   81400    283.05761    -29146.74    134.99856   -29281.738    5474.2727 
   81600    313.98672   -29118.583    149.74956   -29268.332    12955.034 
   81800    325.10156   -29123.351    155.05056   -29278.402    26005.919 
   82000    278.91582   -29128.202    133.02321   -29261.225    32570.689 
   82200    313.38239   -29119.827    149.46134   -29269.288    -330.2499 
   82400    303.50738   -29096.259    144.75166    -29241.01   -49344.243 
   82600    307.39091   -29128.076    146.60383    -29274.68   -4794.2552 
   82800    308.23393   -29123.864    147.00589    -29270.87    16306.527 
   83000    335.06022   -29089.182    159.80014   -29248.983   -18301.972 
   83200    280.86693   -29114.684    133.95376   -29248.638    12482.922 
   83400    339.89119   -29129.062    162.10417   -29291.166    -1611.489 
   83600    271.14385   -29136.914    129.31653   -29266.231   -14112.108 
   83800    301.94224   -29108.687     144.0052   -29252.693    6202.3496 
   84000    298.38409   -29131.994    142.30821   -29274.303   -30930.945 
   84200    297.98118   -29132.465    142.11605   -29274.581    -43098.93 
   84400    328.35601   -29111.982     156.6027   -29268.585    42606.517 
   84600    354.19794   -29086.857    168.92748   -29255.785    51009.289 
   84800    273.29688   -29126.869    130.34337   -29257.212    9030.4897 
   85000    289.16155   -29129.755    137.90971   -29267.665    21998.009 
   85200    315.92333   -29099.853    150.67319   -29250.526   -37834.238 
   85400    300.52203    -29120.94    143.32785   -29264.267    332.12963 
   85600    298.25845   -29129.076    142.24829   -29271.324   -9018.9385 
   85800    316.22902   -29118.555    150.81898   -29269.374   -319.36338 
   86000    320.95777   -29121.165    153.07426   -29274.239   -11630.208 
   86200    283.15485   -29139.694    135.04493   -29274.739   -880.44016 
   86400    286.40368   -29109.428     136.5944   -29246.023    12769.212 
   86600    298.32758   -29115.535    142.28126   -29257.817    -34439.35 
   86800    278.76727   -29135.307    132.95237   -29268.259    36307.217 
   87000    303.92387   -29109.299    144.95029   -29254.249     25789.61 
   87200    329.43935   -29107.229    157.11938   -29264.348   -36242.596 
   87400    288.05961   -29131.021    137.38416   -29268.406    4556.0463 
   87600    299.45466   -29120.736    142.81879   -29263.555    36644.682 
   87800    310.78398   -29119.502    148.22208   -29267.724    5460.8677 
   88000     274.2284   -29135.527    130.78764   -29266.315   -29010.076 
   88200    261.82443   -29148.879    124.87182   -29273.751   -17607.217 
   88400    294.15376   -29126.609    140.29064     -29266.9    3888.1554 
   88600    311.65957   -29134.896    148.63968   -29283.536   -11191.736 
   88800    279.70757   -29156.476    133.40082   -29289.877    2745.8005 
   89000    299.10191   -29124.165    142.65056   -29266.816   -9624.5755 
   89200    273.86529     -29131.3    130.61447   -29261.915   -2738.5129 
   89400    288.50211    -29136.35     137.5952   -29273.945   -18916.902 
   89600    297.48748   -29107.257    141.88059   -29249.138    4983.2153 
   89800    288.68092    -29134.94    137.68048    -29272.62    5659.4973 
   90000    296.53299   -29137.137    141.42536   -29278.563   -11787.798 
   90200    307.59029   -29118.964    146.69892   -29265.663     16222.38 
   90400    310.91269    -29106.67    148.28347   -29254.953   -6010.5768 
   90600    295.15766   -29140.457    140.76943   -29281.227   -33645.103 
   90800    298.03962   -29121.227    142.14392   -29263.371    14220.339 
   91000    336.69948   -29111.981    160.58195   -29272.563    33011.992 
   91200    282.91214   -29129.003    134.92918   -29263.932    3914.7449 
   91400    293.48484   -29123.259    139.97161    -29263.23    62469.576 
   91600    334.49608    -29100.83    159.53108   -29260.361   -7013.5804 
   91800    312.37924   -29129.579    148.98291   -29278.562   -24771.446 
   92000    317.81775   -29120.996     151.5767   -29272.573    23694.055 
   92200    323.37629    -29090.12    154.22773   -29244.348   -34167.697 
   92400    307.60957   -29129.056    146.70811   -29275.764     35020.94 
   92600    301.89267   -29138.383    143.98155   -29282.364   -20903.385 
   92800    294.78971   -29112.555    140.59394   -29253.149    4414.6294 
   93000    288.13772   -29140.743    137.42141   -29278.164   -9616.8552 
   93200    313.02486   -29131.024    149.29083   -29280.315    -6396.447 
   93400    298.78977   -29115.775    142.50169   -29258.277    43001.985 
   93600    302.48275   -29126.682    144.26298   -29270.945   -11054.136 
   93800    270.66379   -29152.813    129.08758   -29281.901    3758.4175 
   94000    290.10853   -29122.883    138.36135   -29261.245    -5047.928 
   94200    331.12437   -29121.437    157.92302    -29279.36    9637.0823 
   94400    305.14947   -29145.744    145.53482   -29291.278    2650.2436 
   94600    300.14828   -29131.275     143.1496   -29274.424    17891.026 
   94800    345.74368   -29118.909     164.8954   -29283.804    44080.755 
   95000    268.48386   -29136.536     128.0479   -29264.584   -12060.433 
   95200    289.89432   -29158.784    138.25918   -29297.043   -7802.7962 
   95400    275.85299    -29122.71    131.56246   -29254.272   -6818.4555 
   95600    308.62885   -29113.717    147.19424   -29260.911    5005.7112 
   95800    285.52639   -29140.645    136.17599   -29276.821    18257.772 
   96000    296.23171   -29121.826    141.28168   -29263.107    23772.419 
   96200    303.11916   -29115.407     144.5665   -29259.973     11572.83 
   96400    276.35303   -29137.978    131.80094   -29269.779    11730.516 
   96600    285.00827    -29143.34    135.92888   -29279.269    30731.541 
   96800    262.42292   -29112.572    125.15726    -29237.73   -38343.141 
   97000    304.13181   -29133.159    145.04946   -29278.209    19381.244 
   97200     294.3621    -29137.98       140.39    -29278.37   -379.57575 
   97400    281.49933   -29122.942    134.25536   -29257.198    21408.912 
   97600    312.83926   -29113.894    149.20231   -29263.096    14421.092 
   97800    283.81721   -29139.458    135.36083   -29274.818   -3304.5208 
   98000    283.23403   -29128.134    135.08269   -29263.217     44866.78 
   98200    313.92532   -29114.154    149.72028   -29263.874   -51400.839 
   98400    299.41979   -29129.714    142.80216   -29272.517   -8200.2459 
   98600    289.91006   -29124.923    138.26669    -29263.19    35369.521 
   98800    306.82241   -29107.835    146.33269   -29254.168    13259.081 
   99000    339.27612   -29098.375    161.81083   -29260.186    24126.367 
   99200    316.75667   -29124.633    151.07063   -29275.704    22674.161 
   99400    290.98421   -29114.844    138.77899   -29253.623   -8161.2696 
   99600    332.22199    -29095.14     158.4465   -29253.587     -18597.2 
   99800    298.97037   -29130.178    142.58782   -29272.766    13524.644 
  100000     314.0188   -29121.864    149.76486   -29271.629    2683.2241 
  100200    313.43097   -29098.631    149.48451   -29248.116    23453.009 
  100400    285.48522   -29137.034    136.15635   -29273.191    37951.664 
  100600    318.07692   -29120.995     151.7003   -29272.696   -12831.044 
  100800    324.49005   -29120.529    154.75891   -29275.288   -9299.5648 
  101000    252.73189   -29144.263    120.53532   -29264.798   -27714.924 
  101200    287.13417   -29117.385    136.94279   -29254.328   -36090.629 
  101400    311.31763   -29121.145     148.4766   -29269.621    4069.7309 
  101600     290.5694    -29134.18    138.58115   -29272.761    3193.2869 
  101800     267.0879   -29145.382    127.38213   -29272.764    48849.505 
  102000    313.26174   -29120.326     149.4038    -29269.73   -44264.233 
  102200      277.252   -29139.476    132.22969   -29271.706   -4579.1517 
  102400    284.69862   -29160.969     135.7812   -29296.751    29140.075 
  102600    282.44585   -29124.146    134.70679   -29258.853   -15289.795 
  102800    322.25617   -29117.217    153.69351    -29270.91   -3815.6751 
  103000    277.36208   -29146.531    132.28219   -29278.813     3057.038 
  103200    327.62113   -29107.714    156.25222   -29263.967    12805.503 
  103400    310.06224   -29122.878    147.87786   -29270.756    70260.607 
  103600    280.77358   -29131.772    133.90923   -29265.681   -2718.5652 
  103800    351.98051   -29100.185    167.86992   -29268.055   -3777.0594 
  104000    299.04211   -29123.843    142.62203   -29266.465     6093.553 
  104200    295.11141   -29128.927    140.74737   -29269.674    5458.3133 
  104400    325.21895   -29098.824    155.10655    -29253.93   -40318.666 
  104600    317.39436   -29131.175    151.37477   -29282.549   -7610.5833 
  104800     309.4082    -29137.52    147.56593   -29285.086    -11718.61 
  105000    301.99437   -29127.396    144.03005   -29271.426     5537.936 
  105200    301.15477   -29122.518    143.62963   -29266.147    49130.529 
  105400    257.12195   -29145.264    122.62907   -29267.893     65221.99 
  105600    301.48108   -29126.189    143.78525   -29269.974   -42135.234 
  105800    297.06824    -29122.54    141.68064    -29264.22   -27850.723 
  106000    305.65474   -29123.503     145.7758   -29269.278    59399.179 
  106200    295.29789   -29134.254    140.83631   -29275.091   -20571.079 
  106400    275.06929   -29143.836    131.18869   -29275.025   -43125.779 
  106600    315.58035   -29111.479    150.50961   -29261.988   -17906.383 
  106800     299.3076   -29128.956    142.74865   -29271.705   -3217.2418 
  107000    261.06671   -29159.812    124.51044   -29284.322    9441.3338 
  107200    273.09279    -29144.58    130.24604   -29274.826    -49693.22 
  107400    290.96511   -29117.006    138.76988   -29255.776    10224.539 
  107600    320.54033   -29110.028    152.87517   -29262.903    13869.117 
  107800    303.06583   -29141.191    144.54107   -29285.732   -33296.882 
  108000    299.23692   -29118.146    142.71495   -29260.861   -50478.043 
  108200     336.7889    -29112.49     160.6246   -29273.114   -14227.131 
  108400     302.8902   -29131.145    144.45731   -29275.602    26587.705 
  108600    298.68423   -29145.191    142.45135   -29287.642   -7561.4055 
  108800    305.79477   -29115.254    145.84258   -29261.097    16784.779 
  109000     299.9454   -29128.127    143.05284    -29271.18    31625.882 
  109200     250.1548   -29147.801    119.30623   -29267.107   -42878.136 
  109400    330.98001   -29109.193    157.85417   -29267.047   -4162.0933 
  109600    292.49263   -29139.082     139.4984   -29278.581   -33884.701 
  109800    291.44839   -29127.692    139.00037   -29266.692    34920.767 
  110000    332.66622   -29111.224    158.65837   -29269.882   -19054.151 
  110200    281.23038    -29130.51     134.1271   -29264.638   -29733.231 
  110400     294.7491   -29128.866    140.57457   -29269.441    10132.067 
  110600    303.16272   -29109.405    144.58728   -29253.992    14457.228 
  110800    328.60652   -29107.482    156.72218   -29264.204    6827.8757 
  111000    274.35483   -29134.616    130.84794   -29265.464   -11972.886 
  111200    316.96861   -29121.305    151.17172   -29272.477   -12680.543 
  111400    326.70832   -29105.868    155.81687   -29261.685   -17077.916 
  111600    276.88426   -29137.673     132.0543   -29269.728    51333.058 
  111800    292.02215    -29113.22    139.27401   -29252.494   -11351.102 
  112000    279.98078   -29118.472    133.53112   -29252.003    25234.885 
  112200    257.93547   -29144.804    123.01706   -29267.821    4409.6687 
  112400    302.72863   -29117.868    144.38024   -29262.248   -49080.916 
  112600    288.49251   -29128.979    137.59062    -29266.57   -16673.468 
  112800    257.80341   -29145.939    122.95408   -29268.893    29315.087 
  113000    318.57995   -29123.434    151.94021   -29275.374    13386.971 
  113200    319.87534   -29129.599    152.55802   -29282.157    15272.833 
  113400    274.49744   -29155.594    130.91596    -29286.51    26458.982 
  113600    318.60694    -29127.34    151.95308   -29279.294   -10280.466 
  113800    272.55231   -29128.606    129.98827   -29258.595   -16793.459 
  114000    318.51055   -29126.065    151.90711   -29277.972     30084.24 
  114200    346.12448   -29104.325    165.07701   -29269.403    37048.834 
  114400     286.4148   -29132.716     136.5997   -29269.316    2063.2689 
  114600    282.25838   -29136.509    134.61738   -29271.126   -15995.628 
  114800    349.32855   -29106.926    166.60513   -29273.532   -45967.413 
  115000    313.06653   -29129.251     149.3107   -29278.562    5787.8315 
  115200    296.94493   -29142.918    141.62183   -29284.539     31176.46 
  115400     287.1495   -29114.412     136.9501   -29251.362     1164.708 
  115600    289.81308   -29127.861    138.22044   -29266.081   -11046.431 
  115800    271.69593   -29146.325    129.57983   -29275.905   -19063.683 
  116000    315.66264   -29117.432    150.54886   -29267.981   -5022.4445 
  116200    287.08664   -29115.298    136.92012   -29252.218    12261.719 
  116400    269.24644   -29147.834     128.4116   -29276.246    23319.128 
  116600    309.12561   -29120.344    147.43116   -29267.775   -16162.123 
  116800    291.82504   -29123.635       139.18   -29262.815   -16056.254 
  117000    281.70721   -29153.689    134.35451   -29288.043    24232.073 
  117200    308.99665   -29127.012    147.36965   -29274.382    29875.467 
  117400    329.32305   -29118.876    157.06391    -29275.94   -28879.683 
  117600    285.46808    -29141.39    136.14818   -29277.539    7181.2852 
  117800    302.50178   -29118.981    144.27205   -29263.254    54676.711 
  118000    304.85477   -29119.814    145.39426   -29265.209    14695.895 
  118200     285.8058    -29138.48    136.30925   -29274.789    13945.953 
  118400    316.04864   -29101.481    150.73295   -29252.214     34617.23 
  118600    310.02832   -29118.949    147.86168   -29266.811    29796.213 
  118800    296.95544   -29134.879    141.62684   -29276.506   -8312.2663 
  119000    316.91355   -29110.249    151.14546   -29261.394    37069.265 
  119200    304.92938   -29122.808    145.42985   -29268.238   -12270.235 
  119400     292.1581    -29135.27    139.33885   -29274.609   -6039.4883 
  119600    296.52115   -29122.567    141.41972   -29263.987    29227.144 
  119800    266.97934   -29122.058    127.33035   -29249.388    3916.9563 
  120000    306.62157    -29122.08    146.23691   -29268.316   -9666.2457 
  120200    303.62078    -29142.91    144.80574   -29287.716    39345.785 
  120400    339.55823   -29116.639    161.94537   -29278.585   -23290.318 
  120600     307.8457   -29120.991    146.82073   -29267.811   -2546.6328 
  120800    278.35062   -29138.804    132.75365   -29271.558    707.72798 
  121000    284.81625     -29127.9     135.8373   -29263.738    13949.971 
  121200    308.53699   -29113.644    147.15043   -29260.794    29087.652 
  121400    318.67944   -29093.147    151.98766   -29245.134   -9604.9969 
  121600    292.86642   -29128.127    139.67666   -29267.803    407.82613 
  121800    311.81571   -29121.937    148.71415   -29270.651    -32434.76 
  122000    308.55571   -29093.841    147.15935   -29241.001    4443.7249 
  122200    315.36975   -29134.043    150.40917   -29284.452    23308.924 
  122400    259.07352   -29134.795    123.55983   -29258.355   -16237.656 
  122600    313.65945   -29107.662    149.59348   -29257.256   -16202.195 
  122800    302.50049   -29128.547    144.27144   -29272.819   -8287.3867 
  123000    283.03602   -29137.355    134.98826   -29272.344    31105.246 
  123200    327.41266   -29108.888    156.15279   -29265.041   -52471.196 
  123400     320.1052   -29116.377    152.66765   -29269.044   -36140.083 
  123600    272.57589   -29128.195    129.99951   -29258.194    -17216.53 
  123800    279.44826   -29126.345    133.27715   -29259.622   -41580.996 
  124000    304.70486   -29102.888    145.32277   -29248.211    -10661.92 
  124200    288.78279   -29135.678    137.72906   -29273.408   -11557.355 
  124400     295.8966   -29126.104    141.12185   -29267.226    -24018.46 
  124600    336.38397   -29107.773    160.43147   -29268.204   -10091.699 
  124800    297.40076   -29144.191    141.83923    -29286.03    8516.7641 
  125000    304.26529   -29125.064    145.11313   -29270.177    -1957.226 
  125200    314.63435    -29116.63    150.05844   -29266.689    27046.539 
  125400    283.89275   -29129.419    135.39686   -29264.816   -16423.155 
  125600    290.05198   -29141.048    138.33438   -29279.382   -3842.4449 
  125800    302.91382   -29132.785    144.46857   -29277.253    7708.3434 
  126000     294.6861   -29114.891    140.54452   -29255.436   -29966.184 
  126200    287.03466   -29145.992    136.89533   -29282.887   -961.65202 
  126400    285.09868   -29134.618      135.972    -29270.59    17590.054 
  126600    318.48171     -29116.7    151.89336   -29268.594    14214.746 
  126800    306.56772   -29131.325    146.21122   -29277.536     8851.845 
  127000    295.76404   -29130.559    141.05863   -29271.618   -19691.797 
  127200    320.82276   -29108.664    153.00987   -29261.674   -64608.607 
  127400    302.56313   -29123.856    144.30131   -29268.157    2846.3419 
  127600    330.47263   -29122.586    157.61218   -29280.198    11426.425 
  127800    310.71105   -29117.851     148.1873   -29266.038    32541.926 
  128000    287.36399   -29125.047     137.0524   -29262.099   -27360.018 
  128200    324.44663   -29130.104     154.7382   -29284.842   -31605.518 
  128400    334.61681   -29103.911    159.58866   -29263.499    16057.277 
  128600    290.41034   -29137.822    138.50529   -29276.327    8750.7851 
  128800    298.92186   -29125.914    142.56468   -29268.479   -12088.138 
  129000    325.07635   -29115.397    155.03854   -29270.435   -1478.0813 
  129200    307.93889   -29145.701    146.86517   -29292.566     8888.629 
  129400    305.37741   -29116.969    145.64353   -29262.612    -32895.24 
  129600    313.27652   -29124.763    149.41085   -29274.173   -43099.234 
  129800    260.38951   -29155.761    124.18747   -29279.949    22077.571 
  130000    297.42155   -29145.062    141.84914   -29286.911   -4321.0818 
  130200     327.6875   -29118.406    156.28387   -29274.689    23053.766 
  130400    288.62046    -29123.61    137.65164   -29261.262    -1795.077 
  130600    302.07195   -29140.737    144.06706   -29284.804   -2710.3098 
  130800    312.72162   -29107.442     149.1462   -29256.588    10801.226 
  131000     265.8517   -29121.116    126.79255   -29247.908    5773.4332 
  131200    304.99091   -29123.737     145.4592   -29269.196    45786.397 
  131400    279.78545   -29121.663    133.43797   -29255.101    32183.514 
  131600     296.3477   -29121.587    141.33699   -29262.924    2050.1957 
  131800    340.55109   -29103.091     162.4189    -29265.51   -45888.459 
  132000    283.19762   -29127.153    135.06533   -29262.218    10215.677 
  132200    283.95565   -29133.458    135.42686   -29268.884   -34391.386 
  132400    320.03871   -29104.313    152.63594   -29256.949   -47841.201 
  132600    307.04614   -29142.694    146.43939   -29289.133   -40606.664 
  132800    306.68037   -29125.109    146.26495   -29271.374    7955.4444 
  133000    320.57826   -29118.387    152.89326    -29271.28   -9578.3603 
  133200    276.58012   -29147.609    131.90925   -29279.518    21314.745 
  133400    278.01538   -29122.424    132.59377   -29255.018   -32149.506 
  133600    298.99763   -29122.474    142.60082   -29265.075   -3444.0385 
  133800    289.05383   -29135.535    137.85833   -29273.393    23676.555 
  134000    265.87159   -29138.476    126.80203   -29265.278    1587.7318 
  134200    303.26143    -29113.79    144.63435   -29258.425    8926.4153 
  134400    298.81198   -29135.177    142.51228   -29277.689    -18911.33 
  134600    253.97738   -29156.143    121.12933   -29277.272    8705.5497 
  134800    318.52233   -29116.302    151.91273   -29268.215   -24548.988 
  135000    290.81469   -29122.744    138.69814   -29261.442   -35052.587 
  135200      272.585   -29149.761    130.00386   -29279.765   -17258.584 
  135400    317.36617   -29120.863    151.36132   -29272.225   -23758.346 
  135600    276.02401   -29121.143    131.64402   -29252.787   -8019.7785 
  135800    276.26105   -29149.923    131.75707    -29281.68   -44188.808 
  136000     328.4359   -29117.866     156.6408   -29274.506    20910.166 
  136200    317.77095   -29118.807    151.55437   -29270.361    16460.748 
  136400     274.8052   -29145.011    131.06273   -29276.073    17510.802 
  136600    291.85814   -29146.901    139.19579   -29286.097    33965.698 
  136800    292.63334   -29114.628     139.5655   -29254.193     23039.94 
  137000    293.67958   -29119.772    140.06449   -29259.836   -65332.812 
  137200    269.29936   -29146.088    128.43684   -29274.525   -7184.6725 
  137400    317.16947   -29126.835    151.26751   -29278.103    11029.644 
  137600     317.1243   -29120.881    151.24597   -29272.127   -35226.263 
  137800    281.55605   -29135.126    134.28242   -29269.408    10187.983 
  138000    260.46566    -29144.75    124.22378   -29268.974    11544.556 
  138200    299.72514   -29120.099    142.94779   -29263.047    16009.924 
  138400    286.98462   -29125.482    136.87146   -29262.353   -18789.883 
  138600    266.57035   -29153.556    127.13529   -29280.691   -14830.305 
  138800    317.22151    -29120.18    151.29233   -29271.473   -29127.146 
  139000    298.76143   -29126.791    142.48817   -29269.279    7286.8068 
  139200    289.77236   -29140.135    138.20102   -29278.336    50665.595 
  139400    329.28434   -29107.597    157.04545   -29264.642   -11537.047 
  139600    321.48302   -29126.433    153.32477   -29279.758    31642.225 
  139800    282.44503     -29140.9     134.7064   -29275.606   -12427.572 
  140000    292.97811   -29124.289    139.72993   -29264.019    21802.465 
  140200    329.00145   -29105.585    156.91053   -29262.496   -24760.015 
  140400    314.72672   -29120.559    150.10249   -29270.662    19712.685 
  140600    285.29912   -29140.375     136.0676   -29276.443   -16633.681 
  140800    317.32958   -29105.621    151.34387   -29256.965   -4068.4576 
  141000    321.77097   -29118.867     153.4621   -29272.329   -27791.531 
  141200    314.58956   -29135.895    150.03708   -29285.932   -18472.494 
  141400    283.27077   -29120.441    135.10022   -29255.542    6810.4957 
  141600     336.3224   -29074.192    160.40211   -29234.594     9789.259 
  141800    322.51896   -29107.823    153.81884   -29261.642   -8785.9526 
  142000    310.93382   -29135.264    148.29355   -29283.558    38205.993 
  142200    314.97703   -29114.165    150.22187   -29264.387    33605.705 
  142400    298.55537   -29118.332     142.3899   -29260.722    15931.069 
  142600     293.8221   -29128.192    140.13246   -29268.324    32360.153 
  142800    324.63509     -29116.6    154.82809   -29271.429    20367.813 
  143000    310.87596   -29116.203    148.26595   -29264.469   -19064.562 
  143200    296.40419   -29138.629    141.36394   -29279.992    10485.334 
  143400    318.61949   -29104.472    151.95907   -29256.431   -39518.945 
  143600    298.23656   -29120.116    142.23785   -29262.354   -23250.555 
  143800     256.6815   -29128.855    122.41901   -29251.274    30086.309 
  144000    308.40384   -29100.016    147.08692   -29247.103    -37960.05 
  144200    282.43748   -29128.207     134.7028    -29262.91    7482.5623 
  144400    261.17432   -29132.726    124.56177   -29257.288   -6197.0815 
  144600    313.28411   -29099.712    149.41447   -29249.126   -26932.559 
  144800    322.50426   -29114.788    153.81183     -29268.6    6124.1233 
  145000    282.18838   -29134.906      134.584    -29269.49    3838.9846 
  145200    298.55486   -29116.044    142.38965   -29258.434    8518.7911 
  145400    287.72301   -29119.754    137.22362   -29256.978    -18778.02 
  145600     303.6456   -29139.265    144.81758   -29284.082    291.43939 
  145800    306.86129   -29113.415    146.35124   -29259.767   -4551.2512 
  146000    334.45394   -29090.605    159.51099   -29250.116    39213.584 
  146200     289.5076    -29128.73    138.07475   -29266.804   -25107.063 
  146400    305.67465    -29135.08    145.78529   -29280.866    5594.5463 
  146600    329.23994   -29103.299    157.02428   -29260.324    9214.5786 
  146800    288.46817    -29123.22    137.57901   -29260.799   -3869.1285 
  147000    299.82994   -29127.813    142.99778   -29270.811     -51454.6 
  147200    316.70963   -29116.861     151.0482   -29267.909    10518.207 
  147400    335.15309    -29098.64    159.84443   -29258.484   -22509.356 
  147600     289.5647   -29134.115    138.10198   -29272.217   -3209.0388 
  147800    322.26965   -29126.379    153.69994   -29280.079    2519.9725 
  148000     345.0374   -29094.106    164.55855   -29258.664    18271.268 
  148200    290.24636   -29128.672    138.42708   -29267.099    15692.703 
  148400    343.39877   -29122.605    163.77704   -29286.382   -14188.056 
  148600    288.69725   -29124.956    137.68826   -29262.645   -9808.8681 
  148800    285.26131   -29145.554    136.04956   -29281.603    24458.343 
  149000    293.74053   -29114.027    140.09356    -29254.12   -14693.035 
  149200    268.73659     -29123.7    128.16843   -29251.868    2456.4184 
  149400    279.41965   -29140.629     133.2635   -29273.893   -6588.4173 
  149600    287.67779   -29123.938    137.20206    -29261.14   -29299.897 
  149800    292.27843   -29114.432    139.39624   -29253.828    21150.532 
  150000    255.80522   -29145.386    122.00108   -29267.387   -28430.065 
  150200    306.29699   -29117.529     146.0821   -29263.611    5712.6683 
  150400    310.58151   -29119.965    148.12552    -29268.09     37584.08 
  150600    283.08027   -29136.327    135.00936   -29271.337   -24775.432 
  150800    267.81458   -29141.993     127.7287   -29269.722     4642.193 
  151000    311.34954   -29117.329    148.49181   -29265.821    864.85859 
  151200     280.2741   -29130.996    133.67102   -29264.667   -34904.631 
  151400    293.73238   -29142.481    140.08967   -29282.571   -14884.862 
  151600    275.43891    -29112.87    131.36497   -29244.235   -18972.772 
  151800    295.68312   -29132.141    141.02004   -29273.161   -26780.707 
  152000    276.88383    -29153.52     132.0541   -29285.574    11688.602 
  152200    304.89876    -29123.32    145.41525   -29268.735   -3140.0284 
  152400    291.04945   -29125.621     138.8101   -29264.431   -18952.711 
  152600    272.03005   -29152.237    129.73919   -29281.976    12274.705 
  152800    332.79802   -29114.203    158.72123   -29272.924    19238.126 
  153000    283.51146   -29134.777    135.21501   -29269.992   -42596.755 
  153200     292.5546   -29122.839    139.52795   -29262.367   -19763.944 
  153400    319.05293   -29117.893    152.16579   -29270.059    56257.005 
  153600    271.59566   -29140.428    129.53201    -29269.96   -30322.443 
  153800    340.80953   -29106.074    162.54216   -29268.616     56448.31 
  154000    306.26432   -29124.572    146.06652   -29270.639   -20553.084 
  154200    274.39938   -29136.403    130.86919   -29267.272   -3531.0113 
  154400    335.50777   -29099.469    160.01359   -29259.483    34679.992 
  154600    278.68514    -29126.02     132.9132   -29258.934     484.8421 
  154800     299.1983   -29134.426    142.69653   -29277.123   -21457.112 
  155000    335.91282   -29113.021    160.20677   -29273.228    24547.083 
  155200    322.41773   -29099.948    153.77056   -29253.719   -21270.302 
  155400    292.17905   -29130.952    139.34884   -29270.301    20255.156 
  155600    274.60556   -29136.271    130.96752   -29267.238    9432.5998 
  155800    303.39322   -29102.567    144.69721   -29247.264   -22372.504 
  156000     316.5599   -29130.319    150.97679   -29281.295   -36413.804 
  156200    308.90912   -29132.968     147.3279   -29280.296   -28918.158 
  156400     336.5837   -29104.548    160.52673   -29265.075    30795.341 
  156600    305.75501   -29120.608    145.82362   -29266.431    21878.883 
  156800    300.41169   -29132.807    143.27523   -29276.083   -51087.945 
  157000    304.79621     -29113.5    145.36634   -29258.866   -16251.698 
  157200    319.84509   -29104.586    152.54359    -29257.13    21167.019 
  157400    299.98581   -29135.422    143.07211   -29278.494   -52188.236 
  157600     303.4914   -29112.788    144.74403   -29257.532    38617.995 
  157800     314.3685   -29124.283    149.93164   -29274.215    22276.926 
  158000    282.99078   -29143.451    134.96668   -29278.418   -26346.106 
  158200    309.31716   -29112.639    147.52251   -29260.161   -9821.7962 
  158400     289.0284   -29120.929     137.8462   -29258.775   -5183.0944 
  158600    289.27378   -29128.946    137.96323   -29266.909     -18639.4 
  158800    316.79423   -29129.306    151.08855   -29280.394    30787.571 
  159000    308.33551   -29110.768    147.05433   -29257.823    19681.538 
  159200    298.67942   -29125.999    142.44906   -29268.448   -34238.472 
  159400    282.94636   -29137.876     134.9455   -29272.822    8616.1346 
  159600    279.51779   -29118.544    133.31031   -29251.855    -52929.98 
  159800    311.37915   -29125.103    148.50594   -29273.609    9265.1899 
  160000    258.08329   -29160.255    123.08756   -29283.343   -5330.0113 
  160200      287.831   -29130.745    137.27513    -29268.02    -25491.53 
  160400    324.42393   -29114.644    154.72738   -29269.371    14292.508 
  160600    289.85257   -29130.895    138.23927   -29269.134    33657.513 
  160800    297.86178   -29137.623     142.0591   -29279.682    34578.112 
  161000    304.51562   -29108.908    145.23252    -29254.14    11905.943 
  161200      295.605   -29133.778    140.98278   -29274.761   -49145.824 
  161400    308.00766   -29113.885    146.89797   -29260.783    14571.828 
  161600    313.54283   -29113.512    149.53786   -29263.049   -34907.656 
  161800    298.90686   -29132.575    142.55753   -29275.132    29717.219 
  162000    323.21523   -29118.393    154.15091   -29272.544    762.06001 
  162200    328.84953   -29106.951    156.83808   -29263.789   -1284.7027 
  162400    309.38429   -29132.623    147.55453   -29280.178    45570.037 
  162600    325.84179   -29118.081     155.4036   -29273.484    28598.512 
  162800    333.82849   -29096.177    159.21269    -29255.39    30428.946 
  163000    299.96288   -29133.594    143.06118   -29276.655   -4326.2158 
  163200    266.13124   -29120.817    126.92587   -29247.743    32981.376 
  163400    307.86474    -29100.13    146.82981    -29246.96   -15639.252 
  163600    293.95727   -29132.337    140.19692   -29272.534   -12094.708 
  163800    313.76648   -29118.072    149.64452   -29267.716    5007.2269 
  164000    304.81829   -29107.042    145.37687   -29252.419    10874.596 
  164200    315.19952   -29139.474    150.32798   -29289.802    6512.3195 
  164400    307.92381   -29132.491    146.85798   -29279.349    3047.8175 
  164600    297.45774    -29107.46    141.86641   -29249.326   -5796.1399 
  164800     290.6748   -29128.944    138.63142   -29267.576   -10856.768 
  165000    314.96212   -29134.957    150.21476   -29285.172    463.73565 
  165200    317.65724   -29103.612    151.50015   -29255.112    6105.3426 
  165400    305.09022   -29118.115    145.50656   -29263.621    9288.0554 
  165600    294.13423   -29133.047    140.28133   -29273.328    42903.157 
  165800    326.13197   -29109.361    155.54199   -29264.903   -8496.1967 
  166000    322.77829   -29105.117    153.94253    -29259.06   -35826.335 
  166200    283.53286   -29126.487    135.22522   -29261.712    -7754.735 
  166400    307.00214   -29133.251    146.41841    -29279.67    27185.569 
  166600    338.12397   -29104.262    161.26133   -29265.523   -39609.303 
  166800    278.44206   -29136.518    132.79726   -29269.315   -13997.547 
  167000    322.15504   -29122.034    153.64527   -29275.679    17102.837 
  167200    297.22928   -29116.762    141.75744   -29258.519     20702.15 
  167400    278.24506   -29145.119    132.70331   -29277.823    7134.4955 
  167600    298.49943   -29117.413    142.36322   -29259.776    2870.9936 
  167800    285.42934   -29123.439    136.12971   -29259.568   -8301.4981 
  168000    271.00572   -29157.312    129.25065   -29286.562    10205.739 
  168200    289.65877   -29135.732    138.14685   -29273.878    11679.582 
  168400    298.50371   -29119.685    142.36526    -29262.05     20761.22 
  168600    299.90726   -29122.356    143.03465   -29265.391   -23228.437 
  168800    307.69879   -29136.936    146.75067   -29283.687    2486.0213 
  169000    281.29732   -29122.619    134.15902   -29256.779   -33558.818 
  169200    326.09934   -29105.019    155.52643   -29260.545    15207.384 
  169400    298.47134   -29137.544    142.34982   -29279.894   -11462.831 
  169600    300.31959    -29125.73     143.2313   -29268.961    3129.3745 
  169800    349.87205   -29093.143    166.86434   -29260.007   -29686.861 
  170000    304.10006   -29131.631    145.03432   -29276.665    3605.8264 
  170200    297.48255   -29130.256    141.87824   -29272.134    24721.748 
  170400     333.3642   -29104.107    158.99126   -29263.099    1599.1484 
  170600    289.74671   -29133.122    138.18879    -29271.31     25696.11 
  170800    293.66857   -29126.654    140.05924   -29266.714    -20102.21 
  171000    311.23643   -29105.376    148.43787   -29253.814   -10022.902 
  171200    281.79486   -29141.485    134.39631   -29275.881   -17137.465 
  171400    286.66036   -29127.573    136.71681    -29264.29    4936.6501 
  171600    312.84375   -29110.093    149.20445   -29259.297     22613.94 
  171800    273.86234   -29140.273    130.61306   -29270.886    34749.524 
  172000    303.57053   -29132.912    144.78177   -29277.694    7040.0324 
  172200    300.12993   -29117.687    143.14085   -29260.828   -35652.745 
  172400    294.65349   -29123.945    140.52897   -29264.474   -12462.767 
  172600    258.03751   -29157.943    123.06573   -29281.009   -4605.8626 
  172800    313.86012   -29125.137    149.68918   -29274.826   -20562.019 
  173000    320.42235   -29118.635    152.81891   -29271.454   -21467.724 
  173200    275.07098    -29133.88    131.18949    -29265.07    18945.074 
  173400    301.12617   -29133.856    143.61599   -29277.472    10870.986 
  173600    320.58769   -29110.986    152.89776   -29263.884    47358.766 
  173800    295.57683   -29133.036    140.96934   -29274.005     11177.87 
  174000    285.42719   -29152.989    136.12868   -29289.118   -729.92455 
  174200    308.06328   -29129.731     146.9245   -29276.655   -9065.1979 
  174400    292.20434   -29110.261     139.3609   -29249.622   -10213.021 
  174600    336.24463   -29100.312    160.36502   -29260.677    21926.739 
  174800    285.36791    -29134.51     136.1004    -29270.61    -22145.82 
  175000    291.51405   -29121.682    139.03168   -29260.713    2283.5859 
  175200     320.1369   -29105.837    152.68276    -29258.52    14545.654 
  175400    306.02882   -29124.131    145.95421   -29270.086    26429.859 
  175600    307.49228   -29126.844    146.65217   -29273.496    43675.013 
  175800    341.69354   -29101.005    162.96376   -29263.969   -25274.646 
  176000    296.81071    -29133.76    141.55781   -29275.318    -22860.24 
  176200    267.33816   -29127.097    127.50149   -29254.598    6489.4637 
  176400    333.78097   -29093.359    159.19003   -29252.549    45263.645 
  176600    296.22381    -29139.57    141.27791   -29280.848   -16624.422 
  176800    306.97453    -29127.45    146.40524   -29273.855     29457.24 
  177000    290.36577   -29107.515    138.48403   -29245.999   -28045.652 
  177200    286.37944   -29144.052    136.58283   -29280.634    9727.4985 
  177400    320.30673   -29124.894    152.76376   -29277.657    4639.3303 
  177600    293.86532   -29113.612    140.15307   -29253.765   -14211.124 
  177800    309.93585   -29125.816    147.81758   -29273.634    -44577.59 
[...]
  950000    326.28202   -29160.781    155.61356   -29316.394    38091.531 
  950200    301.91797   -29193.173    143.99362   -29337.167     23470.81 
  950400    290.78302   -29187.989    138.68303   -29326.673    37511.806 
  950600    347.47953   -29153.472    165.72328   -29319.195    22968.349 
  950800    339.65726   -29178.527     161.9926    -29340.52   -19321.576 
  951000    303.15845   -29193.986    144.58524   -29338.571    26448.794 
  951200    297.44733   -29179.741    141.86144   -29321.602   -41902.474 
  951400    321.79327   -29171.544    153.47274   -29325.017    2442.6329 
  951600    294.00788   -29198.463    140.22106   -29338.684   -6883.5807 
  951800    315.43705   -29176.669    150.44127   -29327.111    5924.2765 
  952000    280.43212   -29179.514    133.74638   -29313.261    -31907.88 
  952200    270.60451   -29196.828     129.0593   -29325.888    13895.602 
  952400    326.30697   -29172.509    155.62546   -29328.134    10383.092 
  952600    290.73026   -29172.122    138.65787    -29310.78   -33470.956 
  952800    287.30767   -29199.091    137.02553   -29336.117   -19112.449 
  953000    303.40819   -29172.591    144.70435   -29317.295    11728.572 
  953200    300.10049   -29176.765    143.12681   -29319.892     6270.518 
  953400    298.17406   -29205.666    142.20804   -29347.874   -29354.161 
  953600    315.24628   -29177.515    150.35029   -29327.866     -24210.3 
  953800    298.10955   -29177.031    142.17727   -29319.208   -10588.561 
  954000    257.09694   -29214.219    122.61714   -29336.836   -18699.684 
  954200     294.3724   -29196.078    140.39492   -29336.473    23167.363 
  954400     325.3766   -29172.137    155.18173   -29327.319    -16604.64 
  954600    303.95602   -29193.235    144.96562     -29338.2   -15489.944 
  954800    279.27565     -29195.2    133.19483   -29328.394     7766.641 
  955000    319.12276   -29178.335    152.19909   -29330.534     25224.52 
  955200    302.23665   -29185.061    144.14561   -29329.207   -32441.539 
  955400    292.86764   -29208.159    139.67725   -29347.836    19954.888 
  955600    290.68041   -29189.122    138.63409   -29327.756    -3052.335 
  955800    308.08765   -29175.331    146.93612   -29322.268     -14488.6 
  956000    273.83045   -29204.626    130.59785   -29335.224   -9030.1262 
  956200    308.49452   -29195.106    147.13017   -29342.237   -21072.482 
  956400    318.84438   -29178.809    152.06632   -29330.875   -17094.694 
  956600    296.82581   -29197.911    141.56502   -29339.476    10263.682 
  956800    300.69267   -29178.047    143.40924   -29321.457    16907.552 
  957000     300.0192   -29171.377    143.08804   -29314.465   -37572.337 
  957200    285.79581   -29200.032    136.30448   -29336.337    -25452.33 
  957400    308.47648   -29176.244    147.12157   -29323.365    23114.832 
  957600    278.18857   -29195.773    132.67637   -29328.449   -14330.159 
  957800    271.45983   -29200.534    129.46723   -29330.002   -44620.587 
  958000      314.569   -29180.113    150.02727    -29330.14   -3818.6255 
  958200    288.25794   -29191.759    137.47874   -29329.238   -22200.072 
  958400    270.67968   -29213.586    129.09516   -29342.681     2693.789 
  958600    296.68086   -29183.749    141.49588   -29325.244   -5717.3264 
  958800    310.86451   -29186.708    148.26049   -29334.969    50218.601 
  959000    268.11951   -29212.514    127.87413   -29340.388    -25560.85 
  959200    305.59811   -29179.977    145.74878   -29325.726    24148.611 
  959400    287.30539   -29178.867    137.02445   -29315.891   -24646.241 
  959600     277.9499   -29200.368    132.56254   -29332.931   -33286.707 
  959800    301.30213   -29185.637    143.69991   -29329.337    20489.405 
  960000    303.45491   -29174.339    144.72663   -29319.066   -7253.7409 
  960200     286.9812   -29197.265    136.86983   -29334.135    -1148.587 
  960400    296.20613   -29197.888    141.26947   -29339.158   -16373.402 
  960600    326.74486   -29180.762     155.8343   -29336.597   -19957.044 
  960800    297.54375   -29187.487    141.90742   -29329.394   -29345.039 
  961000    311.41938   -29197.049    148.52512   -29345.574    -9314.153 
  961200     294.0232   -29175.826    140.22837   -29316.055    38256.994 
  961400    287.51709   -29173.852    137.12541   -29310.978   -33526.466 
  961600     307.4468   -29201.104    146.63048   -29347.735   -146.93503 
  961800     314.8739   -29169.112    150.17269   -29319.285   -16211.574 
  962000    297.27011   -29176.513    141.77692    -29318.29   -26212.322 
  962200    291.54572   -29193.657    139.04679   -29332.703     21420.58 
  962400     286.2052   -29192.153    136.49973   -29328.652   -44193.293 
  962600    313.42258   -29171.417    149.48051   -29320.897    12163.346 
  962800    287.23835   -29182.473    136.99247   -29319.465   -18082.244 
  963000    302.92661   -29202.077    144.47467   -29346.552    3895.6561 
  963200    325.69784   -29166.654    155.33494   -29321.989    5385.0749 
  963400    292.55032   -29178.728    139.52591   -29318.254     7549.846 
  963600    286.95962   -29192.401    136.85954    -29329.26   -11810.319 
  963800    333.08791   -29190.552    158.85949   -29349.412    14336.218 
  964000    323.11302   -29167.533    154.10217   -29321.635    32601.618 
  964200     296.2017   -29189.944    141.26736   -29331.211    910.74745 
  964400    294.85185   -29195.467    140.62358   -29336.091    -34138.58 
  964600    322.79566   -29170.078    153.95081   -29324.029    11651.358 
  964800    295.41543   -29207.389    140.89236   -29348.281    30494.061 
  965000    296.50365   -29189.478    141.41137   -29330.889    43490.356 
  965200    314.71005   -29178.816    150.09454   -29328.911   -2380.1267 
  965400    275.37327   -29209.035    131.33367   -29340.369   -43798.719 
  965600    294.52035    -29189.44    140.46548   -29329.905    22527.309 
  965800    282.93796   -29178.707    134.94149   -29313.649   -41970.254 
  966000    323.21453   -29177.776    154.15058   -29331.927   -207.41485 
  966200    295.62945    -29198.93    140.99444   -29339.924   -12414.959 
  966400    296.39941    -29187.81    141.36165   -29329.172    -10769.76 
  966600    313.97879   -29169.001    149.74578   -29318.747   -61285.666 
  966800    308.49782   -29194.179    147.13174   -29341.311    11843.421 
  967000    293.59473   -29178.602    140.02402   -29318.626    -12912.26 
  967200    329.10947   -29168.427    156.96205   -29325.389   -15349.089 
  967400    287.86049   -29194.609    137.28919   -29331.898    39716.657 
  967600    335.86528   -29169.661     160.1841   -29329.845    9236.0001 
  967800    298.80214   -29171.137    142.50759   -29313.645   -20982.956 
  968000    289.07121   -29186.457    137.86662   -29324.324   -26247.649 
  968200    319.05789   -29185.428    152.16816   -29337.596    2063.9526 
  968400    282.28284   -29190.897    134.62904   -29325.526   -7521.8094 
  968600    330.84401   -29163.707     157.7893   -29321.496    3509.6449 
  968800    312.86717   -29192.261    149.21561   -29341.476    27743.126 
  969000    300.68917    -29188.41    143.40757   -29331.818   -47639.349 
  969200    302.81431   -29167.862    144.42111   -29312.283   -43932.608 
  969400    347.45741   -29162.674    165.71272   -29328.387    9240.8032 
  969600    311.82581   -29191.723    148.71896   -29340.442    33998.631 
  969800     328.1753   -29166.999    156.51652   -29323.516   -13766.922 
  970000     310.4923   -29178.658    148.08297   -29326.741    51891.535 
  970200    293.36612   -29192.711    139.91499   -29332.626   -40547.251 
  970400     322.7476   -29170.975    153.92789   -29324.903    39384.486 
  970600    308.08369   -29200.288    146.93423   -29347.223   -19013.687 
  970800    313.65753   -29195.936    149.59256   -29345.528    8296.1141 
  971000    310.38677   -29184.295    148.03264   -29332.328   -752.13654 
  971200    299.37661   -29186.183    142.78157   -29328.965    372.34779 
  971400    301.71744   -29197.177    143.89798   -29341.075   -11366.888 
  971600    277.64252   -29204.613    132.41594   -29337.029    12355.619 
  971800     308.6919   -29175.346    147.22431   -29322.571   -33244.904 
  972000    297.38733   -29194.228    141.83282    -29336.06    11407.478 
  972200    296.71854   -29203.871    141.51386   -29345.385   -8929.8699 
  972400    298.73642   -29182.096    142.47624   -29324.572   -11687.927 
  972600    296.95348   -29188.156    141.62591   -29329.782    39055.197 
  972800    293.03545   -29197.288    139.75728   -29337.045    45777.043 
  973000    304.59232     -29168.2     145.2691   -29313.469    14946.245 
  973200    303.97153   -29192.371    144.97302   -29337.344    16763.076 
  973400    304.27114   -29186.622    145.11591   -29331.738   -12179.519 
  973600    298.83037   -29184.437    142.52105   -29326.958    -6095.046 
  973800    298.94029   -29187.462    142.57348   -29330.035   -25424.193 
  974000    290.62928   -29188.543    138.60971   -29327.153   -2452.2281 
  974200    307.13617   -29180.878    146.48233    -29327.36    1164.6977 
  974400    330.83919   -29173.709      157.787   -29331.496   -1403.9711 
  974600    287.63924   -29200.285    137.18367   -29337.468    5468.9912 
  974800    325.51008   -29170.174    155.24539    -29325.42   -23809.024 
  975000    285.71602   -29174.065    136.26643   -29310.332   -23539.841 
  975200    272.68608   -29187.647    130.05206     -29317.7    16858.071 
  975400    314.67501    -29176.49    150.07783   -29326.568    -12665.63 
  975600    319.63634   -29164.362    152.44403   -29316.806   -22311.942 
  975800    287.11875   -29191.587    136.93543   -29328.522    4810.5556 
  976000    313.48669   -29170.135    149.51108   -29319.647    33689.508 
  976200    288.06112   -29177.873    137.38488   -29315.258    15924.194 
  976400    308.90994   -29188.795     147.3283   -29336.123   -8994.9542 
  976600    276.57423    -29194.51    131.90644   -29326.417   -2132.8512 
  976800    294.30869   -29182.419    140.36453   -29322.783    9092.7631 
  977000    289.42574   -29174.825    138.03571   -29312.861    4635.8922 
  977200    298.71362    -29194.11    142.46537   -29336.576    -47085.27 
  977400    270.00943    -29186.95    128.77549   -29315.726   -37141.223 
  977600    313.38813   -29162.695    149.46408   -29312.159   -28776.877 
  977800    312.40495   -29175.413    148.99517   -29324.408    13025.183 
  978000    285.30493   -29189.697    136.07037   -29325.768   -9583.3837 
  978200    306.65446   -29171.133    146.25259   -29317.386   -8092.1316 
  978400    275.39145   -29202.624    131.34233   -29333.967   -151.07988 
  978600    317.81049   -29180.794    151.57323   -29332.367    1640.9128 
  978800    301.32573   -29184.606    143.71116   -29328.317     29600.07 
  979000    288.25641   -29193.804    137.47802   -29331.282   -9119.9102 
  979200    297.93727   -29163.323    142.09511   -29305.418   -9809.5793 
  979400    296.37498   -29189.137       141.35   -29330.487   -26556.918 
  979600    298.21994   -29191.272    142.22992   -29333.502    17134.182 
  979800    273.88267   -29184.514    130.62276   -29315.137   -7794.2348 
  980000    353.41053   -29144.405    168.55195   -29312.957    11159.638 
  980200    310.64711   -29178.385    148.15681   -29326.541    36269.953 
  980400    257.60172    -29193.71    122.85789   -29316.568   -19.468821 
  980600    277.62499   -29200.293    132.40758     -29332.7    840.50611 
  980800    316.49836   -29171.974    150.94744   -29322.921    5952.4722 
  981000    292.61173   -29178.023     139.5552   -29317.578   -20539.578 
  981200     302.7222    -29198.84    144.37718   -29343.218   -4841.0372 
  981400    305.29118    -29176.98     145.6024   -29322.583   -21111.267 
  981600    330.51384   -29172.369    157.63184   -29330.001     8852.414 
  981800    288.78729   -29194.436    137.73121   -29332.167    5452.2418 
  982000    283.02926    -29196.93    134.98503   -29331.915   -24467.974 
  982200    349.71344   -29170.014    166.78869   -29336.803   -11732.565 
  982400    308.97231   -29185.841    147.35804   -29333.199    28399.002 
  982600    292.59503   -29204.627    139.54723   -29344.174    -35441.99 
  982800    275.76088   -29201.084    131.51853   -29332.602    18052.036 
  983000    325.61063   -29176.935    155.29335   -29332.228   -65496.009 
  983200    295.66089   -29189.197    141.00943   -29330.207   -23402.454 
  983400    309.38521   -29197.995    147.55496    -29345.55   -17030.001 
  983600    326.77119   -29181.783    155.84686    -29337.63   -4082.9467 
  983800    295.52214   -29181.278    140.94326   -29322.221    6064.2331 
  984000    304.51631   -29187.231    145.23285   -29332.464    21538.236 
  984200    298.43183   -29200.373    142.33098   -29342.704    9566.6099 
  984400    328.71524   -29166.181    156.77403   -29322.955    15463.624 
  984600    317.87311   -29176.532     151.6031   -29328.135   -13069.106 
  984800    298.01062   -29190.595    142.13009   -29332.725   -19903.271 
  985000    295.54885    -29185.19      140.956   -29326.146   -25086.217 
  985200    341.40629   -29154.332    162.82677   -29317.159    27721.261 
  985400    318.55095   -29186.894    151.92638    -29338.82   -16861.916 
  985600    309.62928   -29190.764    147.67137   -29338.435   -10713.735 
  985800    304.36655   -29173.041    145.16142   -29318.202   -7653.7062 
  986000    328.44275   -29175.376    156.64407    -29332.02   -7772.6889 
  986200    291.19785    -29194.71    138.88088   -29333.591   -34299.419 
  986400    311.02756   -29172.714    148.33825   -29321.052   -26297.258 
  986600    311.04385   -29159.578    148.34602   -29307.924   -28570.992 
  986800    297.37797   -29189.673    141.82836   -29331.502    24190.986 
  987000    319.18617   -29189.726    152.22934   -29341.955    -3437.608 
  987200    326.00415   -29160.077    155.48103   -29315.558   -46871.155 
  987400    283.43205   -29183.787    135.17714   -29318.964    7736.0368 
  987600    313.41561   -29188.468    149.47718   -29337.945    -4720.853 
  987800    305.36422   -29172.802    145.63724   -29318.439   -12893.913 
  988000    308.79845   -29181.985    147.27513    -29329.26   -31837.718 
  988200    299.62878   -29201.557    142.90184   -29344.459   -32752.555 
  988400    300.26249   -29182.369    143.20407   -29325.574    22824.145 
  988600     314.9781   -29184.343    150.22238   -29334.566   -12344.836 
  988800    231.63037   -29210.697    110.47138   -29321.169   -17676.655 
  989000    292.10285     -29188.5     139.3125   -29327.813   -18096.256 
  989200    310.45854   -29180.467    148.06687   -29328.534   -32930.147 
  989400    264.86447   -29204.938    126.32171    -29331.26   -1382.0447 
  989600     295.4568   -29173.878     140.9121    -29314.79   -6517.0825 
  989800    305.07758   -29175.254    145.50053   -29320.755    -338.1647 
  990000    290.25205   -29201.242     138.4298   -29339.672   -50286.901 
  990200     291.0636   -29185.474    138.81685   -29324.291     27068.34 
  990400    291.78292   -29179.414    139.15991   -29318.574    13390.306 
  990600     309.0433   -29185.245     147.3919   -29332.637    19411.567 
  990800    295.11793   -29180.986    140.75048   -29321.736   -19083.535 
  991000    294.07918   -29175.064    140.25507   -29315.319   -10144.867 
  991200    285.08736   -29184.998     135.9666   -29320.965   -5767.9065 
  991400    276.95306   -29208.607    132.08712   -29340.694   -16556.384 
  991600    302.05396   -29172.366    144.05848   -29316.425   -22653.555 
  991800    278.76233   -29186.626    132.95001   -29319.576   -20074.726 
  992000    276.49852    -29201.37    131.87033   -29333.241    14786.888 
  992200    295.82513   -29193.007    141.08776   -29334.095   -45504.119 
  992400    303.69324   -29169.718     144.8403   -29314.559   -14571.527 
  992600    281.47557   -29203.872    134.24403   -29338.116   -20870.707 
  992800     304.0243   -29189.958    144.99819   -29334.956    14267.518 
  993000    288.52211   -29174.872    137.60474   -29312.477    33403.673 
  993200    291.41591    -29181.31    138.98488   -29320.295   -3759.7338 
  993400    297.14906   -29201.492    141.71919   -29343.211    816.36848 
  993600    254.47704   -29210.011    121.36763   -29331.379    -7611.114 
  993800    315.77862   -29188.115    150.60417    -29338.72    5178.1659 
  994000    302.42557   -29176.167    144.23571   -29320.403    -21184.64 
  994200     341.9115   -29151.481    163.06772   -29314.548   -16732.385 
  994400    269.29431   -29190.031    128.43443   -29318.465    13722.804 
  994600    316.34057   -29190.454    150.87218   -29341.326    26077.082 
  994800    338.69279   -29159.139    161.53262   -29320.671    12029.656 
  995000    298.16969   -29181.531    142.20595   -29323.737   -26525.072 
  995200    284.74302   -29188.706    135.80238   -29324.508   -1641.0029 
  995400    328.89345    -29186.84    156.85902   -29343.699   -23539.257 
  995600    318.36165   -29163.141     151.8361   -29314.977   -12674.817 
  995800    294.51481   -29192.784    140.46283   -29333.247    39563.843 
  996000    292.81352   -29180.605    139.65144   -29320.257   -4056.7431 
  996200    336.36248   -29149.531    160.42123   -29309.952   -14070.198 
  996400    313.84966   -29178.713     149.6842   -29328.397    29501.913 
  996600    301.95968   -29192.098    144.01351   -29336.111    12676.996 
  996800    296.08745    -29183.69    141.21287   -29324.903   -33309.865 
  997000    305.83605   -29166.025    145.86227   -29311.887    29327.689 
  997200    279.79095    -29199.28    133.44059    -29332.72    13162.724 
  997400    320.67602   -29183.683    152.93989   -29336.622   -4466.4769 
  997600    323.58205   -29160.672    154.32586   -29314.998   -31238.758 
  997800    294.17054   -29165.019    140.29864   -29305.318    15358.366 
  998000     301.2588   -29194.248    143.67924   -29337.927    24670.975 
  998200    297.66957   -29178.515    141.96743   -29320.482   -27920.696 
  998400    308.37218   -29167.968    147.07182    -29315.04    -6047.696 
  998600    288.24839   -29183.021    137.47419   -29320.495   -428.03291 
  998800    290.47745   -29186.704    138.53729   -29325.242     12650.26 
  999000    316.75028   -29182.984    151.06759   -29334.051    24384.032 
  999200    330.89433    -29164.58    157.81331   -29322.393   -6077.1991 
  999400    293.88051   -29197.951    140.16032   -29338.111    30679.413 
  999600     304.1978   -29184.464    145.08094   -29329.545    3696.9314 
  999800    307.12211   -29176.698    146.47563   -29323.173    31587.662 
 1000000     299.5696   -29182.896    142.87361   -29325.769   -24020.681 
Loop time of 6333.86 on 8 procs for 1000000 steps with 161 atoms

Performance: 3.410 ns/day, 7.038 hours/ns, 157.881 timesteps/s
99.1% CPU use with 8 MPI tasks x no OpenMP threads

MPI task timing breakdown:
Section |  min time  |  avg time  |  max time  |%varavg| %total
---------------------------------------------------------------
Pair    | 4830.1     | 5033.6     | 5184.7     | 177.5 | 79.47
Neigh   | 0.51139    | 0.52613    | 0.53908    |   1.3 |  0.01
Comm    | 99.69      | 248.18     | 451.33     | 793.5 |  3.92
Output  | 0.11568    | 0.13254    | 0.22147    |   9.3 |  0.00
Modify  | 1037.5     | 1041.1     | 1044.9     |   7.2 | 16.44
Other   |            | 10.39      |            |       |  0.16

Nlocal:    20.125 ave 47 max 2 min
Histogram: 2 1 1 1 0 0 1 1 0 1
Nghost:    732.375 ave 757 max 699 min
Histogram: 1 1 1 0 0 0 1 2 0 2
Neighs:    2015.75 ave 4420 max 233 min
Histogram: 2 1 1 1 0 0 0 2 0 1

Total # of neighbors = 16126
Ave neighs/atom = 100.161
Neighbor list builds = 542
Dangerous builds = 0

unfix 1
unfix output
undump 1

Please see the log.cite file for references relevant to this simulation

Total wall time: 1:46:05
