ITEM: TIMESTEP
0
ITEM: NUMBER OF ATOMS
161
ITEM: BOX BOUNDS xy xz yz pp pp pp
-6.7755000000000001e+00 1.3552000000000000e+01 -6.7755000000000001e+00
0.0000000000000000e+00 1.1735510246683001e+01 0.0000000000000000e+00
0.0000000000000000e+00 2.2149999999999999e+01 0.0000000000000000e+00
ITEM: ATOMS id type x y z 
8 1 -2.486 5.297 9.849 
87 1 3.001 4.231 10.696 
90 1 2.733 5.481 9.824 
109 1 -2.486 5.297 0.765 
158 1 2.733 5.481 0.79 
11 1 4.24 4.139 20.131 
14 1 3.031 4.094 19.728 
18 1 1.299 5.827 18.554 
33 1 2.266 4.151 20.924 
43 1 4.343 3.96 21.647 
47 1 3.32 5.732 17.88 
52 1 4.24 4.139 12.633 
76 1 2.552 4.924 14.209 
85 1 4.343 3.96 11.117 
89 1 3.32 5.732 14.883 
91 1 1.036 5.037 11.84 
102 1 3.031 4.094 13.035 
105 1 1.299 5.827 14.209 
114 1 2.266 4.151 11.84 
150 1 2.552 4.924 18.554 
156 1 3.001 4.231 22.068 
159 1 1.036 5.037 20.924 
5 1 -5.049 10.63 8.653 
9 1 -3.317 8.897 7.479 
19 1 -1.707 7.414 10.572 
21 1 -2.66 8.795 10.993 
23 1 -3.31 7.532 6.805 
25 1 -4.284 10.573 9.849 
32 1 1.503 6.367 0.79 
36 1 -1.869 7.426 9.056 
38 1 -2.209 6.086 8.653 
54 1 0.3 8.576 10.696 
57 1 1.291 8.001 9.824 
60 1 -1.707 7.414 0.042 
65 1 -3.31 7.532 3.808 
78 1 -1.869 7.426 1.558 
80 1 -2.566 8.842 1.961 
84 1 -4.57 9.799 3.135 
99 1 -3.054 9.687 0.765 
100 1 -2.96 6.142 3.135 
107 1 -5.049 10.63 1.961 
110 1 -3.317 8.897 3.135 
111 1 0.642 5.929 10.696 
113 1 1.503 6.367 9.824 
119 1 -4.284 10.573 0.765 
127 1 -2.209 6.086 1.961 
131 1 -2.318 6.148 10.993 
138 1 1.291 8.001 0.79 
142 1 -2.566 8.842 8.653 
145 1 -4.57 9.799 7.479 
151 1 -5.019 10.493 10.993 
154 1 -3.054 9.687 9.849 
155 1 -2.96 6.142 7.479 
161 2 1.291 8.001 8.474 
12 1 2.53 7.1 17.202 
17 1 0.468 9.427 20.924 
24 1 -3.52 8.357 11.865 
27 1 -0.31 7.31 21.647 
29 1 0.642 5.929 22.068 
31 1 1.292 7.192 17.88 
44 1 -0.148 7.298 20.131 
46 1 0.191 8.638 19.728 
51 1 -0.31 7.31 11.117 
53 1 2.53 7.1 15.561 
56 1 1.292 7.192 14.883 
63 1 -2.318 6.148 21.771 
66 1 -3.309 6.723 20.899 
70 1 -0.148 7.298 12.633 
72 1 0.548 5.882 13.035 
92 1 0.942 8.582 14.209 
95 1 -5.019 10.493 21.771 
98 1 -4.751 9.243 20.899 
104 1 0.468 9.427 11.84 
116 1 -2.66 8.795 21.771 
118 1 -3.52 8.357 20.899 
122 1 0.191 8.638 13.035 
133 1 -3.309 6.723 11.865 
136 1 0.3 8.576 22.068 
147 1 0.548 5.882 19.728 
153 1 -4.751 9.243 11.865 
160 1 0.942 8.582 18.554 
1 1 7.976 4.694 10.572 
4 1 9.274 4.77 10.993 
20 1 8.034 4.861 9.056 
42 1 9.55 5.41 7.479 
67 1 10.043 4.578 0.765 
77 1 7.976 4.694 0.042 
94 1 8.035 4.861 1.558 
96 1 9.278 4.635 1.961 
121 1 4.688 5.417 10.696 
130 1 9.55 5.41 3.135 
134 1 10.043 4.578 9.849 
152 1 9.278 4.635 8.653 
45 1 4.688 5.417 22.068 
55 1 4.788 5.329 13.035 
106 1 9.274 4.77 21.771 
137 1 4.788 5.329 19.728 
2 1 7.294 10.585 9.056 
3 1 9.004 7.624 6.127 
6 1 8.556 6.347 6.805 
16 1 2.314 8.72 0.79 
22 1 7.166 6.156 8.653 
26 1 7.226 8.565 7.479 
35 1 7.191 10.764 10.572 
37 1 6.846 9.307 10.993 
39 1 8.214 8.992 6.805 
41 1 6.677 7.002 9.849 
48 1 3.775 6.213 0.79 
61 1 7.294 10.585 1.558 
62 1 9.004 7.624 4.487 
64 1 6.747 9.395 1.961 
68 1 7.437 6.931 3.135 
71 1 4.29 8.493 10.696 
74 1 3.567 7.818 9.824 
81 1 8.556 6.347 3.808 
83 1 6.47 8.606 0.765 
93 1 7.191 10.764 0.042 
97 1 8.214 8.992 3.808 
101 1 2.261 9.954 10.696 
103 1 2.314 8.72 9.824 
117 1 7.166 6.156 1.961 
120 1 7.226 8.565 3.135 
123 1 3.775 6.213 9.824 
129 1 6.677 7.002 0.765 
132 1 6.747 9.395 8.653 
135 1 7.437 6.931 7.479 
141 1 7.244 6.231 10.993 
144 1 6.47 8.606 9.849 
148 1 3.567 7.818 0.79 
7 1 9.22 6.004 11.865 
10 1 3.558 10.029 21.647 
13 1 2.261 9.954 22.068 
15 1 2.978 8.376 17.88 
28 1 3.5 9.862 20.131 
30 1 4.369 8.568 19.728 
34 1 4.308 6.159 18.554 
40 1 7.76 8.511 11.865 
49 1 4.857 7.722 20.924 
50 1 1.984 9.314 18.554 
58 1 1.491 10.146 11.84 
59 1 4.097 7.793 14.209 
69 1 3.558 10.029 11.117 
73 1 2.978 8.376 14.883 
75 1 5.064 6.118 11.84 
79 1 7.244 6.231 21.771 
82 1 7.967 6.906 20.899 
86 1 3.5 9.862 12.633 
88 1 2.256 10.089 13.035 
108 1 9.22 6.004 20.899 
112 1 4.369 8.568 13.035 
115 1 4.308 6.159 14.209 
124 1 4.857 7.722 11.84 
125 1 1.984 9.314 14.209 
126 1 6.846 9.307 21.771 
128 1 7.76 8.511 20.899 
139 1 1.491 10.146 20.924 
140 1 4.097 7.793 18.554 
143 1 7.967 6.906 11.865 
146 1 4.29 8.493 22.068 
149 1 5.064 6.118 20.924 
157 1 2.256 10.089 19.728 
ITEM: TIMESTEP
10
ITEM: NUMBER OF ATOMS
161
ITEM: BOX BOUNDS xy xz yz pp pp pp
-6.7755000000000001e+00 1.3552000000000000e+01 -6.7755000000000001e+00
0.0000000000000000e+00 1.1735510246683001e+01 0.0000000000000000e+00
0.0000000000000000e+00 2.2149999999999999e+01 0.0000000000000000e+00
ITEM: ATOMS id type x y z 
8 1 -2.43985 5.4192 9.85428 
87 1 2.97116 4.29231 10.6537 
90 1 2.66625 5.47468 9.75884 
109 1 -2.44333 5.41462 0.767781 
158 1 2.65617 5.43972 0.863837 
11 1 4.29164 4.26428 20.0976 
14 1 2.89322 4.13526 19.6966 
18 1 1.30841 5.84768 18.5872 
33 1 2.08472 4.27978 20.9278 
43 1 4.29886 4.19131 21.5658 
47 1 3.24646 5.76704 17.8386 
52 1 4.30258 4.23569 12.672 
76 1 2.4318 4.90705 14.1999 
85 1 4.27385 4.20441 11.1561 
89 1 3.243 5.79889 14.9255 
91 1 0.953011 5.08747 11.8616 
102 1 2.88102 4.13217 13.0637 
105 1 1.32162 5.85547 14.1861 
114 1 2.08696 4.26352 11.8456 
150 1 2.43261 4.90867 18.5754 
156 1 2.97613 4.28422 22.0978 
159 1 0.950039 5.11354 20.921 
5 1 -4.91494 10.5957 8.63495 
9 1 -3.34129 8.84038 7.50194 
19 1 -1.75622 7.53841 10.5551 
21 1 -2.63283 8.74589 10.9571 
23 1 -3.29779 7.53872 6.8255 
25 1 -4.09762 10.4399 9.85351 
32 1 1.58969 6.35983 0.758801 
36 1 -1.89626 7.55715 9.06687 
38 1 -2.15249 6.23719 8.66131 
54 1 0.260857 8.52707 10.765 
57 1 1.24332 7.90154 9.6244 
60 1 -1.7695 7.54064 0.0645148 
65 1 -3.26498 7.54501 3.8052 
78 1 -1.89483 7.55347 1.54688 
80 1 -2.54169 8.77368 1.90265 
84 1 -4.44926 9.81968 3.1146 
99 1 -2.95466 9.61663 0.76586 
100 1 -2.92443 6.25438 3.16451 
107 1 -4.90421 10.5983 2.00027 
110 1 -3.32843 8.87305 3.10093 
111 1 0.554024 5.93034 10.7338 
113 1 1.48459 6.28324 9.84118 
119 1 -4.0873 10.4553 0.785586 
127 1 -2.15176 6.23528 1.95099 
131 1 -2.34363 6.23233 10.9778 
138 1 1.36991 7.98562 0.832569 
142 1 -2.55584 8.78219 8.71214 
145 1 -4.45725 9.81872 7.49454 
151 1 -5.00411 10.4441 11.0133 
154 1 -2.96731 9.60714 9.8427 
155 1 -2.936 6.2724 7.43685 
161 2 1.20753 8.0206 8.34546 
12 1 2.57618 7.06132 17.0909 
17 1 0.425534 9.32951 20.9095 
24 1 -3.62799 8.35968 11.8402 
27 1 -0.25716 7.17079 21.6181 
29 1 0.62445 5.97763 22.0413 
31 1 1.2576 7.18595 17.8857 
44 1 -0.119698 7.15643 20.1531 
46 1 0.128674 8.48545 19.7255 
51 1 -0.258793 7.25413 11.1024 
53 1 2.58422 7.05194 15.6569 
56 1 1.26314 7.16405 14.888 
63 1 -2.34486 6.22064 21.7779 
66 1 -3.37363 6.73509 20.8631 
70 1 -0.150847 7.16695 12.637 
72 1 0.53526 5.9062 12.9981 
92 1 0.912858 8.48226 14.2559 
95 1 -5.00309 10.4625 21.7161 
98 1 -4.65134 9.27793 20.798 
104 1 0.414725 9.34 11.8368 
116 1 -2.62451 8.74278 21.7991 
118 1 -3.62373 8.36266 20.9167 
122 1 0.12893 8.51674 13.0559 
133 1 -3.37259 6.73095 11.9003 
136 1 0.315762 8.50503 22.0848 
147 1 0.526515 5.9411 19.7959 
153 1 -4.65463 9.31119 11.9445 
160 1 0.91124 8.47993 18.5142 
1 1 7.84593 4.92762 10.5028 
4 1 9.19142 4.74791 11.0167 
20 1 7.83737 4.95665 9.05709 
42 1 9.46211 5.44071 7.43766 
67 1 9.9887 4.60005 0.743918 
77 1 7.86041 4.92444 0.111705 
94 1 7.83651 4.95589 1.54722 
96 1 9.15549 4.64766 1.99579 
121 1 4.68889 5.50014 10.6551 
130 1 9.46141 5.43193 3.18427 
134 1 9.99103 4.5965 9.8548 
152 1 9.1588 4.65707 8.61224 
45 1 4.65279 5.47621 22.0659 
55 1 4.83155 5.52225 13.059 
106 1 9.18174 4.75903 21.7538 
137 1 4.81952 5.49562 19.7062 
2 1 7.23961 10.456 9.01264 
3 1 8.97728 7.65062 6.04481 
6 1 8.50629 6.39373 6.84126 
16 1 2.3564 8.67817 0.873407 
22 1 7.10864 6.17771 8.68354 
26 1 7.21055 8.40505 7.54583 
35 1 7.22995 10.5355 10.4982 
37 1 6.88637 9.26951 10.9743 
39 1 8.27974 8.93663 6.79762 
41 1 6.7142 7.00795 9.81412 
48 1 3.68501 6.37459 0.843532 
61 1 7.23245 10.4857 1.60365 
62 1 8.9523 7.65237 4.5815 
64 1 6.7059 9.21336 2.01692 
68 1 7.39034 6.98673 3.0563 
71 1 4.34861 8.53336 10.7831 
74 1 3.62412 7.80084 9.77656 
81 1 8.51055 6.39331 3.7854 
83 1 6.54541 8.46358 0.776523 
93 1 7.21026 10.5335 0.114433 
97 1 8.26961 8.94197 3.84763 
101 1 2.3729 9.89839 10.6774 
103 1 2.54983 8.7907 9.90591 
117 1 7.11832 6.15233 1.94128 
120 1 7.19617 8.40255 3.06474 
123 1 3.82439 6.31406 9.81226 
129 1 6.68976 7.01234 0.802688 
132 1 6.72444 9.21837 8.61354 
135 1 7.40746 7 7.56636 
141 1 7.19114 6.18662 10.9323 
144 1 6.55856 8.45357 9.82945 
148 1 3.59705 7.77779 0.828013 
7 1 9.19012 6.05864 11.9588 
10 1 3.694 9.78182 21.577 
13 1 2.34765 9.96588 22.0893 
15 1 3.02945 8.3593 17.9067 
28 1 3.70844 9.73154 20.1234 
30 1 4.40392 8.54884 19.784 
34 1 4.35124 6.31113 18.6256 
40 1 7.85303 8.34509 11.9446 
49 1 4.81234 7.73634 20.8669 
50 1 2.07475 9.27854 18.524 
58 1 1.55791 10.0966 11.8002 
59 1 4.15063 7.77279 14.1017 
69 1 3.68937 9.7583 11.1625 
73 1 3.02283 8.33954 14.8582 
75 1 4.98288 6.32361 11.8817 
79 1 7.19669 6.16855 21.813 
82 1 7.94398 6.91527 20.8432 
86 1 3.72016 9.73815 12.6485 
88 1 2.35288 10.0729 13.0597 
108 1 9.18806 6.04737 20.8147 
112 1 4.41032 8.54633 12.9783 
115 1 4.34814 6.3155 14.1462 
124 1 4.8093 7.74811 11.8983 
125 1 2.07323 9.28039 14.2491 
126 1 6.87193 9.28234 21.7745 
128 1 7.85281 8.34985 20.8189 
139 1 1.55505 10.1167 20.9369 
140 1 4.15295 7.77911 18.6655 
143 1 7.93708 6.91546 11.9101 
146 1 4.33495 8.53796 22.0126 
149 1 4.97655 6.27285 20.9082 
157 1 2.37023 10.062 19.6835 
ITEM: TIMESTEP
20
ITEM: NUMBER OF ATOMS
161
ITEM: BOX BOUNDS xy xz yz pp pp pp
-6.7755000000000001e+00 1.3552000000000000e+01 -6.7755000000000001e+00
0.0000000000000000e+00 1.1735510246683001e+01 0.0000000000000000e+00
0.0000000000000000e+00 2.2149999999999999e+01 0.0000000000000000e+00
ITEM: ATOMS id type x y z 
8 1 -2.44345 5.43459 9.83614 
87 1 2.96318 4.33 10.6552 
90 1 2.65517 5.49888 9.74448 
109 1 -2.44578 5.43124 0.781968 
158 1 2.65164 5.43733 0.872312 
11 1 4.26307 4.25749 20.1005 
14 1 2.86382 4.16152 19.7147 
18 1 1.29747 5.85572 18.5732 
33 1 2.07915 4.28923 20.9087 
43 1 4.28389 4.23528 21.5465 
47 1 3.24665 5.77771 17.8299 
52 1 4.26467 4.25569 12.656 
76 1 2.42658 4.9236 14.1947 
85 1 4.27701 4.24092 11.2146 
89 1 3.25164 5.78589 14.932 
91 1 0.929676 5.09894 11.8572 
102 1 2.86796 4.16306 13.0549 
105 1 1.29748 5.85605 14.1942 
114 1 2.08582 4.2838 11.8512 
150 1 2.41689 4.91907 18.5746 
156 1 2.95638 4.29472 22.1069 
159 1 0.935074 5.12083 20.9288 
5 1 -4.88621 10.5625 8.63704 
9 1 -3.31356 8.85843 7.49618 
19 1 -1.7555 7.55734 10.5584 
21 1 -2.61463 8.75675 10.9728 
23 1 -3.30055 7.53446 6.80387 
25 1 -4.09771 10.4372 9.83521 
32 1 1.59711 6.36972 0.788683 
36 1 -1.86624 7.577 9.05888 
38 1 -2.15245 6.25121 8.6369 
54 1 0.276409 8.49667 10.7283 
57 1 1.22643 7.89338 9.60151 
60 1 -1.76822 7.5527 0.0549248 
65 1 -3.29177 7.54071 3.811 
78 1 -1.867 7.57603 1.55112 
80 1 -2.53392 8.80074 1.90364 
84 1 -4.44867 9.79705 3.11418 
99 1 -2.94895 9.60229 0.758519 
100 1 -2.93612 6.27646 3.16917 
107 1 -4.88506 10.5615 1.97974 
110 1 -3.30885 8.86708 3.11517 
111 1 0.537437 5.91869 10.7438 
113 1 1.47201 6.2673 9.82444 
119 1 -4.10054 10.4358 0.776421 
127 1 -2.15242 6.25023 1.97549 
131 1 -2.34504 6.24996 11.0022 
138 1 1.37594 7.99145 0.835696 
142 1 -2.53445 8.79652 8.70132 
145 1 -4.4465 9.80604 7.50015 
151 1 -4.97496 10.4432 11.029 
154 1 -2.94881 9.60242 9.85464 
155 1 -2.93558 6.27567 7.44376 
161 2 1.17286 8.03492 8.30143 
12 1 2.57448 7.06595 17.1325 
17 1 0.422465 9.29342 20.9089 
24 1 -3.61317 8.35517 11.8639 
27 1 -0.253623 7.1732 21.6355 
29 1 0.598677 5.96443 22.0493 
31 1 1.28718 7.19378 17.8755 
44 1 -0.147205 7.14343 20.1436 
46 1 0.131764 8.47223 19.7136 
51 1 -0.264612 7.22513 11.1285 
53 1 2.5737 7.0562 15.6261 
56 1 1.28046 7.18344 14.8923 
63 1 -2.3496 6.24757 21.7542 
66 1 -3.39209 6.73738 20.856 
70 1 -0.144903 7.15225 12.6372 
72 1 0.509065 5.91914 12.9896 
92 1 0.910762 8.44891 14.2558 
95 1 -4.97267 10.4342 21.7377 
98 1 -4.67695 9.28518 20.806 
104 1 0.394214 9.30493 11.8508 
116 1 -2.61877 8.76137 21.7918 
118 1 -3.61887 8.349 20.9008 
122 1 0.123132 8.46587 13.0705 
133 1 -3.3874 6.72929 11.9153 
136 1 0.326949 8.47727 22.0833 
147 1 0.516525 5.91844 19.7795 
153 1 -4.67705 9.29166 11.9504 
160 1 0.905175 8.45897 18.5184 
1 1 7.8549 4.92663 10.5168 
4 1 9.13521 4.79205 10.9936 
20 1 7.81155 4.94835 9.06014 
42 1 9.45405 5.4568 7.44632 
67 1 9.94547 4.60242 0.768704 
77 1 7.84837 4.94125 0.0957618 
94 1 7.81307 4.94925 1.54684 
96 1 9.14124 4.67783 2.007 
121 1 4.67816 5.5095 10.6583 
130 1 9.45013 5.45301 3.16805 
134 1 9.9473 4.5994 9.84466 
152 1 9.14143 4.67821 8.60968 
45 1 4.63915 5.51118 22.0887 
55 1 4.83345 5.53982 13.0687 
106 1 9.13395 4.79837 21.7614 
137 1 4.83014 5.53257 19.6916 
2 1 7.26625 10.4701 9.02177 
3 1 8.97277 7.65514 6.06924 
6 1 8.51291 6.39712 6.81566 
16 1 2.3754 8.69354 0.887576 
22 1 7.06377 6.17239 8.67901 
26 1 7.20013 8.41268 7.52202 
35 1 7.25138 10.4865 10.4653 
37 1 6.89894 9.21429 11.0092 
39 1 8.28807 8.94322 6.76272 
41 1 6.69873 6.98252 9.81805 
48 1 3.69269 6.35634 0.850609 
61 1 7.26965 10.4667 1.59476 
62 1 8.96596 7.65813 4.54511 
64 1 6.69883 9.18837 1.99648 
68 1 7.38995 6.95749 3.06305 
71 1 4.37146 8.50165 10.7132 
74 1 3.66274 7.75401 9.75238 
81 1 8.51782 6.39838 3.7973 
83 1 6.55413 8.41966 0.782177 
93 1 7.25543 10.4845 0.147711 
97 1 8.28673 8.93922 3.85759 
101 1 2.39091 9.93876 10.697 
103 1 2.60661 8.75087 9.87563 
117 1 7.06609 6.17837 1.92373 
120 1 7.2029 8.40863 3.08572 
123 1 3.79333 6.32573 9.77399 
129 1 6.69757 6.98454 0.790537 
132 1 6.70675 9.19261 8.61774 
135 1 7.40076 6.96291 7.55367 
141 1 7.18496 6.20661 10.967 
144 1 6.55523 8.41532 9.83114 
148 1 3.58607 7.80674 0.838777 
7 1 9.1643 6.02967 11.9706 
10 1 3.68827 9.78159 21.5921 
13 1 2.4074 9.92815 22.0738 
15 1 3.01572 8.3253 17.8938 
28 1 3.72026 9.77775 20.1319 
30 1 4.45652 8.55265 19.7638 
34 1 4.3351 6.31575 18.6002 
40 1 7.84371 8.37059 11.9426 
49 1 4.84356 7.7396 20.9017 
50 1 2.08326 9.26657 18.5217 
58 1 1.56841 10.1218 11.8512 
59 1 4.14767 7.76685 14.1492 
69 1 3.74056 9.83159 11.1735 
73 1 3.01304 8.32494 14.8688 
75 1 4.98793 6.33662 11.8829 
79 1 7.19518 6.21215 21.8086 
82 1 7.94708 6.9163 20.8469 
86 1 3.71213 9.77249 12.6513 
88 1 2.39692 10.0412 13.0755 
108 1 9.16038 6.02682 20.805 
112 1 4.45955 8.56293 13.0003 
115 1 4.3385 6.31916 14.1627 
124 1 4.84454 7.73371 11.8901 
125 1 2.08491 9.26975 14.2442 
126 1 6.89061 9.21539 21.7585 
128 1 7.8582 8.35819 20.823 
139 1 1.59052 10.1123 20.9207 
140 1 4.15054 7.77538 18.6236 
143 1 7.94364 6.91974 11.9232 
146 1 4.3437 8.51663 22.0436 
149 1 4.98462 6.30806 20.9043 
157 1 2.38868 10.043 19.6841 
ITEM: TIMESTEP
30
ITEM: NUMBER OF ATOMS
161
ITEM: BOX BOUNDS xy xz yz pp pp pp
-6.7755000000000001e+00 1.3552000000000000e+01 -6.7755000000000001e+00
0.0000000000000000e+00 1.1735510246683001e+01 0.0000000000000000e+00
0.0000000000000000e+00 2.2149999999999999e+01 0.0000000000000000e+00
ITEM: ATOMS id type x y z 
8 1 -2.4526 5.44135 9.83281 
87 1 2.95384 4.34029 10.6558 
90 1 2.64157 5.50961 9.7464 
109 1 -2.45465 5.43896 0.784844 
158 1 2.64352 5.44425 0.869316 
11 1 4.25788 4.26372 20.1035 
14 1 2.86008 4.17297 19.7096 
18 1 1.28698 5.86252 18.5643 
33 1 2.07461 4.28996 20.9107 
43 1 4.27292 4.25359 21.542 
47 1 3.24348 5.78756 17.8312 
52 1 4.25877 4.26388 12.6558 
76 1 2.42537 4.92516 14.1922 
85 1 4.26877 4.25096 11.2187 
89 1 3.24648 5.78874 14.9351 
91 1 0.920728 5.10402 11.8607 
102 1 2.86555 4.1722 13.0564 
105 1 1.28994 5.85841 14.203 
114 1 2.08159 4.28697 11.8492 
150 1 2.42038 4.92516 18.5732 
156 1 2.94525 4.30072 22.1124 
159 1 0.929674 5.12869 20.929 
5 1 -4.88076 10.5528 8.63572 
9 1 -3.30586 8.86363 7.49028 
19 1 -1.75735 7.55826 10.5591 
21 1 -2.61433 8.76409 10.9784 
23 1 -3.29413 7.53725 6.80821 
25 1 -4.09234 10.4333 9.83646 
32 1 1.59569 6.3728 0.794914 
36 1 -1.85883 7.58271 9.05872 
38 1 -2.15263 6.25902 8.63911 
54 1 0.289843 8.48093 10.7212 
57 1 1.23445 7.89616 9.61475 
60 1 -1.76818 7.5522 0.0528178 
65 1 -3.29179 7.53963 3.80432 
78 1 -1.86025 7.58307 1.55126 
80 1 -2.52438 8.80458 1.90262 
84 1 -4.44149 9.79568 3.11473 
99 1 -2.94758 9.59702 0.759948 
100 1 -2.93859 6.28737 3.17029 
107 1 -4.88041 10.5525 1.97899 
110 1 -3.30457 8.86547 3.12323 
111 1 0.542275 5.91592 10.7284 
113 1 1.47067 6.26682 9.82507 
119 1 -4.09357 10.4333 0.777645 
127 1 -2.15459 6.2581 1.97584 
131 1 -2.35244 6.26237 11.0046 
138 1 1.38151 7.98431 0.834134 
142 1 -2.52495 8.80408 8.70835 
145 1 -4.44044 9.79821 7.4997 
151 1 -4.96241 10.4266 11.0373 
154 1 -2.94844 9.59501 9.85331 
155 1 -2.93606 6.2839 7.44242 
161 2 1.155 8.03753 8.29517 
12 1 2.57205 7.06418 17.1478 
17 1 0.431665 9.28411 20.9046 
24 1 -3.6145 8.35765 11.8689 
27 1 -0.252701 7.17185 21.6392 
29 1 0.593819 5.96139 22.0532 
31 1 1.28029 7.18912 17.8856 
44 1 -0.154297 7.13838 20.1393 
46 1 0.13405 8.46383 19.7154 
51 1 -0.26219 7.22328 11.1272 
53 1 2.56857 7.05847 15.6181 
56 1 1.27682 7.18284 14.8855 
63 1 -2.35371 6.256 21.7553 
66 1 -3.40047 6.74315 20.8552 
70 1 -0.152278 7.14608 12.6426 
72 1 0.501652 5.91579 12.9859 
92 1 0.914637 8.43759 14.256 
95 1 -4.96116 10.4201 21.7252 
98 1 -4.66526 9.27725 20.816 
104 1 0.401559 9.28881 11.8457 
116 1 -2.61271 8.76419 21.7856 
118 1 -3.61183 8.35086 20.8929 
122 1 0.126471 8.45625 13.0675 
133 1 -3.39732 6.73701 11.9116 
136 1 0.334304 8.46903 22.0851 
147 1 0.506468 5.91639 19.7832 
153 1 -4.6633 9.28053 11.9418 
160 1 0.912274 8.44166 18.5144 
1 1 7.8476 4.937 10.5077 
4 1 9.12922 4.81027 11.0016 
20 1 7.79768 4.9468 9.06295 
42 1 9.44642 5.46451 7.44594 
67 1 9.93787 4.61132 0.778838 
77 1 7.83505 4.95313 0.0977649 
94 1 7.79816 4.9489 1.55034 
96 1 9.13519 4.68956 1.99913 
121 1 4.67615 5.52736 10.66 
130 1 9.44673 5.46333 3.16825 
134 1 9.94014 4.60963 9.83637 
152 1 9.13498 4.68948 8.61444 
45 1 4.6386 5.52784 22.0836 
55 1 4.82766 5.54583 13.0733 
106 1 9.12766 4.81291 21.7581 
137 1 4.82304 5.54498 19.6919 
2 1 7.27312 10.464 9.02542 
3 1 8.9678 7.65673 6.07426 
6 1 8.51029 6.394 6.81086 
16 1 2.37484 8.70153 0.886925 
22 1 7.05408 6.17356 8.68576 
26 1 7.19869 8.41076 7.52191 
35 1 7.26323 10.4701 10.4632 
37 1 6.90121 9.19432 11.0074 
39 1 8.29106 8.93543 6.75553 
41 1 6.69814 6.9816 9.81482 
48 1 3.69368 6.3586 0.8563 
61 1 7.27354 10.4614 1.59063 
62 1 8.96855 7.65812 4.54107 
64 1 6.70527 9.17969 1.99857 
68 1 7.3839 6.95383 3.06626 
71 1 4.38235 8.50086 10.7167 
74 1 3.66985 7.75733 9.77069 
81 1 8.51178 6.39584 3.79956 
83 1 6.55664 8.40168 0.788251 
93 1 7.26482 10.4689 0.152049 
97 1 8.29241 8.93094 3.86029 
101 1 2.41048 9.92102 10.7087 
103 1 2.58375 8.74314 9.85753 
117 1 7.05804 6.17354 1.9247 
120 1 7.20119 8.40585 3.08814 
123 1 3.79077 6.32992 9.76878 
129 1 6.69425 6.97998 0.786008 
132 1 6.71011 9.18095 8.61901 
135 1 7.39081 6.95918 7.55083 
141 1 7.17955 6.21458 10.9767 
144 1 6.55639 8.39402 9.82583 
148 1 3.58985 7.80609 0.835377 
7 1 9.16122 6.02639 11.967 
10 1 3.70043 9.77118 21.5869 
13 1 2.41174 9.91076 22.0789 
15 1 3.028 8.32912 17.8906 
28 1 3.73443 9.77962 20.1361 
30 1 4.47065 8.54993 19.7666 
34 1 4.33252 6.31858 18.5985 
40 1 7.83985 8.36382 11.9435 
49 1 4.84283 7.74637 20.9038 
50 1 2.08539 9.25668 18.5208 
58 1 1.57722 10.1174 11.8608 
59 1 4.15293 7.77096 14.1525 
69 1 3.76372 9.84136 11.1664 
73 1 3.02346 8.32838 14.875 
75 1 4.98458 6.33651 11.8842 
79 1 7.19464 6.21331 21.8007 
82 1 7.94306 6.91648 20.8513 
86 1 3.72415 9.76755 12.6406 
88 1 2.39691 10.0306 13.0733 
108 1 9.16137 6.02068 20.8046 
112 1 4.46811 8.56664 13.0087 
115 1 4.33808 6.32193 14.1672 
124 1 4.84508 7.74818 11.8746 
125 1 2.08692 9.25814 14.2445 
126 1 6.89792 9.19588 21.7543 
128 1 7.84063 8.3632 20.8239 
139 1 1.59657 10.1061 20.9123 
140 1 4.15309 7.77272 18.619 
143 1 7.95521 6.92271 11.9172 
146 1 4.34747 8.51288 22.0433 
149 1 4.98085 6.32605 20.8984 
157 1 2.39627 10.0326 19.6888 
ITEM: TIMESTEP
40
ITEM: NUMBER OF ATOMS
161
ITEM: BOX BOUNDS xy xz yz pp pp pp
-6.7755000000000001e+00 1.3552000000000000e+01 -6.7755000000000001e+00
0.0000000000000000e+00 1.1735510246683001e+01 0.0000000000000000e+00
0.0000000000000000e+00 2.2149999999999999e+01 0.0000000000000000e+00
ITEM: ATOMS id type x y z 
8 1 -2.46864 5.46368 9.82933 
87 1 2.93648 4.36117 10.6567 
90 1 2.63443 5.52542 9.74025 
109 1 -2.46979 5.46049 0.788235 
158 1 2.63297 5.44988 0.880884 
11 1 4.24685 4.28216 20.096 
14 1 2.84814 4.18734 19.7119 
18 1 1.27064 5.85374 18.5566 
33 1 2.06495 4.29679 20.9135 
43 1 4.25518 4.28177 21.5366 
47 1 3.23166 5.79589 17.8266 
52 1 4.24989 4.2808 12.6607 
76 1 2.4129 4.93109 14.1963 
85 1 4.25203 4.27551 11.2233 
89 1 3.23455 5.79349 14.9389 
91 1 0.901326 5.10858 11.8575 
102 1 2.85428 4.18466 13.0546 
105 1 1.27273 5.85107 14.2124 
114 1 2.06791 4.29677 11.8473 
150 1 2.4074 4.93195 18.5693 
156 1 2.93002 4.31538 22.1173 
159 1 0.915998 5.1355 20.9334 
5 1 -4.8686 10.5387 8.63764 
9 1 -3.28921 8.87068 7.48131 
19 1 -1.75626 7.5747 10.5621 
21 1 -2.599 8.76886 10.9868 
23 1 -3.29349 7.53818 6.81047 
25 1 -4.08269 10.4279 9.8372 
32 1 1.58467 6.38293 0.812264 
36 1 -1.83991 7.59945 9.05871 
38 1 -2.15076 6.27712 8.63995 
54 1 0.309293 8.45723 10.7087 
57 1 1.24555 7.8972 9.61267 
60 1 -1.76584 7.56386 0.0494685 
65 1 -3.29119 7.53901 3.80128 
78 1 -1.84235 7.59965 1.55238 
80 1 -2.50341 8.8139 1.90939 
84 1 -4.42538 9.79107 3.12036 
99 1 -2.93484 9.58898 0.75743 
100 1 -2.9362 6.29313 3.16861 
107 1 -4.86866 10.5384 1.97592 
110 1 -3.28875 8.87057 3.13088 
111 1 0.528275 5.90846 10.7136 
113 1 1.46038 6.27645 9.81247 
119 1 -4.08089 10.4263 0.775537 
127 1 -2.15199 6.277 1.97461 
131 1 -2.3647 6.28112 11.0042 
138 1 1.39181 7.97582 0.837829 
142 1 -2.50259 8.81392 8.70233 
145 1 -4.42598 9.79226 7.49519 
151 1 -4.94897 10.4081 11.0434 
154 1 -2.93613 9.58959 9.85531 
155 1 -2.93445 6.29121 7.44467 
161 2 1.10699 8.0408 8.28288 
12 1 2.57355 7.06635 17.1513 
17 1 0.449419 9.26234 20.9013 
24 1 -3.60033 8.34407 11.8879 
27 1 -0.253483 7.15984 21.6413 
29 1 0.580797 5.95901 22.0625 
31 1 1.27575 7.18749 17.8858 
44 1 -0.175249 7.1239 20.1374 
46 1 0.133064 8.44538 19.7149 
51 1 -0.26018 7.2026 11.1296 
53 1 2.56961 7.06061 15.6228 
56 1 1.27582 7.18302 14.8829 
63 1 -2.36613 6.27041 21.755 
66 1 -3.41084 6.74958 20.8511 
70 1 -0.17418 7.12766 12.6434 
72 1 0.48311 5.9065 12.9925 
92 1 0.913345 8.43 14.2515 
95 1 -4.94817 10.4051 21.7196 
98 1 -4.65154 9.27254 20.8061 
104 1 0.426112 9.25953 11.8427 
116 1 -2.60003 8.76516 21.7752 
118 1 -3.59966 8.34199 20.876 
122 1 0.127067 8.43903 13.0601 
133 1 -3.40834 6.75201 11.9121 
136 1 0.347586 8.45453 22.0859 
147 1 0.484412 5.90954 19.779 
153 1 -4.6517 9.27537 11.9555 
160 1 0.914513 8.43175 18.5175 
1 1 7.82627 4.95821 10.5016 
4 1 9.11393 4.82723 11.0068 
20 1 7.76492 4.94219 9.05938 
42 1 9.43734 5.47803 7.44633 
67 1 9.92224 4.63234 0.78396 
77 1 7.80738 4.9659 0.101033 
94 1 7.76469 4.94443 1.55419 
96 1 9.10982 4.71114 1.99745 
121 1 4.66484 5.55177 10.6589 
130 1 9.43756 5.47751 3.16678 
134 1 9.92276 4.63501 9.831 
152 1 9.11073 4.70971 8.61508 
45 1 4.62209 5.556 22.0804 
55 1 4.81801 5.56001 13.082 
106 1 9.10786 4.83121 21.7597 
137 1 4.81544 5.56287 19.6889 
2 1 7.28713 10.442 9.02204 
3 1 8.9634 7.65876 6.07415 
6 1 8.50353 6.39594 6.80607 
16 1 2.38016 8.70854 0.893753 
22 1 7.02913 6.16255 8.67671 
26 1 7.20035 8.39687 7.51291 
35 1 7.2786 10.4404 10.4611 
37 1 6.91761 9.1632 11.0053 
39 1 8.30284 8.92897 6.75015 
41 1 6.68375 6.96508 9.81554 
48 1 3.68445 6.36611 0.874267 
61 1 7.28544 10.4422 1.59369 
62 1 8.96445 7.65847 4.54146 
64 1 6.71528 9.16375 2.00299 
68 1 7.36701 6.94422 3.07591 
71 1 4.42376 8.52098 10.7121 
74 1 3.67012 7.76474 9.78332 
81 1 8.50209 6.39598 3.80489 
83 1 6.55758 8.38007 0.795711 
93 1 7.28096 10.4413 0.154975 
97 1 8.30251 8.92639 3.86088 
101 1 2.43032 9.90444 10.7186 
103 1 2.58637 8.75259 9.84401 
117 1 7.03165 6.16245 1.93416 
120 1 7.20118 8.39261 3.09987 
123 1 3.78341 6.33745 9.7568 
129 1 6.6762 6.9593 0.783786 
132 1 6.71405 9.16251 8.61387 
135 1 7.36871 6.94782 7.53957 
141 1 7.16058 6.21231 10.9906 
144 1 6.55364 8.3758 9.8182 
148 1 3.59712 7.81373 0.843265 
7 1 9.16207 6.01344 11.9746 
10 1 3.72748 9.75783 21.5857 
13 1 2.42809 9.89121 22.0792 
15 1 3.03509 8.32887 17.8814 
28 1 3.76728 9.78183 20.1345 
30 1 4.50106 8.5623 19.7536 
34 1 4.33339 6.33086 18.5893 
40 1 7.84967 8.3576 11.958 
49 1 4.86039 7.76528 20.9067 
50 1 2.09639 9.24344 18.5222 
58 1 1.59051 10.0961 11.8736 
59 1 4.16739 7.77967 14.1647 
69 1 3.79752 9.8386 11.1418 
73 1 3.03391 8.32761 14.8878 
75 1 4.97543 6.34909 11.8921 
79 1 7.18075 6.2067 21.789 
82 1 7.93753 6.91075 20.8431 
86 1 3.74822 9.7637 12.6246 
88 1 2.42055 10.0076 13.0736 
108 1 9.15406 6.01523 20.7963 
112 1 4.49194 8.57638 13.0198 
115 1 4.33664 6.33393 14.1818 
124 1 4.8674 7.76036 11.8792 
125 1 2.09661 9.24017 14.2467 
126 1 6.91649 9.16807 21.7533 
128 1 7.84522 8.35761 20.8114 
139 1 1.61148 10.0877 20.9052 
140 1 4.16985 7.77995 18.6107 
143 1 7.96041 6.91442 11.9212 
146 1 4.35872 8.52039 22.052 
149 1 4.97931 6.34358 20.894 
157 1 2.42292 10.0107 19.69 
ITEM: TIMESTEP
50
ITEM: NUMBER OF ATOMS
161
ITEM: BOX BOUNDS xy xz yz pp pp pp
-6.7755000000000001e+00 1.3552000000000000e+01 -6.7755000000000001e+00
0.0000000000000000e+00 1.1735510246683001e+01 0.0000000000000000e+00
0.0000000000000000e+00 2.2149999999999999e+01 0.0000000000000000e+00
ITEM: ATOMS id type x y z 
8 1 -2.48351 5.4862 9.82581 
87 1 2.92571 4.38036 10.6513 
90 1 2.62387 5.53811 9.73037 
109 1 -2.48328 5.48224 0.790264 
158 1 2.62383 5.45629 0.897169 
11 1 4.23615 4.30206 20.094 
14 1 2.83657 4.19313 19.7129 
18 1 1.25732 5.85524 18.5533 
33 1 2.0516 4.30451 20.9194 
43 1 4.24085 4.30512 21.5308 
47 1 3.2232 5.79388 17.8336 
52 1 4.23758 4.29739 12.6628 
76 1 2.39694 4.92742 14.2001 
85 1 4.2386 4.29934 11.2296 
89 1 3.22412 5.79321 14.9373 
91 1 0.879103 5.11053 11.8554 
102 1 2.84281 4.19189 13.0531 
105 1 1.26127 5.85029 14.2178 
114 1 2.05323 4.30433 11.8474 
150 1 2.39131 4.92862 18.565 
156 1 2.9216 4.33211 22.1246 
159 1 0.898089 5.13944 20.934 
5 1 -4.85597 10.5307 8.63929 
9 1 -3.27428 8.87182 7.47789 
19 1 -1.75018 7.59096 10.5602 
21 1 -2.58923 8.77453 10.9932 
23 1 -3.29709 7.53596 6.81139 
25 1 -4.07196 10.4203 9.84194 
32 1 1.57383 6.38482 0.829005 
36 1 -1.82359 7.61763 9.05379 
38 1 -2.14667 6.29221 8.64174 
54 1 0.323106 8.43787 10.7063 
57 1 1.26252 7.89892 9.59857 
60 1 -1.76127 7.57532 0.0501871 
65 1 -3.29807 7.53647 3.80317 
78 1 -1.8256 7.61526 1.55657 
80 1 -2.48399 8.82384 1.91364 
84 1 -4.41188 9.7949 3.12293 
99 1 -2.91856 9.58466 0.754697 
100 1 -2.93316 6.29073 3.16678 
107 1 -4.85353 10.5292 1.9741 
110 1 -3.27538 8.87096 3.13665 
111 1 0.51382 5.90063 10.7033 
113 1 1.44803 6.28361 9.80056 
119 1 -4.06947 10.4176 0.771251 
127 1 -2.14624 6.29103 1.97054 
131 1 -2.37638 6.2973 11.0043 
138 1 1.39956 7.97298 0.845452 
142 1 -2.48473 8.82345 8.69481 
145 1 -4.41079 9.79347 7.49043 
151 1 -4.94034 10.3935 11.0473 
154 1 -2.91885 9.58742 9.85669 
155 1 -2.9323 6.29082 7.44777 
161 2 1.06072 8.04679 8.27372 
12 1 2.57436 7.0613 17.1511 
17 1 0.464173 9.24052 20.8988 
24 1 -3.58658 8.34374 11.906 
27 1 -0.256201 7.14788 21.6403 
29 1 0.572178 5.95762 22.0705 
31 1 1.28139 7.188 17.8872 
44 1 -0.192122 7.10674 20.1319 
46 1 0.12836 8.43224 19.7183 
51 1 -0.259853 7.18257 11.1313 
53 1 2.57203 7.05575 15.6193 
56 1 1.2814 7.18637 14.8826 
63 1 -2.37937 6.28277 21.7535 
66 1 -3.41705 6.75095 20.8439 
70 1 -0.192385 7.10832 12.6471 
72 1 0.464516 5.89628 13.0008 
92 1 0.911452 8.43272 14.2453 
95 1 -4.9383 10.3952 21.7183 
98 1 -4.63751 9.27109 20.7887 
104 1 0.448719 9.23444 11.8414 
116 1 -2.59158 8.7693 21.7693 
118 1 -3.58973 8.33836 20.8583 
122 1 0.12463 8.42369 13.0525 
133 1 -3.41389 6.75582 11.9183 
136 1 0.359993 8.44068 22.0859 
147 1 0.467071 5.90196 19.7729 
153 1 -4.6383 9.2711 11.9759 
160 1 0.9125 8.43566 18.5224 
1 1 7.80622 4.96506 10.4986 
4 1 9.09738 4.83481 11.0056 
20 1 7.73732 4.94039 9.05507 
42 1 9.4323 5.48645 7.45034 
67 1 9.90507 4.65421 0.785563 
77 1 7.78639 4.96593 0.106415 
94 1 7.73528 4.94028 1.55663 
96 1 9.08452 4.72603 1.99967 
121 1 4.65137 5.56706 10.6652 
130 1 9.43085 5.4841 3.16068 
134 1 9.90461 4.65972 9.82943 
152 1 9.08629 4.72325 8.61475 
45 1 4.60029 5.57694 22.0803 
55 1 4.81159 5.57582 13.0886 
106 1 9.08616 4.83959 21.763 
137 1 4.8117 5.57904 19.683 
2 1 7.29785 10.4194 9.02141 
3 1 8.96098 7.66259 6.07316 
6 1 8.49657 6.39994 6.80605 
16 1 2.38991 8.70975 0.901348 
22 1 7.00062 6.15299 8.66507 
26 1 7.20455 8.38293 7.50263 
35 1 7.29295 10.4134 10.4566 
37 1 6.93547 9.14057 11.003 
39 1 8.31094 8.92852 6.75585 
41 1 6.66362 6.95098 9.81531 
48 1 3.67168 6.37716 0.887905 
61 1 7.29715 10.4217 1.59449 
62 1 8.96238 7.66206 4.53943 
64 1 6.72182 9.14561 2.00609 
68 1 7.35151 6.93372 3.08503 
71 1 4.45174 8.52705 10.7014 
74 1 3.67653 7.7754 9.78451 
81 1 8.49471 6.39911 3.80657 
83 1 6.56204 8.36467 0.800051 
93 1 7.29663 10.416 0.157699 
97 1 8.31365 8.92601 3.85629 
101 1 2.44697 9.89904 10.7162 
103 1 2.60111 8.75421 9.83722 
117 1 7.00136 6.1524 1.94714 
120 1 7.20232 8.38077 3.10914 
123 1 3.77725 6.35072 9.74741 
129 1 6.65465 6.94286 0.786182 
132 1 6.71682 9.14458 8.60684 
135 1 7.35172 6.93559 7.52793 
141 1 7.14563 6.21221 10.9958 
144 1 6.55803 8.36137 9.81291 
148 1 3.60431 7.82365 0.854563 
7 1 9.15846 6.00871 11.984 
10 1 3.74806 9.75756 21.5814 
13 1 2.44745 9.88239 22.0757 
15 1 3.04017 8.32674 17.8841 
28 1 3.79891 9.78271 20.1315 
30 1 4.53228 8.57102 19.7428 
34 1 4.33099 6.34515 18.579 
40 1 7.86705 8.34337 11.971 
49 1 4.87992 7.78193 20.9023 
50 1 2.10205 9.2383 18.5271 
58 1 1.6086 10.069 11.8762 
59 1 4.18131 7.78973 14.1718 
69 1 3.82074 9.84777 11.1391 
73 1 3.03862 8.32469 14.8923 
75 1 4.96546 6.36921 11.8964 
79 1 7.15953 6.20323 21.7825 
82 1 7.9293 6.89762 20.8299 
86 1 3.77472 9.75501 12.6204 