ITEM: TIMESTEP
0
ITEM: NUMBER OF ATOMS
146
ITEM: BOX BOUNDS pp pp pp
0.0000000000000000e+00 2.1884000000000000e+01
0.0000000000000000e+00 2.1885999999999999e+01
0.0000000000000000e+00 2.1885000000000002e+01
ITEM: ATOMS id type x y z 
145 2 10.603 9.33 8.575 
146 3 9.627 9.33 8.575 
9 1 8.524 12.547 12.547 
10 1 1.604 19.466 19.466 
11 1 1.605 19.466 12.547 
12 1 8.524 12.547 19.466 
13 1 1.605 12.547 19.466 
14 1 8.524 19.467 12.547 
15 1 8.524 19.467 19.466 
16 1 1.605 12.547 12.547 
25 1 10.105 10.965 10.965 
26 1 0.023 21.047 21.049 
27 1 0.023 21.047 10.964 
28 1 10.106 10.965 21.047 
29 1 0.023 10.966 21.048 
30 1 10.106 21.049 10.966 
31 1 10.106 21.048 21.049 
32 1 0.024 10.965 10.965 
57 1 5.811 12.218 12.218 
58 1 4.317 19.796 19.795 
59 1 4.318 19.795 12.218 
60 1 5.811 12.219 19.795 
61 1 4.318 12.218 19.795 
62 1 5.811 19.795 12.218 
63 1 5.811 19.796 19.795 
64 1 4.318 12.218 12.218 
65 1 8.853 15.26 12.218 
66 1 1.276 16.754 19.795 
67 1 8.853 16.754 19.795 
68 1 1.276 15.26 12.218 
69 1 1.276 16.754 12.218 
70 1 8.853 15.26 19.796 
71 1 1.276 15.26 19.795 
72 1 8.853 16.753 12.218 
73 1 8.853 12.219 15.26 
74 1 1.276 19.795 16.753 
75 1 1.276 12.218 16.754 
76 1 8.853 19.796 15.26 
77 1 8.853 19.796 16.753 
78 1 1.276 12.218 15.26 
79 1 1.276 19.795 15.26 
80 1 8.853 12.219 16.754 
105 1 7.01 12.317 12.317 
106 1 3.118 19.696 19.696 
107 1 3.119 19.696 12.317 
108 1 7.011 12.317 19.696 
109 1 3.119 12.317 19.696 
110 1 7.01 19.696 12.317 
111 1 7.01 19.697 19.696 
112 1 3.118 12.317 12.317 
113 1 8.754 14.061 12.317 
114 1 1.375 17.953 19.696 
115 1 8.754 17.953 19.696 
116 1 1.375 14.061 12.317 
117 1 1.375 17.953 12.317 
118 1 8.754 14.061 19.696 
119 1 1.375 14.061 19.696 
120 1 8.754 17.953 12.317 
121 1 8.754 12.317 14.061 
122 1 1.375 19.696 17.952 
123 1 1.375 12.317 17.953 
124 1 8.754 19.697 14.061 
125 1 8.754 19.697 17.952 
126 1 1.375 12.317 14.061 
127 1 1.375 19.696 14.061 
128 1 8.754 12.318 17.953 
137 1 9.407 11.664 11.664 
138 1 0.721 20.349 20.35 
139 1 0.721 20.349 11.663 
140 1 9.408 11.664 20.349 
141 1 0.721 11.664 20.35 
142 1 9.407 20.35 11.664 
143 1 9.407 20.35 20.35 
144 1 0.722 11.664 11.663 
1 1 19.466 1.604 1.604 
2 1 12.547 8.524 8.524 
3 1 12.546 8.524 1.604 
4 1 19.466 1.605 8.524 
5 1 12.547 1.604 8.524 
6 1 19.466 8.524 1.605 
7 1 19.466 8.524 8.524 
8 1 12.547 1.604 1.605 
17 1 21.048 0.023 0.022 
18 1 10.965 10.106 10.106 
19 1 10.965 10.106 0.024 
20 1 21.048 0.024 10.107 
21 1 10.965 0.022 10.105 
22 1 21.048 10.105 0.023 
23 1 21.047 10.106 10.106 
24 1 10.965 0.023 0.022 
33 1 16.753 1.275 1.276 
34 1 15.26 8.853 8.853 
35 1 15.26 8.852 1.276 
36 1 16.753 1.275 8.853 
37 1 15.26 1.275 8.853 
38 1 16.753 8.852 1.276 
39 1 16.753 8.853 8.853 
40 1 15.26 1.275 1.276 
41 1 19.795 4.317 1.276 
42 1 12.218 5.811 8.853 
43 1 19.795 5.811 8.853 
44 1 12.218 4.317 1.276 
45 1 12.218 5.811 1.275 
46 1 19.795 4.317 8.853 
47 1 12.218 4.317 8.853 
48 1 19.795 5.811 1.276 
49 1 19.795 1.275 4.317 
50 1 12.218 8.852 5.811 
51 1 12.218 1.276 5.811 
52 1 19.795 8.853 4.318 
53 1 19.795 8.853 5.811 
54 1 12.218 1.275 4.318 
55 1 12.218 8.852 4.317 
56 1 19.795 1.275 5.811 
81 1 17.952 1.374 1.375 
82 1 14.061 8.754 8.754 
83 1 14.06 8.753 1.375 
84 1 17.952 1.374 8.754 
85 1 14.06 1.374 8.754 
86 1 17.952 8.754 1.375 
87 1 17.952 8.754 8.754 
88 1 14.061 1.374 1.375 
89 1 19.696 3.118 1.375 
90 1 12.317 7.01 8.754 
91 1 19.696 7.01 8.754 
92 1 12.317 3.118 1.375 
93 1 12.317 7.01 1.374 
94 1 19.695 3.118 8.754 
95 1 12.317 3.118 8.754 
96 1 19.696 7.01 1.375 
97 1 19.696 1.374 3.118 
98 1 12.317 8.754 7.01 
99 1 12.317 1.375 7.01 
100 1 19.696 8.754 3.118 
101 1 19.696 8.754 7.01 
102 1 12.317 1.374 3.119 
103 1 12.317 8.753 3.118 
104 1 19.696 1.374 7.01 
129 1 20.35 0.722 0.721 
130 1 11.664 9.407 9.407 
131 1 11.663 9.407 0.722 
132 1 20.35 0.722 9.408 
133 1 11.663 0.72 9.407 
134 1 20.35 9.407 0.721 
135 1 20.349 9.407 9.407 
136 1 11.664 0.721 0.721 
ITEM: TIMESTEP
10
ITEM: NUMBER OF ATOMS
146
ITEM: BOX BOUNDS pp pp pp
0.0000000000000000e+00 2.1884000000000000e+01
0.0000000000000000e+00 2.1885999999999999e+01
0.0000000000000000e+00 2.1885000000000002e+01
ITEM: ATOMS id type x y z 
145 2 10.5251 9.29862 8.54706 
146 3 9.51837 9.3282 8.49417 
9 1 8.52037 12.55 12.5495 
10 1 1.62092 19.4493 19.45 
11 1 1.62165 19.4504 12.5625 
12 1 8.50887 12.5639 19.4492 
13 1 1.62028 12.5642 19.449 
14 1 8.50815 19.4506 12.5635 
15 1 8.50804 19.4502 19.45 
16 1 1.6213 12.5633 12.5631 
25 1 10.1331 10.9817 10.9359 
26 1 0.0203997 21.0505 21.0524 
27 1 0.0206992 21.0502 10.9611 
28 1 10.1092 10.9626 21.0497 
29 1 0.021147 10.9639 21.0491 
30 1 10.1077 21.0511 10.9642 
31 1 10.1093 21.0509 21.0516 
32 1 0.0220675 10.9635 10.9623 
57 1 5.81488 12.2211 12.2211 
58 1 4.31689 19.7926 19.7921 
59 1 4.31555 19.7918 12.2211 
60 1 5.81136 12.2212 19.7919 
61 1 4.31773 12.2211 19.7922 
62 1 5.81364 19.7918 12.2211 
63 1 5.81328 19.7929 19.7918 
64 1 4.31461 12.221 12.221 
65 1 8.84995 15.2576 12.221 
66 1 1.27939 16.7594 19.7917 
67 1 8.8498 16.7561 19.7921 
68 1 1.27907 15.2592 12.2211 
69 1 1.27909 16.7548 12.2211 
70 1 8.85013 15.2584 19.7923 
71 1 1.27908 15.2567 19.7918 
72 1 8.85002 16.756 12.221 
73 1 8.84957 12.2219 15.2558 
74 1 1.27903 19.792 16.7556 
75 1 1.27943 12.2214 16.7596 
76 1 8.84988 19.7929 15.2582 
77 1 8.84983 19.7928 16.7556 
78 1 1.27916 12.2211 15.2578 
79 1 1.27893 19.792 15.2579 
80 1 8.84957 12.2226 16.7612 
105 1 7.00128 12.3171 12.3172 
106 1 3.12418 19.6962 19.6957 
107 1 3.1263 19.6958 12.3172 
108 1 7.00612 12.3178 19.6959 
109 1 3.12298 12.3174 19.6956 
110 1 7.00212 19.6961 12.3172 
111 1 7.00227 19.6968 19.6958 
112 1 3.12436 12.3174 12.3173 
113 1 8.75389 14.0692 12.3171 
114 1 1.37489 17.9432 19.6959 
115 1 8.75367 17.9462 19.6956 
116 1 1.37524 14.0677 12.3173 
117 1 1.3751 17.9452 12.3172 
118 1 8.75367 14.0678 19.6963 
119 1 1.37544 14.0675 19.6957 
120 1 8.75368 17.9469 12.3173 
121 1 8.75415 12.3174 14.0718 
122 1 1.3751 19.6957 17.9464 
123 1 1.37508 12.317 17.9423 
124 1 8.75378 19.6968 14.0685 
125 1 8.7538 19.6968 17.9444 
126 1 1.37517 12.3173 14.0682 
127 1 1.37521 19.6957 14.0666 
128 1 8.75415 12.3177 17.9409 
137 1 9.40523 11.658 11.6701 
138 1 0.713992 20.3554 20.3552 
139 1 0.713953 20.3558 11.6575 
140 1 9.41415 11.6563 20.3572 
141 1 0.713623 11.6559 20.3593 
142 1 9.41491 20.3573 11.6555 
143 1 9.41188 20.3563 20.3555 
144 1 0.713989 11.6561 11.6572 
1 1 19.4503 1.62091 1.62082 
2 1 12.6347 8.43336 8.42533 
3 1 12.5624 8.50694 1.62413 
4 1 19.4492 1.62064 8.50813 
5 1 12.5634 1.62272 8.50861 
6 1 19.4506 8.50811 1.62154 
7 1 19.447 8.50748 8.50786 
8 1 12.5624 1.62097 1.62109 
17 1 21.0517 0.0201423 0.0193178 
18 1 10.9195 10.0931 10.1818 
19 1 10.9635 10.1083 0.0210904 
20 1 21.05 0.0213391 10.1094 
21 1 10.9642 0.0202233 10.107 
22 1 21.0487 10.1068 0.0224587 
23 1 21.0498 10.109 10.1088 
24 1 10.9613 0.0198568 0.0192802 
33 1 16.7551 1.27806 1.27919 
34 1 15.2609 8.85055 8.85079 
35 1 15.2613 8.84909 1.27875 
36 1 16.755 1.27799 8.84997 
37 1 15.257 1.27802 8.8499 
38 1 16.754 8.84936 1.27916 
39 1 16.7492 8.84972 8.84969 
40 1 15.2578 1.27812 1.27911 
41 1 19.7918 4.31532 1.27927 
42 1 12.2198 5.80622 8.85085 
43 1 19.7917 5.81471 8.8496 
44 1 12.2212 4.31432 1.27903 
45 1 12.2214 5.81581 1.27853 
46 1 19.7913 4.31401 8.8499 
47 1 12.2214 4.32035 8.84963 
48 1 19.7917 5.81367 1.27928 
49 1 19.7918 1.27817 4.31475 
50 1 12.2208 8.84961 5.81482 
51 1 12.2213 1.27908 5.81425 
52 1 19.7919 8.84997 4.31555 
53 1 19.7918 8.84977 5.81452 
54 1 12.2211 1.2784 4.31563 
55 1 12.2215 8.84826 4.31818 
56 1 19.7919 1.27811 5.8127 
81 1 17.9448 1.37427 1.37496 
82 1 14.0605 8.74776 8.74924 
83 1 14.0636 8.75271 1.3752 
84 1 17.9464 1.37457 8.75368 
85 1 14.0668 1.37427 8.75359 
86 1 17.9457 8.75333 1.375 
87 1 17.9438 8.75354 8.75352 
88 1 14.0683 1.37421 1.37519 
89 1 19.6958 3.12621 1.37498 
90 1 12.3205 7.01131 8.74772 
91 1 19.6958 7.001 8.7537 
92 1 12.3172 3.12596 1.37528 
93 1 12.3169 7.00044 1.37406 
94 1 19.6955 3.12769 8.75369 
95 1 12.3172 3.12733 8.75361 
96 1 19.6958 7.00099 1.37503 
97 1 19.6959 1.37417 3.12603 
98 1 12.3213 8.74746 7.0043 
99 1 12.3171 1.37503 7.00145 
100 1 19.6958 8.75373 3.12525 
101 1 19.6957 8.75363 7.00278 
102 1 12.3172 1.37403 3.12674 
103 1 12.317 8.75286 3.12929 
104 1 19.6958 1.37446 7.00295 
129 1 20.3549 0.714597 0.714613 
130 1 11.7962 9.52622 9.5521 
131 1 11.6541 9.41463 0.714114 
132 1 20.3569 0.71486 9.41368 
133 1 11.654 0.712608 9.41451 
134 1 20.3589 9.41496 0.711272 
135 1 20.3563 9.41315 9.41333 
136 1 11.6594 0.714832 0.715309 
ITEM: TIMESTEP
20
ITEM: NUMBER OF ATOMS
146
ITEM: BOX BOUNDS pp pp pp
0.0000000000000000e+00 2.1884000000000000e+01
0.0000000000000000e+00 2.1885999999999999e+01
0.0000000000000000e+00 2.1885000000000002e+01
ITEM: ATOMS id type x y z 
145 2 10.3905 9.27126 8.47412 
146 3 9.48973 9.32023 8.45305 
9 1 8.51441 12.5547 12.5552 
10 1 1.62169 19.4549 19.4494 
11 1 1.62105 19.4503 12.5619 
12 1 8.50748 12.5643 19.4552 
13 1 1.62144 12.5646 19.4542 
14 1 8.50818 19.4525 12.5637 
15 1 8.50785 19.451 19.45 
16 1 1.61926 12.5632 12.5628 
25 1 10.0951 11.0109 10.9785 
26 1 0.0254011 21.0456 21.0468 
27 1 0.0254457 21.0456 10.9665 
28 1 10.1043 10.9674 21.0452 
29 1 0.0247688 10.9674 21.046 
30 1 10.1037 21.0468 10.968 
31 1 10.1037 21.0459 21.0461 
32 1 0.0259728 10.9677 10.9668 
57 1 5.81824 12.2223 12.2223 
58 1 4.31266 19.7917 19.7913 
59 1 4.31248 19.7911 12.2218 
60 1 5.81622 12.222 19.791 
61 1 4.31279 12.222 19.7911 
62 1 5.816 19.7912 12.2217 
63 1 5.81606 19.7921 19.7911 
64 1 4.31151 12.2217 12.2218 
65 1 8.84868 15.2525 12.2224 
66 1 1.27964 16.7557 19.7913 
67 1 8.84905 16.7586 19.7913 
68 1 1.27989 15.2549 12.2218 
69 1 1.27978 16.7588 12.2219 
70 1 8.84929 15.2563 19.7914 
71 1 1.27986 15.2547 19.7912 
72 1 8.84925 16.7595 12.2217 
73 1 8.84878 12.2229 15.2533 
74 1 1.27976 19.7911 16.758 
75 1 1.27973 12.2216 16.7562 
76 1 8.84916 19.7922 15.2553 
77 1 8.84908 19.7921 16.7586 
78 1 1.27983 12.2218 15.2553 
79 1 1.27983 19.7911 15.2548 
80 1 8.84942 12.2226 16.758 
105 1 7.00807 12.3188 12.3185 
106 1 3.12238 19.6948 19.6933 
107 1 3.12284 19.6937 12.3192 
108 1 7.0067 12.32 19.6943 
109 1 3.12275 12.3198 19.6944 
110 1 7.00605 19.694 12.3194 
111 1 7.00627 19.6943 19.6933 
112 1 3.12313 12.3192 12.3191 
113 1 8.75219 14.0628 12.3183 
114 1 1.37639 17.9441 19.6945 
115 1 8.75141 17.9484 19.6935 
116 1 1.37734 14.0655 12.3192 
117 1 1.37734 17.9483 12.3191 
118 1 8.75168 14.0659 19.6946 
119 1 1.37768 14.0646 19.6943 
120 1 8.75194 17.9485 12.3193 
121 1 8.75223 12.3189 14.0618 
122 1 1.3775 19.6944 17.9484 
123 1 1.3765 12.3187 17.9446 
124 1 8.75163 19.6945 14.0651 
125 1 8.75141 19.6943 17.9484 
126 1 1.37733 12.3193 14.065 
127 1 1.37718 19.694 14.0656 
128 1 8.75251 12.3197 17.9457 
137 1 9.39173 11.6783 11.6826 
138 1 0.718423 20.3524 20.3511 
139 1 0.718563 20.3517 11.6617 
140 1 9.40914 11.6618 20.3528 
141 1 0.719671 11.6624 20.3537 
142 1 9.40948 20.3518 11.6612 
143 1 9.4087 20.3527 20.3522 
144 1 0.719011 11.661 11.6619 
1 1 19.4502 1.62045 1.62043 
2 1 12.6199 8.46962 8.47304 
3 1 12.5614 8.5095 1.62883 
4 1 19.4503 1.61997 8.50791 
5 1 12.5616 1.62705 8.50865 
6 1 19.45 8.50764 1.62059 
7 1 19.4432 8.50871 8.50849 
8 1 12.563 1.61993 1.62069 
17 1 21.046 0.0253125 0.0251308 
18 1 10.9974 10.0706 10.1506 
19 1 10.9683 10.1033 0.0255906 
20 1 21.0455 0.0257597 10.1043 
21 1 10.968 0.0243143 10.103 
22 1 21.0454 10.1035 0.0253309 
23 1 21.0448 10.1034 10.103 
24 1 10.9671 0.025037 0.0249194 
33 1 16.7585 1.27886 1.27994 
34 1 15.2736 8.85317 8.85416 
35 1 15.2539 8.84783 1.27953 
36 1 16.7574 1.279 8.84918 
37 1 15.2546 1.27856 8.84873 
38 1 16.7586 8.84854 1.27995 
39 1 16.7559 8.8492 8.84903 
40 1 15.2545 1.27887 1.27994 
41 1 19.7911 4.31213 1.27995 
42 1 12.2167 5.80133 8.85278 
43 1 19.7913 5.81708 8.84873 
44 1 12.2219 4.31234 1.27975 
45 1 12.2223 5.81637 1.27893 
46 1 19.7906 4.31281 8.84926 
47 1 12.222 4.31314 8.84912 
48 1 19.7911 5.81577 1.27993 
49 1 19.791 1.27886 4.31243 
50 1 12.2165 8.85263 5.79735 
51 1 12.2222 1.27953 5.81732 
52 1 19.7911 8.84915 4.31312 
53 1 19.7913 8.84869 5.8171 
54 1 12.2218 1.27912 4.31275 
55 1 12.2219 8.84797 4.31373 
56 1 19.7911 1.279 5.81564 
81 1 17.9481 1.37669 1.37732 
82 1 14.0783 8.74264 8.74344 
83 1 14.0639 8.75084 1.37759 
84 1 17.9473 1.37648 8.75176 
85 1 14.0648 1.37675 8.75147 
86 1 17.9484 8.75122 1.37746 
87 1 17.9488 8.75059 8.75037 
88 1 14.0648 1.37663 1.37763 
89 1 19.6935 3.12262 1.37736 
90 1 12.3224 6.99282 8.74507 
91 1 19.6933 7.00622 8.75116 
92 1 12.3193 3.1229 1.37746 
93 1 12.319 7.00445 1.37693 
94 1 19.6932 3.12333 8.75154 
95 1 12.3206 3.12103 8.7506 
96 1 19.6936 7.00585 1.3775 
97 1 19.6936 1.37657 3.12261 
98 1 12.3238 8.74584 6.99034 
99 1 12.3197 1.37766 7.00681 
100 1 19.6936 8.75172 3.12361 
101 1 19.693 8.75116 7.00636 
102 1 12.3195 1.37644 3.1228 
103 1 12.3202 8.74947 3.12054 
104 1 19.6936 1.37653 7.00576 
129 1 20.351 0.718788 0.718772 
130 1 11.922 9.52458 9.62758 
131 1 11.6601 9.40885 0.720592 
132 1 20.3519 0.719095 9.40913 
133 1 11.6605 0.718872 9.40839 
134 1 20.3519 9.40804 0.718553 
135 1 20.3517 9.40853 9.40884 
136 1 11.6624 0.718302 0.718631 
ITEM: TIMESTEP
30
ITEM: NUMBER OF ATOMS
146
ITEM: BOX BOUNDS pp pp pp
0.0000000000000000e+00 2.1884000000000000e+01
0.0000000000000000e+00 2.1885999999999999e+01
0.0000000000000000e+00 2.1885000000000002e+01
ITEM: ATOMS id type x y z 
145 2 10.3896 9.26164 8.45818 
146 3 9.47086 9.31905 8.44588 
9 1 8.50411 12.5649 12.5646 
10 1 1.62058 19.4518 19.4508 
11 1 1.62027 19.4507 12.5624 
12 1 8.50839 12.5633 19.452 
13 1 1.62125 12.5608 19.4515 
14 1 8.50846 19.4512 12.5629 
15 1 8.50793 19.4516 19.4503 
16 1 1.62011 12.563 12.5613 
25 1 10.1051 10.9777 10.9732 
26 1 0.0238474 21.0474 21.0478 
27 1 0.0233581 21.0475 10.9652 
28 1 10.1056 10.9659 21.047 
29 1 0.0234918 10.9661 21.0481 
30 1 10.1056 21.0482 10.9658 
31 1 10.1052 21.0481 21.0478 
32 1 0.0239746 10.9656 10.9652 
57 1 5.81368 12.2221 12.222 
58 1 4.31256 19.7914 19.7906 
59 1 4.31277 19.7907 12.2222 
60 1 5.8156 12.2225 19.7906 
61 1 4.31255 12.2226 19.7907 
62 1 5.81557 19.7907 12.2221 
63 1 5.81597 19.7915 19.7906 
64 1 4.312 12.2221 12.2221 
65 1 8.84874 15.2557 12.2222 
66 1 1.28009 16.7557 19.7908 
67 1 8.84863 16.7584 19.7907 
68 1 1.28027 15.256 12.2221 
69 1 1.28023 16.7589 12.2222 
70 1 8.84883 15.2568 19.791 
71 1 1.28029 15.2564 19.7909 
72 1 8.8488 16.76 12.2223 
73 1 8.84894 12.2228 15.2569 
74 1 1.28033 19.7908 16.7571 
75 1 1.28029 12.2222 16.7578 
76 1 8.84885 19.7918 15.2559 
77 1 8.84869 19.7917 16.7585 
78 1 1.2803 12.2221 15.2561 
79 1 1.28029 19.7906 15.2552 
80 1 8.84891 12.2231 16.7589 
105 1 7.00567 12.319 12.3188 
106 1 3.12279 19.6936 19.6923 
107 1 3.12296 19.6926 12.3204 
108 1 7.00633 12.3211 19.6933 
109 1 3.1239 12.3209 19.6932 
110 1 7.00624 19.693 12.3206 
111 1 7.00587 19.6931 19.6922 
112 1 3.12127 12.3204 12.3204 
113 1 8.75156 14.0651 12.3188 
114 1 1.37813 17.9471 19.6928 
115 1 8.75015 17.9484 19.6925 
116 1 1.37826 14.0644 12.3205 
117 1 1.37847 17.9488 12.3204 
118 1 8.75054 14.0656 19.6936 
119 1 1.37834 14.0661 19.6936 
120 1 8.75054 17.9499 12.3206 
121 1 8.75193 12.3189 14.0659 
122 1 1.37854 19.6933 17.9482 
123 1 1.37808 12.3201 17.9453 
124 1 8.75032 19.6936 14.0641 
125 1 8.75017 19.6932 17.949 
126 1 1.378 12.3203 14.066 
127 1 1.37847 19.6926 14.0654 
128 1 8.75078 12.3214 17.9487 
137 1 9.41237 11.6663 11.661 
138 1 0.717512 20.3538 20.3529 
139 1 0.717959 20.3531 11.6599 
140 1 9.41095 11.6605 20.3542 
141 1 0.718087 11.6612 20.3545 
142 1 9.41063 20.3537 11.6606 
143 1 9.41038 20.3533 20.3534 
144 1 0.717598 11.6602 11.6603 
1 1 19.4502 1.62021 1.62014 
2 1 12.5977 8.50086 8.51372 
3 1 12.5617 8.50838 1.61989 
4 1 19.4505 1.61991 8.50835 
5 1 12.5619 1.61966 8.50856 
6 1 19.4505 8.50779 1.6204 
7 1 19.4478 8.50898 8.50893 
8 1 12.5628 1.61939 1.62049 
17 1 21.0474 0.0233282 0.0233177 
18 1 11.0482 10.1096 10.169 
19 1 10.9663 10.1047 0.0236151 
20 1 21.0473 0.0236977 10.1055 
21 1 10.9658 0.0223379 10.1046 
22 1 21.047 10.1048 0.0233646 
23 1 21.0474 10.1051 10.1048 
24 1 10.9657 0.0228301 0.0229819 
33 1 16.7584 1.27939 1.2804 
34 1 15.275 8.85253 8.85254 
35 1 15.2545 8.84744 1.2798 
36 1 16.758 1.27937 8.84869 
37 1 15.2545 1.2789 8.84828 
38 1 16.7586 8.84805 1.28031 
39 1 16.7553 8.84966 8.84971 
40 1 15.2549 1.27933 1.28043 
41 1 19.7906 4.31216 1.28041 
42 1 12.2172 5.81162 8.84924 
43 1 19.7911 5.81703 8.8481 
44 1 12.2224 4.31188 1.28011 
45 1 12.2226 5.81557 1.27917 
46 1 19.7902 4.31258 8.84871 
47 1 12.2218 4.31598 8.84932 
48 1 19.7906 5.81586 1.28041 
49 1 19.7906 1.27942 4.31236 
50 1 12.2178 8.84992 5.8099 
51 1 12.2227 1.27975 5.81641 
52 1 19.7906 8.84874 4.31275 
53 1 19.7911 8.84808 5.81742 
54 1 12.2224 1.27955 4.31248 
55 1 12.2214 8.84827 4.31541 
56 1 19.7906 1.27945 5.81514 
81 1 17.9478 1.37782 1.37858 
82 1 14.0821 8.73552 8.73763 
83 1 14.0649 8.7502 1.37914 
84 1 17.9478 1.37779 8.75053 
85 1 14.0656 1.37821 8.75052 
86 1 17.9486 8.74997 1.37872 
87 1 17.9471 8.74979 8.74956 
88 1 14.0649 1.37788 1.37882 
89 1 19.6923 3.12259 1.37856 
90 1 12.3293 6.99946 8.74472 
91 1 19.6917 7.00444 8.75039 
92 1 12.3206 3.12241 1.37869 
93 1 12.3198 7.00459 1.3786 
94 1 19.6919 3.12288 8.75027 
95 1 12.3207 3.12746 8.7507 
96 1 19.6923 7.0057 1.37875 
97 1 19.6924 1.37773 3.12314 
98 1 12.3291 8.74568 6.99873 
99 1 12.3205 1.37912 7.00596 
100 1 19.6923 8.75038 3.12296 
101 1 19.6915 8.75038 7.00475 
102 1 12.3207 1.37774 3.12285 
103 1 12.3204 8.74959 3.12706 
104 1 19.6925 1.37781 7.00569 
129 1 20.353 0.71745 0.717663 
130 1 11.8824 9.48308 9.58861 
131 1 11.6585 9.4114 0.719689 
132 1 20.3529 0.718084 9.41088 
133 1 11.6592 0.718465 9.41047 
134 1 20.3531 9.40991 0.717679 
135 1 20.3518 9.41047 9.4106 
136 1 11.6606 0.717479 0.717687 
ITEM: TIMESTEP
37
ITEM: NUMBER OF ATOMS
146
ITEM: BOX BOUNDS pp pp pp
0.0000000000000000e+00 2.1884000000000000e+01
0.0000000000000000e+00 2.1885999999999999e+01
0.0000000000000000e+00 2.1885000000000002e+01
ITEM: ATOMS id type x y z 
145 2 10.3871 9.26089 8.45618 
146 3 9.46912 9.31879 8.44465 
9 1 8.50439 12.565 12.5647 
10 1 1.62023 19.4515 19.4508 
11 1 1.6201 19.451 12.5623 
12 1 8.50851 12.5632 19.4522 
13 1 1.62082 12.5612 19.4515 
14 1 8.50857 19.4516 12.5628 
15 1 8.50826 19.4516 19.4507 
16 1 1.6199 12.5628 12.5614 
25 1 10.1072 10.9749 10.9721 
26 1 0.023565 21.0477 21.048 
27 1 0.0233415 21.0476 10.9651 
28 1 10.1059 10.9656 21.0473 
29 1 0.0233758 10.966 21.0482 
30 1 10.1055 21.0482 10.9658 
31 1 10.1052 21.0481 21.0479 
32 1 0.0238313 10.9655 10.9652 
57 1 5.81399 12.2222 12.2221 
58 1 4.31296 19.7914 19.7905 
59 1 4.31304 19.7906 12.2223 
60 1 5.8158 12.2226 19.7905 
61 1 4.31345 12.2226 19.7906 
62 1 5.81574 19.7906 12.2223 
63 1 5.81553 19.7914 19.7905 
64 1 4.31197 12.2222 12.2222 
65 1 8.84865 15.2558 12.2223 
66 1 1.28024 16.757 19.7906 
67 1 8.84854 16.7584 19.7907 
68 1 1.28042 15.2556 12.2222 
69 1 1.28032 16.7585 12.2223 
70 1 8.84869 15.2563 19.7909 
71 1 1.2804 15.2557 19.7908 
72 1 8.84871 16.7594 12.2223 
73 1 8.84886 12.2229 15.2565 
74 1 1.28049 19.7907 16.7578 
75 1 1.28027 12.2222 16.7571 
76 1 8.84868 19.7916 15.2554 
77 1 8.84859 19.7916 16.7583 
78 1 1.28038 12.2222 15.2556 
79 1 1.28037 19.7905 15.2554 
80 1 8.84883 12.2232 16.7588 
105 1 7.0043 12.319 12.3189 
106 1 3.12318 19.6935 19.6923 
107 1 3.12348 19.6925 12.3205 
108 1 7.00547 12.3211 19.6932 
109 1 3.12379 12.3209 19.6931 
110 1 7.00529 19.693 12.3206 
111 1 7.00532 19.6931 19.6922 
112 1 3.12215 12.3204 12.3204 
113 1 8.75148 14.0662 12.3189 
114 1 1.37821 17.9463 19.6927 
115 1 8.75008 17.9479 19.6924 
116 1 1.37825 14.0659 12.3205 
117 1 1.37851 17.9481 12.3205 
118 1 8.75053 14.0665 19.6935 
119 1 1.37846 14.0664 19.6935 
120 1 8.75054 17.9492 12.3206 
121 1 8.75183 12.3191 14.0668 
122 1 1.37856 19.6932 17.9473 
123 1 1.37829 12.3202 17.9462 
124 1 8.75036 19.6936 14.0656 
125 1 8.75017 19.6932 17.9481 
126 1 1.3781 12.3204 14.0663 
127 1 1.37853 19.6925 14.0659 
128 1 8.75071 12.3214 17.9484 
137 1 9.41076 11.6672 11.6621 
138 1 0.717937 20.3535 20.3526 
139 1 0.717979 20.353 11.6599 
140 1 9.41062 11.6609 20.3538 
141 1 0.718277 11.6612 20.3543 
142 1 9.41073 20.3537 11.6605 
143 1 9.4104 20.3534 20.3533 
144 1 0.717756 11.6604 11.6604 
1 1 19.4505 1.61992 1.61995 
2 1 12.5983 8.50093 8.5151 
3 1 12.5616 8.50852 1.6203 
4 1 19.4507 1.61967 8.50841 
5 1 12.5617 1.62014 8.50883 
6 1 19.4508 8.50805 1.62015 
7 1 19.4472 8.5094 8.5094 
8 1 12.5625 1.61918 1.62019 
17 1 21.0475 0.0231375 0.0231929 
18 1 11.0499 10.1137 10.1713 
19 1 10.9659 10.1051 0.0233005 
20 1 21.0474 0.0235835 10.1056 
21 1 10.9657 0.0223082 10.1046 
22 1 21.0472 10.1049 0.023208 
23 1 21.0474 10.105 10.1048 
24 1 10.9657 0.0228741 0.0229926 
33 1 16.7578 1.27945 1.28046 
34 1 15.272 8.85224 8.85215 
35 1 15.2548 8.84739 1.27995 
36 1 16.7576 1.27944 8.8486 
37 1 15.2549 1.27901 8.84824 
38 1 16.7581 8.84794 1.28038 
39 1 16.7569 8.84978 8.84982 
40 1 15.2552 1.27943 1.28052 
41 1 19.7905 4.31266 1.28048 
42 1 12.2175 5.81433 8.84882 
43 1 19.7911 5.81567 8.84813 
44 1 12.2225 4.31225 1.28016 
45 1 12.2226 5.81517 1.2793 
46 1 19.7902 4.31288 8.84863 
47 1 12.2217 4.31557 8.84932 
48 1 19.7905 5.81541 1.28049 
49 1 19.7905 1.27948 4.31287 
50 1 12.2181 8.84966 5.81197 
51 1 12.2227 1.27988 5.81607 
52 1 19.7906 8.84866 4.31303 
53 1 19.7911 8.84812 5.81597 
54 1 12.2225 1.27962 4.31298 
55 1 12.2213 8.84831 4.31519 
56 1 19.7905 1.27956 5.81534 
81 1 17.9474 1.37787 1.37862 
82 1 14.0805 8.73475 8.7373 
83 1 14.0654 8.7501 1.37912 
84 1 17.9474 1.37783 8.75048 
85 1 14.0657 1.37826 8.75041 
86 1 17.9478 8.74996 1.37872 
87 1 17.9486 8.74951 8.7493 
88 1 14.0655 1.3779 1.37885 
89 1 19.6923 3.12309 1.37859 
90 1 12.33 7.00189 8.74481 
91 1 19.6917 7.00488 8.75029 
92 1 12.3207 3.12281 1.37873 
93 1 12.3199 7.00443 1.37861 
94 1 19.6918 3.12323 8.75022 
95 1 12.321 3.12642 8.7505 
96 1 19.6923 7.00508 1.37876 
97 1 19.6923 1.37779 3.12338 
98 1 12.3295 8.74571 7.00147 
99 1 12.3206 1.37911 7.00546 
100 1 19.6923 8.75036 3.12349 
101 1 19.6915 8.75027 7.0052 
102 1 12.3207 1.37777 3.12339 
103 1 12.3206 8.74938 3.12579 
104 1 19.6924 1.37785 7.00491 
129 1 20.3528 0.717726 0.717853 
130 1 11.8845 9.47809 9.58505 
131 1 11.659 9.41093 0.720038 
132 1 20.3528 0.718201 9.41076 
133 1 11.6594 0.718442 9.41039 
134 1 20.3529 9.40977 0.717872 
135 1 20.3519 9.41061 9.41071 
136 1 11.6605 0.717404 0.717692 
ITEM: TIMESTEP
38
ITEM: NUMBER OF ATOMS
146
ITEM: BOX BOUNDS pp pp pp
0.0000000000000000e+00 2.1884000000000000e+01
0.0000000000000000e+00 2.1885999999999999e+01
0.0000000000000000e+00 2.1885000000000002e+01
ITEM: ATOMS id type x y z 
145 2 10.3871 9.26089 8.45618 
146 3 9.46912 9.31879 8.44465 
9 1 8.50439 12.565 12.5647 
10 1 1.62023 19.4515 19.4508 
11 1 1.6201 19.451 12.5623 
12 1 8.50851 12.5632 19.4522 
13 1 1.62082 12.5612 19.4515 
14 1 8.50857 19.4516 12.5628 
15 1 8.50826 19.4516 19.4507 
16 1 1.6199 12.5628 12.5614 
25 1 10.1072 10.9749 10.9721 
26 1 0.023565 21.0477 21.048 
27 1 0.0233415 21.0476 10.9651 
28 1 10.1059 10.9656 21.0473 
29 1 0.0233758 10.966 21.0482 
30 1 10.1055 21.0482 10.9658 
31 1 10.1052 21.0481 21.0479 
32 1 0.0238313 10.9655 10.9652 
57 1 5.81399 12.2222 12.2221 
58 1 4.31296 19.7914 19.7905 
59 1 4.31304 19.7906 12.2223 
60 1 5.8158 12.2226 19.7905 
61 1 4.31345 12.2226 19.7906 
62 1 5.81574 19.7906 12.2223 
63 1 5.81553 19.7914 19.7905 
64 1 4.31197 12.2222 12.2222 
65 1 8.84865 15.2558 12.2223 
66 1 1.28024 16.757 19.7906 
67 1 8.84854 16.7584 19.7907 
68 1 1.28042 15.2556 12.2222 
69 1 1.28032 16.7585 12.2223 
70 1 8.84869 15.2563 19.7909 
71 1 1.2804 15.2557 19.7908 
72 1 8.84871 16.7594 12.2223 
73 1 8.84886 12.2229 15.2565 
74 1 1.28049 19.7907 16.7578 
75 1 1.28027 12.2222 16.7571 
76 1 8.84868 19.7916 15.2554 
77 1 8.84859 19.7916 16.7583 
78 1 1.28038 12.2222 15.2556 
79 1 1.28037 19.7905 15.2554 
80 1 8.84883 12.2232 16.7588 
105 1 7.0043 12.319 12.3189 
106 1 3.12318 19.6935 19.6923 
107 1 3.12348 19.6925 12.3205 
108 1 7.00547 12.3211 19.6932 
109 1 3.12379 12.3209 19.6931 
110 1 7.00529 19.693 12.3206 
111 1 7.00532 19.6931 19.6922 
112 1 3.12215 12.3204 12.3204 
113 1 8.75148 14.0662 12.3189 
114 1 1.37821 17.9463 19.6927 
115 1 8.75008 17.9479 19.6924 
116 1 1.37825 14.0659 12.3205 
117 1 1.37851 17.9481 12.3205 
118 1 8.75053 14.0665 19.6935 
119 1 1.37846 14.0664 19.6935 
120 1 8.75054 17.9492 12.3206 
121 1 8.75183 12.3191 14.0668 
122 1 1.37856 19.6932 17.9473 
123 1 1.37829 12.3202 17.9462 
124 1 8.75036 19.6936 14.0656 
125 1 8.75017 19.6932 17.9481 
126 1 1.3781 12.3204 14.0663 
127 1 1.37853 19.6925 14.0659 
128 1 8.75071 12.3214 17.9484 
137 1 9.41076 11.6672 11.6621 
138 1 0.717937 20.3535 20.3526 
139 1 0.717979 20.353 11.6599 
140 1 9.41062 11.6609 20.3538 
141 1 0.718277 11.6612 20.3543 
142 1 9.41073 20.3537 11.6605 
143 1 9.4104 20.3534 20.3533 
144 1 0.717756 11.6604 11.6604 
1 1 19.4505 1.61992 1.61995 
2 1 12.5983 8.50093 8.5151 
3 1 12.5616 8.50852 1.6203 
4 1 19.4507 1.61967 8.50841 
5 1 12.5617 1.62014 8.50883 
6 1 19.4508 8.50805 1.62015 
7 1 19.4472 8.5094 8.5094 
8 1 12.5625 1.61918 1.62019 
17 1 21.0475 0.0231375 0.0231929 
18 1 11.0499 10.1137 10.1713 
19 1 10.9659 10.1051 0.0233005 
20 1 21.0474 0.0235835 10.1056 
21 1 10.9657 0.0223082 10.1046 
22 1 21.0472 10.1049 0.023208 
23 1 21.0474 10.105 10.1048 
24 1 10.9657 0.0228741 0.0229926 
33 1 16.7578 1.27945 1.28046 
34 1 15.272 8.85224 8.85215 
35 1 15.2548 8.84739 1.27995 
36 1 16.7576 1.27944 8.8486 
37 1 15.2549 1.27901 8.84824 
38 1 16.7581 8.84794 1.28038 
39 1 16.7569 8.84978 8.84982 
40 1 15.2552 1.27943 1.28052 
41 1 19.7905 4.31266 1.28048 
42 1 12.2175 5.81433 8.84882 
43 1 19.7911 5.81567 8.84813 
44 1 12.2225 4.31225 1.28016 
45 1 12.2226 5.81517 1.2793 
46 1 19.7902 4.31288 8.84863 
47 1 12.2217 4.31557 8.84932 
48 1 19.7905 5.81541 1.28049 
49 1 19.7905 1.27948 4.31287 
50 1 12.2181 8.84966 5.81197 
51 1 12.2227 1.27988 5.81607 
52 1 19.7906 8.84866 4.31303 
53 1 19.7911 8.84812 5.81597 
54 1 12.2225 1.27962 4.31298 
55 1 12.2213 8.84831 4.31519 
56 1 19.7905 1.27956 5.81534 
81 1 17.9474 1.37787 1.37862 
82 1 14.0805 8.73475 8.7373 
83 1 14.0654 8.7501 1.37912 
84 1 17.9474 1.37783 8.75048 
85 1 14.0657 1.37826 8.75041 
86 1 17.9478 8.74996 1.37872 
87 1 17.9486 8.74951 8.7493 
88 1 14.0655 1.3779 1.37885 
89 1 19.6923 3.12309 1.37859 
90 1 12.33 7.00189 8.74481 
91 1 19.6917 7.00488 8.75029 
92 1 12.3207 3.12281 1.37873 
93 1 12.3199 7.00443 1.37861 
94 1 19.6918 3.12323 8.75022 
95 1 12.321 3.12642 8.7505 
96 1 19.6923 7.00508 1.37876 
97 1 19.6923 1.37779 3.12338 
98 1 12.3295 8.74571 7.00147 
99 1 12.3206 1.37911 7.00546 
100 1 19.6923 8.75036 3.12349 
101 1 19.6915 8.75027 7.0052 
102 1 12.3207 1.37777 3.12339 
103 1 12.3206 8.74938 3.12579 
104 1 19.6924 1.37785 7.00491 
129 1 20.3528 0.717726 0.717853 
130 1 11.8845 9.47809 9.58505 
131 1 11.659 9.41093 0.720038 
132 1 20.3528 0.718201 9.41076 
133 1 11.6594 0.718442 9.41039 
134 1 20.3529 9.40977 0.717872 
135 1 20.3519 9.41061 9.41071 
136 1 11.6605 0.717404 0.717692 
ITEM: TIMESTEP
40
ITEM: NUMBER OF ATOMS
146
ITEM: BOX BOUNDS pp pp pp
1.1755004169374611e-04 2.1883882449958307e+01
1.4106210937500001e-04 2.1885858937890625e+01
1.3159235571277102e-04 2.1884868407644291e+01
ITEM: ATOMS id type x y z 
145 2 10.3871 9.26092 8.45621 
146 3 9.46914 9.31881 8.44468 
9 1 8.50441 12.565 12.5647 
10 1 1.62033 19.4514 19.4507 
11 1 1.6202 19.4509 12.5622 
12 1 8.50854 12.5632 19.4521 
13 1 1.62092 12.5612 19.4514 
14 1 8.5086 19.4515 12.5627 
15 1 8.50829 19.4515 19.4506 
16 1 1.62 12.5628 12.5614 
25 1 10.1072 10.9749 10.9721 
26 1 0.0236823 21.0475 21.0479 
27 1 0.0234588 21.0475 10.9651 
28 1 10.1059 10.9656 21.0472 
29 1 0.0234931 10.966 21.0481 
30 1 10.1056 21.0481 10.9658 
31 1 10.1052 21.048 21.0478 
32 1 0.0239486 10.9655 10.9652 
57 1 5.81405 12.2222 12.2221 
58 1 4.31303 19.7912 19.7904 
59 1 4.31311 19.7905 12.2223 
60 1 5.81586 12.2226 19.7904 
61 1 4.31352 12.2226 19.7905 
62 1 5.81579 19.7905 12.2223 
63 1 5.81558 19.7913 19.7904 
64 1 4.31205 12.2222 12.2222 
65 1 8.84867 15.2557 12.2223 
66 1 1.28035 16.7569 19.7905 
67 1 8.84856 16.7583 19.7906 
68 1 1.28052 15.2555 12.2222 
69 1 1.28043 16.7584 12.2223 
70 1 8.84871 15.2563 19.7908 
71 1 1.28051 15.2556 19.7907 
72 1 8.84873 16.7593 12.2223 
73 1 8.84888 12.2229 15.2565 
74 1 1.28059 19.7906 16.7577 
75 1 1.28037 12.2222 16.757 
76 1 8.8487 19.7915 15.2554 
77 1 8.84861 19.7915 16.7582 
78 1 1.28049 12.2222 15.2555 
79 1 1.28048 19.7904 15.2554 
80 1 8.84885 12.2232 16.7587 
105 1 7.00434 12.319 12.3188 
106 1 3.12326 19.6934 19.6922 
107 1 3.12357 19.6924 12.3205 
108 1 7.00551 12.3211 19.6931 
109 1 3.12388 12.3209 19.6929 
110 1 7.00533 19.6929 12.3206 
111 1 7.00536 19.6929 19.6921 
112 1 3.12223 12.3204 12.3204 
113 1 8.7515 14.0662 12.3189 
114 1 1.37831 17.9462 19.6926 
115 1 8.75011 17.9478 19.6923 
116 1 1.37835 14.0658 12.3205 
117 1 1.37861 17.948 12.3205 
118 1 8.75055 14.0665 19.6934 
119 1 1.37856 14.0664 19.6934 
120 1 8.75057 17.9491 12.3206 
121 1 8.75186 12.319 14.0668 
122 1 1.37867 19.6931 17.9472 
123 1 1.37839 12.3202 17.9461 
124 1 8.75039 19.6935 14.0655 
125 1 8.75019 19.6931 17.948 
126 1 1.3782 12.3204 14.0663 
127 1 1.37864 19.6924 14.0658 
128 1 8.75073 12.3214 17.9483 
137 1 9.41078 11.6672 11.6621 
138 1 0.718047 20.3533 20.3524 
139 1 0.718089 20.3529 11.6599 
140 1 9.41064 11.6609 20.3537 
141 1 0.718387 11.6612 20.3542 
142 1 9.41075 20.3536 11.6605 
143 1 9.41041 20.3533 20.3532 
144 1 0.717866 11.6603 11.6604 
1 1 19.4504 1.62004 1.62006 
2 1 12.5983 8.50096 8.51513 
3 1 12.5616 8.50855 1.62041 
4 1 19.4506 1.61979 8.50843 
5 1 12.5617 1.62026 8.50885 
6 1 19.4507 8.50808 1.62026 
7 1 19.4471 8.50943 8.50943 
8 1 12.5625 1.6193 1.6203 
17 1 21.0474 0.0232783 0.0233242 
18 1 11.0499 10.1138 10.1713 