ITEM: TIMESTEP
0
ITEM: NUMBER OF ATOMS
145
ITEM: BOX BOUNDS pp pp pp
0.0000000000000000e+00 2.1884000000000000e+01
0.0000000000000000e+00 2.1885999999999999e+01
0.0000000000000000e+00 2.1885000000000002e+01
ITEM: ATOMS id type x y z 
16 1 1.605 12.547 12.547 
32 1 0.024 10.965 10.965 
64 1 4.318 12.218 12.218 
68 1 1.276 15.26 12.218 
78 1 1.276 12.218 15.26 
112 1 3.118 12.317 12.317 
116 1 1.375 14.061 12.317 
126 1 1.375 12.317 14.061 
144 1 0.722 11.664 11.663 
9 1 8.524 12.547 12.547 
25 1 10.105 10.965 10.965 
57 1 5.811 12.218 12.218 
65 1 8.853 15.26 12.218 
73 1 8.853 12.219 15.26 
105 1 7.01 12.317 12.317 
113 1 8.754 14.061 12.317 
121 1 8.754 12.317 14.061 
137 1 9.407 11.664 11.664 
11 1 1.605 19.466 12.547 
27 1 0.023 21.047 10.964 
59 1 4.318 19.795 12.218 
69 1 1.276 16.754 12.218 
79 1 1.276 19.795 15.26 
107 1 3.119 19.696 12.317 
117 1 1.375 17.953 12.317 
127 1 1.375 19.696 14.061 
139 1 0.721 20.349 11.663 
14 1 8.524 19.467 12.547 
30 1 10.106 21.049 10.966 
62 1 5.811 19.795 12.218 
72 1 8.853 16.753 12.218 
76 1 8.853 19.796 15.26 
110 1 7.01 19.696 12.317 
120 1 8.754 17.953 12.317 
124 1 8.754 19.697 14.061 
142 1 9.407 20.35 11.664 
13 1 1.605 12.547 19.466 
29 1 0.023 10.966 21.048 
61 1 4.318 12.218 19.795 
71 1 1.276 15.26 19.795 
75 1 1.276 12.218 16.754 
109 1 3.119 12.317 19.696 
119 1 1.375 14.061 19.696 
123 1 1.375 12.317 17.953 
141 1 0.721 11.664 20.35 
12 1 8.524 12.547 19.466 
28 1 10.106 10.965 21.047 
60 1 5.811 12.219 19.795 
70 1 8.853 15.26 19.796 
80 1 8.853 12.219 16.754 
108 1 7.011 12.317 19.696 
118 1 8.754 14.061 19.696 
128 1 8.754 12.318 17.953 
140 1 9.408 11.664 20.349 
10 1 1.604 19.466 19.466 
26 1 0.023 21.047 21.049 
58 1 4.317 19.796 19.795 
66 1 1.276 16.754 19.795 
74 1 1.276 19.795 16.753 
106 1 3.118 19.696 19.696 
114 1 1.375 17.953 19.696 
122 1 1.375 19.696 17.952 
138 1 0.721 20.349 20.35 
15 1 8.524 19.467 19.466 
31 1 10.106 21.048 21.049 
63 1 5.811 19.796 19.795 
67 1 8.853 16.754 19.795 
77 1 8.853 19.796 16.753 
111 1 7.01 19.697 19.696 
115 1 8.754 17.953 19.696 
125 1 8.754 19.697 17.952 
143 1 9.407 20.35 20.35 
8 1 12.547 1.604 1.605 
24 1 10.965 0.023 0.022 
40 1 15.26 1.275 1.276 
44 1 12.218 4.317 1.276 
54 1 12.218 1.275 4.318 
88 1 14.061 1.374 1.375 
92 1 12.317 3.118 1.375 
102 1 12.317 1.374 3.119 
136 1 11.664 0.721 0.721 
1 1 19.466 1.604 1.604 
17 1 21.048 0.023 0.022 
33 1 16.753 1.275 1.276 
41 1 19.795 4.317 1.276 
49 1 19.795 1.275 4.317 
81 1 17.952 1.374 1.375 
89 1 19.696 3.118 1.375 
97 1 19.696 1.374 3.118 
129 1 20.35 0.722 0.721 
145 2 19.336 0.947 0.344 
3 1 12.546 8.524 1.604 
19 1 10.965 10.106 0.024 
35 1 15.26 8.852 1.276 
45 1 12.218 5.811 1.275 
55 1 12.218 8.852 4.317 
83 1 14.06 8.753 1.375 
93 1 12.317 7.01 1.374 
103 1 12.317 8.753 3.118 
131 1 11.663 9.407 0.722 
6 1 19.466 8.524 1.605 
22 1 21.048 10.105 0.023 
38 1 16.753 8.852 1.276 
48 1 19.795 5.811 1.276 
52 1 19.795 8.853 4.318 
86 1 17.952 8.754 1.375 
96 1 19.696 7.01 1.375 
100 1 19.696 8.754 3.118 
134 1 20.35 9.407 0.721 
5 1 12.547 1.604 8.524 
21 1 10.965 0.022 10.105 
37 1 15.26 1.275 8.853 
47 1 12.218 4.317 8.853 
51 1 12.218 1.276 5.811 
85 1 14.06 1.374 8.754 
95 1 12.317 3.118 8.754 
99 1 12.317 1.375 7.01 
133 1 11.663 0.72 9.407 
4 1 19.466 1.605 8.524 
20 1 21.048 0.024 10.107 
36 1 16.753 1.275 8.853 
46 1 19.795 4.317 8.853 
56 1 19.795 1.275 5.811 
84 1 17.952 1.374 8.754 
94 1 19.695 3.118 8.754 
104 1 19.696 1.374 7.01 
132 1 20.35 0.722 9.408 
2 1 12.547 8.524 8.524 
18 1 10.965 10.106 10.106 
34 1 15.26 8.853 8.853 
42 1 12.218 5.811 8.853 
50 1 12.218 8.852 5.811 
82 1 14.061 8.754 8.754 
90 1 12.317 7.01 8.754 
98 1 12.317 8.754 7.01 
130 1 11.664 9.407 9.407 
7 1 19.466 8.524 8.524 
23 1 21.047 10.106 10.106 
39 1 16.753 8.853 8.853 
43 1 19.795 5.811 8.853 
53 1 19.795 8.853 5.811 
87 1 17.952 8.754 8.754 
91 1 19.696 7.01 8.754 
101 1 19.696 8.754 7.01 
135 1 20.349 9.407 9.407 
ITEM: TIMESTEP
10
ITEM: NUMBER OF ATOMS
145
ITEM: BOX BOUNDS pp pp pp
0.0000000000000000e+00 2.1884000000000000e+01
0.0000000000000000e+00 2.1885999999999999e+01
0.0000000000000000e+00 2.1885000000000002e+01
ITEM: ATOMS id type x y z 
16 1 1.60505 12.5469 12.547 
32 1 0.0241409 10.9653 10.9653 
64 1 4.31789 12.2185 12.2185 
68 1 1.27649 15.26 12.2185 
78 1 1.2765 12.2185 15.26 
112 1 3.11817 12.3173 12.3173 
116 1 1.37538 14.0608 12.3174 
126 1 1.37537 12.3174 14.0608 
144 1 0.721423 11.6638 11.663 
9 1 8.52385 12.5471 12.547 
25 1 10.1049 10.9655 10.9654 
57 1 5.81166 12.2186 12.2186 
65 1 8.85241 15.2594 12.2186 
73 1 8.8525 12.2192 15.26 
105 1 7.00954 12.3173 12.3173 
113 1 8.75372 14.0614 12.3173 
121 1 8.75369 12.3177 14.0608 
137 1 9.4074 11.6632 11.6632 
11 1 1.60481 19.4662 12.5468 
27 1 0.0240858 21.0466 10.9651 
59 1 4.31785 19.7945 12.2184 
69 1 1.27645 16.7535 12.2185 
79 1 1.27657 19.7944 15.2603 
107 1 3.11853 19.6957 12.3173 
117 1 1.37526 17.9527 12.3173 
127 1 1.37522 19.6958 14.0616 
139 1 0.722087 20.3484 11.6644 
14 1 8.52407 19.4663 12.5472 
30 1 10.1058 21.0488 10.9656 
62 1 5.81109 19.7945 12.2184 
72 1 8.85249 16.7532 12.2185 
76 1 8.85252 19.7956 15.26 
110 1 7.01045 19.6958 12.3173 
120 1 8.75371 17.9531 12.3173 
124 1 8.75369 19.6965 14.0607 
142 1 9.40703 20.3497 11.6642 
13 1 1.60521 12.5473 19.4665 
29 1 0.0240773 10.9664 21.0473 
61 1 4.31722 12.2188 19.7944 
71 1 1.2766 15.2605 19.7944 
75 1 1.27646 12.2184 16.7534 
109 1 3.11939 12.3173 19.6958 
119 1 1.37526 14.0619 19.6958 
123 1 1.37524 12.3173 17.9527 
141 1 0.722407 11.665 20.3488 
12 1 8.52429 12.5473 19.4663 
28 1 10.106 10.9653 21.0474 
60 1 5.81103 12.219 19.7945 
70 1 8.85254 15.2605 19.795 
80 1 8.85258 12.2195 16.7535 
108 1 7.01096 12.3177 19.6958 
118 1 8.75363 14.0611 19.6961 
128 1 8.75371 12.3181 17.9528 
140 1 9.40752 11.6638 20.3492 
10 1 1.58569 19.4861 19.4849 
26 1 0.0294685 21.0339 21.0455 
58 1 4.31529 19.7943 19.7936 
66 1 1.2774 16.7558 19.7936 
74 1 1.27739 19.7936 16.7553 
106 1 3.11658 19.6977 19.6972 
114 1 1.3736 17.9545 19.6972 
122 1 1.37357 19.6973 17.954 
138 1 0.742452 20.3245 20.3285 
15 1 8.52384 19.4668 19.4662 
31 1 10.1049 21.0471 21.0473 
63 1 5.81046 19.7954 19.7943 
67 1 8.85246 16.754 19.7946 
77 1 8.85252 19.7955 16.7533 
111 1 7.00898 19.6967 19.6957 
115 1 8.75356 17.953 19.6957 
125 1 8.75361 19.6967 17.9526 
143 1 9.40598 20.3491 20.3491 
8 1 12.5389 1.60529 1.60582 
24 1 10.9638 0.0208887 0.0204753 
40 1 15.2477 1.27258 1.2734 
44 1 12.2182 4.31932 1.2757 
54 1 12.2181 1.27501 4.32 
88 1 14.0508 1.37345 1.37429 
92 1 12.3159 3.12015 1.37494 
102 1 12.3159 1.37388 3.12062 
136 1 11.6609 0.719563 0.719867 
1 1 19.4024 1.70285 1.72889 
17 1 21.1164 -0.0282307 -0.0199367 
33 1 16.7467 1.26987 1.27222 
41 1 19.8004 4.33077 1.26788 
49 1 19.8017 1.26532 4.34187 
81 1 17.9388 1.39163 1.40517 
89 1 19.6931 3.13393 1.3928 
97 1 19.697 1.37756 3.14022 
129 1 20.3659 0.691344 0.646928 
145 2 19.3596 0.873097 0.219346 
3 1 12.5464 8.52401 1.60462 
19 1 10.9649 10.1062 0.0234705 
35 1 15.2586 8.85157 1.27641 
45 1 12.2183 5.81201 1.27547 
55 1 12.2185 8.85146 4.31752 
83 1 14.0586 8.7528 1.37516 
93 1 12.3172 7.01139 1.37434 
103 1 12.3172 8.75285 3.11834 
131 1 11.6629 9.40719 0.721267 
6 1 19.4654 8.53021 1.60527 
22 1 21.0499 10.1062 0.020545 
38 1 16.7514 8.85201 1.27607 
48 1 19.797 5.82073 1.2738 
52 1 19.7951 8.85291 4.32028 
86 1 17.9492 8.75476 1.37468 
96 1 19.6964 7.01904 1.37465 
100 1 19.6962 8.75496 3.1201 
134 1 20.3503 9.41058 0.720836 
5 1 12.5467 1.60445 8.52426 
21 1 10.9654 0.0223631 10.1047 
37 1 15.2587 1.27529 8.85266 
47 1 12.2185 4.31734 8.8525 
51 1 12.2183 1.27617 5.81246 
85 1 14.0587 1.37435 8.75367 
95 1 12.3173 3.11843 8.75378 
99 1 12.3174 1.37518 7.01174 
133 1 11.6627 0.720042 9.40786 
4 1 19.4658 1.60503 8.52942 
20 1 21.0501 0.0215372 10.1076 
36 1 16.7511 1.27496 8.8528 
46 1 19.7948 4.31985 8.85297 
56 1 19.7972 1.27287 5.82004 
84 1 17.9491 1.37381 8.75506 
94 1 19.6957 3.12046 8.75486 
104 1 19.696 1.37427 7.02191 
132 1 20.3504 0.720511 9.41113 
2 1 12.5468 8.524 8.52395 
18 1 10.9652 10.1058 10.1057 
34 1 15.2597 8.85252 8.85251 
42 1 12.2185 5.81095 8.85245 
50 1 12.2186 8.85174 5.81115 
82 1 14.0604 8.75363 8.75363 
90 1 12.3174 7.01018 8.75363 
98 1 12.3173 8.75333 7.01026 
130 1 11.6637 9.40708 9.4074 
7 1 19.466 8.52412 8.52408 
23 1 21.0475 10.106 10.1059 
39 1 16.7529 8.85255 8.85256 
43 1 19.7947 5.81225 8.85269 
53 1 19.7946 8.85259 5.813 
87 1 17.9521 8.75369 8.75367 
91 1 19.6956 7.01162 8.75354 
101 1 19.6957 8.75365 7.01113 
135 1 20.3491 9.40727 9.4075 
ITEM: TIMESTEP
20
ITEM: NUMBER OF ATOMS
145
ITEM: BOX BOUNDS pp pp pp
0.0000000000000000e+00 2.1884000000000000e+01
0.0000000000000000e+00 2.1885999999999999e+01
0.0000000000000000e+00 2.1885000000000002e+01
ITEM: ATOMS id type x y z 
16 1 1.60481 12.5468 12.547 
32 1 0.0238495 10.9656 10.9657 
64 1 4.31809 12.219 12.219 
68 1 1.27693 15.2593 12.2189 
78 1 1.27696 12.2189 15.2594 
112 1 3.11853 12.3176 12.3176 
116 1 1.37564 14.0602 12.3177 
126 1 1.37561 12.3177 14.0604 
144 1 0.722234 11.6643 11.6635 
9 1 8.52382 12.547 12.5464 
25 1 10.1049 10.9655 10.9646 
57 1 5.81111 12.219 12.2191 
65 1 8.85196 15.2601 12.2191 
73 1 8.85201 12.2197 15.2598 
105 1 7.01031 12.3177 12.3177 
113 1 8.75332 14.0609 12.3176 
121 1 8.75332 12.3181 14.0606 
137 1 9.40772 11.6631 11.6648 
11 1 1.60591 19.4655 12.5462 
27 1 0.0251245 21.0465 10.9655 
59 1 4.31878 19.7943 12.2187 
69 1 1.27667 16.7522 12.2187 
79 1 1.27655 19.7945 15.2538 
107 1 3.11993 19.6957 12.3173 
117 1 1.3752 17.9512 12.3173 
127 1 1.37583 19.6952 14.0542 
139 1 0.721991 20.3485 11.6653 
14 1 8.52502 19.466 12.5472 
30 1 10.1065 21.0475 10.9659 
62 1 5.81192 19.7941 12.2189 
72 1 8.852 16.7531 12.219 
76 1 8.85207 19.7951 15.2594 
110 1 7.01091 19.6955 12.3177 
120 1 8.75349 17.9526 12.3177 
124 1 8.75341 19.6961 14.0604 
142 1 9.40504 20.351 11.6638 
13 1 1.60576 12.547 19.4661 
29 1 0.0245677 10.966 21.0478 
61 1 4.31889 12.219 19.7942 
71 1 1.27662 15.2544 19.7944 
75 1 1.27672 12.2187 16.7525 
109 1 3.11999 12.3176 19.6958 
119 1 1.37599 14.0547 19.6952 
123 1 1.37535 12.3175 17.9515 
141 1 0.721495 11.664 20.3482 
12 1 8.52462 12.5475 19.4663 
28 1 10.1058 10.9658 21.0472 
60 1 5.81168 12.2193 19.7941 
70 1 8.85203 15.2598 19.7945 
80 1 8.85206 12.2199 16.7532 
108 1 7.01121 12.3181 19.6955 
118 1 8.75347 14.0607 19.6958 
128 1 8.75358 12.3184 17.9524 
140 1 9.40678 11.664 20.3495 
10 1 1.60749 19.4608 19.461 
26 1 0.0362382 21.0402 21.0581 
58 1 4.32709 19.7967 19.7961 
66 1 1.27496 16.7435 19.7962 
74 1 1.2748 19.7963 16.7429 
106 1 3.12612 19.7025 19.7017 
114 1 1.36885 17.9444 19.7017 
122 1 1.36848 19.7023 17.944 
138 1 0.742995 20.3286 20.3358 
15 1 8.52407 19.4663 19.4657 
31 1 10.1055 21.0478 21.0476 
63 1 5.81675 19.7953 19.7943 
67 1 8.85221 16.753 19.7944 
77 1 8.85225 19.7953 16.7525 
111 1 7.01631 19.696 19.6951 
115 1 8.75342 17.9518 19.6957 
125 1 8.75351 19.6966 17.9514 
143 1 9.40711 20.3497 20.3495 
8 1 12.5429 1.60437 1.60466 
24 1 10.9648 0.0216971 0.0214202 
40 1 15.2572 1.27017 1.27037 
44 1 12.2188 4.31811 1.27605 
54 1 12.2187 1.27551 4.31857 
88 1 14.0561 1.37325 1.37342 
92 1 12.3148 3.1187 1.37567 
102 1 12.3147 1.37478 3.11911 
136 1 11.6599 0.721015 0.72206 
1 1 19.3937 1.69889 1.72104 
17 1 21.1309 -0.0217055 0.00252461 
33 1 16.7429 1.27436 1.28252 
41 1 19.803 4.33414 1.27019 
49 1 19.8074 1.2615 4.34476 
81 1 17.9331 1.42055 1.44165 
89 1 19.6757 3.13887 1.41849 
97 1 19.6827 1.39931 3.14724 
129 1 20.3268 0.690006 0.623107 
145 2 19.3519 0.860537 0.165491 
3 1 12.5454 8.52499 1.60492 
19 1 10.9646 10.1068 0.0228072 
35 1 15.2586 8.8513 1.27636 
45 1 12.2188 5.81138 1.27557 
55 1 12.2188 8.8512 4.31818 
83 1 14.0588 8.75301 1.37528 
93 1 12.3169 7.01064 1.37455 
103 1 12.3171 8.75289 3.1189 
131 1 11.6624 9.40719 0.7204 
6 1 19.4659 8.52881 1.60491 
22 1 21.0488 10.1069 0.0214564 
38 1 16.7511 8.85173 1.27618 
48 1 19.7993 5.81711 1.26898 
52 1 19.7949 8.85252 4.31957 
86 1 17.9507 8.75579 1.37529 
96 1 19.6958 7.01921 1.37457 
100 1 19.6956 8.75618 3.11978 
134 1 20.3501 9.41047 0.721052 
5 1 12.5455 1.60435 8.52515 
21 1 10.9647 0.0210073 10.1059 
37 1 15.2575 1.27516 8.85244 
47 1 12.2189 4.31799 8.85219 
51 1 12.2188 1.27608 5.81181 
85 1 14.0579 1.37459 8.75378 
95 1 12.3172 3.11882 8.75379 
99 1 12.3171 1.37514 7.01094 
133 1 11.662 0.720925 9.40827 
4 1 19.4656 1.60492 8.53093 
20 1 21.0502 0.0204184 10.1077 
36 1 16.75 1.27476 8.85281 
46 1 19.7949 4.32043 8.85286 
56 1 19.8007 1.26752 5.82388 
84 1 17.9493 1.3741 8.75661 
94 1 19.6957 3.12114 8.75656 
104 1 19.6956 1.37467 7.02633 
132 1 20.3505 0.720633 9.41292 
2 1 12.5461 8.52404 8.52397 
18 1 10.9643 10.1057 10.1056 
34 1 15.259 8.85213 8.8521 
42 1 12.219 5.81137 8.85204 
50 1 12.219 8.85137 5.81153 
82 1 14.06 8.75335 8.75342 
90 1 12.3176 7.0105 8.75341 
98 1 12.3176 8.75296 7.01064 
130 1 11.6644 9.40786 9.40792 
7 1 19.4659 8.52551 8.52478 
23 1 21.0484 10.1068 10.1059 
39 1 16.7524 8.85225 8.85222 
43 1 19.7947 5.81341 8.85244 
53 1 19.7946 8.85228 5.8123 
87 1 17.9515 8.75373 8.75378 
91 1 19.6955 7.01238 8.75376 
101 1 19.6956 8.7538 7.0113 
135 1 20.3495 9.40745 9.40876 
ITEM: TIMESTEP
30
ITEM: NUMBER OF ATOMS
145
ITEM: BOX BOUNDS pp pp pp
0.0000000000000000e+00 2.1884000000000000e+01
0.0000000000000000e+00 2.1885999999999999e+01
0.0000000000000000e+00 2.1885000000000002e+01
ITEM: ATOMS id type x y z 
16 1 1.60505 12.5466 12.5467 
32 1 0.0235453 10.9656 10.9653 
64 1 4.31809 12.2191 12.2192 
68 1 1.27685 15.2585 12.2189 
78 1 1.27691 12.2189 15.2589 
112 1 3.11931 12.3176 12.3175 
116 1 1.37572 14.0594 12.3176 
126 1 1.37571 12.3176 14.0598 
144 1 0.722057 11.6636 11.6636 
9 1 8.52409 12.5467 12.5469 
25 1 10.1051 10.965 10.9655 
57 1 5.81152 12.2193 12.2192 
65 1 8.85172 15.2597 12.2192 
73 1 8.85178 12.2199 15.2597 
105 1 7.01043 12.3178 12.3178 
113 1 8.75323 14.0607 12.3177 
121 1 8.75322 12.3182 14.0605 
137 1 9.40744 11.6639 11.6634 
11 1 1.60658 19.4652 12.5442 
27 1 0.0245822 21.0476 10.9662 
59 1 4.31975 19.7945 12.2186 
69 1 1.27641 16.7515 12.2186 
79 1 1.27576 19.7953 15.2527 
107 1 3.12064 19.6956 12.3166 
117 1 1.37536 17.9505 12.3166 
127 1 1.37573 19.6953 14.0534 
139 1 0.722452 20.3473 11.6632 
14 1 8.52437 19.466 12.5463 
30 1 10.1052 21.048 10.9651 
62 1 5.81264 19.7941 12.2189 
72 1 8.85186 16.7532 12.2192 
76 1 8.85205 19.7951 15.259 
110 1 7.01183 19.6954 12.3177 
120 1 8.75356 17.952 12.3177 
124 1 8.75348 19.6961 14.0598 
142 1 9.40744 20.3506 11.6644 
13 1 1.60628 12.544 19.4653 
29 1 0.0235762 10.9654 21.0478 
61 1 4.31942 12.219 19.7944 
71 1 1.27592 15.2528 19.7952 
75 1 1.27658 12.2187 16.7518 
109 1 3.12055 12.317 19.6956 
119 1 1.37583 14.0535 19.6953 
123 1 1.37546 12.3169 17.9509 
141 1 0.722169 11.6634 20.3492 
12 1 8.52468 12.5471 19.4663 
28 1 10.1057 10.9655 21.0479 
60 1 5.81268 12.2194 19.7941 
70 1 8.852 15.2593 19.7945 
80 1 8.85193 12.2201 16.7529 
108 1 7.0115 12.318 19.6954 
118 1 8.75347 14.0602 19.6957 
128 1 8.75357 12.3183 17.952 
140 1 9.4077 11.6639 20.3493 
10 1 1.60432 19.4641 19.4638 
26 1 0.05139 21.0383 21.0627 
58 1 4.32685 19.7984 19.7976 
66 1 1.2732 16.7434 19.7979 
74 1 1.27302 19.7981 16.7433 
106 1 3.12676 19.7001 19.6995 
114 1 1.37057 17.9435 19.6997 
122 1 1.37008 19.7004 17.9434 
138 1 0.748973 20.3275 20.3362 
15 1 8.52706 19.4658 19.4654 
31 1 10.1061 21.0485 21.0482 
63 1 5.81784 19.7959 19.795 
67 1 8.85207 16.7525 19.7945 
77 1 8.85214 19.7954 16.7521 
111 1 7.01716 19.696 19.6952 
115 1 8.75397 17.9516 19.6955 
125 1 8.75404 19.6963 17.9512 
143 1 9.40801 20.3502 20.3497 
8 1 12.5437 1.60402 1.60503 
24 1 10.9644 0.0218861 0.0229266 
40 1 15.2543 1.26892 1.26986 
44 1 12.2184 4.31848 1.27644 
54 1 12.2184 1.27596 4.31875 
88 1 14.0549 1.37235 1.37189 
92 1 12.3154 3.11904 1.37535 
102 1 12.3153 1.37462 3.11931 
136 1 11.6614 0.721806 0.721107 
1 1 19.3941 1.70208 1.72684 
17 1 21.1361 -0.0243637 0.00415315 
33 1 16.7413 1.28088 1.29274 
41 1 19.8009 4.33555 1.27559 
49 1 19.8073 1.26429 4.34848 
81 1 17.9306 1.42805 1.45114 
89 1 19.6719 3.1427 1.42368 
97 1 19.6803 1.40249 3.15156 
129 1 20.3166 0.681541 0.607739 
145 2 19.3404 0.855416 0.131916 
3 1 12.5452 8.5244 1.60472 
19 1 10.9647 10.106 0.0225671 
35 1 15.2577 8.85109 1.27658 
45 1 12.2191 5.81145 1.27589 
55 1 12.219 8.85101 4.31795 
83 1 14.0588 8.75292 1.37529 
93 1 12.317 7.01077 1.37467 
103 1 12.3171 8.75283 3.11872 
131 1 11.6628 9.40774 0.721242 
6 1 19.4656 8.52877 1.60526 
22 1 21.0486 10.1069 0.022123 
38 1 16.7508 8.85201 1.27642 
48 1 19.8011 5.82015 1.26735 
52 1 19.7947 8.85281 4.31961 
86 1 17.95 8.75577 1.37517 
96 1 19.6964 7.01944 1.37277 
100 1 19.6958 8.75614 3.12033 
134 1 20.3493 9.40997 0.721272 
5 1 12.5447 1.60465 8.52486 
21 1 10.9647 0.0217096 10.106 
37 1 15.2565 1.27524 8.85224 
47 1 12.2191 4.31805 8.852 
51 1 12.2191 1.27624 5.81171 
85 1 14.0575 1.37461 8.75378 
95 1 12.3171 3.11882 8.75376 
99 1 12.317 1.37519 7.01103 
133 1 11.6627 0.720377 9.40806 
4 1 19.4651 1.60607 8.53294 
20 1 21.0501 0.0211754 10.1081 
36 1 16.7492 1.27473 8.85306 
46 1 19.795 4.32137 8.85311 
56 1 19.8033 1.26478 5.82696 
84 1 17.9484 1.37414 8.75751 
94 1 19.6957 3.12187 8.75744 
104 1 19.6963 1.37307 7.02826 
132 1 20.3497 0.720017 9.41219 
2 1 12.5462 8.52422 8.52435 
18 1 10.9648 10.1057 10.1056 
34 1 15.2591 8.85191 8.85191 
42 1 12.2192 5.81128 8.85185 
50 1 12.2192 8.85114 5.81132 
82 1 14.0598 8.75331 8.75335 
90 1 12.3176 7.01051 8.75336 
98 1 12.3176 8.75294 7.01058 
130 1 11.6636 9.40797 9.40778 
7 1 19.466 8.52553 8.52497 
23 1 21.0486 10.106 10.1059 
39 1 16.7522 8.85205 8.85204 
43 1 19.7947 5.81375 8.85229 
53 1 19.7946 8.8521 5.81252 
87 1 17.9515 8.75387 8.75382 
91 1 19.6955 7.01317 8.75381 
101 1 19.6955 8.75385 7.0117 
135 1 20.3489 9.40865 9.40826 
ITEM: TIMESTEP
40
ITEM: NUMBER OF ATOMS
145
ITEM: BOX BOUNDS pp pp pp
0.0000000000000000e+00 2.1884000000000000e+01
0.0000000000000000e+00 2.1885999999999999e+01
0.0000000000000000e+00 2.1885000000000002e+01
ITEM: ATOMS id type x y z 
16 1 1.60484 12.5454 12.5472 
32 1 0.0228828 10.9648 10.9664 
64 1 4.31879 12.2193 12.2193 
68 1 1.27662 15.258 12.219 
78 1 1.27674 12.219 15.2583 
112 1 3.11968 12.3174 12.3174 
116 1 1.37575 14.0588 12.3173 
126 1 1.37583 12.3174 14.0591 
144 1 0.723027 11.6642 11.6617 
9 1 8.52424 12.5469 12.5462 
25 1 10.1053 10.9655 10.9647 
57 1 5.81204 12.2195 12.2195 
65 1 8.8515 15.2594 12.2195 
73 1 8.85153 12.2201 15.2596 
105 1 7.01068 12.3179 12.3178 
113 1 8.75317 14.0605 12.3178 
121 1 8.7532 12.3183 14.0602 
137 1 9.40762 11.6629 11.6644 
11 1 1.6081 19.4631 12.5401 
27 1 0.0253003 21.0458 10.9638 
59 1 4.3204 19.7948 12.2185 
69 1 1.27621 16.7504 12.2185 
79 1 1.27439 19.7968 15.2505 
107 1 3.12133 19.6952 12.3156 
117 1 1.37567 17.9495 12.3155 
127 1 1.37558 19.6954 14.0519 
139 1 0.722358 20.3496 11.6659 
14 1 8.5268 19.4651 12.5469 
30 1 10.1073 21.0476 10.9661 
62 1 5.81354 19.7943 12.2189 
72 1 8.8517 16.7528 12.2194 
76 1 8.85191 19.7951 15.2588 
110 1 7.0127 19.6954 12.3175 
120 1 8.75358 17.9519 12.3176 
124 1 8.75359 19.696 14.0594 
142 1 9.40483 20.3513 11.6622 
13 1 1.60604 12.5423 19.4649 
29 1 0.0223644 10.9661 21.0486 
61 1 4.31996 12.2191 19.7945 
71 1 1.2746 15.2503 19.7966 
75 1 1.27643 12.2188 16.7514 
109 1 3.1215 12.3158 19.6954 
119 1 1.3757 14.0515 19.6956 
123 1 1.37577 12.3157 17.9504 
141 1 0.724158 11.66 20.3481 
12 1 8.52598 12.5475 19.4663 
28 1 10.1068 10.9663 21.0484 
60 1 5.81347 12.2195 19.7942 
70 1 8.85181 15.2589 19.7945 
80 1 8.85174 12.2202 16.7525 
108 1 7.01228 12.3179 19.6953 
118 1 8.75366 14.0597 19.6956 
128 1 8.75365 12.3183 17.952 
140 1 9.40657 11.6618 20.3489 
10 1 1.60648 19.4615 19.4613 
26 1 0.0717281 21.0383 21.0729 
58 1 4.3286 19.7993 19.7984 
66 1 1.27187 16.7413 19.7991 
74 1 1.27147 19.7996 16.7418 
106 1 3.12851 19.6984 19.6978 
114 1 1.37129 17.9414 19.6985 
122 1 1.37057 19.6994 17.9418 
138 1 0.758278 20.3301 20.343 
15 1 8.52858 19.4659 19.4656 
31 1 10.105 21.0496 21.0494 
63 1 5.81982 19.7971 19.7962 
67 1 8.85195 16.7521 19.7945 
77 1 8.85206 19.7954 16.7515 
111 1 7.0187 19.6962 19.6954 
115 1 8.75504 17.9512 19.6953 
125 1 8.75512 19.6961 17.9509 
143 1 9.41166 20.3489 20.3482 
8 1 12.544 1.60436 1.60453 
24 1 10.9645 0.0226828 0.0228862 
40 1 15.2543 1.26847 1.27095 
44 1 12.2183 4.31892 1.27665 
54 1 12.2183 1.27615 4.31862 
88 1 14.0531 1.36997 1.36916 
92 1 12.3158 3.11942 1.37531 
102 1 12.3158 1.37483 3.11914 
136 1 11.6612 0.721628 0.722296 
1 1 19.3943 1.70368 1.73001 
17 1 21.1399 -0.0267275 0.00726593 
33 1 16.7394 1.29141 1.30831 
41 1 19.7975 4.33915 1.28296 
49 1 19.807 1.26763 4.35394 
81 1 17.9308 1.43968 1.46688 
89 1 19.6668 3.14277 1.43343 
97 1 19.6778 1.40822 3.15411 
129 1 20.2904 0.671979 0.584174 
145 2 19.327 0.846906 0.0802843 
3 1 12.5447 8.52498 1.60566 
19 1 10.9643 10.1066 0.0237568 
35 1 15.2573 8.85109 1.27672 
45 1 12.2191 5.81139 1.27626 
55 1 12.2193 8.8508 4.31812 
83 1 14.0583 8.7528 1.37533 
93 1 12.317 7.0108 1.37482 
103 1 12.317 8.75276 3.11873 
131 1 11.6634 9.40629 0.7196 
6 1 19.4661 8.52914 1.6063 
22 1 21.0499 10.1065 0.023412 
38 1 16.7504 8.85232 1.27655 
48 1 19.8034 5.82127 1.26554 
52 1 19.7947 8.8531 4.3199 
86 1 17.9489 8.756 1.37524 
96 1 19.6982 7.02209 1.36995 
100 1 19.6957 8.75627 3.12069 
134 1 20.3455 9.41162 0.720208 
5 1 12.5442 1.60499 8.52514 
21 1 10.9647 0.022106 10.1064 
37 1 15.2555 1.27518 8.8522 
47 1 12.2193 4.31839 8.85184 
51 1 12.219 1.27644 5.81176 
85 1 14.0567 1.37454 8.75371 
95 1 12.3168 3.11896 8.75372 
99 1 12.3169 1.3752 7.01113 
133 1 11.6619 0.720351 9.40705 
4 1 19.4642 1.60807 8.53642 
20 1 21.0502 0.0221688 10.1093 
36 1 16.748 1.27469 8.85371 
46 1 19.7952 4.32214 8.85374 
56 1 19.8071 1.26131 5.83097 
84 1 17.9471 1.37429 8.75889 
94 1 19.6955 3.12247 8.75872 
104 1 19.6982 1.37016 7.03283 
132 1 20.3483 0.719116 9.41301 
2 1 12.5461 8.52394 8.52487 
18 1 10.9651 10.1053 10.1064 
34 1 15.259 8.85162 8.85165 
42 1 12.2195 5.81156 8.85159 
50 1 12.2194 8.85083 5.81142 
82 1 14.0594 8.75329 8.75329 
90 1 12.3177 7.01093 8.75328 
98 1 12.3177 8.75287 7.0107 
130 1 11.663 9.40843 9.4064 
7 1 19.4654 8.52666 8.52522 
23 1 21.0479 10.1068 10.1058 
39 1 16.7515 8.85186 8.85192 
43 1 19.7948 5.81503 8.8523 
53 1 19.7945 8.8521 5.81282 
87 1 17.951 8.75424 8.75389 
91 1 19.6955 7.01406 8.75388 
101 1 19.6954 8.75414 7.0119 
135 1 20.3497 9.40779 9.40821 
ITEM: TIMESTEP
50
ITEM: NUMBER OF ATOMS
145
ITEM: BOX BOUNDS pp pp pp
0.0000000000000000e+00 2.1884000000000000e+01
0.0000000000000000e+00 2.1885999999999999e+01
0.0000000000000000e+00 2.1885000000000002e+01
ITEM: ATOMS id type x y z 
16 1 1.60895 12.5457 12.5424 
32 1 0.0235822 10.966 10.9634 
64 1 4.31888 12.2198 12.2193 
68 1 1.2761 15.2544 12.2185 
78 1 1.27627 12.2192 15.2586 
112 1 3.11996 12.3167 12.318 
116 1 1.37536 14.0558 12.3177 
126 1 1.37506 12.316 14.0589 
144 1 0.722769 11.662 11.6632 
9 1 8.52561 12.5459 12.5473 
25 1 10.1064 10.9641 10.9662 
57 1 5.81263 12.2198 12.2199 
65 1 8.85114 15.2593 12.2199 
73 1 8.85106 12.2207 15.2587 
105 1 7.01157 12.3179 12.3176 
113 1 8.75315 14.0599 12.3175 
121 1 8.753 12.3184 14.0597 
137 1 9.40792 11.6634 11.6633 
11 1 1.60828 19.4633 12.5428 
27 1 0.02638 21.0485 10.9666 
59 1 4.32464 19.7952 12.2181 
69 1 1.27532 16.7488 12.2179 
79 1 1.27107 19.8002 15.2449 
107 1 3.12504 19.6941 12.3111 
117 1 1.37703 17.9478 12.3111 
127 1 1.37614 19.6953 14.047 
139 1 0.724228 20.3472 11.6628 
14 1 8.52278 19.4665 12.5441 
30 1 10.1057 21.049 10.9651 
62 1 5.8165 19.7949 12.2193 
72 1 8.85098 16.7511 12.2194 
76 1 8.8511 19.7956 15.2585 
110 1 7.01573 19.6945 12.3178 
120 1 8.75548 17.9506 12.3177 
124 1 8.75561 19.6954 14.0593 
142 1 9.40637 20.3505 11.6619 
13 1 1.61029 12.5338 19.4623 
29 1 0.0256649 10.9614 21.0485 
61 1 4.32197 12.2185 19.7944 
71 1 1.27139 15.246 19.8002 
75 1 1.27649 12.2179 16.7495 
109 1 3.12262 12.3132 19.6946 
119 1 1.37395 14.0476 19.6972 
123 1 1.37599 12.3129 17.9492 
141 1 0.724788 11.6585 20.3494 
12 1 8.52559 12.5432 19.4637 
28 1 10.1055 10.9643 21.0489 
60 1 5.81497 12.2196 19.7942 
70 1 8.85132 15.2594 19.7945 
80 1 8.85101 12.2203 16.7525 
108 1 7.0141 12.3182 19.6955 
118 1 8.75498 14.0597 19.696 
128 1 8.7546 12.3187 17.9517 
140 1 9.40768 11.6633 20.3507 
10 1 1.61533 19.4547 19.455 
26 1 0.119398 21.047 21.1078 
58 1 4.33095 19.7996 19.7986 
66 1 1.26965 16.7391 19.8005 
74 1 1.2686 19.8018 16.7391 
106 1 3.1325 19.6926 19.6919 
114 1 1.37392 17.9376 19.6951 
122 1 1.37173 19.6974 17.9376 
138 1 0.790597 20.3328 20.3664 
15 1 8.53624 19.4638 19.4625 
31 1 10.109 21.0489 21.0485 
63 1 5.8232 19.8 19.7991 
67 1 8.8524 16.7506 19.7942 
77 1 8.85255 19.795 16.7517 
111 1 7.02194 19.6978 19.6973 
115 1 8.75742 17.9503 19.6953 
125 1 8.75737 19.6955 17.951 
143 1 9.41285 20.3499 20.3483 
8 1 12.5428 1.60599 1.60328 
24 1 10.9607 0.0250884 0.0252038 
40 1 15.2565 1.27164 1.27931 
44 1 12.2185 4.3174 1.27697 
54 1 12.2187 1.27681 4.31867 
88 1 14.0537 1.36299 1.36273 
92 1 12.3169 3.11878 1.37555 
102 1 12.3169 1.37545 3.1192 
136 1 11.6631 0.720679 0.722692 
1 1 19.3963 1.70146 1.73232 
17 1 21.1317 -0.0290429 0.0116354 
33 1 16.7372 1.32102 1.35213 
41 1 19.7875 4.3429 1.3049 
49 1 19.8055 1.27811 4.36238 
81 1 17.9299 1.46872 1.50559 
89 1 19.6567 3.14768 1.45609 
97 1 19.6752 1.41979 3.16485 
129 1 20.2226 0.644771 0.518458 
145 2 19.2932 0.823926 -0.0609421 
3 1 12.5452 8.52217 1.60286 
19 1 10.9669 10.1067 0.0217943 
35 1 15.2558 8.85116 1.27645 
45 1 12.219 5.81361 1.27664 
55 1 12.2195 8.85036 4.31975 
83 1 14.0572 8.75319 1.37613 
93 1 12.3167 7.01209 1.37635 
103 1 12.3162 8.75335 3.12009 
131 1 11.6614 9.40636 0.721991 
6 1 19.4591 8.53283 1.6031 
22 1 21.0452 10.1098 0.0231196 
38 1 16.7506 8.85281 1.27673 
48 1 19.8067 5.82264 1.26343 
52 1 19.7948 8.85373 4.32133 
86 1 17.9495 8.75619 1.37699 
96 1 19.7051 7.02434 1.36272 
100 1 19.6958 8.75705 3.12165 
134 1 20.3444 9.41412 0.721852 
5 1 12.5417 1.60515 8.52353 
21 1 10.9659 0.0212229 10.1064 
37 1 15.2519 1.27446 8.85255 
47 1 12.2194 4.31947 8.85146 
51 1 12.2188 1.27665 5.81081 
85 1 14.0534 1.3745 8.75371 
95 1 12.3159 3.11999 8.75382 
99 1 12.3158 1.37558 7.01017 
133 1 11.6613 0.721775 9.40753 
4 1 19.4584 1.60497 8.54296 
20 1 21.0492 0.0178766 10.1083 
36 1 16.7469 1.27394 8.85528 
46 1 19.7959 4.32674 8.85541 
56 1 19.8149 1.25378 5.84076 
84 1 17.9459 1.37662 8.76368 
94 1 19.6952 3.12644 8.764 
104 1 19.7054 1.3629 7.04172 
132 1 20.3474 0.722955 9.41995 
2 1 12.546 8.5261 8.52314 
18 1 10.9651 10.1072 10.1049 
34 1 15.2568 8.85132 8.85126 
42 1 12.22 5.81143 8.85118 
50 1 12.2202 8.85041 5.81143 
82 1 14.0581 8.75291 8.75346 
90 1 12.3176 7.01085 8.75355 
98 1 12.3177 8.75231 7.01088 
130 1 11.6612 9.40648 9.40695 
7 1 19.464 8.52784 8.52607 
23 1 21.0474 10.1056 10.1078 
39 1 16.7521 8.85178 8.85181 
43 1 19.7954 5.81654 8.85275 
53 1 19.7947 8.85266 5.81319 
87 1 17.9509 8.75522 8.75399 
91 1 19.6956 7.01616 8.75407 
101 1 19.6953 8.75536 7.0125 
135 1 20.3486 9.40966 9.4077 
ITEM: TIMESTEP
60
ITEM: NUMBER OF ATOMS
145
ITEM: BOX BOUNDS pp pp pp
0.0000000000000000e+00 2.1884000000000000e+01
0.0000000000000000e+00 2.1885999999999999e+01
0.0000000000000000e+00 2.1885000000000002e+01
ITEM: ATOMS id type x y z 
16 1 1.60668 12.5443 12.5445 
32 1 0.0240072 10.9651 10.9642 
64 1 4.31958 12.2192 12.2193 
68 1 1.27558 15.2559 12.2184 
78 1 1.27594 12.2187 15.2586 
112 1 3.12031 12.3166 12.3171 
116 1 1.3755 14.0571 12.3168 
126 1 1.37555 12.3162 14.0591 
144 1 0.722782 11.6626 11.6633 
9 1 8.52547 12.5456 12.5473 
25 1 10.1067 10.9644 10.9661 
57 1 5.81329 12.2196 12.2194 
65 1 8.85128 15.2596 12.2196 
73 1 8.85122 12.2204 15.2587 
105 1 7.01243 12.3177 12.3176 
113 1 8.75348 14.06 12.3175 
121 1 8.75326 12.3182 14.0596 
137 1 9.40729 11.6637 11.6627 
11 1 1.61054 19.4622 12.5385 
27 1 0.0268401 21.0473 10.9666 
59 1 4.32263 19.7946 12.2166 
69 1 1.2761 16.7496 12.2164 
79 1 1.27125 19.7998 15.2484 
107 1 3.12354 19.6942 12.3131 
117 1 1.37692 17.9485 12.3129 
127 1 1.37494 19.6967 14.0508 
139 1 0.725375 20.3449 11.6609 
14 1 8.52722 19.4656 12.5455 
30 1 10.1049 21.0492 10.9643 
62 1 5.81498 19.7949 12.2188 
72 1 8.852 16.7513 12.2195 
76 1 8.85224 19.7952 15.2582 
110 1 7.01411 19.6957 12.3173 
120 1 8.7544 17.9509 12.3171 
124 1 8.75425 19.6961 14.059 
142 1 9.40869 20.3491 11.6633 
13 1 1.60865 12.5364 19.4637 
29 1 0.0252019 10.9623 21.0478 
61 1 4.32147 12.2178 19.7943 
71 1 1.27124 15.2477 19.7997 
75 1 1.27634 12.2174 16.7496 
109 1 3.12222 12.3126 19.6944 
119 1 1.37409 14.0492 19.6979 
123 1 1.37668 12.3121 17.9492 
141 1 0.725088 11.6587 20.3487 
12 1 8.52725 12.5452 19.465 
28 1 10.1066 10.9646 21.0482 
60 1 5.81503 12.2195 19.7946 
70 1 8.85188 15.259 19.7946 
80 1 8.85174 12.2204 16.7527 
108 1 7.01403 12.3176 19.6954 
118 1 8.75442 14.0595 19.6958 
128 1 8.75421 12.3178 17.9518 
140 1 9.40759 11.6629 20.3505 
10 1 1.61448 19.4568 19.4597 
26 1 0.122644 21.0466 21.1156 
58 1 4.33215 19.7973 19.7961 
66 1 1.27098 16.7399 19.7984 
74 1 1.26934 19.8004 16.7433 
106 1 3.13333 19.6909 19.6903 
114 1 1.37516 17.9385 19.6946 
122 1 1.37247 19.6974 17.9415 
138 1 0.795383 20.3369 20.3726 
15 1 8.53402 19.4644 19.465 
31 1 10.1087 21.0482 21.0486 
63 1 5.82319 19.7998 19.7991 
67 1 8.8529 16.7503 19.7943 
77 1 8.85315 19.7951 16.7511 
111 1 7.02216 19.6983 19.6975 
115 1 8.75809 17.95 19.6949 
125 1 8.75807 19.6957 17.9504 
143 1 9.41172 20.3503 20.3482 
8 1 12.5439 1.60443 1.60206 
24 1 10.9618 0.0239491 0.024237 
40 1 15.2571 1.27632 1.28679 
44 1 12.2188 4.3169 1.27709 
54 1 12.2191 1.277 4.31746 
88 1 14.0539 1.36471 1.36614 
92 1 12.3171 3.11831 1.37519 
102 1 12.3171 1.37537 3.11824 
136 1 11.6616 0.721624 0.722006 
1 1 19.4031 1.69574 1.72825 
17 1 21.1207 -0.0296832 0.0039497 
33 1 16.7387 1.32596 1.35833 
41 1 19.7866 4.34123 1.30866 
49 1 19.806 1.27964 4.36049 
81 1 17.9327 1.46864 1.50696 
89 1 19.6589 3.14479 1.45488 
97 1 19.6788 1.41626 3.16236 