ITEM: TIMESTEP
0
ITEM: NUMBER OF ATOMS
50
ITEM: BOX BOUNDS pp pp pp
0.0000000000000000e+00 1.1000000000000000e+01
0.0000000000000000e+00 1.1002000000000001e+01
0.0000000000000000e+00 1.1000000000000000e+01
ITEM: ATOMS id type x y z 
10 1 4.603 4.603 4.603 
11 1 3.085 3.085 3.085 
12 1 3.796 3.796 3.796 
46 1 0.726 0.725 0.725 
47 1 2.26 2.259 2.26 
48 1 1.551 1.55 1.55 
19 1 4.546 4.545 6.226 
20 1 3.013 3.013 7.764 
21 1 3.721 3.721 7.053 
31 1 0.668 0.667 10.103 
32 1 2.187 2.187 8.589 
33 1 1.476 1.475 9.298 
16 1 4.546 6.225 4.546 
17 1 3.013 7.765 3.013 
18 1 3.721 7.053 3.722 
25 1 0.668 10.103 0.668 
26 1 2.188 8.589 2.188 
27 1 1.476 9.298 1.476 
4 1 4.608 6.169 6.169 
5 1 3.086 7.684 7.684 
6 1 3.799 6.974 6.974 
37 1 0.729 10.046 10.046 
38 1 2.259 8.509 8.508 
39 1 1.552 9.219 9.219 
13 1 6.225 4.546 4.546 
14 1 7.764 3.013 3.013 
15 1 7.053 3.721 3.722 
28 1 10.102 0.667 0.668 
29 1 8.589 2.187 2.188 
30 1 9.298 1.475 1.476 
1 1 6.168 4.608 6.169 
2 1 7.684 3.086 7.684 
3 1 6.974 3.799 6.974 
40 1 10.045 0.728 10.046 
41 1 8.508 2.259 8.508 
42 1 9.218 1.551 9.218 
7 1 6.169 6.169 4.608 
8 1 7.684 7.684 3.086 
9 1 6.974 6.974 3.799 
43 1 10.046 10.047 0.729 
44 1 8.508 8.509 2.259 
45 1 9.219 9.219 1.552 
22 1 6.229 6.229 6.229 
23 1 7.764 7.765 7.765 
24 1 7.055 7.056 7.055 
34 1 10.108 10.108 10.107 
35 1 8.59 8.59 8.59 
36 1 9.301 9.301 9.3 
49 2 7.452 7.08 8.888 
50 3 7.452 7.08 9.864 
ITEM: TIMESTEP
10
ITEM: NUMBER OF ATOMS
50
ITEM: BOX BOUNDS pp pp pp
0.0000000000000000e+00 1.1000000000000000e+01
0.0000000000000000e+00 1.1002000000000001e+01
0.0000000000000000e+00 1.1000000000000000e+01
ITEM: ATOMS id type x y z 
10 1 4.59594 4.59599 4.59592 
11 1 3.08043 3.08101 3.08011 
12 1 3.7891 3.78789 3.78964 
46 1 0.733479 0.732203 0.732255 
47 1 2.27071 2.26985 2.27016 
48 1 1.56377 1.56265 1.56382 
19 1 4.5393 4.53869 6.23366 
20 1 3.00214 3.00208 7.77467 
21 1 3.7079 3.70791 7.06639 
31 1 0.675881 0.673859 10.0978 
32 1 2.19211 2.19214 8.58426 
33 1 1.48286 1.48191 9.29041 
16 1 4.53867 6.23336 4.53898 
17 1 3.00248 7.77518 3.00264 
18 1 3.70773 7.0667 3.70833 
25 1 0.675816 10.0976 0.674582 
26 1 2.19226 8.58376 2.19243 
27 1 1.4839 9.29209 1.4837 
4 1 4.57052 6.17159 6.17249 
5 1 3.08463 7.69195 7.69183 
6 1 3.78216 6.9774 6.97745 
37 1 0.742761 10.039 10.0388 
38 1 2.2697 8.49705 8.49638 
39 1 1.56683 9.20686 9.20648 
13 1 6.23326 4.53888 4.53924 
14 1 7.77463 3.00223 3.00267 
15 1 7.06617 3.70795 3.70829 
28 1 10.0966 0.67482 0.675569 
29 1 8.58354 2.19167 2.19257 
30 1 9.2917 1.48288 1.48387 
1 1 6.1708 4.5702 6.1723 
2 1 7.69141 3.08456 7.69204 
3 1 6.97824 3.78231 6.97716 
40 1 10.0376 0.741918 10.038 
41 1 8.49606 2.26963 8.49601 
42 1 9.20508 1.56688 9.20521 
7 1 6.17229 6.17168 4.57032 
8 1 7.69179 7.69185 3.08455 
9 1 6.97755 6.97762 3.78186 
43 1 10.0383 10.0389 0.74334 
44 1 8.4962 8.49682 2.26979 
45 1 9.20538 9.20594 1.56765 
22 1 6.25716 6.25811 6.25226 
23 1 7.77945 7.77871 7.74928 
24 1 7.0363 7.04264 7.01429 
34 1 10.1152 10.1129 10.1161 
35 1 8.60714 8.61279 8.58332 
36 1 9.3082 9.31078 9.30099 
49 2 7.45548 7.08838 8.9318 
50 3 7.43935 7.05124 9.89636 
ITEM: TIMESTEP
20
ITEM: NUMBER OF ATOMS
50
ITEM: BOX BOUNDS pp pp pp
0.0000000000000000e+00 1.1000000000000000e+01
0.0000000000000000e+00 1.1002000000000001e+01
0.0000000000000000e+00 1.1000000000000000e+01
ITEM: ATOMS id type x y z 
10 1 4.59717 4.59172 4.59946 
11 1 3.08284 3.0732 3.08594 
12 1 3.78327 3.80099 3.77734 
46 1 0.73633 0.734972 0.740874 
47 1 2.27512 2.27174 2.27784 
48 1 1.56849 1.57229 1.56266 
19 1 4.53309 4.53366 6.24233 
20 1 2.99395 2.99803 7.78045 
21 1 3.70715 3.69904 7.07199 
31 1 0.676841 0.684475 10.0981 
32 1 2.19257 2.18203 8.58486 
33 1 1.47445 1.49412 9.29619 
16 1 4.53085 6.23989 4.53428 
17 1 2.9953 7.78005 2.99985 
18 1 3.7076 7.07066 3.70009 
25 1 0.678258 10.1014 0.690012 
26 1 2.18992 8.58592 2.18816 
27 1 1.48211 9.29447 1.48582 
4 1 4.5727 6.16738 6.16463 
5 1 3.08145 7.69341 7.69392 
6 1 3.77741 6.97868 6.97777 
37 1 0.757106 10.0331 10.0335 
38 1 2.27617 8.48994 8.49097 
39 1 1.57446 9.20496 9.20164 
13 1 6.24265 4.53208 4.5367 
14 1 7.7815 2.99648 2.99889 
15 1 7.06821 3.70343 3.70064 
28 1 10.1036 0.677395 0.680715 
29 1 8.59247 2.18628 2.19525 
30 1 9.28302 1.48505 1.47027 
1 1 6.16746 4.56758 6.16206 
2 1 7.69266 3.07372 7.68737 
3 1 6.98108 3.79101 6.99189 
40 1 10.0391 0.74626 10.0423 
41 1 8.49402 2.26885 8.4957 
42 1 9.20909 1.5729 9.20621 
7 1 6.16489 6.16775 4.56856 
8 1 7.69337 7.69289 3.08145 
9 1 6.97842 6.97912 3.77565 
43 1 10.0423 10.0424 0.755113 
44 1 8.49723 8.49585 2.27576 
45 1 9.19964 9.20441 1.56452 
22 1 6.20332 6.22674 6.22393 
23 1 7.8333 7.87717 7.51369 
24 1 7.08273 7.05207 7.00885 
34 1 10.1104 10.1268 10.1271 
35 1 8.60722 8.61267 8.56491 
36 1 9.29861 9.31695 9.28874 
49 2 7.45017 7.0788 9.11546 
50 3 7.39492 6.96024 9.99754 
ITEM: TIMESTEP
30
ITEM: NUMBER OF ATOMS
50
ITEM: BOX BOUNDS pp pp pp
0.0000000000000000e+00 1.1000000000000000e+01
0.0000000000000000e+00 1.1002000000000001e+01
0.0000000000000000e+00 1.1000000000000000e+01
ITEM: ATOMS id type x y z 
10 1 4.59584 4.59949 4.59595 
11 1 3.08482 3.08713 3.08418 
12 1 3.79532 3.79199 3.79714 
46 1 0.741341 0.740982 0.738789 
47 1 2.27334 2.27224 2.27206 
48 1 1.56518 1.56237 1.56595 
19 1 4.53102 4.52326 6.23491 
20 1 3.00079 2.99685 7.77825 
21 1 3.70466 3.70862 7.06594 
31 1 0.675558 0.679062 10.1027 
32 1 2.1855 2.19129 8.58841 
33 1 1.48119 1.47258 9.29611 
16 1 4.53024 6.23313 4.52287 
17 1 3.00002 7.77935 2.99749 
18 1 3.70306 7.06656 3.70786 
25 1 0.679296 10.1023 0.679663 
26 1 2.18702 8.58889 2.18991 
27 1 1.48053 9.29687 1.47612 
4 1 4.59091 6.17086 6.17308 
5 1 3.07975 7.6884 7.68836 
6 1 3.79025 6.97624 6.9764 
37 1 0.737331 10.0425 10.0426 
38 1 2.27194 8.4978 8.49788 
39 1 1.56228 9.21225 9.21066 
13 1 6.23379 4.52916 4.5269 
14 1 7.77558 2.99949 2.99926 
15 1 7.07051 3.70539 3.71015 
28 1 10.0997 0.677622 0.674263 
29 1 8.58474 2.18877 2.18616 
30 1 9.30042 1.47876 1.48361 
1 1 6.17041 4.60073 6.17626 
2 1 7.68476 3.08707 7.68847 
3 1 6.97526 3.78347 6.972 
40 1 10.0398 0.740337 10.0391 
41 1 8.50249 2.2684 8.50048 
42 1 9.20667 1.56293 9.20829 
7 1 6.16854 6.16955 4.59253 
8 1 7.68478 7.68381 3.08373 
9 1 6.97505 6.97531 3.78966 
43 1 10.0382 10.0388 0.73865 
44 1 8.49771 8.49989 2.26851 
45 1 9.21017 9.21004 1.56697 
22 1 6.21967 6.2161 6.22424 
23 1 7.86204 7.89855 7.51873 
24 1 7.09677 7.1032 6.99412 
34 1 10.0966 10.1003 10.1048 
35 1 8.59893 8.61824 8.51827 
36 1 9.28732 9.2886 9.2657 
49 2 7.44439 7.06711 9.14685 
50 3 7.38453 6.93841 10.047 
ITEM: TIMESTEP
33
ITEM: NUMBER OF ATOMS
50
ITEM: BOX BOUNDS pp pp pp
0.0000000000000000e+00 1.1000000000000000e+01
0.0000000000000000e+00 1.1002000000000001e+01
0.0000000000000000e+00 1.1000000000000000e+01
ITEM: ATOMS id type x y z 
10 1 4.59584 4.59949 4.59595 
11 1 3.08482 3.08713 3.08418 
12 1 3.79532 3.79199 3.79714 
46 1 0.741342 0.740982 0.738789 
47 1 2.27334 2.27224 2.27206 
48 1 1.56518 1.56237 1.56595 
19 1 4.53102 4.52326 6.23491 
20 1 3.00079 2.99685 7.77825 
21 1 3.70466 3.70862 7.06594 
31 1 0.675558 0.679062 10.1027 
32 1 2.1855 2.19129 8.58841 
33 1 1.48119 1.47258 9.29611 
16 1 4.53024 6.23313 4.52287 
17 1 3.00002 7.77935 2.99749 
18 1 3.70306 7.06656 3.70786 
25 1 0.679296 10.1023 0.679663 
26 1 2.18702 8.58889 2.18991 
27 1 1.48053 9.29687 1.47612 
4 1 4.59091 6.17086 6.17308 
5 1 3.07975 7.6884 7.68836 
6 1 3.79025 6.97624 6.9764 
37 1 0.737331 10.0425 10.0426 
38 1 2.27194 8.4978 8.49788 
39 1 1.56228 9.21225 9.21066 
13 1 6.23379 4.52916 4.5269 
14 1 7.77558 2.99949 2.99926 
15 1 7.07051 3.70539 3.71015 
28 1 10.0997 0.677622 0.674262 
29 1 8.58474 2.18877 2.18616 
30 1 9.30042 1.47876 1.48361 
1 1 6.17041 4.60073 6.17626 
2 1 7.68476 3.08707 7.68847 
3 1 6.97526 3.78347 6.972 
40 1 10.0398 0.740337 10.0391 
41 1 8.50249 2.2684 8.50048 
42 1 9.20667 1.56293 9.20829 
7 1 6.16854 6.16955 4.59253 
8 1 7.68478 7.68381 3.08373 
9 1 6.97505 6.97531 3.78966 
43 1 10.0382 10.0388 0.738649 
44 1 8.49771 8.49989 2.26851 
45 1 9.21017 9.21004 1.56697 
22 1 6.21967 6.2161 6.22424 
23 1 7.86204 7.89855 7.51873 
24 1 7.09677 7.1032 6.99412 
34 1 10.0966 10.1003 10.1048 
35 1 8.59893 8.61824 8.51827 
36 1 9.28732 9.2886 9.2657 
49 2 7.44439 7.06711 9.14685 
50 3 7.38453 6.93841 10.047 
ITEM: TIMESTEP
34
ITEM: NUMBER OF ATOMS
50
ITEM: BOX BOUNDS pp pp pp
0.0000000000000000e+00 1.1000000000000000e+01
0.0000000000000000e+00 1.1002000000000001e+01
0.0000000000000000e+00 1.1000000000000000e+01
ITEM: ATOMS id type x y z 
10 1 4.59584 4.59949 4.59595 
11 1 3.08482 3.08713 3.08418 
12 1 3.79532 3.79199 3.79714 
46 1 0.741342 0.740982 0.738789 
47 1 2.27334 2.27224 2.27206 
48 1 1.56518 1.56237 1.56595 
19 1 4.53102 4.52326 6.23491 
20 1 3.00079 2.99685 7.77825 
21 1 3.70466 3.70862 7.06594 
31 1 0.675558 0.679062 10.1027 
32 1 2.1855 2.19129 8.58841 
33 1 1.48119 1.47258 9.29611 
16 1 4.53024 6.23313 4.52287 
17 1 3.00002 7.77935 2.99749 
18 1 3.70306 7.06656 3.70786 
25 1 0.679296 10.1023 0.679663 
26 1 2.18702 8.58889 2.18991 
27 1 1.48053 9.29687 1.47612 
4 1 4.59091 6.17086 6.17308 
5 1 3.07975 7.6884 7.68836 
6 1 3.79025 6.97624 6.9764 
37 1 0.737331 10.0425 10.0426 
38 1 2.27194 8.4978 8.49788 
39 1 1.56228 9.21225 9.21066 
13 1 6.23379 4.52916 4.5269 
14 1 7.77558 2.99949 2.99926 
15 1 7.07051 3.70539 3.71015 
28 1 10.0997 0.677622 0.674262 
29 1 8.58474 2.18877 2.18616 
30 1 9.30042 1.47876 1.48361 
1 1 6.17041 4.60073 6.17626 
2 1 7.68476 3.08707 7.68847 
3 1 6.97526 3.78347 6.972 
40 1 10.0398 0.740337 10.0391 
41 1 8.50249 2.2684 8.50048 
42 1 9.20667 1.56293 9.20829 
7 1 6.16854 6.16955 4.59253 
8 1 7.68478 7.68381 3.08373 
9 1 6.97505 6.97531 3.78966 
43 1 10.0382 10.0388 0.738649 
44 1 8.49771 8.49989 2.26851 
45 1 9.21017 9.21004 1.56697 
22 1 6.21967 6.2161 6.22424 
23 1 7.86204 7.89855 7.51873 
24 1 7.09677 7.1032 6.99412 
34 1 10.0966 10.1003 10.1048 
35 1 8.59893 8.61824 8.51827 
36 1 9.28732 9.2886 9.2657 
49 2 7.44439 7.06711 9.14685 
50 3 7.38453 6.93841 10.047 
ITEM: TIMESTEP
40
ITEM: NUMBER OF ATOMS
50
ITEM: BOX BOUNDS pp pp pp
-4.2522769341525591e-04 1.1000425227693416e+01
-8.1439250429619350e-04 1.1002814392504296e+01
-3.3000000000000000e-03 1.1003300000000003e+01
ITEM: ATOMS id type x y z 
10 1 4.59603 4.59944 4.59556 
11 1 3.08482 3.0869 3.08294 
12 1 3.7949 3.79157 3.79579 
46 1 0.740971 0.740259 0.735995 
47 1 2.27302 2.27168 2.27008 
48 1 1.56519 1.56213 1.56386 
19 1 4.53104 4.52328 6.23525 
20 1 3.00076 2.99671 7.77943 
21 1 3.70442 3.70817 7.067 
31 1 0.675111 0.678156 10.1053 
32 1 2.18504 2.19049 8.59049 
33 1 1.48116 1.47242 9.2981 
16 1 4.53027 6.23314 4.52244 
17 1 2.99996 7.77953 2.99617 
18 1 3.70289 7.06685 3.70667 
25 1 0.678762 10.1028 0.676566 
26 1 2.18664 8.58947 2.18772 
27 1 1.48039 9.29728 1.47402 
4 1 4.59099 6.17087 6.17334 
5 1 3.07992 7.68844 7.68934 
6 1 3.78967 6.97676 6.97769 
37 1 0.736814 10.0432 10.0453 
38 1 2.27117 8.49877 8.50017 
39 1 1.56241 9.21237 9.21251 
13 1 6.23372 4.52919 4.52649 
14 1 7.77577 2.99912 2.99779 
15 1 7.0704 3.70531 3.70922 
28 1 10.0999 0.676737 0.671309 
29 1 8.5852 2.18809 2.18404 
30 1 9.30043 1.47839 1.48132 
1 1 6.17032 4.60065 6.17637 
2 1 7.6849 3.08668 7.68972 
3 1 6.97547 3.78323 6.97304 
40 1 10.0402 0.739415 10.0419 
41 1 8.50261 2.268 8.5022 
42 1 9.20712 1.56227 9.21063 
7 1 6.16842 6.16941 4.59208 
8 1 7.68486 7.68411 3.0823 
9 1 6.97535 6.97558 3.78857 
43 1 10.0386 10.0395 0.735615 
44 1 8.49809 8.50047 2.26647 
45 1 9.21037 9.21052 1.56462 
22 1 6.21977 6.21627 6.2247 
23 1 7.86219 7.8989 7.51989 
24 1 7.09674 7.1033 6.9947 
34 1 10.097 10.101 10.1077 
35 1 8.59892 8.61842 8.5196 
36 1 9.28801 9.28965 9.2684 
49 2 7.44451 7.06731 9.14916 
50 3 7.38462 6.93853 10.0499 
ITEM: TIMESTEP
50
ITEM: NUMBER OF ATOMS
50
ITEM: BOX BOUNDS pp pp pp
1.5238041578510065e-03 1.0998476195842152e+01
-9.8610677086089459e-05 1.1002098610677084e+01
-8.8000000000000005e-03 1.1008800000000008e+01
ITEM: ATOMS id type x y z 
10 1 4.59704 4.59981 4.59519 
11 1 3.08608 3.08741 3.08099 
12 1 3.79486 3.79151 3.79331 
46 1 0.742495 0.740648 0.731221 
47 1 2.27405 2.27195 2.26683 
48 1 1.56707 1.56323 1.56027 
19 1 4.53167 4.52393 6.23563 
20 1 3.00206 2.99762 7.78122 
21 1 3.70493 3.70799 7.06876 
31 1 0.67661 0.678057 10.1097 
32 1 2.18584 2.19025 8.59401 
33 1 1.48311 1.47396 9.3013 
16 1 4.53092 6.23274 4.52198 
17 1 3.00119 7.77883 2.99416 
18 1 3.70352 7.06671 3.70461 
25 1 0.679987 10.102 0.670984 
26 1 2.18758 8.58929 2.18394 
27 1 1.48216 9.2965 1.47075 
4 1 4.59172 6.17045 6.17356 
5 1 3.08159 7.68758 7.6908 
6 1 3.78923 6.97718 6.98005 
37 1 0.738003 10.0426 10.0498 
38 1 2.2711 8.49963 8.50431 
39 1 1.56459 9.21105 9.21558 
13 1 6.23311 4.52978 4.52603 
14 1 7.77486 2.9996 2.99551 
15 1 7.06937 3.70588 3.70763 
28 1 10.0983 0.676841 0.66631 
29 1 8.58458 2.18816 2.18054 
30 1 9.29841 1.47941 1.47747 
1 1 6.16962 4.60088 6.17625 
2 1 7.68409 3.08686 7.69175 
3 1 6.97521 3.78352 6.97496 
40 1 10.0386 0.739398 10.0466 
41 1 8.50135 2.2685 8.5051 
42 1 9.20613 1.56268 9.21453 
7 1 6.16772 6.16869 4.59149 
8 1 7.68395 7.68379 3.07999 
9 1 6.97516 6.97556 3.78655 
43 1 10.0373 10.0391 0.730319 
44 1 8.49743 8.50045 2.26297 
45 1 9.20887 9.20991 1.56065 
22 1 6.21963 6.21641 6.22552 
23 1 7.8612 7.89852 7.52182 
24 1 7.09587 7.10284 6.99535 
34 1 10.0958 10.1005 10.1127 
35 1 8.5975 8.61754 8.52158 
36 1 9.28743 9.29022 9.27304 
49 2 7.44375 7.06701 9.15315 
50 3 7.3838 6.93805 10.0549 
ITEM: TIMESTEP
60
ITEM: NUMBER OF ATOMS
50
ITEM: BOX BOUNDS pp pp pp
3.1221938138194173e-03 1.0996877806186182e+01
3.4295073446392898e-05 1.1001965704926551e+01
-1.4139871699287123e-02 1.1014139871699298e+01
ITEM: ATOMS id type x y z 
10 1 4.59797 4.60014 4.59497 
11 1 3.08702 3.08747 3.07897 
12 1 3.79486 3.79148 3.79101 
46 1 0.743554 0.740351 0.726406 
47 1 2.27492 2.27191 2.26372 
48 1 1.56842 1.56366 1.55649 
19 1 4.53227 4.52463 6.2359 
20 1 3.00314 2.99824 7.783 
21 1 3.70547 3.70773 7.07034 
31 1 0.677755 0.677236 10.1143 
32 1 2.18668 2.18986 8.59721 
33 1 1.48454 1.4749 9.30465 
16 1 4.53155 6.23235 4.52169 
17 1 3.00224 7.77837 2.99224 
18 1 3.70415 7.06664 3.70266 
25 1 0.680851 10.102 0.665327 
26 1 2.18846 8.5893 2.18035 
27 1 1.48352 9.29626 1.46754 
4 1 4.59239 6.16997 6.17367 
5 1 3.08285 7.68716 7.69246 
6 1 3.78896 6.97752 6.98206 
37 1 0.738789 10.0427 10.0544 
38 1 2.27108 8.50057 8.50811 
39 1 1.5661 9.21052 9.21898 
13 1 6.23253 4.53029 4.52562 
14 1 7.77396 2.99995 2.99347 
15 1 7.06861 3.70607 3.70587 
28 1 10.0972 0.676363 0.661405 
29 1 8.58403 2.18803 2.17731 
30 1 9.29672 1.47987 1.47355 
1 1 6.16887 4.60095 6.17611 
2 1 7.68344 3.08673 7.6937 
3 1 6.97504 3.78368 6.97689 
40 1 10.0374 0.7388 10.0513 
41 1 8.50041 2.26851 8.50806 
42 1 9.20531 1.56279 9.21822 
7 1 6.167 6.16806 4.59093 
8 1 7.68325 7.68371 3.07773 
9 1 6.97498 6.97571 3.78459 
43 1 10.0363 10.0393 0.725088 
44 1 8.49696 8.50074 2.25959 
45 1 9.20763 9.20972 1.55673 
22 1 6.21954 6.2167 6.22638 
23 1 7.86024 7.89827 7.52372 
24 1 7.09524 7.10271 6.99592 
34 1 10.095 10.1004 10.1175 
35 1 8.59671 8.61742 8.52379 
36 1 9.28671 9.29085 9.27713 
49 2 7.44309 7.06686 9.1571 
50 3 7.38308 6.93767 10.0598 
ITEM: TIMESTEP
70
ITEM: NUMBER OF ATOMS
50
ITEM: BOX BOUNDS pp pp pp
4.5162503775460000e-03 1.0995483749622455e+01
-7.9745985530783870e-05 1.1002079745985531e+01
-1.8978112502839491e-02 1.1018978112502852e+01
ITEM: ATOMS id type x y z 
10 1 4.59881 4.60044 4.59489 
11 1 3.08778 3.0873 3.07708 
12 1 3.7949 3.79152 3.78894 
46 1 0.744334 0.73974 0.721917 
47 1 2.27563 2.27167 2.26088 
48 1 1.56951 1.56381 1.55293 
19 1 4.53286 4.52537 6.23607 
20 1 3.00409 2.99872 7.7846 
21 1 3.70603 3.70743 7.07169 
31 1 0.678649 0.676143 10.1186 
32 1 2.18755 2.18944 8.59997 
33 1 1.48564 1.47556 9.30781 
16 1 4.53216 6.23198 4.52159 
17 1 3.00317 7.77803 2.99055 
18 1 3.70477 7.06659 3.7009 
25 1 0.68152 10.1024 0.660048 
26 1 2.1893 8.58937 2.17711 
27 1 1.48462 9.29629 1.46465 
4 1 4.59303 6.1694 6.17368 
5 1 3.08379 7.68696 7.69412 
6 1 3.78893 6.97786 6.98368 
37 1 0.739366 10.0431 10.0587 
38 1 2.27117 8.50145 8.51142 
39 1 1.56719 9.21037 9.22228 
13 1 6.23198 4.53076 4.52535 
14 1 7.7731 3.00024 2.99172 
15 1 7.06797 3.70607 3.70417 
28 1 10.0965 0.675641 0.656866 
29 1 8.58354 2.18782 2.17447 
30 1 9.29521 1.48007 1.46987 
1 1 6.16812 4.60098 6.17594 
2 1 7.68287 3.08646 7.69545 
3 1 6.97495 3.7838 6.97873 
40 1 10.0364 0.737934 10.0557 
41 1 8.49969 2.26825 8.51086 
42 1 9.20461 1.56279 9.22153 
7 1 6.1663 6.16746 4.59049 
8 1 7.68267 7.68372 3.07565 
9 1 6.97482 6.97598 3.78282 
43 1 10.0355 10.0397 0.72025 
44 1 8.49661 8.50116 2.25652 
45 1 9.20654 9.20971 1.55311 
22 1 6.21946 6.21706 6.22717 
23 1 7.85927 7.89802 7.52549 
24 1 7.09476 7.10276 6.9963 
34 1 10.0944 10.1005 10.1219 
35 1 8.59635 8.61774 8.52593 
36 1 9.28585 9.2914 9.28055 
49 2 7.44249 7.06677 9.16076 
50 3 7.3824 6.93731 10.0644 
ITEM: TIMESTEP
80
ITEM: NUMBER OF ATOMS
50
ITEM: BOX BOUNDS pp pp pp
5.4914877444617698e-03 1.0994508512255537e+01
-5.6107042043836933e-04 1.1002561070420439e+01
-2.3475537309888741e-02 1.1023475537309904e+01
ITEM: ATOMS id type x y z 
10 1 4.59956 4.60067 4.59488 
11 1 3.08832 3.08691 3.07532 
12 1 3.79483 3.79153 3.78699 
46 1 0.744681 0.738751 0.717657 
47 1 2.27603 2.27115 2.25819 
48 1 1.57026 1.56368 1.54955 
19 1 4.53338 4.52612 6.23616 
20 1 3.00481 2.99903 7.78608 
21 1 3.7065 3.70701 7.0729 
31 1 0.679104 0.674752 10.1227 
32 1 2.18825 2.18883 8.60248 
33 1 1.48635 1.47593 9.31082 
16 1 4.53273 6.23164 4.52165 
17 1 3.00391 7.77783 2.98903 
18 1 3.7053 7.06661 3.69926 
25 1 0.681818 10.1031 0.65508 
26 1 2.18994 8.58961 2.17408 
27 1 1.48536 9.29663 1.46203 
4 1 4.59361 6.16883 6.1736 
5 1 3.08439 7.68695 7.69573 
6 1 3.789 6.97827 6.98514 
37 1 0.739586 10.0437 10.0626 
38 1 2.27116 8.50243 8.51444 
39 1 1.56784 9.21051 9.22542 
13 1 6.2315 4.53121 4.52518 
14 1 7.77241 3.00039 2.99016 
15 1 7.06747 3.70593 3.70252 
28 1 10.0963 0.674579 0.652551 
29 1 8.58329 2.18742 2.17189 
30 1 9.29397 1.47998 1.46638 
1 1 6.16744 4.60098 6.17572 
2 1 7.68247 3.08601 7.69704 
3 1 6.97499 3.78384 6.98052 
40 1 10.0358 0.73669 10.0598 
41 1 8.49927 2.26768 8.51358 
42 1 9.2042 1.56254 9.2246 
7 1 6.16562 6.16696 4.59017 
8 1 7.68224 7.6839 3.07372 
9 1 6.97478 6.97631 3.78114 
43 1 10.0351 10.0405 0.715668 
44 1 8.49649 8.50178 2.25366 
45 1 9.20574 9.20996 1.5497 
22 1 6.21943 6.21749 6.2279 
23 1 7.85839 7.89782 7.52719 
24 1 7.09446 7.103 6.9965 
34 1 10.094 10.1009 10.126 
35 1 8.59643 8.61847 8.52795 
36 1 9.28513 9.29208 9.28356 
49 2 7.44203 7.06678 9.16424 
50 3 7.38183 6.93699 10.0687 
ITEM: TIMESTEP
90
ITEM: NUMBER OF ATOMS
50
ITEM: BOX BOUNDS pp pp pp
5.6775845424834812e-03 1.0994322415457514e+01
-1.4648982173285315e-03 1.1003464898217329e+01
-2.7052726805795253e-02 1.1027052726805815e+01
ITEM: ATOMS id type x y z 
10 1 4.60004 4.60075 4.59488 
11 1 3.08848 3.08633 3.07392 
12 1 3.7946 3.79143 3.78541 
46 1 0.744402 0.737475 0.714228 
47 1 2.27596 2.27036 2.25601 
48 1 1.57043 1.56322 1.54684 
19 1 4.5337 4.52669 6.23622 
20 1 3.0051 2.99905 7.78726 
21 1 3.7067 3.70649 7.07386 
31 1 0.678899 0.67322 10.126 
32 1 2.18849 2.18803 8.60445 
33 1 1.48643 1.47588 9.31325 
16 1 4.5331 6.23144 4.52177 
17 1 3.00424 7.77788 2.98785 
18 1 3.70556 7.06676 3.69793 
25 1 0.681536 10.1042 0.651148 
26 1 2.19011 8.59008 2.17165 
27 1 1.48549 9.29727 1.45999 
4 1 4.59406 6.16847 6.17351 
5 1 3.08461 7.68721 7.69704 
6 1 3.78884 6.97866 6.98626 
37 1 0.739265 10.0447 10.0658 
38 1 2.27091 8.50343 8.51681 
39 1 1.56785 9.21099 9.22788 
13 1 6.23121 4.5315 4.52511 
14 1 7.77211 3.00027 2.98894 
15 1 7.06722 3.70564 3.70118 
28 1 10.0967 0.673266 0.649069 
29 1 8.58344 2.18678 2.16986 
30 1 9.29335 1.47954 1.46355 
1 1 6.16698 4.60091 6.17553 
2 1 7.68238 3.0854 7.69828 
3 1 6.97519 3.78374 6.98199 
40 1 10.0358 0.735192 10.0632 
41 1 8.49931 2.26685 8.5158 
42 1 9.20429 1.56198 9.22704 
7 1 6.16514 6.16663 4.58999 
8 1 7.68215 7.68426 3.07219 
9 1 6.97491 6.97671 3.77979 
43 1 10.0353 10.0416 0.711985 
44 1 8.49674 8.50257 2.25139 
45 1 9.20548 9.21051 1.54696 
22 1 6.21949 6.21792 6.22846 
23 1 7.85786 7.8978 7.52859 
24 1 7.09442 7.1034 6.99656 
34 1 10.0941 10.1018 10.1293 
35 1 8.59693 8.61944 8.52952 
36 1 9.28491 9.29295 9.28587 
49 2 7.44185 7.06692 9.16706 
50 3 7.38156 6.93682 10.0722 
ITEM: TIMESTEP
100
ITEM: NUMBER OF ATOMS
50
ITEM: BOX BOUNDS pp pp pp
6.3895461201458189e-03 1.0993610453879851e+01
-1.7961461388400679e-03 1.1003796146138839e+01
-2.9787925344938383e-02 1.1029787925344962e+01
ITEM: ATOMS id type x y z 
10 1 4.60062 4.60091 4.59506 
11 1 3.08889 3.08597 3.07293 
12 1 3.79449 3.79156 3.78403 
46 1 0.744515 0.73663 0.711473 
47 1 2.27615 2.26985 2.25429 
48 1 1.57097 1.5632 1.54469 
19 1 4.53414 4.52746 6.23611 
20 1 3.00564 2.99937 7.78808 
21 1 3.7071 3.70613 7.07455 
31 1 0.679095 0.672178 10.1287 
32 1 2.18906 2.18752 8.60594 
33 1 1.48687 1.47633 9.31511 
16 1 4.5336 6.23113 4.52217 
17 1 3.00482 7.77765 2.9871 
18 1 3.70603 7.06672 3.69687 
25 1 0.681693 10.1048 0.647924 
26 1 2.19061 8.59022 2.16969 
27 1 1.48597 9.29753 1.45864 
4 1 4.59467 6.16801 6.17328 
5 1 3.08505 7.68723 7.69802 
6 1 3.78885 6.97892 6.98714 
37 1 0.739335 10.0452 10.0683 
38 1 2.27096 8.50406 8.51874 
39 1 1.56827 9.21117 9.22973 
13 1 6.23083 4.53196 4.52527 
14 1 7.77159 3.00044 2.98814 
15 1 7.06678 3.70554 3.70008 
28 1 10.0967 0.672414 0.646266 
29 1 8.58334 2.18647 2.16836 
30 1 9.29231 1.47953 1.46128 
1 1 6.16646 4.60096 6.17518 
2 1 7.68207 3.085 7.69914 
3 1 6.97529 3.78387 6.98332 
40 1 10.0354 0.734088 10.0659 
41 1 8.49911 2.26629 8.51764 
42 1 9.20408 1.56184 9.22893 
7 1 6.16458 6.16619 4.59001 
8 1 7.68184 7.68436 3.07102 
9 1 6.97491 6.97701 3.77871 
43 1 10.035 10.0423 0.708954 
44 1 8.49674 8.50308 2.24961 
45 1 9.20485 9.21066 1.54478 
22 1 6.21947 6.21831 6.2289 
23 1 7.85702 7.89744 7.52975 
24 1 7.09426 7.10369 6.99622 
34 1 10.0937 10.1021 10.1318 
35 1 8.59725 8.6202 8.53053 
36 1 9.28431 9.29344 9.28754 
49 2 7.44147 7.06688 9.16941 
50 3 7.38106 6.93641 10.0751 
ITEM: TIMESTEP
110
ITEM: NUMBER OF ATOMS
50
ITEM: BOX BOUNDS pp pp pp
6.3700384766417466e-03 1.0993629961523355e+01
-2.9281928610681860e-03 1.1004928192861067e+01
-3.3202732934109198e-02 1.1033202732934136e+01
ITEM: ATOMS id type x y z 
10 1 4.60116 4.60094 4.59529 
11 1 3.089 3.08517 3.07172 
12 1 3.79405 3.79157 3.78225 
46 1 0.743839 0.734911 0.707988 
47 1 2.27581 2.26872 2.25212 
48 1 1.57099 1.56269 1.54198 
19 1 4.53453 4.52837 6.23595 
20 1 3.00587 2.99946 7.78911 
21 1 3.70734 3.7054 7.07539 
31 1 0.678516 0.670269 10.132 
32 1 2.18926 2.18641 8.6078 
33 1 1.48669 1.47644 9.31747 
16 1 4.53408 6.23083 4.52278 
17 1 3.00514 7.77764 2.98621 
18 1 3.70638 7.06686 3.69551 
25 1 0.681017 10.1064 0.644106 
26 1 2.1906 8.59091 2.16743 
27 1 1.48608 9.29816 1.4566 
4 1 4.59531 6.16754 6.17296 
5 1 3.08517 7.68752 7.69923 
6 1 3.78865 6.97947 6.98826 
37 1 0.738599 10.0463 10.0715 
38 1 2.27054 8.5052 8.5211 
39 1 1.56813 9.2119 9.23205 
13 1 6.2305 4.53244 4.52556 
14 1 7.77133 3.00033 2.98717 
15 1 7.06645 3.70518 3.69868 
28 1 10.0975 0.67073 0.642737 
29 1 8.58376 2.18564 2.16652 
30 1 9.29156 1.479 1.45836 
1 1 6.16598 4.60091 6.17474 
2 1 7.68203 3.08415 7.70019 
3 1 6.97569 3.78388 6.98506 
40 1 10.0357 0.732001 10.0694 
41 1 8.49939 2.2651 8.51999 
42 1 9.20447 1.56117 9.23128 
7 1 6.16398 6.16574 4.59006 
8 1 7.68179 7.68476 3.06953 
9 1 6.9752 6.97761 3.77743 
43 1 10.0354 10.0437 0.705112 
44 1 8.49725 8.50413 2.2474 
45 1 9.20465 9.21132 1.54202 
22 1 6.2196 6.21892 6.22943 
23 1 7.85627 7.89719 7.53132 
24 1 7.09438 7.10435 6.99561 
34 1 10.0938 10.1032 10.135 
35 1 8.59826 8.62166 8.53164 
36 1 9.28417 9.29458 9.28957 
49 2 7.44128 7.06702 9.17246 
50 3 7.38069 6.93598 10.0789 
ITEM: TIMESTEP
120
ITEM: NUMBER OF ATOMS
50
ITEM: BOX BOUNDS pp pp pp
5.1618409387040425e-03 1.0994838159061294e+01
-5.0402073643891808e-03 1.1007040207364390e+01
-3.6776490897461205e-02 1.1036776490897491e+01
ITEM: ATOMS id type x y z 
10 1 4.60143 4.60092 4.59537 
11 1 3.08856 3.08412 3.07032 
12 1 3.79332 3.79093 3.78065 
46 1 0.742104 0.732321 0.704246 
47 1 2.27475 2.26699 2.24976 
48 1 1.57012 1.56146 1.53922 
19 1 4.53474 4.52925 6.23576 
20 1 3.00556 2.99916 7.79018 
21 1 3.70726 3.70429 7.07623 
31 1 0.676878 0.667465 10.1355 
32 1 2.18878 2.18463 8.60974 
33 1 1.48554 1.47598 9.31998 
16 1 4.53438 6.23066 4.52355 
17 1 3.00492 7.77799 2.98533 
18 1 3.70639 7.06727 3.69403 
25 1 0.679209 10.1088 0.640295 
26 1 2.18978 8.59225 2.16526 
27 1 1.48553 9.29927 1.45408 
4 1 4.59589 6.16723 6.17272 
5 1 3.08485 7.68822 7.70055 
6 1 3.78792 6.98024 6.98932 
37 1 0.736792 10.0482 10.0748 
38 1 2.26946 8.50689 8.52356 
39 1 1.56704 9.21326 9.23446 
13 1 6.23034 4.53283 4.52598 
14 1 7.77157 2.99979 2.9862 
15 1 7.06638 3.70451 3.69716 
28 1 10.0993 0.668194 0.639048 
29 1 8.58493 2.18419 2.16463 
30 1 9.29151 1.47779 1.45519 
1 1 6.16568 4.60067 6.17427 
2 1 7.68246 3.08279 7.70124 
3 1 6.97645 3.7837 6.98696 
40 1 10.037 0.729055 10.073 
41 1 8.50053 2.2634 8.5225 
42 1 9.20541 1.55952 9.23377 
7 1 6.1636 6.16548 4.59025 
8 1 7.68224 7.68559 3.06805 
9 1 6.97575 6.97841 3.77593 
43 1 10.0368 10.0459 0.701029 
44 1 8.49847 8.50574 2.24511 
45 1 9.20519 9.21261 1.53908 
22 1 6.21992 6.21971 6.22995 
23 1 7.85591 7.89723 7.53316 
24 1 7.09489 7.10544 6.99469 
34 1 10.0948 10.1051 10.1383 
35 1 8.60009 8.62385 8.53256 
36 1 9.28487 9.29646 9.29163 
49 2 7.44148 7.0674 9.17582 
50 3 7.38064 6.93563 10.083 
ITEM: TIMESTEP
130
ITEM: NUMBER OF ATOMS
50
ITEM: BOX BOUNDS pp pp pp
3.5302537786060322e-03 1.0996469746221392e+01
-7.6931837443912606e-03 1.1009693183744394e+01
-4.0239462415665408e-02 1.1040239462415698e+01
ITEM: ATOMS id type x y z 
10 1 4.60161 4.60115 4.59569 
11 1 3.08777 3.08312 3.06889 
12 1 3.79259 3.78945 3.77913 
46 1 0.739568 0.728944 0.699966 
47 1 2.27318 2.26482 2.24713 
48 1 1.56897 1.5596 1.53669 
19 1 4.53514 4.53096 6.23512 
20 1 3.00519 2.99913 7.79095 
21 1 3.70738 3.70269 7.0768 
31 1 0.674675 0.66371 10.1392 
32 1 2.18832 2.18215 8.61172 
33 1 1.48364 1.47581 9.32227 
16 1 4.53486 6.23033 4.5254 
17 1 3.00463 7.77822 2.985 
18 1 3.70668 7.06773 3.69232 
25 1 0.676696 10.112 0.636091 
26 1 2.18871 8.59394 2.16307 
27 1 1.48477 9.30064 1.45185 
4 1 4.59655 6.16666 6.172 
5 1 3.08412 7.68893 7.70156 
6 1 3.78749 6.98151 6.99079 
37 1 0.734011 10.0506 10.0782 
38 1 2.26789 8.50914 8.52625 
39 1 1.56559 9.21504 9.23686 
13 1 6.23015 4.53367 4.52731 
14 1 7.77189 2.99928 2.98576 
15 1 7.06602 3.70371 3.69539 
28 1 10.1017 0.664914 0.634969 
29 1 8.58652 2.18231 2.16281 
30 1 9.29148 1.47632 1.45199 
1 1 6.16532 4.60024 6.17327 
2 1 7.68301 3.08079 7.70191 
3 1 6.97764 3.78391 6.98961 
40 1 10.0389 0.724888 10.077 
41 1 8.5024 2.26118 8.5253 
42 1 9.20647 1.55714 9.23636 
7 1 6.16316 6.16489 4.59078 
8 1 7.68284 7.68642 3.06648 
9 1 6.97654 6.97986 3.77462 
43 1 10.0386 10.0488 0.696323 
44 1 8.50028 8.50793 2.24286 
45 1 9.20579 9.21416 1.53581 
22 1 6.22054 6.22098 6.23044 
23 1 7.85509 7.89681 7.53579 
24 1 7.0958 7.10729 6.99195 
34 1 10.096 10.1074 10.1416 
35 1 8.60313 8.62726 8.53218 
36 1 9.28584 9.29909 9.29318 
49 2 7.4416 7.06774 9.18018 
50 3 7.38024 6.93446 10.0881 
ITEM: TIMESTEP
140
ITEM: NUMBER OF ATOMS
50
ITEM: BOX BOUNDS pp pp pp
1.6121532122097509e-03 1.0998387846787788e+01
-1.0492882089566929e-02 1.1012492882089569e+01
-4.3703356014084441e-02 1.1043703356014120e+01
ITEM: ATOMS id type x y z 
10 1 4.60164 4.60092 4.59619 
11 1 3.08703 3.08183 3.06729 
12 1 3.79111 3.78794 3.7777 
46 1 0.736316 0.724875 0.69485 
47 1 2.27104 2.26232 2.24411 
48 1 1.56748 1.55725 1.53389 
19 1 4.5363 4.5331 6.23357 
20 1 3.00528 2.99862 7.79105 
21 1 3.70717 3.70262 7.07746 
31 1 0.671769 0.660317 10.1432 
32 1 2.18693 2.18033 8.61394 
33 1 1.48297 1.47415 9.32429 
16 1 4.53619 6.22987 4.52815 
17 1 3.00505 7.77796 2.98438 
18 1 3.70616 7.06819 3.69204 
25 1 0.673773 10.1154 0.631162 
26 1 2.18748 8.5957 2.16075 
27 1 1.4839 9.30213 1.4499 
4 1 4.59768 6.16636 6.17156 
5 1 3.08358 7.68983 7.70279 
6 1 3.7862 6.98276 6.99197 
37 1 0.730349 10.0531 10.0817 
38 1 2.26606 8.51214 8.52931 
39 1 1.56326 9.21655 9.23949 
13 1 6.23027 4.5351 4.53014 
14 1 7.77235 2.99898 2.98602 
15 1 7.06489 3.70302 3.69298 
28 1 10.1038 0.661487 0.630405 
29 1 8.58803 2.18033 2.16053 
30 1 9.29219 1.47471 1.44954 
1 1 6.16529 4.59953 6.17259 
2 1 7.68352 3.07849 7.70264 
3 1 6.97958 3.78436 6.99238 
40 1 10.0407 0.719506 10.0813 
41 1 8.50452 2.25866 8.52839 
42 1 9.20782 1.55468 9.23885 
7 1 6.16291 6.16479 4.59169 
8 1 7.68323 7.68753 3.06486 
9 1 6.97811 6.98108 3.77333 
43 1 10.0405 10.0517 0.690645 
44 1 8.50275 8.51055 2.24083 
45 1 9.2062 9.21563 1.53153 
22 1 6.22194 6.22308 6.23083 
23 1 7.85336 7.89519 7.5406 
24 1 7.09774 7.11107 6.98543 
34 1 10.0968 10.1089 10.1448 
35 1 8.60803 8.63267 8.52848 
36 1 9.28725 9.3026 9.29355 
49 2 7.44132 7.06772 9.18731 
50 3 7.37869 6.93092 10.096 
ITEM: TIMESTEP
150
ITEM: NUMBER OF ATOMS
50
ITEM: BOX BOUNDS pp pp pp
1.2696992102607966e-03 1.0998730300789736e+01
-1.1257919233504532e-02 1.1013257919233508e+01
-4.5908767195529589e-02 1.1045908767195565e+01
ITEM: ATOMS id type x y z 
10 1 4.60151 4.6005 4.59596 
11 1 3.08666 3.08133 3.06636 
12 1 3.7909 3.78747 3.77658 
46 1 0.735508 0.723676 0.692013 
47 1 2.27026 2.26146 2.24227 
48 1 1.56733 1.55654 1.53223 
19 1 4.53666 4.53404 6.23339 
20 1 3.00585 2.99908 7.79113 
21 1 3.70664 3.70191 7.0783 
31 1 0.671308 0.659382 10.1453 
32 1 2.18695 2.17999 8.61528 
33 1 1.48269 1.47361 9.3255 
16 1 4.53659 6.22981 4.52932 
17 1 3.00525 7.77758 2.98372 
18 1 3.70637 7.06843 3.69179 
25 1 0.673352 10.116 0.628396 
26 1 2.18733 8.59609 2.15927 
27 1 1.48382 9.30267 1.4486 
4 1 4.59813 6.16698 6.17189 
5 1 3.08356 7.6902 7.70376 
6 1 3.7856 6.98313 6.99258 
37 1 0.729115 10.0534 10.0838 
38 1 2.26564 8.51284 8.53082 
39 1 1.56265 9.21732 9.24128 
13 1 6.23001 4.53581 4.5309 