ITEM: TIMESTEP
0
ITEM: NUMBER OF ATOMS
96
ITEM: BOX BOUNDS pp pp pp
0.0000000000000000e+00 1.5897210747100001e+01
0.0000000000000000e+00 1.5897210747100001e+01
0.0000000000000000e+00 1.5897210747100001e+01
ITEM: ATOMS id type x y z 
1 1 2.04511 2.04511 2.04511 
10 1 5.9035 5.9035 5.9035 
17 1 3.58597 3.58597 3.58597 
26 1 4.36263 4.36263 4.36263 
33 1 0.603682 2.27803 2.27803 
41 1 2.27803 0.603682 2.27803 
49 1 2.27803 2.27803 0.603682 
58 1 7.34492 5.67058 5.67058 
66 1 5.67058 7.34492 5.67058 
74 1 5.67058 5.67058 7.34492 
81 1 2.88581 2.88581 2.88581 
90 1 5.06279 5.06279 5.06279 
4 1 2.04511 2.04511 13.8521 
11 1 5.9035 5.9035 9.99372 
20 1 3.58597 3.58597 12.3112 
27 1 4.36263 4.36263 11.5346 
36 1 0.603682 2.27803 13.6192 
46 1 2.27803 0.603682 13.6192 
56 1 2.27803 2.27803 15.2935 
59 1 7.34492 5.67058 10.2266 
69 1 5.67058 7.34492 10.2266 
79 1 5.67058 5.67058 8.55229 
84 1 2.88581 2.88581 13.0114 
91 1 5.06279 5.06279 10.8344 
6 1 2.04511 13.8521 2.04511 
13 1 5.9035 9.99372 5.9035 
22 1 3.58597 12.3112 3.58597 
29 1 4.36263 11.5346 4.36263 
38 1 0.603682 13.6192 2.27803 
48 1 2.27803 15.2935 2.27803 
52 1 2.27803 13.6192 0.603682 
61 1 7.34492 10.2266 5.67058 
71 1 5.67058 8.55229 5.67058 
75 1 5.67058 10.2266 7.34492 
86 1 2.88581 13.0114 2.88581 
93 1 5.06279 10.8344 5.06279 
7 1 2.04511 13.8521 13.8521 
16 1 5.9035 9.99372 9.99372 
23 1 3.58597 12.3112 12.3112 
32 1 4.36263 11.5346 11.5346 
39 1 0.603682 13.6192 13.6192 
43 1 2.27803 15.2935 13.6192 
53 1 2.27803 13.6192 15.2935 
64 1 7.34492 10.2266 10.2266 
68 1 5.67058 8.55229 10.2266 
78 1 5.67058 10.2266 8.55229 
87 1 2.88581 13.0114 13.0114 
96 1 5.06279 10.8344 10.8344 
8 1 13.8521 2.04511 2.04511 
15 1 9.99372 5.9035 5.9035 
24 1 12.3112 3.58597 3.58597 
31 1 11.5346 4.36263 4.36263 
40 1 15.2935 2.27803 2.27803 
44 1 13.6192 0.603682 2.27803 
54 1 13.6192 2.27803 0.603682 
63 1 8.55229 5.67058 5.67058 
67 1 10.2266 7.34492 5.67058 
77 1 10.2266 5.67058 7.34492 
88 1 13.0114 2.88581 2.88581 
95 1 10.8344 5.06279 5.06279 
5 1 13.8521 2.04511 13.8521 
14 1 9.99372 5.9035 9.99372 
21 1 12.3112 3.58597 12.3112 
30 1 11.5346 4.36263 11.5346 
37 1 15.2935 2.27803 13.6192 
47 1 13.6192 0.603682 13.6192 
51 1 13.6192 2.27803 15.2935 
62 1 8.55229 5.67058 10.2266 
72 1 10.2266 7.34492 10.2266 
76 1 10.2266 5.67058 8.55229 
85 1 13.0114 2.88581 13.0114 
94 1 10.8344 5.06279 10.8344 
3 1 13.8521 13.8521 2.04511 
12 1 9.99372 9.99372 5.9035 
19 1 12.3112 12.3112 3.58597 
28 1 11.5346 11.5346 4.36263 
35 1 15.2935 13.6192 2.27803 
45 1 13.6192 15.2935 2.27803 
55 1 13.6192 13.6192 0.603682 
60 1 8.55229 10.2266 5.67058 
70 1 10.2266 8.55229 5.67058 
80 1 10.2266 10.2266 7.34492 
83 1 13.0114 13.0114 2.88581 
92 1 10.8344 10.8344 5.06279 
2 1 13.8521 13.8521 13.8521 
9 1 9.99372 9.99372 9.99372 
18 1 12.3112 12.3112 12.3112 
25 1 11.5346 11.5346 11.5346 
34 1 15.2935 13.6192 13.6192 
42 1 13.6192 15.2935 13.6192 
50 1 13.6192 13.6192 15.2935 
57 1 8.55229 10.2266 10.2266 
65 1 10.2266 8.55229 10.2266 
73 1 10.2266 10.2266 8.55229 
82 1 13.0114 13.0114 13.0114 
89 1 10.8344 10.8344 10.8344 
ITEM: TIMESTEP
10
ITEM: NUMBER OF ATOMS
96
ITEM: BOX BOUNDS pp pp pp
0.0000000000000000e+00 1.5897210747100001e+01
0.0000000000000000e+00 1.5897210747100001e+01
0.0000000000000000e+00 1.5897210747100001e+01
ITEM: ATOMS id type x y z 
1 1 2.0869 2.0869 2.08689 
10 1 5.86174 5.86174 5.86156 
17 1 3.59084 3.59084 3.59086 
26 1 4.35794 4.35794 4.35774 
33 1 0.602676 2.32125 2.32125 
41 1 2.32125 0.602676 2.32125 
49 1 2.32124 2.32124 0.602426 
58 1 7.34614 5.62736 5.62735 
66 1 5.62736 7.34614 5.62735 
74 1 5.62737 5.62737 7.34584 
81 1 2.88982 2.88982 2.88973 
90 1 5.05862 5.05862 5.05901 
4 1 2.08692 2.08692 13.8103 
11 1 5.86176 5.86176 10.0355 
20 1 3.59075 3.59075 12.3064 
27 1 4.35759 4.35759 11.5397 
36 1 0.602516 2.32125 13.576 
46 1 2.32125 0.602516 13.576 
56 1 2.32123 2.32123 15.2948 
59 1 7.34607 5.62736 10.2699 
69 1 5.62736 7.34607 10.2699 
79 1 5.62737 5.62737 8.55137 
84 1 2.88991 2.88991 13.0075 
91 1 5.05886 5.05886 10.8381 
6 1 2.08687 13.8102 2.08688 
13 1 5.86172 10.0355 5.86172 
22 1 3.59086 12.3062 3.59086 
29 1 4.35775 11.5396 4.35775 
38 1 0.602499 13.576 2.32125 
48 1 2.32124 15.2946 2.32124 
52 1 2.32125 13.576 0.602518 
61 1 7.34608 10.2699 5.62735 
71 1 5.62737 8.55103 5.62737 
75 1 5.62735 10.2699 7.34604 
86 1 2.88983 13.0076 2.88984 
93 1 5.05876 10.8382 5.05876 
7 1 2.08695 13.8103 13.8103 
16 1 5.86169 10.0355 10.0355 
23 1 3.59089 12.3064 12.3064 
32 1 4.3576 11.5395 11.5395 
39 1 0.602412 13.576 13.576 
43 1 2.32126 15.2947 13.576 
53 1 2.32126 13.576 15.2947 
64 1 7.34604 10.2698 10.2698 
68 1 5.62735 8.55115 10.2699 
78 1 5.62735 10.2699 8.55116 
87 1 2.88967 13.0073 13.0073 
96 1 5.05901 10.8384 10.8384 
8 1 13.8102 2.08687 2.08688 
15 1 10.0355 5.86172 5.86172 
24 1 12.3062 3.59086 3.59086 
31 1 11.5396 4.35775 4.35775 
40 1 15.2946 2.32124 2.32124 
44 1 13.576 0.602499 2.32125 
54 1 13.576 2.32125 0.602518 
63 1 8.55103 5.62737 5.62737 
67 1 10.2699 7.34608 5.62735 
77 1 10.2699 5.62735 7.34604 
88 1 13.0076 2.88983 2.88984 
95 1 10.8382 5.05876 5.05876 
5 1 13.8103 2.08695 13.8103 
14 1 10.0355 5.86169 10.0355 
21 1 12.3064 3.59089 12.3064 
30 1 11.5395 4.3576 11.5395 
37 1 15.2947 2.32126 13.576 
47 1 13.576 0.602412 13.576 
51 1 13.576 2.32126 15.2947 
62 1 8.55115 5.62735 10.2699 
72 1 10.2698 7.34604 10.2698 
76 1 10.2699 5.62735 8.55116 
85 1 13.0073 2.88967 13.0073 
94 1 10.8384 5.05901 10.8384 
3 1 13.8103 13.8103 2.08693 
12 1 10.0355 10.0355 5.86161 
19 1 12.3063 12.3063 3.59099 
28 1 11.5394 11.5394 4.35767 
35 1 15.2947 13.576 2.32125 
45 1 13.576 15.2947 2.32125 
55 1 13.576 13.576 0.602748 
60 1 8.55113 10.2699 5.62735 
70 1 10.2699 8.55113 5.62735 
80 1 10.2699 10.2699 7.34595 
83 1 13.0074 13.0074 2.8896 
92 1 10.8385 10.8385 5.05897 
2 1 13.8103 13.8103 13.8102 
9 1 10.0355 10.0355 10.0355 
18 1 12.3066 12.3066 12.3064 
25 1 11.5394 11.5394 11.5395 
34 1 15.2948 13.576 13.576 
42 1 13.576 15.2948 13.576 
50 1 13.576 13.576 15.2945 
57 1 8.55116 10.2699 10.2699 
65 1 10.2699 8.55116 10.2699 
73 1 10.2698 10.2698 8.55134 
82 1 13.0072 13.0072 13.0076 
89 1 10.8384 10.8384 10.8384 
ITEM: TIMESTEP
20
ITEM: NUMBER OF ATOMS
96
ITEM: BOX BOUNDS pp pp pp
0.0000000000000000e+00 1.5897210747100001e+01
0.0000000000000000e+00 1.5897210747100001e+01
0.0000000000000000e+00 1.5897210747100001e+01
ITEM: ATOMS id type x y z 
1 1 2.08192 2.08192 2.08197 
10 1 5.86677 5.86677 5.86678 
17 1 3.58684 3.58684 3.58685 
26 1 4.36182 4.36182 4.36161 
33 1 0.597076 2.33439 2.33439 
41 1 2.33439 0.597076 2.33439 
49 1 2.33438 2.33438 0.597046 
58 1 7.35153 5.61421 5.6142 
66 1 5.61421 7.35153 5.6142 
74 1 5.61426 5.61426 7.35174 
81 1 2.88679 2.88679 2.88671 
90 1 5.06167 5.06167 5.06205 
4 1 2.08194 2.08194 13.8153 
11 1 5.86633 5.86633 10.031 
20 1 3.58673 3.58673 12.3104 
27 1 4.36147 4.36147 11.5358 
36 1 0.597091 2.33442 13.5628 
46 1 2.33442 0.597091 13.5628 
56 1 2.33439 2.33439 15.3001 
59 1 7.35169 5.61425 10.283 
69 1 5.61425 7.35169 10.283 
79 1 5.61427 5.61427 8.54553 
84 1 2.88675 2.88675 13.0107 
91 1 5.0627 5.0627 10.8343 
6 1 2.08197 13.8151 2.08202 
13 1 5.86661 10.0307 5.86664 
22 1 3.58665 12.3105 3.58665 
29 1 4.36194 11.5354 4.36193 
38 1 0.59708 13.5628 2.33439 
48 1 2.33438 15.3002 2.33439 
52 1 2.3344 13.5628 0.597071 
61 1 7.35153 10.283 5.61421 
71 1 5.61422 8.54563 5.61422 
75 1 5.61421 10.283 7.35154 
86 1 2.88678 13.0106 2.88679 
93 1 5.06183 10.8352 5.06184 
7 1 2.08201 13.8153 13.8153 
16 1 5.86644 10.0305 10.0307 
23 1 3.58691 12.3104 12.3104 
32 1 4.3619 11.5352 11.5352 
39 1 0.597041 13.5628 13.5628 
43 1 2.33441 15.3001 13.5628 
53 1 2.33441 13.5628 15.3001 
64 1 7.35154 10.283 10.283 
68 1 5.61424 8.54552 10.283 
78 1 5.61421 10.283 8.54567 
87 1 2.88656 13.0104 13.0105 
96 1 5.06204 10.8354 10.8354 
8 1 13.8151 2.08197 2.08202 
15 1 10.0307 5.86661 5.86664 
24 1 12.3105 3.58665 3.58665 
31 1 11.5354 4.36194 4.36193 
40 1 15.3002 2.33438 2.33439 
44 1 13.5628 0.59708 2.33439 
54 1 13.5628 2.3344 0.597071 
63 1 8.54563 5.61422 5.61422 
67 1 10.283 7.35153 5.61421 
77 1 10.283 5.61421 7.35154 
88 1 13.0106 2.88678 2.88679 
95 1 10.8352 5.06183 5.06184 
5 1 13.8153 2.08201 13.8153 
14 1 10.0305 5.86644 10.0307 
21 1 12.3104 3.58691 12.3104 
30 1 11.5352 4.3619 11.5352 
37 1 15.3001 2.33441 13.5628 
47 1 13.5628 0.597041 13.5628 
51 1 13.5628 2.33441 15.3001 
62 1 8.54552 5.61424 10.283 
72 1 10.283 7.35154 10.283 
76 1 10.283 5.61421 8.54567 
85 1 13.0104 2.88656 13.0105 
94 1 10.8354 5.06204 10.8354 
3 1 13.8152 13.8152 2.08214 
12 1 10.0306 10.0306 5.86655 
19 1 12.3107 12.3107 3.58663 
28 1 11.5354 11.5354 4.36173 
35 1 15.3001 13.5628 2.33439 
45 1 13.5628 15.3001 2.33439 
55 1 13.5628 13.5628 0.597093 
60 1 8.54566 10.283 5.6142 
70 1 10.283 8.54566 5.6142 
80 1 10.283 10.283 7.3516 
83 1 13.0104 13.0104 2.88665 
92 1 10.8353 10.8353 5.06208 
2 1 13.8154 13.8154 13.8153 
9 1 10.0305 10.0305 10.0305 
18 1 12.3104 12.3104 12.3102 
25 1 11.5354 11.5354 11.5354 
34 1 15.3001 13.5628 13.5628 
42 1 13.5628 15.3001 13.5628 
50 1 13.5628 13.5628 15.3002 
57 1 8.54563 10.283 10.283 
65 1 10.283 8.54563 10.283 
73 1 10.283 10.283 8.5457 
82 1 13.0103 13.0103 13.0107 
89 1 10.8354 10.8354 10.8353 
ITEM: TIMESTEP
30
ITEM: NUMBER OF ATOMS
96
ITEM: BOX BOUNDS pp pp pp
0.0000000000000000e+00 1.5897210747100001e+01
0.0000000000000000e+00 1.5897210747100001e+01
0.0000000000000000e+00 1.5897210747100001e+01
ITEM: ATOMS id type x y z 
1 1 2.07371 2.07371 2.07369 
10 1 5.87497 5.87497 5.87431 
17 1 3.5846 3.5846 3.58452 
26 1 4.36402 4.36402 4.36388 
33 1 0.596463 2.35983 2.35983 
41 1 2.35983 0.596463 2.35983 
49 1 2.35983 2.35983 0.596312 
58 1 7.35195 5.58874 5.58873 
66 1 5.58874 7.35195 5.58873 
74 1 5.58869 5.58869 7.35072 
81 1 2.88503 2.88503 2.88505 
90 1 5.06348 5.06348 5.06377 
4 1 2.07407 2.07407 13.8231 
11 1 5.87333 5.87333 10.0239 
20 1 3.58521 3.58521 12.312 
27 1 4.36327 4.36327 11.5339 
36 1 0.596325 2.35981 13.5374 
46 1 2.35981 0.596325 13.5374 
56 1 2.35978 2.35978 15.3009 
59 1 7.35104 5.58876 10.3085 
69 1 5.58876 7.35104 10.3085 
79 1 5.58878 5.58878 8.54612 
84 1 2.88597 2.88597 13.0113 
91 1 5.063 5.063 10.8342 
6 1 2.07403 13.8231 2.07408 
13 1 5.87456 10.0228 5.87465 
22 1 3.58487 12.3124 3.58484 
29 1 4.36377 11.5335 4.36373 
38 1 0.596705 13.5374 2.35982 
48 1 2.3598 15.3009 2.35981 
52 1 2.35984 13.5374 0.596432 
61 1 7.35217 10.3084 5.58877 
71 1 5.58879 8.54517 5.58877 
75 1 5.5888 10.3084 7.35203 
86 1 2.88537 13.0118 2.88542 
93 1 5.06319 10.8339 5.06326 
7 1 2.0741 13.8234 13.8233 
16 1 5.87467 10.0232 10.0225 
23 1 3.58479 12.3124 12.3124 
32 1 4.36398 11.5334 11.5332 
39 1 0.59643 13.5374 13.5374 
43 1 2.35982 15.3009 13.5374 
53 1 2.35983 13.5374 15.3007 
64 1 7.35212 10.3084 10.3084 
68 1 5.58868 8.5465 10.3085 
78 1 5.58877 10.3084 8.54501 
87 1 2.88525 13.0119 13.0119 
96 1 5.06309 10.8339 10.8342 
8 1 13.8231 2.07403 2.07408 
15 1 10.0228 5.87456 5.87465 
24 1 12.3124 3.58487 3.58484 
31 1 11.5335 4.36377 4.36373 
40 1 15.3009 2.3598 2.35981 
44 1 13.5374 0.596705 2.35982 
54 1 13.5374 2.35984 0.596432 
63 1 8.54517 5.58879 5.58877 
67 1 10.3084 7.35217 5.58877 
77 1 10.3084 5.5888 7.35203 
88 1 13.0118 2.88537 2.88542 
95 1 10.8339 5.06319 5.06326 
5 1 13.8234 2.0741 13.8233 
14 1 10.0232 5.87467 10.0225 
21 1 12.3124 3.58479 12.3124 
30 1 11.5334 4.36398 11.5332 
37 1 15.3009 2.35982 13.5374 
47 1 13.5374 0.59643 13.5374 
51 1 13.5374 2.35983 15.3007 
62 1 8.5465 5.58868 10.3085 
72 1 10.3084 7.35212 10.3084 
76 1 10.3084 5.58877 8.54501 
85 1 13.0119 2.88525 13.0119 
94 1 10.8339 5.06309 10.8342 
3 1 13.8234 13.8234 2.07379 
12 1 10.0226 10.0226 5.87449 
19 1 12.3126 12.3126 3.58458 
28 1 11.5333 11.5333 4.36391 
35 1 15.3006 13.5374 2.35981 
45 1 13.5374 15.3006 2.35981 
55 1 13.5374 13.5374 0.59646 
60 1 8.54509 10.3084 5.58877 
70 1 10.3084 8.54509 5.58877 
80 1 10.3084 10.3084 7.35217 
83 1 13.0114 13.0114 2.88577 
92 1 10.8339 10.8339 5.06336 
2 1 13.8235 13.8235 13.8236 
9 1 10.0223 10.0223 10.0224 
18 1 12.3127 12.3127 12.3125 
25 1 11.5332 11.5332 11.5331 
34 1 15.3007 13.5373 13.5373 
42 1 13.5373 15.3007 13.5373 
50 1 13.5374 13.5374 15.3006 
57 1 8.54529 10.3084 10.3084 
65 1 10.3084 8.54529 10.3084 
73 1 10.3084 10.3084 8.54513 
82 1 13.0121 13.0121 13.0123 
89 1 10.8337 10.8337 10.8337 
ITEM: TIMESTEP
40
ITEM: NUMBER OF ATOMS
96
ITEM: BOX BOUNDS pp pp pp
0.0000000000000000e+00 1.5897210747100001e+01
0.0000000000000000e+00 1.5897210747100001e+01
0.0000000000000000e+00 1.5897210747100001e+01
ITEM: ATOMS id type x y z 
1 1 2.0601 2.0601 2.05986 
10 1 5.8882 5.8882 5.8889 
17 1 3.58113 3.58113 3.58141 
26 1 4.36765 4.36765 4.36805 
33 1 0.594193 2.38962 2.3896 
41 1 2.38962 0.594193 2.3896 
49 1 2.38949 2.38949 0.593924 
58 1 7.35461 5.55899 5.55879 
66 1 5.55899 7.35461 5.55879 
74 1 5.55912 5.55912 7.3538 
81 1 2.88369 2.88369 2.88294 
90 1 5.06494 5.06494 5.06426 
4 1 2.06176 2.06176 13.8353 
11 1 5.8915 5.8915 10.0057 
20 1 3.57744 3.57744 12.3199 
27 1 4.36948 4.36948 11.5277 
36 1 0.595104 2.38944 13.5077 
46 1 2.38944 0.595104 13.5077 
56 1 2.3895 2.3895 15.3019 
59 1 7.35121 5.55938 10.3378 
69 1 5.55938 7.35121 10.3378 
79 1 5.55939 5.55939 8.54626 
84 1 2.87856 2.87856 13.0186 
91 1 5.0669 5.0669 10.8302 
6 1 2.06051 13.8376 2.05976 
13 1 5.88863 10.0079 5.88829 
22 1 3.57948 12.3179 3.57951 
29 1 4.36857 11.5282 4.36889 
38 1 0.59502 13.5076 2.38962 
48 1 2.38947 15.3017 2.38949 
52 1 2.38944 13.5077 0.595186 
61 1 7.35356 10.3382 5.55914 
71 1 5.5591 8.54426 5.55925 
75 1 5.55897 10.3381 7.35417 
86 1 2.88229 13.0147 2.88218 
93 1 5.0669 10.831 5.06632 
7 1 2.05961 13.8367 13.8367 
16 1 5.88883 10.0082 10.0085 
23 1 3.57872 12.3181 12.3184 
32 1 4.36883 11.5281 11.5286 
39 1 0.595703 13.5078 13.5078 
43 1 2.38952 15.3032 13.5077 
53 1 2.38959 13.5077 15.3025 
64 1 7.35335 10.3382 10.3381 
68 1 5.55919 8.54392 10.338 
78 1 5.55914 10.3382 8.54322 
87 1 2.88319 13.0147 13.0142 
96 1 5.06578 10.8319 10.831 
8 1 13.8376 2.06051 2.05976 
15 1 10.0079 5.88863 5.88829 
24 1 12.3179 3.57948 3.57951 
31 1 11.5282 4.36857 4.36889 
40 1 15.3017 2.38947 2.38949 
44 1 13.5076 0.59502 2.38962 
54 1 13.5077 2.38944 0.595186 
63 1 8.54426 5.5591 5.55925 
67 1 10.3382 7.35356 5.55914 
77 1 10.3381 5.55897 7.35417 
88 1 13.0147 2.88229 2.88218 
95 1 10.831 5.0669 5.06632 
5 1 13.8367 2.05961 13.8367 
14 1 10.0082 5.88883 10.0085 
21 1 12.3181 3.57872 12.3184 
30 1 11.5281 4.36883 11.5286 
37 1 15.3032 2.38952 13.5077 
47 1 13.5078 0.595704 13.5078 
51 1 13.5077 2.38959 15.3025 
62 1 8.54392 5.55919 10.338 
72 1 10.3382 7.35335 10.3381 
76 1 10.3382 5.55914 8.54322 
85 1 13.0147 2.88319 13.0142 
94 1 10.8319 5.06578 10.831 
3 1 13.836 13.836 2.06131 
12 1 10.0083 10.0083 5.88961 
19 1 12.3174 12.3174 3.5798 
28 1 11.5283 11.5283 4.36917 
35 1 15.3021 13.5077 2.38951 
45 1 13.5077 15.3021 2.38951 
55 1 13.5077 13.5077 0.595335 
60 1 8.54325 10.3381 5.559 
70 1 10.3381 8.54325 5.559 
80 1 10.3381 10.3381 7.35309 
83 1 13.0164 13.0164 2.88084 
92 1 10.8312 10.8312 5.06553 
2 1 13.8369 13.8369 13.8369 
9 1 10.0089 10.0089 10.0086 
18 1 12.3163 12.3163 12.3166 
25 1 11.5294 11.5294 11.5292 
34 1 15.303 13.5075 13.5076 
42 1 13.5075 15.303 13.5076 
50 1 13.5075 13.5075 15.3029 
57 1 8.5429 10.3382 10.3384 
65 1 10.3382 8.5429 10.3384 
73 1 10.3383 10.3383 8.54306 
82 1 13.0139 13.0139 13.0132 
89 1 10.8324 10.8324 10.8326 
ITEM: TIMESTEP
50
ITEM: NUMBER OF ATOMS
96
ITEM: BOX BOUNDS pp pp pp
0.0000000000000000e+00 1.5897210747100001e+01
0.0000000000000000e+00 1.5897210747100001e+01
0.0000000000000000e+00 1.5897210747100001e+01
ITEM: ATOMS id type x y z 
1 1 2.06244 2.06244 2.06254 
10 1 5.88611 5.88611 5.8863 
17 1 3.57879 3.57879 3.57884 
26 1 4.3698 4.3698 4.36989 
33 1 0.594034 2.39153 2.39155 
41 1 2.39153 0.594034 2.39155 
49 1 2.39151 2.39151 0.594361 
58 1 7.35448 5.55708 5.55706 
66 1 5.55708 7.35448 5.55706 
74 1 5.55723 5.55723 7.3548 
81 1 2.88001 2.88001 2.87972 
90 1 5.06873 5.06873 5.06867 
4 1 2.05855 2.05855 13.8387 
11 1 5.88692 5.88692 10.0104 
20 1 3.58064 3.58064 12.3166 
27 1 4.36933 4.36933 11.5278 
36 1 0.593704 2.39169 13.5055 
46 1 2.39169 0.593704 13.5055 
56 1 2.39168 2.39168 15.3036 
59 1 7.35492 5.55686 10.3404 
69 1 5.55686 7.35492 10.3404 
79 1 5.55685 5.55685 8.54214 
84 1 2.88349 2.88349 13.0137 
91 1 5.06767 5.06767 10.8296 
6 1 2.06138 13.8355 2.06144 
13 1 5.88717 10.0104 5.88729 
22 1 3.57935 12.3177 3.5794 
29 1 4.3691 11.528 4.36931 
38 1 0.594011 13.5056 2.39164 
48 1 2.39172 15.3036 2.39169 
52 1 2.3917 13.5056 0.593801 
61 1 7.35476 10.3402 5.55693 
71 1 5.55687 8.542 5.55686 
75 1 5.55694 10.3402 7.35481 
86 1 2.88121 13.0163 2.88108 
93 1 5.06773 10.8296 5.06735 
7 1 2.06178 13.8359 13.8359 
16 1 5.88656 10.01 10.0106 
23 1 3.57934 12.3178 12.318 
32 1 4.36943 11.5278 11.5279 
39 1 0.593577 13.5055 13.5055 
43 1 2.39152 15.3028 13.5057 
53 1 2.39154 13.5056 15.3032 
64 1 7.35494 10.3403 10.3403 
68 1 5.55719 8.54239 10.34 
78 1 5.55701 10.3403 8.54248 
87 1 2.88088 13.0165 13.0161 
96 1 5.06779 10.8294 10.8291 
8 1 13.8355 2.06138 2.06144 
15 1 10.0104 5.88717 5.88729 
24 1 12.3177 3.57935 3.5794 
31 1 11.528 4.3691 4.36931 
40 1 15.3036 2.39172 2.39169 
44 1 13.5056 0.594011 2.39164 
54 1 13.5056 2.3917 0.593801 
63 1 8.542 5.55687 5.55686 
67 1 10.3402 7.35476 5.55693 
77 1 10.3402 5.55694 7.35481 
88 1 13.0163 2.88121 2.88108 
95 1 10.8296 5.06773 5.06735 
5 1 13.8359 2.06178 13.8359 
14 1 10.01 5.88656 10.0106 
21 1 12.3178 3.57934 12.318 
30 1 11.5278 4.36943 11.5279 
37 1 15.3028 2.39152 13.5057 
47 1 13.5055 0.593577 13.5055 
51 1 13.5056 2.39154 15.3032 
62 1 8.54239 5.55719 10.34 
72 1 10.3403 7.35494 10.3403 
76 1 10.3403 5.55701 8.54248 
85 1 13.0165 2.88088 13.0161 
94 1 10.8294 5.06779 10.8291 
3 1 13.8364 13.8364 2.06094 
12 1 10.0105 10.0105 5.88632 
19 1 12.3173 12.3173 3.57995 
28 1 11.5279 11.5279 4.3693 
35 1 15.3034 13.5056 2.3916 
45 1 13.5056 15.3034 2.3916 
55 1 13.5056 13.5056 0.593668 
60 1 8.54252 10.3403 5.55699 
70 1 10.3403 8.54252 5.55699 
80 1 10.3403 10.3403 7.35499 
83 1 13.0152 13.0152 2.88193 
92 1 10.8295 10.8295 5.06774 
2 1 13.835 13.835 13.8345 
9 1 10.0111 10.0111 10.0112 
18 1 12.3183 12.3183 12.3183 
25 1 11.5274 11.5274 11.5276 
34 1 15.3031 13.5057 13.5057 
42 1 13.5057 15.3031 13.5057 
50 1 13.5056 13.5056 15.3033 
57 1 8.54245 10.3402 10.3402 
65 1 10.3402 8.54245 10.3402 
73 1 10.3402 10.3402 8.54253 
82 1 13.0172 13.0172 13.0171 
89 1 10.8287 10.8287 10.8283 
ITEM: TIMESTEP
60
ITEM: NUMBER OF ATOMS
96
ITEM: BOX BOUNDS pp pp pp
0.0000000000000000e+00 1.5897210747100001e+01
0.0000000000000000e+00 1.5897210747100001e+01
0.0000000000000000e+00 1.5897210747100001e+01
ITEM: ATOMS id type x y z 
1 1 2.06165 2.06165 2.06179 
10 1 5.88689 5.88689 5.88708 
17 1 3.5794 3.5794 3.57926 
26 1 4.36918 4.36918 4.36945 
33 1 0.593818 2.39502 2.39501 
41 1 2.39502 0.593818 2.39501 
49 1 2.39504 2.39504 0.593933 
58 1 7.35481 5.55356 5.55356 
66 1 5.55356 7.35481 5.55356 
74 1 5.55368 5.55368 7.35471 
81 1 2.88067 2.88067 2.88073 
90 1 5.06799 5.06799 5.06762 
4 1 2.06026 2.06026 13.8372 
11 1 5.88731 5.88731 10.0096 
20 1 3.58036 3.58036 12.3172 
27 1 4.36866 4.36866 11.5282 
36 1 0.593769 2.39506 13.5021 
46 1 2.39506 0.593769 13.5021 
56 1 2.39503 2.39503 15.3034 
59 1 7.35484 5.55346 10.3438 
69 1 5.55346 7.35484 10.3438 
79 1 5.55348 5.55348 8.54242 
84 1 2.88229 2.88229 13.0144 
91 1 5.06713 5.06713 10.8306 
6 1 2.06144 13.8359 2.06139 
13 1 5.88726 10.0099 5.88721 
22 1 3.57957 12.3177 3.57955 
29 1 4.36913 11.5281 4.36898 
38 1 0.593842 13.5022 2.39503 
48 1 2.39505 15.3034 2.39505 
52 1 2.39506 13.5021 0.593774 
61 1 7.35483 10.3437 5.55356 
71 1 5.55358 8.54242 5.55355 
75 1 5.55359 10.3436 7.35477 
86 1 2.88115 13.016 2.88118 
93 1 5.06729 10.8298 5.06757 
7 1 2.06133 13.8357 13.8358 
16 1 5.887 10.0101 10.0101 
23 1 3.57949 12.3178 12.3177 
32 1 4.36899 11.5279 11.528 
39 1 0.593809 13.5022 13.5022 
43 1 2.39506 15.3033 13.5022 
53 1 2.39502 13.5022 15.3034 
64 1 7.35482 10.3436 10.3436 
68 1 5.55364 8.54247 10.3435 
78 1 5.55354 10.3436 8.54235 
87 1 2.88105 13.0161 13.0163 
96 1 5.06787 10.8298 10.8297 
8 1 13.8359 2.06144 2.06139 
15 1 10.0099 5.88726 5.88721 
24 1 12.3177 3.57957 3.57955 
31 1 11.5281 4.36913 4.36898 
40 1 15.3034 2.39505 2.39505 
44 1 13.5022 0.593842 2.39503 
54 1 13.5021 2.39506 0.593774 
63 1 8.54242 5.55358 5.55355 
67 1 10.3437 7.35483 5.55356 
77 1 10.3436 5.55359 7.35477 
88 1 13.016 2.88115 2.88118 
95 1 10.8298 5.06729 5.06757 
5 1 13.8357 2.06133 13.8358 
14 1 10.0101 5.887 10.0101 
21 1 12.3178 3.57949 12.3177 
30 1 11.5279 4.36899 11.528 
37 1 15.3033 2.39506 13.5022 
47 1 13.5022 0.593809 13.5022 
51 1 13.5022 2.39502 15.3034 
62 1 8.54247 5.55364 10.3435 
72 1 10.3436 7.35482 10.3436 
76 1 10.3436 5.55354 8.54235 
85 1 13.0161 2.88105 13.0163 
94 1 10.8298 5.06787 10.8297 
3 1 13.8362 13.8362 2.06119 
12 1 10.01 10.01 5.88695 
19 1 12.3174 12.3174 3.58009 
28 1 11.528 11.528 4.36897 
35 1 15.3034 13.5022 2.39501 
45 1 13.5022 15.3034 2.39501 
55 1 13.5022 13.5022 0.593774 
60 1 8.5424 10.3436 5.55355 
70 1 10.3436 8.5424 5.55355 
80 1 10.3436 10.3436 7.35484 
83 1 13.0154 13.0154 2.88115 
92 1 10.83 10.83 5.06777 
2 1 13.8357 13.8357 13.8354 
9 1 10.0103 10.0103 10.0103 
18 1 12.318 12.318 12.3177 
25 1 11.5279 11.5279 11.5279 
34 1 15.3034 13.5022 13.5022 
42 1 13.5022 15.3034 13.5022 
50 1 13.5022 13.5022 15.3034 
57 1 8.54239 10.3436 10.3436 
65 1 10.3436 8.54239 10.3436 
73 1 10.3436 10.3436 8.54232 
82 1 13.0163 13.0163 13.0168 
89 1 10.8294 10.8294 10.8292 
ITEM: TIMESTEP
70
ITEM: NUMBER OF ATOMS
96
ITEM: BOX BOUNDS pp pp pp
0.0000000000000000e+00 1.5897210747100001e+01
0.0000000000000000e+00 1.5897210747100001e+01
0.0000000000000000e+00 1.5897210747100001e+01
ITEM: ATOMS id type x y z 
1 1 2.06091 2.06091 2.06057 
10 1 5.88795 5.88795 5.88765 
17 1 3.57949 3.57949 3.5791 
26 1 4.36925 4.36925 4.36901 
33 1 0.593662 2.39702 2.39703 
41 1 2.39702 0.593662 2.39703 
49 1 2.397 2.397 0.593698 
58 1 7.35494 5.55158 5.55156 
66 1 5.55158 7.35494 5.55156 
74 1 5.55166 5.55166 7.35496 
81 1 2.881 2.881 2.88152 
90 1 5.06728 5.06728 5.06787 
4 1 2.06032 2.06032 13.8365 
11 1 5.88832 5.88832 10.0093 
20 1 3.57955 3.57955 12.3173 
27 1 4.36903 4.36903 11.5285 
36 1 0.593607 2.39705 13.5002 
46 1 2.39705 0.593607 13.5002 
56 1 2.39704 2.39704 15.3037 
59 1 7.35499 5.55151 10.3457 
69 1 5.55151 7.35499 10.3457 
79 1 5.55151 5.55151 8.54219 
84 1 2.88189 2.88189 13.016 
91 1 5.06674 5.06674 10.8297 
6 1 2.06098 13.8367 2.06058 
13 1 5.8881 10.0093 5.88771 
22 1 3.57976 12.3179 3.57941 
29 1 4.3693 11.528 4.36893 
38 1 0.593632 13.5002 2.39703 
48 1 2.39703 15.3035 2.39702 
52 1 2.39704 13.5002 0.593698 
61 1 7.35492 10.3456 5.55158 
71 1 5.55157 8.54225 5.55156 
75 1 5.55157 10.3456 7.35495 
86 1 2.88081 13.0157 2.88145 
93 1 5.06698 10.8299 5.06769 
7 1 2.06062 13.8367 13.8362 
16 1 5.88808 10.0094 10.0094 
23 1 3.57931 12.318 12.3175 
32 1 4.3693 11.5281 11.5282 
39 1 0.59364 13.5002 13.5002 
43 1 2.39702 15.3035 13.5002 
53 1 2.39703 13.5002 15.3036 
64 1 7.35497 10.3456 10.3456 
68 1 5.55165 8.54229 10.3456 
78 1 5.55158 10.3456 8.5423 
87 1 2.88143 13.0157 13.0165 
96 1 5.06701 10.8297 10.8296 
8 1 13.8367 2.06098 2.06058 
15 1 10.0093 5.8881 5.88771 
24 1 12.3179 3.57976 3.57941 
31 1 11.528 4.3693 4.36893 
40 1 15.3035 2.39703 2.39702 
44 1 13.5002 0.593632 2.39703 
54 1 13.5002 2.39704 0.593698 
63 1 8.54225 5.55157 5.55156 
67 1 10.3456 7.35492 5.55158 
77 1 10.3456 5.55157 7.35495 
88 1 13.0157 2.88081 2.88145 
95 1 10.8299 5.06698 5.06769 
5 1 13.8367 2.06062 13.8362 
14 1 10.0094 5.88808 10.0094 
21 1 12.318 3.57931 12.3175 
30 1 11.5281 4.3693 11.5282 
37 1 15.3035 2.39702 13.5002 
47 1 13.5002 0.59364 13.5002 
51 1 13.5002 2.39703 15.3036 
62 1 8.54229 5.55165 10.3456 
72 1 10.3456 7.35497 10.3456 
76 1 10.3456 5.55158 8.5423 
85 1 13.0157 2.88143 13.0165 
94 1 10.8297 5.06701 10.8296 
3 1 13.8364 13.8364 2.06053 
12 1 10.0093 10.0093 5.8882 
19 1 12.3178 12.3178 3.57916 
28 1 11.5284 11.5284 4.36908 
35 1 15.3035 13.5002 2.39701 
45 1 13.5002 15.3035 2.39701 
55 1 13.5003 13.5003 0.593711 
60 1 8.54223 10.3456 5.55157 
70 1 10.3456 8.54223 5.55157 
80 1 10.3456 10.3456 7.35488 
83 1 13.0158 13.0158 2.88182 
92 1 10.8296 10.8296 5.06716 
2 1 13.8363 13.8363 13.8367 
9 1 10.0092 10.0092 10.0096 
18 1 12.3177 12.3177 12.318 
25 1 11.5279 11.5279 11.5283 
34 1 15.3035 13.5002 13.5002 
42 1 13.5002 15.3035 13.5002 
50 1 13.5002 13.5002 15.3035 
57 1 8.5423 10.3456 10.3456 
65 1 10.3456 8.5423 10.3456 
73 1 10.3456 10.3456 8.54233 
82 1 13.0162 13.0162 13.0157 
89 1 10.83 10.83 10.8292 
ITEM: TIMESTEP
80
ITEM: NUMBER OF ATOMS
96
ITEM: BOX BOUNDS pp pp pp
0.0000000000000000e+00 1.5897210747100001e+01
0.0000000000000000e+00 1.5897210747100001e+01
0.0000000000000000e+00 1.5897210747100001e+01
ITEM: ATOMS id type x y z 
1 1 2.05994 2.05994 2.06014 
10 1 5.88853 5.88853 5.8887 
17 1 3.57949 3.57949 3.57934 
26 1 4.36916 4.36916 4.3692 
33 1 0.593586 2.3985 2.39851 
41 1 2.3985 0.593586 2.39851 
49 1 2.39856 2.39856 0.593426 
58 1 7.35508 5.55006 5.55003 
66 1 5.55006 7.35508 5.55003 
74 1 5.55018 5.55018 7.35512 
81 1 2.88141 2.88141 2.88147 
90 1 5.06718 5.06718 5.06723 
4 1 2.06031 2.06031 13.8371 
11 1 5.88829 5.88829 10.0087 
20 1 3.57923 3.57923 12.318 
27 1 4.36939 4.36939 11.5278 
36 1 0.593554 2.39854 13.4987 
46 1 2.39854 0.593554 13.4987 
56 1 2.39847 2.39847 15.3035 
59 1 7.35508 5.55003 10.3472 
69 1 5.55003 7.35508 10.3472 
79 1 5.55009 5.55009 8.54224 
84 1 2.88106 2.88106 13.0163 
91 1 5.06756 5.06756 10.8295 
6 1 2.05991 13.837 2.06016 
13 1 5.88843 10.0087 5.88864 
22 1 3.57947 12.3178 3.57939 
29 1 4.36923 11.528 4.36917 
38 1 0.593608 13.4988 2.39848 
48 1 2.39857 15.3037 2.39854 
52 1 2.39858 13.4987 0.593473 
61 1 7.35512 10.3471 5.55002 
71 1 5.55008 8.54217 5.55005 
75 1 5.55011 10.3471 7.35503 
86 1 2.88125 13.0158 2.88134 
93 1 5.06724 10.8299 5.06735 
7 1 2.06009 13.8371 13.8373 
16 1 5.88845 10.0086 10.0086 
23 1 3.57943 12.3178 12.3177 
32 1 4.36916 11.528 11.528 
39 1 0.593495 13.4987 13.4986 
43 1 2.39855 15.3037 13.4986 
53 1 2.39846 13.4987 15.3036 
64 1 7.35507 10.3472 10.3471 
68 1 5.55015 8.54216 10.3471 
78 1 5.5501 10.3471 8.54212 
87 1 2.8814 13.0158 13.016 
96 1 5.06718 10.8299 10.8299 
8 1 13.837 2.05991 2.06016 
15 1 10.0087 5.88843 5.88864 
24 1 12.3178 3.57947 3.57939 
31 1 11.528 4.36923 4.36917 
40 1 15.3037 2.39857 2.39854 
44 1 13.4988 0.593608 2.39848 
54 1 13.4987 2.39858 0.593473 
63 1 8.54217 5.55008 5.55005 
67 1 10.3471 7.35512 5.55002 
77 1 10.3471 5.55011 7.35503 
88 1 13.0158 2.88125 2.88134 
95 1 10.8299 5.06724 5.06735 
5 1 13.8371 2.06009 13.8373 
14 1 10.0086 5.88845 10.0086 
21 1 12.3178 3.57943 12.3177 
30 1 11.528 4.36916 11.528 
37 1 15.3037 2.39855 13.4986 
47 1 13.4987 0.593495 13.4986 
51 1 13.4987 2.39846 15.3036 
62 1 8.54216 5.55015 10.3471 
72 1 10.3472 7.35507 10.3471 
76 1 10.3471 5.5501 8.54212 
85 1 13.0158 2.8814 13.016 
94 1 10.8299 5.06718 10.8299 
3 1 13.8371 13.8371 2.06026 
12 1 10.0086 10.0086 5.8884 
19 1 12.3178 12.3178 3.5794 
28 1 11.528 11.528 4.36925 
35 1 15.3037 13.4987 2.39848 
45 1 13.4987 15.3037 2.39848 
55 1 13.4987 13.4987 0.593564 
60 1 8.54221 10.3471 5.55011 
70 1 10.3471 8.54221 5.55011 
80 1 10.3472 10.3472 7.35518 
83 1 13.0159 13.0159 2.88127 
92 1 10.8299 10.8299 5.06736 
2 1 13.8372 13.8372 13.8371 
9 1 10.0087 10.0087 10.0085 
18 1 12.3177 12.3177 12.3178 
25 1 11.528 11.528 11.5281 
34 1 15.3036 13.4987 13.4987 
42 1 13.4987 15.3036 13.4987 
50 1 13.4987 13.4987 15.3037 
57 1 8.54215 10.3471 10.3472 
65 1 10.3471 8.54215 10.3472 
73 1 10.3471 10.3471 8.54222 
82 1 13.0158 13.0158 13.0158 
89 1 10.8301 10.8301 10.8299 
ITEM: TIMESTEP
90
ITEM: NUMBER OF ATOMS
96
ITEM: BOX BOUNDS pp pp pp
0.0000000000000000e+00 1.5897210747100001e+01
0.0000000000000000e+00 1.5897210747100001e+01
0.0000000000000000e+00 1.5897210747100001e+01
ITEM: ATOMS id type x y z 
1 1 2.05969 2.05969 2.05969 
10 1 5.88893 5.88893 5.88885 
17 1 3.57888 3.57888 3.57874 
26 1 4.36979 4.36979 4.36982 
33 1 0.593369 2.4005 2.4005 
41 1 2.4005 0.593369 2.4005 
49 1 2.40049 2.40049 0.59359 
58 1 7.35493 5.54809 5.54807 
66 1 5.54809 7.35493 5.54807 
74 1 5.54816 5.54816 7.35534 
81 1 2.88059 2.88059 2.88061 
90 1 5.06796 5.06796 5.06807 
4 1 2.05932 2.05932 13.8378 
11 1 5.88926 5.88926 10.0079 
20 1 3.57912 3.57912 12.318 
27 1 4.36948 4.36948 11.5278 
36 1 0.593299 2.40052 13.4967 
46 1 2.40052 0.593299 13.4967 
56 1 2.40049 2.40049 15.3037 
59 1 7.35509 5.54806 10.3492 
69 1 5.54806 7.35509 10.3492 
79 1 5.5481 5.5481 8.54191 
84 1 2.88115 2.88115 13.0163 
91 1 5.06743 5.06743 10.8296 
6 1 2.05958 13.8376 2.0596 
13 1 5.88901 10.0081 5.88901 
22 1 3.57901 12.3183 3.57895 
29 1 4.36962 11.5276 4.36962 
38 1 0.593493 13.4967 2.40047 
48 1 2.40053 15.3039 2.40051 
52 1 2.40053 13.4967 0.593539 
61 1 7.3552 10.3491 5.5481 
71 1 5.5481 8.54225 5.54807 
75 1 5.54811 10.3491 7.35535 
86 1 2.88073 13.0163 2.8808 
93 1 5.06786 10.8294 5.06785 
7 1 2.0596 13.8376 13.8376 
16 1 5.88896 10.0082 10.0082 
23 1 3.5789 12.3183 12.3182 
32 1 4.36962 11.5275 11.5275 
39 1 0.59342 13.4967 13.4967 
43 1 2.4005 15.3038 13.4967 
53 1 2.40047 13.4967 15.3037 
64 1 7.35525 10.3491 10.3491 
68 1 5.54815 8.54222 10.3491 
78 1 5.5481 10.3491 8.54187 
87 1 2.88077 13.0165 13.0167 
96 1 5.06795 10.8294 10.8293 
8 1 13.8376 2.05958 2.0596 
15 1 10.0081 5.88901 5.88901 
24 1 12.3183 3.57901 3.57895 
31 1 11.5276 4.36962 4.36962 
40 1 15.3039 2.40053 2.40051 
44 1 13.4967 0.593493 2.40047 
54 1 13.4967 2.40053 0.593539 
63 1 8.54225 5.5481 5.54807 
67 1 10.3491 7.3552 5.5481 
77 1 10.3491 5.54811 7.35535 
88 1 13.0163 2.88073 2.8808 
95 1 10.8294 5.06786 5.06785 
5 1 13.8376 2.0596 13.8376 
14 1 10.0082 5.88896 10.0082 
21 1 12.3183 3.5789 12.3182 
30 1 11.5275 4.36963 11.5275 
37 1 15.3038 2.4005 13.4967 
47 1 13.4967 0.59342 13.4967 