ITEM: TIMESTEP
0
ITEM: NUMBER OF ATOMS
34
ITEM: BOX BOUNDS pp pp pp
0.0000000000000000e+00 7.0970000000000004e+00
0.0000000000000000e+00 7.0970000000000004e+00
0.0000000000000000e+00 2.4588000000000001e+01
ITEM: ATOMS id type x y z 
2 1 3.339 1.632 13.319 
5 1 4.651 1.581 18.133 
7 1 3.391 1.602 15.981 
8 1 2.166 1.581 18.134 
18 1 3.408 1.581 17.416 
21 1 3.338 2.875 12.602 
23 1 3.367 1.619 14.753 
24 1 3.338 0.39 12.601 
17 1 7.023 2.875 24.28 
19 1 6.997 1.619 22.129 
20 1 7.023 0.39 24.281 
22 1 6.957 1.581 19.466 
25 1 5.714 1.581 18.748 
27 1 6.974 1.602 20.9 
28 1 1.102 1.581 18.748 
30 1 7.024 1.631 23.563 
10 1 6.954 5.232 5.122 
13 1 7.023 3.938 0.307 
15 1 6.994 5.194 2.459 
16 1 7.023 6.423 0.307 
26 1 7.022 5.181 1.025 
29 1 5.711 5.232 5.839 
31 1 6.97 5.211 3.688 
32 1 1.098 5.232 5.84 
1 1 4.647 5.232 6.454 
3 1 3.388 5.211 8.606 
4 1 2.163 5.232 6.454 
6 1 3.338 5.182 11.269 
9 1 3.338 3.939 11.986 
11 1 3.365 5.194 9.834 
12 1 3.338 6.423 11.987 
14 1 3.404 5.232 7.171 
33 2 3.539 5.636 13.064 
34 3 3.539 5.636 14.04 
ITEM: TIMESTEP
10
ITEM: NUMBER OF ATOMS
34
ITEM: BOX BOUNDS pp pp pp
0.0000000000000000e+00 7.0970000000000004e+00
0.0000000000000000e+00 7.0970000000000004e+00
0.0000000000000000e+00 2.4588000000000001e+01
ITEM: ATOMS id type x y z 
2 1 3.32376 1.59218 13.2964 
5 1 4.65553 1.58126 18.1343 
7 1 3.39181 1.60265 16.0123 
8 1 2.16275 1.58137 18.1376 
18 1 3.40836 1.57966 17.4455 
21 1 3.33733 2.89863 12.591 
23 1 3.36913 1.62 14.7982 
24 1 3.36054 0.453959 12.5515 
17 1 7.01245 2.88085 24.2786 
19 1 6.99717 1.61923 22.1248 
20 1 7.01528 0.38752 24.2867 
22 1 6.95702 1.5803 19.4655 
25 1 5.71111 1.58102 18.7478 
27 1 6.97307 1.60234 20.9042 
28 1 1.10404 1.5812 18.7452 
30 1 7.02844 1.63178 23.563 
10 1 6.95336 5.23249 5.12095 
13 1 7.03528 3.93179 0.309009 
15 1 6.99278 5.19345 2.46294 
16 1 7.03221 6.42483 0.301463 
26 1 7.01524 5.18132 1.02466 
29 1 5.7082 5.23157 5.83874 
31 1 6.97008 5.21109 3.68342 
32 1 1.09973 5.23191 5.84228 
1 1 4.65395 5.23207 6.452 
3 1 3.38931 5.21143 8.57286 
4 1 2.15687 5.23181 6.44918 
6 1 3.33443 5.14548 11.1789 
9 1 3.33842 3.93587 11.9586 
11 1 3.36157 5.19015 9.80409 
12 1 3.32994 6.43022 11.9959 
14 1 3.40492 5.23301 7.17447 
33 2 3.52548 5.68749 13.1279 
34 3 3.55646 5.57105 14.1259 
ITEM: TIMESTEP
13
ITEM: NUMBER OF ATOMS
34
ITEM: BOX BOUNDS pp pp pp
0.0000000000000000e+00 7.0970000000000004e+00
0.0000000000000000e+00 7.0970000000000004e+00
0.0000000000000000e+00 2.4588000000000001e+01
ITEM: ATOMS id type x y z 
2 1 3.3418 1.61263 13.3056 
5 1 4.66374 1.58063 18.1401 
7 1 3.39206 1.60131 15.9853 
8 1 2.15316 1.58054 18.1444 
18 1 3.40849 1.58145 17.4512 
21 1 3.3372 2.89167 12.5933 
23 1 3.36713 1.61918 14.7895 
24 1 3.32788 0.459903 12.5373 
17 1 7.02376 2.88282 24.2769 
19 1 6.99962 1.62052 22.1276 
20 1 7.02657 0.387246 24.29 
22 1 6.95708 1.58183 19.4663 
25 1 5.71774 1.58084 18.7515 
27 1 6.97156 1.60068 20.9033 
28 1 1.09911 1.58066 18.7474 
30 1 7.02037 1.63039 23.5623 
10 1 6.95384 5.23102 5.11713 
13 1 7.02419 3.92976 0.310551 
15 1 6.98928 5.19263 2.46102 
16 1 7.0211 6.42595 0.297491 
26 1 7.02366 5.18203 1.0261 
29 1 5.71363 5.23262 5.83476 
31 1 6.97164 5.21166 3.68428 
32 1 1.09615 5.23185 5.8405 
1 1 4.65774 5.23273 6.45038 
3 1 3.3875 5.20882 8.57471 
4 1 2.15132 5.23344 6.44538 
6 1 3.33393 5.13818 11.1903 
9 1 3.33679 3.93251 11.9542 
11 1 3.3651 5.19095 9.80627 
12 1 3.34641 6.42621 11.9872 
14 1 3.40475 5.23313 7.1619 
33 2 3.51981 5.70449 13.156 
34 3 3.56188 5.55073 14.136 
ITEM: TIMESTEP
20
ITEM: NUMBER OF ATOMS
34
ITEM: BOX BOUNDS pp pp pp
0.0000000000000000e+00 7.0970000000000004e+00
0.0000000000000000e+00 7.0970000000000004e+00
0.0000000000000000e+00 2.4588000000000001e+01
ITEM: ATOMS id type x y z 
2 1 3.32676 1.6464 13.295 
5 1 4.65041 1.58179 18.1381 
7 1 3.39083 1.60345 16.0254 
8 1 2.16883 1.58161 18.1417 
18 1 3.40828 1.57897 17.4345 
21 1 3.33927 2.89817 12.5943 
23 1 3.37202 1.61558 14.7998 
24 1 3.34289 0.475427 12.4796 
17 1 7.02363 2.88077 24.2787 
19 1 6.97952 1.62023 22.1351 
20 1 7.01014 0.388038 24.2894 
22 1 6.95694 1.57661 19.4795 
25 1 5.70878 1.58037 18.7463 
27 1 6.9816 1.60707 20.9125 
28 1 1.10638 1.58079 18.7419 
30 1 7.037 1.63395 23.5717 
10 1 6.95362 5.23465 5.10696 
13 1 7.02129 3.93245 0.309309 
15 1 7.01315 5.18955 2.45267 
16 1 7.03595 6.42368 0.299727 
26 1 7.01154 5.18047 1.01709 
29 1 5.71329 5.23362 5.83338 
31 1 6.95719 5.20826 3.67309 
32 1 1.09481 5.23212 5.83903 
1 1 4.65849 5.23152 6.44829 
3 1 3.3934 5.21619 8.56238 
4 1 2.15311 5.23296 6.44503 
6 1 3.33309 5.14027 11.1957 
9 1 3.33234 3.9294 11.9359 
11 1 3.35449 5.18393 9.78533 
12 1 3.34176 6.41146 11.9329 
14 1 3.4053 5.23281 7.1431 
33 2 3.50707 5.75486 13.2761 
34 3 3.58283 5.4636 14.1867 
ITEM: TIMESTEP
30
ITEM: NUMBER OF ATOMS
34
ITEM: BOX BOUNDS pp pp pp
0.0000000000000000e+00 7.0970000000000004e+00
0.0000000000000000e+00 7.0970000000000004e+00
0.0000000000000000e+00 2.4588000000000001e+01
ITEM: ATOMS id type x y z 
2 1 3.3243 1.62674 13.2934 
5 1 4.65874 1.58107 18.1516 
7 1 3.39602 1.60265 15.97 
8 1 2.16128 1.58189 18.1574 
18 1 3.40802 1.58007 17.4413 
21 1 3.33094 2.90559 12.5973 
23 1 3.36822 1.614 14.7544 
24 1 3.34233 0.519027 12.4162 
17 1 7.02895 2.87609 24.2804 
19 1 6.96304 1.6258 22.137 
20 1 7.01067 0.392394 24.2896 
22 1 6.95946 1.57734 19.4771 
25 1 5.72031 1.57782 18.7568 
27 1 6.98661 1.60644 20.9181 
28 1 1.09244 1.57851 18.7504 
30 1 7.04527 1.63877 23.5783 
10 1 6.95195 5.23672 5.09433 
13 1 7.01679 3.9343 0.306844 
15 1 7.03414 5.18113 2.44464 
16 1 7.03303 6.42546 0.297242 
26 1 7.00608 5.17445 1.0033 
29 1 5.72712 5.2356 5.82398 
31 1 6.94681 5.20703 3.66123 
32 1 1.0816 5.23411 5.82852 
1 1 4.66836 5.23193 6.43483 
3 1 3.39651 5.21206 8.55366 
4 1 2.14173 5.23413 6.43227 
6 1 3.31795 5.17612 11.2066 
9 1 3.33307 3.90771 11.917 
11 1 3.35084 5.17667 9.76672 
12 1 3.34226 6.48512 11.7723 
14 1 3.40641 5.23788 7.10422 
33 2 3.49011 5.81563 13.5767 
34 3 3.62465 5.29076 14.3124 
ITEM: TIMESTEP
40
ITEM: NUMBER OF ATOMS
34
ITEM: BOX BOUNDS pp pp pp
0.0000000000000000e+00 7.0970000000000004e+00
0.0000000000000000e+00 7.0970000000000004e+00
0.0000000000000000e+00 2.4588000000000001e+01
ITEM: ATOMS id type x y z 
2 1 3.33246 1.61888 13.2853 
5 1 4.65109 1.57994 18.1455 
7 1 3.3969 1.5991 15.9662 
8 1 2.16986 1.58054 18.1506 
18 1 3.40827 1.58349 17.4223 
21 1 3.33098 2.90219 12.59 
23 1 3.36493 1.61171 14.7514 
24 1 3.33791 0.513121 12.4369 
17 1 7.02605 2.87561 24.2801 
19 1 6.98156 1.62793 22.1308 
20 1 7.02512 0.395719 24.2918 
22 1 6.95799 1.57918 19.4735 
25 1 5.71051 1.5767 18.7518 
27 1 6.9739 1.60433 20.9108 
28 1 1.10413 1.5787 18.7462 
30 1 7.03252 1.63373 23.5697 
10 1 6.95171 5.23521 5.09545 
13 1 7.02271 3.93259 0.304813 
15 1 7.01359 5.17964 2.44254 
16 1 7.02018 6.42366 0.293133 
26 1 7.01622 5.17967 1.00539 
29 1 5.72144 5.23537 5.8272 
31 1 6.9609 5.20812 3.66151 
32 1 1.08662 5.23523 5.82977 
1 1 4.66142 5.23444 6.43403 
3 1 3.39084 5.20472 8.55834 
4 1 2.1484 5.23599 6.43148 
6 1 3.32243 5.20118 11.2149 
9 1 3.32895 3.91949 11.9283 
11 1 3.35837 5.17693 9.77569 
12 1 3.3361 6.47991 11.7851 
14 1 3.40568 5.23799 7.12022 
33 2 3.49126 5.8109 13.5613 
34 3 3.625 5.2891 14.3338 
ITEM: TIMESTEP
50
ITEM: NUMBER OF ATOMS
34
ITEM: BOX BOUNDS pp pp pp
0.0000000000000000e+00 7.0970000000000004e+00
0.0000000000000000e+00 7.0970000000000004e+00
0.0000000000000000e+00 2.4588000000000001e+01
ITEM: ATOMS id type x y z 
2 1 3.33906 1.62067 13.279 
5 1 4.64432 1.58296 18.1399 
7 1 3.39274 1.59328 15.9522 
8 1 2.1736 1.58049 18.1394 
18 1 3.40864 1.58286 17.402 
21 1 3.33043 2.90865 12.5707 
23 1 3.37007 1.60757 14.7336 
24 1 3.32919 0.463554 12.4475 
17 1 7.01552 2.87934 24.2767 
19 1 7.00593 1.62855 22.1163 
20 1 7.02245 0.39676 24.2855 
22 1 6.95616 1.57604 19.4573 
25 1 5.70521 1.57733 18.7439 
27 1 6.95975 1.60596 20.8988 
28 1 1.1138 1.57833 18.7458 
30 1 7.0248 1.6337 23.5528 
10 1 6.95299 5.23704 5.09816 
13 1 7.03153 3.92467 0.299696 
15 1 6.97544 5.18191 2.44302 
16 1 7.02801 6.42579 0.294302 
26 1 7.0285 5.18034 1.00984 
29 1 5.71333 5.24064 5.82709 
31 1 6.98278 5.19977 3.65956 
32 1 1.089 5.23716 5.82652 
1 1 4.65626 5.23359 6.43094 
3 1 3.38502 5.20152 8.57371 
4 1 2.15929 5.23688 6.43082 
6 1 3.32984 5.21317 11.236 
9 1 3.32697 3.94406 11.9516 
11 1 3.36106 5.17468 9.79377 
12 1 3.3285 6.52022 11.8366 
14 1 3.4052 5.23569 7.13592 
33 2 3.49975 5.77361 13.5534 
34 3 3.62085 5.30422 14.3637 
ITEM: TIMESTEP
60
ITEM: NUMBER OF ATOMS
34
ITEM: BOX BOUNDS pp pp pp
0.0000000000000000e+00 7.0970000000000004e+00
0.0000000000000000e+00 7.0970000000000004e+00
0.0000000000000000e+00 2.4588000000000001e+01
ITEM: ATOMS id type x y z 
2 1 3.33828 1.64746 13.2839 
5 1 4.64324 1.58095 18.1378 
7 1 3.39587 1.59582 15.9501 
8 1 2.17199 1.57981 18.1366 
18 1 3.40808 1.5817 17.3962 
21 1 3.33205 2.90059 12.5759 
23 1 3.36588 1.60426 14.7313 
24 1 3.3295 0.472579 12.454 
17 1 7.02502 2.87733 24.2693 
19 1 6.99331 1.62966 22.1127 
20 1 7.02561 0.396149 24.2841 
22 1 6.95666 1.57535 19.455 
25 1 5.70562 1.58118 18.7383 
27 1 6.96788 1.60448 20.8928 
28 1 1.11426 1.57761 18.7451 
30 1 7.02591 1.63128 23.5526 
10 1 6.95368 5.23656 5.09973 
13 1 7.02282 3.92688 0.304343 
15 1 6.99222 5.17805 2.44338 
16 1 7.0263 6.42744 0.291982 
26 1 7.02335 5.1816 1.00541 
29 1 5.71368 5.23677 5.82538 
31 1 6.97281 5.20531 3.6633 
32 1 1.09378 5.23691 5.82801 
1 1 4.6555 5.23931 6.43352 
3 1 3.38496 5.20101 8.57708 
4 1 2.15696 5.23557 6.42797 
6 1 3.3281 5.19616 11.2271 
9 1 3.32979 3.95141 11.9539 
11 1 3.35977 5.17482 9.79728 
12 1 3.32616 6.51904 11.8303 
14 1 3.40336 5.23387 7.14231 
33 2 3.50367 5.75727 13.5642 
34 3 3.61993 5.3068 14.375 
ITEM: TIMESTEP
70
ITEM: NUMBER OF ATOMS
34
ITEM: BOX BOUNDS pp pp pp
0.0000000000000000e+00 7.0970000000000004e+00
0.0000000000000000e+00 7.0970000000000004e+00
0.0000000000000000e+00 2.4588000000000001e+01
ITEM: ATOMS id type x y z 
2 1 3.33583 1.65133 13.2818 
5 1 4.64546 1.57951 18.1283 
7 1 3.39342 1.59412 15.9476 
8 1 2.17116 1.58034 18.1299 
18 1 3.40727 1.58214 17.3926 
21 1 3.33401 2.90827 12.5782 
23 1 3.36985 1.60382 14.7286 
24 1 3.32612 0.476816 12.4591 
17 1 7.02488 2.87425 24.2713 
19 1 6.99369 1.62621 22.1072 
20 1 7.02538 0.394075 24.2787 
22 1 6.95663 1.5778 19.4479 
25 1 5.7039 1.57865 18.7357 
27 1 6.96797 1.60443 20.8872 
28 1 1.115 1.57823 18.7416 
30 1 7.02612 1.63483 23.5455 
10 1 6.95203 5.23774 5.09929 
13 1 7.0238 3.92959 0.296994 
15 1 6.99601 5.17952 2.44321 
16 1 7.02457 6.42948 0.29174 
26 1 7.023 5.17851 1.00689 
29 1 5.71157 5.23586 5.8243 
31 1 6.96943 5.20718 3.66333 
32 1 1.09673 5.23735 5.826 
1 1 4.65467 5.23474 6.43489 
3 1 3.38401 5.20071 8.57987 
4 1 2.15839 5.23665 6.42757 
6 1 3.32722 5.20246 11.2317 
9 1 3.33095 3.95982 11.9587 
11 1 3.35812 5.17223 9.80057 
12 1 3.32535 6.51532 11.8448 
14 1 3.40532 5.23533 7.14486 
33 2 3.50902 5.73528 13.5692 
34 3 3.61911 5.30843 14.4009 
ITEM: TIMESTEP
80
ITEM: NUMBER OF ATOMS
34
ITEM: BOX BOUNDS pp pp pp
0.0000000000000000e+00 7.0970000000000004e+00
0.0000000000000000e+00 7.0970000000000004e+00
0.0000000000000000e+00 2.4588000000000001e+01
ITEM: ATOMS id type x y z 
2 1 3.33709 1.66845 13.2826 
5 1 4.65434 1.5781 18.1042 
7 1 3.39038 1.59398 15.9429 
8 1 2.16859 1.57808 18.115 
18 1 3.40875 1.57507 17.3822 
21 1 3.33324 2.93069 12.5934 
23 1 3.36743 1.60732 14.7231 
24 1 3.32445 0.478388 12.4808 
17 1 7.02627 2.87332 24.2647 
19 1 6.98853 1.6215 22.0986 
20 1 7.02522 0.388725 24.2629 
22 1 6.95532 1.5804 19.4374 
25 1 5.70193 1.58122 18.7305 
27 1 6.97244 1.6007 20.8786 
28 1 1.11177 1.57982 18.7249 
30 1 7.02654 1.62941 23.5368 
10 1 6.95447 5.23785 5.09731 
13 1 7.02501 3.93114 0.284586 
15 1 6.9964 5.18531 2.4393 
16 1 7.02441 6.43102 0.2899 
26 1 7.02314 5.18275 0.998138 
29 1 5.70843 5.23702 5.81925 
31 1 6.96728 5.21547 3.65874 
32 1 1.10134 5.23351 5.82055 
1 1 4.65427 5.2318 6.43368 
3 1 3.3773 5.20017 8.58206 
4 1 2.16202 5.23349 6.42467 
6 1 3.32685 5.21442 11.2369 
9 1 3.32979 3.97676 11.9645 
11 1 3.35707 5.17097 9.80247 
12 1 3.32286 6.50601 11.8856 
14 1 3.40332 5.23525 7.14569 
33 2 3.52227 5.67997 13.6015 
34 3 3.61747 5.31291 14.4626 
ITEM: TIMESTEP
90
ITEM: NUMBER OF ATOMS
34
ITEM: BOX BOUNDS pp pp pp
0.0000000000000000e+00 7.0970000000000004e+00
0.0000000000000000e+00 7.0970000000000004e+00
0.0000000000000000e+00 2.4588000000000001e+01
ITEM: ATOMS id type x y z 
2 1 3.33664 1.66826 13.2819 
5 1 4.65441 1.57817 18.105 
7 1 3.39062 1.59319 15.9432 
8 1 2.16771 1.57747 18.1147 
18 1 3.4086 1.57583 17.3839 
21 1 3.33308 2.93049 12.5926 
23 1 3.3667 1.60865 14.7236 
24 1 3.32493 0.477574 12.4834 
17 1 7.02496 2.87343 24.2636 
19 1 6.99449 1.62172 22.0973 
20 1 7.02503 0.389135 24.2635 
22 1 6.95639 1.58073 19.4384 
25 1 5.70343 1.57976 18.7286 
27 1 6.96869 1.60282 20.8774 
28 1 1.11069 1.57888 18.7245 
30 1 7.02489 1.63056 23.5369 
10 1 6.95396 5.23766 5.09715 
13 1 7.0251 3.93107 0.284398 
15 1 6.99401 5.18837 2.43848 
16 1 7.02458 6.43063 0.288282 
26 1 7.02479 5.1803 1.00002 
29 1 5.70877 5.23605 5.81758 
31 1 6.96828 5.21068 3.6584 
32 1 1.09992 5.23614 5.81977 
1 1 4.65545 5.23456 6.43381 
3 1 3.37889 5.19925 8.58129 
4 1 2.16073 5.23436 6.4233 
6 1 3.32649 5.21367 11.234 
9 1 3.33008 3.97815 11.9661 
11 1 3.35522 5.17304 9.80195 
12 1 3.32379 6.50588 11.8873 
14 1 3.40469 5.23205 7.14568 
33 2 3.52208 5.6808 13.6053 
34 3 3.61792 5.3117 14.4648 
ITEM: TIMESTEP
100
ITEM: NUMBER OF ATOMS
34
ITEM: BOX BOUNDS pp pp pp
0.0000000000000000e+00 7.0970000000000004e+00
0.0000000000000000e+00 7.0970000000000004e+00
0.0000000000000000e+00 2.4588000000000001e+01
ITEM: ATOMS id type x y z 
2 1 3.33433 1.6699 13.2831 
5 1 4.65345 1.57479 18.1079 
7 1 3.38956 1.59528 15.9455 
8 1 2.16507 1.57542 18.1119 
18 1 3.40812 1.5712 17.3871 
21 1 3.33154 2.93121 12.588 
23 1 3.36425 1.61625 14.7263 
24 1 3.32944 0.467607 12.5016 
17 1 7.02365 2.87711 24.255 
19 1 6.99492 1.62071 22.0968 
20 1 7.02515 0.389443 24.2627 
22 1 6.95707 1.58276 19.4388 
25 1 5.71247 1.57929 18.7145 
27 1 6.96983 1.60275 20.8768 
28 1 1.10599 1.57995 18.7183 
30 1 7.02525 1.63295 23.5355 
10 1 6.95172 5.23916 5.09223 
13 1 7.02484 3.93035 0.284322 
15 1 6.99405 5.18972 2.4348 
16 1 7.02543 6.42697 0.279552 
26 1 7.02503 5.1775 0.99858 
29 1 5.71003 5.23559 5.81384 
31 1 6.96873 5.21184 3.65497 
32 1 1.09909 5.23687 5.81512 
1 1 4.65694 5.23101 6.43101 
3 1 3.37822 5.20524 8.57424 
4 1 2.1592 5.23193 6.41946 
6 1 3.32444 5.21548 11.2288 
9 1 3.32854 3.98642 11.9747 
11 1 3.3533 5.18187 9.7953 
12 1 3.32788 6.49731 11.9013 
14 1 3.40631 5.22747 7.13867 
33 2 3.52075 5.68736 13.6336 
34 3 3.62142 5.30229 14.4857 
ITEM: TIMESTEP
110
ITEM: NUMBER OF ATOMS
34
ITEM: BOX BOUNDS pp pp pp
0.0000000000000000e+00 7.0970000000000004e+00
0.0000000000000000e+00 7.0970000000000004e+00
0.0000000000000000e+00 2.4588000000000001e+01
ITEM: ATOMS id type x y z 
2 1 3.33515 1.67082 13.2831 
5 1 4.6534 1.57499 18.1071 
7 1 3.38931 1.59601 15.9446 
8 1 2.16581 1.57475 18.1115 
18 1 3.40816 1.57047 17.3855 
21 1 3.33093 2.93174 12.5888 
23 1 3.3647 1.61803 14.7251 
24 1 3.32879 0.466253 12.5043 
17 1 7.02494 2.87744 24.2538 
19 1 6.99467 1.62028 22.0964 
20 1 7.02531 0.389756 24.2622 
22 1 6.95698 1.58367 19.4371 
25 1 5.71234 1.57878 18.7138 
27 1 6.96951 1.60343 20.8764 
28 1 1.10575 1.57858 18.7163 
30 1 7.02477 1.63113 23.5354 
10 1 6.95332 5.23969 5.09202 
13 1 7.02469 3.93007 0.283355 
15 1 6.99406 5.18989 2.43409 
16 1 7.02523 6.42614 0.278014 
26 1 7.02498 5.17945 0.996446 
29 1 5.70901 5.23539 5.81298 
31 1 6.96843 5.21241 3.65411 
32 1 1.09926 5.23562 5.81483 
1 1 4.65631 5.23187 6.43048 
3 1 3.3788 5.20428 8.57604 
4 1 2.16017 5.23188 6.4181 
6 1 3.32503 5.21615 11.2306 
9 1 3.32795 3.98559 11.973 
11 1 3.35376 5.18454 9.79627 
12 1 3.32725 6.49651 11.906 
14 1 3.40453 5.22674 7.13935 
33 2 3.52106 5.68663 13.6384 
34 3 3.62165 5.30201 14.4905 
ITEM: TIMESTEP
120
ITEM: NUMBER OF ATOMS
34
ITEM: BOX BOUNDS pp pp pp
0.0000000000000000e+00 7.0970000000000004e+00
0.0000000000000000e+00 7.0970000000000004e+00
0.0000000000000000e+00 2.4588000000000001e+01
ITEM: ATOMS id type x y z 
2 1 3.33542 1.67296 13.2831 
5 1 4.65483 1.57411 18.1024 
7 1 3.38978 1.59659 15.9437 
8 1 2.16553 1.57451 18.1089 
18 1 3.4083 1.56818 17.3836 
21 1 3.33099 2.93287 12.5894 
23 1 3.36506 1.62211 14.7243 
24 1 3.32736 0.465854 12.5093 
17 1 7.02513 2.87623 24.2536 
19 1 6.99473 1.61959 22.0937 
20 1 7.02499 0.388457 24.2591 
22 1 6.95669 1.58361 19.434 
25 1 5.70982 1.57864 18.7161 
27 1 6.96891 1.60356 20.8738 
28 1 1.10718 1.57871 18.7167 
30 1 7.02504 1.63188 23.5323 
10 1 6.95267 5.24014 5.09124 
13 1 7.02507 3.93111 0.279537 
15 1 6.99494 5.19054 2.4335 
16 1 7.02496 6.42637 0.277293 
26 1 7.02496 5.17934 0.994615 
29 1 5.70853 5.23493 5.81299 
31 1 6.96767 5.21395 3.6534 
32 1 1.10065 5.23544 5.81319 
1 1 4.65448 5.23068 6.42817 
3 1 3.37786 5.2044 8.57781 
4 1 2.16116 5.23122 6.41679 
6 1 3.32589 5.21741 11.2325 
9 1 3.32829 3.9838 11.9685 
11 1 3.35412 5.18868 9.79861 
12 1 3.3261 6.49309 11.9143 
14 1 3.40502 5.22589 7.1413 
33 2 3.52199 5.6837 13.6473 
34 3 3.62187 5.30247 14.501 
ITEM: TIMESTEP
130
ITEM: NUMBER OF ATOMS
34
ITEM: BOX BOUNDS pp pp pp
0.0000000000000000e+00 7.0970000000000004e+00
0.0000000000000000e+00 7.0970000000000004e+00
0.0000000000000000e+00 2.4588000000000001e+01
ITEM: ATOMS id type x y z 
2 1 3.335 1.67292 13.2831 
5 1 4.65498 1.57382 18.102 
7 1 3.38997 1.59722 15.9438 
8 1 2.16558 1.5738 18.109 
18 1 3.40825 1.5683 17.3837 
21 1 3.33113 2.9329 12.5889 
23 1 3.365 1.62227 14.7243 
24 1 3.32747 0.465381 12.5099 
17 1 7.02507 2.87641 24.2532 
19 1 6.99459 1.61965 22.0935 
20 1 7.02524 0.388704 24.2586 
22 1 6.95681 1.58415 19.4344 
25 1 5.70967 1.57854 18.7161 
27 1 6.96896 1.60347 20.8736 
28 1 1.10701 1.57847 18.7163 
30 1 7.0249 1.63123 23.5326 
10 1 6.95296 5.24029 5.09147 
13 1 7.02516 3.93107 0.279424 
15 1 6.99416 5.19091 2.43317 
16 1 7.02521 6.42658 0.276856 
26 1 7.02506 5.17931 0.994929 
29 1 5.70842 5.2351 5.81276 
31 1 6.96805 5.21347 3.65313 
32 1 1.10062 5.23546 5.8129 
1 1 4.65455 5.23063 6.42819 
3 1 3.37807 5.20539 8.57756 
4 1 2.16113 5.23104 6.41671 
6 1 3.32555 5.2174 11.2323 
9 1 3.32843 3.98408 11.9683 
11 1 3.35402 5.18879 9.79812 
12 1 3.3263 6.49311 11.9152 
14 1 3.40467 5.22524 7.14084 
33 2 3.52205 5.68344 13.6486 
34 3 3.62193 5.30245 14.5023 
ITEM: TIMESTEP
140
ITEM: NUMBER OF ATOMS
34
ITEM: BOX BOUNDS pp pp pp
0.0000000000000000e+00 7.0970000000000004e+00
0.0000000000000000e+00 7.0970000000000004e+00
0.0000000000000000e+00 2.4588000000000001e+01
ITEM: ATOMS id type x y z 
2 1 3.33356 1.67487 13.2831 
5 1 4.65696 1.57257 18.0985 
7 1 3.39114 1.59904 15.9437 
8 1 2.16538 1.57166 18.1087 
18 1 3.40844 1.5655 17.3835 
21 1 3.33062 2.93267 12.584 
23 1 3.36488 1.62799 14.7244 
24 1 3.32766 0.461543 12.5185 
17 1 7.02519 2.87786 24.2498 
19 1 6.9945 1.61938 22.0932 
20 1 7.02555 0.38752 24.2557 
22 1 6.95655 1.58492 19.4343 
25 1 5.70943 1.57805 18.7164 
27 1 6.96887 1.60396 20.8732 
28 1 1.10531 1.57767 18.7133 
30 1 7.02501 1.63112 23.5319 
10 1 6.95282 5.24103 5.08966 
13 1 7.02521 3.93139 0.277848 
15 1 6.99414 5.19202 2.43166 
16 1 7.02552 6.42523 0.273759 
26 1 7.02517 5.17934 0.993682 
29 1 5.70814 5.23489 5.81038 
31 1 6.96736 5.21448 3.65163 
32 1 1.1006 5.23483 5.81026 
1 1 4.65511 5.22956 6.42727 
3 1 3.37804 5.20782 8.57509 
4 1 2.16068 5.2295 6.41491 
6 1 3.32562 5.21937 11.2306 
9 1 3.32819 3.98515 11.9658 
11 1 3.3538 5.19552 9.79569 
12 1 3.32672 6.48881 11.9244 
14 1 3.40439 5.22283 7.13812 
33 2 3.5228 5.68058 13.6643 
34 3 3.62263 5.30231 14.519 
ITEM: TIMESTEP
150
ITEM: NUMBER OF ATOMS
34
ITEM: BOX BOUNDS pp pp pp
0.0000000000000000e+00 7.0970000000000004e+00
0.0000000000000000e+00 7.0970000000000004e+00
0.0000000000000000e+00 2.4588000000000001e+01
ITEM: ATOMS id type x y z 
2 1 3.33315 1.67673 13.2826 
5 1 4.6549 1.56978 18.0995 
7 1 3.3918 1.60083 15.9421 
8 1 2.16542 1.572 18.1059 
18 1 3.40792 1.56247 17.3812 
21 1 3.32969 2.93244 12.5816 
23 1 3.36494 1.63417 14.7229 
24 1 3.32699 0.458748 12.5266 
17 1 7.02577 2.87655 24.2494 
19 1 6.99454 1.62012 22.0908 
20 1 7.02533 0.387914 24.2537 
22 1 6.95716 1.58497 19.4317 
25 1 5.70976 1.57685 18.7131 
27 1 6.96919 1.60314 20.8708 
28 1 1.10671 1.57823 18.7131 
30 1 7.02524 1.63081 23.5295 
10 1 6.95279 5.24164 5.0884 
13 1 7.02601 3.93166 0.274743 
15 1 6.99388 5.19307 2.42969 
16 1 7.02533 6.4252 0.271135 
26 1 7.02543 5.17956 0.991044 
29 1 5.70757 5.23406 5.81039 
31 1 6.96676 5.21522 3.64958 
32 1 1.10106 5.23502 5.80923 
1 1 4.65323 5.2275 6.42473 
3 1 3.37864 5.21032 8.57692 
4 1 2.16207 5.22913 6.41231 
6 1 3.32617 5.22071 11.2326 
9 1 3.32804 3.98266 11.9594 
11 1 3.35447 5.20151 9.79751 
12 1 3.32641 6.48483 11.9345 
14 1 3.40351 5.22093 7.13948 
33 2 3.52321 5.67931 13.6773 
34 3 3.62292 5.30293 14.5326 
ITEM: TIMESTEP
160
ITEM: NUMBER OF ATOMS
34
ITEM: BOX BOUNDS pp pp pp
-1.8433564324335239e-03 7.0988433564324351e+00
-2.0314383504884508e-03 7.0990314383504876e+00
-1.2294000000000003e-02 2.4600293999999998e+01
ITEM: ATOMS id type x y z 
2 1 3.33304 1.67566 13.2836 
5 1 4.65549 1.56866 18.1053 
7 1 3.39172 1.59972 15.9458 
8 1 2.16469 1.57087 18.1117 
18 1 3.40784 1.56133 17.3863 
21 1 3.32958 2.9321 12.5819 
23 1 3.36484 1.63307 14.7253 
24 1 3.32687 0.456957 12.5268 
17 1 7.02757 2.87618 24.2614 
19 1 6.99633 1.61902 22.1005 
20 1 7.02713 0.38609 24.2657 
22 1 6.95893 1.58385 19.4389 
25 1 5.71087 1.57571 18.7195 
27 1 6.97096 1.60203 20.8794 
28 1 1.10546 1.5771 18.7195 
30 1 7.02705 1.62972 23.5407 
10 1 6.95456 5.24261 5.08119 
13 1 7.02782 3.93187 0.262716 
15 1 6.99567 5.19401 2.41985 
16 1 7.02714 6.42686 0.259104 
26 1 7.02724 5.1805 0.979743 
29 1 5.70868 5.23502 5.80391 
31 1 6.96854 5.21617 3.64091 
32 1 1.0998 5.23598 5.80275 
1 1 4.65382 5.22846 6.41885 
3 1 3.37855 5.21127 8.57323 
4 1 2.16133 5.23009 6.40643 
6 1 3.32605 5.22167 11.2315 
9 1 3.32793 3.9829 11.959 
11 1 3.35437 5.20246 9.79498 
12 1 3.32631 6.48653 11.9342 
14 1 3.40343 5.22188 7.13433 
33 2 3.52319 5.68053 13.6787 
34 3 3.62296 5.30393 14.5349 
ITEM: TIMESTEP
170
ITEM: NUMBER OF ATOMS
34
ITEM: BOX BOUNDS pp pp pp
-4.4637822965000670e-03 7.1014637822965021e+00
-4.8321181500094743e-03 7.1018321181500097e+00
-2.4052387967564148e-02 2.4612052387967559e+01
ITEM: ATOMS id type x y z 
2 1 3.33287 1.67418 13.2845 
5 1 4.65641 1.56712 18.1109 
7 1 3.3916 1.59819 15.9491 
8 1 2.16357 1.56928 18.1173 
18 1 3.40774 1.55977 17.3912 
21 1 3.32942 2.93172 12.5821 
23 1 3.36471 1.63156 14.7278 
24 1 3.3267 0.454359 12.527 
17 1 7.03014 2.87576 24.2729 
19 1 6.99889 1.61748 22.1097 
20 1 7.0297 0.383488 24.2772 
22 1 6.96144 1.58231 19.4457 
25 1 5.71237 1.57414 18.7256 
27 1 6.97348 1.60052 20.8877 
28 1 1.10375 1.57553 18.7256 
30 1 7.02961 1.6282 23.5515 
10 1 6.95707 5.24394 5.07429 
13 1 7.03037 3.93206 0.251161 
15 1 6.9982 5.19531 2.4106 
16 1 7.02972 6.42923 0.247546 
26 1 7.02981 5.18178 0.968946 
29 1 5.71018 5.23634 5.79776 
31 1 6.97107 5.21749 3.63246 
32 1 1.09809 5.23732 5.7966 
1 1 4.65474 5.22981 6.41318 
3 1 3.37843 5.21258 8.56987 
4 1 2.16021 5.23141 6.40075 
6 1 3.32588 5.223 11.2305 
9 1 3.32776 3.98314 11.9588 
11 1 3.35423 5.20377 9.79239 
12 1 3.32617 6.48898 11.9339 
14 1 3.40333 5.2232 7.1294 
33 2 3.52317 5.68221 13.6801 
34 3 3.62301 5.30532 14.537 
ITEM: TIMESTEP
179
ITEM: NUMBER OF ATOMS
34
ITEM: BOX BOUNDS pp pp pp
-4.8335332242344419e-03 7.1018335332242355e+00
-5.1244847256149417e-03 7.1021244847256151e+00
-2.4667612071229965e-02 2.4612667612071220e+01
ITEM: ATOMS id type x y z 
2 1 3.33285 1.67402 13.2846 
5 1 4.65655 1.56696 18.1112 
7 1 3.39158 1.59803 15.9492 
8 1 2.1634 1.56912 18.1176 
18 1 3.40773 1.55961 17.3914 
21 1 3.3294 2.93169 12.5821 
23 1 3.36469 1.6314 14.728 
24 1 3.32667 0.454047 12.527 
17 1 7.0305 2.87573 24.2735 
19 1 6.99925 1.61732 22.1102 
20 1 7.03007 0.3832 24.2778 
22 1 6.9618 1.58215 19.4461 
25 1 5.71256 1.57397 18.7259 
27 1 6.97384 1.60036 20.8882 
28 1 1.10352 1.57536 18.7259 
30 1 7.02997 1.62805 23.552 
10 1 6.95743 5.24408 5.07393 
13 1 7.03073 3.93207 0.250544 
15 1 6.99856 5.19545 2.41015 
16 1 7.03008 6.4295 0.246928 
26 1 7.03017 5.18192 0.968383 
29 1 5.71037 5.23648 5.79745 
31 1 6.97143 5.21762 3.63198 
32 1 1.09786 5.23746 5.79629 
1 1 4.65488 5.22995 6.41287 
3 1 3.37841 5.21272 8.56973 
4 1 2.16004 5.23155 6.40044 
6 1 3.32586 5.22314 11.2305 
9 1 3.32774 3.98315 11.9588 
11 1 3.35421 5.20391 9.79221 
12 1 3.32615 6.48928 11.9339 
14 1 3.40332 5.22334 7.12915 
33 2 3.52317 5.68239 13.6801 
34 3 3.62302 5.30547 14.5371 
ITEM: TIMESTEP
180
ITEM: NUMBER OF ATOMS
34
ITEM: BOX BOUNDS pp pp pp
-4.8335332242344419e-03 7.1018335332242355e+00
-5.1244847256149417e-03 7.1021244847256151e+00
-2.4667612071229965e-02 2.4612667612071220e+01
ITEM: ATOMS id type x y z 
2 1 3.33284 1.674 13.2846 
5 1 4.65697 1.56703 18.1114 
7 1 3.39157 1.59807 15.9484 
8 1 2.163 1.56905 18.1179 
18 1 3.40773 1.55963 17.3914 
21 1 3.32941 2.93234 12.5817 
23 1 3.36471 1.63138 14.7288 
24 1 3.32665 0.453131 12.5265 
17 1 7.0305 2.87617 24.2737 
19 1 6.99927 1.61728 22.1095 
20 1 7.03007 0.382778 24.278 
22 1 6.96179 1.58217 19.4461 
25 1 5.71216 1.57392 18.7257 
27 1 6.97384 1.60043 20.8888 
28 1 1.1039 1.57532 18.7256 
30 1 7.02995 1.62805 23.552 
10 1 6.95742 5.24407 5.0739 
13 1 7.0307 3.93165 0.250306 
15 1 6.99852 5.19547 2.4108 
16 1 7.0301 6.42991 0.246695 
26 1 7.03019 5.18192 0.968421 
29 1 5.70997 5.23644 5.79767 
31 1 6.97146 5.21762 3.63135 
32 1 1.09825 5.23747 5.7965 
1 1 4.65529 5.23001 6.41265 
3 1 3.3784 5.21272 8.57044 
4 1 2.15962 5.23152 6.40022 
6 1 3.32583 5.22319 11.2304 
9 1 3.32773 3.98244 11.9592 
11 1 3.35422 5.20393 9.79149 
12 1 3.32621 6.49018 11.9345 
14 1 3.40333 5.22332 7.12916 
33 2 3.52317 5.68239 13.6802 
34 3 3.62301 5.30548 14.5371 
ITEM: TIMESTEP
190
ITEM: NUMBER OF ATOMS
34
ITEM: BOX BOUNDS pp pp pp
-4.8335332242344419e-03 7.1018335332242355e+00
-5.1244847256149417e-03 7.1021244847256151e+00
-2.4667612071229965e-02 2.4612667612071220e+01
ITEM: ATOMS id type x y z 
2 1 3.33234 1.67417 13.2852 
5 1 4.65794 1.56795 18.111 
7 1 3.39185 1.59883 15.9486 
8 1 2.16242 1.56731 18.1182 
18 1 3.40797 1.5602 17.3913 
21 1 3.32972 2.93221 12.5802 
23 1 3.36462 1.63196 14.7295 
24 1 3.32702 0.452067 12.5279 
17 1 7.02998 2.87707 24.2733 
19 1 6.99952 1.61688 22.1091 
20 1 7.0304 0.381901 24.2776 
22 1 6.96152 1.58225 19.4468 
25 1 5.71191 1.57453 18.7259 
27 1 6.97387 1.60116 20.8892 
28 1 1.10365 1.57412 18.7249 
30 1 7.02975 1.62817 23.5515 
10 1 6.9572 5.24364 5.07334 
13 1 7.03011 3.9313 0.250418 
15 1 6.99837 5.1958 2.41141 
16 1 7.03045 6.43014 0.246511 
26 1 7.03008 5.18188 0.969354 
29 1 5.70954 5.23657 5.79708 
31 1 6.97166 5.21764 3.63116 
32 1 1.09862 5.23698 5.79582 
1 1 4.65605 5.23051 6.41272 
3 1 3.3786 5.21336 8.56968 
4 1 2.15851 5.23077 6.40045 
6 1 3.32583 5.22362 11.229 
9 1 3.32788 3.98242 11.9584 
11 1 3.35424 5.20528 9.79002 
12 1 3.32646 6.48825 11.937 
14 1 3.40357 5.22313 7.12857 
33 2 3.52323 5.68225 13.6822 
34 3 3.62288 5.30615 14.5377 
ITEM: TIMESTEP
200
ITEM: NUMBER OF ATOMS
34
ITEM: BOX BOUNDS pp pp pp
-4.8335332242344419e-03 7.1018335332242355e+00
-5.1244847256149417e-03 7.1021244847256151e+00
-2.4667612071229965e-02 2.4612667612071220e+01
ITEM: ATOMS id type x y z 
2 1 3.33205 1.6749 13.285 
5 1 4.65897 1.56724 18.1095 
7 1 3.39245 1.60086 15.9487 
8 1 2.16164 1.56793 18.1173 
18 1 3.40807 1.56048 17.3916 
21 1 3.32978 2.93074 12.5756 
23 1 3.3648 1.63532 14.7297 
24 1 3.32718 0.447945 12.5353 
17 1 7.02979 2.8782 24.2716 
19 1 6.99964 1.61718 22.1094 
20 1 7.02969 0.380827 24.2756 
22 1 6.9614 1.58165 19.4471 
25 1 5.71185 1.57363 18.7263 
27 1 6.97467 1.60095 20.8896 
28 1 1.1029 1.57421 18.724 
30 1 7.02939 1.62829 23.5517 
10 1 6.95713 5.24246 5.07244 
13 1 7.02986 3.93129 0.250641 
15 1 6.99825 5.19685 2.41087 
16 1 7.02972 6.42987 0.245865 
26 1 7.02961 5.18202 0.969157 
29 1 5.70912 5.23578 5.79521 
31 1 6.97187 5.21774 3.63065 
32 1 1.09866 5.23582 5.79389 
1 1 4.65658 5.2299 6.41243 
3 1 3.37923 5.21625 8.56769 
4 1 2.15715 5.22987 6.40103 
6 1 3.32683 5.22401 11.2274 
9 1 3.32835 3.98119 11.9541 
11 1 3.35507 5.21083 9.78798 
12 1 3.32691 6.48374 11.9449 
14 1 3.40328 5.22285 7.12651 
33 2 3.52309 5.68267 13.6878 
34 3 3.6228 5.30697 14.5446 
ITEM: TIMESTEP
210
ITEM: NUMBER OF ATOMS
34
ITEM: BOX BOUNDS pp pp pp
-4.8335332242344419e-03 7.1018335332242355e+00
-5.1244847256149417e-03 7.1021244847256151e+00
-2.4667612071229965e-02 2.4612667612071220e+01
ITEM: ATOMS id type x y z 
2 1 3.33165 1.67487 13.2854 
5 1 4.65841 1.56882 18.1098 
7 1 3.39275 1.60239 15.9482 
8 1 2.16183 1.56669 18.1166 
18 1 3.40798 1.56115 17.3902 
21 1 3.33001 2.92912 12.5729 
23 1 3.36458 1.63749 14.729 
24 1 3.32776 0.446129 12.539 
17 1 7.02915 2.87741 24.2721 
19 1 6.99966 1.61743 22.1085 
20 1 7.02975 0.381563 24.2754 
22 1 6.96166 1.58082 19.4466 
25 1 5.71171 1.57471 18.7257 
27 1 6.97506 1.60068 20.8886 
28 1 1.10321 1.57285 18.7234 
30 1 7.0291 1.62846 23.5505 
10 1 6.95682 5.24149 5.07161 
13 1 7.02917 3.9315 0.249397 
15 1 6.99799 5.19725 2.40982 
16 1 7.02979 6.42979 0.244237 
26 1 7.02934 5.1822 0.968041 
29 1 5.70892 5.23503 5.79544 
31 1 6.97166 5.2175 3.62962 
32 1 1.09826 5.23519 5.79471 
1 1 4.65523 5.22951 6.41065 
3 1 3.38032 5.21825 8.56896 
4 1 2.15805 5.22969 6.39941 
6 1 3.32702 5.22457 11.2282 
9 1 3.32863 3.9789 11.9505 
11 1 3.35571 5.21455 9.78931 
12 1 3.32747 6.48282 11.9471 
14 1 3.40326 5.22289 7.12791 
33 2 3.52327 5.68125 13.6944 
34 3 3.62262 5.30749 14.5497 
ITEM: TIMESTEP
220
ITEM: NUMBER OF ATOMS
34
ITEM: BOX BOUNDS pp pp pp
-4.8335332242344419e-03 7.1018335332242355e+00
-5.1244847256149417e-03 7.1021244847256151e+00
-2.4667612071229965e-02 2.4612667612071220e+01
ITEM: ATOMS id type x y z 
2 1 3.33208 1.67524 13.2847 
5 1 4.65858 1.56708 18.1096 
7 1 3.3925 1.6031 15.9485 
8 1 2.1618 1.56879 18.1165 
18 1 3.40833 1.56168 17.3915 
21 1 3.32973 2.92837 12.5711 