LAMMPS (3 Mar 2020)
# Alpha
clear
units		real
dimension 3
boundary        p p p
atom_style	charge
newton on
read_data       O_1.lmp
  orthogonal box = (0 0 0) to (19.018 19.018 19.018)
  2 by 2 by 2 MPI processor grid
  reading atoms ...
  321 atoms
  read_data CPU = 0.00395914 secs

timestep 0.25

# ---------- Define Interatomic Potential ---------------------
pair_style      reax/c NULL checkqeq no
pair_coeff      * * ffield.reax C O
WARNING: Changed valency_val to valency_boc for X (../reaxc_ffield.cpp:315)
fix             2 all qeq/reax 1 0.0 10.0 1.0e-6 reax/c

#------------ Equilibration of the system -------------------------
reset_timestep 0

dump 1 all custom 10 min.lammpstrj id type x y z

minimize 1.0e-8 1.0e-8 100000 100000
WARNING: Using 'neigh_modify every 1 delay 0 check yes' setting during minimization (../min.cpp:190)
Neighbor list info ...
  update every 1 steps, delay 0 steps, check yes
  max neighbors/atom: 2000, page size: 100000
  master list distance cutoff = 12
  ghost atom cutoff = 12
  binsize = 6, bins = 4 4 4
  2 neighbor lists, perpetual/occasional/extra = 2 0 0
  (1) pair reax/c, perpetual
      attributes: half, newton off, ghost
      pair build: half/bin/newtoff/ghost
      stencil: half/ghost/bin/3d/newtoff
      bin: standard
  (2) fix qeq/reax, perpetual, copy from (1)
      attributes: half, newton off, ghost
      pair build: copy
      stencil: none
      bin: none
Per MPI rank memory allocation (min/avg/max) = 38.93 | 39.02 | 39.13 Mbytes
Step Temp E_pair E_mol TotEng Press 
       0            0   -58082.337            0   -58082.337    748691.82 
      52            0   -60013.215            0   -60013.215    19669.663 
Loop time of 3.71812 on 8 procs for 52 steps with 321 atoms

99.0% CPU use with 8 MPI tasks x no OpenMP threads

Minimization stats:
  Stopping criterion = energy tolerance
  Energy initial, next-to-last, final = 
        -58082.3367344     -60013.2148618     -60013.2153937
  Force two-norm initial, final = 4468.45 53.3859
  Force max component initial, final = 326.819 24.6389
  Final line search alpha, max atom move = 3.38752e-05 0.000834647
  Iterations, force evaluations = 52 209

MPI task timing breakdown:
Section |  min time  |  avg time  |  max time  |%varavg| %total
---------------------------------------------------------------
Pair    | 2.9515     | 3.2051     | 3.2909     |   5.9 | 86.20
Neigh   | 0          | 0          | 0          |   0.0 |  0.00
Comm    | 0.02001    | 0.1059     | 0.35943    |  32.4 |  2.85
Output  | 0.00032847 | 0.00039835 | 0.00054564 |   0.0 |  0.01
Modify  | 0.40282    | 0.40306    | 0.40323    |   0.0 | 10.84
Other   |            | 0.003651   |            |       |  0.10

Nlocal:    40.125 ave 53 max 28 min
Histogram: 4 0 0 0 0 0 0 0 0 4
Nghost:    1678.38 ave 1694 max 1663 min
Histogram: 3 0 1 0 0 0 0 0 3 1
Neighs:    11729 ave 15292 max 8358 min
Histogram: 4 0 0 0 0 0 0 0 0 4

Total # of neighbors = 93832
Ave neighs/atom = 292.312
Neighbor list builds = 0
Dangerous builds = 0

###
min_style cg
minimize 1.0e-8 1.0e-8 100000 100000
WARNING: Using 'neigh_modify every 1 delay 0 check yes' setting during minimization (../min.cpp:190)
Per MPI rank memory allocation (min/avg/max) = 38.98 | 39.03 | 39.09 Mbytes
Step Temp E_pair E_mol TotEng Press 
      52            0   -60013.215            0   -60013.215    19669.668 
      63            0   -60013.412            0   -60013.412    18676.218 
Loop time of 2.14162 on 8 procs for 11 steps with 321 atoms

99.1% CPU use with 8 MPI tasks x no OpenMP threads

Minimization stats:
  Stopping criterion = linesearch alpha is zero
  Energy initial, next-to-last, final = 
        -60013.2153894     -60013.4123227     -60013.4123241
  Force two-norm initial, final = 53.3859 12.6097
  Force max component initial, final = 24.6388 5.15577
  Final line search alpha, max atom move = 2.76725e-11 1.42673e-10
  Iterations, force evaluations = 11 125

MPI task timing breakdown:
Section |  min time  |  avg time  |  max time  |%varavg| %total
---------------------------------------------------------------
Pair    | 1.8585     | 1.926      | 1.9416     |   1.9 | 89.93
Neigh   | 0          | 0          | 0          |   0.0 |  0.00
Comm    | 0.014209   | 0.029855   | 0.097355   |  15.1 |  1.39
Output  | 5.0915e-05 | 6.5271e-05 | 9.5669e-05 |   0.0 |  0.00
Modify  | 0.18357    | 0.18367    | 0.18373    |   0.0 |  8.58
Other   |            | 0.002037   |            |       |  0.10

Nlocal:    40.125 ave 42 max 39 min
Histogram: 1 0 0 6 0 0 0 0 0 1
Nghost:    1678.38 ave 1682 max 1674 min
Histogram: 1 0 0 1 0 4 0 0 0 2
Neighs:    11955.8 ave 12456 max 11633 min
Histogram: 1 0 0 6 0 0 0 0 0 1

Total # of neighbors = 95646
Ave neighs/atom = 297.963
Neighbor list builds = 0
Dangerous builds = 0

###
fix 1 all box/relax aniso 0.0
min_style cg
minimize 1.0e-8 1.0e-8 100000 100000
WARNING: Using 'neigh_modify every 1 delay 0 check yes' setting during minimization (../min.cpp:190)
Per MPI rank memory allocation (min/avg/max) = 38.98 | 39.03 | 39.09 Mbytes
Step Temp E_pair E_mol TotEng Press Volume 
      63            0   -60013.412            0   -60013.412    18676.222    6878.5125 
     108            0   -60019.079            0   -60019.079    598.96899    6911.4776 
Loop time of 1.58639 on 8 procs for 45 steps with 321 atoms

99.0% CPU use with 8 MPI tasks x no OpenMP threads

Minimization stats:
  Stopping criterion = energy tolerance
  Energy initial, next-to-last, final = 
        -60013.4123219     -60019.0792919     -60019.0792924
  Force two-norm initial, final = 3245.09 138.257
  Force max component initial, final = 1883.98 60.6906
  Final line search alpha, max atom move = 6.28542e-12 3.81466e-10
  Iterations, force evaluations = 45 96

MPI task timing breakdown:
Section |  min time  |  avg time  |  max time  |%varavg| %total
---------------------------------------------------------------
Pair    | 1.4028     | 1.4788     | 1.4946     |   2.4 | 93.22
Neigh   | 0          | 0          | 0          |   0.0 |  0.00
Comm    | 0.0070705  | 0.022938   | 0.098899   |  19.2 |  1.45
Output  | 0.00020569 | 0.00025518 | 0.00035883 |   0.0 |  0.02
Modify  | 0.080331   | 0.080389   | 0.080438   |   0.0 |  5.07
Other   |            | 0.00404    |            |       |  0.25

Nlocal:    40.125 ave 42 max 39 min
Histogram: 1 0 0 6 0 0 0 0 0 1
Nghost:    1678.38 ave 1682 max 1674 min
Histogram: 1 0 0 1 0 4 0 0 0 2
Neighs:    11955.8 ave 12456 max 11633 min
Histogram: 1 0 0 6 0 0 0 0 0 1

Total # of neighbors = 95646
Ave neighs/atom = 297.963
Neighbor list builds = 0
Dangerous builds = 0

unfix 1
###
min_style cg
minimize 1.0e-8 1.0e-8 100000 100000
WARNING: Using 'neigh_modify every 1 delay 0 check yes' setting during minimization (../min.cpp:190)
Per MPI rank memory allocation (min/avg/max) = 38.97 | 39.02 | 39.09 Mbytes
Step Temp E_pair E_mol TotEng Press 
     108            0   -60019.079            0   -60019.079    598.96244 
     127            0   -60022.308            0   -60022.308    17973.383 
Loop time of 2.66836 on 8 procs for 19 steps with 321 atoms

99.1% CPU use with 8 MPI tasks x no OpenMP threads

Minimization stats:
  Stopping criterion = linesearch alpha is zero
  Energy initial, next-to-last, final = 
        -60019.0792974     -60022.3084917     -60022.3084934
  Force two-norm initial, final = 90.6311 19.7001
  Force max component initial, final = 6.56979 8.72009
  Final line search alpha, max atom move = 3.44713e-11 3.00593e-10
  Iterations, force evaluations = 19 155

MPI task timing breakdown:
Section |  min time  |  avg time  |  max time  |%varavg| %total
---------------------------------------------------------------
Pair    | 2.2321     | 2.3833     | 2.4124     |   3.7 | 89.32
Neigh   | 0          | 0          | 0          |   0.0 |  0.00
Comm    | 0.015523   | 0.044798   | 0.196      |  27.2 |  1.68
Output  | 9.8826e-05 | 0.00016624 | 0.00025478 |   0.0 |  0.01
Modify  | 0.23742    | 0.23753    | 0.23767    |   0.0 |  8.90
Other   |            | 0.002583   |            |       |  0.10

Nlocal:    40.125 ave 42 max 39 min
Histogram: 1 0 0 6 0 0 0 0 0 1
Nghost:    1678.38 ave 1682 max 1674 min
Histogram: 1 0 0 1 0 4 0 0 0 2
Neighs:    11828 ave 12350 max 11507 min
Histogram: 1 0 0 6 0 0 0 0 0 1

Total # of neighbors = 94624
Ave neighs/atom = 294.779
Neighbor list builds = 0
Dangerous builds = 0

###
fix 1 all box/relax aniso 0.0
min_style cg
minimize 1.0e-8 1.0e-8 100000 100000
WARNING: Using 'neigh_modify every 1 delay 0 check yes' setting during minimization (../min.cpp:190)
Per MPI rank memory allocation (min/avg/max) = 38.97 | 39.02 | 39.09 Mbytes
Step Temp E_pair E_mol TotEng Press Volume 
     127            0   -60022.308            0   -60022.308    17973.387    6911.4776 
     164            0   -60026.991            0   -60026.991     1118.063    6940.4113 
Loop time of 1.47889 on 8 procs for 37 steps with 321 atoms

99.2% CPU use with 8 MPI tasks x no OpenMP threads

Minimization stats:
  Stopping criterion = energy tolerance
  Energy initial, next-to-last, final = 
        -60022.3084908     -60026.9905406     -60026.9905418
  Force two-norm initial, final = 3137.96 215.603
  Force max component initial, final = 1817.96 125.504
  Final line search alpha, max atom move = 3.0395e-12 3.81468e-10
  Iterations, force evaluations = 37 90

MPI task timing breakdown:
Section |  min time  |  avg time  |  max time  |%varavg| %total
---------------------------------------------------------------
Pair    | 1.3598     | 1.3857     | 1.3948     |   0.9 | 93.70
Neigh   | 0          | 0          | 0          |   0.0 |  0.00
Comm    | 0.0059586  | 0.015121   | 0.041104   |   8.7 |  1.02
Output  | 0.00019485 | 0.0002453  | 0.00035498 |   0.0 |  0.02
Modify  | 0.073925   | 0.073991   | 0.07405    |   0.0 |  5.00
Other   |            | 0.003798   |            |       |  0.26

Nlocal:    40.125 ave 42 max 39 min
Histogram: 1 0 0 6 0 0 0 0 0 1
Nghost:    1678.38 ave 1682 max 1674 min
Histogram: 1 0 0 1 0 4 0 0 0 2
Neighs:    11818 ave 12339 max 11494 min
Histogram: 1 0 0 6 0 0 0 0 0 1

Total # of neighbors = 94544
Ave neighs/atom = 294.53
Neighbor list builds = 0
Dangerous builds = 0

unfix 1
###
min_style cg
minimize 1.0e-8 1.0e-8 100000 100000
WARNING: Using 'neigh_modify every 1 delay 0 check yes' setting during minimization (../min.cpp:190)
Per MPI rank memory allocation (min/avg/max) = 38.97 | 39.02 | 39.09 Mbytes
Step Temp E_pair E_mol TotEng Press 
     164            0   -60026.991            0   -60026.991    1118.0597 
     170            0   -60029.581            0   -60029.581    14766.975 
Loop time of 1.10311 on 8 procs for 6 steps with 321 atoms

99.2% CPU use with 8 MPI tasks x no OpenMP threads

Minimization stats:
  Stopping criterion = energy tolerance
  Energy initial, next-to-last, final = 
        -60026.9905438      -60029.581476     -60029.5814781
  Force two-norm initial, final = 85.0915 18.2725
  Force max component initial, final = 6.79092 5.39369
  Final line search alpha, max atom move = 3.24991e-11 1.7529e-10
  Iterations, force evaluations = 6 65

MPI task timing breakdown:
Section |  min time  |  avg time  |  max time  |%varavg| %total
---------------------------------------------------------------
Pair    | 1.0008     | 1.0083     | 1.0133     |   0.4 | 91.41
Neigh   | 0          | 0          | 0          |   0.0 |  0.00
Comm    | 0.0053948  | 0.010441   | 0.018026   |   4.2 |  0.95
Output  | 0          | 0          | 0          |   0.0 |  0.00
Modify  | 0.083231   | 0.083284   | 0.083365   |   0.0 |  7.55
Other   |            | 0.001035   |            |       |  0.09

Nlocal:    40.125 ave 42 max 39 min
Histogram: 1 0 0 6 0 0 0 0 0 1
Nghost:    1678.38 ave 1682 max 1674 min
Histogram: 1 0 0 1 0 4 0 0 0 2
Neighs:    11683.2 ave 12208 max 11364 min
Histogram: 1 0 0 6 0 0 0 0 0 1

Total # of neighbors = 93466
Ave neighs/atom = 291.171
Neighbor list builds = 0
Dangerous builds = 0

undump 1
#############
#----------- Thermo ------------
reset_timestep 0
thermo  200

thermo_style    custom step temp etotal ke pe press
velocity all create 300 12345 mom yes rot yes
fix 1 all npt temp 300 300 25.0 iso 0.0 0.0 250.0

variable vpe equal pe
variable vtemp equal temp
variable vstep equal step

fix output all print 2500 "${vstep} ${vtemp} ${vpe}" file temp-tpdh-Pt.dat screen no

dump 1 all custom 2500 thermo-tpdh-Pt.lammpstrj id type x y z

run 1000000
Per MPI rank memory allocation (min/avg/max) = 37.85 | 37.9 | 37.96 Mbytes
Step Temp TotEng KinEng PotEng Press 
       0          300   -59743.424    286.15776   -60029.581    16651.722 
     200    265.26061   -59690.646    253.02128   -59943.667   -7268.8026 
     400    258.93734   -59578.946    246.98977   -59825.936   -8974.9365 
     600    307.18155   -59554.299    293.00795   -59847.307   -630.47511 
     800    297.99658   -59560.714    284.24678   -59844.961   -5401.1581 
    1000    277.36139    -59567.45    264.56372   -59832.014    4261.3769 
    1200    325.33475   -59543.097    310.32355    -59853.42    -8713.675 
    1400    285.67489   -59551.913    272.49362   -59824.407    3441.5379 
    1600     315.5094   -59549.876    300.95155   -59850.828    -1728.346 
    1800    274.23445   -59579.362    261.58106   -59840.943    458.77427 
    2000    309.93753   -59544.768    295.63677   -59840.405   -6221.8766 
    2200    300.57968   -59546.408     286.7107   -59833.118    4034.6472 
    2400    251.99448   -59597.409    240.36726   -59837.777     7183.902 
    2600    286.12493    -59559.24     272.9229   -59832.163   -1618.9838 
    2800    291.23063   -59543.961    277.79302   -59821.754     9270.635 
    3000    271.73343   -59587.158    259.19544   -59846.353    2160.7361 
    3200    279.86213   -59571.654    266.94908   -59838.603   -18279.137 
    3400     321.6542   -59547.289    306.81283   -59854.102    11520.157 
    3600     274.9052   -59567.001    262.22085   -59829.221     6029.394 
    3800     305.0485   -59574.824    290.97333   -59865.797   -17382.279 
    4000    322.74879   -59536.929     307.8569   -59844.786   -6857.8712 
    4200    311.19476   -59557.206    296.83599   -59854.042   -6129.7824 
    4400    300.49825   -59558.166    286.63302   -59844.799     9408.003 
    4600     305.2364   -59564.025    291.15255   -59855.177    8127.7513 
    4800    292.22375   -59562.857    278.74032   -59841.597   -5991.6004 
    5000    327.67716   -59550.157    312.55788   -59862.715    15163.299 
    5200    275.73173   -59594.999    263.00925   -59858.008    9497.2868 
    5400    304.56208   -59567.369    290.50935   -59857.879   -681.77419 
    5600     302.1272   -59551.064    288.18681   -59839.251    4251.3418 
    5800    272.25059   -59568.323    259.68873   -59828.011   -7298.4902 
    6000    271.37453   -59588.471    258.85309   -59847.325    3810.7921 
    6200    299.20631   -59546.032     285.4007   -59831.433   -4387.0172 
    6400    263.75874   -59564.343     251.5887   -59815.932   -5057.3295 
    6600    312.64856   -59540.305    298.22271   -59838.528   -12610.793 
    6800    295.16434   -59536.617    281.54522   -59818.162    11556.211 
    7000    285.59165   -59572.529    272.41423   -59844.943    5156.6511 
    7200    312.58711   -59544.284     298.1641   -59842.448    8492.9058 
    7400     286.9136   -59547.991    273.67518   -59821.666   -649.24423 
    7600    283.88326   -59575.568    270.78466   -59846.353     7660.271 
    7800    294.19476    -59578.68    280.62038     -59859.3    749.19393 
    8000    301.20601    -59545.16    287.30813   -59832.468    8312.0675 
    8200    291.04706    -59574.21    277.61792   -59851.828   -6510.3643 
    8400    289.92191   -59577.779    276.54468   -59854.324    2419.0799 
    8600    296.02842   -59549.476    282.36944   -59831.845   -12673.815 
    8800    289.49083   -59575.269    276.13349   -59851.403     2272.882 
    9000    311.55267   -59538.721    297.17739   -59835.898    8437.2667 
    9200    304.98331   -59551.657    290.91114   -59842.568     7700.501 
    9400    311.42145    -59561.95    297.05222   -59859.002   -613.13391 
    9600    313.28426   -59553.864    298.82908   -59852.693   -2859.0054 
    9800    296.92554   -59543.625    283.22517    -59826.85    -360.6073 
   10000    288.20794   -59568.211     274.9098   -59843.121   -4056.0629 
   10200    272.92796   -59584.855    260.33485    -59845.19   -1329.5232 
   10400    302.60198   -59541.281    288.63969   -59829.921    1650.4315 
   10600    306.24527   -59548.519    292.11487   -59840.634   -1785.9031 
   10800    267.83584   -59597.644    255.47769   -59853.122      15216.7 
   11000    293.80267   -59562.668    280.24639   -59842.914   -11690.219 
   11200    317.07071   -59538.309    302.44082    -59840.75     -2683.43 
   11400    292.26203   -59586.051    278.77683   -59864.828   -2142.5506 
   11600    296.42129    -59556.62    282.74418   -59839.364    -3861.971 
   11800    313.00692   -59549.974    298.56454   -59848.539    5357.9659 
   12000    294.05134   -59598.028    280.48358   -59878.512    5355.8841 
   12200    284.28055   -59577.551    271.16362   -59848.715   -3308.5538 
   12400    315.56928   -59552.801    301.00867    -59853.81    10143.506 
   12600    305.31192   -59568.582    291.22459   -59859.806    7847.1197 
   12800     285.8157   -59579.304    272.62794   -59851.932    11476.036 
   13000    308.34366   -59546.981    294.11644   -59841.098   -3637.8271 
   13200    296.98934   -59557.068    283.28601   -59840.354    291.21447 
   13400    285.46808   -59602.933    272.29636   -59875.229   -1992.1844 
   13600    282.65505   -59569.849    269.61312   -59839.462   -70.593242 
   13800     305.9272   -59546.434    291.81148   -59838.246    6702.8896 
   14000    284.37563   -59564.331    271.25431   -59835.585    3973.7712 
   14200    286.69086   -59583.855    273.46271   -59857.317   -2559.3767 
   14400    307.56952   -59538.902    293.37802    -59832.28   -2248.7409 
   14600    283.53666   -59571.264    270.45406   -59841.718   -7469.8272 
   14800    313.50096   -59545.537    299.03578   -59844.573   -1040.2717 
   15000    313.43123   -59531.368    298.96927   -59830.337    1650.1136 
   15200    279.19165    -59565.07    266.30953   -59831.379   -1405.0342 
   15400    299.82193   -59555.796    285.98791   -59841.784    6637.7883 
   15600    291.53761   -59540.225    278.08583   -59818.311   -8467.6052 
   15800    299.07104   -59540.444    285.27167   -59825.716    8666.0588 
   16000    295.74659   -59570.733    282.10061   -59852.834    -15550.77 
   16200    333.05335   -59523.509    317.68601   -59841.195     10310.79 
   16400    305.37257   -59548.824    291.28244   -59840.107   -4143.8806 
   16600    306.40412   -59551.832    292.26639   -59844.099    -3008.482 
   16800    305.04944   -59563.254    290.97422   -59854.228   -6544.2436 
   17000    319.55273   -59576.261    304.80832   -59881.069   -13091.102 
   17200    340.53735    -59533.04    324.82469   -59857.865   -1571.6714 
   17400    291.96765   -59555.759    278.49603   -59834.255   -1617.4172 
   17600    301.81263   -59586.458    287.88676   -59874.345   -6777.9685 
   17800    285.85152    -59582.12    272.66211   -59854.782    5571.1673 
   18000     290.4645   -59555.802    277.06224   -59832.864    -3140.406 
   18200    301.53934   -59539.104    287.62608    -59826.73    5675.5256 
   18400    323.82481   -59537.256    308.88328   -59846.139   -14681.269 
   18600    281.91837   -59578.256    268.91043   -59847.166    -14634.47 
   18800    300.77139   -59546.167    286.89356   -59833.061    18748.053 
   19000    328.00604   -59497.072    312.87158   -59809.943    8965.4628 
   19200    306.34744   -59537.821    292.21233   -59830.034    2158.3695 
   19400    297.31193   -59572.977    283.59372   -59856.571    -1018.076 
   19600    291.86592   -59552.525      278.399   -59830.924   -3934.1095 
   19800    304.91477   -59528.659    290.84577   -59819.504    7576.4947 
   20000    305.82212   -59568.898    291.71125   -59860.609   -5942.8798 
   20200    304.20906   -59552.704    290.17262   -59842.876   -10814.825 
   20400    304.87475   -59518.243    290.80759   -59809.051    485.25253 
   20600    313.01773   -59554.994    298.57484   -59853.569   -7356.9613 
   20800    300.87713   -59557.085    286.99442   -59844.079    -3194.503 
   21000    296.08862   -59563.682    282.42685   -59846.109    2355.0526 
   21200    286.88151   -59583.948    273.64457   -59857.593     -13187.7 
   21400     298.7661   -59536.421     284.9808   -59821.401    -10297.13 
   21600    296.81048   -59556.502    283.11542   -59839.617   -3447.4617 
   21800    314.10772   -59564.776    299.61455    -59864.39   -14730.227 
   22000    298.56109   -59558.356    284.78525   -59843.141    2709.1617 
   22200    316.61636   -59519.048    302.00743   -59821.056   -2778.4596 
   22400    301.65712   -59560.209    287.73843   -59847.948   -10967.318 
   22600    303.99575   -59557.287    289.96915   -59847.257    2183.8144 
   22800    331.88463   -59516.499    316.57121    -59833.07    946.58494 
   23000    309.40022   -59558.856    295.12425   -59853.981    3173.6386 
   23200    294.56254   -59560.847    280.97119   -59841.818   -18055.123 
   23400    321.77293   -59538.496    306.92607   -59845.422    3369.3225 
   23600    300.74848   -59552.472    286.87171   -59839.343    3021.6968 
   23800     288.6519   -59561.884    275.33328   -59837.218   -5841.6671 
   24000     307.2516   -59520.716    293.07477   -59813.791   -6700.7483 
   24200    297.91743   -59564.203    284.17129   -59848.375   -430.35681 
   24400    281.91712   -59560.045    268.90924   -59828.954    2276.1661 
   24600    316.41624   -59531.681    301.81655   -59833.498   -11355.403 
   24800    294.17164   -59577.485    280.59833   -59858.084   -6329.3402 
   25000    301.55388   -59561.871    287.63995   -59849.511   -2382.2165 
   25200    303.75083   -59558.242    289.73553   -59847.978    2683.0706 
   25400    301.71839   -59555.989    287.79686   -59843.786   -8430.0164 
   25600    293.99804   -59527.054    280.43274   -59807.487   -2295.9842 
   25800    285.08149   -59569.491     271.9276   -59841.418   -1459.9842 
   26000    308.79794   -59568.148    294.54976   -59862.698    4728.5606 
   26200    317.75922   -59538.486    303.09756   -59841.584    7262.9897 
   26400    280.15735   -59550.967    267.23067   -59818.198   -11146.876 
   26600    284.26256    -59577.99    271.14646   -59849.136   -1143.8605 
   26800    290.36882   -59614.916    276.97098   -59891.887    10674.637 
   27000     300.9602   -59560.757    287.07366    -59847.83    1591.7012 
   27200    321.31774   -59539.661    306.49189   -59846.153    1423.0697 
   27400    293.40173   -59570.629    279.86395   -59850.493   -5793.0219 
   27600    300.40268   -59571.541    286.54186   -59858.083    6161.5317 
   27800    296.95087   -59547.541    283.24932    -59830.79   -13086.986 
   28000     313.0373   -59552.152    298.59352   -59850.745    4084.4972 
   28200    306.42917   -59544.948    292.29029   -59837.238    9201.8525 
   28400    300.86541   -59560.524    286.98324   -59847.507   -140.85347 
   28600      272.499   -59579.886    259.92568   -59839.812    2941.6342 
   28800    293.92772   -59533.773    280.36566   -59814.138    2687.3285 
   29000    269.37388   -59567.298    256.94476   -59824.242    15602.446 
   29200    273.99045    -59569.88    261.34832   -59831.229   -3203.6396 
   29400    321.05369   -59523.236    306.24002   -59829.476    10180.472 
   29600    307.43184   -59526.944    293.24669   -59820.191    -6834.756 
   29800    289.97059   -59564.978    276.59112   -59841.569    4733.6614 
   30000    289.67299   -59568.322    276.30726   -59844.629    10447.913 
   30200    318.00563   -59529.563     303.3326   -59832.895   -7875.8302 
   30400    302.89887   -59570.508    288.92288   -59859.431      9304.57 
   30600    297.01646   -59563.531    283.31189   -59846.843   -14134.972 
   30800    317.28419   -59549.043    302.64444   -59851.688    650.87728 
   31000    309.02728   -59587.911    294.76852   -59882.679    6829.0648 
   31200    301.08854   -59548.346    287.19608   -59835.542    6730.3907 
   31400     305.4699   -59549.047    291.37528   -59840.422   -1056.9052 
   31600    306.87562   -59587.786    292.71614   -59880.502   -7685.5825 
   31800    293.17328   -59546.529    279.64603   -59826.175    3988.8149 
   32000    293.26149   -59549.305    279.73017   -59829.035    215.03118 
   32200    280.21262   -59577.717    267.28339   -59845.001   -9768.4116 
   32400    300.11298   -59543.144    286.26553    -59829.41    10666.111 
   32600    315.10203   -59547.147    300.56297    -59847.71   -7395.8517 
   32800    305.01502    -59562.59    290.94139   -59853.531   -5625.3639 
   33000    293.43216   -59553.598    279.89297   -59833.491    24558.297 
   33200     286.6016   -59557.796    273.37758   -59831.174    10221.233 
   33400    297.98969   -59585.185    284.24021   -59869.425    6246.1753 
   33600    283.05682   -59561.448    269.99636   -59831.445   -5578.6377 
   33800    312.77332   -59549.609    298.34171   -59847.951    2169.1159 
   34000    278.87094   -59589.413    266.00361   -59855.417    -9365.764 
   34200    294.71217   -59559.039    281.11392   -59840.153   -10687.984 
   34400    301.39395   -59548.531     287.4874   -59836.018    2305.9869 
   34600    290.78301   -59582.766    277.36605   -59860.132   -11712.946 
   34800    308.66012   -59555.747     294.4183   -59850.165     11888.22 
   35000    300.99941   -59540.957    287.11106   -59828.068   -13829.407 
   35200    279.25294   -59575.098    266.36799   -59841.466    1627.5579 
   35400     324.9032   -59555.823    309.91191   -59865.735   -8817.8933 
   35600    306.75597   -59512.105    292.60201   -59804.707   -4504.8463 
   35800    303.83354   -59561.994    289.81442   -59851.808   -3361.8496 
   36000    292.63727   -59570.087    279.13476   -59849.222    14642.292 
   36200    329.60178   -59526.123    314.39369   -59840.517    8490.7554 
   36400    317.39873   -59556.401    302.75371   -59859.155    3133.5141 
   36600    303.56523   -59554.061    289.55849    -59843.62    1892.3026 
   36800    332.11827   -59532.168    316.79407   -59848.962    414.62478 
   37000    302.03933   -59571.777      288.103    -59859.88    4484.8346 
   37200    301.47173   -59551.993    287.56159   -59839.555   -4379.8087 
   37400    304.96454   -59535.184    290.89324   -59826.077     9596.944 
   37600    287.46149   -59569.567     274.1978   -59843.765   -6212.7991 
   37800    280.07491   -59563.674    267.15203   -59830.826   -3998.9145 
   38000    309.81442   -59553.191    295.51934    -59848.71   -8697.2963 
   38200     306.2323   -59550.168     292.1025   -59842.271   -7338.6188 
   38400    288.59631   -59568.653    275.28025   -59843.933   -9085.3087 
   38600    292.33427   -59574.081    278.84574   -59852.926    10714.921 
   38800    318.71743   -59530.171    304.01156   -59834.182    6678.8278 
   39000    325.74783   -59553.253    310.71757    -59863.97   -3366.9361 
   39200    311.63719   -59557.459      297.258   -59854.717    2026.7004 
   39400     287.1524   -59581.563    273.90297   -59855.466   -4326.0071 
   39600    285.63939   -59561.595    272.45976   -59834.055    2695.6754 
   39800    300.78302   -59542.122    286.90465   -59829.027   -1434.7722 
   40000    283.68369   -59580.288     270.5943   -59850.882   -5940.7603 
   40200    295.56122   -59567.736     281.9238   -59849.659   -9487.8263 
   40400    292.95165   -59551.111    279.43464   -59830.546    1798.5341 
   40600    311.21699   -59506.428    296.85719   -59803.285   -6938.4764 
   40800    278.59956    -59554.65    265.74476   -59820.394    9536.3828 
   41000    285.27375   -59562.383      272.111   -59834.494    11979.817 
   41200    294.34309   -59533.158    280.76187    -59813.92   -11270.598 
   41400    283.11701   -59575.858    270.05377   -59845.912   -163.51198 
   41600    281.45392   -59547.091    268.46742   -59815.558    6497.9536 
   41800    306.68798    -59544.71    292.53716   -59837.247   -6068.2352 
   42000    277.85639   -59577.573    265.03588   -59842.609   -9705.7943 
   42200      290.475   -59566.361    277.07226   -59843.434   -2576.4925 
   42400    291.17594   -59538.319    277.74086    -59816.06    16096.252 
   42600    285.37806   -59576.474    272.21049   -59848.685   -4771.5388 
   42800    304.81791   -59547.483    290.75338   -59838.236   -7256.3633 
   43000    309.34068   -59541.704    295.06746   -59836.772    4053.8238 
   43200    304.50644   -59567.286    290.45627   -59857.743    15365.585 
   43400    317.47854   -59541.597    302.82983   -59844.427    -1864.811 
   43600    303.24893   -59553.086    289.25678   -59842.343   -12142.323 
   43800    292.71598   -59563.625    279.20983   -59842.835    1346.8761 
   44000    312.71517   -59536.839    298.28625   -59835.125   -5229.6218 
   44200    319.39197   -59534.187    304.65498   -59838.842    3428.6979 
   44400    307.96886   -59563.466    293.75894   -59857.225   -6326.9181 
   44600    305.50981   -59549.293    291.41335   -59840.706   -6830.8675 
   44800    320.73679   -59517.732    305.93774    -59823.67    8672.9712 
   45000    301.81728   -59567.107    287.89119   -59854.999    6637.4433 
   45200    305.01893   -59557.503    290.94512   -59848.448   -20845.256 
   45400     319.2253   -59531.425      304.496   -59835.921   -7943.0588 
   45600     302.4655   -59581.232     288.5095   -59869.741    14019.073 
   45800    314.57507   -59547.494    300.06033   -59847.555    1130.1066 
   46000    304.80762   -59545.868    290.74356   -59836.612    -251.2519 
   46200    299.32929   -59566.541      285.518   -59852.059   -10768.574 
   46400    297.22735   -59555.436    283.51304    -59838.95    11293.824 
   46600    310.11885   -59525.754    295.80972   -59821.564   -6003.1734 
   46800    299.82122   -59568.867    285.98723   -59854.855    12097.817 
   47000    283.73823   -59564.511    270.64633   -59835.157    7477.6699 
   47200    322.77447   -59522.936     307.8814   -59830.818    5643.3685 
   47400    290.53438   -59577.637     277.1289   -59854.766    4973.2207 
   47600    284.87616    -59555.76    271.73175   -59827.492    3771.1376 
   47800    304.14006   -59545.131     290.1068   -59835.238    16579.624 
   48000    295.71803   -59587.865    282.07337   -59869.938   -5879.9225 
   48200    296.09075   -59558.526    282.42889   -59840.955    5611.8095 
   48400    302.11756   -59551.508    288.17762   -59839.686   -7790.0537 
   48600    280.95677   -59579.863     267.9932   -59847.856   -14039.675 
   48800    306.86388   -59547.358    292.70494   -59840.063   -1412.2067 
   49000    302.61846   -59545.143    288.65541   -59833.798   -12427.718 
   49200    273.54192   -59591.973    260.92049   -59852.893   -2651.8169 
   49400    290.95388   -59568.017    277.52904   -59845.546    3183.7786 
   49600     301.6129   -59540.926    287.69624   -59828.622    3827.5217 
   49800    284.42516   -59567.031    271.30156   -59838.333   -3544.6746 
   50000    294.89265   -59578.283    281.28607   -59859.569   -9564.6293 
   50200    315.35297   -59541.691    300.80233   -59842.494    1590.8922 
   50400    289.60079   -59568.085    276.23839   -59844.323    1436.9409 
   50600    283.44393   -59589.252     270.3656   -59859.617    7665.2422 
   50800    316.70032   -59546.672    302.08752    -59848.76   -11049.416 
   51000    304.67168   -59554.875    290.61389   -59845.488   -3838.4485 
   51200    273.85723   -59593.918    261.22125   -59855.139     10644.97 
   51400    309.32753   -59541.109    295.05492   -59836.164   -12010.823 
   51600    296.64379   -59572.952    282.95641   -59855.908   -2615.2954 
   51800    307.02224   -59563.031      292.856   -59855.887   -1418.9864 
   52000    319.50313   -59529.362      304.761   -59834.123    7083.5443 
   52200    315.92776   -59557.404     301.3506   -59858.755    -9509.037 
   52400      294.698    -59562.64    281.10041   -59843.741   -4642.4563 
   52600    324.46418   -59523.902    309.49315   -59833.395   -715.95993 
   52800    319.31294   -59557.842    304.57959   -59862.421   -10576.447 
   53000    305.50197   -59556.331    291.40587   -59847.737   -5442.1794 
   53200    308.76497   -59533.172    294.51832    -59827.69    4171.3045 
   53400    312.25243   -59528.174    297.84486   -59826.018   -4584.9988 
   53600     293.1253    -59557.76    279.60027    -59837.36    8722.4825 
   53800    316.89904   -59534.878    302.27707   -59837.156   -4539.9697 
   54000    303.91609   -59535.919    289.89317   -59825.812    3227.8775 
   54200    301.95273   -59565.609     288.0204   -59853.629     3941.237 
   54400    324.36893   -59533.515    309.40229   -59842.918   -4939.2231 
   54600    297.31758   -59533.018    283.59911   -59816.617   -10256.959 
   54800    294.00241   -59573.787    280.43691   -59854.224    1022.6196 
   55000    297.97531   -59543.432    284.22649   -59827.658    9272.5936 
   55200    304.14926    -59539.01    290.11557   -59829.125   -15416.261 
   55400    307.58725   -59555.762    293.39493   -59849.157    472.78303 
   55600    326.19388    -59564.63    311.14304   -59875.773    11455.595 
   55800    305.90606   -59542.831    291.79131   -59834.622    7662.7598 
   56000    314.96222   -59547.865    300.42961   -59848.295     3280.873 
   56200    289.68004   -59574.939    276.31398   -59851.253    3666.7705 
   56400    324.27005   -59536.388    309.30797   -59845.696   -4911.2438 
   56600     284.9538   -59547.527    271.80581   -59819.333   -5056.9728 
   56800    289.67793   -59566.708    276.31196    -59843.02   -252.79984 
   57000    303.44167   -59550.512    289.44064   -59839.952    8205.1866 
   57200    315.94342   -59531.521    301.36555   -59832.887   -12540.195 
   57400    308.32554   -59571.879    294.09916   -59865.978    12166.293 
   57600    315.48735   -59538.932    300.93051   -59839.863   -4377.6497 
   57800    295.55998   -59558.176    281.92261   -59840.098   -2524.0191 
   58000     288.7085   -59575.919    275.38726   -59851.306   -3771.2958 
   58200    302.30644    -59544.23    288.35779   -59832.588    15544.425 
   58400    277.85286   -59573.994    265.03251   -59839.027    994.69486 
   58600    300.99713    -59569.05    287.10889   -59856.159     1236.342 
   58800    312.22735   -59552.332    297.82093   -59850.153    2991.1642 
   59000      307.382   -59561.526    293.19915   -59854.726   -4540.9195 
   59200    297.56712   -59591.217    283.83714   -59875.054    -3132.578 
   59400    289.94455   -59542.933    276.56629   -59819.499   -8604.8553 
   59600    304.57216    -59563.83    290.51896   -59854.349   -9781.7454 
   59800    282.45866   -59591.106     269.4258   -59860.532    6428.6358 
   60000    297.80651   -59540.486    284.06549   -59824.552    14907.889 
   60200    291.21806   -59562.935    277.78103   -59840.716   -2512.9631 
   60400    280.62862   -59577.556    267.68019   -59845.236    14462.606 
   60600    298.57845   -59533.337    284.80181   -59818.139   -8380.2868 
   60800    296.22356   -59576.593    282.55557   -59859.148     -3721.49 
   61000    297.99008   -59565.971    284.24058   -59850.211   -8053.9322 
   61200     299.7272   -59542.561    285.89755   -59828.458   -1832.6306 
   61400    291.11393   -59586.954     277.6817   -59864.635   -1430.9258 
   61600    302.10868   -59569.269    288.16915   -59857.439    2831.0542 
   61800    294.35629   -59542.283    280.77446   -59823.058    3411.7387 
   62000    284.43648    -59559.03    271.31236   -59830.342   -6198.4832 
   62200    267.05683   -59590.518    254.73462   -59845.252   -705.47091 
   62400    292.28461   -59553.892    278.79837   -59832.691    267.63427 
   62600    305.33651   -59538.602    291.24804    -59829.85    -5447.403 
   62800    279.96899   -59581.143      267.051   -59848.194   -8844.0539 
   63000    297.63003    -59551.74    283.89715   -59835.637   -1952.3493 
   63200    306.90512   -59552.301    292.74428   -59845.045     5353.682 
   63400    292.49356   -59577.438    278.99768   -59856.435    902.67061 
   63600    292.69946   -59573.926    279.19408    -59853.12    13242.141 
   63800    311.30731   -59551.482    296.94335   -59848.425   -4269.4239 
   64000    275.07321   -59586.342    262.38111   -59848.723    720.32429 
   64200    302.29424   -59571.796    288.34614   -59860.143    7646.6875 
   64400    307.80618   -59556.429    293.60376   -59850.033   -7346.0082 
   64600     287.9092   -59552.021    274.62485   -59826.646   -4386.9025 
   64800    285.21963   -59590.526    272.05938   -59862.585    3697.2701 
   65000     292.6506   -59557.638    279.14747   -59836.786    2669.7733 
   65200    291.11269   -59550.889    277.68052    -59828.57     7335.428 
   65400    280.20839   -59587.482    267.27936   -59854.761   -5925.4042 
   65600    290.08518   -59546.763    276.70043   -59823.463   -17603.739 
   65800    301.30668   -59546.295    287.40415   -59833.699    2275.5737 
   66000    284.77563   -59576.913    271.63586   -59848.549   -1564.6012 
   66200    314.27718   -59530.349    299.77619   -59830.125   -3194.1048 
   66400    298.53582   -59557.612    284.76115   -59842.374     1352.405 
   66600    284.32045   -59562.966    271.20168   -59834.168   -6454.9016 
   66800    303.56651   -59548.504    289.55971   -59838.064    2246.5184 
   67000    281.03287   -59590.379    268.06579   -59858.445    3404.3682 
   67200    294.26406   -59572.854    280.68649   -59853.541   -12894.037 
   67400    305.14743   -59551.399    291.06769   -59842.466    1797.9988 
   67600    296.99541   -59557.337    283.29181   -59840.629    16727.148 
   67800    281.42148   -59577.534    268.43647    -59845.97    7024.0926 
   68000    304.82726   -59547.684    290.76229   -59838.446    -10499.23 
   68200    310.54785   -59524.585    296.21893   -59820.803    9111.8729 
   68400    281.67285   -59576.727    268.67624   -59845.403   -2963.4321 
   68600    315.65768   -59548.241    301.09299   -59849.334   -1462.4572 
   68800    294.23355    -59557.72    280.65739   -59838.378    -628.2521 
   69000    276.26618   -59579.096    263.51904   -59842.615    8884.4172 
   69200    309.24624   -59542.542    294.97738    -59837.52   -938.87423 
   69400    292.74603   -59556.988     279.2385   -59836.226   -565.39734 
   69600    291.41475   -59563.739    277.96865   -59841.708    5318.0805 
   69800    301.47564   -59556.941    287.56532   -59844.506    10207.094 
   70000     331.2592   -59521.723    315.97464   -59837.698    4029.6147 
   70200    305.01037   -59557.228    290.93696   -59848.165    9449.1984 
   70400    291.39878   -59565.953    277.95341   -59843.907    1886.1725 
   70600    304.16843   -59537.924    290.13386   -59828.058    6032.3825 
   70800    277.19867   -59586.313     264.4085   -59850.722   -989.43961 
   71000     288.0285   -59554.208    274.73864   -59828.946    13981.965 
   71200     294.4784   -59554.041    280.89093   -59834.932   -1446.1784 
   71400    286.87447   -59577.554    273.63786   -59851.192    2157.3783 
   71600    277.45623   -59566.089    264.65418   -59830.743    41.211118 
   71800    291.04523   -59546.454    277.61617    -59824.07   -3205.4848 
   72000    283.88245   -59581.962    270.78389   -59852.746   -12909.398 
   72200    320.87825   -59535.363    306.07268   -59841.436    11322.929 
   72400     302.7337    -59549.56    288.76533   -59838.325   -5990.3785 
   72600    315.10857   -59576.984    300.56922   -59877.553     17130.36 
   72800    323.61022   -59518.359    308.67859   -59827.037   -1920.2399 
   73000    287.14666   -59559.544    273.89748   -59833.441   -9435.0664 
   73200    311.32141   -59562.057    296.95679   -59859.014   -10987.159 
   73400    304.41797   -59533.277    290.37188   -59823.649    447.04504 
   73600    298.83981    -59562.81    285.05111   -59847.861    1790.0499 
   73800    300.00211   -59569.771    286.15978   -59855.931   -810.47633 
   74000    329.10054   -59516.194    313.91559    -59830.11    1463.6403 
   74200    310.99679   -59549.333    296.64715    -59845.98   -5064.5237 
   74400    284.12902   -59577.125    271.01909   -59848.144   -3092.1607 
   74600    300.99185   -59531.949    287.10385   -59819.053    4783.4433 
   74800    302.51169   -59535.434    288.55357   -59823.987    9560.3127 
   75000    293.28072   -59570.453    279.74852   -59850.202    17290.002 
   75200    292.01355   -59556.441    278.53981   -59834.981    1333.4936 
   75400    324.20968   -59508.989    309.25039   -59818.239    8835.3878 
   75600    305.01952   -59553.437    290.94568   -59844.383   -4842.2156 
   75800    294.10838   -59560.468    280.53799   -59841.006    1610.2011 
   76000    302.53379   -59523.976    288.57465   -59812.551     9398.417 
   76200    302.58635   -59558.315    288.62478    -59846.94    259.75076 
   76400    301.53212   -59555.492     287.6192   -59843.112    12122.293 
   76600    334.54273   -59517.387    319.10667   -59836.494     4653.916 
   76800    297.10677   -59562.261    283.39803   -59845.659    -9222.441 
   77000    293.24882   -59575.751    279.71809   -59855.469   -5196.5228 
   77200    311.77605    -59533.11    297.39046     -59830.5   -10064.758 
   77400    292.69872   -59566.146    279.19337    -59845.34   -3469.1379 
   77600    285.49779   -59586.991     272.3247   -59859.315    9903.1537 
   77800    300.88927   -59562.612    287.00601   -59849.618    6234.7475 
   78000    312.38206   -59538.799     297.9685   -59836.767    8.0510859 
   78200    287.57374   -59588.761    274.30487   -59863.066    9224.1007 
   78400    297.87884   -59565.042    284.13447   -59849.176    13204.262 
   78600    292.31447   -59548.727    278.82686   -59827.554   -6207.5656 
   78800    309.20726   -59546.587     294.9402   -59841.528    6538.2894 
   79000    292.28826   -59565.242    278.80186   -59844.044   -2987.3319 
   79200    291.19458   -59533.758    277.75863   -59811.517    10115.893 
   79400    329.19644    -59540.57    314.00706   -59854.577    8976.4265 
   79600    306.76589   -59555.922    292.61147   -59848.533   -5030.8289 
   79800    305.88105   -59535.082    291.76746   -59826.849   -9341.5324 
   80000    300.01398   -59572.796     286.1711   -59858.967   -5403.4937 
   80200    296.54113   -59565.327    282.85849   -59848.185   -13386.069 
   80400    313.24265   -59544.238    298.78939   -59843.027   -1967.6701 
   80600    317.58449   -59558.555    302.93089   -59861.486   -387.45587 
   80800    289.79293   -59593.341    276.42166   -59869.763   -3694.5508 
   81000    301.25726   -59549.644    287.35701   -59837.001   -5404.2029 
   81200    282.81938   -59561.327    269.76987   -59831.097   -5687.8328 
   81400    280.57534   -59588.634    267.62938   -59856.263     8947.196 
   81600     300.5092   -59544.254    286.64347   -59830.897   -8129.7442 
   81800    300.92827   -59570.087     287.0432    -59857.13     9304.189 
   82000    291.04626   -59578.421    277.61715   -59856.038    5637.1182 
   82200     335.5734   -59531.658    320.08978   -59851.748   -15151.135 
   82400    299.31654   -59568.914    285.50584    -59854.42    7303.2701 
   82600    304.64875   -59578.869    290.59202   -59869.461   -9137.8208 
   82800    303.97182   -59538.248    289.94632   -59828.194    -1647.907 
   83000    300.53617   -59540.673     286.6692   -59827.342    13941.383 
   83200    275.19205   -59583.871    262.49447   -59846.366    6259.7336 
   83400    287.90921   -59549.417    274.62485   -59824.042   -454.60558 
   83600    304.01625   -59547.518     289.9887   -59837.507    9422.2042 
   83800    297.23013   -59554.555     283.5157   -59838.071    2099.4298 
   84000    292.19393   -59550.876    278.71187   -59829.588    4195.5856 
   84200    300.23012   -59565.662    286.37726   -59852.039    4071.7325 
   84400    283.79762    -59574.72    270.70298   -59845.422   -2802.7952 
   84600    307.16955   -59539.714    292.99651   -59832.711   -6683.1145 
   84800    283.07681   -59569.831    270.01542   -59839.846    2259.3021 
   85000    290.83982   -59570.631    277.42024   -59848.051   -3226.1542 
   85200    302.64136   -59557.098    288.67725   -59845.775    8463.6007 
   85400    310.85205   -59554.249    296.50909   -59850.758   -15606.949 
   85600    293.14022   -59582.734     279.6145   -59862.349    -12521.34 
   85800    301.19509   -59551.241    287.29771   -59838.539   -4547.4146 
   86000    316.00349    -59547.96    301.42284   -59849.383    -5561.082 
   86200    296.57496   -59569.941    282.89076   -59852.832    -1509.763 
   86400    302.68253   -59555.163    288.71652   -59843.879   -5111.1363 
   86600    306.37562   -59539.324    292.23921   -59831.564    6183.7931 
   86800    300.27697   -59569.248    286.42196    -59855.67    914.16344 
   87000    298.58963   -59566.725    284.81247   -59851.538    8668.7609 
   87200    315.36944   -59523.302    300.81804    -59824.12   -9540.9309 
   87400    294.67058   -59561.434    281.07425   -59842.509    583.32374 
   87600    306.00917   -59558.199    291.88967   -59850.088   -2028.3031 
   87800    321.06018   -59522.979    306.24621   -59829.225   -7357.4418 
   88000    304.72952   -59545.271    290.66906    -59835.94    3045.4058 
   88200    301.55275   -59561.411    287.63887    -59849.05   -5251.6482 
   88400    311.50291   -59539.187    297.12992   -59836.317    790.76572 
   88600    313.55564   -59534.269    299.08794   -59833.357    12867.093 
   88800    310.60355    -59562.06    296.27205   -59858.332   -4001.3058 
   89000    303.69714   -59540.927    289.68432   -59830.611     167.4297 
   89200    314.89593   -59546.798    300.36638   -59847.165   -6336.8384 
   89400    306.35533   -59564.495    292.21985   -59856.714    2196.6853 
   89600    318.12653   -59532.751    303.44792   -59836.199    25474.942 
   89800     308.1469   -59558.906    293.92876   -59852.835   -6315.6982 
   90000    302.15977   -59568.945    288.21788   -59857.162    9025.2644 
   90200    305.60951   -59537.976    291.50845   -59829.484   -15026.612 
   90400    287.57446    -59577.29    274.30555   -59851.596    3130.7438 
   90600    285.28019   -59564.339    272.11714   -59836.456    6524.8833 
   90800    291.87838    -59558.03    278.41088   -59836.441    5695.6397 
   91000    297.29087   -59559.636    283.57364   -59843.209   -3964.8822 
   91200    333.11406   -59524.143    317.74392   -59841.887   -1556.7137 
   91400    280.21362   -59573.866    267.28435   -59841.151   -7719.9025 
   91600    320.88226   -59555.829     306.0765   -59861.905   -8014.5709 
   91800    327.04536   -59540.989    311.95523   -59852.945    2334.0361 
   92000    290.98141   -59568.116     277.5553   -59845.671    3560.3689 
   92200    314.39376   -59537.841    299.88738   -59837.729   -3236.4646 
   92400    288.25324   -59552.792    274.95301   -59827.745   -4330.0207 
   92600     299.2461   -59562.094    285.43865   -59847.532   -192.38152 
   92800    287.78467   -59550.082    274.50606   -59824.588    -666.4547 
   93000    278.12198   -59581.535    265.28921   -59846.825    4000.4056 
   93200    278.33375   -59567.421    265.49121   -59832.912    6408.6039 
   93400     322.5854   -59548.615    307.70106   -59856.316   -13616.316 
   93600    293.44604   -59562.256    279.90621   -59842.163   -2137.5875 
   93800    294.33541   -59584.636    280.75454    -59865.39    4199.0934 
   94000    311.17659   -59547.871    296.81866   -59844.689    257.47095 
   94200    290.76348   -59557.259    277.34742   -59834.606   -9566.4981 
   94400    267.24577   -59591.358    254.91484   -59846.273   -11868.102 
   94600    288.84363   -59560.422    275.51616   -59835.938    5646.4791 
   94800     306.6078   -59546.054    292.46067   -59838.515   -4194.2649 
   95000    275.86694   -59596.681    263.13822   -59859.819   -25461.239 
   95200    290.24153   -59571.855    276.84956   -59848.705   -2056.1159 
   95400    304.74639   -59536.776    290.68515   -59827.461    1770.5794 
   95600    319.68346   -59564.291    304.93301   -59869.224   -9207.5676 
   95800    303.28821   -59563.339    289.29425   -59852.633   -4622.8653 
   96000    318.83809   -59518.566    304.12665   -59822.692     9818.748 
   96200    301.45997   -59568.559    287.55037   -59856.109   -6022.4951 
   96400    298.06466   -59546.045    284.31172   -59830.356   -1125.4161 
   96600    320.36656    -59531.97    305.58459   -59837.555    4874.7977 
   96800    287.17465   -59577.663    273.92419   -59851.587    8619.1171 
   97000    320.61753   -59540.902    305.82398   -59846.725    132.59167 
   97200    312.71552   -59552.694    298.28659   -59850.981   -1549.5037 
   97400    268.45484   -59605.336    256.06813   -59861.404   -5790.4775 
   97600    292.14974   -59573.199    278.66972   -59851.868   -1732.3202 
   97800    302.32877    -59540.08    288.37908    -59828.46     9721.578 
   98000    274.51673   -59576.684    261.85032   -59838.534    11367.907 
   98200    295.30478   -59570.361    281.67919    -59852.04    2925.3629 
   98400    326.61131   -59536.957     311.5412   -59848.499   -13816.654 
   98600    279.89566   -59591.399    266.98106    -59858.38   -8304.6155 
   98800    309.32756   -59559.009    295.05494   -59854.064    665.20905 
   99000    276.77954   -59551.533    264.00872   -59815.542    -3756.284 
   99200    283.68705   -59595.445    270.59751   -59866.043   -4359.7056 
   99400    286.30055   -59560.513    273.09042   -59833.604    2780.0433 
   99600    295.49312   -59554.874    281.85883   -59836.733   -6564.7786 
   99800    290.77248   -59555.186    277.35601   -59832.542    10016.762 
  100000    281.78628   -59584.435    268.78444   -59853.219    8482.3682 
  100200    288.48447   -59536.633    275.17357   -59811.807    746.48645 
  100400    282.53066   -59558.563    269.49447   -59828.057   -11030.421 
  100600    287.67729   -59573.292    274.40364   -59847.696    3727.4539 
  100800    304.47969   -59557.936    290.43076   -59848.366   -4882.6414 
  101000    319.40377   -59523.752    304.66623   -59828.418   -1035.2222 
  101200    313.80415    -59530.05    299.32498   -59829.375    8632.5631 
  101400    298.92262   -59558.374     285.1301   -59843.504    5068.2598 
  101600    286.26207   -59575.132    273.05371   -59848.186    575.25057 
  101800    300.52791   -59527.249    286.66131    -59813.91   -11568.999 
  102000    287.87125   -59550.866    274.58865   -59825.455    8578.9088 
  102200    293.50892   -59568.891    279.96619   -59848.857    8655.2976 
  102400    315.84357   -59544.835     301.2703   -59846.106   -1184.7368 
  102600    311.11613   -59560.592    296.76099   -59857.353   -13259.566 
  102800    278.77725     -59575.2    265.91425   -59841.114    6052.4387 
  103000    303.33566   -59543.026    289.33952   -59832.366    9995.9799 
  103200    301.33318   -59565.069    287.42943   -59852.498    1880.9502 
  103400    301.63867   -59554.674    287.72082   -59842.395   -14991.017 
  103600    293.73585   -59549.758    280.18264   -59829.941   -6821.9306 
  103800    284.92069   -59593.593    271.77422   -59865.368    7430.4941 
  104000    301.64433   -59554.292    287.72623   -59842.018    12637.568 
  104200    294.82581   -59548.141    281.22231   -59829.363   -2906.4757 
  104400    280.39535   -59586.968    267.45769   -59854.426   -4816.2772 
  104600    298.67841   -59561.044    284.89716   -59845.941    -2818.725 
  104800     294.4625   -59548.378    280.87577   -59829.254     -5929.25 
  105000    283.54948   -59580.843    270.46628   -59851.309   -5984.2855 
  105200    309.42345   -59535.027    295.14641   -59830.174    12629.047 
  105400     289.9187   -59553.876    276.54162   -59830.418    2766.6508 
  105600    276.94142   -59571.913    264.16313   -59836.076   -12.304783 
  105800    325.34573    -59555.02    310.33402   -59865.354   -1823.0278 
  106000    304.95888   -59533.223    290.88784   -59824.111     2172.985 
  106200    320.72831    -59530.18    305.92965    -59836.11   -15886.392 
  106400    300.28196    -59559.75    286.42671   -59846.176   -8570.0468 
  106600    306.52248   -59564.606    292.37929   -59856.985     12184.53 
  106800     322.6612   -59528.043    307.77335   -59835.816   -6146.5527 
  107000    279.49973   -59581.486    266.60339    -59848.09   -3447.4442 
  107200    296.68476   -59550.411    282.99549   -59833.407   -1528.9581 
  107400    302.46894   -59557.669    288.51279   -59846.182    7868.3482 
  107600    279.54729   -59580.469    266.64876   -59847.118    7137.0251 
  107800    311.75218   -59546.222    297.36769    -59843.59   -861.98881 
  108000    310.85521   -59561.527    296.51211   -59858.039   -1798.3746 
  108200    287.89631   -59589.681    274.61255   -59864.294    5667.3056 
  108400    311.65636   -59551.567     297.2763   -59848.843    -5166.604 
  108600    319.96862   -59544.576    305.20502   -59849.781   -474.33013 
  108800    265.14918   -59587.058    252.91499   -59839.973    8944.1973 
  109000    303.37486   -59547.764    289.37691   -59837.141   -1178.1392 
  109200    309.25057   -59546.548     294.9815    -59841.53   -7949.6476 
  109400    275.62833   -59577.303    262.91062   -59840.213   -1553.3785 
  109600    290.79983    -59580.59     277.3821   -59857.972    4212.2298 
  109800    306.41614   -59537.097    292.27786   -59829.375   -21793.204 
  110000    320.63684   -59562.945    305.84241   -59868.788    4554.0683 
  110200    282.89664   -59589.157    269.84356   -59859.001    2866.7524 
  110400    296.48933   -59540.892    282.80908   -59823.701    12699.233 
  110600    294.20064   -59560.276    280.62599   -59840.902    692.48592 
  110800    293.11438   -59565.121    279.58986   -59844.711   -622.68992 
  111000     299.9348   -59555.677    286.09557   -59841.772    10287.538 
  111200    298.57205   -59561.435     284.7957   -59846.231   -612.57859 
  111400    304.57392   -59558.394    290.52064   -59848.915   -10475.434 
  111600    302.45897   -59553.894    288.50328   -59842.398    7537.0833 
  111800    337.84659   -59515.897    322.25808   -59838.155    7635.0379 
  112000    283.62813   -59564.047    270.54131   -59834.588    14334.436 
  112200    289.77969   -59569.637    276.40903   -59846.046    2255.8144 
  112400    310.63003   -59528.877    296.29732   -59825.174    1281.3464 
  112600    293.18152   -59558.156     279.6539    -59837.81   -2627.1936 
  112800    302.36088   -59563.987    288.40971   -59852.397   -11397.018 
  113000     306.1581   -59514.777    292.03173   -59806.809    4709.2375 
  113200    331.68783    -59541.38    316.38349   -59857.764    5971.2332 
  113400    295.07492   -59557.565    281.45993   -59839.025    11236.226 
  113600    295.03401   -59566.075    281.42091   -59847.496   -1508.5441 
  113800    302.66152   -59538.995    288.69648   -59827.692    544.43311 
  114000     292.1898   -59550.965    278.70793   -59829.673    327.20808 
  114200    301.99139   -59567.527    288.05727   -59855.584   -199.59817 
  114400    329.83866   -59518.065    314.61965   -59832.685   -6791.1506 
  114600    322.98101   -59526.556    308.07842   -59834.634    13770.874 
  114800    278.05464   -59568.677    265.22498   -59833.902    3189.7147 
  115000    311.06236   -59552.989     296.7097   -59849.699   -4416.5703 
  115200    304.82209   -59526.489    290.75736   -59817.247    69.352079 
  115400    311.21738   -59561.449    296.85756   -59858.306    -5386.518 
  115600     281.9953   -59576.173    268.98381   -59845.157   -4198.5842 
  115800    324.43527    -59531.74    309.46557   -59841.205   -3176.4433 
  116000    280.78584   -59570.128    267.83016   -59837.959    4237.5028 
  116200    301.93624   -59569.877    288.00467   -59857.882    520.67056 
  116400    307.78278    -59517.45    293.58144   -59811.032   -3770.2492 
  116600    290.44617   -59551.546    277.04475    -59828.59    10929.669 
  116800    293.53515   -59565.419     279.9912    -59845.41   -4271.4387 
  117000    295.40387   -59554.818     281.7737   -59836.592   -16025.918 
  117200    292.44268   -59547.511    278.94915    -59826.46   -2527.3736 
  117400    302.36728   -59554.533    288.41582   -59842.949   -411.66173 
  117600    290.68067   -59562.976    277.26843   -59840.244    10036.498 
  117800     293.7063   -59556.754    280.15446   -59836.908    10692.965 
  118000    310.34624   -59537.832    296.02662   -59833.859   -22330.022 
  118200    275.09363   -59575.495     262.4006   -59837.896    2210.1108 
  118400    305.73404   -59551.597    291.62724   -59843.224   -2928.5478 
  118600     332.1659    -59545.19     316.8395   -59862.029    10690.845 
  118800     292.1563   -59565.563    278.67598   -59844.239     3730.798 
  119000    309.33335    -59532.86    295.06046   -59827.921    4620.8519 
  119200    302.31919   -59541.429    288.36994   -59829.799    3175.2088 
  119400    294.10645   -59568.717    280.53615   -59849.253   -610.74151 
  119600    291.58414   -59553.216    278.13022   -59831.346   -9762.0897 
  119800    305.44177   -59528.023    291.34844   -59819.372    3399.3476 
  120000    298.00475   -59569.126    284.25457   -59853.381    2751.6526 
  120200    280.91545   -59576.932    267.95379   -59844.886   -9770.5941 
  120400    315.32278   -59528.402    300.77354   -59829.175   -9910.9714 
  120600    316.11445     -59553.6    301.52869   -59855.129   -9142.6323 
  120800     312.7939   -59552.036    298.36135   -59850.398    2505.0721 
  121000    278.46873   -59575.796    265.61996   -59841.416   -9120.4246 
  121200    295.07834    -59577.73    281.46319   -59859.193   -5280.8205 
  121400    297.10393   -59532.217    283.39532   -59815.612   -627.61339 
  121600    302.12838   -59560.321    288.18794   -59848.509   -5557.3347 
  121800    289.39751   -59582.946    276.04449    -59858.99   -4044.4368 
  122000    280.61863   -59588.894    267.67067   -59856.565    6386.9486 
  122200    308.35455   -59543.375    294.12683   -59837.502    12039.006 
  122400    329.54214   -59530.713     314.3368    -59845.05   -6738.5649 
  122600    285.63405   -59575.617    272.45467   -59848.071   -1084.6326 
  122800    307.59437   -59554.718    293.40172    -59848.12    876.34135 
  123000    319.67483   -59522.114    304.92478   -59827.039   -9018.9492 
  123200    296.61186   -59552.981    282.92596   -59835.907   -1881.8967 
  123400    305.12469   -59566.244      291.046    -59857.29     3612.722 
  123600    276.34144   -59604.573    263.59083   -59868.164    5994.5393 
  123800    296.02267   -59559.286    282.36396    -59841.65    5387.0735 
  124000    301.44067   -59545.081    287.53197   -59832.613    -6266.676 
  124200    295.50446   -59570.731    281.86966   -59852.601   -6676.9816 
  124400    262.79751   -59598.121    250.67183   -59848.793   -18301.559 
  124600    270.93549   -59556.903    258.43432   -59815.337   -9226.7908 
  124800     305.6679   -59537.395    291.56414   -59828.959    24187.374 
  125000    308.50316   -59558.473    294.26859   -59852.741    2338.8102 
  125200    300.30346   -59574.161    286.44722   -59860.608   -3754.1713 
  125400    303.85905   -59534.239    289.83875   -59824.077   -1863.0052 
  125600    293.07179    -59564.78    279.54923   -59844.329    1273.5071 
  125800    295.55389   -59558.306     281.9168   -59840.222   -4050.3401 
  126000    305.13554   -59539.956    291.05635   -59831.013   -10597.297 
  126200    299.64848   -59581.559    285.82247   -59867.381    1020.3598 
  126400    318.70024   -59549.112    303.99516   -59853.107   -2864.5448 
  126600    300.27125   -59547.254     286.4165    -59833.67    2890.9761 
  126800    300.00275   -59581.213    286.16038   -59867.374   -16861.639 
  127000    309.61044   -59564.277    295.32477   -59859.602    15092.245 
  127200    321.93663   -59531.813    307.08222   -59838.895    10115.947 
  127400    305.59149   -59566.387    291.49126   -59857.878    285.89701 
  127600    266.51303   -59590.086    254.21591   -59844.302    7291.4321 
  127800    306.57552   -59570.454    292.42989   -59862.883   -269.57086 
  128000    314.65229    -59535.23    300.13399   -59835.364    615.44188 
  128200    282.56435    -59575.12    269.52661   -59844.646   -4155.5198 
  128400    301.40881   -59572.008    287.50157    -59859.51   -5005.7188 
  128600    293.36167   -59536.408    279.82573   -59816.234    240.60766 
  128800    287.61151   -59562.652    274.34089   -59836.993   -864.51201 
  129000    290.97935   -59565.537    277.55333    -59843.09   -3489.5753 
  129200    312.66167   -59536.324    298.23522   -59834.559   -9731.8648 
  129400    289.28344   -59569.651    275.93567   -59845.587    5929.3417 
  129600    294.15736    -59553.09    280.58471   -59833.675   -9188.3126 
  129800    319.04898   -59524.004    304.32781   -59828.332   -13575.336 
  130000    289.16496   -59568.157    275.82267    -59843.98   -12255.876 
  130200     299.1588   -59561.048    285.35538   -59846.404    11239.167 
  130400    314.89463   -59527.834    300.36514   -59828.199   -6557.9273 
  130600    288.27584   -59582.901    274.97457   -59857.875   -707.95144 
  130800    304.12935   -59554.831    290.09659   -59844.928   -18275.331 
  131000     297.9505   -59550.755    284.20283   -59834.958    2131.6124 
  131200    275.11659   -59581.181     262.4225   -59843.603    4159.4348 
  131400      308.678   -59535.878    294.43536   -59830.314     -536.565 
  131600    293.78437   -59561.064    280.22893   -59841.293   -3766.3534 
  131800    301.89389   -59579.041    287.96427   -59867.006     5618.924 
  132000    302.88042   -59533.427    288.90528   -59822.333   -4972.4268 
  132200    285.39989   -59567.193    272.23132   -59839.424   -6887.0482 
  132400    318.88433   -59550.539    304.17076   -59854.709    8203.5953 
  132600    318.33588   -59532.377    303.64762   -59836.025    -7528.108 
  132800     297.9508   -59563.701    284.20311   -59847.904   -10107.179 
  133000    309.48149   -59532.304    295.20177   -59827.506    1288.8839 
  133200    312.91986   -59549.062    298.48149   -59847.544    -13826.64 
  133400    307.42083    -59567.94    293.23619   -59861.177   -7350.1563 
  133600    318.01025   -59535.235      303.337   -59838.572   -280.13179 
  133800    290.90207    -59575.86    277.47962    -59853.34    6006.6007 
  134000    302.16146   -59556.269     288.2195   -59844.489    3133.3577 
  134200    317.13615   -59551.304    302.50324   -59853.807   -6005.9179 
  134400    301.37779   -59555.196    287.47199   -59842.668    3853.0049 
  134600    335.49316   -59517.855    320.01324   -59837.869   -2127.5618 
  134800    295.57118   -59564.102    281.93329   -59846.035   -1615.1243 
  135000    306.00315   -59553.202    291.88392   -59845.086   -496.11588 
  135200    314.87349   -59523.443    300.34498   -59823.788   -8801.0269 
  135400     296.1674   -59575.943      282.502   -59858.445    6130.4968 
  135600     301.5525   -59541.191    287.63863    -59828.83   -2925.6754 
  135800    300.94355   -59551.087    287.05778   -59838.145   -5841.5014 
  136000     311.4107   -59559.241    297.04197   -59856.283    1532.2928 
  136200    310.62018   -59545.329    296.28792   -59841.617    7003.6442 
  136400    321.29151   -59520.691    306.46686   -59827.158    3954.3822 
  136600    290.89761   -59565.818    277.47537   -59843.294    7414.2383 
  136800    302.10398   -59563.627    288.16467   -59851.792    3502.7521 
  137000    320.43867   -59531.036    305.65338   -59836.689    1365.2879 
  137200    300.53511   -59566.487    286.66818   -59853.155    12416.105 
  137400    295.15036   -59569.124    281.53189   -59850.656   -6833.5541 
  137600    307.15898   -59526.038    292.98643   -59819.024   -7011.1501 
  137800    291.79154   -59564.536    278.32805   -59842.864    819.85084 
  138000    291.61672   -59562.273     278.1613   -59840.435    -10943.63 
  138200    308.84952   -59520.184    294.59896   -59814.783   -7591.9343 
  138400    297.97635   -59561.779    284.22749   -59846.006    16206.149 
  138600    295.47183   -59567.281    281.83853   -59849.119   -3016.9431 
  138800    327.74237   -59516.506    312.62008   -59829.126    8869.2195 
  139000    294.71819   -59551.947    281.11966   -59833.067    -1009.728 
  139200    297.29222   -59564.748    283.57492   -59848.323   -11664.612 
  139400    312.48504   -59538.081    298.06674   -59836.148    1968.0839 
  139600    299.62728   -59531.427    285.80224    -59817.23   -94.073678 
  139800    298.45252   -59559.866    284.68168   -59844.547      10955.9 
  140000    307.69136    -59555.79    293.49424   -59849.285   -4263.8245 
  140200    314.96726   -59522.526    300.43443    -59822.96    11451.144 
  140400    290.33591   -59564.771    276.93959   -59841.711    3905.8447 
  140600    308.22775   -59556.061    294.00588   -59850.067    1419.9195 
  140800     291.9988   -59556.052    278.52574   -59834.578   -10902.717 
  141000     304.7492   -59565.078    290.68783   -59855.766   -403.40128 
  141200    317.91193   -59519.276    303.24322   -59822.519    1853.7838 
  141400    294.83223   -59548.125    281.22844   -59829.353    512.08989 
  141600     293.9244    -59577.46     280.3625   -59857.823   -2856.2807 
  141800    322.64828   -59538.327    307.76104   -59846.088    3635.0109 
  142000    294.00445   -59540.967    280.43885   -59821.405   -878.51071 
  142200    289.66294   -59569.917    276.29766   -59846.215    -12468.46 
  142400    297.25787    -59563.97    283.54216   -59847.513   -2232.3704 
  142600    307.88882   -59559.817    293.68259     -59853.5    4056.3871 
  142800    320.86951   -59537.836    306.06433     -59843.9    5508.2905 
  143000    315.45701   -59541.256    300.90158   -59842.158    -2704.214 
  143200    302.99442   -59575.017    289.01402   -59864.031     7678.397 
  143400    314.02274   -59528.452    299.53349   -59827.986   -14496.105 
  143600    294.53713   -59533.366    280.94696   -59814.313   -18700.034 
  143800     306.8413   -59552.411     292.6834   -59845.095    2990.4056 
  144000     282.3637   -59601.172    269.33522   -59870.507    5687.9222 
  144200    275.30923   -59583.343    262.60624    -59845.95    8095.0754 
  144400    304.98384   -59547.934    290.91164   -59838.845    5987.6166 
  144600    315.56359   -59537.834    301.00324   -59838.838   -3965.4352 
  144800    280.10966   -59574.191    267.18518   -59841.376   -12035.809 
  145000    293.90383   -59563.485    280.34288   -59843.828    4773.9595 
  145200    311.28801   -59524.765    296.92494    -59821.69    14800.589 
  145400    293.07936    -59561.67    279.55645   -59841.227   -21702.901 
  145600    297.51402   -59562.227    283.78649   -59846.013    5016.0011 
  145800    287.95316   -59567.946    274.66677   -59842.613    22718.136 
  146000    312.12406   -59546.411    297.72241   -59844.134    1600.2815 
  146200    280.61478   -59568.975    267.66699   -59836.642   -52.214025 
  146400    305.51878   -59557.372     291.4219   -59848.794    9631.4874 
  146600    316.47181   -59544.867    301.86955   -59846.736    2372.4619 
  146800    288.02491   -59566.459    274.73522   -59841.194   -8168.0909 
  147000    304.99414   -59522.882    290.92147   -59813.804    21284.094 
  147200    294.53527   -59549.978    280.94518   -59830.923   -501.80983 
  147400    298.10765   -59566.663    284.35273   -59851.016    1412.3713 
  147600    299.55489   -59545.713    285.73319   -59831.446    -3549.707 
  147800    327.73584   -59503.621    312.61385   -59816.235    8383.2888 
  148000    302.54595   -59547.897    288.58624   -59836.484   -2745.5443 
  148200    289.14515    -59572.03    275.80376   -59847.834    -2702.739 
  148400    296.08337   -59575.788    282.42185    -59858.21    8977.3143 
  148600    319.48971   -59530.577     304.7482   -59835.325    298.30449 
  148800    276.73413   -59566.172     263.9654   -59830.137    7093.8853 
  149000    283.59862   -59567.381    270.51315   -59837.894     14944.15 
  149200    302.50135   -59552.966     288.5437    -59841.51   -9526.2866 
  149400    286.53658   -59541.971    273.31555   -59815.287   -10875.968 
  149600    275.92398   -59566.686    263.19263   -59829.878   -3234.3643 
  149800    290.51081   -59575.411    277.10641   -59852.518   -4448.2391 
  150000     298.0866   -59542.032    284.33265   -59826.365   -4015.3041 
  150200    288.17844   -59582.773    274.88166   -59857.654    1481.5368 
  150400    301.42832   -59564.892    287.52018   -59852.412    3118.4153 
  150600    309.78231   -59551.999    295.48871   -59847.488   -2409.8255 
  150800    295.65933   -59568.926    282.01738   -59850.943    5124.5971 
  151000    286.91884   -59604.187    273.68018   -59877.867    6990.4814 
  151200    304.50264   -59559.147    290.45265   -59849.599    1727.1522 
  151400    309.53584   -59541.456    295.25361    -59836.71    1287.2462 
  151600    288.60089   -59572.621    275.28462   -59847.906    9274.3407 
  151800    292.98133   -59563.035    279.46294   -59842.498    5100.1244 
  152000    301.05744   -59548.006    287.16642   -59835.172    3489.8279 
  152200    275.83995   -59569.243    263.11248   -59832.356    4825.3247 
  152400    273.99147   -59588.393    261.34929   -59849.743   -9118.8802 
  152600    305.79828    -59542.26    291.68851   -59833.949    10214.934 
  152800     289.2668   -59561.982    275.91981   -59837.901    11991.009 
  153000     273.6218   -59587.577    260.99667   -59848.574    909.74744 
  153200    306.80577   -59540.929    292.64951   -59833.579   -16012.019 
  153400    293.82518   -59572.892    280.26785    -59853.16   -3852.0382 
  153600    309.99636   -59552.415    295.69289   -59848.107   -7913.7392 
  153800    322.04105   -59536.904    307.18183   -59844.086    -2847.134 
  154000    277.54815   -59569.801    264.74186   -59834.543   -13061.427 
  154200     295.9204    -59560.89     282.2664   -59843.156    228.84818 
  154400    327.09044   -59526.134    311.99823   -59838.132   -7248.9813 
  154600    279.73525   -59570.033    266.82805   -59836.861   -1908.9884 
  154800    305.16267   -59567.873    291.08223   -59858.955    3257.3884 
  155000    300.74083   -59529.575    286.86441    -59816.44    2551.6682 
  155200    314.79673   -59561.646    300.27177   -59861.918    3947.9286 
  155400    285.48297   -59567.238    272.31056   -59839.548     9778.984 
  155600    330.68577   -59531.894    315.42766   -59847.322   -3744.3812 
  155800    319.38588    -59549.97    304.64917   -59854.619   -6493.6694 
  156000    300.33936   -59560.059    286.48147   -59846.541   -2167.0569 
  156200    318.81553   -59507.021    304.10513   -59811.126    2464.8919 
  156400    307.50337   -59548.576    293.31493   -59841.891   -9731.1885 
  156600    276.37799    -59570.12    263.62569   -59833.745     6800.307 
  156800    317.68914   -59520.365    303.03072   -59823.396   -4926.4699 
  157000    311.79663   -59543.661    297.41008   -59841.071   -7205.7015 
  157200    293.59125   -59562.581    280.04472   -59842.625    6949.5856 
  157400    288.75794    -59582.31    275.43442   -59857.744   -5083.0231 
  157600    299.97851   -59558.167    286.13727   -59844.304   -8031.8168 
  157800    310.94714   -59538.984    296.59979   -59835.583    8099.8542 
  158000    306.77017   -59585.861    292.61555   -59878.477   -231.01494 
  158200    285.53652   -59568.385    272.36164   -59840.747   -4432.4087 
  158400    304.37619   -59546.475    290.33203   -59836.807   -8433.3998 
  158600    276.42014   -59585.795    263.66589   -59849.461     4969.106 
  158800    313.21534   -59551.873    298.76334   -59850.636    4787.6312 
  159000     309.2433   -59551.368    294.97457   -59846.342   -8482.8607 
  159200    310.10952   -59562.859    295.80082   -59858.659    -1448.017 
  159400    320.51396   -59516.998    305.72519   -59822.723    11608.759 
  159600    307.56267   -59531.375    293.37149   -59824.747   -6509.1913 
  159800    315.01281   -59567.449    300.47787   -59867.927   -9218.2324 
  160000    299.91731   -59551.464    286.07889   -59837.542    9295.1437 
  160200    317.44006   -59530.865    302.79312   -59833.658   -172.13352 
  160400    299.10171   -59573.171    285.30092   -59858.472   -3631.8617 
  160600    310.88151   -59556.413    296.53719    -59852.95   -1040.1547 
  160800    307.40333   -59534.969     293.2195   -59828.188    21792.061 
  161000    322.69562   -59533.364    307.80619    -59841.17   -424.31287 
  161200    291.75307    -59568.65    278.29135   -59846.941   -3391.3814 
  161400    296.68653   -59583.703    282.99718     -59866.7   -4344.6519 
  161600    297.61801   -59541.168    283.88568   -59825.054     6160.198 
  161800    320.18472   -59550.562    305.41114   -59855.973   -1484.2536 
  162000    278.37189   -59581.808    265.52759   -59847.336    13209.075 
  162200    296.58118   -59564.026     282.8967   -59846.923   -3552.9889 
  162400    295.91954   -59564.431    282.26558   -59846.697    3143.3588 
  162600    344.60868   -59507.653    328.70817   -59836.361   -5187.3748 
  162800    316.66655   -59542.422    302.05531   -59844.477   -9299.4899 
  163000    299.20744   -59575.849    285.40177   -59861.251   -13060.437 
  163200    301.06545   -59556.506    287.17406    -59843.68    1528.6503 
  163400    305.44893     -59537.5    291.35528   -59828.855   -1739.4498 
  163600    299.94821   -59560.068    286.10837   -59846.176   -6969.2896 
  163800    285.79906   -59606.727    272.61207   -59879.339   -14311.525 
  164000    296.20045   -59550.191    282.53353   -59832.724   -10875.787 
  164200     312.1368   -59533.501    297.73457   -59831.235   -6140.6249 
  164400    306.78604   -59569.112    292.63069   -59861.742    -1959.389 
  164600    294.81319    -59584.76    281.21028    -59865.97   -4791.0185 
  164800    312.08301   -59537.395    297.68325   -59835.079    6636.1271 
  165000    289.75908   -59562.981    276.38937    -59839.37   -6004.6215 
  165200    288.37881   -59575.902    275.07279   -59850.975    7.8279277 
  165400    307.06421   -59538.765    292.89603   -59831.661    9408.3116 
  165600    274.11706   -59578.732    261.46908   -59840.201    -4269.473 
  165800    301.97293   -59562.007    288.03966   -59850.046    3199.8623 
  166000    302.41549   -59547.818     288.4618    -59836.28    8409.6282 
  166200    285.70946   -59586.807     272.5266   -59859.334    5114.7911 
  166400    287.77869   -59571.245    274.50035   -59845.746   -5396.6859 
  166600    305.97251   -59546.597     291.8547   -59838.452    4244.6621 
  166800    292.73982   -59570.069    279.23257   -59849.301     67.14659 
  167000    289.38079   -59584.728    276.02854   -59860.757    5836.3281 
  167200    304.16786   -59555.114    290.13332   -59845.247    2903.5189 
  167400    305.05691   -59560.782    290.98134   -59851.764    2486.5538 
  167600    273.42146    -59595.81    260.80558   -59856.615    2106.8997 
  167800    296.77655   -59546.313    283.08305   -59829.396    4303.7714 
  168000    280.40937    -59564.83    267.47106   -59832.301    538.17605 
  168200    298.19703   -59558.963    284.43799   -59843.401    1835.3499 
  168400    324.43632   -59531.436    309.46657   -59840.903    8735.7957 
  168600    294.77089   -59566.754    281.16993   -59847.924    2770.3914 
  168800    296.92508   -59541.475    283.22472     -59824.7    3745.1785 
  169000    307.78156   -59524.503    293.58028   -59818.083   -2675.5822 
  169200    307.48053   -59551.336    293.29314    -59844.63    8176.3008 
  169400    284.42785   -59573.091    271.30413   -59844.395    -6975.305 
  169600    275.00449   -59603.236    262.31557   -59865.551    9193.2016 
  169800    289.41244    -59559.04    276.05873   -59835.099    4631.8583 
  170000    280.42388   -59551.257     267.4849   -59818.741   -3806.9244 
  170200    293.21949   -59576.168    279.69011   -59855.858     481.2034 
  170400    298.91103    -59565.95    285.11904   -59851.069    8256.7582 
  170600    288.96166   -59548.356    275.62874   -59823.985    15398.687 
  170800     292.1821   -59560.346    278.70059   -59839.047   -779.55963 
  171000    288.31367   -59589.423    275.01065   -59864.434    1138.2318 
  171200    301.91816   -59547.416    287.98742   -59835.403   -10545.299 
  171400    304.44037   -59558.876    290.39325   -59849.269      11969.5 
  171600    270.06436   -59612.408    257.60338   -59870.011    -10009.27 
  171800    287.99458   -59578.615    274.70629   -59853.321    7041.2702 
  172000    305.52358   -59544.905    291.42648   -59836.331    4240.3393 
  172200    283.80706    -59576.72    270.71198   -59847.432    714.86033 
  172400     292.1711   -59550.582     278.6901   -59829.272    2494.8797 
  172600    333.83822    -59541.99    318.43466   -59860.425    3002.7667 
  172800    300.21961   -59576.869    286.36724   -59863.237   -939.01745 
  173000    316.78743   -59538.298     302.1706   -59840.468    5237.3779 
  173200    304.67072   -59539.348    290.61298   -59829.961   -343.50436 
  173400    310.10407   -59565.369    295.79563   -59861.165   -3613.2845 
  173600    288.45434   -59559.102    275.14483   -59834.246    -17407.35 
  173800    304.73924    -59555.22    290.67833   -59845.899     9677.892 
  174000     303.4063   -59535.747     289.4069   -59825.154   -2332.3982 
  174200    306.90741   -59550.589    292.74646   -59843.335   -3123.8251 
  174400    300.64561   -59571.177    286.77358   -59857.951   -12870.128 
  174600    320.36513   -59529.588    305.58323   -59835.171   -8979.6905 
  174800    327.27593   -59502.097    312.17516   -59814.273   -8185.7585 
  175000    311.70787   -59555.079    297.32543   -59852.405    8120.0002 
  175200    288.33425   -59574.293    275.03028   -59849.323    4261.6849 
  175400    289.23537   -59588.502    275.88982   -59864.392   -369.68846 
  175600    308.17272   -59541.925    293.95339   -59835.878      16551.1 
  175800    300.43404   -59562.129    286.57178   -59848.701     243.6088 
  176000    276.67993   -59593.007     263.9137    -59856.92   -3457.8799 
  176200    291.25737   -59574.687    277.81853   -59852.506     1642.842 
  176400    293.89473   -59549.703     280.3342   -59830.037   -1298.0616 
  176600    275.31895   -59569.889    262.61552   -59832.504   -7728.4663 
  176800    295.91406   -59567.475    282.26036   -59849.736   -3810.1167 
  177000    301.62203   -59536.445    287.70496   -59824.149   -1797.0182 
  177200    274.40066   -59586.668    261.73959   -59848.408   -7646.3968 
  177400    302.34213     -59551.1    288.39183   -59839.492   -20741.775 
  177600    311.32515   -59543.195    296.96036   -59840.155    -4924.815 
  177800    293.31976   -59584.823    279.78576   -59864.609    3750.7086 
  178000     310.2299   -59548.219    295.91565   -59844.134    10097.086 
  178200    307.42367   -59543.324     293.2389   -59836.563   -24445.832 
  178400    304.77454    -59556.31      290.712   -59847.022    -3149.801 
  178600    264.02794    -59596.26    251.84548   -59848.105   -7374.2713 
  178800    310.61856   -59554.421    296.28637   -59850.707    3015.8495 
  179000    305.38209   -59548.421    291.29152   -59839.712    5368.4497 
  179200    284.58059   -59581.435    271.44982   -59852.885   -2799.2101 
  179400    298.11446   -59554.673    284.35923   -59839.032    7569.7961 
  179600    311.55904   -59553.439    297.18347   -59850.623    11772.736 
[...]
  950000    295.57309    -59556.35    281.93512   -59838.285    19454.369 
  950200    265.54702   -59576.729    253.29448   -59830.023   -8059.6708 
  950400    301.49933   -59576.274    287.58791   -59863.862    6946.2146 
  950600    307.57762   -59535.237    293.38575   -59828.622     11989.35 
  950800    276.35675   -59572.448    263.60544   -59836.054    1461.6798 
  951000    305.65845   -59570.222    291.55513   -59861.777    3696.9745 
  951200    332.56967   -59537.736    317.22464    -59854.96   -6393.4469 
  951400    319.73649   -59508.011    304.98359   -59812.994    11292.514 
  951600    291.94097    -59561.26    278.47058    -59839.73    2398.8643 
  951800    300.97745   -59561.311    287.09011   -59848.401   -13689.977 
  952000    315.26731   -59518.352    300.72063   -59819.072   -8518.0796 
  952200    285.52299   -59564.086    272.34873   -59836.435    4430.0269 
  952400    298.74342   -59548.188    284.95917   -59833.147    -8927.732 
  952600    300.37242   -59537.057      286.513    -59823.57   -3389.5478 
  952800     274.5092   -59579.895    261.84313   -59841.738    10013.705 
  953000    296.72952   -59545.524    283.03818   -59828.562   -10438.111 
  953200    290.55527   -59548.251    277.14882     -59825.4    4241.3513 
  953400     295.7443   -59560.466    282.09843   -59842.565    12335.717 
  953600      289.896   -59590.153    276.51997   -59866.673     9743.635 
  953800    307.87535   -59559.473    293.66974   -59853.143    2697.0035 
  954000    306.56168   -59548.998    292.41668   -59841.415   -815.42113 
  954200     284.1695   -59584.409    271.05769   -59855.467    2782.0528 
  954400    305.08517    -59562.31     291.0083   -59853.319    -11699.97 
  954600    300.85025   -59556.994    286.96879   -59843.963   -1303.5897 
  954800    279.40771   -59570.963    266.51562   -59837.478    4716.1991 
  955000    288.22163   -59564.833    274.92286   -59839.756   -691.30369 
  955200    297.07103   -59542.645    283.36394   -59826.008    10483.006 
  955400    309.76292   -59578.141    295.47021   -59873.611   -1167.2834 
  955600    280.03359   -59597.178    267.11262   -59864.291   -1121.7191 
  955800     319.4939   -59551.612     304.7522   -59856.364   -4299.3079 
  956000    312.24346   -59541.064     297.8363   -59838.901    -823.5993 
  956200    274.97903   -59584.897    262.29128   -59847.189   -8938.3928 
  956400    299.90135   -59553.444    286.06366   -59839.507    6942.1604 
  956600    305.09099    -59550.91    291.01385   -59841.924    7115.4615 
  956800    290.76312   -59583.442    277.34709    -59860.79    12609.693 
  957000    284.90158    -59565.03      271.756   -59836.786    5454.1533 
  957200     301.8864   -59548.476    287.95713   -59836.433   -12238.578 
  957400    293.29042    -59567.14    279.75777   -59846.897   -673.76551 
  957600    303.34855   -59573.716    289.35181   -59863.068    7536.1763 
  957800    307.29656   -59538.117    293.11765   -59831.234    6625.9419 
  958000      311.948   -59565.541    297.55447   -59863.095    7020.0418 
  958200    297.03922   -59555.168     283.3336   -59838.501   -1297.8554 
  958400    313.85993   -59534.406    299.37819   -59833.784    -10414.15 
  958600    313.52304   -59571.349    299.05684   -59870.406   -7748.5886 
  958800    309.18469   -59551.905    294.91867   -59846.824    3122.7343 
  959000    325.43339   -59506.987    310.41764   -59817.404    18963.181 
  959200    311.31165   -59553.073    296.94749   -59850.021    9371.9583 
  959400    285.34208   -59570.899    272.17618   -59843.076   -297.77749 
  959600    303.49287    -59541.14    289.48947   -59830.629    18835.042 
  959800    318.23774   -59547.382      303.554   -59850.936   -402.70129 
  960000    298.61059   -59572.271    284.83246   -59857.103    2543.1851 
  960200    300.68821   -59541.373    286.81422   -59828.187    5464.3618 
  960400      323.172   -59554.676    308.26059   -59862.936   -8355.2747 
  960600    285.20369   -59586.535    272.04417   -59858.579    11491.424 
  960800    317.76864   -59542.933    303.10654    -59846.04   -6093.5607 
  961000    302.23943   -59548.369    288.29386   -59836.663   -3302.2534 
  961200     280.0796   -59586.432    267.15651   -59853.588   -4635.5642 
  961400    302.92112   -59549.052    288.94411   -59837.996   -21904.482 
  961600    313.43261   -59552.201    298.97058   -59851.172     358.1625 
  961800    291.93442   -59571.198    278.46433   -59849.663   -5173.2985 
  962000    316.31759   -59569.659    301.72245   -59871.381    2678.9751 
  962200    296.08234   -59541.612    282.42087   -59824.032   -3461.4387 
  962400    304.92036   -59562.217    290.85109   -59853.068   -3966.6989 
  962600    295.76254    -59552.81    282.11583   -59834.926   -9367.0586 
  962800    316.76529   -59545.269    302.14949   -59847.418   -72.876026 
  963000      302.773   -59584.692    288.80282   -59873.494   -1608.5066 
  963200     307.9845   -59543.674    293.77385   -59837.447   -7140.4203 
  963400    319.54198   -59548.164    304.79806   -59852.962    6167.5482 
  963600    285.35643   -59584.918    272.18986   -59857.108    1033.9207 
  963800    295.39646   -59558.835    281.76663   -59840.601   -15918.181 
  964000    304.19638   -59553.907    290.16052   -59844.068    3365.4059 
  964200     313.7378   -59550.501     299.2617   -59849.763    8142.3235 
  964400    299.51013   -59565.411     285.6905   -59851.101    16566.105 
  964600    286.69831   -59578.915    273.46983   -59852.384   -7802.2671 
  964800    315.57662     -59533.6    301.01567   -59834.615    7890.5349 
  965000    314.24801   -59546.019    299.74836   -59845.767   -6393.8412 
  965200    286.57169   -59584.414    273.34905   -59857.763   -7378.8186 
  965400    301.92476   -59547.167    287.99371   -59835.161   -6622.5027 
  965600    294.97644   -59552.124      281.366    -59833.49   -9253.5845 
  965800    303.79862   -59573.821    289.78111   -59863.602   -12009.736 
  966000    284.54756    -59563.19    271.41832   -59834.608    2577.3172 
  966200    304.06224   -59545.766    290.03257   -59835.799   -3704.5862 
  966400    290.55912   -59582.978     277.1525    -59860.13   -4784.4908 
  966600    281.82631    -59588.51    268.82262   -59857.332   -2135.7156 
  966800    307.84259    -59562.56    293.63849   -59856.198   -5261.0647 
  967000    317.36708   -59539.946    302.72352    -59842.67   -14986.784 
  967200    287.88885   -59580.341    274.60543   -59854.946    18071.742 
  967400    298.76572    -59563.74    284.98044   -59848.721    -10170.09 
  967600    316.96438   -59545.116    302.33939   -59847.456   -6710.4935 
  967800     286.8839   -59568.183    273.64685    -59841.83    -583.3579 
  968000    293.53855   -59565.034    279.99445   -59845.029    12934.285 
  968200    313.07523   -59528.926    298.62969   -59827.555   -5638.0484 
  968400    299.60216   -59571.205    285.77829   -59856.983    16905.651 
  968600    293.51474   -59557.522    279.97174   -59837.493   -10386.805 
  968800    333.56197   -59518.967    318.17116   -59837.138   -531.62963 
  969000    320.56501   -59522.925    305.77389   -59828.699   -10268.716 
  969200    286.47076   -59558.383    273.25278   -59831.636     9608.727 
  969400    301.86678   -59564.607    287.93841   -59852.546   -10495.751 
  969600    294.21192   -59542.416    280.63675   -59823.053    1304.8413 
  969800    296.67399   -59529.043    282.98522   -59812.028   -5667.8764 
  970000    297.07699     -59572.3    283.36962   -59855.669   -703.48432 
  970200    301.12341   -59551.668    287.22934   -59838.898   -1124.3383 
  970400    319.58811    -59504.24    304.84206   -59809.082    8133.0421 
  970600     293.0667   -59558.821    279.54437   -59838.365   -15063.021 
  970800    312.52318   -59560.693    298.10311   -59858.796    5477.4498 
  971000    320.19328    -59555.55    305.41931   -59860.969    6901.5841 
  971200    281.51155   -59580.443    268.52239   -59848.965    -12868.15 
  971400     310.2982   -59543.162     295.9808   -59839.143    1510.4028 
  971600    328.48242    -59543.58    313.32598   -59856.906   -9192.4836 
  971800    312.03016    -59569.34    297.63284   -59866.973    2738.3277 
  972000    326.73272   -59547.253    311.65702    -59858.91   -2807.6886 
  972200    318.01292   -59545.792    303.33956   -59849.132   -2505.3959 
  972400    290.39624   -59576.773    276.99713    -59853.77   -5063.4483 
  972600    307.79322   -59532.101     293.5914   -59825.692   -7278.7582 
  972800    301.93449   -59544.611    288.00299   -59832.614   -10935.293 
  973000    290.41991   -59557.521    277.01971   -59834.541    1208.4955 
  973200    318.62545   -59508.334    303.92382   -59812.258     197.9356 
  973400     285.7382   -59541.462    272.55402   -59814.016   -4875.0583 
  973600    299.57477   -59560.915    285.75216   -59846.667   -11838.881 
  973800    312.19547   -59523.762    297.79053   -59821.552    9384.9358 
  974000    310.31666   -59536.748    295.99841   -59832.746   -3661.4943 
  974200    292.24077   -59557.146    278.75656   -59835.903   -783.00094 
  974400    292.08879   -59562.576    278.61159   -59841.188   -3875.5106 
  974600    303.03182   -59522.663    289.04969   -59811.713    5610.3909 
  974800    287.95032   -59567.318    274.66407   -59841.982    -5460.247 
  975000    308.36048   -59554.607    294.13248   -59848.739    4107.0837 
  975200     311.2838   -59534.073    296.92092   -59830.994    5611.4706 
  975400    283.84678   -59577.231    270.74986   -59847.981   -1439.1009 
  975600    309.65428   -59558.482    295.36659   -59853.848    3982.8711 
  975800    299.39823   -59551.987    285.58376   -59837.571   -4307.6784 
  976000    291.82308   -59561.026    278.35813   -59839.385   -10133.791 
  976200    303.45969   -59551.263    289.45782    -59840.72    2834.1791 
  976400    297.81177   -59562.176     284.0705   -59846.247    3914.1845 
  976600     278.9636   -59583.153      266.092   -59849.245    4562.4274 
  976800    295.01955   -59532.068    281.40711   -59813.476    -3739.537 
  977000    289.03869   -59559.441    275.70221   -59835.143    5418.0231 
  977200    295.72635   -59561.308    282.08131   -59843.389    1533.3133 
  977400     307.3291   -59519.352    293.14869   -59812.501    24470.221 
  977600    284.24552   -59562.352     271.1302   -59833.482   -4658.1164 
  977800    292.44078   -59556.476    278.94733   -59835.424   -5142.4714 
  978000    311.91712   -59510.227    297.52502   -59807.752   -9906.6476 
  978200     308.3225   -59541.647    294.09626   -59835.743    91.381272 
  978400    306.70689   -59557.982    292.55519   -59850.537    3742.9896 
  978600    293.12779   -59556.728    279.60265   -59836.331    17068.813 
  978800    296.82514   -59542.661    283.12939    -59825.79   -2705.3922 
  979000    289.33074   -59566.529    275.98079    -59842.51   -7080.0229 
  979200    286.11481   -59573.737    272.91325    -59846.65   -7941.5325 
  979400    323.63653   -59534.958    308.70369   -59843.662   -1742.4694 
  979600    290.70742   -59572.919    277.29395   -59850.213    17834.969 
  979800    298.57793   -59556.119    284.80131    -59840.92   -2090.8971 
  980000    342.72649   -59495.443    326.91282   -59822.356    1979.7761 
  980200    307.87075    -59543.04    293.66535   -59836.706    631.64388 
  980400    290.29108   -59572.668    276.89682   -59849.565    3066.0569 
  980600    308.44543   -59540.243    294.21352   -59834.457   -4644.0934 
  980800    299.50534   -59547.102    285.68593   -59832.788   -6278.4225 
  981000    304.55153    -59558.13    290.49928   -59848.629   -1876.9724 
  981200    282.06011    -59564.36    269.04564   -59833.405   -334.39563 
  981400    311.58772   -59564.795    297.21082   -59862.006   -10163.795 
  981600     313.4359   -59530.749    298.97372   -59829.723   -10863.991 
  981800    291.03119   -59569.283    277.60278   -59846.885    10400.993 
  982000    281.58819   -59568.151    268.59549   -59836.746   -13295.127 
  982200    303.05876   -59541.973     289.0754   -59831.048    10501.519 
  982400    282.62486   -59554.776    269.58433    -59824.36     11510.85 
  982600    291.30618   -59577.026    277.86509   -59854.891   -2155.7026 
  982800    301.93891   -59538.761    288.00721   -59826.768   -9941.8569 
  983000    280.58415   -59577.145    267.63778   -59844.783   -5055.7602 
  983200    285.99773   -59573.714    272.80157   -59846.516    8318.9449 
  983400    315.01388   -59543.341    300.47889   -59843.819   -14770.843 
  983600    288.05231   -59575.633    274.76135   -59850.394    2274.2968 
  983800    291.21671   -59577.314    277.77975   -59855.094    4359.7469 
  984000    305.54962    -59547.65    291.45132   -59839.102   -8133.2808 
  984200    299.51338   -59557.878     285.6936   -59843.572    5317.6766 
  984400    275.71544    -59603.11    262.99372   -59866.104     33.04516 
  984600     280.8619   -59577.568    267.90271   -59845.471    1560.4495 
  984800    308.26315   -59545.267    294.03964   -59839.306   -7618.0911 
  985000    296.47403   -59580.344    282.79448   -59863.139   -2267.8688 
  985200    295.15457   -59584.187    281.53591   -59865.722   -1668.7005 
  985400    311.84463   -59553.873    297.45588   -59851.329    -11944.03 
  985600    299.94204   -59562.012    286.10248   -59848.114    7457.0437 
  985800    319.02294    -59523.04    304.30297   -59827.343    540.76714 
  986000    297.11346   -59570.616    283.40441    -59854.02   -7179.9896 
  986200    288.92482   -59564.607    275.59361     -59840.2    6862.6028 
  986400    315.38029   -59537.884     300.8284   -59838.712    8033.9993 
  986600    293.40715   -59544.898    279.86911   -59824.767   -11247.481 
  986800    294.84764   -59556.064    281.24314   -59837.307     2015.041 
  987000    299.64498   -59561.127    285.81912   -59846.946   -5181.6155 
  987200    298.44366   -59535.138    284.67324   -59819.812    -6890.985 
  987400     296.5645   -59534.251    282.88079   -59817.132    17055.129 
  987600    303.67681   -59559.979    289.66492   -59849.644    4040.7373 
  987800    292.58122   -59561.992     279.0813   -59841.073   -4053.1766 
  988000    310.00576   -59536.274    295.70185   -59831.976   -4079.3661 
  988200    307.27622   -59555.824    293.09826   -59848.923     8629.649 
  988400    304.50376   -59580.082    290.45372   -59870.536    20012.674 
  988600    310.50357   -59539.683    296.17669    -59835.86    3102.4937 
  988800    305.77291   -59545.338    291.66431   -59837.002    4342.8656 
  989000    304.84207   -59570.817    290.77642   -59861.593    5890.9878 
  989200    301.86804   -59602.289    287.93962   -59890.228   -17149.163 
  989400    312.54858   -59553.185    298.12735   -59851.313     640.6156 
  989600    312.61784   -59550.811    298.19341   -59849.005     644.6224 
  989800       287.81   -59575.904    274.53022   -59850.434   -12792.443 
  990000     289.9977   -59548.311    276.61698   -59824.928   -3058.2022 
  990200    293.10231   -59546.436    279.57834   -59826.014    9829.1866 
  990400    273.02067   -59595.427    260.42328   -59855.851   -2171.8158 
  990600    289.01364   -59561.191    275.67833   -59836.869    809.99402 
  990800    301.16539   -59544.714    287.26938   -59831.983   -2244.0402 
  991000    268.00969   -59574.118    255.64351   -59829.762   -10311.403 
  991200    292.40873   -59548.814    278.91676   -59827.731    16281.959 
  991400    301.89179   -59534.777    287.96227   -59822.739    13111.808 
  991600     285.6559   -59577.634    272.47551   -59850.109   -10795.376 
  991800    287.26847   -59564.949    274.01368   -59838.962    977.03091 
  992000    315.72771    -59531.93    301.15979    -59833.09    16197.103 
  992200     292.7968    -59584.03    279.28692   -59863.317   -2690.2285 
  992400    289.28018   -59561.911    275.93256   -59837.844    997.21742 
  992600    308.44249   -59535.795    294.21071   -59830.005    8482.5241 
  992800    280.92734   -59586.051    267.96513   -59854.016   -9397.8787 
  993000    299.17546   -59564.346    285.37127   -59849.718   -6618.9356 
  993200    284.09915   -59543.898    270.99059   -59814.889   -496.66695 
  993400    289.05267   -59588.996    275.71555   -59864.711    -3084.979 
  993600    294.57971   -59560.906    280.98757   -59841.893    1190.5696 
  993800    292.36261   -59556.023    278.87277   -59834.896    3979.9875 
  994000    291.77435   -59594.675    278.31165   -59872.987    4947.7892 
  994200    291.25318   -59560.377    277.81453   -59838.191   -6938.4364 
  994400    293.78386   -59547.177    280.22844   -59827.405   -1344.2327 
  994600    285.83337   -59579.176     272.6448   -59851.821    3908.7686 
  994800     285.8182   -59557.648    272.63032   -59830.278   -8378.7796 
  995000    313.01502   -59537.696    298.57226   -59836.268    1418.1543 
  995200    297.01224   -59568.233    283.30786   -59851.541    5411.5584 
  995400    314.17079    -59524.68     299.6747   -59824.355    -4175.438 
  995600    295.54279   -59548.934    281.90621    -59830.84     2549.167 
  995800    321.53332   -59555.629    306.69752   -59862.326    3258.9516 
  996000    309.92401   -59516.501    295.62387   -59812.125   -4983.3567 
  996200    307.19413   -59560.802    293.01996   -59853.822    5298.5985 
  996400    288.02244   -59562.012    274.73286   -59836.745    16561.778 
  996600    317.17195   -59528.497    302.53738   -59831.035   -19552.384 
  996800    304.49497   -59580.161    290.44534   -59870.606    13177.565 
  997000     293.4613   -59556.476    279.92076   -59836.397   -10888.935 
  997200     308.6312   -59536.597    294.39071   -59830.988    6143.5787 
  997400    284.51399   -59578.638    271.38629   -59850.024   -10067.637 
  997600    302.12378   -59551.168    288.18356   -59839.352    9283.2773 
  997800    287.77833   -59551.636    274.50001   -59826.136    3822.0924 
  998000    283.16399   -59579.706    270.09858   -59849.804    9061.1252 
  998200    291.80019    -59547.25     278.3363   -59825.586    201.36914 
  998400    287.19157   -59571.129    273.94033    -59845.07   -10695.352 
  998600    280.07512   -59593.347    267.15224   -59860.499     4351.849 
  998800    310.33316   -59557.782    296.01415   -59853.796    14585.708 
  999000    299.49369   -59536.017    285.67481   -59821.692    7953.0208 
  999200      303.868   -59547.353    289.84729   -59837.201   -11480.035 
  999400    298.86975    -59563.89    285.07967    -59848.97    6734.7815 
  999600    331.07377   -59521.856    315.79777   -59837.654   -5342.9724 
  999800    268.48262   -59564.088    256.09462   -59820.183     1007.541 
 1000000     315.6697   -59553.119    301.10445   -59854.223   -3247.2339 
Loop time of 14073 on 8 procs for 1000000 steps with 321 atoms

Performance: 1.535 ns/day, 15.637 hours/ns, 71.058 timesteps/s
99.3% CPU use with 8 MPI tasks x no OpenMP threads

MPI task timing breakdown:
Section |  min time  |  avg time  |  max time  |%varavg| %total
---------------------------------------------------------------
Pair    | 12558      | 13092      | 13227      | 182.3 | 93.03
Neigh   | 0.34931    | 0.35366    | 0.36373    |   0.7 |  0.00
Comm    | 95.485     | 230.57     | 764.52     |1373.0 |  1.64
Output  | 0.11211    | 0.1229     | 0.18293    |   6.5 |  0.00
Modify  | 742.74     | 743.36     | 744.05     |   1.6 |  5.28
Other   |            | 7.032      |            |       |  0.05

Nlocal:    40.125 ave 46 max 32 min
Histogram: 1 0 1 1 0 0 1 1 2 1
Nghost:    1640.88 ave 1648 max 1630 min
Histogram: 1 0 0 2 0 0 1 1 1 2
Neighs:    10057.8 ave 11397 max 8121 min
Histogram: 1 0 1 1 0 0 1 1 2 1

Total # of neighbors = 80462
Ave neighs/atom = 250.66
Neighbor list builds = 95
Dangerous builds = 0

unfix 1
unfix output
undump 1

Please see the log.cite file for references relevant to this simulation

Total wall time: 3:54:45
