ITEM: TIMESTEP
0
ITEM: NUMBER OF ATOMS
321
ITEM: BOX BOUNDS pp pp pp
0.0000000000000000e+00 1.9018000000000001e+01
0.0000000000000000e+00 1.9018000000000001e+01
0.0000000000000000e+00 1.9018000000000001e+01
ITEM: ATOMS id type x y z 
10 1 6.117 6.117 0.228 
22 1 0.228 6.117 6.117 
34 1 6.117 0.228 6.117 
89 1 3.299 4.982 1.363 
90 1 1.962 4.752 0.945 
97 1 4.982 3.299 1.363 
98 1 4.752 3.716 2.699 
105 1 3.299 1.362 4.982 
106 1 3.716 2.699 4.752 
121 1 4.982 1.362 3.299 
122 1 4.752 0.945 1.962 
125 1 8.053 8.053 0.228 
127 1 0.422 4.239 4.239 
130 1 4.239 0.422 4.239 
133 1 0.422 0.422 0.422 
136 1 4.239 4.239 0.422 
157 1 1.363 3.299 4.982 
158 1 0.945 1.962 4.752 
165 1 1.363 4.982 3.299 
166 1 2.699 4.752 3.716 
189 1 0.228 8.053 8.053 
207 1 8.053 0.228 8.053 
277 1 4.752 1.962 0.945 
284 1 3.716 4.752 2.699 
297 1 2.699 3.716 4.752 
306 1 0.945 4.752 1.962 
315 1 1.962 0.945 4.752 
319 1 4.752 2.699 3.716 
11 1 7.454 5.7 19.015 
16 1 4.433 6.117 17.562 
17 1 4.664 7.454 17.979 
25 1 6.117 4.433 17.562 
26 1 5.7 4.664 16.225 
39 1 8.994 8.994 18.502 
42 1 5.176 5.176 18.502 
43 1 1.363 1.362 18.696 
44 1 0.945 2.699 18.927 
45 1 5.176 8.994 14.685 
48 1 8.994 5.176 14.685 
79 1 3.299 3.299 18.696 
80 1 3.716 1.962 18.927 
85 1 3.299 9.187 12.807 
86 1 1.962 9.418 13.224 
95 1 9.187 3.299 12.807 
96 1 9.418 3.716 11.47 
119 1 9.187 1.362 10.871 
120 1 9.418 0.945 12.208 
126 1 6.716 8.47 19.015 
144 1 9.506 6.716 17.979 
148 1 8.47 9.506 16.225 
161 1 1.363 9.187 10.871 
162 1 2.699 9.418 10.454 
179 1 6.117 8.053 13.942 
180 1 7.454 8.47 14.173 
185 1 4.433 8.053 15.626 
186 1 4.664 6.716 15.209 
200 1 5.7 9.506 16.963 
201 1 8.053 4.433 15.626 
202 1 8.47 4.664 16.963 
215 1 8.053 6.117 13.942 
216 1 6.716 5.7 14.173 
220 1 9.506 7.454 15.209 
227 1 2.699 0.945 18.927 
240 1 5.7 7.454 19.015 
242 1 7.454 4.664 17.979 
245 1 4.664 5.7 16.225 
252 1 8.47 6.716 19.015 
254 1 6.716 9.506 17.979 
257 1 9.506 8.47 16.225 
264 1 8.47 7.454 14.173 
266 1 6.716 4.664 15.209 
269 1 9.506 5.7 16.963 
274 1 1.962 3.716 18.927 
279 1 9.418 1.962 13.224 
281 1 3.716 9.418 11.47 
288 1 5.7 6.716 14.173 
290 1 7.454 9.506 15.209 
293 1 4.664 8.47 16.963 
307 1 0.945 9.418 12.208 
317 1 9.418 2.699 10.454 
4 1 6.117 17.562 4.433 
5 1 7.454 17.979 4.664 
13 1 4.433 17.562 6.117 
14 1 4.664 16.225 5.7 
35 1 5.7 19.015 7.454 
51 1 8.994 18.502 8.994 
54 1 5.176 18.502 5.176 
55 1 1.363 18.696 1.363 
56 1 2.699 18.927 0.945 
57 1 8.994 14.685 5.176 
60 1 5.176 14.685 8.994 
93 1 9.187 10.871 1.363 
94 1 9.418 10.454 2.699 
103 1 3.299 12.807 9.187 
104 1 3.716 11.47 9.418 
113 1 3.299 18.696 3.299 
114 1 1.962 18.927 3.716 
117 1 9.187 12.807 3.299 
118 1 9.418 13.224 1.962 
131 1 8.053 15.626 4.433 
132 1 6.716 15.209 4.664 
142 1 9.506 16.963 5.7 
149 1 8.053 13.942 6.117 
150 1 8.47 14.173 7.454 
155 1 1.363 10.871 9.187 
156 1 0.945 12.208 9.418 
184 1 7.454 15.209 9.506 
187 1 4.433 15.626 8.053 
188 1 4.664 16.963 8.47 
193 1 6.117 13.942 8.053 
194 1 5.7 14.173 6.716 
208 1 8.47 19.015 6.716 
212 1 6.716 17.979 9.506 
218 1 9.506 16.225 8.47 
235 1 0.945 18.927 2.699 
237 1 5.7 16.225 4.664 
244 1 7.454 19.015 5.7 
246 1 4.664 17.979 7.454 
249 1 8.47 16.963 4.664 
256 1 6.716 14.173 5.7 
258 1 9.506 15.209 7.454 
261 1 8.47 16.225 9.506 
268 1 6.716 19.015 8.47 
270 1 9.506 17.979 6.716 
280 1 9.418 12.208 0.945 
285 1 5.7 16.963 9.506 
292 1 7.454 14.173 8.47 
294 1 4.664 15.209 6.716 
299 1 2.699 10.454 9.418 
311 1 3.716 18.927 1.962 
313 1 1.962 13.224 9.418 
318 1 9.418 11.47 3.716 
15 1 0.422 9.931 9.931 
18 1 0.422 13.748 13.748 
19 1 0.228 17.562 17.562 
21 1 4.239 9.931 13.748 
24 1 4.239 13.748 9.931 
40 1 1.363 12.807 14.491 
41 1 0.945 11.47 14.26 
49 1 1.363 14.491 12.807 
50 1 2.699 14.26 13.224 
76 1 3.299 10.871 14.491 
77 1 3.716 12.208 14.26 
99 1 4.982 10.871 12.807 
100 1 4.752 10.454 11.47 
109 1 3.299 14.491 10.871 
110 1 1.962 14.26 10.454 
123 1 4.982 12.807 10.871 
124 1 4.752 13.224 12.208 
147 1 8.053 9.737 17.562 
183 1 6.117 15.626 9.737 
191 1 0.228 15.626 15.626 
199 1 6.117 9.737 15.626 
211 1 8.053 17.562 9.737 
225 1 2.699 13.224 14.26 
234 1 0.945 14.26 11.47 
276 1 1.962 10.454 14.26 
278 1 4.752 12.208 13.224 
310 1 3.716 14.26 12.208 
320 1 4.752 11.47 10.454 
1 1 17.562 6.117 4.433 
2 1 16.225 5.7 4.664 
23 1 19.015 7.454 5.7 
28 1 17.562 4.433 6.117 
29 1 17.979 4.664 7.454 
63 1 18.502 8.994 8.994 
66 1 18.502 5.176 5.176 
67 1 18.696 1.362 1.363 
68 1 18.927 0.945 2.699 
69 1 14.685 5.176 8.994 
72 1 14.685 8.994 5.176 
87 1 10.871 9.187 1.363 
88 1 12.208 9.418 0.945 
101 1 10.871 1.362 9.187 
102 1 10.454 2.699 9.418 
134 1 15.626 8.053 4.433 
135 1 16.963 8.47 4.664 
139 1 13.942 8.053 6.117 
140 1 14.173 6.716 5.7 
146 1 15.209 9.506 7.454 
153 1 12.807 3.299 9.187 
154 1 13.224 1.962 9.418 
163 1 12.807 9.187 3.299 
164 1 11.47 9.418 3.716 
173 1 18.696 3.299 3.299 
174 1 18.927 3.716 1.962 
182 1 16.225 8.47 9.506 
190 1 19.015 6.716 8.47 
198 1 17.979 9.506 6.716 
203 1 15.626 4.433 8.053 
204 1 15.209 4.664 6.716 
210 1 16.963 5.7 9.506 
223 1 13.942 6.117 8.053 
224 1 14.173 7.454 8.47 
231 1 18.927 2.699 0.945 
238 1 17.979 7.454 4.664 
241 1 16.225 4.664 5.7 
248 1 19.015 5.7 7.454 
250 1 15.209 6.716 4.664 
253 1 16.963 9.506 5.7 
260 1 14.173 8.47 7.454 
262 1 15.209 7.454 9.506 
265 1 16.963 4.664 8.47 
272 1 14.173 5.7 6.716 
282 1 10.454 9.418 2.699 
286 1 17.979 6.716 9.506 
289 1 16.225 9.506 8.47 
296 1 19.015 8.47 6.716 
300 1 11.47 3.716 9.418 
304 1 18.927 1.962 3.716 
308 1 13.224 9.418 1.962 
314 1 12.208 0.945 9.418 
321 2 17.562 6.117 3.083 
27 1 9.931 0.422 9.931 
30 1 13.748 0.422 13.748 
31 1 17.562 0.228 17.562 
33 1 13.748 4.239 9.931 
36 1 9.931 4.239 13.748 
37 1 12.807 1.362 14.491 
38 1 13.224 2.699 14.26 
64 1 14.491 1.362 12.807 
65 1 14.26 0.945 11.47 
73 1 10.871 3.299 14.491 
74 1 10.454 1.962 14.26 
91 1 10.871 4.982 12.807 
92 1 12.208 4.752 13.224 
143 1 9.737 8.053 17.562 
167 1 12.807 4.982 10.871 
168 1 11.47 4.752 10.454 
171 1 14.491 3.299 10.871 
172 1 14.26 3.716 12.208 
181 1 17.562 8.053 9.737 
205 1 15.626 0.228 15.626 
209 1 15.626 6.117 9.737 
219 1 9.737 6.117 15.626 
226 1 11.47 0.945 14.26 
229 1 14.26 2.699 13.224 
275 1 12.208 3.716 14.26 
283 1 10.454 4.752 11.47 
302 1 14.26 1.962 10.454 
305 1 13.224 4.752 12.208 
3 1 9.931 9.931 0.422 
6 1 13.748 13.748 0.422 
7 1 17.562 17.562 0.228 
9 1 9.931 13.748 4.239 
12 1 13.748 9.931 4.239 
52 1 12.807 14.491 1.363 
53 1 11.47 14.26 0.945 
61 1 14.491 12.807 1.363 
62 1 14.26 13.224 2.699 
107 1 10.871 12.807 4.982 
108 1 10.454 11.47 4.752 
111 1 10.871 14.491 3.299 
112 1 12.208 14.26 3.716 
128 1 15.626 15.626 0.228 
141 1 9.737 15.626 6.117 
145 1 15.626 9.737 6.117 
159 1 12.807 10.871 4.982 
160 1 13.224 12.208 4.752 
169 1 14.491 10.871 3.299 
170 1 14.26 10.454 1.962 
197 1 17.562 9.737 8.053 
217 1 9.737 17.562 8.053 
230 1 14.26 11.47 0.945 
233 1 13.224 14.26 2.699 
298 1 11.47 10.454 4.752 
301 1 14.26 12.208 3.716 
309 1 10.454 14.26 1.962 
316 1 12.208 13.224 4.752 
8 1 16.225 17.979 19.015 
20 1 19.015 16.225 17.979 
32 1 17.979 19.015 16.225 
46 1 12.807 12.807 18.696 
47 1 13.224 11.47 18.927 
58 1 12.807 18.696 12.807 
59 1 11.47 18.927 13.224 
70 1 18.696 12.807 12.807 
71 1 18.927 13.224 11.47 
75 1 14.685 14.685 18.502 
78 1 18.502 18.502 18.502 
81 1 18.502 14.685 14.685 
82 1 10.871 10.871 18.696 
83 1 10.454 12.208 18.927 
84 1 14.685 18.502 14.685 
115 1 10.871 18.696 10.871 
116 1 12.208 18.927 10.454 
129 1 16.963 15.209 19.015 
137 1 13.942 15.626 17.562 
138 1 14.173 16.963 17.979 
151 1 15.626 13.942 17.562 
152 1 15.209 14.173 16.225 
175 1 18.696 10.871 10.871 
176 1 18.927 10.454 12.208 
177 1 17.562 15.626 13.942 
178 1 16.225 15.209 14.173 
192 1 19.015 16.963 15.209 
195 1 17.562 13.942 15.626 
196 1 17.979 14.173 16.963 
206 1 15.209 19.015 16.963 
213 1 15.626 17.562 13.942 
214 1 16.963 17.979 14.173 
221 1 13.942 17.562 15.626 
222 1 14.173 16.225 15.209 
228 1 11.47 13.224 18.927 
232 1 18.927 11.47 13.224 
236 1 13.224 18.927 11.47 
239 1 17.979 16.225 19.015 
243 1 16.225 19.015 17.979 
247 1 19.015 17.979 16.225 
251 1 15.209 16.963 19.015 
255 1 16.963 14.173 17.979 
259 1 14.173 15.209 16.225 
263 1 15.209 16.225 14.173 
267 1 16.963 19.015 15.209 
271 1 14.173 17.979 16.963 
273 1 12.208 10.454 18.927 
287 1 17.979 16.963 14.173 
291 1 16.225 14.173 15.209 
295 1 19.015 15.209 16.963 
303 1 18.927 12.208 10.454 
312 1 10.454 18.927 12.208 
ITEM: TIMESTEP
10
ITEM: NUMBER OF ATOMS
321
ITEM: BOX BOUNDS pp pp pp
0.0000000000000000e+00 1.9018000000000001e+01
0.0000000000000000e+00 1.9018000000000001e+01
0.0000000000000000e+00 1.9018000000000001e+01
ITEM: ATOMS id type x y z 
10 1 6.116 6.116 0.25076 
22 1 0.254749 6.08175 6.11939 
34 1 6.116 0.250766 6.116 
89 1 3.30093 5.00574 1.36087 
90 1 1.94549 4.80408 0.90419 
97 1 5.00521 3.29898 1.36162 
98 1 4.8046 3.75367 2.71635 
105 1 3.30056 1.36057 5.00554 
106 1 3.75656 2.71593 4.80411 
121 1 5.00528 1.36155 3.29908 
122 1 4.80353 0.906685 1.94483 
125 1 8.05392 8.05392 0.250839 
127 1 0.429278 4.23165 4.2356 
130 1 4.23905 0.421745 4.23873 
133 1 0.422347 0.421601 0.421886 
136 1 4.2392 4.23865 0.421874 
157 1 1.36916 3.29202 5.00927 
158 1 0.90555 1.94273 4.80527 
165 1 1.36668 5.00793 3.29575 
166 1 2.7176 4.80568 3.75552 
189 1 0.259053 8.05583 8.06198 
207 1 8.0539 0.250848 8.0539 
277 1 4.8035 1.94491 0.906781 
284 1 3.75636 4.80405 2.71636 
297 1 2.71853 3.75545 4.80537 
306 1 0.909288 4.80218 1.94435 
315 1 1.94496 0.904497 4.80408 
319 1 4.80469 2.71602 3.75372 
11 1 7.47068 5.66126 19.0671 
16 1 4.41009 6.11605 17.563 
17 1 4.61188 7.47076 18.0177 
25 1 6.11605 4.41009 17.563 
26 1 5.66121 4.6119 16.2082 
39 1 8.99343 8.99343 18.5023 
42 1 5.17653 5.17653 18.5023 
43 1 1.36201 1.36116 18.6737 
44 1 0.907547 2.71586 18.8739 
45 1 5.17655 8.99346 14.6856 
48 1 8.99346 5.17655 14.6856 
79 1 3.2998 3.29897 18.6733 
80 1 3.75443 1.94477 18.8754 
85 1 3.29962 9.16414 12.8077 
86 1 1.94491 9.36603 13.2628 
95 1 9.16418 3.29958 12.8078 
96 1 9.36595 3.75448 11.4532 
119 1 9.16425 1.36149 10.8703 
120 1 9.36598 0.906547 12.2249 
126 1 6.6993 8.50877 19.0671 
144 1 9.5581 6.69924 18.0178 
148 1 8.50881 9.55807 16.2082 
161 1 1.36225 9.16388 10.8709 
162 1 2.71634 9.36591 10.4155 
179 1 6.11604 8.05398 13.9191 
180 1 7.47073 8.50878 14.1209 
185 1 4.4101 8.05398 15.625 
186 1 4.61188 6.69934 15.1702 
200 1 5.66123 9.55812 16.9796 
201 1 8.05398 4.4101 15.625 
202 1 8.50877 4.61188 16.9796 
215 1 8.05398 6.11604 13.9191 
216 1 6.69928 5.6612 14.1209 
220 1 9.55813 7.47065 15.1702 
227 1 2.71628 0.906777 18.8754 
240 1 5.66126 7.47068 19.0671 
242 1 7.47076 4.61188 18.0177 
245 1 4.6119 5.66121 16.2082 
252 1 8.50877 6.6993 19.0671 
254 1 6.69924 9.5581 18.0178 
257 1 9.55807 8.50881 16.2082 
264 1 8.50878 7.47073 14.1209 
266 1 6.69934 4.61188 15.1702 
269 1 9.55812 5.66123 16.9796 
274 1 1.94481 3.75361 18.8738 
279 1 9.36604 1.94491 13.2627 
281 1 3.75458 9.36592 11.4533 
288 1 5.6612 6.69927 14.1209 
290 1 7.47065 9.55812 15.1702 
293 1 4.61188 8.50877 16.9796 
307 1 0.906721 9.3659 12.2249 
317 1 9.36607 2.71608 10.4153 
4 1 6.11606 17.5629 4.41009 
5 1 7.47077 18.0177 4.61187 
13 1 4.41009 17.5629 6.11607 
14 1 4.61189 16.2082 5.66122 
35 1 5.66126 19.0671 7.47069 
51 1 8.99339 18.5022 8.99339 
54 1 5.17658 18.5023 5.17658 
55 1 1.36204 18.6737 1.36145 
56 1 2.71621 18.8754 0.906953 
57 1 8.99346 14.6856 5.17655 
60 1 5.17655 14.6856 8.99346 
93 1 9.16433 10.8703 1.36172 
94 1 9.36605 10.4154 2.71634 
103 1 3.29962 12.8077 9.16414 
104 1 3.75459 11.4533 9.36592 
113 1 3.29957 18.6732 3.29902 
114 1 1.94479 18.8742 3.75372 
117 1 9.16421 12.8076 3.29971 
118 1 9.366 13.2627 1.94492 
131 1 8.05398 15.625 4.4101 
132 1 6.69933 15.1702 4.61188 
142 1 9.55812 16.9796 5.66121 
149 1 8.05399 13.9191 6.11603 
150 1 8.50879 14.1209 7.47073 
155 1 1.36222 10.8709 9.16396 
156 1 0.906718 12.2249 9.3659 
184 1 7.47065 15.1702 9.55812 
187 1 4.41009 15.625 8.05397 
188 1 4.61189 16.9796 8.50879 
193 1 6.11604 13.9191 8.05398 
194 1 5.66119 14.1209 6.69928 
208 1 8.50877 19.0671 6.69929 
212 1 6.69923 18.0178 9.55811 
218 1 9.55808 16.2081 8.5088 
235 1 0.907486 18.8744 2.71621 
237 1 5.66122 16.2082 4.61189 
244 1 7.47069 19.0671 5.66126 
246 1 4.61187 18.0177 7.47077 
249 1 8.50879 16.9797 4.61188 
256 1 6.69927 14.1209 5.6612 
258 1 9.55812 15.1702 7.47065 
261 1 8.5088 16.2081 9.55808 
268 1 6.69929 19.0671 8.50877 
270 1 9.55811 18.0178 6.69923 
280 1 9.36599 12.2249 0.906641 
285 1 5.66121 16.9796 9.55812 
292 1 7.47073 14.1209 8.50879 
294 1 4.61189 15.1702 6.69934 
299 1 2.71633 10.4155 9.36592 
311 1 3.75435 18.8753 1.94476 
313 1 1.94492 13.2628 9.36603 
318 1 9.36599 11.4532 3.75452 
15 1 0.422425 9.93132 9.93144 
18 1 0.421947 13.7475 13.7475 
19 1 0.250885 17.5629 17.5629 
21 1 4.23896 9.93083 13.7474 
24 1 4.23896 13.7474 9.93084 
40 1 1.36147 12.8079 14.5137 
41 1 0.906595 11.4534 14.312 
49 1 1.36147 14.5137 12.8079 
50 1 2.71619 14.312 13.2626 
76 1 3.29959 10.8704 14.514 
77 1 3.75459 12.225 14.3121 
99 1 5.00545 10.8702 12.8078 
100 1 4.80382 10.4151 11.4533 
109 1 3.29959 14.514 10.8704 
110 1 1.94473 14.312 10.4152 
123 1 5.00545 12.8078 10.8702 
124 1 4.80382 13.2629 12.2248 
147 1 8.05389 9.75999 17.5629 
183 1 6.11602 15.625 9.75991 
191 1 0.250809 15.625 15.625 
199 1 6.11602 9.7599 15.625 
211 1 8.05386 17.5628 9.76 
225 1 2.71619 13.2626 14.312 
234 1 0.906595 14.312 11.4534 
276 1 1.94473 10.4152 14.312 
278 1 4.80382 12.2248 13.2629 
310 1 3.75459 14.3121 12.225 
320 1 4.80382 11.4533 10.4151 
1 1 17.552 6.13053 4.09411 
2 1 16.1496 5.67332 4.75907 
23 1 19.0726 7.47876 5.70293 
28 1 17.5979 4.40608 6.12028 
29 1 18.0178 4.61093 7.48125 
63 1 18.4976 8.9984 8.99927 
66 1 18.5317 5.14705 5.19431 
67 1 18.6732 1.35992 1.36059 
68 1 18.8749 0.904743 2.71627 
69 1 14.6807 5.18111 8.99934 
72 1 14.7002 8.97862 5.15732 
87 1 10.8703 9.16439 1.36169 
88 1 12.2248 9.36603 0.906674 
101 1 10.8704 1.36155 9.16423 
102 1 10.4153 2.71606 9.36606 
134 1 15.617 8.06315 4.38922 
135 1 16.9737 8.51051 4.63483 
139 1 13.9169 8.05584 6.11506 
140 1 14.0886 6.70277 5.68124 
146 1 15.1664 9.55807 7.47109 
153 1 12.8072 3.29906 9.16388 
154 1 13.2626 1.94491 9.36595 
163 1 12.8092 9.16485 3.30124 
164 1 11.4527 9.36585 3.75464 
173 1 18.6707 3.29453 3.29578 
174 1 18.8767 3.75179 1.94427 
182 1 16.2054 8.50726 9.55923 
190 1 19.0703 6.70163 8.51353 
198 1 18.0194 9.57523 6.70467 
203 1 15.623 4.40226 8.06164 
204 1 15.1332 4.59775 6.72617 
210 1 16.9787 5.65923 9.56095 
223 1 13.9157 6.11868 8.06388 
224 1 14.1203 7.47239 8.51148 
231 1 18.8749 2.71532 0.904238 
238 1 18.0053 7.52942 4.76049 
241 1 16.2005 4.60343 5.70558 
248 1 19.0679 5.66087 7.48194 
250 1 15.166 6.70747 4.63413 
253 1 16.976 9.5898 5.68052 
260 1 14.1209 8.51238 7.47085 
262 1 15.1718 7.47323 9.5593 
265 1 16.9774 4.60839 8.51339 
272 1 14.1041 5.65963 6.70484 
282 1 10.4154 9.36606 2.71624 
286 1 18.0199 6.70015 9.56078 
289 1 16.2067 9.5587 8.51152 
296 1 19.0813 8.54515 6.72557 
300 1 11.4532 3.75434 9.36583 
304 1 18.8733 1.94358 3.75561 
308 1 13.2629 9.36586 1.94434 
314 1 12.2249 0.906496 9.366 
321 2 17.6421 6.03634 2.79878 
27 1 9.93092 0.421988 9.93097 
30 1 13.7474 0.421722 13.7475 
31 1 17.5629 0.25089 17.5629 
33 1 13.747 4.23867 9.93131 
36 1 9.93078 4.2389 13.7474 
37 1 12.8079 1.36129 14.5138 
38 1 13.2627 2.71595 14.312 
64 1 14.5138 1.36135 12.8078 
65 1 14.312 0.906519 11.4533 
73 1 10.8703 3.2995 14.514 
74 1 10.4153 1.94474 14.312 
91 1 10.8703 5.00544 12.8077 
92 1 12.2248 4.80374 13.263 
143 1 9.75999 8.05389 17.5629 
167 1 12.8071 5.00572 10.8709 
168 1 11.4532 4.80384 10.4152 
171 1 14.5144 3.29895 10.8709 
172 1 14.3122 3.75439 12.2251 
181 1 17.5619 8.05621 9.76169 
205 1 15.625 0.250803 15.625 
209 1 15.6226 6.11708 9.76152 
219 1 9.7599 6.11602 15.625 
226 1 11.4533 0.906558 14.3121 
229 1 14.312 2.71593 13.2627 
275 1 12.2251 3.75453 14.312 
283 1 10.4151 4.80376 11.4533 
302 1 14.3121 1.94474 10.4154 
305 1 13.2628 4.80381 12.2249 
3 1 9.93103 9.93088 0.422273 
6 1 13.7475 13.7474 0.422007 
7 1 17.5629 17.5628 0.250883 
9 1 9.93091 13.7472 4.23898 
12 1 13.7466 9.93159 4.23767 
52 1 12.8079 14.5137 1.36152 
53 1 11.4534 14.3121 0.906652 
61 1 14.5136 12.8079 1.36148 
62 1 14.312 13.2626 2.71611 
107 1 10.8702 12.8077 5.00533 
108 1 10.4152 11.4534 4.80376 
111 1 10.8704 14.514 3.29962 
112 1 12.225 14.312 3.75457 
128 1 15.625 15.625 0.250803 
141 1 9.75991 15.625 6.11601 
145 1 15.6233 9.76219 6.11473 
159 1 12.8099 10.8681 5.00505 
160 1 13.2629 12.225 4.80394 
169 1 14.5133 10.8688 3.30115 
170 1 14.3122 10.4151 1.94418 
197 1 17.56 9.76334 8.06424 
217 1 9.76 17.5628 8.05386 
230 1 14.312 11.4534 0.906686 
233 1 13.2626 14.312 2.71621 
298 1 11.4531 10.4151 4.80397 
301 1 14.3121 12.2256 3.75469 
309 1 10.4153 14.312 1.94475 
316 1 12.2247 13.2628 4.80374 
8 1 16.2082 18.0178 19.0671 
20 1 19.0671 16.2082 18.0177 
32 1 18.0178 19.0671 16.2082 
46 1 12.8081 12.808 18.6735 
47 1 13.2628 11.4534 18.8752 
58 1 12.808 18.6733 12.808 
59 1 11.4534 18.8751 13.2628 
70 1 18.6734 12.808 12.808 
71 1 18.8751 13.2629 11.4535 
75 1 14.6854 14.6854 18.5025 
78 1 18.5024 18.5024 18.5024 
81 1 18.5025 14.6854 14.6854 
82 1 10.8703 10.8702 18.6733 
83 1 10.4151 12.2249 18.8752 
84 1 14.6855 18.5024 14.6855 
115 1 10.8702 18.6731 10.8703 
116 1 12.225 18.8751 10.4151 
129 1 16.9795 15.1702 19.0671 
137 1 13.919 15.625 17.563 
138 1 14.1209 16.9797 18.0178 
151 1 15.625 13.919 17.563 
152 1 15.1702 14.1209 16.2082 
175 1 18.6729 10.8709 10.8709 
176 1 18.8751 10.4152 12.2251 
177 1 17.5629 15.625 13.919 
178 1 16.2082 15.1702 14.1209 
192 1 19.0671 16.9795 15.1702 
195 1 17.5629 13.919 15.6251 
196 1 18.0178 14.1209 16.9797 
206 1 15.1703 19.0671 16.9795 
213 1 15.6251 17.5629 13.919 
214 1 16.9797 18.0178 14.1209 
221 1 13.919 17.5629 15.6251 
222 1 14.1209 16.2082 15.1702 
228 1 11.4535 13.2628 18.8751 
232 1 18.8751 11.4535 13.2629 
236 1 13.2629 18.8751 11.4534 
239 1 18.0178 16.2082 19.0671 
243 1 16.2082 19.0671 18.0178 
247 1 19.0671 18.0178 16.2082 
251 1 15.1702 16.9795 19.0671 
255 1 16.9797 14.1209 18.0178 
259 1 14.1209 15.1702 16.2082 
263 1 15.1702 16.2082 14.1209 
267 1 16.9795 19.0671 15.1703 
271 1 14.1209 18.0178 16.9797 
273 1 12.225 10.4152 18.8752 
287 1 18.0178 16.9797 14.1209 
291 1 16.2082 14.1209 15.1702 
295 1 19.0671 15.1702 16.9795 
303 1 18.8751 12.225 10.4152 
312 1 10.4151 18.8751 12.225 
ITEM: TIMESTEP
20
ITEM: NUMBER OF ATOMS
321
ITEM: BOX BOUNDS pp pp pp
0.0000000000000000e+00 1.9018000000000001e+01
0.0000000000000000e+00 1.9018000000000001e+01
0.0000000000000000e+00 1.9018000000000001e+01
ITEM: ATOMS id type x y z 
10 1 6.12346 6.12345 0.237672 
22 1 0.214192 6.08218 6.11538 
34 1 6.12338 0.237628 6.12337 
89 1 3.29674 4.99411 1.36881 
90 1 1.94637 4.80805 0.894741 
97 1 4.99274 3.29162 1.36904 
98 1 4.80901 3.75867 2.72156 
105 1 3.29276 1.36825 4.99199 
106 1 3.76112 2.72077 4.80855 
121 1 4.99257 1.36868 3.29183 
122 1 4.80827 0.901626 1.93942 
125 1 8.04655 8.04655 0.237658 
127 1 0.431243 4.22973 4.23765 
130 1 4.23626 0.424654 4.23523 
133 1 0.426012 0.423362 0.424371 
136 1 4.23749 4.23493 0.424434 
157 1 1.37808 3.28299 5.00023 
158 1 0.901946 1.93681 4.81074 
165 1 1.37816 4.99101 3.28929 
166 1 2.7258 4.80961 3.76251 
189 1 0.248897 8.05429 8.06602 
207 1 8.04651 0.237666 8.0465 
277 1 4.80847 1.93926 0.901965 
284 1 3.76126 4.80882 2.72232 
297 1 2.7243 3.75909 4.81083 
306 1 0.918764 4.79124 1.93932 
315 1 1.94017 0.899934 4.80848 
319 1 4.80931 2.72107 3.75876 
11 1 7.47614 5.65643 19.0716 
16 1 4.42324 6.12344 17.5555 
17 1 4.60734 7.47614 18.0225 
25 1 6.12352 4.42321 17.5554 
26 1 5.65644 4.60736 16.2028 
39 1 8.99026 8.99026 18.4992 
42 1 5.1799 5.17977 18.4991 
43 1 1.36968 1.36737 18.6856 
44 1 0.90314 2.72033 18.8648 
45 1 5.17961 8.99036 14.6886 
48 1 8.99036 5.1796 14.6886 
79 1 3.29359 3.29134 18.6854 
80 1 3.75981 1.93883 18.8706 
85 1 3.29232 9.17729 12.8006 
86 1 1.93971 9.36132 13.2679 
95 1 9.17729 3.29207 12.8006 
96 1 9.36112 3.759 11.448 
119 1 9.17739 1.36885 10.8777 
120 1 9.36147 0.901827 12.2303 
126 1 6.69392 8.51355 19.0716 
144 1 9.56267 6.69389 18.0225 
148 1 8.51353 9.56264 16.2028 
161 1 1.37044 9.1771 10.8791 
162 1 2.72234 9.36127 10.4104 
179 1 6.12345 8.04654 13.9322 
180 1 7.47608 8.51354 14.1164 
185 1 4.42323 8.04659 15.6324 
186 1 4.60733 6.69398 15.1654 
200 1 5.65648 9.56267 16.985 
201 1 8.04659 4.42323 15.6324 
202 1 8.51357 4.60734 16.985 
215 1 8.04655 6.12344 13.9322 
216 1 6.69392 5.65649 14.1163 
220 1 9.56266 7.47603 15.1654 
227 1 2.72222 0.90119 18.8707 
240 1 5.65643 7.47613 19.0716 
242 1 7.47619 4.60734 18.0225 
245 1 4.60735 5.65645 16.2028 
252 1 8.51355 6.69392 19.0716 
254 1 6.69389 9.56267 18.0225 
257 1 9.56264 8.51353 16.2028 
264 1 8.51354 7.47608 14.1164 
266 1 6.69398 4.60733 15.1654 
269 1 9.56268 5.65648 16.985 
274 1 1.94056 3.75785 18.8648 
279 1 9.36145 1.93943 13.2675 
281 1 3.75957 9.36128 11.4481 
288 1 5.65649 6.69392 14.1163 
290 1 7.47603 9.56266 15.1654 
293 1 4.60734 8.51355 16.985 
307 1 0.90177 9.36117 12.231 
317 1 9.36131 2.72148 10.4106 
4 1 6.12343 17.5555 4.42329 
5 1 7.47615 18.0225 4.60736 
13 1 4.42329 17.5556 6.12339 
14 1 4.60737 16.2028 5.65645 
35 1 5.65643 19.0716 7.47611 
51 1 8.99024 18.4992 8.99024 
54 1 5.17972 18.4992 5.17968 
55 1 1.36942 18.6861 1.36901 
56 1 2.72179 18.8704 0.901951 
57 1 8.99037 14.6886 5.17961 
60 1 5.17961 14.6886 8.99036 
93 1 9.17747 10.8776 1.36906 
94 1 9.3614 10.4107 2.72164 
103 1 3.2923 12.8006 9.1773 
104 1 3.75949 11.4481 9.36128 
113 1 3.29231 18.6862 3.2918 
114 1 1.93986 18.8696 3.75873 
117 1 9.17743 12.8005 3.29225 
118 1 9.3615 13.2675 1.93959 
131 1 8.04663 15.6323 4.42325 
132 1 6.69398 15.1654 4.60733 
142 1 9.56269 16.985 5.65647 
149 1 8.04658 13.9322 6.12341 
150 1 8.51353 14.1163 7.47608 
155 1 1.37003 10.8787 9.17736 
156 1 0.901814 12.2308 9.36119 
184 1 7.47603 15.1654 9.56266 
187 1 4.42323 15.6324 8.04659 
188 1 4.60733 16.985 8.51355 
193 1 6.12345 13.9322 8.04654 
194 1 5.65649 14.1163 6.69392 
208 1 8.51354 19.0716 6.69391 
212 1 6.69388 18.0225 9.56267 
218 1 9.56264 16.2028 8.51353 
235 1 0.902349 18.87 2.72151 
237 1 5.65645 16.2028 4.60737 
244 1 7.47611 19.0716 5.65643 
246 1 4.60735 18.0225 7.47613 
249 1 8.51355 16.985 4.60733 
256 1 6.69392 14.1163 5.65649 
258 1 9.56267 15.1654 7.47603 
261 1 8.51353 16.2028 9.56264 
268 1 6.6939 19.0716 8.51354 
270 1 9.56267 18.0225 6.69388 
280 1 9.36152 12.2302 0.901969 
285 1 5.65646 16.985 9.56268 
292 1 7.47608 14.1163 8.51353 
294 1 4.60734 15.1654 6.69397 
299 1 2.72213 10.4105 9.36126 
311 1 3.75939 18.8706 1.93941 
313 1 1.93967 13.2678 9.36132 
318 1 9.36157 11.448 3.75924 
15 1 0.426751 9.93642 9.9371 
18 1 0.424978 13.7445 13.7445 
19 1 0.237725 17.5554 17.5554 
21 1 4.23596 9.93385 13.7444 
24 1 4.23595 13.7444 9.93385 
40 1 1.36893 12.8007 14.5008 
41 1 0.902033 11.4481 14.3169 
49 1 1.36893 14.5008 12.8007 
50 1 2.72159 14.3166 13.2675 
76 1 3.29219 10.8777 14.5008 
77 1 3.75918 12.2303 14.3167 
99 1 4.99243 10.8776 12.8006 
100 1 4.80852 10.4105 11.448 
109 1 3.29218 14.5008 10.8776 
110 1 1.93948 14.3168 10.4106 
123 1 4.99243 12.8006 10.8776 
124 1 4.80834 13.2676 12.2302 
147 1 8.04656 9.74676 17.5555 
183 1 6.1234 15.6324 9.74679 
191 1 0.237726 15.6323 15.6323 
199 1 6.1234 9.74679 15.6324 
211 1 8.04649 17.5554 9.74677 
225 1 2.72159 13.2675 14.3166 
234 1 0.902038 14.3169 11.448 
276 1 1.93949 10.4107 14.3168 
278 1 4.80834 12.2302 13.2676 
310 1 3.75918 14.3167 12.2303 
320 1 4.80849 11.448 10.4105 
1 1 17.5532 6.12599 4.02049 
2 1 16.1758 5.67918 4.73417 
23 1 19.0393 7.47988 5.70812 
28 1 17.597 4.44684 6.11555 
29 1 18.0231 4.60664 7.48221 
63 1 18.4926 8.99542 9.0041 
66 1 18.5077 5.17109 5.16376 
67 1 18.6848 1.3642 1.36874 
68 1 18.8702 0.899742 2.72231 
69 1 14.6833 5.1864 9.00442 
72 1 14.7019 8.97709 5.16131 
87 1 10.8776 9.17747 1.36907 
88 1 12.2303 9.36139 0.901999 
101 1 10.8776 1.36879 9.17739 
102 1 10.4103 2.72139 9.36133 
134 1 15.6314 8.04747 4.41027 
135 1 16.9886 8.50295 4.6616 
139 1 13.9268 8.05175 6.12317 
140 1 14.0782 6.69234 5.6919 
146 1 15.1599 9.56603 7.47815 
153 1 12.7995 3.29114 9.1773 
154 1 13.2676 1.93902 9.36128 
163 1 12.8004 9.17765 3.29202 
164 1 11.4478 9.36188 3.75952 
173 1 18.6878 3.28291 3.28929 
174 1 18.8876 3.74224 1.93929 
182 1 16.2012 8.51425 9.56534 
190 1 19.0745 6.69603 8.51789 
198 1 18.0344 9.59677 6.7127 
203 1 15.6245 4.41185 8.06592 
204 1 15.1262 4.59749 6.73167 
210 1 16.9847 5.65489 9.56214 
223 1 13.9217 6.1286 8.06649 
224 1 14.1144 7.48315 8.51671 
231 1 18.8709 2.71456 0.894698 
238 1 17.9998 7.50299 4.73405 
241 1 16.1989 4.63978 5.70823 
248 1 19.0722 5.65576 7.48244 
250 1 15.1758 6.69049 4.66164 
253 1 16.9867 9.60075 5.69193 
260 1 14.113 8.51912 7.47811 
262 1 15.1648 7.47762 9.56542 
265 1 16.9832 4.60443 8.51796 
272 1 14.0822 5.64456 6.71279 
282 1 10.4107 9.36144 2.72179 
286 1 18.0241 6.69406 9.56206 
289 1 16.1958 9.56453 8.5167 
296 1 19.0816 8.55283 6.73187 
300 1 11.4474 3.75924 9.3611 
304 1 18.8693 1.93527 3.76249 
308 1 13.2678 9.36159 1.93928 
314 1 12.2301 0.90157 9.36137 
321 2 17.6451 6.03385 2.73992 
27 1 9.9339 0.425072 9.93396 
30 1 13.7445 0.424787 13.7445 
31 1 17.5555 0.237691 17.5555 
33 1 13.7419 4.23437 9.93698 
36 1 9.93377 4.23585 13.7444 
37 1 12.8006 1.36869 14.5008 
38 1 13.2675 2.72135 14.3168 
64 1 14.5008 1.36861 12.8007 
65 1 14.3167 0.901479 11.4481 
73 1 10.8775 3.292 14.5008 
74 1 10.4106 1.93935 14.3166 
91 1 10.8774 4.9924 12.8007 
92 1 12.2299 4.8084 13.2682 
143 1 9.74676 8.04655 17.5555 
167 1 12.7984 4.99274 10.8798 
168 1 11.4468 4.80844 10.4102 
171 1 14.501 3.29066 10.8791 
172 1 14.317 3.75922 12.231 
181 1 17.5514 8.04531 9.75309 
205 1 15.6323 0.237714 15.6323 
209 1 15.6336 6.12741 9.75302 
219 1 9.74679 6.12339 15.6324 
226 1 11.4479 0.901809 14.3166 
229 1 14.3168 2.72121 13.2679 
275 1 12.2302 3.75894 14.3169 
283 1 10.4099 4.80843 11.4482 
302 1 14.3168 1.93873 10.4104 
305 1 13.2678 4.80844 12.2313 
3 1 9.93396 9.93391 0.42527 
6 1 13.7445 13.7445 0.42499 
7 1 17.5555 17.5555 0.237683 
9 1 9.93389 13.7442 4.23597 
12 1 13.7454 9.93273 4.23556 
52 1 12.8006 14.5007 1.3689 
53 1 11.448 14.3166 0.901952 
61 1 14.5007 12.8006 1.36892 
62 1 14.3166 13.2674 2.72165 
107 1 10.8776 12.8004 4.99232 
108 1 10.4111 11.4476 4.80832 
111 1 10.8777 14.5007 3.29219 
112 1 12.2302 14.3165 3.75918 
128 1 15.6323 15.6323 0.237706 
141 1 9.74678 15.6323 6.12336 
145 1 15.6271 9.75216 6.12303 
159 1 12.8021 10.876 4.99292 
160 1 13.2677 12.2293 4.80837 
169 1 14.5004 10.8778 3.29195 
170 1 14.3165 10.4103 1.9392 
197 1 17.5502 9.75728 8.06658 
217 1 9.74677 17.5554 8.04649 
230 1 14.3167 11.4479 0.901982 
233 1 13.2674 14.3167 2.72151 
298 1 11.4488 10.4103 4.80839 
301 1 14.3162 12.2303 3.75946 
309 1 10.4107 14.3166 1.9395 
316 1 12.2304 13.267 4.8083 
8 1 16.2028 18.0225 19.0716 
20 1 19.0716 16.2027 18.0225 
32 1 18.0225 19.0716 16.2028 
46 1 12.8007 12.8007 18.6866 
47 1 13.2676 11.4481 18.8706 
58 1 12.8006 18.6864 12.8007 
59 1 11.448 18.8706 13.2677 
70 1 18.6865 12.8008 12.8008 
71 1 18.8705 13.2682 11.4483 
75 1 14.6885 14.6885 18.4995 
78 1 18.4992 18.499 18.4991 
81 1 18.4995 14.6885 14.6885 
82 1 10.8776 10.8776 18.6866 
83 1 10.4105 12.2302 18.8707 
84 1 14.6885 18.4994 14.6885 
115 1 10.8776 18.6864 10.8777 
116 1 12.2302 18.8705 10.4105 
129 1 16.9849 15.1654 19.0716 
137 1 13.9322 15.6323 17.5556 
138 1 14.1163 16.985 18.0225 
151 1 15.6323 13.9322 17.5556 
152 1 15.1655 14.1164 16.2029 
175 1 18.6861 10.8798 10.8799 
176 1 18.8705 10.4102 12.2314 
177 1 17.5556 15.6324 13.9322 
178 1 16.2029 15.1655 14.1164 
192 1 19.0716 16.9849 15.1654 
195 1 17.5556 13.9322 15.6324 
196 1 18.0225 14.1163 16.985 
206 1 15.1654 19.0716 16.9849 
213 1 15.6324 17.5555 13.9322 
214 1 16.985 18.0225 14.1163 
221 1 13.9322 17.5555 15.6324 
222 1 14.1164 16.2029 15.1655 
228 1 11.4481 13.2676 18.8707 
232 1 18.8705 11.4483 13.2682 
236 1 13.2676 18.8704 11.4481 
239 1 18.0225 16.2028 19.0716 
243 1 16.2028 19.0716 18.0225 
247 1 19.0716 18.0225 16.2027 
251 1 15.1654 16.9849 19.0716 
255 1 16.985 14.1163 18.0225 
259 1 14.1164 15.1655 16.2029 
263 1 15.1655 16.2029 14.1164 
267 1 16.9849 19.0716 15.1654 
271 1 14.1163 18.0225 16.985 
273 1 12.2302 10.4106 18.8706 
287 1 18.0225 16.985 14.1163 
291 1 16.2029 14.1164 15.1655 
295 1 19.0716 15.1654 16.9849 
303 1 18.8705 12.2314 10.4102 
312 1 10.4105 18.8706 12.2303 
ITEM: TIMESTEP
30
ITEM: NUMBER OF ATOMS
321
ITEM: BOX BOUNDS pp pp pp
0.0000000000000000e+00 1.9018000000000001e+01
0.0000000000000000e+00 1.9018000000000001e+01
0.0000000000000000e+00 1.9018000000000001e+01
ITEM: ATOMS id type x y z 
10 1 6.12455 6.12454 0.236748 
22 1 0.202591 6.08366 6.11569 
34 1 6.12441 0.236701 6.12441 
89 1 3.29695 4.99343 1.36963 
90 1 1.94831 4.8071 0.893132 
97 1 4.99222 3.29049 1.36995 
98 1 4.80932 3.75904 2.72198 
105 1 3.29191 1.36906 4.99106 
106 1 3.76178 2.72058 4.8088 
121 1 4.99189 1.36943 3.29085 
122 1 4.80852 0.901222 1.93887 
125 1 8.04557 8.04557 0.236712 
127 1 0.434604 4.22635 4.23499 
130 1 4.23577 0.425124 4.23466 
133 1 0.426745 0.423607 0.424898 
136 1 4.23728 4.23423 0.424905 
157 1 1.37836 3.28269 5.00001 
158 1 0.901845 1.93593 4.81226 
165 1 1.37994 4.98775 3.28928 
166 1 2.72789 4.80999 3.76367 
189 1 0.247576 8.05382 8.06644 
207 1 8.04555 0.236694 8.04555 
277 1 4.80872 1.93857 0.901608 
284 1 3.76239 4.80923 2.72236 
297 1 2.72514 3.75917 4.81236 
306 1 0.921627 4.78841 1.93856 
315 1 1.94038 0.899249 4.80871 
319 1 4.80952 2.72147 3.7593 
11 1 7.47654 5.65614 19.0717 
16 1 4.42418 6.1245 17.5544 
17 1 4.60728 7.47651 18.0228 
25 1 6.12465 4.42412 17.5543 
26 1 5.65615 4.6073 16.2024 
39 1 8.98969 8.98968 18.4986 
42 1 5.18067 5.18045 18.4983 
43 1 1.37083 1.36764 18.6859 
44 1 0.903041 2.72037 18.8631 
45 1 5.18025 8.98975 14.6892 
48 1 8.98974 5.18024 14.6892 