ITEM: TIMESTEP
0
ITEM: NUMBER OF ATOMS
57
ITEM: BOX BOUNDS pp pp pp
0.0000000000000000e+00 3.2808000000000000e+01
0.0000000000000000e+00 1.7780000000000001e+01
0.0000000000000000e+00 2.4729999999999999e+00
ITEM: ATOMS id type x y z 
13 1 7.043 0.849 2.464 
29 1 7.397 1.432 1.228 
37 1 8.035 2.733 1.228 
57 2 7.253 3.281 2.18 
1 1 6.173 17.398 2.464 
5 1 5.371 17.398 1.228 
9 1 3.973 17.398 1.228 
16 1 7.043 16.167 2.464 
32 1 7.397 15.584 1.228 
40 1 8.035 14.283 1.228 
45 1 3.236 17.398 2.464 
49 1 1.81 17.398 2.464 
53 1 1.083 17.398 1.228 
4 1 10.968 8.508 2.464 
8 1 11.771 8.508 1.228 
12 1 13.168 8.508 1.228 
18 1 10.098 7.277 2.464 
21 1 8.308 3.392 2.464 
26 1 8.833 4.734 2.464 
34 1 9.745 6.694 1.228 
42 1 9.106 5.393 1.228 
48 1 13.906 8.508 2.464 
52 1 15.331 8.508 2.464 
56 1 16.058 8.508 1.228 
19 1 10.098 9.739 2.464 
24 1 8.308 13.624 2.464 
27 1 8.833 12.282 2.464 
35 1 9.745 10.322 1.228 
43 1 9.106 11.623 1.228 
3 1 22.577 8.508 2.464 
7 1 21.775 8.508 1.228 
11 1 20.377 8.508 1.228 
20 1 23.447 7.277 2.464 
36 1 23.801 6.694 1.228 
44 1 24.439 5.393 1.228 
47 1 19.64 8.508 2.464 
51 1 18.214 8.508 2.464 
55 1 17.487 8.508 1.228 
17 1 23.447 9.739 2.464 
33 1 23.801 10.322 1.228 
41 1 24.439 11.623 1.228 
15 1 26.502 0.849 2.464 
23 1 25.237 3.392 2.464 
28 1 24.712 4.734 2.464 
31 1 26.149 1.432 1.228 
39 1 25.511 2.733 1.228 
2 1 27.373 17.398 2.464 
6 1 28.175 17.398 1.228 
10 1 29.572 17.398 1.228 
14 1 26.502 16.167 2.464 
22 1 25.237 13.624 2.464 
25 1 24.712 12.282 2.464 
30 1 26.149 15.584 1.228 
38 1 25.511 14.283 1.228 
46 1 30.31 17.398 2.464 
50 1 31.735 17.398 2.464 
54 1 32.462 17.398 1.228 
ITEM: TIMESTEP
10
ITEM: NUMBER OF ATOMS
57
ITEM: BOX BOUNDS pp pp pp
0.0000000000000000e+00 3.2808000000000000e+01
0.0000000000000000e+00 1.7780000000000001e+01
0.0000000000000000e+00 2.4729999999999999e+00
ITEM: ATOMS id type x y z 
13 1 7.03862 0.811836 2.46066 
29 1 7.40178 1.37513 1.22653 
37 1 8.01318 2.71986 1.29278 
57 2 7.2709 3.29647 2.08267 
1 1 6.15553 17.3672 2.46398 
5 1 5.35343 17.3882 1.22775 
9 1 3.96039 17.3986 1.22784 
16 1 7.05125 16.1582 2.46415 
32 1 7.40624 15.5792 1.22784 
40 1 8.0399 14.2807 1.22786 
45 1 3.22519 17.3983 2.46416 
49 1 1.79896 17.3981 2.46415 
53 1 1.07551 17.398 1.22785 
4 1 10.9827 8.5225 2.4642 
8 1 11.7847 8.51244 1.22781 
12 1 13.1786 8.50782 1.22785 
18 1 10.1011 7.29399 2.46415 
21 1 8.31859 3.4224 2.49861 
26 1 8.85023 4.7751 2.46631 
34 1 9.74787 6.71746 1.22789 
42 1 9.11443 5.42523 1.22867 
48 1 13.9113 8.50791 2.46416 
52 1 15.339 8.50798 2.46415 
56 1 16.0621 8.508 1.22785 
19 1 10.0955 9.73943 2.46414 
24 1 8.31114 13.6179 2.46415 
27 1 8.83272 12.2813 2.46414 
35 1 9.741 10.3213 1.22786 
43 1 9.1073 11.6144 1.22786 
3 1 22.5786 8.508 2.46419 
7 1 21.7758 8.508 1.22781 
11 1 20.3796 8.508 1.22785 
20 1 23.4471 7.27658 2.46414 
36 1 23.8006 6.69375 1.22785 
44 1 24.4378 5.39293 1.22785 
47 1 19.643 8.508 2.46416 
51 1 18.2171 8.508 2.46415 
55 1 17.4928 8.508 1.22785 
17 1 23.4471 9.73942 2.46414 
33 1 23.8006 10.3222 1.22785 
41 1 24.4378 11.6231 1.22785 
15 1 26.5004 0.850472 2.46414 
23 1 25.2375 3.39321 2.46414 
28 1 24.7112 4.73424 2.46415 
31 1 26.1476 1.43442 1.22786 
39 1 25.5114 2.73393 1.22786 
2 1 27.3651 17.398 2.46419 
6 1 28.1715 17.398 1.22781 
10 1 29.5647 17.398 1.22785 
14 1 26.5004 16.1655 2.46414 
22 1 25.2375 13.6228 2.46414 
25 1 24.7112 12.2818 2.46415 
30 1 26.1476 15.5816 1.22786 
38 1 25.5114 14.2821 1.22786 
46 1 30.2999 17.398 2.46416 
50 1 31.7281 17.398 2.46415 
54 1 32.4516 17.398 1.22785 
ITEM: TIMESTEP
20
ITEM: NUMBER OF ATOMS
57
ITEM: BOX BOUNDS pp pp pp
0.0000000000000000e+00 3.2808000000000000e+01
0.0000000000000000e+00 1.7780000000000001e+01
0.0000000000000000e+00 2.4729999999999999e+00
ITEM: ATOMS id type x y z 
13 1 7.0491 0.79341 2.46675 
29 1 7.4159 1.33899 1.23093 
37 1 7.97866 2.7144 1.31894 
57 2 7.31358 3.30547 1.9954 
1 1 6.13866 17.35 2.46381 
5 1 5.34134 17.3735 1.22712 
9 1 3.94788 17.399 1.2276 
16 1 7.05144 16.156 2.46431 
32 1 7.4185 15.5797 1.22764 
40 1 8.04815 14.284 1.22763 
45 1 3.21605 17.3997 2.46433 
49 1 1.78567 17.3984 2.46436 
53 1 1.06518 17.398 1.22764 
4 1 10.9924 8.52997 2.46432 
8 1 11.7946 8.52198 1.22767 
12 1 13.1881 8.50768 1.22765 
18 1 10.1052 7.32125 2.46458 
21 1 8.30372 3.42143 2.53844 
26 1 8.85882 4.80064 2.47329 
34 1 9.74101 6.73801 1.22811 
42 1 9.10364 5.42332 1.23275 
48 1 13.9223 8.50727 2.46436 
52 1 15.35 8.50784 2.46436 
56 1 16.0726 8.508 1.22764 
19 1 10.0921 9.7392 2.46437 
24 1 8.31448 13.6172 2.46436 
27 1 8.83087 12.2788 2.46437 
35 1 9.73124 10.3162 1.22764 
43 1 9.09742 11.6157 1.22763 
3 1 22.5862 8.508 2.46432 
7 1 21.7807 8.508 1.22767 
11 1 20.3884 8.508 1.22765 
20 1 23.4535 7.2767 2.46436 
36 1 23.8044 6.69266 1.22764 
44 1 24.4387 5.39453 1.22763 
47 1 19.6539 8.508 2.46435 
51 1 18.2258 8.508 2.46436 
55 1 17.5037 8.50801 1.22764 
17 1 23.4535 9.7393 2.46436 
33 1 23.8044 10.3233 1.22764 
41 1 24.4387 11.6215 1.22763 
15 1 26.4928 0.850739 2.46437 
23 1 25.2364 3.39569 2.46437 
28 1 24.7121 4.73245 2.46437 
31 1 26.1434 1.4352 1.22764 
39 1 25.5096 2.73408 1.22763 
2 1 27.3598 17.398 2.46431 
6 1 28.1623 17.398 1.22767 
10 1 29.5577 17.398 1.22765 
14 1 26.4928 16.1653 2.46437 
22 1 25.2364 13.6203 2.46437 
25 1 24.7121 12.2836 2.46437 
30 1 26.1434 15.5808 1.22764 
38 1 25.5096 14.2819 1.22763 
46 1 30.2933 17.398 2.46436 
50 1 31.7194 17.398 2.46436 
54 1 32.4425 17.398 1.22764 
ITEM: TIMESTEP
30
ITEM: NUMBER OF ATOMS
57
ITEM: BOX BOUNDS pp pp pp
0.0000000000000000e+00 3.2808000000000000e+01
0.0000000000000000e+00 1.7780000000000001e+01
0.0000000000000000e+00 2.4729999999999999e+00
ITEM: ATOMS id type x y z 
13 1 7.05381 0.774436 2.4726 
29 1 7.43058 1.32082 1.23862 
37 1 7.98747 2.69386 1.30253 
57 2 7.31738 3.3361 1.97941 
1 1 6.13454 17.3457 2.46465 
5 1 5.3362 17.3642 1.22805 
9 1 3.94416 17.3988 1.22767 
16 1 7.0513 16.1502 2.46409 
32 1 7.42839 15.5829 1.22766 
40 1 8.05915 14.2854 1.22778 
45 1 3.20997 17.4019 2.46409 
49 1 1.78227 17.3991 2.4642 
53 1 1.0603 17.398 1.22779 
4 1 10.9985 8.53481 2.46429 
8 1 11.8009 8.5278 1.22787 
12 1 13.1923 8.50837 1.22779 
18 1 10.1016 7.32354 2.46555 
21 1 8.29768 3.44485 2.53485 
26 1 8.85152 4.78988 2.48221 
34 1 9.73325 6.75133 1.22979 
42 1 9.10565 5.44022 1.24211 
48 1 13.9251 8.50616 2.46421 
52 1 15.3542 8.50741 2.46421 
56 1 16.0754 8.50799 1.22779 
19 1 10.0921 9.73876 2.46422 
24 1 8.31936 13.6173 2.46421 
27 1 8.8276 12.2754 2.46421 
35 1 9.72281 10.3106 1.22778 
43 1 9.08989 11.6093 1.22779 
3 1 22.5884 8.508 2.4642 
7 1 21.7846 8.508 1.22781 
11 1 20.3911 8.508 1.22779 
20 1 23.462 7.28031 2.46422 
36 1 23.8115 6.69579 1.22778 
44 1 24.4431 5.3964 1.22779 
47 1 19.6568 8.508 2.46421 
51 1 18.229 8.50801 2.46421 
55 1 17.5068 8.50804 1.22779 
17 1 23.462 9.73569 2.46422 
33 1 23.8115 10.3202 1.22778 
41 1 24.4431 11.6196 1.22779 
15 1 26.4838 0.84656 2.46422 
23 1 25.2348 3.39538 2.46421 
28 1 24.7136 4.73314 2.46421 
31 1 26.1358 1.4323 1.22778 
39 1 25.5051 2.73251 1.22779 
2 1 27.3545 17.398 2.4642 
6 1 28.1606 17.398 1.22781 
10 1 29.5517 17.398 1.22779 
14 1 26.4838 16.1694 2.46422 
22 1 25.2348 13.6206 2.46421 
25 1 24.7136 12.2829 2.46421 
30 1 26.1358 15.5837 1.22778 
38 1 25.5051 14.2835 1.22779 
46 1 30.2866 17.398 2.46421 
50 1 31.7144 17.398 2.46421 
54 1 32.4366 17.3979 1.22779 
ITEM: TIMESTEP
40
ITEM: NUMBER OF ATOMS
57
ITEM: BOX BOUNDS pp pp pp
0.0000000000000000e+00 3.2808000000000000e+01
0.0000000000000000e+00 1.7780000000000001e+01
0.0000000000000000e+00 2.4729999999999999e+00
ITEM: ATOMS id type x y z 
13 1 7.05976 0.768693 2.47592 
29 1 7.43615 1.3117 1.24239 
37 1 7.98931 2.6889 1.30417 
57 2 7.32231 3.34245 1.95749 
1 1 6.13273 17.3415 2.46595 
5 1 5.33496 17.3602 1.22906 
9 1 3.94274 17.3984 1.2278 
16 1 7.04945 16.1481 2.4642 
32 1 7.43386 15.5836 1.22767 
40 1 8.06703 14.2877 1.22775 
45 1 3.20752 17.4035 2.46421 
49 1 1.78081 17.4 2.4642 
53 1 1.05858 17.3981 1.22776 
4 1 11.0004 8.53519 2.4646 
8 1 11.8013 8.53048 1.22802 
12 1 13.1943 8.50887 1.2278 
18 1 10.1025 7.3296 2.46733 
21 1 8.28934 3.44764 2.53211 
26 1 8.8529 4.79862 2.48645 
34 1 9.72781 6.75596 1.23194 
42 1 9.10231 5.44211 1.24673 
48 1 13.927 8.50537 2.46424 
52 1 15.3559 8.50691 2.46423 
56 1 16.0779 8.50792 1.22777 
19 1 10.0915 9.73849 2.46424 
24 1 8.32357 13.6185 2.4642 
27 1 8.82449 12.2725 2.46422 
35 1 9.7175 10.3071 1.22777 
43 1 9.08262 11.6071 1.22778 
3 1 22.5905 8.508 2.46424 
7 1 21.787 8.508 1.22777 
11 1 20.3937 8.508 1.22777 
20 1 23.4672 7.28234 2.46423 
36 1 23.8178 6.69835 1.22777 
44 1 24.4466 5.39804 1.22778 
47 1 19.6591 8.508 2.46423 
51 1 18.2315 8.50802 2.46423 
55 1 17.5088 8.50809 1.22777 
17 1 23.4672 9.73366 2.46423 
33 1 23.8178 10.3176 1.22777 
41 1 24.4466 11.618 1.22778 
15 1 26.4781 0.844686 2.46423 
23 1 25.2333 3.39463 2.46422 
28 1 24.7153 4.73377 2.46423 
31 1 26.1292 1.42964 1.22777 
39 1 25.5015 2.731 1.22778 
2 1 27.3522 17.398 2.46424 
6 1 28.1573 17.398 1.22777 
10 1 29.549 17.398 1.22777 
14 1 26.4781 16.1713 2.46423 
22 1 25.2333 13.6214 2.46422 
25 1 24.7153 12.2822 2.46423 
30 1 26.1292 15.5864 1.22777 
38 1 25.5015 14.285 1.22778 
46 1 30.284 17.398 2.46423 
50 1 31.7122 17.398 2.46423 
54 1 32.434 17.3978 1.22777 
ITEM: TIMESTEP
50
ITEM: NUMBER OF ATOMS
57
ITEM: BOX BOUNDS pp pp pp
0.0000000000000000e+00 3.2808000000000000e+01
0.0000000000000000e+00 1.7780000000000001e+01
0.0000000000000000e+00 2.4729999999999999e+00
ITEM: ATOMS id type x y z 
13 1 7.08911 0.732569 2.49926 
29 1 7.46051 1.25972 1.26263 
37 1 8.02581 2.65305 1.28192 
57 2 7.34152 3.37384 1.84857 
1 1 6.11897 17.3181 2.47466 
5 1 5.32436 17.3433 1.23643 
9 1 3.93198 17.3958 1.22975 
16 1 7.04181 16.1282 2.46586 
32 1 7.4605 15.5872 1.22867 
40 1 8.11916 14.3015 1.22763 
45 1 3.19811 17.4126 2.46593 
49 1 1.76818 17.4066 2.46447 
53 1 1.0476 17.3996 1.22766 
4 1 11.0115 8.55036 2.46789 
8 1 11.8105 8.54568 1.23045 
12 1 13.2046 8.51214 1.22811 
18 1 10.0939 7.34425 2.48132 
21 1 8.23201 3.48437 2.51348 
26 1 8.84544 4.82786 2.51045 
34 1 9.7064 6.79466 1.24683 
42 1 9.0854 5.46192 1.27056 
48 1 13.9405 8.50108 2.46467 
52 1 15.3668 8.50308 2.4644 
56 1 16.0912 8.50688 1.22765 
19 1 10.0868 9.7397 2.46467 
24 1 8.35619 13.6257 2.46431 
27 1 8.79877 12.2595 2.46435 
35 1 9.68415 10.2923 1.22784 
43 1 9.03767 11.5843 1.22762 
3 1 22.604 8.508 2.46434 
7 1 21.7998 8.508 1.22765 
11 1 20.4086 8.50798 1.22765 
20 1 23.4976 7.29504 2.46433 
36 1 23.859 6.71632 1.22768 
44 1 24.4739 5.40704 1.22764 
47 1 19.6737 8.50801 2.46435 
51 1 18.2454 8.50827 2.46436 
55 1 17.5219 8.50854 1.22764 
17 1 23.4976 9.72096 2.46433 
33 1 23.859 10.2997 1.22768 
41 1 24.4739 11.609 1.22764 
15 1 26.4464 0.831445 2.46433 
23 1 25.2214 3.38892 2.46436 
28 1 24.728 4.73925 2.46436 
31 1 26.0869 1.41009 1.22768 
39 1 25.4753 2.72057 1.22763 
2 1 27.3415 17.398 2.46434 
6 1 28.1406 17.398 1.22765 
10 1 29.5381 17.398 1.22765 
14 1 26.4464 16.1846 2.46433 
22 1 25.2214 13.6271 2.46436 
25 1 24.728 12.2768 2.46436 
30 1 26.0869 15.6059 1.22768 
38 1 25.4753 14.2954 1.22763 
46 1 30.2724 17.398 2.46435 
50 1 31.6998 17.3975 2.46435 
54 1 32.4218 17.3969 1.22762 
ITEM: TIMESTEP
60
ITEM: NUMBER OF ATOMS
57
ITEM: BOX BOUNDS pp pp pp
0.0000000000000000e+00 3.2808000000000000e+01
0.0000000000000000e+00 1.7780000000000001e+01
0.0000000000000000e+00 2.4729999999999999e+00
ITEM: ATOMS id type x y z 
13 1 7.08599 0.73321 2.49624 
29 1 7.45567 1.26387 1.26058 
37 1 8.03438 2.65033 1.28128 
57 2 7.33971 3.36336 1.84805 
1 1 6.12004 17.3187 2.47529 
5 1 5.32596 17.3451 1.23761 
9 1 3.93224 17.3967 1.23096 
16 1 7.04114 16.1269 2.4668 
32 1 7.45681 15.5835 1.22966 
40 1 8.1235 14.301 1.22798 
45 1 3.19815 17.4116 2.46689 
49 1 1.76953 17.4077 2.46473 
53 1 1.04662 17.401 1.22801 
4 1 11.012 8.54887 2.46918 
8 1 11.8112 8.54503 1.23189 
12 1 13.2044 8.51228 1.22869 
18 1 10.0984 7.34904 2.48329 
21 1 8.22713 3.4954 2.51055 
26 1 8.83648 4.82599 2.50657 
34 1 9.71082 6.78856 1.24883 
42 1 9.0876 5.46869 1.26796 
48 1 13.9399 8.50182 2.46501 
52 1 15.3667 8.50245 2.46439 
56 1 16.0908 8.50608 1.22779 
19 1 10.0866 9.74043 2.46503 
24 1 8.36194 13.6266 2.46443 
27 1 8.79536 12.257 2.46431 
35 1 9.68608 10.2925 1.22824 
43 1 9.03405 11.5824 1.22776 
3 1 22.6038 8.508 2.46425 
7 1 21.8019 8.50799 1.22775 
11 1 20.4081 8.50798 1.22773 
20 1 23.498 7.29415 2.46428 
36 1 23.8611 6.71741 1.22773 
44 1 24.4778 5.40863 1.22771 
47 1 19.6732 8.50806 2.46427 
51 1 18.2452 8.50845 2.46429 
55 1 17.5218 8.50854 1.22773 
17 1 23.498 9.72185 2.46428 
33 1 23.8611 10.2986 1.22773 
41 1 24.4778 11.6074 1.22771 
15 1 26.4465 0.831872 2.46427 
23 1 25.2187 3.388 2.46428 
28 1 24.7309 4.74036 2.46428 
31 1 26.0845 1.40937 1.22773 
39 1 25.4712 2.71908 1.22771 
2 1 27.3408 17.398 2.46425 
6 1 28.1415 17.398 1.22774 
10 1 29.5366 17.3981 1.22772 
14 1 26.4465 16.1841 2.46427 
22 1 25.2187 13.628 2.46428 
25 1 24.7309 12.2756 2.46428 
30 1 26.0845 15.6066 1.22773 
38 1 25.4712 14.2969 1.22771 
46 1 30.2721 17.3979 2.46427 
50 1 31.6995 17.3971 2.46428 
54 1 32.4228 17.3968 1.22773 
ITEM: TIMESTEP
70
ITEM: NUMBER OF ATOMS
57
ITEM: BOX BOUNDS pp pp pp
0.0000000000000000e+00 3.2808000000000000e+01
0.0000000000000000e+00 1.7780000000000001e+01
0.0000000000000000e+00 2.4729999999999999e+00
ITEM: ATOMS id type x y z 
13 1 7.08264 0.73517 2.49354 
29 1 7.45137 1.26665 1.258 
37 1 8.04477 2.64701 1.28037 
57 2 7.33686 3.35153 1.8441 
1 1 6.1197 17.3188 2.47578 
5 1 5.32606 17.3457 1.23826 
9 1 3.93219 17.3971 1.23213 
16 1 7.03883 16.1256 2.46785 
32 1 7.45317 15.5813 1.23071 
40 1 8.12764 14.3027 1.22844 
45 1 3.19729 17.411 2.46801 
49 1 1.76934 17.4087 2.46525 
53 1 1.04579 17.4025 1.22849 
4 1 11.0132 8.54986 2.47066 
8 1 11.812 8.54611 1.2333 
12 1 13.2058 8.5126 1.22945 
18 1 10.1016 7.34876 2.48466 
21 1 8.21718 3.50087 2.51038 
26 1 8.82874 4.82859 2.50335 
34 1 9.71605 6.78654 1.25002 
42 1 9.08623 5.4706 1.26515 
48 1 13.9411 8.50227 2.46565 
52 1 15.3684 8.50177 2.46456 
56 1 16.0922 8.50517 1.22795 
19 1 10.0876 9.74148 2.46566 
24 1 8.36735 13.6284 2.46479 
27 1 8.79165 12.2559 2.46447 
35 1 9.68595 10.293 1.22881 
43 1 9.02895 11.5805 1.22797 
3 1 22.6052 8.508 2.46425 
7 1 21.8038 8.50798 1.22775 
11 1 20.4095 8.50798 1.22774 
20 1 23.499 7.29364 2.46426 
36 1 23.8634 6.71775 1.22774 
44 1 24.4823 5.41037 1.22773 
47 1 19.674 8.50815 2.46426 
51 1 18.2468 8.50864 2.46428 
55 1 17.523 8.50844 1.22777 
17 1 23.499 9.72236 2.46426 
33 1 23.8634 10.2983 1.22774 
41 1 24.4823 11.6056 1.22773 
15 1 26.4463 0.832115 2.46426 
23 1 25.2156 3.38675 2.46427 
28 1 24.7342 4.74123 2.46427 
31 1 26.0826 1.40854 1.22774 
39 1 25.4667 2.71705 1.22773 
2 1 27.3405 17.398 2.46425 
6 1 28.1414 17.398 1.22775 
10 1 29.5364 17.398 1.22774 
14 1 26.4463 16.1839 2.46426 
22 1 25.2156 13.6293 2.46427 
25 1 24.7342 12.2748 2.46427 
30 1 26.0826 15.6075 1.22774 
38 1 25.4667 14.299 1.22773 
46 1 30.2716 17.3978 2.46426 
50 1 31.699 17.3968 2.46433 
54 1 32.4229 17.3969 1.22785 
ITEM: TIMESTEP
80
ITEM: NUMBER OF ATOMS
57
ITEM: BOX BOUNDS pp pp pp
0.0000000000000000e+00 3.2808000000000000e+01
0.0000000000000000e+00 1.7780000000000001e+01
0.0000000000000000e+00 2.4729999999999999e+00
ITEM: ATOMS id type x y z 
13 1 7.0794 0.738309 2.49133 
29 1 7.44706 1.26827 1.2545 
37 1 8.05793 2.6438 1.27918 
57 2 7.33443 3.33681 1.83847 
1 1 6.12054 17.3177 2.47591 
5 1 5.32511 17.3454 1.23869 
9 1 3.93032 17.3973 1.23331 
16 1 7.03658 16.123 2.46903 
32 1 7.44953 15.5788 1.23186 
40 1 8.13236 14.303 1.22911 
45 1 3.19759 17.4109 2.46921 
49 1 1.76898 17.41 2.46609 
53 1 1.04602 17.4042 1.22917 
4 1 11.0139 8.55221 2.47208 
8 1 11.8136 8.54858 1.2348 
12 1 13.2074 8.51338 1.23049 
18 1 10.1064 7.34717 2.48547 
21 1 8.20229 3.50813 2.50981 
26 1 8.81956 4.83407 2.50084 
34 1 9.72327 6.78494 1.25042 
42 1 9.08351 5.47244 1.26213 
48 1 13.943 8.50263 2.46667 
52 1 15.3686 8.50087 2.46499 
56 1 16.094 8.50403 1.22824 
19 1 10.0884 9.74293 2.46668 
24 1 8.37292 13.6297 2.46551 
27 1 8.78779 12.2553 2.46497 
35 1 9.68611 10.2934 1.2297 
43 1 9.0237 11.579 1.2284 
3 1 22.6071 8.508 2.46424 
7 1 21.8054 8.50796 1.22776 
11 1 20.4111 8.50804 1.22772 
20 1 23.5006 7.29342 2.46429 
36 1 23.8662 6.71847 1.22771 
44 1 24.4882 5.41159 1.22769 
47 1 19.6762 8.50833 2.4643 
51 1 18.2482 8.50881 2.46438 
55 1 17.5246 8.5082 1.22782 
17 1 23.5006 9.72259 2.46429 
33 1 23.8662 10.2975 1.22771 
41 1 24.4882 11.6044 1.22769 
15 1 26.4456 0.832177 2.46429 
23 1 25.2119 3.38478 2.46431 
28 1 24.7382 4.74237 2.46431 
31 1 26.0804 1.40767 1.22771 
39 1 25.4613 2.71475 1.22769 
2 1 27.3398 17.398 2.46424 
6 1 28.1398 17.3981 1.22776 
10 1 29.5356 17.398 1.22774 
14 1 26.4456 16.1838 2.46429 
22 1 25.2119 13.6312 2.46431 
25 1 24.7382 12.2736 2.46431 
30 1 26.0804 15.6083 1.22771 
38 1 25.4614 14.3013 1.22769 
46 1 30.2707 17.3974 2.46433 
50 1 31.6985 17.3964 2.46458 
54 1 32.4217 17.3973 1.22807 
ITEM: TIMESTEP
81
ITEM: NUMBER OF ATOMS
57
ITEM: BOX BOUNDS pp pp pp
0.0000000000000000e+00 3.2808000000000000e+01
0.0000000000000000e+00 1.7780000000000001e+01
0.0000000000000000e+00 2.4729999999999999e+00
ITEM: ATOMS id type x y z 
13 1 7.07939 0.73832 2.49133 
29 1 7.44705 1.26827 1.25449 
37 1 8.05797 2.6438 1.27918 
57 2 7.33443 3.33677 1.83845 
1 1 6.12054 17.3177 2.47591 
5 1 5.32511 17.3454 1.23869 
9 1 3.93032 17.3973 1.23331 
16 1 7.03658 16.123 2.46904 
32 1 7.44952 15.5788 1.23186 
40 1 8.13237 14.303 1.22911 
45 1 3.1976 17.4109 2.46921 
49 1 1.76898 17.41 2.46609 
53 1 1.04602 17.4042 1.22917 
4 1 11.0139 8.55222 2.47208 
8 1 11.8136 8.54859 1.2348 
12 1 13.2074 8.51339 1.23049 
18 1 10.1064 7.34716 2.48547 
21 1 8.20225 3.50815 2.50981 
26 1 8.81954 4.83409 2.50083 
34 1 9.72329 6.78494 1.25042 
42 1 9.0835 5.47244 1.26212 
48 1 13.943 8.50263 2.46668 
52 1 15.3686 8.50086 2.46499 
56 1 16.094 8.50403 1.22824 
19 1 10.0884 9.74294 2.46669 
24 1 8.37293 13.6297 2.46551 
27 1 8.78778 12.2553 2.46497 
35 1 9.68611 10.2934 1.2297 
43 1 9.02368 11.579 1.2284 
3 1 22.6071 8.508 2.46424 
7 1 21.8054 8.50796 1.22776 
11 1 20.4111 8.50804 1.22772 
20 1 23.5006 7.29342 2.46429 
36 1 23.8662 6.71847 1.22771 
44 1 24.4882 5.41159 1.22769 
47 1 19.6762 8.50833 2.4643 
51 1 18.2482 8.50881 2.46438 
55 1 17.5246 8.5082 1.22782 
17 1 23.5006 9.72259 2.46429 
33 1 23.8662 10.2975 1.22771 
41 1 24.4882 11.6044 1.22769 
15 1 26.4456 0.832177 2.46429 
23 1 25.2119 3.38478 2.46431 
28 1 24.7382 4.74237 2.46431 
31 1 26.0804 1.40766 1.22771 
39 1 25.4613 2.71474 1.22769 
2 1 27.3398 17.398 2.46424 
6 1 28.1398 17.3981 1.22776 
10 1 29.5356 17.398 1.22774 
14 1 26.4456 16.1838 2.46429 
22 1 25.2119 13.6312 2.46431 
25 1 24.7382 12.2736 2.46431 
30 1 26.0804 15.6083 1.22771 
38 1 25.4613 14.3013 1.22769 
46 1 30.2707 17.3974 2.46433 
50 1 31.6985 17.3964 2.46458 
54 1 32.4217 17.3973 1.22807 
ITEM: TIMESTEP
90
ITEM: NUMBER OF ATOMS
57
ITEM: BOX BOUNDS pp pp pp
0.0000000000000000e+00 3.2808000000000000e+01
0.0000000000000000e+00 1.7780000000000001e+01
0.0000000000000000e+00 2.4729999999999999e+00
ITEM: ATOMS id type x y z 
13 1 7.07586 0.740367 0.0152859 
29 1 7.44442 1.27065 1.25186 
37 1 8.07056 2.63922 1.27857 
57 2 7.33098 3.32246 1.83106 
1 1 6.12 17.3175 0.00289869 
5 1 5.32517 17.3446 1.23885 
9 1 3.93119 17.3971 1.23429 
16 1 7.03412 16.1215 2.47004 
32 1 7.44682 15.5758 1.23293 
40 1 8.13613 14.3034 1.23005 
45 1 3.19766 17.4112 2.47022 
49 1 1.76779 17.4116 2.46693 
53 1 1.04517 17.406 1.23005 
4 1 11.0148 8.55399 2.47331 
8 1 11.8142 8.55188 1.23601 
12 1 13.2075 8.51463 1.2317 
18 1 10.113 7.3455 0.0124502 
21 1 8.18692 3.51736 0.036479 
26 1 8.80836 4.83895 0.0252113 
34 1 9.73067 6.78135 1.2504 
42 1 9.08084 5.47623 1.26007 
48 1 13.9453 8.50291 2.46777 
52 1 15.3703 8.49979 2.46553 
56 1 16.0958 8.50279 1.2288 
19 1 10.0889 9.74385 2.46782 
24 1 8.37713 13.632 2.46635 
27 1 8.7852 12.253 2.46569 
35 1 9.68614 10.2942 1.23083 
43 1 9.01983 11.5769 1.22922 
3 1 22.6092 8.508 2.46424 
7 1 21.8075 8.50796 1.22777 
11 1 20.4126 8.50816 1.22778 
20 1 23.5026 7.29348 2.46427 
36 1 23.8694 6.71918 1.22773 
44 1 24.4942 5.41277 1.22773 
47 1 19.6789 8.50856 2.46431 
51 1 18.2497 8.50891 2.46449 
55 1 17.526 8.50783 1.22803 
17 1 23.5025 9.72255 2.46427 
33 1 23.8694 10.2968 1.22773 
41 1 24.4941 11.6032 1.22773 
15 1 26.4446 0.832129 2.46427 
23 1 25.2081 3.38296 2.46427 
28 1 24.7422 4.7436 2.46427 
31 1 26.0778 1.40688 1.22773 
39 1 25.456 2.71215 1.22773 
2 1 27.3381 17.398 2.46425 
6 1 28.1395 17.3981 1.22778 
10 1 29.5342 17.3978 1.22785 
14 1 26.4447 16.1838 2.46427 
22 1 25.2081 13.6331 2.46427 
25 1 24.7422 12.2724 2.46427 
30 1 26.0779 15.6091 1.22773 
38 1 25.456 14.3039 1.22773 
46 1 30.2701 17.397 2.46441 
50 1 31.6969 17.3962 2.46489 
54 1 32.4209 17.3978 1.22851 
ITEM: TIMESTEP
100
ITEM: NUMBER OF ATOMS
57
ITEM: BOX BOUNDS pp pp pp
0.0000000000000000e+00 3.2808000000000000e+01
0.0000000000000000e+00 1.7780000000000001e+01
0.0000000000000000e+00 2.4729999999999999e+00
ITEM: ATOMS id type x y z 
13 1 7.0746 0.742506 0.0129707 
29 1 7.44202 1.27125 1.2515 
37 1 8.07739 2.63824 1.27742 
57 2 7.3292 3.31325 1.82552 
1 1 6.11954 17.3174 0.00297994 
5 1 5.3259 17.3441 1.23862 
9 1 3.93127 17.3967 1.23477 
16 1 7.0328 16.1211 2.47052 
32 1 7.44459 15.5746 1.23361 
40 1 8.13598 14.3065 1.23085 
45 1 3.19469 17.4113 2.47076 
49 1 1.76919 17.4128 2.46748 
53 1 1.04359 17.4073 1.2307 
4 1 11.0165 8.55419 2.47397 
8 1 11.8157 8.55438 1.23662 
12 1 13.2104 8.51578 1.23253 
18 1 10.118 7.34292 0.0121151 
21 1 8.17572 3.52183 0.0359217 
26 1 8.79889 4.84047 0.0231775 
34 1 9.73604 6.77855 1.25003 
42 1 9.07737 5.47692 1.25936 
48 1 13.9446 8.50321 2.46851 
52 1 15.3733 8.49893 2.46602 
56 1 16.0965 8.50184 1.22932 
19 1 10.0888 9.74365 2.4686 
24 1 8.37929 13.6321 2.46702 
27 1 8.7836 12.2534 2.46639 
35 1 9.68578 10.2941 1.23175 
43 1 9.01735 11.5773 1.23004 
3 1 22.6106 8.508 2.46428 
7 1 21.8094 8.50797 1.22775 
11 1 20.4147 8.50831 1.22785 
20 1 23.5041 7.29344 2.46422 
36 1 23.8718 6.71928 1.22778 
44 1 24.497 5.41584 1.22778 
47 1 19.6784 8.50876 2.46435 
51 1 18.252 8.50888 2.46465 
55 1 17.5276 8.50747 1.22828 
17 1 23.5041 9.7226 2.46422 
33 1 23.8718 10.2967 1.22778 
41 1 24.497 11.6002 1.22778 
15 1 26.4437 0.831954 2.46423 
23 1 25.2054 3.3825 2.46421 
28 1 24.7448 4.74419 2.46422 
31 1 26.076 1.40587 1.22778 
39 1 25.452 2.71142 1.22779 
2 1 27.3385 17.398 2.46431 
6 1 28.1398 17.3981 1.22779 
10 1 29.5343 17.3975 1.228 
14 1 26.4438 16.184 2.46423 
22 1 25.2054 13.6335 2.46421 
25 1 24.7448 12.2718 2.46422 
30 1 26.076 15.6101 1.22778 
38 1 25.452 14.3046 1.22779 
46 1 30.2711 17.3967 2.46454 
50 1 31.6969 17.3962 2.46521 
54 1 32.4224 17.3983 1.22892 
ITEM: TIMESTEP
110
ITEM: NUMBER OF ATOMS
57
ITEM: BOX BOUNDS pp pp pp
0.0000000000000000e+00 3.2808000000000000e+01
0.0000000000000000e+00 1.7780000000000001e+01
0.0000000000000000e+00 2.4729999999999999e+00
ITEM: ATOMS id type x y z 
13 1 7.06709 0.74993 0.00718822 
29 1 7.43595 1.2779 1.24383 
37 1 8.10369 2.63414 1.27128 
57 2 7.3136 3.27597 1.80024 
1 1 6.11983 17.318 0.00239074 
5 1 5.32562 17.3444 1.23863 
9 1 3.93081 17.395 1.23659 
16 1 7.02902 16.1187 2.47304 
32 1 7.43394 15.5693 1.23631 
40 1 8.13464 14.3041 1.23474 
45 1 3.19479 17.4116 2.47272 
49 1 1.76779 17.4192 2.47037 
53 1 1.04306 17.4145 1.23349 
4 1 11.0201 8.5558 2.47642 
8 1 11.8208 8.56591 1.23945 
12 1 13.2153 8.52316 1.2362 
18 1 10.1472 7.32722 0.0102735 
21 1 8.12492 3.5458 0.0290962 
26 1 8.75425 4.85998 0.0164396 
34 1 9.76737 6.76136 1.24744 
42 1 9.06032 5.4857 1.25223 
48 1 13.9502 8.50609 2.47225 
52 1 15.3772 8.49442 2.46902 
56 1 16.1018 8.49639 1.23209 
19 1 10.0859 9.74001 2.47307 
24 1 8.38288 13.632 2.47115 
27 1 8.78286 12.2504 2.47094 
35 1 9.68768 10.2944 1.23625 
43 1 9.01763 11.5758 1.23451 
3 1 22.6165 8.50799 2.46434 
7 1 21.8156 8.50809 1.22793 
11 1 20.4201 8.50935 1.2283 
20 1 23.5115 7.29424 2.46428 
36 1 23.8831 6.72223 1.22777 
44 1 24.5143 5.41975 1.22774 
47 1 19.6845 8.50989 2.46492 
51 1 18.2575 8.50833 2.46607 
55 1 17.5324 8.50499 1.22979 
17 1 23.5114 9.72186 2.46428 
33 1 23.883 10.2939 1.22777 
41 1 24.5143 11.5963 1.22774 
15 1 26.4406 0.830996 2.46433 
23 1 25.1942 3.37689 2.46427 
28 1 24.7563 4.74748 2.46427 
31 1 26.0679 1.40241 1.22781 
39 1 25.436 2.70479 1.22775 
2 1 27.3367 17.3981 2.46452 
6 1 28.1372 17.398 1.22816 
10 1 29.5331 17.3958 1.22892 
14 1 26.4408 16.185 2.46433 
22 1 25.1943 13.6391 2.46427 
25 1 24.7562 12.2686 2.46427 
30 1 26.0681 15.6135 1.22781 
38 1 25.4361 14.3112 1.22775 
46 1 30.2698 17.3949 2.46561 
50 1 31.6956 17.3967 2.46728 
54 1 32.4209 17.4014 1.23106 
ITEM: TIMESTEP
120
ITEM: NUMBER OF ATOMS
57
ITEM: BOX BOUNDS pp pp pp
0.0000000000000000e+00 3.2808000000000000e+01
0.0000000000000000e+00 1.7780000000000001e+01
0.0000000000000000e+00 2.4729999999999999e+00
ITEM: ATOMS id type x y z 
13 1 7.06901 0.751873 0.00712263 
29 1 7.43613 1.27902 1.24399 
37 1 8.09847 2.63839 1.27022 
57 2 7.31478 3.2763 1.80065 
1 1 6.12066 17.32 0.00238661 
5 1 5.32606 17.3445 1.23853 
9 1 3.93083 17.3951 1.23654 
16 1 7.02819 16.1197 2.47309 
32 1 7.4343 15.5692 1.23633 
40 1 8.13405 14.3025 1.23491 
45 1 3.19472 17.4116 2.47274 
49 1 1.76804 17.4193 2.47034 
53 1 1.04275 17.4147 1.23351 
4 1 11.0201 8.5549 2.4765 
8 1 11.8191 8.56603 1.23935 
12 1 13.2152 8.52355 1.23626 
18 1 10.1471 7.32448 0.0100096 
21 1 8.12597 3.54406 0.0286303 
26 1 8.75351 4.86019 0.0159782 
34 1 9.76747 6.76008 1.24741 
42 1 9.05917 5.48493 1.25198 
48 1 13.9516 8.5064 2.47224 
52 1 15.3773 8.49436 2.4691 
56 1 16.1027 8.49616 1.23222 
19 1 10.0862 9.73888 2.47317 
24 1 8.38152 13.6319 2.47125 
27 1 8.78374 12.251 2.4711 
35 1 9.68825 10.2929 1.23636 
43 1 9.01907 11.5753 1.23475 
3 1 22.6171 8.50799 2.4644 
7 1 21.8166 8.50811 1.22793 
11 1 20.4208 8.50943 1.22838 
20 1 23.5118 7.29388 2.46428 
36 1 23.883 6.72211 1.22778 
44 1 24.514 5.41959 1.22778 
47 1 19.6841 8.50993 2.465 
51 1 18.2584 8.50819 2.46615 
55 1 17.5329 8.50477 1.22994 
17 1 23.5117 9.72221 2.46428 
33 1 23.8829 10.294 1.22778 
41 1 24.5139 11.5965 1.22778 
15 1 26.4404 0.831515 2.46434 
23 1 25.1943 3.37707 2.46424 
28 1 24.7561 4.74723 2.46424 
31 1 26.0682 1.40265 1.22783 
39 1 25.4366 2.7045 1.22779 
2 1 27.3362 17.3981 2.4646 
6 1 28.1369 17.3979 1.22818 
10 1 29.5324 17.3957 1.22901 
14 1 26.4405 16.1844 2.46434 
22 1 25.1944 13.639 2.46424 
25 1 24.7561 12.2688 2.46424 
30 1 26.0684 15.6133 1.22783 
38 1 25.4367 14.3115 1.22779 
46 1 30.268 17.3948 2.4657 
50 1 31.6954 17.3969 2.46733 
54 1 32.4202 17.4016 1.23117 
ITEM: TIMESTEP
124
ITEM: NUMBER OF ATOMS
57
ITEM: BOX BOUNDS pp pp pp
0.0000000000000000e+00 3.2808000000000000e+01
0.0000000000000000e+00 1.7780000000000001e+01
0.0000000000000000e+00 2.4729999999999999e+00
ITEM: ATOMS id type x y z 
13 1 7.06901 0.751869 0.00712288 
29 1 7.43613 1.27903 1.24399 
37 1 8.09846 2.63839 1.27021 
57 2 7.31477 3.2763 1.80065 
1 1 6.12065 17.32 0.00238649 
5 1 5.32606 17.3445 1.23853 
9 1 3.93083 17.3951 1.23654 
16 1 7.02819 16.1197 2.47309 
32 1 7.4343 15.5692 1.23633 
40 1 8.13405 14.3025 1.23491 
45 1 3.19472 17.4116 2.47274 
49 1 1.76804 17.4193 2.47034 
53 1 1.04275 17.4147 1.23351 
4 1 11.0201 8.5549 2.47649 
8 1 11.8191 8.56603 1.23935 
12 1 13.2152 8.52355 1.23626 
18 1 10.1471 7.32448 0.0100097 
21 1 8.12597 3.54406 0.02863 
26 1 8.75351 4.86018 0.0159781 
34 1 9.76747 6.76008 1.24741 
42 1 9.05916 5.48493 1.25198 
48 1 13.9516 8.5064 2.47224 
52 1 15.3773 8.49436 2.4691 
56 1 16.1027 8.49616 1.23222 
19 1 10.0862 9.73888 2.47317 
24 1 8.38152 13.6319 2.47125 
27 1 8.78375 12.251 2.4711 
35 1 9.68825 10.2929 1.23636 
43 1 9.01907 11.5753 1.23475 
3 1 22.6171 8.50799 2.4644 
7 1 21.8166 8.50811 1.22793 
11 1 20.4208 8.50943 1.22838 
20 1 23.5118 7.29388 2.46428 
36 1 23.883 6.7221 1.22778 
44 1 24.514 5.41959 1.22778 
47 1 19.6841 8.50993 2.465 
51 1 18.2584 8.50819 2.46615 
55 1 17.5329 8.50477 1.22994 
17 1 23.5117 9.72221 2.46428 
33 1 23.8829 10.294 1.22778 
41 1 24.5139 11.5965 1.22778 
15 1 26.4404 0.831514 2.46434 
23 1 25.1943 3.37707 2.46424 
28 1 24.7561 4.74723 2.46424 
31 1 26.0682 1.40265 1.22783 
39 1 25.4366 2.7045 1.22779 
2 1 27.3362 17.3981 2.4646 
6 1 28.1369 17.3979 1.22818 
10 1 29.5324 17.3957 1.22901 
14 1 26.4405 16.1844 2.46434 
22 1 25.1944 13.639 2.46424 
25 1 24.7561 12.2688 2.46424 
30 1 26.0684 15.6133 1.22783 
38 1 25.4367 14.3115 1.22779 
46 1 30.2681 17.3948 2.4657 
50 1 31.6954 17.3969 2.46733 
54 1 32.4202 17.4016 1.23117 
ITEM: TIMESTEP
130
ITEM: NUMBER OF ATOMS
57
ITEM: BOX BOUNDS pp pp pp
-1.4024314941133130e-03 3.2809402431494121e+01
-3.8616152254538657e-03 1.7783861615225454e+01
-5.8421786431627084e-04 2.4735842178643157e+00
ITEM: ATOMS id type x y z 
13 1 7.06821 0.748328 0.00654228 
29 1 7.43536 1.27571 1.24399 
37 1 8.09775 2.63567 1.27023 
57 2 7.314 3.27386 1.80092 
21 1 8.12527 3.54176 0.0280587 
1 1 6.11976 17.3236 0.00180324 
5 1 5.32512 17.3482 1.23854 
9 1 3.92977 17.3988 1.23654 
16 1 7.02739 16.1229 -0.000490105 
32 1 7.43353 15.5721 1.23633 
40 1 8.13334 14.3048 1.23491 
45 1 3.19358 17.4153 2.47332 
49 1 1.76679 17.423 2.47093 
53 1 1.04143 17.4184 1.23351 
4 1 11.0196 8.55476 0.00291213 
8 1 11.8187 8.56588 1.23936 
12 1 13.2149 8.52339 1.23626 
18 1 10.1466 7.3238 0.00943047 
56 1 16.1027 8.49599 1.23222 
26 1 8.75286 4.85845 0.0154014 
34 1 9.7669 6.75916 1.24742 
42 1 9.05853 5.48344 1.25198 
48 1 13.9514 8.50623 2.47283 
52 1 15.3772 8.49419 2.46968 
19 1 10.0856 9.73925 -0.00041473 
24 1 8.38082 13.634 2.47184 
27 1 8.7831 12.2524 2.47168 
35 1 9.68768 10.2935 1.23636 
43 1 9.01845 11.5765 1.23475 
3 1 22.6177 8.50782 2.46498 
7 1 21.8171 8.50795 1.22792 
11 1 20.4212 8.50926 1.22838 
20 1 23.5124 7.29319 2.46486 
36 1 23.8836 6.72116 1.22778 
44 1 24.5147 5.41807 1.22777 
47 1 19.6844 8.50977 2.46558 
51 1 18.2585 8.50803 2.46674 
55 1 17.533 8.5046 1.22994 
17 1 23.5123 9.72258 2.46486 
33 1 23.8835 10.2946 1.22778 
41 1 24.5146 11.5977 1.22777 