ITEM: TIMESTEP
0
ITEM: NUMBER OF ATOMS
97
ITEM: BOX BOUNDS pp pp pp
0.0000000000000000e+00 1.6524999999999999e+01
0.0000000000000000e+00 1.6526000000000000e+01
0.0000000000000000e+00 1.6526000000000000e+01
ITEM: ATOMS id type x y z 
1 1 1.813 1.813 1.813 
10 1 5.821 5.821 5.821 
17 1 3.388 3.388 3.388 
26 1 4.246 4.246 4.246 
33 1 0.284 2 2 
41 1 2 0.284 2 
49 1 2 2 0.283 
58 1 7.351 5.634 5.634 
66 1 5.634 7.351 5.634 
74 1 5.634 5.634 7.351 
81 1 2.689 2.689 2.689 
90 1 4.945 4.945 4.945 
4 1 1.813 1.813 14.084 
11 1 5.821 5.821 10.076 
20 1 3.388 3.388 12.509 
27 1 4.246 4.246 11.651 
36 1 0.284 2 13.897 
46 1 2 0.284 13.897 
56 1 2 2 15.614 
59 1 7.351 5.634 10.263 
69 1 5.634 7.351 10.263 
79 1 5.634 5.634 8.546 
84 1 2.689 2.689 13.208 
91 1 4.945 4.945 10.952 
97 2 2.832 3.021 15.937 
6 1 1.813 14.084 1.813 
13 1 5.821 10.076 5.821 
22 1 3.388 12.509 3.388 
29 1 4.246 11.651 4.246 
38 1 0.284 13.897 2 
48 1 2 15.614 2 
52 1 2 13.897 0.283 
61 1 7.351 10.263 5.634 
71 1 5.634 8.546 5.634 
75 1 5.634 10.263 7.351 
86 1 2.689 13.208 2.689 
93 1 4.945 10.952 4.945 
7 1 1.813 14.084 14.084 
16 1 5.821 10.076 10.076 
23 1 3.388 12.509 12.509 
32 1 4.246 11.651 11.651 
39 1 0.284 13.897 13.897 
43 1 2 15.614 13.897 
53 1 2 13.897 15.614 
64 1 7.351 10.263 10.263 
68 1 5.634 8.547 10.263 
78 1 5.634 10.263 8.546 
87 1 2.689 13.208 13.208 
96 1 4.945 10.952 10.952 
8 1 14.084 1.813 1.813 
15 1 10.076 5.821 5.821 
24 1 12.509 3.388 3.388 
31 1 11.651 4.246 4.246 
40 1 15.613 2 2 
44 1 13.897 0.284 2 
54 1 13.897 2 0.283 
63 1 8.547 5.634 5.634 
67 1 10.263 7.351 5.634 
77 1 10.263 5.634 7.351 
88 1 13.208 2.689 2.689 
95 1 10.952 4.945 4.945 
5 1 14.084 1.813 14.084 
14 1 10.076 5.821 10.076 
21 1 12.509 3.388 12.509 
30 1 11.651 4.246 11.651 
37 1 15.613 2 13.897 
47 1 13.897 0.284 13.897 
51 1 13.897 2 15.614 
62 1 8.546 5.634 10.263 
72 1 10.263 7.351 10.263 
76 1 10.263 5.634 8.546 
85 1 13.208 2.689 13.208 
94 1 10.952 4.945 10.952 
3 1 14.084 14.084 1.813 
12 1 10.076 10.076 5.821 
19 1 12.509 12.509 3.388 
28 1 11.651 11.651 4.246 
35 1 15.613 13.897 2 
45 1 13.897 15.614 2 
55 1 13.897 13.897 0.283 
60 1 8.547 10.263 5.634 
70 1 10.263 8.547 5.634 
80 1 10.263 10.263 7.351 
83 1 13.208 13.208 2.689 
92 1 10.952 10.952 4.945 
2 1 14.084 14.084 14.084 
9 1 10.076 10.076 10.076 
18 1 12.509 12.509 12.509 
25 1 11.651 11.651 11.651 
34 1 15.613 13.897 13.897 
42 1 13.897 15.614 13.897 
50 1 13.897 13.897 15.614 
57 1 8.546 10.263 10.263 
65 1 10.263 8.546 10.263 
73 1 10.263 10.263 8.547 
82 1 13.208 13.208 13.208 
89 1 10.952 10.952 10.952 
ITEM: TIMESTEP
10
ITEM: NUMBER OF ATOMS
97
ITEM: BOX BOUNDS pp pp pp
0.0000000000000000e+00 1.6524999999999999e+01
0.0000000000000000e+00 1.6526000000000000e+01
0.0000000000000000e+00 1.6526000000000000e+01
ITEM: ATOMS id type x y z 
1 1 1.79729 1.7953 1.85481 
10 1 5.82259 5.82217 5.82222 
17 1 3.38683 3.38771 3.38577 
26 1 4.24525 4.24485 4.24495 
33 1 0.276907 1.99609 1.99889 
41 1 1.99634 0.276303 1.99831 
49 1 2.09525 2.10443 0.294565 
58 1 7.35056 5.63478 5.6348 
66 1 5.63478 7.35041 5.63477 
74 1 5.63486 5.6348 7.35054 
81 1 2.68537 2.68412 2.69263 
90 1 4.94344 4.94381 4.94424 
4 1 1.78518 1.77713 13.9978 
11 1 5.82017 5.82072 10.0769 
20 1 3.39536 3.39548 12.5098 
27 1 4.24656 4.24728 11.6513 
36 1 0.267798 1.99802 13.8779 
46 1 1.99822 0.266572 13.8775 
56 1 1.98333 1.9868 15.5955 
59 1 7.35028 5.63483 10.2622 
69 1 5.63482 7.35057 10.2622 
79 1 5.6347 5.63475 8.54705 
84 1 2.6862 2.68517 13.1882 
91 1 4.94729 4.94645 10.9503 
97 2 2.84812 3.03982 16.0342 
6 1 1.81312 14.083 1.81352 
13 1 5.82146 10.0763 5.82094 
22 1 3.38851 12.5088 3.38885 
29 1 4.24652 11.6509 4.24601 
38 1 0.283964 13.8971 1.99946 
48 1 2.00074 15.6095 1.99904 
52 1 1.99952 13.897 0.285057 
61 1 7.35109 10.2622 5.63472 
71 1 5.63468 8.54647 5.63465 
75 1 5.63475 10.2623 7.35085 
86 1 2.68924 13.2067 2.6888 
93 1 4.94503 10.9515 4.94566 
7 1 1.81302 14.0806 14.0838 
16 1 5.82042 10.0752 10.0757 
23 1 3.38882 12.5078 12.5075 
32 1 4.24563 11.6501 11.6503 
39 1 0.28176 13.8973 13.8971 
43 1 2.00316 15.5986 13.9035 
53 1 2.00005 13.8972 15.6151 
64 1 7.35065 10.2623 10.2622 
68 1 5.63485 8.54663 10.2621 
78 1 5.63474 10.2623 8.54639 
87 1 2.69073 13.207 13.2073 
96 1 4.94711 10.9522 10.9521 
8 1 14.0829 1.81296 1.81339 
15 1 10.0766 5.8217 5.82102 
24 1 12.5089 3.3886 3.38867 
31 1 11.6512 4.24677 4.24611 
40 1 15.6093 2.00089 1.99908 
44 1 13.8971 0.283757 1.99939 
54 1 13.897 1.9995 0.28497 
63 1 8.54671 5.63469 5.63466 
67 1 10.2623 7.3511 5.63474 
77 1 10.2624 5.63474 7.35094 
88 1 13.2066 2.68887 2.68903 
95 1 10.951 4.94469 4.94548 
5 1 14.08 1.8126 14.084 
14 1 10.0754 5.82096 10.076 
21 1 12.5077 3.38878 12.5077 
30 1 11.6502 4.24626 11.6508 
37 1 15.5997 2.00341 13.9036 
47 1 13.8973 0.281673 13.8972 
51 1 13.8971 1.99999 15.6149 
62 1 8.54623 5.63482 10.2622 
72 1 10.2622 7.35062 10.2622 
76 1 10.2622 5.63472 8.54646 
85 1 13.2075 2.69072 13.207 
94 1 10.9518 4.94588 10.9512 
3 1 14.0826 14.0836 1.8125 
12 1 10.0761 10.0761 5.82146 
19 1 12.5081 12.5087 3.38782 
28 1 11.6511 11.6511 4.24649 
35 1 15.6129 13.8975 1.99963 
45 1 13.8975 15.6137 1.99957 
55 1 13.8976 13.8976 0.282826 
60 1 8.54679 10.2623 5.63482 
70 1 10.2623 8.54683 5.63481 
80 1 10.2622 10.2623 7.35087 
83 1 13.2085 13.2075 2.68983 
92 1 10.9517 10.9517 4.94476 
2 1 14.083 14.0843 14.0841 
9 1 10.0765 10.0758 10.0755 
18 1 12.5085 12.5094 12.5088 
25 1 11.6518 11.6507 11.6506 
34 1 15.6115 13.8975 13.8976 
42 1 13.8975 15.6123 13.8977 
50 1 13.8976 13.8977 15.6135 
57 1 8.5463 10.2622 10.2623 
65 1 10.2623 8.54627 10.2623 
73 1 10.2622 10.2622 8.54674 
82 1 13.2084 13.2072 13.2081 
89 1 10.9507 10.9524 10.9529 
ITEM: TIMESTEP
20
ITEM: NUMBER OF ATOMS
97
ITEM: BOX BOUNDS pp pp pp
0.0000000000000000e+00 1.6524999999999999e+01
0.0000000000000000e+00 1.6526000000000000e+01
0.0000000000000000e+00 1.6526000000000000e+01
ITEM: ATOMS id type x y z 
1 1 1.79595 1.79301 1.85873 
10 1 5.82099 5.8206 5.82095 
17 1 3.38847 3.38878 3.38601 
26 1 4.24494 4.24471 4.24446 
33 1 0.279284 1.99471 2.00313 
41 1 1.99512 0.278294 2.00251 
49 1 2.09797 2.10807 0.295377 
58 1 7.35048 5.6351 5.63514 
66 1 5.63515 7.35028 5.63513 
74 1 5.63519 5.63513 7.34988 
81 1 2.68301 2.68216 2.70118 
90 1 4.94387 4.94437 4.94365 
4 1 1.77806 1.7723 13.9901 
11 1 5.82098 5.82078 10.0755 
20 1 3.39284 3.39325 12.5117 
27 1 4.24845 4.24811 11.6517 
36 1 0.270821 1.99601 13.8728 
46 1 1.99727 0.268111 13.8723 
56 1 1.99669 2.00164 15.5954 
59 1 7.35091 5.63475 10.2623 
69 1 5.63476 7.35098 10.2623 
79 1 5.63467 5.63472 8.54549 
84 1 2.68205 2.67984 13.1831 
91 1 4.94678 4.94802 10.951 
97 2 2.86264 3.05704 16.0421 
6 1 1.81326 14.0805 1.81441 
13 1 5.82141 10.0758 5.82107 
22 1 3.38952 12.5079 3.38926 
29 1 4.24671 11.6506 4.24664 
38 1 0.282036 13.8968 1.9998 
48 1 2.00151 15.6072 1.99705 
52 1 2.0001 13.8966 0.285147 
61 1 7.35089 10.2621 5.63492 
71 1 5.63494 8.54593 5.63489 
75 1 5.63495 10.2621 7.35046 
86 1 2.68958 13.2059 2.69017 
93 1 4.94568 10.9512 4.9456 
7 1 1.81305 14.0751 14.0857 
16 1 5.82159 10.076 10.0759 
23 1 3.39023 12.5073 12.5064 
32 1 4.24721 11.6498 11.6499 
39 1 0.280798 13.8961 13.8969 
43 1 2.00417 15.5963 13.9005 
53 1 2.0003 13.8957 15.6162 
64 1 7.35101 10.2621 10.2621 
68 1 5.63483 8.54641 10.2621 
78 1 5.63478 10.2622 8.54597 
87 1 2.69078 13.2046 13.2066 
96 1 4.94651 10.9509 10.9507 
8 1 14.0804 1.81313 1.81424 
15 1 10.0757 5.82127 5.82115 
24 1 12.508 3.38952 3.38922 
31 1 11.6505 4.24651 4.24659 
40 1 15.6074 2.00162 1.9972 
44 1 13.8968 0.281919 1.9997 
54 1 13.8965 2.00002 0.284901 
63 1 8.54618 5.63497 5.63492 
67 1 10.2621 7.35099 5.63493 
77 1 10.2622 5.63495 7.35059 
88 1 13.2059 2.6893 2.69017 
95 1 10.9515 4.94601 4.94548 
5 1 14.0752 1.8129 14.0857 
14 1 10.0757 5.82129 10.0759 
21 1 12.5075 3.39017 12.5066 
30 1 11.6498 4.24708 11.6501 
37 1 15.5985 2.00446 13.9008 
47 1 13.8962 0.280952 13.8971 
51 1 13.8957 2.00014 15.6158 
62 1 8.54635 5.6349 10.2621 
72 1 10.2621 7.35099 10.2622 
76 1 10.2621 5.63483 8.54611 
85 1 13.205 2.69069 13.2067 
94 1 10.9509 4.94608 10.9506 
3 1 14.0831 14.0835 1.8131 
12 1 10.076 10.0765 5.82149 
19 1 12.5087 12.5086 3.38829 
28 1 11.6507 11.6515 4.24643 
35 1 15.6118 13.8976 1.9994 
45 1 13.8975 15.6126 1.99936 
55 1 13.8976 13.8977 0.283682 
60 1 8.54654 10.2621 5.63497 
70 1 10.2621 8.54664 5.63497 
80 1 10.2621 10.2621 7.35087 
83 1 13.2076 13.2076 2.68914 
92 1 10.9523 10.951 4.94467 
2 1 14.0821 14.0827 14.0841 
9 1 10.0758 10.0761 10.0762 
18 1 12.5086 12.5084 12.5082 
25 1 11.6509 11.6509 11.6509 
34 1 15.6108 13.8974 13.8971 
42 1 13.8974 15.6118 13.8972 
50 1 13.8974 13.8976 15.6143 
57 1 8.54655 10.262 10.2621 
65 1 10.2621 8.54651 10.2621 
73 1 10.2621 10.2621 8.54653 
82 1 13.2071 13.2075 13.2077 
89 1 10.9516 10.9518 10.952 
ITEM: TIMESTEP
30
ITEM: NUMBER OF ATOMS
97
ITEM: BOX BOUNDS pp pp pp
0.0000000000000000e+00 1.6524999999999999e+01
0.0000000000000000e+00 1.6526000000000000e+01
0.0000000000000000e+00 1.6526000000000000e+01
ITEM: ATOMS id type x y z 
1 1 1.79165 1.78771 1.86818 
10 1 5.819 5.81854 5.81878 
17 1 3.38366 3.38428 3.39123 
26 1 4.24411 4.24585 4.23981 
33 1 0.281366 1.9904 2.01257 
41 1 1.99203 0.279296 2.01167 
49 1 2.12062 2.13871 0.289849 
58 1 7.34885 5.63531 5.63517 
66 1 5.63503 7.34891 5.63494 
74 1 5.63469 5.63471 7.34855 
81 1 2.6707 2.6681 2.72162 
90 1 4.94547 4.94241 4.93944 
4 1 1.7664 1.76017 13.9765 
11 1 5.82079 5.82071 10.0737 
20 1 3.38403 3.38362 12.5091 
27 1 4.24787 4.25065 11.6595 
36 1 0.265942 1.9875 13.8542 
46 1 1.9907 0.26145 13.8538 
56 1 2.057 2.07037 15.5865 
59 1 7.34946 5.6354 10.2613 
69 1 5.63483 7.35024 10.2615 
79 1 5.63541 5.63556 8.54449 
84 1 2.6644 2.661 13.1618 
91 1 4.94792 4.94428 10.9578 
97 2 2.90862 3.10985 16.0913 
6 1 1.81349 14.0777 1.81653 
13 1 5.8221 10.0744 5.82094 
22 1 3.39084 12.5051 3.39117 
29 1 4.24755 11.6488 4.24846 
38 1 0.2808 13.8949 2.00096 
48 1 1.99961 15.6065 1.99587 
52 1 2.00175 13.8928 0.287919 
61 1 7.35137 10.2614 5.63539 
71 1 5.63565 8.54437 5.63552 
75 1 5.6348 10.2617 7.34949 
86 1 2.69107 13.2046 2.69271 
93 1 4.94934 10.9505 4.94581 
7 1 1.81231 14.0636 14.0881 
16 1 5.82261 10.0744 10.0744 
23 1 3.39308 12.5054 12.5034 
32 1 4.25024 11.6499 11.6467 
39 1 0.279316 13.8908 13.8974 
43 1 2.00442 15.5891 13.8881 
53 1 2.00141 13.8889 15.6182 
64 1 7.35218 10.2623 10.2619 
68 1 5.63529 8.54582 10.262 
78 1 5.63518 10.2625 8.54461 
87 1 2.69156 13.1971 13.208 
96 1 4.94692 10.946 10.9496 
8 1 14.0786 1.81367 1.81549 
15 1 10.0742 5.82209 5.82058 
24 1 12.5055 3.3904 3.39075 
31 1 11.6494 4.2479 4.24796 
40 1 15.6079 1.99916 1.99617 
44 1 13.8951 0.280982 2.00063 
54 1 13.8932 2.00105 0.287645 
63 1 8.54437 5.63584 5.63572 
67 1 10.2615 7.35099 5.63535 
77 1 10.2618 5.63508 7.34969 
88 1 13.2053 2.69147 2.69188 
95 1 10.9499 4.94728 4.94647 
5 1 14.0665 1.81284 14.088 
14 1 10.0746 5.82283 10.0748 
21 1 12.5057 3.39201 12.5038 
30 1 11.6496 4.24921 11.6472 
37 1 15.5928 2.00351 13.8888 
47 1 13.8917 0.280319 13.8977 
51 1 13.8897 2.00109 15.6178 
62 1 8.54509 5.63503 10.262 
72 1 10.262 7.3515 10.2617 
76 1 10.2622 5.63507 8.54487 
85 1 13.1981 2.6915 13.2086 
94 1 10.9479 4.94785 10.95 
3 1 14.0816 14.0822 1.81362 
12 1 10.0761 10.0766 5.82102 
19 1 12.5082 12.5076 3.38915 
28 1 11.6508 11.6496 4.24575 
35 1 15.6104 13.8968 2 
45 1 13.8966 15.6115 1.99978 
55 1 13.8971 13.8974 0.284222 
60 1 8.54669 10.2618 5.63532 
70 1 10.262 8.54632 5.63521 
80 1 10.2617 10.2616 7.35029 
83 1 13.2057 13.2073 2.68918 
92 1 10.9516 10.9533 4.94741 
2 1 14.08 14.0815 14.0837 
9 1 10.0772 10.0765 10.0755 
18 1 12.5074 12.5074 12.5076 
25 1 11.6502 11.6502 11.651 
34 1 15.6088 13.8962 13.896 
42 1 13.8959 15.6107 13.8964 
50 1 13.8964 13.8969 15.6149 
57 1 8.54742 10.2622 10.2624 
65 1 10.2621 8.54683 10.2624 
73 1 10.2617 10.2618 8.54578 
82 1 13.2057 13.2063 13.2079 
89 1 10.9523 10.9521 10.9494 
ITEM: TIMESTEP
40
ITEM: NUMBER OF ATOMS
97
ITEM: BOX BOUNDS pp pp pp
0.0000000000000000e+00 1.6524999999999999e+01
0.0000000000000000e+00 1.6526000000000000e+01
0.0000000000000000e+00 1.6526000000000000e+01
ITEM: ATOMS id type x y z 
1 1 1.79346 1.78944 1.85336 
10 1 5.81689 5.81667 5.81834 
17 1 3.36971 3.36967 3.40597 
26 1 4.24348 4.24019 4.23549 
33 1 0.283336 1.98619 2.00705 
41 1 1.98886 0.280375 2.00518 
49 1 2.13517 2.16075 0.27918 
58 1 7.34633 5.63416 5.63464 
66 1 5.63445 7.3451 5.63463 
74 1 5.63484 5.63474 7.35024 
81 1 2.66766 2.66466 2.71303 
90 1 4.93726 4.94243 4.9358 
4 1 1.77231 1.76385 13.9982 
11 1 5.81531 5.81483 10.08 
20 1 3.37314 3.37241 12.4888 
27 1 4.24755 4.24212 11.6657 
36 1 0.261985 1.97924 13.8531 
46 1 1.98374 0.256289 13.8535 
56 1 2.09869 2.12013 15.5703 
59 1 7.34568 5.635 10.2606 
69 1 5.63564 7.34342 10.2606 
79 1 5.63533 5.63529 8.54615 
84 1 2.65893 2.65641 13.1603 
91 1 4.93702 4.94482 10.9654 
97 2 2.94177 3.14619 16.1341 
6 1 1.81226 14.0814 1.81605 
13 1 5.8227 10.0717 5.82028 
22 1 3.39008 12.5078 3.39043 
29 1 4.25079 11.6508 4.24656 
38 1 0.282638 13.8951 2.00119 
48 1 1.99467 15.6081 2.00214 
52 1 2.00141 13.8895 0.288376 
61 1 7.35153 10.2613 5.63427 
71 1 5.63602 8.54147 5.635 
75 1 5.63508 10.2627 7.35021 
86 1 2.68728 13.2033 2.69186 
93 1 4.94377 10.9472 4.94708 
7 1 1.81244 14.0646 14.0879 
16 1 5.82341 10.0707 10.0743 
23 1 3.39136 12.5009 12.5074 
32 1 4.24825 11.6453 11.6475 
39 1 0.280679 13.8875 13.8987 
43 1 1.99604 15.5847 13.8799 
53 1 2.00143 13.8848 15.6198 
64 1 7.35179 10.2611 10.2621 
68 1 5.63578 8.53898 10.2606 
78 1 5.63482 10.2611 8.54605 
87 1 2.69138 13.1996 13.2057 
96 1 4.95178 10.9532 10.9462 
8 1 14.0832 1.81216 1.81706 
15 1 10.0722 5.82208 5.82086 
24 1 12.5086 3.39058 3.38958 
31 1 11.6488 4.24859 4.24583 
40 1 15.6102 1.99355 2.00262 
44 1 13.8959 0.284082 2.00051 
54 1 13.8906 2.00127 0.287631 
63 1 8.54274 5.63614 5.63507 
67 1 10.2614 7.35214 5.63431 
77 1 10.2619 5.63505 7.35016 
88 1 13.2037 2.6871 2.69122 
95 1 10.9509 4.94498 4.94862 
5 1 14.0684 1.81364 14.0875 
14 1 10.0708 5.82141 10.0741 
21 1 12.5017 3.39136 12.5083 
30 1 11.6472 4.24923 11.6484 
37 1 15.5896 1.99434 13.8798 
47 1 13.889 0.281265 13.8992 
51 1 13.8867 2.00114 15.6189 
62 1 8.54116 5.63645 10.2608 
72 1 10.2611 7.3519 10.2625 
76 1 10.2611 5.63547 8.54596 
85 1 13.2 2.69005 13.2058 
94 1 10.9524 4.94861 10.9457 
3 1 14.082 14.0849 1.81358 
12 1 10.0774 10.0764 5.82108 
19 1 12.5058 12.5096 3.38653 
28 1 11.6504 11.6544 4.2483 
35 1 15.6121 13.8957 1.99987 
45 1 13.895 15.6144 1.99976 
55 1 13.8958 13.8968 0.283289 
60 1 8.54722 10.2631 5.63457 
70 1 10.2624 8.54786 5.63497 
80 1 10.2623 10.263 7.3507 
83 1 13.2118 13.2053 2.69091 
92 1 10.954 10.9473 4.94191 
2 1 14.082 14.0825 14.0846 
9 1 10.0764 10.0767 10.0753 
18 1 12.509 12.506 12.5103 
25 1 11.6525 11.6515 11.6484 
34 1 15.6108 13.893 13.8976 
42 1 13.8932 15.6123 13.898 
50 1 13.8961 13.8967 15.6134 
57 1 8.54738 10.2636 10.2621 
65 1 10.2638 8.54731 10.2619 
73 1 10.2631 10.2623 8.54615 
82 1 13.204 13.2118 13.2066 
89 1 10.9504 10.9506 10.9544 
ITEM: TIMESTEP
50
ITEM: NUMBER OF ATOMS
97
ITEM: BOX BOUNDS pp pp pp
0.0000000000000000e+00 1.6524999999999999e+01
0.0000000000000000e+00 1.6526000000000000e+01
0.0000000000000000e+00 1.6526000000000000e+01
ITEM: ATOMS id type x y z 
1 1 1.79343 1.7893 1.84713 
10 1 5.81504 5.81467 5.8163 
17 1 3.36779 3.36667 3.4018 
26 1 4.23688 4.23835 4.24089 
33 1 0.284674 1.98299 2.00317 
41 1 1.98662 0.28208 2.0006 
49 1 2.14859 2.17762 0.280463 
58 1 7.34507 5.63442 5.6351 
66 1 5.63421 7.3443 5.63482 
74 1 5.63469 5.63464 7.35151 
81 1 2.66217 2.66056 2.72057 
90 1 4.93909 4.93543 4.93756 
4 1 1.77259 1.76534 14.0015 
11 1 5.81575 5.81606 10.0789 
20 1 3.37133 3.36874 12.4858 
27 1 4.23887 4.24104 11.6609 
36 1 0.26311 1.97461 13.8568 
46 1 1.98004 0.258254 13.8582 
56 1 2.12733 2.15405 15.5723 
59 1 7.34454 5.63412 10.2608 
69 1 5.63391 7.34368 10.2608 
79 1 5.63423 5.63415 8.54499 
84 1 2.65319 2.65033 13.1535 
91 1 4.94159 4.93781 10.9625 
97 2 2.96338 3.16965 16.1504 
6 1 1.81392 14.081 1.8161 
13 1 5.82359 10.0714 5.81905 
22 1 3.38964 12.5062 3.39139 
29 1 4.24842 11.6478 4.24813 
38 1 0.282849 13.8947 2.00128 
48 1 1.99319 15.6086 1.99753 
52 1 2.00055 13.8893 0.288268 
61 1 7.35132 10.2598 5.63543 
71 1 5.63644 8.53924 5.63606 
75 1 5.63506 10.2599 7.34957 
86 1 2.69041 13.2054 2.69374 
93 1 4.94822 10.9485 4.94495 
7 1 1.81146 14.0615 14.0875 
16 1 5.82292 10.0698 10.0733 
23 1 3.39152 12.5007 12.5052 
32 1 4.25129 11.6473 11.6458 
39 1 0.280636 13.8852 13.8996 
43 1 1.99328 15.5829 13.8814 
53 1 2.00115 13.8846 15.6191 
64 1 7.35258 10.2605 10.2611 
68 1 5.63724 8.53787 10.2596 
78 1 5.63621 10.2601 8.54471 
87 1 2.69184 13.1938 13.2084 
96 1 4.94892 10.9463 10.948 
8 1 14.0833 1.81288 1.81691 
15 1 10.0696 5.82139 5.81893 
24 1 12.5068 3.38863 3.39063 
31 1 11.6482 4.24848 4.24714 
40 1 15.6111 1.99175 1.99865 
44 1 13.8952 0.283392 2.00043 
54 1 13.8913 2.0007 0.287764 
63 1 8.53984 5.63675 5.63627 
67 1 10.2603 7.35146 5.63519 
77 1 10.26 5.6356 7.34963 
88 1 13.2066 2.69146 2.69181 
95 1 10.9497 4.94603 4.94715 
5 1 14.0665 1.81402 14.0879 
14 1 10.0684 5.82113 10.0736 
21 1 12.5022 3.3919 12.5061 
30 1 11.6476 4.24923 11.6454 
37 1 15.5889 1.9905 13.8806 
47 1 13.8871 0.281763 13.8997 
51 1 13.8873 2.00076 15.6183 
62 1 8.53901 5.63728 10.2593 
72 1 10.261 7.3521 10.2611 
76 1 10.26 5.63625 8.54507 
85 1 13.195 2.69146 13.2094 
94 1 10.9474 4.94911 10.9489 
3 1 14.0802 14.0843 1.81315 
12 1 10.0758 10.0767 5.82157 
19 1 12.5074 12.5088 3.38975 
28 1 11.6503 11.6506 4.24586 
35 1 15.6133 13.8959 2.00016 
45 1 13.8959 15.6148 1.99993 
55 1 13.8965 13.8969 0.282443 
60 1 8.54712 10.2616 5.63488 
70 1 10.2616 8.54716 5.63503 
80 1 10.2623 10.2619 7.35011 
83 1 13.208 13.2064 2.68882 
92 1 10.9524 10.9509 4.94566 
2 1 14.0815 14.0814 14.0854 
9 1 10.0779 10.0769 10.0737 
18 1 12.5076 12.5078 12.5094 
25 1 11.6508 11.6501 11.6512 
34 1 15.6101 13.8923 13.8985 
42 1 13.8922 15.6121 13.8989 
50 1 13.8957 13.8973 15.6137 
57 1 8.54787 10.2622 10.2624 
65 1 10.262 8.54745 10.2623 
73 1 10.262 10.2622 8.54561 
82 1 13.2058 13.2096 13.2065 
89 1 10.9529 10.9519 10.9507 
ITEM: TIMESTEP
55
ITEM: NUMBER OF ATOMS
97
ITEM: BOX BOUNDS pp pp pp
0.0000000000000000e+00 1.6524999999999999e+01
0.0000000000000000e+00 1.6526000000000000e+01
0.0000000000000000e+00 1.6526000000000000e+01
ITEM: ATOMS id type x y z 
1 1 1.79352 1.78957 1.84547 
10 1 5.81476 5.81318 5.81816 
17 1 3.36759 3.36741 3.40529 
26 1 4.23591 4.2351 4.24117 
33 1 0.28463 1.98246 2.00146 
41 1 1.98614 0.281441 1.99875 
49 1 2.15329 2.18347 0.278272 
58 1 7.34404 5.63422 5.63512 
66 1 5.63387 7.34396 5.63479 
74 1 5.63456 5.63443 7.3496 
81 1 2.66218 2.66003 2.72017 
90 1 4.93676 4.93547 4.93731 
4 1 1.77261 1.76537 14.0027 
11 1 5.81438 5.81292 10.0788 
20 1 3.36545 3.36373 12.4869 
27 1 4.23974 4.2396 11.6587 
36 1 0.265846 1.97243 13.8592 
46 1 1.97817 0.259811 13.861 
56 1 2.13339 2.16135 15.5684 
59 1 7.34379 5.63408 10.2609 
69 1 5.63372 7.34371 10.2612 
79 1 5.63414 5.63413 8.54538 
84 1 2.65181 2.64859 13.153 
91 1 4.939 4.93732 10.9622 
97 2 2.97154 3.17857 16.1555 
6 1 1.81364 14.0808 1.81677 
13 1 5.82254 10.0701 5.82002 
22 1 3.38974 12.5062 3.39223 
29 1 4.24836 11.648 4.24815 
38 1 0.281477 13.8948 2.00136 
48 1 1.99299 15.6085 1.99626 
52 1 2.00081 13.8893 0.288096 
61 1 7.35132 10.2595 5.63514 
71 1 5.63674 8.53934 5.63611 
75 1 5.63562 10.2596 7.34895 
86 1 2.6906 13.2053 2.69333 
93 1 4.94847 10.9477 4.94452 
7 1 1.81241 14.0611 14.0883 
16 1 5.82366 10.0691 10.0733 
23 1 3.39281 12.5 12.5057 
32 1 4.25104 11.6469 11.6455 
39 1 0.280452 13.8845 13.8996 
43 1 1.99207 15.589 13.8822 
53 1 2.00071 13.8842 15.6186 
64 1 7.35244 10.2599 10.261 
68 1 5.63711 8.53919 10.2592 
78 1 5.63605 10.2594 8.54412 
87 1 2.69051 13.1934 13.2073 
96 1 4.9493 10.9456 10.9481 
8 1 14.0829 1.81363 1.81647 
15 1 10.0702 5.82207 5.82023 
24 1 12.507 3.38968 3.3911 
31 1 11.6486 4.24831 4.24731 
40 1 15.6108 1.99118 1.99784 
44 1 13.8954 0.282459 2.00076 
54 1 13.8916 2.00062 0.287977 
63 1 8.53959 5.63678 5.63621 
67 1 10.2597 7.3509 5.63504 
77 1 10.2593 5.636 7.34886 
88 1 13.2061 2.69105 2.69208 
95 1 10.9484 4.9455 4.94668 
5 1 14.0653 1.81329 14.0878 
14 1 10.0691 5.82275 10.0737 
21 1 12.501 3.39203 12.5062 
30 1 11.6472 4.24947 11.6455 
37 1 15.594 1.98929 13.8811 
47 1 13.8865 0.281458 13.9 
51 1 13.8872 2.00076 15.6186 
62 1 8.53939 5.63697 10.2592 
72 1 10.2599 7.35133 10.2611 
76 1 10.2593 5.63621 8.54411 
85 1 13.1957 2.6918 13.2087 
94 1 10.9467 4.94907 10.9486 
3 1 14.0821 14.0841 1.81267 
12 1 10.0764 10.0765 5.82096 
19 1 12.5079 12.5088 3.38807 
28 1 11.6507 11.651 4.24622 
35 1 15.6113 13.8964 1.99967 
45 1 13.8959 15.6133 1.99946 
55 1 13.8964 13.8975 0.284321 
60 1 8.54678 10.2616 5.63505 
70 1 10.2616 8.54639 5.63524 
80 1 10.2621 10.2621 7.3499 
83 1 13.2082 13.2074 2.68987 
92 1 10.9525 10.9511 4.94488 
2 1 14.0815 14.0826 14.084 
9 1 10.0775 10.0767 10.075 
18 1 12.5077 12.5077 12.509 
25 1 11.6511 11.6501 11.6513 
34 1 15.6099 13.8918 13.8988 
42 1 13.892 15.612 13.8993 
50 1 13.8957 13.8969 15.6149 
57 1 8.54766 10.2622 10.262 
65 1 10.2624 8.54664 10.2618 
73 1 10.2624 10.2622 8.54559 
82 1 13.2051 13.2095 13.2073 
89 1 10.9526 10.9523 10.9504 
ITEM: TIMESTEP
60
ITEM: NUMBER OF ATOMS
97
ITEM: BOX BOUNDS pp pp pp
0.0000000000000000e+00 1.6524999999999999e+01
0.0000000000000000e+00 1.6526000000000000e+01
0.0000000000000000e+00 1.6526000000000000e+01
ITEM: ATOMS id type x y z 
1 1 1.79438 1.79022 1.84336 
10 1 5.81364 5.81363 5.81728 
17 1 3.36675 3.36612 3.40587 
26 1 4.23578 4.2353 4.24191 
33 1 0.285522 1.98197 2.00048 
41 1 1.98561 0.282271 1.99759 
49 1 2.1564 2.18743 0.279291 
58 1 7.34331 5.63396 5.63516 
66 1 5.63391 7.34259 5.63501 
74 1 5.63443 5.63426 7.34983 
81 1 2.66095 2.65881 2.7193 
90 1 4.93622 4.93462 4.93906 
4 1 1.77376 1.76677 14.0054 
11 1 5.81366 5.81378 10.078 
20 1 3.36648 3.36481 12.4834 
27 1 4.23765 4.23748 11.6594 
36 1 0.264468 1.9723 13.8602 
46 1 1.97816 0.258876 13.8623 
56 1 2.13857 2.16746 15.5697 
59 1 7.34296 5.63382 10.2609 
69 1 5.63377 7.34239 10.2611 
79 1 5.63421 5.6341 8.54609 
84 1 2.65191 2.64846 13.1519 
91 1 4.93882 4.93678 10.9605 
97 2 2.9746 3.18167 16.1579 
6 1 1.81263 14.0802 1.8169 
13 1 5.82253 10.0694 5.81943 
22 1 3.38983 12.5066 3.39217 
29 1 4.24883 11.6476 4.24719 
38 1 0.28266 13.895 2.00116 
48 1 1.99301 15.6091 1.99528 
52 1 2.00076 13.8893 0.287734 
61 1 7.35127 10.2593 5.635 
71 1 5.63672 8.53869 5.63599 
75 1 5.63573 10.2593 7.34873 
86 1 2.69021 13.2049 2.69318 
93 1 4.94757 10.948 4.94627 
7 1 1.81197 14.0632 14.0867 
16 1 5.82372 10.0687 10.0735 
23 1 3.39209 12.5007 12.5048 
32 1 4.25118 11.6461 11.6464 
39 1 0.280631 13.8843 13.9 
43 1 1.99111 15.5854 13.8834 
53 1 2.00059 13.884 15.6186 
64 1 7.35237 10.2596 10.261 
68 1 5.63705 8.53833 10.2592 
78 1 5.6362 10.259 8.54434 
87 1 2.69109 13.1919 13.2094 
96 1 4.94909 10.9463 10.9467 
8 1 14.0823 1.81354 1.81638 
15 1 10.0698 5.82128 5.82023 
24 1 12.5073 3.39046 3.39065 
31 1 11.6483 4.2474 4.24812 
40 1 15.6115 1.99107 1.99711 
44 1 13.8956 0.283329 2.00071 
54 1 13.8917 2.00067 0.287173 
63 1 8.53939 5.63678 5.63614 
67 1 10.2595 7.35077 5.63502 
77 1 10.2591 5.636 7.34898 
88 1 13.2058 2.68976 2.69279 
95 1 10.9483 4.94715 4.94562 
5 1 14.0675 1.81359 14.0875 
14 1 10.0693 5.82302 10.0737 
21 1 12.5018 3.39244 12.5068 
30 1 11.6468 4.25005 11.6467 
37 1 15.5903 1.98814 13.8821 
47 1 13.8863 0.281959 13.9004 
51 1 13.8872 2.00061 15.6179 
62 1 8.53888 5.63692 10.2592 
72 1 10.2597 7.35152 10.2611 
76 1 10.2589 5.63633 8.54463 
85 1 13.1945 2.68989 13.2083 
94 1 10.947 4.94792 10.9472 
3 1 14.0825 14.0836 1.81382 
12 1 10.0767 10.0759 5.82061 
19 1 12.5085 12.5086 3.38873 
28 1 11.6513 11.6508 4.2459 
35 1 15.612 13.8963 1.99978 
45 1 13.8957 15.6136 1.99956 
55 1 13.8962 13.8974 0.283458 
60 1 8.54689 10.2615 5.63506 
70 1 10.2615 8.54639 5.63521 
80 1 10.2623 10.2622 7.35013 
83 1 13.207 13.2076 2.68902 
92 1 10.9517 10.9519 4.94485 
2 1 14.0809 14.0834 14.0845 
9 1 10.0774 10.0768 10.075 
18 1 12.5074 12.5088 12.5088 
25 1 11.6512 11.6507 11.6507 
34 1 15.6104 13.8915 13.8989 
42 1 13.8919 15.6127 13.8994 
50 1 13.8959 13.8971 15.6137 
57 1 8.54792 10.2621 10.2618 
65 1 10.2623 8.54705 10.2617 
73 1 10.2625 10.2623 8.54564 
82 1 13.206 13.2081 13.2082 
89 1 10.9526 10.9512 10.9514 
ITEM: TIMESTEP
70
ITEM: NUMBER OF ATOMS
97
ITEM: BOX BOUNDS pp pp pp
0.0000000000000000e+00 1.6524999999999999e+01
0.0000000000000000e+00 1.6526000000000000e+01
0.0000000000000000e+00 1.6526000000000000e+01
ITEM: ATOMS id type x y z 
1 1 1.79789 1.79434 1.82724 
10 1 5.80884 5.80751 5.81889 
17 1 3.35901 3.35658 3.41323 
26 1 4.22569 4.2249 4.25076 
33 1 0.287838 1.97906 1.98573 
41 1 1.98345 0.285127 1.98054 
49 1 2.18862 2.22732 0.27881 
58 1 7.33863 5.63172 5.63495 
66 1 5.63178 7.33829 5.63442 
74 1 5.6328 5.63256 7.34942 
81 1 2.65687 2.65328 2.71847 
90 1 4.92729 4.92606 4.94579 
4 1 1.78138 1.77562 14.0271 
11 1 5.80956 5.80785 10.0778 
20 1 3.35427 3.35249 12.4689 
27 1 4.22772 4.22598 11.6465 
36 1 0.270603 1.96591 13.8783 
46 1 1.97218 0.264934 13.883 
56 1 2.18628 2.22463 15.5684 
59 1 7.3392 5.63186 10.2607 
69 1 5.63146 7.33933 10.2611 
79 1 5.63285 5.63265 8.54601 
84 1 2.64527 2.63907 13.1473 
91 1 4.93069 4.92799 10.9511 
97 2 3.01918 3.22846 16.1791 
6 1 1.81284 14.0805 1.81455 
13 1 5.81945 10.0641 5.82032 
22 1 3.38937 12.5054 3.39159 
29 1 4.24466 11.6459 4.25107 
38 1 0.282528 13.8952 2.00077 
48 1 1.98992 15.6115 1.98491 
52 1 1.99922 13.888 0.286891 
61 1 7.34957 10.2563 5.63492 
71 1 5.63632 8.53468 5.63584 
75 1 5.63672 10.2546 7.34767 
86 1 2.69212 13.2073 2.69375 
93 1 4.95364 10.9484 4.94138 
7 1 1.81182 14.0622 14.0887 
16 1 5.82319 10.0651 10.0717 
23 1 3.39163 12.4937 12.5102 
32 1 4.24871 11.6433 11.644 
39 1 0.280954 13.8817 13.9011 
43 1 1.98327 15.5905 13.8942 
53 1 1.99937 13.8835 15.6172 
64 1 7.35155 10.2568 10.2591 
68 1 5.63701 8.53523 10.2582 
78 1 5.63773 10.2548 8.54342 
87 1 2.6914 13.1972 13.2032 
96 1 4.95222 10.9435 10.9502 
8 1 14.0825 1.81243 1.81526 
15 1 10.065 5.82158 5.818 
24 1 12.5054 3.38791 3.3915 
31 1 11.6467 4.24978 4.24504 
40 1 15.6137 1.98677 1.98876 
44 1 13.8956 0.282851 2.00052 
54 1 13.8918 2.00004 0.286806 
63 1 8.5351 5.6362 5.63593 
67 1 10.2571 7.35085 5.63477 
77 1 10.2549 5.63669 7.34678 
88 1 13.2112 2.69448 2.69362 
95 1 10.9477 4.94265 4.95029 
5 1 14.067 1.81183 14.0858 
14 1 10.0652 5.82161 10.0731 
21 1 12.4965 3.38827 12.5066 
30 1 11.6439 4.24904 11.6466 
37 1 15.5954 1.97926 13.8904 
47 1 13.8839 0.281776 13.9013 
51 1 13.8878 2.0005 15.6167 
62 1 8.53533 5.63656 10.2583 
72 1 10.2574 7.34988 10.2595 
76 1 10.255 5.63696 8.54271 
85 1 13.1996 2.69511 13.2073 
94 1 10.9441 4.9508 10.9506 
3 1 14.0823 14.085 1.81268 
12 1 10.0757 10.0766 5.82104 
19 1 12.5078 12.51 3.38773 
28 1 11.649 11.6539 4.24611 
35 1 15.6119 13.8969 1.99991 
45 1 13.8967 15.6132 1.99952 
55 1 13.8968 13.8982 0.284611 
60 1 8.54517 10.2602 5.63445 
70 1 10.2598 8.54667 5.63508 
80 1 10.2624 10.2621 7.35025 
83 1 13.2081 13.2073 2.68844 
92 1 10.9576 10.9462 4.94414 
2 1 14.0817 14.0818 14.0862 
9 1 10.0763 10.0762 10.0768 
18 1 12.5084 12.5064 12.5113 
25 1 11.6501 11.6491 11.6546 
34 1 15.6105 13.8894 13.9007 
42 1 13.8894 15.612 13.9012 
50 1 13.896 13.8982 15.6152 
57 1 8.54752 10.2603 10.2613 
65 1 10.2613 8.54581 10.2616 
73 1 10.2628 10.2619 8.54586 
82 1 13.2053 13.211 13.207 
89 1 10.9549 10.9581 10.9435 
ITEM: TIMESTEP
80
ITEM: NUMBER OF ATOMS
97
ITEM: BOX BOUNDS pp pp pp
0.0000000000000000e+00 1.6524999999999999e+01
0.0000000000000000e+00 1.6526000000000000e+01
0.0000000000000000e+00 1.6526000000000000e+01
ITEM: ATOMS id type x y z 
1 1 1.7986 1.79539 1.82485 
10 1 5.80848 5.80779 5.81714 
17 1 3.3578 3.35548 3.41451 
26 1 4.22433 4.22323 4.25242 
33 1 0.288371 1.97878 1.98316 
41 1 1.98324 0.285437 1.97766 
49 1 2.19437 2.23404 0.278935 
58 1 7.33864 5.63101 5.63492 
66 1 5.63118 7.33774 5.63459 
74 1 5.63207 5.63177 7.34965 
81 1 2.65653 2.65253 2.71892 
90 1 4.92637 4.92522 4.9464 
4 1 1.7818 1.776 14.0282 
11 1 5.80899 5.80877 10.0786 
20 1 3.35292 3.34983 12.4671 
27 1 4.2258 4.22432 11.6432 
36 1 0.271313 1.9656 13.8819 
46 1 1.97188 0.265972 13.8872 
56 1 2.18859 2.22724 15.5689 
59 1 7.33916 5.6312 10.2607 
69 1 5.63119 7.3383 10.261 
79 1 5.63226 5.63196 8.5463 
84 1 2.64496 2.63925 13.147 
91 1 4.92898 4.92643 10.9511 
97 2 3.02411 3.2334 16.181 
6 1 1.81338 14.082 1.81552 
13 1 5.8225 10.0649 5.81819 
22 1 3.38941 12.507 3.3926 
29 1 4.24868 11.6472 4.2481 
38 1 0.283342 13.8955 2.00074 
48 1 1.99001 15.6118 1.98229 
52 1 1.99944 13.8879 0.286485 
61 1 7.35046 10.2556 5.63485 
71 1 5.63587 8.53368 5.63553 
75 1 5.63666 10.254 7.34774 
86 1 2.69033 13.2054 2.69328 
93 1 4.94771 10.9457 4.9446 
7 1 1.81172 14.0655 14.0859 
16 1 5.82396 10.0651 10.0728 
23 1 3.39094 12.4974 12.5059 
32 1 4.25076 11.6423 11.6471 
39 1 0.281146 13.8819 13.901 
43 1 1.98303 15.5935 13.8973 
53 1 1.99921 13.883 15.6168 
64 1 7.35203 10.2561 10.2594 
68 1 5.63668 8.53453 10.2583 
78 1 5.63759 10.254 8.54344 
87 1 2.69173 13.1926 13.2085 
96 1 4.94873 10.9426 10.9477 
8 1 14.0842 1.81377 1.81526 
15 1 10.0657 5.82135 5.81935 
24 1 12.5082 3.39076 3.39084 
31 1 11.647 4.247 4.24849 
40 1 15.6137 1.98681 1.98643 
44 1 13.896 0.283854 2.00045 
54 1 13.892 2.00005 0.286038 
63 1 8.53467 5.636 5.63571 
67 1 10.2561 7.35 5.63474 
77 1 10.254 5.6369 7.34789 
88 1 13.2079 2.69116 2.69352 
95 1 10.9458 4.94562 4.94544 
5 1 14.0697 1.81285 14.0864 
14 1 10.0657 5.82257 10.0724 
21 1 12.4996 3.39157 12.5072 
30 1 11.643 4.25012 11.6481 
37 1 15.5977 1.97912 13.8932 
47 1 13.8841 0.282288 13.9014 
51 1 13.8878 2.0001 15.6166 
62 1 8.53536 5.63631 10.2582 
72 1 10.2567 7.35083 10.2596 
76 1 10.2539 5.63716 8.54356 
85 1 13.1959 2.68986 13.2062 
94 1 10.9433 4.94781 10.9486 
3 1 14.0835 14.0837 1.81376 
12 1 10.0763 10.0752 5.82086 