ITEM: TIMESTEP
0
ITEM: NUMBER OF ATOMS
97
ITEM: BOX BOUNDS pp pp pp
0.0000000000000000e+00 1.6524999999999999e+01
0.0000000000000000e+00 1.6526000000000000e+01
0.0000000000000000e+00 1.6526000000000000e+01
ITEM: ATOMS id type x y z 
1 1 1.813 1.813 1.813 
10 1 5.821 5.821 5.821 
17 1 3.388 3.388 3.388 
26 1 4.246 4.246 4.246 
33 1 0.284 2 2 
41 1 2 0.284 2 
49 1 2 2 0.283 
58 1 7.351 5.634 5.634 
66 1 5.634 7.351 5.634 
74 1 5.634 5.634 7.351 
81 1 2.689 2.689 2.689 
90 1 4.945 4.945 4.945 
4 1 1.813 1.813 14.084 
11 1 5.821 5.821 10.076 
20 1 3.388 3.388 12.509 
27 1 4.246 4.246 11.651 
36 1 0.284 2 13.897 
46 1 2 0.284 13.897 
56 1 2 2 15.614 
59 1 7.351 5.634 10.263 
69 1 5.634 7.351 10.263 
79 1 5.634 5.634 8.546 
84 1 2.689 2.689 13.208 
91 1 4.945 4.945 10.952 
97 2 3.734 4.018 13.663 
6 1 1.813 14.084 1.813 
13 1 5.821 10.076 5.821 
22 1 3.388 12.509 3.388 
29 1 4.246 11.651 4.246 
38 1 0.284 13.897 2 
48 1 2 15.614 2 
52 1 2 13.897 0.283 
61 1 7.351 10.263 5.634 
71 1 5.634 8.546 5.634 
75 1 5.634 10.263 7.351 
86 1 2.689 13.208 2.689 
93 1 4.945 10.952 4.945 
7 1 1.813 14.084 14.084 
16 1 5.821 10.076 10.076 
23 1 3.388 12.509 12.509 
32 1 4.246 11.651 11.651 
39 1 0.284 13.897 13.897 
43 1 2 15.614 13.897 
53 1 2 13.897 15.614 
64 1 7.351 10.263 10.263 
68 1 5.634 8.547 10.263 
78 1 5.634 10.263 8.546 
87 1 2.689 13.208 13.208 
96 1 4.945 10.952 10.952 
8 1 14.084 1.813 1.813 
15 1 10.076 5.821 5.821 
24 1 12.509 3.388 3.388 
31 1 11.651 4.246 4.246 
40 1 15.613 2 2 
44 1 13.897 0.284 2 
54 1 13.897 2 0.283 
63 1 8.547 5.634 5.634 
67 1 10.263 7.351 5.634 
77 1 10.263 5.634 7.351 
88 1 13.208 2.689 2.689 
95 1 10.952 4.945 4.945 
5 1 14.084 1.813 14.084 
14 1 10.076 5.821 10.076 
21 1 12.509 3.388 12.509 
30 1 11.651 4.246 11.651 
37 1 15.613 2 13.897 
47 1 13.897 0.284 13.897 
51 1 13.897 2 15.614 
62 1 8.546 5.634 10.263 
72 1 10.263 7.351 10.263 
76 1 10.263 5.634 8.546 
85 1 13.208 2.689 13.208 
94 1 10.952 4.945 10.952 
3 1 14.084 14.084 1.813 
12 1 10.076 10.076 5.821 
19 1 12.509 12.509 3.388 
28 1 11.651 11.651 4.246 
35 1 15.613 13.897 2 
45 1 13.897 15.614 2 
55 1 13.897 13.897 0.283 
60 1 8.547 10.263 5.634 
70 1 10.263 8.547 5.634 
80 1 10.263 10.263 7.351 
83 1 13.208 13.208 2.689 
92 1 10.952 10.952 4.945 
2 1 14.084 14.084 14.084 
9 1 10.076 10.076 10.076 
18 1 12.509 12.509 12.509 
25 1 11.651 11.651 11.651 
34 1 15.613 13.897 13.897 
42 1 13.897 15.614 13.897 
50 1 13.897 13.897 15.614 
57 1 8.546 10.263 10.263 
65 1 10.263 8.546 10.263 
73 1 10.263 10.263 8.547 
82 1 13.208 13.208 13.208 
89 1 10.952 10.952 10.952 
ITEM: TIMESTEP
10
ITEM: NUMBER OF ATOMS
97
ITEM: BOX BOUNDS pp pp pp
0.0000000000000000e+00 1.6524999999999999e+01
0.0000000000000000e+00 1.6526000000000000e+01
0.0000000000000000e+00 1.6526000000000000e+01
ITEM: ATOMS id type x y z 
1 1 1.81384 1.81344 1.81374 
10 1 5.81936 5.81923 5.81377 
17 1 3.39319 3.3931 3.39265 
26 1 4.23987 4.23984 4.24071 
33 1 0.283087 2.0057 2.00583 
41 1 2.00567 0.280944 2.00592 
49 1 2.00549 2.00633 0.260743 
58 1 7.35563 5.62704 5.62731 
66 1 5.6271 7.35564 5.62729 
74 1 5.62665 5.62637 7.34697 
81 1 2.69699 2.69713 2.69809 
90 1 4.93644 4.93644 4.93454 
4 1 1.80817 1.79931 14.0714 
11 1 5.85991 5.86246 10.0386 
20 1 3.35528 3.33343 12.4248 
27 1 4.26715 4.24723 11.5252 
36 1 0.292843 1.99785 13.892 
46 1 1.99835 0.291386 13.8905 
56 1 1.99917 2.00055 15.6034 
59 1 7.35809 5.62629 10.2709 
69 1 5.62625 7.35738 10.2712 
79 1 5.62665 5.62649 8.5377 
84 1 2.73226 2.78214 13.4215 
91 1 4.98138 4.98036 10.906 
97 2 3.60011 3.88525 13.8056 
6 1 1.81567 14.0826 1.81563 
13 1 5.8192 10.0786 5.81733 
22 1 3.39313 12.5037 3.39319 
29 1 4.24004 11.6568 4.24036 
38 1 0.282581 13.8907 2.00619 
48 1 2.00637 15.6198 2.00634 
52 1 2.00621 13.8906 0.275989 
61 1 7.35503 10.2698 5.62734 
71 1 5.62698 8.5407 5.62738 
75 1 5.62721 10.2697 7.35457 
86 1 2.69776 13.1997 2.69763 
93 1 4.93619 10.9612 4.9355 
7 1 1.81364 14.0838 14.0839 
16 1 5.81764 10.0838 10.0793 
23 1 3.39306 12.5042 12.5039 
32 1 4.23953 11.6567 11.6575 
39 1 0.282431 13.891 13.8916 
43 1 2.00561 15.6302 13.891 
53 1 2.00537 13.8912 15.6167 
64 1 7.35562 10.2705 10.2703 
68 1 5.62576 8.55048 10.2711 
78 1 5.62672 10.2704 8.54044 
87 1 2.69705 13.1994 13.2 
96 1 4.93591 10.9627 10.961 
8 1 14.0808 1.81576 1.81691 
15 1 10.0786 5.81948 5.81722 
24 1 12.5034 3.39368 3.39343 
31 1 11.6568 4.23998 4.24058 
40 1 15.6204 2.00704 2.00677 
44 1 13.8901 0.281662 2.00667 
54 1 13.8902 2.00676 0.277536 
63 1 8.5416 5.62705 5.62746 
67 1 10.2698 7.3544 5.62747 
77 1 10.2697 5.62731 7.35376 
88 1 13.1991 2.69763 2.6982 
95 1 10.9609 4.93665 4.93536 
5 1 14.0829 1.8147 14.0823 
14 1 10.083 5.81781 10.0793 
21 1 12.5036 3.39334 12.5035 
30 1 11.6568 4.23958 11.6573 
37 1 15.6322 2.00652 13.8908 
47 1 13.8904 0.281029 13.8912 
51 1 13.8906 2.00584 15.6152 
62 1 8.55153 5.62576 10.2708 
72 1 10.2704 7.35541 10.2702 
76 1 10.2703 5.62673 8.54145 
85 1 13.1995 2.69748 13.1998 
94 1 10.9621 4.93612 10.961 
3 1 14.0804 14.0807 1.81627 
12 1 10.0799 10.08 5.8176 
19 1 12.5033 12.5033 3.39369 
28 1 11.6568 11.6568 4.23984 
35 1 15.6179 13.8899 2.00695 
45 1 13.8899 15.6172 2.00691 
55 1 13.89 13.8901 0.279966 
60 1 8.53984 10.2702 5.62697 
70 1 10.2702 8.53993 5.62698 
80 1 10.27 10.27 7.35575 
83 1 13.1989 13.199 2.69801 
92 1 10.9614 10.9614 4.93634 
2 1 14.0811 14.0817 14.0803 
9 1 10.0797 10.0797 10.0798 
18 1 12.5036 12.5034 12.5038 
25 1 11.6571 11.657 11.6573 
34 1 15.6201 13.8902 13.8904 
42 1 13.8902 15.6186 13.8906 
50 1 13.8904 13.8905 15.6161 
57 1 8.54165 10.2702 10.2703 
65 1 10.2702 8.54147 10.2703 
73 1 10.2702 10.2702 8.54089 
82 1 13.1995 13.1999 13.199 
89 1 10.9614 10.9615 10.9611 
ITEM: TIMESTEP
20
ITEM: NUMBER OF ATOMS
97
ITEM: BOX BOUNDS pp pp pp
0.0000000000000000e+00 1.6524999999999999e+01
0.0000000000000000e+00 1.6526000000000000e+01
0.0000000000000000e+00 1.6526000000000000e+01
ITEM: ATOMS id type x y z 
1 1 1.81715 1.81582 1.80245 
10 1 5.81707 5.81725 5.80902 
17 1 3.38883 3.38883 3.38947 
26 1 4.24094 4.24078 4.2415 
33 1 0.28452 2.00781 2.00774 
41 1 2.00769 0.285533 2.00781 
49 1 2.00589 2.00761 0.271664 
58 1 7.35486 5.62337 5.6231 
66 1 5.62349 7.35539 5.62305 
74 1 5.62138 5.62088 7.3354 
81 1 2.69166 2.69152 2.69025 
90 1 4.93987 4.94016 4.93771 
4 1 1.78442 1.77872 14.0984 
11 1 5.85309 5.85397 10.0471 
20 1 3.40931 3.38257 12.3459 
27 1 4.23417 4.2082 11.5247 
36 1 0.287329 1.99964 13.8865 
46 1 2.00243 0.284517 13.8834 
56 1 1.99684 1.99735 15.6063 
59 1 7.36981 5.62365 10.2739 
69 1 5.62318 7.37099 10.2745 
79 1 5.62417 5.62418 8.52731 
84 1 2.75534 2.81591 13.4546 
91 1 4.96901 4.96595 10.9074 
97 2 3.5773 3.86761 13.8552 
6 1 1.81813 14.0817 1.81587 
13 1 5.81698 10.08 5.81575 
22 1 3.39047 12.506 3.39101 
29 1 4.2421 11.6549 4.24209 
38 1 0.280823 13.8875 2.00942 
48 1 2.0092 15.6192 2.00957 
52 1 2.00901 13.8875 0.278283 
61 1 7.35362 10.2731 5.62396 
71 1 5.62363 8.54474 5.62427 
75 1 5.6239 10.2728 7.35203 
86 1 2.69311 13.2052 2.69203 
93 1 4.9407 10.9563 4.9405 
7 1 1.81631 14.0928 14.0816 
16 1 5.81672 10.0874 10.0793 
23 1 3.38896 12.5072 12.5081 
32 1 4.24103 11.6555 11.6562 
39 1 0.284739 13.8888 13.8895 
43 1 2.00606 15.6164 13.8888 
53 1 2.00746 13.889 15.613 
64 1 7.35441 10.2744 10.2737 
68 1 5.62059 8.56365 10.2763 
78 1 5.62344 10.2743 8.54195 
87 1 2.69215 13.2061 13.205 
96 1 4.93991 10.9588 10.9565 
8 1 14.0822 1.81787 1.8155 
15 1 10.0801 5.81662 5.81544 
24 1 12.5059 3.39066 3.39105 
31 1 11.6548 4.24239 4.2422 
40 1 15.6189 2.00938 2.00967 
44 1 13.8872 0.281158 2.00973 
54 1 13.8873 2.00911 0.278445 
63 1 8.54571 5.62362 5.62422 
67 1 10.2732 7.35408 5.62392 
77 1 10.2729 5.6239 7.3515 
88 1 13.205 2.6928 2.6923 
95 1 10.9563 4.94049 4.94039 
5 1 14.0924 1.81587 14.0805 
14 1 10.0879 5.81646 10.0797 
21 1 12.5072 3.3889 12.5082 
30 1 11.6552 4.24072 11.6564 
37 1 15.6194 2.00738 13.889 
47 1 13.8884 0.284551 13.8893 
51 1 13.8886 2.00787 15.614 
62 1 8.56277 5.62025 10.2763 
72 1 10.2745 7.35485 10.2738 
76 1 10.2744 5.62327 8.54249 
85 1 13.2066 2.69226 13.2046 
94 1 10.9594 4.94016 10.9565 
3 1 14.081 14.0811 1.81617 
12 1 10.0798 10.0798 5.81688 
19 1 12.5058 12.5059 3.39108 
28 1 11.6544 11.6544 4.24279 
35 1 15.6161 13.8872 2.00962 
45 1 13.8871 15.616 2.00961 
55 1 13.8873 13.8873 0.280348 
60 1 8.54482 10.2731 5.62418 
70 1 10.2732 8.54533 5.6242 
80 1 10.273 10.273 7.3528 
83 1 13.2042 13.2041 2.69297 
92 1 10.956 10.956 4.94068 
2 1 14.0809 14.0809 14.0794 
9 1 10.0808 10.0806 10.0798 
18 1 12.5062 12.5064 12.5065 
25 1 11.655 11.655 11.655 
34 1 15.6186 13.8871 13.8876 
42 1 13.887 15.6192 13.8877 
50 1 13.8874 13.8875 15.6167 
57 1 8.5461 10.2731 10.2735 
65 1 10.2731 8.5464 10.2735 
73 1 10.2732 10.2732 8.54389 
82 1 13.2049 13.2046 13.2042 
89 1 10.9564 10.9563 10.9565 
ITEM: TIMESTEP
30
ITEM: NUMBER OF ATOMS
97
ITEM: BOX BOUNDS pp pp pp
0.0000000000000000e+00 1.6524999999999999e+01
0.0000000000000000e+00 1.6526000000000000e+01
0.0000000000000000e+00 1.6526000000000000e+01
ITEM: ATOMS id type x y z 
1 1 1.8186 1.81817 1.80961 
10 1 5.81876 5.81865 5.80467 
17 1 3.38981 3.38985 3.39155 
26 1 4.23853 4.23865 4.24014 
33 1 0.280949 2.01136 2.00993 
41 1 2.0114 0.280767 2.00997 
49 1 2.00944 2.01108 0.283302 
58 1 7.35541 5.62095 5.6198 
66 1 5.62097 7.35604 5.61975 
74 1 5.61747 5.6171 7.33526 
81 1 2.69402 2.69371 2.68994 
90 1 4.9384 4.93825 4.93355 
4 1 1.79191 1.7854 14.0917 
11 1 5.84374 5.84478 10.0559 
20 1 3.39916 3.36983 12.3423 
27 1 4.24017 4.21067 11.4993 
36 1 0.275329 2.00499 13.8801 
46 1 2.00877 0.274452 13.876 
56 1 1.99757 1.99805 15.618 
59 1 7.37354 5.62242 10.2753 
69 1 5.62184 7.37391 10.276 
79 1 5.62389 5.62379 8.5245 
84 1 2.7761 2.83995 13.4503 
91 1 4.97207 4.96723 10.8953 
97 2 3.57355 3.87034 13.8932 
6 1 1.81548 14.084 1.81507 
13 1 5.81872 10.0798 5.8167 
22 1 3.3912 12.5052 3.39157 
29 1 4.24087 11.6558 4.24113 
38 1 0.283719 13.8857 2.01118 
48 1 2.01079 15.6147 2.01171 
52 1 2.01078 13.8853 0.283183 
61 1 7.35341 10.2753 5.62173 
71 1 5.62119 8.54607 5.62205 
75 1 5.62145 10.275 7.34996 
86 1 2.69508 13.2037 2.6941 
93 1 4.93878 10.9586 4.93806 
7 1 1.81789 14.0835 14.0802 
16 1 5.81863 10.0925 10.0782 
23 1 3.39043 12.5048 12.5066 
32 1 4.23896 11.6564 11.6579 
39 1 0.280506 13.8863 13.8858 
43 1 2.00991 15.6042 13.883 
53 1 2.01123 13.8865 15.6172 
64 1 7.35503 10.2777 10.2762 
68 1 5.6165 8.5647 10.2803 
78 1 5.62082 10.2777 8.54032 
87 1 2.69422 13.2062 13.2032 
96 1 4.93845 10.9631 10.9585 
8 1 14.0832 1.8158 1.81437 
15 1 10.08 5.81904 5.81666 
24 1 12.5054 3.39128 3.39166 
31 1 11.6559 4.24079 4.24103 
40 1 15.6153 2.01109 2.01198 
44 1 13.8853 0.282033 2.0116 
54 1 13.8851 2.01092 0.282539 
63 1 8.5466 5.62111 5.62202 
67 1 10.2753 7.35339 5.62174 
77 1 10.2749 5.6214 7.34971 
88 1 13.2032 2.69477 2.69408 
95 1 10.9586 4.93908 4.93821 
5 1 14.0847 1.81812 14.0796 
14 1 10.0925 5.81873 10.0783 
21 1 12.5048 3.39034 12.5067 
30 1 11.6564 4.23872 11.6582 
37 1 15.6072 2.01068 13.8836 
47 1 13.886 0.279598 13.8856 
51 1 13.8862 2.01139 15.6178 
62 1 8.56369 5.61633 10.2802 
72 1 10.2777 7.35419 10.2763 
76 1 10.2777 5.62078 8.54105 
85 1 13.2069 2.69404 13.203 
94 1 10.9635 4.93848 10.9585 
3 1 14.0803 14.0813 1.81644 
12 1 10.0791 10.0794 5.81831 
19 1 12.5049 12.5048 3.39215 
28 1 11.6555 11.6555 4.24149 
35 1 15.6176 13.8847 2.01199 
45 1 13.8848 15.6178 2.012 
55 1 13.885 13.8849 0.279262 
60 1 8.54421 10.2753 5.62192 
70 1 10.2754 8.54417 5.62193 
80 1 10.2752 10.2752 7.35205 
83 1 13.2025 13.2028 2.69439 
92 1 10.958 10.9579 4.93909 
2 1 14.0819 14.0836 14.082 
9 1 10.0806 10.0811 10.079 
18 1 12.5054 12.5052 12.5056 
25 1 11.656 11.6558 11.6564 
34 1 15.6137 13.8849 13.886 
42 1 13.8849 15.6138 13.8862 
50 1 13.8856 13.8856 15.614 
57 1 8.5469 10.2754 10.2762 
65 1 10.2755 8.54714 10.2762 
73 1 10.2756 10.2756 8.54341 
82 1 13.2031 13.2036 13.2024 
89 1 10.9589 10.9592 10.9581 
ITEM: TIMESTEP
40
ITEM: NUMBER OF ATOMS
97
ITEM: BOX BOUNDS pp pp pp
0.0000000000000000e+00 1.6524999999999999e+01
0.0000000000000000e+00 1.6526000000000000e+01
0.0000000000000000e+00 1.6526000000000000e+01
ITEM: ATOMS id type x y z 
1 1 1.81724 1.8168 1.8134 
10 1 5.81907 5.81892 5.80233 
17 1 3.38987 3.38988 3.39133 
26 1 4.23845 4.23849 4.24045 
33 1 0.282182 2.01278 2.01106 
41 1 2.01285 0.281731 2.01104 
49 1 2.01085 2.01251 0.281673 
58 1 7.35519 5.61974 5.61806 
66 1 5.61977 7.35517 5.61802 
74 1 5.61582 5.61546 7.33501 
81 1 2.69373 2.69346 2.69 
90 1 4.93904 4.93903 4.93288 
4 1 1.79182 1.78563 14.0955 
11 1 5.84436 5.84531 10.0557 
20 1 3.40607 3.37684 12.3357 
27 1 4.23486 4.20414 11.4981 
36 1 0.27727 2.00562 13.8789 
46 1 2.00995 0.274903 13.8743 
56 1 1.99583 1.99612 15.6148 
59 1 7.37314 5.62196 10.2757 
69 1 5.62127 7.37399 10.2765 
79 1 5.624 5.62388 8.52563 
84 1 2.77781 2.84331 13.4573 
91 1 4.96911 4.96312 10.8921 
97 2 3.57116 3.86892 13.9008 
6 1 1.81674 14.0824 1.81657 
13 1 5.81835 10.0805 5.81605 
22 1 3.39138 12.5054 3.39134 
29 1 4.24105 11.6556 4.24125 
38 1 0.281893 13.8842 2.01269 
48 1 2.01232 15.6159 2.01314 
52 1 2.01237 13.884 0.282538 
61 1 7.35352 10.2766 5.6204 
71 1 5.6198 8.54646 5.62077 
75 1 5.62001 10.2762 7.34971 
86 1 2.69422 13.204 2.69395 
93 1 4.93926 10.9582 4.93856 
7 1 1.8165 14.0809 14.0813 
16 1 5.81912 10.0952 10.0776 
23 1 3.3905 12.5051 12.5065 
32 1 4.23878 11.6561 11.6581 
39 1 0.280853 13.8849 13.8845 
43 1 2.01159 15.6065 13.8803 
53 1 2.01261 13.8851 15.6166 
64 1 7.35511 10.2795 10.2774 
68 1 5.61473 8.56402 10.2821 
78 1 5.61963 10.2795 8.54073 
87 1 2.69402 13.2058 13.2035 
96 1 4.93927 10.9637 10.9576 
8 1 14.0816 1.81661 1.81595 
15 1 10.0806 5.81869 5.81589 
24 1 12.5056 3.39135 3.39148 
31 1 11.6556 4.24099 4.24121 
40 1 15.6159 2.01258 2.01332 
44 1 13.884 0.281052 2.01297 
54 1 13.8838 2.01244 0.282083 
63 1 8.54646 5.61971 5.62077 
67 1 10.2766 7.35341 5.62043 
77 1 10.2762 5.61997 7.34992 
88 1 13.2035 2.69401 2.69375 
95 1 10.9583 4.93948 4.93856 
5 1 14.0817 1.81631 14.081 
14 1 10.0951 5.81908 10.0778 
21 1 12.5052 3.39026 12.5067 
30 1 11.6561 4.23856 11.6584 
37 1 15.6079 2.01214 13.8812 
47 1 13.8848 0.280671 13.8843 
51 1 13.885 2.01272 15.6165 
62 1 8.56346 5.61462 10.2819 
72 1 10.2795 7.35509 10.2775 
76 1 10.2795 5.61959 8.54124 
85 1 13.2065 2.69386 13.2033 
94 1 10.9641 4.93927 10.9577 
3 1 14.0814 14.0819 1.81532 
12 1 10.0791 10.0794 5.81793 
19 1 12.5053 12.5054 3.39172 
28 1 11.6554 11.6553 4.24169 
35 1 15.6148 13.8839 2.0128 
45 1 13.8839 15.6154 2.01289 
55 1 13.8841 13.8841 0.281719 
60 1 8.54507 10.2765 5.62079 
70 1 10.2765 8.54504 5.62079 
80 1 10.2764 10.2764 7.35211 
83 1 13.2029 13.203 2.69396 
92 1 10.9577 10.9578 4.93923 
2 1 14.0804 14.0819 14.0808 
9 1 10.0812 10.0814 10.0788 
18 1 12.5057 12.5055 12.5055 
25 1 11.6557 11.6558 11.6561 
34 1 15.615 13.8836 13.8844 
42 1 13.8835 15.6153 13.8846 
50 1 13.8842 13.8842 15.616 
57 1 8.54704 10.2766 10.2775 
65 1 10.2766 8.54678 10.2775 
73 1 10.2769 10.2769 8.54346 
82 1 13.2031 13.2037 13.2032 
89 1 10.9586 10.9584 10.9577 
ITEM: TIMESTEP
43
ITEM: NUMBER OF ATOMS
97
ITEM: BOX BOUNDS pp pp pp
0.0000000000000000e+00 1.6524999999999999e+01
0.0000000000000000e+00 1.6526000000000000e+01
0.0000000000000000e+00 1.6526000000000000e+01
ITEM: ATOMS id type x y z 
1 1 1.81723 1.81669 1.81344 
10 1 5.819 5.81886 5.80224 
17 1 3.38986 3.38987 3.39128 
26 1 4.23844 4.23848 4.24047 
33 1 0.282406 2.01286 2.01116 
41 1 2.01292 0.281586 2.01113 
49 1 2.01091 2.01258 0.281505 
58 1 7.35487 5.61965 5.61793 
66 1 5.61969 7.35478 5.61789 
74 1 5.61573 5.61537 7.33523 
81 1 2.69368 2.69341 2.69003 
90 1 4.93915 4.93913 4.93289 
4 1 1.79176 1.78562 14.0956 
11 1 5.84441 5.84529 10.0555 
20 1 3.40644 3.37726 12.3356 
27 1 4.23437 4.20359 11.4982 
36 1 0.276836 2.00562 13.8788 
46 1 2.00999 0.274968 13.8743 
56 1 1.99571 1.99599 15.6147 
59 1 7.37295 5.62192 10.2757 
69 1 5.62121 7.37361 10.2766 
79 1 5.62401 5.6239 8.5255 
84 1 2.7778 2.84338 13.4578 
91 1 4.96901 4.96295 10.8918 
97 2 3.57102 3.8688 13.9011 
6 1 1.81667 14.0823 1.81663 
13 1 5.81828 10.0806 5.81595 
22 1 3.39141 12.5055 3.39133 
29 1 4.24104 11.6556 4.24126 
38 1 0.281658 13.8842 2.01278 
48 1 2.01243 15.6162 2.01321 
52 1 2.01248 13.8839 0.282302 
61 1 7.35318 10.2767 5.6203 
71 1 5.6197 8.54683 5.62068 
75 1 5.6199 10.2763 7.34942 
86 1 2.69412 13.204 2.69391 
93 1 4.93935 10.9582 4.93861 
7 1 1.81652 14.0808 14.0813 
16 1 5.8191 10.0953 10.0776 
23 1 3.39045 12.5051 12.5065 
32 1 4.23874 11.6561 11.6581 
39 1 0.281332 13.8847 13.8844 
43 1 2.01169 15.6068 13.8801 
53 1 2.01269 13.885 15.6168 
64 1 7.35538 10.2796 10.2775 
68 1 5.61462 8.56447 10.2822 
78 1 5.61955 10.2796 8.5411 
87 1 2.694 13.2057 13.2035 
96 1 4.93941 10.9637 10.9574 
8 1 14.0815 1.81656 1.81597 
15 1 10.0807 5.81862 5.81581 
24 1 12.5056 3.39139 3.39148 
31 1 11.6556 4.24101 4.24125 
40 1 15.6158 2.01268 2.0134 
44 1 13.8839 0.280966 2.01306 
54 1 13.8837 2.01255 0.281671 
63 1 8.5468 5.61961 5.62068 
67 1 10.2767 7.35317 5.62034 
77 1 10.2763 5.61987 7.34965 
88 1 13.2036 2.69391 2.6937 
95 1 10.9582 4.93953 4.93857 
5 1 14.0818 1.81626 14.0811 
14 1 10.0952 5.81904 10.0778 
21 1 12.5053 3.39022 12.5068 
30 1 11.6562 4.23854 11.6584 
37 1 15.6086 2.0122 13.8811 
47 1 13.8847 0.281015 13.8843 
51 1 13.8849 2.01278 15.6168 
62 1 8.56366 5.61452 10.282 
72 1 10.2796 7.35528 10.2776 
76 1 10.2796 5.61951 8.54153 
85 1 13.2064 2.69384 13.2033 
94 1 10.964 4.93937 10.9575 
3 1 14.0814 14.0818 1.81537 
12 1 10.0792 10.0795 5.81783 
19 1 12.5053 12.5054 3.39168 
28 1 11.6554 11.6553 4.24169 
35 1 15.6151 13.8838 2.01288 
45 1 13.8838 15.6155 2.01297 
55 1 13.8841 13.884 0.282168 
60 1 8.54542 10.2765 5.6207 
70 1 10.2766 8.54528 5.6207 
80 1 10.2765 10.2765 7.35169 
83 1 13.203 13.203 2.69393 
92 1 10.9576 10.9577 4.93931 
2 1 14.0803 14.0818 14.0807 
9 1 10.0811 10.0813 10.0789 
18 1 12.5057 12.5055 12.5055 
25 1 11.6558 11.6558 11.6562 
34 1 15.6146 13.8835 13.8843 
42 1 13.8834 15.6152 13.8845 
50 1 13.8841 13.8841 15.6156 
57 1 8.54691 10.2767 10.2776 
65 1 10.2767 8.54678 10.2776 
73 1 10.2769 10.2769 8.54392 
82 1 13.2031 13.2037 13.2033 
89 1 10.9585 10.9584 10.9576 
ITEM: TIMESTEP
44
ITEM: NUMBER OF ATOMS
97
ITEM: BOX BOUNDS pp pp pp
0.0000000000000000e+00 1.6524999999999999e+01
0.0000000000000000e+00 1.6526000000000000e+01
0.0000000000000000e+00 1.6526000000000000e+01
ITEM: ATOMS id type x y z 
1 1 1.81723 1.81669 1.81344 
10 1 5.819 5.81886 5.80224 
17 1 3.38986 3.38987 3.39128 
26 1 4.23844 4.23848 4.24047 
33 1 0.282406 2.01286 2.01116 
41 1 2.01292 0.281586 2.01113 
49 1 2.01091 2.01258 0.281505 
58 1 7.35487 5.61965 5.61793 
66 1 5.61969 7.35478 5.61789 
74 1 5.61573 5.61537 7.33523 
81 1 2.69368 2.69341 2.69003 
90 1 4.93915 4.93913 4.93289 
4 1 1.79176 1.78562 14.0956 
11 1 5.84441 5.84529 10.0555 
20 1 3.40644 3.37726 12.3356 
27 1 4.23437 4.20359 11.4982 
36 1 0.276836 2.00562 13.8788 
46 1 2.00999 0.274968 13.8743 
56 1 1.99571 1.99599 15.6147 
59 1 7.37295 5.62192 10.2757 
69 1 5.62121 7.37361 10.2766 
79 1 5.62401 5.6239 8.5255 
84 1 2.7778 2.84338 13.4578 
91 1 4.96901 4.96295 10.8918 
97 2 3.57102 3.8688 13.9011 
6 1 1.81667 14.0823 1.81663 
13 1 5.81828 10.0806 5.81595 
22 1 3.39141 12.5055 3.39133 
29 1 4.24104 11.6556 4.24126 
38 1 0.281658 13.8842 2.01278 
48 1 2.01243 15.6162 2.01321 
52 1 2.01248 13.8839 0.282302 
61 1 7.35318 10.2767 5.6203 
71 1 5.6197 8.54683 5.62068 
75 1 5.6199 10.2763 7.34942 
86 1 2.69412 13.204 2.69391 
93 1 4.93935 10.9582 4.93861 
7 1 1.81652 14.0808 14.0813 
16 1 5.8191 10.0953 10.0776 
23 1 3.39045 12.5051 12.5065 
32 1 4.23874 11.6561 11.6581 
39 1 0.281332 13.8847 13.8844 
43 1 2.01169 15.6068 13.8801 
53 1 2.01269 13.885 15.6168 
64 1 7.35538 10.2796 10.2775 
68 1 5.61462 8.56447 10.2822 
78 1 5.61955 10.2796 8.5411 
87 1 2.694 13.2057 13.2035 
96 1 4.93941 10.9637 10.9574 
8 1 14.0815 1.81656 1.81597 
15 1 10.0807 5.81862 5.81581 
24 1 12.5056 3.39139 3.39148 
31 1 11.6556 4.24101 4.24125 
40 1 15.6158 2.01268 2.0134 
44 1 13.8839 0.280966 2.01306 
54 1 13.8837 2.01255 0.281671 
63 1 8.5468 5.61961 5.62068 
67 1 10.2767 7.35317 5.62034 
77 1 10.2763 5.61987 7.34965 
88 1 13.2036 2.69391 2.6937 
95 1 10.9582 4.93953 4.93857 
5 1 14.0818 1.81626 14.0811 
14 1 10.0952 5.81904 10.0778 
21 1 12.5053 3.39022 12.5068 
30 1 11.6562 4.23854 11.6584 
37 1 15.6086 2.0122 13.8811 
47 1 13.8847 0.281015 13.8843 
51 1 13.8849 2.01278 15.6168 
62 1 8.56366 5.61452 10.282 
72 1 10.2796 7.35528 10.2776 
76 1 10.2796 5.61951 8.54153 
85 1 13.2064 2.69384 13.2033 
94 1 10.964 4.93937 10.9575 
3 1 14.0814 14.0818 1.81537 
12 1 10.0792 10.0795 5.81783 
19 1 12.5053 12.5054 3.39168 
28 1 11.6554 11.6553 4.24169 
35 1 15.6151 13.8838 2.01288 
45 1 13.8838 15.6155 2.01297 
55 1 13.8841 13.884 0.282168 
60 1 8.54542 10.2765 5.6207 
70 1 10.2766 8.54528 5.6207 
80 1 10.2765 10.2765 7.35169 
83 1 13.203 13.203 2.69393 
92 1 10.9576 10.9577 4.93931 
2 1 14.0803 14.0818 14.0807 
9 1 10.0811 10.0813 10.0789 
18 1 12.5057 12.5055 12.5055 
25 1 11.6558 11.6558 11.6562 
34 1 15.6146 13.8835 13.8843 
42 1 13.8834 15.6152 13.8845 
50 1 13.8841 13.8841 15.6156 
57 1 8.54691 10.2767 10.2776 
65 1 10.2767 8.54678 10.2776 
73 1 10.2769 10.2769 8.54392 
82 1 13.2031 13.2037 13.2033 
89 1 10.9585 10.9584 10.9576 
ITEM: TIMESTEP
47
ITEM: NUMBER OF ATOMS
97
ITEM: BOX BOUNDS pp pp pp
-5.5705774919359704e-04 1.6525557057749197e+01
-8.2358731510830303e-04 1.6526823587315107e+01
-4.6458899337068252e-04 1.6526464588993370e+01
ITEM: ATOMS id type x y z 
1 1 1.81679 1.81604 1.81305 
10 1 5.81884 5.81863 5.80209 
17 1 3.38954 3.38939 3.391 
26 1 4.23816 4.23808 4.24024 
33 1 0.281826 2.01224 2.01081 
41 1 2.0125 0.280813 2.01079 
49 1 2.01049 2.01195 0.281018 
58 1 7.35493 5.61939 5.61777 
66 1 5.61951 7.35476 5.61773 
74 1 5.61554 5.6151 7.33517 
81 1 2.6933 2.69285 2.68972 
90 1 4.93893 4.9388 4.93271 
4 1 1.79132 1.78498 14.096 
11 1 5.84424 5.84505 10.0556 
20 1 3.40612 3.37679 12.3359 
27 1 4.23408 4.20317 11.4984 
36 1 0.276353 2.005 13.8792 
46 1 2.00958 0.27416 13.8746 
56 1 1.99528 1.99536 15.6152 
59 1 7.37287 5.62165 10.2758 
69 1 5.62103 7.37351 10.2767 
79 1 5.62383 5.62363 8.52551 
84 1 2.77744 2.84285 13.4581 
91 1 4.96878 4.9626 10.8919 
97 2 3.5707 3.86836 13.9014 
6 1 1.81624 14.0829 1.81627 
13 1 5.81814 10.0808 5.81581 
22 1 3.39108 12.5059 3.39106 
29 1 4.24077 11.656 4.24103 
38 1 0.281116 13.8847 2.01243 
48 1 2.01202 15.6169 2.01287 
52 1 2.01206 13.8845 0.281909 
61 1 7.3533 10.2769 5.62015 
71 1 5.61951 8.54679 5.62053 
75 1 5.61972 10.2765 7.34935 
86 1 2.69373 13.2045 2.69359 
93 1 4.93914 10.9584 4.93843 
7 1 1.81608 14.0814 14.0816 
16 1 5.81893 10.0955 10.0778 
23 1 3.39013 12.5056 12.5068 
32 1 4.23847 11.6565 11.6583 
39 1 0.28072 13.8853 13.8847 
43 1 2.01127 15.6076 13.8804 
53 1 2.01227 13.8855 15.6172 
64 1 7.35533 10.2798 10.2776 
68 1 5.61444 8.56452 10.2824 
78 1 5.61936 10.2798 8.54111 
87 1 2.69362 13.2062 13.2038 
96 1 4.93919 10.9639 10.9576 
8 1 14.0819 1.81591 1.81563 
15 1 10.0808 5.8184 5.81569 
24 1 12.5059 3.3909 3.39121 
31 1 11.6559 4.24061 4.24102 
40 1 15.6163 2.01207 2.01305 
44 1 13.8843 0.280147 2.01271 
54 1 13.8841 2.01193 0.28129 
63 1 8.54672 5.61935 5.62053 
67 1 10.2769 7.35326 5.62019 
77 1 10.2765 5.6196 7.34968 
88 1 13.2039 2.69335 2.69338 
95 1 10.9584 4.93921 4.93838 
5 1 14.0822 1.81562 14.0814 
14 1 10.0954 5.8188 10.0779 
21 1 12.5056 3.38973 12.507 
30 1 11.6564 4.23814 11.6586 
37 1 15.6091 2.01158 13.8814 
47 1 13.8851 0.280189 13.8846 
51 1 13.8853 2.01216 15.6172 
62 1 8.5637 5.61425 10.2821 
72 1 10.2798 7.35523 10.2777 
76 1 10.2797 5.61924 8.54144 
85 1 13.2068 2.69328 13.2036 
94 1 10.9642 4.93904 10.9577 
3 1 14.0818 14.0824 1.81499 
12 1 10.0793 10.0796 5.81771 
19 1 12.5056 12.5058 3.39141 
28 1 11.6556 11.6557 4.24146 
35 1 15.6156 13.8844 2.01253 
45 1 13.8842 15.6163 2.01262 
55 1 13.8844 13.8846 0.281531 
60 1 8.54526 10.2767 5.62055 
70 1 10.2767 8.54514 5.62055 
80 1 10.2766 10.2767 7.35182 
83 1 13.2033 13.2035 2.69361 
92 1 10.9578 10.958 4.93913 
2 1 14.0806 14.0823 14.0811 
9 1 10.0813 10.0815 10.079 
18 1 12.506 12.506 12.5058 
25 1 11.656 11.6561 11.6564 
34 1 15.6151 13.8841 13.8846 
42 1 13.8838 15.6159 13.8848 
50 1 13.8844 13.8846 15.6162 
57 1 8.54694 10.2769 10.2777 
65 1 10.2768 8.54677 10.2777 
73 1 10.2771 10.2772 8.54375 
82 1 13.2035 13.2042 13.2035 
89 1 10.9587 10.9586 10.9577 
ITEM: TIMESTEP
48
ITEM: NUMBER OF ATOMS
97
ITEM: BOX BOUNDS pp pp pp
-5.5705774919359704e-04 1.6525557057749197e+01
-8.2358731510830303e-04 1.6526823587315107e+01
-4.6458899337068252e-04 1.6526464588993370e+01
ITEM: ATOMS id type x y z 
1 1 1.81679 1.81604 1.81305 
10 1 5.81884 5.81863 5.80209 
17 1 3.38954 3.38939 3.391 
26 1 4.23816 4.23808 4.24024 
33 1 0.281826 2.01224 2.01081 
41 1 2.0125 0.280813 2.01079 
49 1 2.01049 2.01195 0.281018 
58 1 7.35493 5.61939 5.61777 
66 1 5.61951 7.35476 5.61773 
74 1 5.61554 5.6151 7.33517 
81 1 2.6933 2.69285 2.68972 
90 1 4.93893 4.9388 4.93271 
4 1 1.79132 1.78498 14.096 
11 1 5.84424 5.84505 10.0556 
20 1 3.40612 3.37679 12.3359 
27 1 4.23408 4.20317 11.4984 
36 1 0.276353 2.005 13.8792 
46 1 2.00958 0.27416 13.8746 
56 1 1.99528 1.99536 15.6152 
59 1 7.37287 5.62165 10.2758 
69 1 5.62103 7.37351 10.2767 
79 1 5.62383 5.62363 8.52551 
84 1 2.77744 2.84285 13.4581 
91 1 4.96878 4.9626 10.8919 
97 2 3.5707 3.86836 13.9014 
6 1 1.81624 14.0829 1.81627 
13 1 5.81814 10.0808 5.81581 
22 1 3.39108 12.5059 3.39106 
29 1 4.24077 11.656 4.24103 
38 1 0.281116 13.8847 2.01243 
48 1 2.01202 15.6169 2.01287 
52 1 2.01206 13.8845 0.281909 
61 1 7.3533 10.2769 5.62015 
71 1 5.61951 8.54679 5.62053 
75 1 5.61972 10.2765 7.34935 
86 1 2.69373 13.2045 2.69359 
93 1 4.93914 10.9584 4.93843 
7 1 1.81608 14.0814 14.0816 
16 1 5.81893 10.0955 10.0778 
23 1 3.39013 12.5056 12.5068 
32 1 4.23847 11.6565 11.6583 
39 1 0.28072 13.8853 13.8847 
43 1 2.01127 15.6076 13.8804 
53 1 2.01227 13.8855 15.6172 
64 1 7.35533 10.2798 10.2776 
68 1 5.61444 8.56452 10.2824 
78 1 5.61936 10.2798 8.54111 
87 1 2.69362 13.2062 13.2038 
96 1 4.93919 10.9639 10.9576 
8 1 14.0819 1.81591 1.81563 
15 1 10.0808 5.8184 5.81569 
24 1 12.5059 3.3909 3.39121 
31 1 11.6559 4.24061 4.24102 
40 1 15.6163 2.01207 2.01305 
44 1 13.8843 0.280147 2.01271 
54 1 13.8841 2.01193 0.28129 
63 1 8.54672 5.61935 5.62053 
67 1 10.2769 7.35326 5.62019 
77 1 10.2765 5.6196 7.34968 
88 1 13.2039 2.69335 2.69338 
95 1 10.9584 4.93921 4.93838 
5 1 14.0822 1.81562 14.0814 
14 1 10.0954 5.8188 10.0779 
21 1 12.5056 3.38973 12.507 
30 1 11.6564 4.23814 11.6586 
37 1 15.6091 2.01158 13.8814 
47 1 13.8851 0.280189 13.8846 
51 1 13.8853 2.01216 15.6172 
62 1 8.5637 5.61425 10.2821 
72 1 10.2798 7.35523 10.2777 
76 1 10.2797 5.61924 8.54144 
85 1 13.2068 2.69328 13.2036 
94 1 10.9642 4.93904 10.9577 
3 1 14.0818 14.0824 1.81499 
12 1 10.0793 10.0796 5.81771 
19 1 12.5056 12.5058 3.39141 
28 1 11.6556 11.6557 4.24146 
35 1 15.6156 13.8844 2.01253 
45 1 13.8842 15.6163 2.01262 
55 1 13.8844 13.8846 0.281531 
60 1 8.54526 10.2767 5.62055 
70 1 10.2767 8.54514 5.62055 
80 1 10.2766 10.2767 7.35182 
83 1 13.2033 13.2035 2.69361 
92 1 10.9578 10.958 4.93913 
2 1 14.0806 14.0823 14.0811 
9 1 10.0813 10.0815 10.079 
18 1 12.506 12.506 12.5058 
25 1 11.656 11.6561 11.6564 
34 1 15.6151 13.8841 13.8846 
42 1 13.8838 15.6159 13.8848 
50 1 13.8844 13.8846 15.6162 
57 1 8.54694 10.2769 10.2777 
65 1 10.2768 8.54677 10.2777 
73 1 10.2771 10.2772 8.54375 
82 1 13.2035 13.2042 13.2035 
89 1 10.9587 10.9586 10.9577 
ITEM: TIMESTEP
49
ITEM: NUMBER OF ATOMS
97
ITEM: BOX BOUNDS pp pp pp
-5.5705774919359704e-04 1.6525557057749197e+01
-8.2358731510830303e-04 1.6526823587315107e+01
-4.6458899337068252e-04 1.6526464588993370e+01
ITEM: ATOMS id type x y z 
1 1 1.81679 1.81604 1.81305 
10 1 5.81884 5.81863 5.80209 
17 1 3.38954 3.38939 3.391 
26 1 4.23816 4.23808 4.24024 
33 1 0.281826 2.01224 2.01081 
41 1 2.0125 0.280813 2.01079 
49 1 2.01049 2.01195 0.281018 
58 1 7.35493 5.61939 5.61777 
66 1 5.61951 7.35476 5.61773 
74 1 5.61554 5.6151 7.33517 
81 1 2.6933 2.69285 2.68972 
90 1 4.93893 4.9388 4.93271 
4 1 1.79132 1.78498 14.096 
11 1 5.84424 5.84505 10.0556 
20 1 3.40612 3.37679 12.3359 
27 1 4.23408 4.20317 11.4984 
36 1 0.276353 2.005 13.8792 
46 1 2.00958 0.27416 13.8746 
56 1 1.99528 1.99536 15.6152 
59 1 7.37287 5.62165 10.2758 
69 1 5.62103 7.37351 10.2767 
79 1 5.62383 5.62363 8.52551 
84 1 2.77744 2.84285 13.4581 
91 1 4.96878 4.9626 10.8919 
97 2 3.5707 3.86836 13.9014 
6 1 1.81624 14.0829 1.81627 
13 1 5.81814 10.0808 5.81581 
22 1 3.39108 12.5059 3.39106 
29 1 4.24077 11.656 4.24103 
38 1 0.281116 13.8847 2.01243 
48 1 2.01202 15.6169 2.01287 
52 1 2.01206 13.8845 0.281909 
61 1 7.3533 10.2769 5.62015 
71 1 5.61951 8.54679 5.62053 
75 1 5.61972 10.2765 7.34935 
86 1 2.69373 13.2045 2.69359 
93 1 4.93914 10.9584 4.93843 
7 1 1.81608 14.0814 14.0816 
16 1 5.81893 10.0955 10.0778 
23 1 3.39013 12.5056 12.5068 
32 1 4.23847 11.6565 11.6583 
39 1 0.28072 13.8853 13.8847 
43 1 2.01127 15.6076 13.8804 
53 1 2.01227 13.8855 15.6172 
64 1 7.35533 10.2798 10.2776 
68 1 5.61444 8.56452 10.2824 
78 1 5.61936 10.2798 8.54111 
87 1 2.69362 13.2062 13.2038 
96 1 4.93919 10.9639 10.9576 
8 1 14.0819 1.81591 1.81563 
15 1 10.0808 5.8184 5.81569 
24 1 12.5059 3.3909 3.39121 
31 1 11.6559 4.24061 4.24102 
40 1 15.6163 2.01207 2.01305 
44 1 13.8843 0.280147 2.01271 
54 1 13.8841 2.01193 0.28129 
63 1 8.54672 5.61935 5.62053 
67 1 10.2769 7.35326 5.62019 
77 1 10.2765 5.6196 7.34968 
88 1 13.2039 2.69335 2.69338 
95 1 10.9584 4.93921 4.93838 
5 1 14.0822 1.81562 14.0814 
14 1 10.0954 5.8188 10.0779 
21 1 12.5056 3.38973 12.507 
30 1 11.6564 4.23814 11.6586 
37 1 15.6091 2.01158 13.8814 
47 1 13.8851 0.280189 13.8846 
51 1 13.8853 2.01216 15.6172 
62 1 8.5637 5.61425 10.2821 
72 1 10.2798 7.35523 10.2777 
76 1 10.2797 5.61924 8.54144 
85 1 13.2068 2.69328 13.2036 
94 1 10.9642 4.93904 10.9577 
3 1 14.0818 14.0824 1.81499 